FOO
138240
    1MOL0     O    1   6.620   5.393   4.335  0.4452  0.0934 -0.1063
    1MOL0     C    2   6.583   5.407   4.451  0.1070  0.2337  0.0504
    1MOL0     O    3   6.474   5.343   4.502  1.0561  0.1272  0.4675
    1MOL0     C    4   6.406   5.242   4.433  0.2799  0.2816 -0.7317
    1MOL0     C    5   6.371   5.123   4.504 -0.4246  0.4322 -0.2626
    1MOL0     C    6   6.297   5.030   4.436  0.2075 -0.7150 -0.2747
    1MOL0     C    7   6.242   5.048   4.314  0.3347  0.4194  0.4294
    1MOL0     O    8   6.144   4.964   4.259  0.1622  0.0191 -0.4153
    1MOL0     C    9   6.017   4.979   4.329 -0.2603 -0.3178 -0.0582
    1MOL0     C   10   5.904   4.961   4.244 -0.3965  0.2087 -0.2310
    1MOL0     C   11   5.774   4.979   4.310 -0.0649 -0.6804  0.1808
    1MOL0     C   12   5.659   4.954   4.209 -0.5854 -0.6961  0.4947
    1MOL0     C   13   5.521   4.939   4.266  0.2844 -0.7592 -0.7193
    1MOL0     C   14   5.426   4.880   4.165  0.5588  0.0215 -0.3698
    1MOL0     C   15   5.281   4.836   4.223 -0.0933 -0.7198 -0.0686
    1MOL0     C   16   5.180   4.812   4.101 -0.4386 -0.3065 -0.8927
    1MOL0     N   17   5.063   4.741   4.147  0.8047  0.0208  0.5899
    1MOL0     C   18   5.049   4.601   4.136 -0.2137  0.0468 -0.1139
    1MOL0     C   19   4.917   4.583   4.170  1.1746  0.0686 -0.3581
    1MOL0     C   20   4.872   4.439   4.177  0.4551  0.2789  0.5061
    1MOL0     C   21   4.907   4.357   4.054  0.0488  0.1428  0.0215
    1MOL0     C   22   4.879   4.210   4.075 -0.1414 -0.0967  0.6384
    1MOL0     C   23   4.936   4.118   3.970 -0.2763 -0.7164 -0.2174
    1MOL0     O   24   4.865   3.997   3.946 -0.6489  0.2481 -0.2033
    1MOL0     C   25   4.737   3.997   3.890  0.2169  0.0930  0.5625
    1MOL0     C   26   4.673   3.873   3.869 -1.4055 -0.4771  0.1751
    1MOL0     C   27   4.553   3.861   3.805  0.4283 -0.0620 -0.1762
    1MOL0     C   28   4.509   3.722   3.797  0.6462  0.3854 -0.4840
    1MOL0     C   29   4.475   3.979   3.769 -1.2140  0.2167  0.1156
    1MOL0     C   30   4.340   3.981   3.719  0.5518 -0.0512  0.9909
    1MOL0     O   31   4.253   3.875   3.747 -0.4223  0.3646  0.3717
    1MOL0     C   32   4.128   3.858   3.700 -0.3289 -1.1455  0.0915
    1MOL0     C   33   4.068   3.738   3.742  0.0834 -0.3381 -0.3013
    1MOL0     C   34   3.939   3.703   3.693  1.2688  1.0803 -0.5621
    1MOL0     C   35   3.864   3.788   3.603 -0.0497 -0.2357 -0.0448
    1MOL0     O   36   3.741   3.757   3.548  0.9640 -0.0282 -0.2808
    1MOL0     C   37   3.679   3.637   3.602 -0.1225  0.2511  0.4776
    1MOL0     C   38   3.575   3.614   3.506 -0.4552 -0.1898  0.4411
    1MOL0     C   39   3.471   3.719   3.527  1.0552  0.6999  0.3592
    1MOL0     C   40   3.361   3.658   3.618 -0.4775  0.0433 -0.3204
    1MOL0     C   41   3.250   3.750   3.632  0.9747  0.7553  0.3878
    1MOL0     C   42   3.123   3.684   3.696  0.1362  0.4434 -0.2287
    1MOL0     C   43   3.146   3.603   3.827 -0.5034  0.6988  0.9412
    1MOL0     C   44   3.015   3.529   3.869 -0.1283  0.1254 -0.0568
    1MOL0    Cl   45   2.890   3.640   3.933  0.0595 -0.1397  0.0276
    1MOL0     C   46   3.936   3.909   3.564  0.9489  0.1266  0.2609
    1MOL0     C   47   4.061   3.944   3.617 -0.1451 -0.0283  0.6864
    1MOL0     O   48   4.311   4.082   3.652  0.7263 -0.3616 -0.1255
    1MOL0     C   49   4.539   4.100   3.787 -0.0998 -0.7047 -0.0986
    1MOL0     C   50   4.665   4.110   3.842 -0.0953  0.3601  0.5363
    1MOL0     N   51   4.855   4.700   4.205  0.0920 -0.0238 -0.3247
    1MOL0     N   52   4.945   4.797   4.187 -0.8839  0.3254  0.6070
    1MOL0     C   53   6.269   5.163   4.247 -1.1015  1.0198 -0.0311
    1MOL0     C   54   6.353   5.260   4.301  0.4524  0.6863 -0.7537
    1MOL0     C   55   6.686   5.467   4.541 -0.2926 -1.0212 -0.6257
    1MOL0     C   56   6.821   5.500   4.500  0.2938  0.1396  0.1809
    1MOL0     C   57   6.915   5.556   4.585  1.2528 -0.4732 -0.4877
    1MOL0     C   58   6.860   5.608   4.704 -0.3735  0.6390 -0.1747
    1MOL0     O   59   6.920   5.688   4.795 -0.0144 -0.1730 -0.9391
    1MOL0     C   60   7.063   5.709   4.774  0.0098 -0.2159  0.2057
    1MOL0     C   61   7.112   5.767   4.901  0.1524  0.3890  0.0350
    1MOL0     C   62   7.266   5.779   4.890  0.4520 -0.7366  0.4988
    1MOL0     C   63   7.329   5.819   5.022  0.5810  0.2233  0.5979
    1MOL0     C   64   7.479   5.831   5.011  0.2439  0.0057  0.5823
    1MOL0     C   65   7.600   5.839   5.008 -0.7683 -0.3733 -0.1462
    1MOL0     C   66   6.731   5.590   4.746 -0.2432  0.1866 -1.1022
    1MOL0     C   67   6.647   5.512   4.669 -0.1216  0.1680  0.0365
    1MOL0     H   68   6.416   5.104   4.601  2.2111 -0.8387 -1.6322
    1MOL0     H   69   6.281   4.937   4.491  0.7063 -0.8030 -0.2677
    1MOL0     H   70   6.006   4.902   4.406 -2.0345  1.2798  1.3881
    1MOL0     H   71   6.012   5.080   4.371 -2.1707 -0.2860 -0.2894
    1MOL0     H   72   5.903   5.036   4.164 -1.3398 -0.1737 -0.6060
    1MOL0     H   73   5.907   4.867   4.187  0.8715  0.7548 -1.1249
    1MOL0     H   74   5.768   4.904   4.389  0.4156 -1.5006 -0.5450
    1MOL0     H   75   5.759   5.079   4.353  2.6827 -0.2172  0.2669
    1MOL0     H   76   5.650   5.038   4.138 -0.7981  0.9055  2.3237
    1MOL0     H   77   5.679   4.861   4.156  0.9437 -0.1929  0.1305
    1MOL0     H   78   5.524   4.867   4.348 -1.3691  0.0424  0.1113
    1MOL0     H   79   5.485   5.034   4.306 -0.5821 -0.5373 -1.9598
    1MOL0     H   80   5.410   4.952   4.084  0.4876  0.2148 -0.1846
    1MOL0     H   81   5.473   4.801   4.106  0.6395  1.1696 -1.9090
    1MOL0     H   82   5.277   4.751   4.292  2.5714  0.6718  1.9831
    1MOL0     H   83   5.239   4.923   4.275  0.1553 -1.5614  1.5934
    1MOL0     H   84   5.230   4.752   4.024 -1.2566  0.2641 -1.8967
    1MOL0     H   85   5.157   4.913   4.065  2.5305  0.9867  0.4780
    1MOL0     H   86   5.133   4.535   4.115  0.8583  1.3783 -0.1162
    1MOL0     H   87   4.918   4.389   4.263 -2.7549 -1.1306  1.5621
    1MOL0     H   88   4.765   4.439   4.200  0.7219  2.7549  2.0337
    1MOL0     H   89   5.013   4.372   4.029 -0.8808  0.0189 -5.2477
    1MOL0     H   90   4.844   4.386   3.969  0.6322 -0.0507 -0.4841
    1MOL0     H   91   4.770   4.202   4.080 -0.0344 -0.9483  2.5655
    1MOL0     H   92   4.928   4.174   4.166  0.2996 -1.7167 -0.2085
    1MOL0     H   93   5.038   4.087   3.994  1.0646  1.3933 -2.6169
    1MOL0     H   94   4.958   4.173   3.878 -0.9851 -1.1876 -0.6754
    1MOL0     H   95   4.738   3.789   3.892 -1.9958 -1.4992 -1.6454
    1MOL0     H   96   4.406   3.706   3.762  0.6099  0.5248 -0.4446
    1MOL0     H   97   4.560   3.670   3.716 -2.5830 -0.4924 -2.1257
    1MOL0     H   98   4.530   3.670   3.891  1.4654 -0.3861 -1.0834
    1MOL0     H   99   4.122   3.671   3.808 -0.3406  0.9631  1.4490
    1MOL0     H  100   3.900   3.605   3.716  0.3623  2.0213  2.2956
    1MOL0     H  101   3.748   3.552   3.602 -0.9664 -0.4528 -0.4247
    1MOL0     H  102   3.645   3.644   3.706 -1.7565 -1.2669  0.1114
    1MOL0     H  103   3.608   3.628   3.403 -1.3533  1.3765  0.3323
    1MOL0     H  104   3.533   3.513   3.513 -0.3305 -0.2537  0.2667
    1MOL0     H  105   3.427   3.745   3.430  1.1435  4.0179  1.1043
    1MOL0     H  106   3.508   3.812   3.571  0.5470  0.4383  1.3779
    1MOL0     H  107   3.321   3.574   3.560 -4.8449  1.0360  0.8958
    1MOL0     H  108   3.395   3.627   3.717  1.4266 -0.2664 -1.0336
    1MOL0     H  109   3.225   3.790   3.533  0.7672 -3.5696 -1.4953
    1MOL0     H  110   3.288   3.822   3.706 -0.0700 -1.2203  2.9808
    1MOL0     H  111   3.044   3.758   3.710 -0.9088 -0.1320 -2.5270
    1MOL0     H  112   3.085   3.605   3.630  0.8763 -0.9651  0.9787
    1MOL0     H  113   3.176   3.678   3.900  0.4607  1.1241  0.1401
    1MOL0     H  114   3.223   3.528   3.807 -0.6917  0.6475  0.3918
    1MOL0     H  115   3.035   3.454   3.945 -0.6417 -0.0852 -0.1267
    1MOL0     H  116   2.968   3.485   3.781  1.7717  1.7576 -2.0045
    1MOL0     H  117   3.885   3.973   3.493 -1.9918 -1.1709  1.0500
    1MOL0     H  118   4.097   4.042   3.586  0.7121 -0.8731 -1.1731
    1MOL0     H  119   4.482   4.190   3.772  2.2516  1.3641  2.2337
    1MOL0     H  120   4.718   4.203   3.858  2.8256 -1.3507  1.6223
    1MOL0     H  121   6.211   5.179   4.156 -1.6079 -1.6975 -0.2731
    1MOL0     H  122   6.379   5.354   4.255  1.8273  0.5882 -0.2353
    1MOL0     H  123   6.841   5.486   4.395  0.2315 -1.3881  0.3364
    1MOL0     H  124   7.020   5.564   4.560  1.4758  0.5917  0.6872
    1MOL0     H  125   7.106   5.609   4.759  3.0817  1.0062  0.2454
    1MOL0     H  126   7.076   5.781   4.694  0.3049  1.3566  1.6155
    1MOL0     H  127   7.079   5.703   4.983  1.5387  0.1503  0.4319
    1MOL0     H  128   7.068   5.865   4.920  2.1992  1.1323  1.3335
    1MOL0     H  129   7.300   5.854   4.818  2.2916  0.1152  2.1505
    1MOL0     H  130   7.300   5.684   4.850  0.3126  0.6203 -3.2219
    1MOL0     H  131   7.303   5.751   5.104 -0.1740  1.3893  1.3488
    1MOL0     H  132   7.292   5.917   5.051 -1.1131  0.2008 -1.2810
    1MOL0     H  133   7.706   5.844   5.024 -0.8945  1.6920  0.3177
    1MOL0     H  134   6.699   5.639   4.838  4.0506  0.7338  0.3137
    1MOL0     H  135   6.547   5.500   4.708  0.0726 -0.4136  0.3707
    2MOL0     O  136   4.335   5.761   4.530 -0.5244  0.2030  0.1020
    2MOL0     C  137   4.251   5.825   4.591  0.0980 -0.3503 -0.2331
    2MOL0     O  138   4.243   5.848   4.719 -0.6964  0.0936  0.5821
    2MOL0     C  139   4.343   5.800   4.799 -0.2244 -0.7950  0.3214
    2MOL0     C  140   4.349   5.668   4.845  0.3886  1.1610 -0.4872
    2MOL0     C  141   4.452   5.620   4.919 -0.6932  0.0286 -0.4165
    2MOL0     C  142   4.560   5.707   4.951  0.1672 -0.3546  0.1146
    2MOL0     O  143   4.670   5.669   5.021 -0.0582 -0.4098 -0.5816
    2MOL0     C  144   4.691   5.526   5.041  0.6941  0.5966 -0.5784
    2MOL0     C  145   4.607   5.480   5.175 -0.7249 -0.3254  0.8208
    2MOL0     C  146   4.598   5.320   5.165  0.0214 -1.0527 -0.4706
    2MOL0     C  147   4.733   5.252   5.141 -0.4013 -1.0751 -0.5937
    2MOL0     C  148   4.715   5.112   5.191  0.1612 -0.6331  0.2416
    2MOL0     C  149   4.834   5.021   5.160  0.6159  0.1072  0.1674
    2MOL0     C  150   4.967   5.057   5.219  0.4394 -0.1948 -0.2698
    2MOL0     C  151   5.089   4.972   5.168  0.0254  0.1982 -0.2415
    2MOL0     N  152   5.062   4.831   5.169  0.2731  0.4992  0.4698
    2MOL0     C  153   5.018   4.763   5.277 -0.6675  0.1835  0.5208
    2MOL0     C  154   5.017   4.627   5.233  0.6031 -0.3754  0.3813
    2MOL0     C  155   4.985   4.501   5.294 -0.1445  0.1414 -0.1401
    2MOL0     C  156   4.882   4.497   5.416  0.0754  0.1705 -0.5814
    2MOL0     C  157   4.741   4.559   5.387 -0.5459 -0.1721  0.8852
    2MOL0     C  158   4.681   4.588   5.524 -0.4957 -0.1964  0.4726
    2MOL0     O  159   4.747   4.678   5.616  0.2033  0.8022  0.6478
    2MOL0     C  160   4.735   4.632   5.747  1.0373  0.0724 -0.8550
    2MOL0     C  161   4.844   4.592   5.821 -0.7797  0.2713  0.3166
    2MOL0     C  162   4.831   4.549   5.958 -0.2562  0.5202  0.4693
    2MOL0     C  163   4.954   4.504   6.029  0.3832 -0.9250  0.1471
    2MOL0     C  164   4.705   4.541   6.018 -0.0127  0.3905  0.2073
    2MOL0     C  165   4.677   4.503   6.162 -0.1314 -0.8866  0.7340
    2MOL0     O  166   4.770   4.428   6.227  0.7955 -0.7251 -0.4700
    2MOL0     C  167   4.754   4.345   6.339 -0.0685  0.4359 -0.2781
    2MOL0     C  168   4.862   4.261   6.367 -0.3325 -0.0998  0.0917
    2MOL0     C  169   4.852   4.170   6.474  0.2442 -0.0380 -0.4287
    2MOL0     C  170   4.732   4.145   6.536  0.5747 -0.5843 -1.1071
    2MOL0     O  171   4.739   4.052   6.641  0.0292 -0.3412  0.1274
    2MOL0     C  172   4.609   4.008   6.680 -0.1970  0.4882  0.4178
    2MOL0     C  173   4.610   3.897   6.787  0.4241 -0.3654  0.2816
    2MOL0     C  174   4.637   3.761   6.727  0.1062  0.4126 -0.6881
    2MOL0     C  175   4.664   3.659   6.840 -0.9530  0.3029  0.1387
    2MOL0     C  176   4.696   3.523   6.787  0.7794  0.4177  0.1977
    2MOL0     C  177   4.570   3.454   6.755  0.1566  1.1565 -0.5211
    2MOL0     C  178   4.511   3.381   6.867 -0.6564 -0.1774  0.1987
    2MOL0     C  179   4.375   3.322   6.837 -0.1968  0.1417 -0.5744
    2MOL0    Cl  180   4.245   3.435   6.827 -0.3884 -0.3454 -0.3813
    2MOL0     C  181   4.624   4.227   6.503 -0.3560  0.4547 -0.5005
    2MOL0     C  182   4.631   4.325   6.407 -0.5824  0.2752  0.3436
    2MOL0     O  183   4.563   4.520   6.204  0.6718 -0.1455 -0.1854
    2MOL0     C  184   4.600   4.585   5.944  0.2000 -0.3332  0.9140
    2MOL0     C  185   4.607   4.620   5.804 -0.3052  0.0733  0.2584
    2MOL0     N  186   5.066   4.624   5.104  0.8565  0.6492 -0.0696
    2MOL0     N  187   5.081   4.744   5.064 -0.5767  0.3449 -0.4388
    2MOL0     C  188   4.554   5.846   4.911  0.2913 -0.9739 -0.0642
    2MOL0     C  189   4.446   5.890   4.836 -0.0821  0.3667  0.1144
    2MOL0     C  190   4.136   5.865   4.519  0.0235 -0.4306  0.0419
    2MOL0     C  191   4.069   5.769   4.439 -0.3294 -0.0181  0.2673
    2MOL0     C  192   3.964   5.808   4.354 -1.1203  0.8123  0.0547
    2MOL0     C  193   3.920   5.935   4.359 -0.7158 -0.0671  0.6547
    2MOL0     O  194   3.837   5.979   4.263 -0.0498 -0.1694  0.0285
    2MOL0     C  195   3.710   5.906   4.261  0.2428 -0.4834 -0.1890
    2MOL0     C  196   3.668   5.877   4.123 -0.5932 -0.7275  0.4466
    2MOL0     C  197   3.701   5.999   4.027 -0.3637  0.3459  1.0311
    2MOL0     C  198   3.654   5.960   3.891 -0.4336  0.4089  0.6878
    2MOL0     C  199   3.660   6.082   3.806  0.6684  0.0738 -0.1139
    2MOL0     C  200   3.655   6.190   3.749  0.3737 -0.3668 -0.5957
    2MOL0     C  201   3.981   6.029   4.444 -0.8995  0.5721 -0.4697
    2MOL0     C  202   4.087   5.995   4.527 -0.2582 -0.1264  1.4760
    2MOL0     H  203   4.258   5.610   4.837  0.6535  0.5760  0.5557
    2MOL0     H  204   4.441   5.523   4.965 -0.8487  0.0206 -0.4702
    2MOL0     H  205   4.671   5.468   4.951  0.1309 -4.2702  2.3131
    2MOL0     H  206   4.795   5.504   5.066 -0.7272 -4.4149  2.3660
    2MOL0     H  207   4.666   5.515   5.260 -1.2088  1.0361  0.6157
    2MOL0     H  208   4.507   5.524   5.182 -0.4940  0.8305 -1.8940
    2MOL0     H  209   4.566   5.285   5.263  0.2971  1.4619  0.6018
    2MOL0     H  210   4.526   5.296   5.086 -0.3636 -0.6707 -0.2379
    2MOL0     H  211   4.760   5.269   5.036  1.3155  0.6539  0.0703
    2MOL0     H  212   4.814   5.299   5.197 -0.9504  1.3535 -1.7170
    2MOL0     H  213   4.676   5.117   5.293  0.2079  1.7615  0.2046
    2MOL0     H  214   4.629   5.068   5.140  0.0985 -1.1345  0.7648
    2MOL0     H  215   4.795   4.936   5.217 -0.0934  2.0261  2.7169
    2MOL0     H  216   4.839   4.996   5.054 -3.1711  0.0197 -0.1244
    2MOL0     H  217   4.990   5.162   5.199 -0.2450 -0.6095 -4.0443
    2MOL0     H  218   4.963   5.041   5.327  0.0311 -0.3111 -0.2985
    2MOL0     H  219   5.163   5.010   5.240 -1.4489 -1.2796  2.1706
    2MOL0     H  220   5.108   5.010   5.067  2.1170 -0.3108 -0.1009
    2MOL0     H  221   4.985   4.808   5.370 -0.7053 -0.0176  0.6065
    2MOL0     H  222   4.958   4.430   5.216 -0.9946  0.3998 -0.0929
    2MOL0     H  223   5.085   4.473   5.329  0.0827  2.5431  1.3657
    2MOL0     H  224   4.928   4.554   5.497  0.4616 -0.2323 -0.5067
    2MOL0     H  225   4.874   4.392   5.448 -0.7243  0.7584  1.2593
    2MOL0     H  226   4.676   4.486   5.338 -0.4943  1.6827 -2.1877
    2MOL0     H  227   4.743   4.651   5.328 -3.8281 -1.0314 -0.7630
    2MOL0     H  228   4.676   4.492   5.576 -1.5791 -0.3337  0.1459
    2MOL0     H  229   4.575   4.617   5.527 -0.2905  0.5853  0.3855
    2MOL0     H  230   4.947   4.594   5.785  0.1815 -2.2630  2.5789
    2MOL0     H  231   4.949   4.404   6.073  3.5101 -0.8517  0.9206
    2MOL0     H  232   5.044   4.509   5.967  0.8340 -2.2930  0.6497
    2MOL0     H  233   4.979   4.566   6.116  3.6016  1.2297 -2.0922
    2MOL0     H  234   4.950   4.289   6.310 -0.4186  4.8885  1.9142
    2MOL0     H  235   4.936   4.118   6.519 -0.3362 -0.2834  0.3955
    2MOL0     H  236   4.561   4.100   6.715 -0.3195  0.7030 -0.2971
    2MOL0     H  237   4.556   3.975   6.591 -0.2689  2.4480 -0.3180
    2MOL0     H  238   4.678   3.930   6.866 -1.6040  1.6299  1.2744
    2MOL0     H  239   4.510   3.892   6.830 -0.1100 -2.1040 -1.0475
    2MOL0     H  240   4.722   3.773   6.659 -1.0572 -2.0628 -2.7429
    2MOL0     H  241   4.546   3.735   6.672 -1.7517 -0.4163  2.5512
    2MOL0     H  242   4.757   3.694   6.885 -0.6855 -1.9759  1.4923
    2MOL0     H  243   4.588   3.665   6.918 -0.4114  3.2795  0.5798
    2MOL0     H  244   4.743   3.459   6.863  1.7653 -2.0155 -2.2691
    2MOL0     H  245   4.762   3.513   6.700 -2.4645  2.2840 -2.7350
    2MOL0     H  246   4.508   3.533   6.711  0.7701  2.1344  0.3037
    2MOL0     H  247   4.589   3.389   6.669  0.9267  2.7690 -1.6359
    2MOL0     H  248   4.492   3.442   6.956  2.5032 -0.3356  1.1272
    2MOL0     H  249   4.583   3.301   6.889 -0.7191 -0.1110  0.6392
    2MOL0     H  250   4.353   3.247   6.913 -1.5712 -0.8886 -1.9102
    2MOL0     H  251   4.383   3.264   6.744 -0.7678  1.5449 -1.5255
    2MOL0     H  252   4.529   4.206   6.550  0.1284 -2.3282 -0.5926
    2MOL0     H  253   4.541   4.381   6.383 -1.3355 -1.1957 -0.3783
    2MOL0     H  254   4.504   4.594   5.994  0.6111  0.8888  1.5229
    2MOL0     H  255   4.516   4.644   5.750 -0.0657  2.9016  0.9510
    2MOL0     H  256   4.631   5.920   4.927 -0.5513  0.7160 -2.9671
    2MOL0     H  257   4.432   5.995   4.811 -1.3104  0.0013 -0.8881
    2MOL0     H  258   4.106   5.667   4.440 -0.6749 -0.1431  0.5332
    2MOL0     H  259   3.930   5.737   4.279 -0.6621  1.2159 -0.5430
    2MOL0     H  260   3.705   5.812   4.317 -0.7867  0.2565  1.0121
    2MOL0     H  261   3.634   5.978   4.292  0.5455  0.3166 -1.2683
    2MOL0     H  262   3.562   5.849   4.126 -0.1495 -2.4523  1.2818
    2MOL0     H  263   3.714   5.788   4.079 -3.4051 -0.7309 -2.9139
    2MOL0     H  264   3.810   6.004   4.016 -0.3372 -0.6840  0.7667
    2MOL0     H  265   3.649   6.094   4.045 -2.4938 -0.5395 -0.1708
    2MOL0     H  266   3.554   5.916   3.886 -1.0816  1.7866  0.8611
    2MOL0     H  267   3.721   5.879   3.862 -1.0432  0.1302  0.0469
    2MOL0     H  268   3.663   6.283   3.696  1.7546  0.5936  1.1886
    2MOL0     H  269   3.934   6.126   4.457 -0.4893  1.1635 -3.0118
    2MOL0     H  270   4.121   6.084   4.580 -2.0705  1.5060  0.0118
    3MOL0     O  271   3.146  10.834   3.062 -0.3706  0.2185 -0.2865
    3MOL0     C  272   3.126  10.895   3.166  0.2062  0.2985  0.2583
    3MOL0     O  273   3.013  10.977   3.193 -0.0492  0.0106 -0.5611
    3MOL0     C  274   2.910  10.967   3.103 -0.4283 -0.3257  0.0609
    3MOL0     C  275   2.781  10.943   3.138 -0.0539  0.6854 -1.1616
    3MOL0     C  276   2.678  10.943   3.046 -0.2879 -0.2363  0.1455
    3MOL0     C  277   2.713  10.962   2.915 -0.0739  0.2817 -0.0045
    3MOL0     O  278   2.600  10.974   2.830  0.3688  0.8330  0.1677
    3MOL0     C  279   2.629  10.950   2.689  0.2667  0.2913  0.0266
    3MOL0     C  280   2.508  10.907   2.595 -0.2477  0.3740 -0.5006
    3MOL0     C  281   2.568  10.893   2.453  0.0935 -0.2966  0.5461
    3MOL0     C  282   2.469  10.822   2.361  0.2580  0.1009  0.0395
    3MOL0     C  283   2.351  10.914   2.314  1.1649  0.8270  0.5348
    3MOL0     C  284   2.260  10.835   2.214  0.4747  0.5274  0.6322
    3MOL0     C  285   2.140  10.922   2.167 -0.1796 -0.2152  0.3606
    3MOL0     C  286   2.044  10.968   2.274  0.4832 -0.0790  0.8657
    3MOL0     N  287   1.969  10.856   2.343 -0.0918 -0.4380  0.5266
    3MOL0     C  288   1.936  10.735   2.275 -0.1589 -0.2120 -0.8671
    3MOL0     C  289   1.872  10.664   2.368 -0.4678 -0.4734  0.2017
    3MOL0     C  290   1.832  10.523   2.370 -0.7622  0.1256 -0.0729
    3MOL0     C  291   1.690  10.509   2.434  0.3248  0.1752  0.4898
    3MOL0     C  292   1.635  10.375   2.394 -0.5502  0.2313  0.8652
    3MOL0     C  293   1.490  10.356   2.405 -0.4790  0.2064 -0.3632
    3MOL0     O  294   1.420  10.395   2.288 -0.5242 -0.1239 -0.3307
    3MOL0     C  295   1.286  10.402   2.283 -0.0908 -0.3514 -0.5296
    3MOL0     C  296   1.207  10.336   2.380 -0.0536 -0.5334  0.2712
    3MOL0     C  297   1.071  10.347   2.373  0.3216  0.1476 -0.8263
    3MOL0     C  298   0.997  10.276   2.485 -0.0065  0.3262  0.3541
    3MOL0     C  299   1.011  10.409   2.262  0.1877 -0.7860  0.1996
    3MOL0     C  300   0.861  10.417   2.248 -0.1633 -0.5926  0.5504
    3MOL0     O  301   0.783  10.302   2.265 -0.0903 -0.6478  0.2185
    3MOL0     C  302   0.656  10.328   2.258  0.0083 -0.3182  0.0008
    3MOL0     C  303   0.586  10.362   2.373  1.4956  0.9796  1.1317
    3MOL0     C  304   0.454  10.407   2.369 -0.4068 -0.0964 -0.2514
    3MOL0     C  305   0.387  10.411   2.249 -0.5344 -0.2212 -0.7028
    3MOL0     O  306   0.253  10.459   2.240 -0.1227  1.2696 -0.1409
    3MOL0     C  307   0.219  10.553   2.334  0.4840  0.2322 -0.3610
    3MOL0     C  308   0.090  10.621   2.280 -0.1319  0.3405 -0.7483
    3MOL0     C  309   0.020  10.718   2.378  0.4902 -0.0279  0.0215
    3MOL0     C  310  -0.096  10.797   2.319 -0.2723  0.6524  0.0591
    3MOL0     C  311  -0.179  10.897   2.405  0.1259  0.1425  0.0851
    3MOL0     C  312  -0.111  11.037   2.431 -0.0440  0.6005 -0.7028
    3MOL0     C  313  -0.209  11.125   2.509 -0.5996  0.0699  0.0505
    3MOL0     C  314  -0.177  11.275   2.471  0.1028  0.4649  0.4861
    3MOL0    Cl  315  -0.033  11.342   2.563  0.2337  0.1680  0.6254
    3MOL0     C  316   0.455  10.370   2.132  0.0466 -0.0168 -0.3898
    3MOL0     C  317   0.586  10.322   2.141 -0.3458 -0.2100  0.3731
    3MOL0     O  318   0.821  10.528   2.225 -0.5094 -0.2843  0.2655
    3MOL0     C  319   1.090  10.457   2.153  0.7313  0.4154  0.9032
    3MOL0     C  320   1.229  10.460   2.168  0.0052  0.0425  0.7331
    3MOL0     N  321   1.862  10.742   2.486  0.1907 -0.3173 -0.4504
    3MOL0     N  322   1.910  10.859   2.460  0.1827  0.2714  0.3528
    3MOL0     C  323   2.840  10.995   2.871  0.4746 -0.2370 -0.1078
    3MOL0     C  324   2.935  11.006   2.970  0.3007  0.4329 -0.1503
    3MOL0     C  325   3.225  10.889   3.273  0.6422 -0.5493 -0.6517
    3MOL0     C  326   3.223  10.961   3.396 -0.8634  0.1735  0.3420
    3MOL0     C  327   3.336  10.970   3.484  0.5480 -0.2826 -0.2090
    3MOL0     C  328   3.448  10.901   3.449 -0.3008  0.2189  0.3799
    3MOL0     O  329   3.576  10.897   3.515 -0.1739 -0.5066 -0.2351
    3MOL0     C  330   3.580  10.952   3.648 -0.5676 -0.3248 -0.2945
    3MOL0     C  331   3.713  10.952   3.704  1.2566 -0.2293 -0.4513
    3MOL0     C  332   3.806  11.022   3.609 -0.5768 -0.2886 -0.8494
    3MOL0     C  333   3.951  11.009   3.640  0.2845  0.2414 -0.0526
    3MOL0     C  334   4.032  11.097   3.563  0.0820 -0.1491  0.0828
    3MOL0     C  335   4.102  11.165   3.495  0.1165 -0.1134  0.4632
    3MOL0     C  336   3.449  10.819   3.330  0.5182  0.5833  1.0082
    3MOL0     C  337   3.338  10.812   3.245 -0.4530  0.1947 -0.1330
    3MOL0     H  338   2.761  10.950   3.244  0.5186  0.1433 -1.0095
    3MOL0     H  339   2.572  10.928   3.067 -0.5399 -0.9340 -1.3884
    3MOL0     H  340   2.678  11.040   2.650 -0.7147 -0.0815 -2.2083
    3MOL0     H  341   2.689  10.862   2.666 -1.1030 -0.8088  0.5061
    3MOL0     H  342   2.459  10.813   2.619 -2.0815  1.2807 -0.5060
    3MOL0     H  343   2.440  10.993   2.595 -0.9170 -0.1390 -1.8651
    3MOL0     H  344   2.600  10.989   2.413 -1.9198  0.3549  0.3877
    3MOL0     H  345   2.652  10.823   2.459 -0.9720 -1.8757 -1.5554
    3MOL0     H  346   2.529  10.782   2.279  1.2036 -1.0041  1.2185
    3MOL0     H  347   2.433  10.736   2.419 -1.9371  2.2121  2.0698
    3MOL0     H  348   2.292  10.950   2.399 -0.3744 -0.3554  0.0129
    3MOL0     H  349   2.385  11.004   2.262 -0.8479  2.1355  1.3646
    3MOL0     H  350   2.321  10.802   2.129 -0.1821  2.6734 -0.7391
    3MOL0     H  351   2.208  10.749   2.258 -0.3411 -0.1411 -1.5121
    3MOL0     H  352   2.175  11.017   2.126 -0.8468  0.9484  2.3807
    3MOL0     H  353   2.081  10.862   2.097  0.9506 -1.2260  0.2365
    3MOL0     H  354   1.972  11.034   2.224  1.0631 -1.5865 -2.1709
    3MOL0     H  355   2.093  11.034   2.345  0.0361  1.9389 -0.6170
    3MOL0     H  356   1.954  10.701   2.174 -1.8434 -0.1701 -1.2113
    3MOL0     H  357   1.816  10.499   2.265 -3.3085  3.5627 -0.6451
    3MOL0     H  358   1.912  10.466   2.418 -0.6437 -2.0073 -2.6096
    3MOL0     H  359   1.622  10.593   2.414 -0.3836  0.6744  4.3396
    3MOL0     H  360   1.704  10.504   2.542 -1.2129 -1.5056  0.6485
    3MOL0     H  361   1.686  10.299   2.453  0.3749 -0.1149 -0.3223
    3MOL0     H  362   1.662  10.339   2.294 -1.7717 -0.8941  0.9256
    3MOL0     H  363   1.450  10.399   2.497 -0.3802 -2.1535  0.8429
    3MOL0     H  364   1.486  10.247   2.415  2.4244 -0.0544 -1.1320
    3MOL0     H  365   1.260  10.279   2.456 -0.7695  2.4442  3.2658
    3MOL0     H  366   1.066  10.241   2.562 -1.6600  1.0143  2.2400
    3MOL0     H  367   0.911  10.322   2.535 -1.9885 -0.1698 -2.3584
    3MOL0     H  368   0.968  10.190   2.424 -0.1326  0.5314  0.1213
    3MOL0     H  369   0.639  10.345   2.466  1.6580  1.1655  1.0736
    3MOL0     H  370   0.407  10.437   2.462 -0.3329 -1.3521  0.2075
    3MOL0     H  371   0.190  10.505   2.428  2.0355  0.0023  0.0210
    3MOL0     H  372   0.303  10.620   2.350  0.3574  0.0264  1.3646
    3MOL0     H  373   0.107  10.683   2.191  2.2624  0.0081 -0.5912
    3MOL0     H  374   0.016  10.545   2.255 -2.2451  2.5185 -1.5303
    3MOL0     H  375   0.085  10.797   2.416 -0.2838  0.5279  0.2303
    3MOL0     H  376  -0.014  10.668   2.469 -1.7730 -0.3450 -0.9217
    3MOL0     H  377  -0.056  10.846   2.230 -0.6240  0.4577 -0.2068
    3MOL0     H  378  -0.176  10.731   2.285 -0.3783  1.4983 -1.4136
    3MOL0     H  379  -0.199  10.851   2.502 -0.9046 -0.0308 -0.1980
    3MOL0     H  380  -0.277  10.914   2.358  0.6847 -0.9172 -1.5619
    3MOL0     H  381  -0.014  11.032   2.482  2.0500  0.3191 -4.3937
    3MOL0     H  382  -0.077  11.077   2.335  1.4261  1.7089  0.2397
    3MOL0     H  383  -0.214  11.099   2.615 -0.5141 -1.2175 -0.2480
    3MOL0     H  384  -0.312  11.122   2.473 -0.8658  3.0527  0.3227
    3MOL0     H  385  -0.268  11.331   2.494 -0.4350 -0.9046  1.8348
    3MOL0     H  386  -0.162  11.288   2.363 -2.9425  0.7254 -0.0031
    3MOL0     H  387   0.404  10.381   2.037 -1.1577 -2.4764 -0.1244
    3MOL0     H  388   0.617  10.274   2.049 -4.0753 -1.7372 -0.2760
    3MOL0     H  389   1.039  10.495   2.065  1.0017  0.6114  0.8291
    3MOL0     H  390   1.294  10.499   2.090  1.3446  0.1300  1.8545
    3MOL0     H  391   2.860  11.014   2.766 -0.9535 -0.0377 -0.3581
    3MOL0     H  392   3.039  11.031   2.953  0.6945 -0.0365  1.3807
    3MOL0     H  393   3.131  11.006   3.432  0.3348  1.2826  2.1708
    3MOL0     H  394   3.335  11.015   3.583 -1.2420 -1.0541  0.1614
    3MOL0     H  395   3.547  11.057   3.650  0.4026  0.0237  2.9695
    3MOL0     H  396   3.522  10.892   3.719  1.3136 -1.9374 -0.0631
    3MOL0     H  397   3.742  10.849   3.726 -0.9275 -0.3824  2.1419
    3MOL0     H  398   3.714  11.007   3.798  0.2995  0.7894 -1.0056
    3MOL0     H  399   3.783  11.129   3.617  1.6669  0.1429  0.9296
    3MOL0     H  400   3.798  10.995   3.504 -2.4429 -1.8525 -0.3707
    3MOL0     H  401   3.983  10.905   3.629  0.1562  0.2823 -0.8577
    3MOL0     H  402   3.964  11.031   3.746  1.2689  1.6642 -0.4325
    3MOL0     H  403   4.158  11.213   3.417 -0.4190  1.4319  0.9847
    3MOL0     H  404   3.538  10.761   3.308 -0.9393 -0.0888 -4.5960
    3MOL0     H  405   3.340  10.754   3.153  1.5760  1.1920 -0.7755
    4MOL0     O  406   7.355   3.087   2.399  0.0444  0.3862  0.6556
    4MOL0     C  407   7.412   3.014   2.477 -0.7811  0.6908  0.0593
    4MOL0     O  408   7.359   2.919   2.558 -0.4041  0.1276 -0.1130
    4MOL0     C  409   7.220   2.894   2.556 -0.0329  0.2432  0.0551
    4MOL0     C  410   7.157   2.867   2.432 -0.4157  1.3501 -0.1628
    4MOL0     C  411   7.025   2.824   2.423 -0.2220 -0.1728 -0.1891
    4MOL0     C  412   6.957   2.805   2.549 -1.0695  0.1577  0.2932
    4MOL0     O  413   6.823   2.780   2.556  0.4159 -0.3797  1.0245
    4MOL0     C  414   6.754   2.727   2.441  0.5926 -0.1880 -0.3359
    4MOL0     C  415   6.611   2.721   2.493  0.2971  0.2221  0.3211
    4MOL0     C  416   6.526   2.645   2.397  0.7400  0.5180 -0.1005
    4MOL0     C  417   6.395   2.595   2.473  0.2069  0.1295  0.7541
    4MOL0     C  418   6.280   2.570   2.380 -0.5776 -1.4029  0.1643
    4MOL0     C  419   6.153   2.536   2.462 -0.0312 -0.2399  0.1423
    4MOL0     C  420   6.036   2.504   2.367  0.0736  0.0591 -0.3435
    4MOL0     C  421   6.056   2.374   2.293 -0.5411 -0.7555  0.1403
    4MOL0     N  422   5.942   2.347   2.204  0.5925  0.4640  0.5212
    4MOL0     C  423   5.931   2.362   2.068  1.2656 -0.5294  0.7741
    4MOL0     C  424   5.808   2.335   2.025 -0.2148 -0.3535 -0.9633
    4MOL0     C  425   5.746   2.352   1.885 -0.7631 -0.1019  0.7536
    4MOL0     C  426   5.599   2.383   1.868 -0.1275  0.4521 -0.7924
    4MOL0     C  427   5.567   2.527   1.921  0.4780 -0.4350 -0.2313
    4MOL0     C  428   5.429   2.536   1.984  0.3077  0.2030 -0.2946
    4MOL0     O  429   5.340   2.508   1.881  0.4884  0.1075 -0.4196
    4MOL0     C  430   5.284   2.611   1.811  0.3961  1.1733 -0.7215
    4MOL0     C  431   5.219   2.725   1.868  0.0286 -0.5141  0.5610
    4MOL0     C  432   5.139   2.811   1.795 -0.3971  0.1588  1.1315
    4MOL0     C  433   5.065   2.911   1.871  0.8161  0.1573 -0.1406
    4MOL0     C  434   5.139   2.801   1.652  0.6373  0.3758 -0.2666
    4MOL0     C  435   5.054   2.885   1.563 -0.3659  0.0869  0.1037
    4MOL0     O  436   5.036   2.834   1.442  0.1858  0.4793  0.6414
    4MOL0     C  437   4.983   2.923   1.351  0.0665  0.6883 -0.8198
    4MOL0     C  438   5.058   3.025   1.290 -0.3409 -0.3583 -0.1485
    4MOL0     C  439   5.001   3.112   1.196 -0.1015 -0.2464  0.8214
    4MOL0     C  440   4.867   3.097   1.153  0.3028 -0.6489  0.4900
    4MOL0     O  441   4.821   3.177   1.048 -0.2564 -0.3188  0.4210
    4MOL0     C  442   4.687   3.229   1.067  0.0177  0.0230  0.8893
    4MOL0     C  443   4.615   3.211   0.934  0.1283 -0.2027 -0.3338
    4MOL0     C  444   4.468   3.223   0.965 -0.1651 -0.2408  0.6327
    4MOL0     C  445   4.376   3.184   0.840 -0.6061  0.5221  0.6887
    4MOL0     C  446   4.226   3.163   0.883 -0.0786 -0.2015 -0.1045
    4MOL0     C  447   4.149   3.296   0.906  0.1328 -0.3477  0.5724
    4MOL0     C  448   3.995   3.263   0.932  0.2740  0.5908  0.4009
    4MOL0     C  449   3.918   3.252   0.797 -0.1327 -0.6969 -0.7961
    4MOL0    Cl  450   3.740   3.237   0.835  0.2814  0.3532  0.3041
    4MOL0     C  451   4.803   2.989   1.204  0.1503  0.4461 -0.3731
    4MOL0     C  452   4.857   2.902   1.293 -0.3859 -0.1041  0.3926
    4MOL0     O  453   5.025   3.000   1.599  0.9102  0.2547  0.1674
    4MOL0     C  454   5.215   2.696   1.597 -0.4284 -0.8705 -0.2514
    4MOL0     C  455   5.273   2.597   1.673 -0.0218  0.2383  0.2447
    4MOL0     N  456   5.739   2.296   2.141 -0.2719 -0.0363 -0.3311
    4MOL0     N  457   5.818   2.317   2.246  1.0666 -0.0322 -0.2487
    4MOL0     C  458   7.022   2.830   2.668 -0.9363 -0.1928 -0.3466
    4MOL0     C  459   7.153   2.868   2.673 -0.3500  0.3261  0.7749
    4MOL0     C  460   7.557   3.038   2.472 -0.0426 -0.1985 -0.4917
    4MOL0     C  461   7.613   3.151   2.401  0.7819 -0.9148 -0.5143
    4MOL0     C  462   7.748   3.172   2.415  0.4545 -0.0913 -0.1777
    4MOL0     C  463   7.837   3.093   2.481 -0.3207  0.9747  0.0612
    4MOL0     O  464   7.971   3.123   2.498  0.2533  0.5029  0.5027
    4MOL0     C  465   8.025   3.252   2.499 -1.1965 -0.0553  0.2064
    4MOL0     C  466   8.154   3.248   2.584 -0.9214  0.0607 -0.0000
    4MOL0     C  467   8.237   3.376   2.556  0.3614  0.5640  1.0272
    4MOL0     C  468   8.172   3.498   2.620 -0.6603 -0.5590  0.6440
    4MOL0     C  469   8.251   3.624   2.602 -0.0660  0.2232  0.0818
    4MOL0     C  470   8.301   3.731   2.594  0.3557  0.8016 -0.4756
    4MOL0     C  471   7.781   2.984   2.547 -0.6028  0.2268 -0.0079
    4MOL0     C  472   7.644   2.958   2.544 -0.8365  0.1686 -0.9395
    4MOL0     H  473   7.224   2.857   2.347  2.7253  1.1495  2.1565
    4MOL0     H  474   6.981   2.811   2.325 -0.2888  2.1273 -0.5227
    4MOL0     H  475   6.757   2.798   2.358  0.7605  0.4915  0.2428
    4MOL0     H  476   6.781   2.627   2.405  0.7725 -0.8262  1.5068
    4MOL0     H  477   6.606   2.672   2.590 -0.8077 -1.8865 -0.7432
    4MOL0     H  478   6.583   2.824   2.519 -1.4198 -0.5300  1.6065
    4MOL0     H  479   6.498   2.706   2.311  1.7157  1.5041  0.2503
    4MOL0     H  480   6.578   2.558   2.357 -0.4499  0.1109 -0.8036
    4MOL0     H  481   6.406   2.505   2.533 -0.6912  0.3185  1.2222
    4MOL0     H  482   6.364   2.678   2.537 -1.8150  1.0010 -1.2165
    4MOL0     H  483   6.249   2.664   2.332 -2.1436 -0.9114  2.0222
    4MOL0     H  484   6.315   2.497   2.306 -0.7008 -0.1540 -1.1772
    4MOL0     H  485   6.171   2.450   2.527  1.9198  1.8373  2.5506
    4MOL0     H  486   6.120   2.621   2.523 -1.1394 -0.6065  0.0814
    4MOL0     H  487   5.950   2.474   2.427 -0.6861  0.3320 -1.2753
    4MOL0     H  488   6.000   2.583   2.299 -1.8397  2.4848  3.1799
    4MOL0     H  489   6.063   2.301   2.374 -0.2608 -1.7043 -0.7290
    4MOL0     H  490   6.146   2.372   2.232 -0.5014 -2.4749  0.2229
    4MOL0     H  491   6.005   2.394   1.995  0.4491 -1.8177 -0.6695
    4MOL0     H  492   5.796   2.427   1.823 -1.7233  0.1085  0.2206
    4MOL0     H  493   5.775   2.261   1.832  1.0669 -0.2428  1.8862
    4MOL0     H  494   5.544   2.313   1.932 -1.1575  0.5468 -1.5406
    4MOL0     H  495   5.571   2.378   1.763 -0.7298 -0.3282 -0.6041
    4MOL0     H  496   5.580   2.596   1.837 -2.5170  1.7492  0.9329
    4MOL0     H  497   5.640   2.568   1.992  1.6326 -1.8471 -0.5546
    4MOL0     H  498   5.404   2.626   2.042  1.6343  0.0157  0.6281
    4MOL0     H  499   5.419   2.457   2.059  0.8347  1.8017  1.5421
    4MOL0     H  500   5.221   2.736   1.976 -2.4340  0.7897  0.5452
    4MOL0     H  501   5.101   3.008   1.835  0.0542 -0.1284 -1.7869
    4MOL0     H  502   4.959   2.893   1.852  0.2456  0.5681  2.3485
    4MOL0     H  503   5.092   2.890   1.975  0.2149 -1.9692 -0.3653
    4MOL0     H  504   5.166   3.018   1.300 -0.3147  0.3085  0.0967
    4MOL0     H  505   5.067   3.193   1.165  0.5034 -1.8465 -2.5048
    4MOL0     H  506   4.639   3.185   1.155  0.9444  0.1177  1.4524
    4MOL0     H  507   4.702   3.335   1.092  1.3316  1.5058 -4.7393
    4MOL0     H  508   4.629   3.280   0.851 -0.9069  0.8613  0.3421
    4MOL0     H  509   4.636   3.111   0.895  1.6936 -0.0695  0.0818
    4MOL0     H  510   4.443   3.324   0.999  1.6304  0.6102 -0.4204
    4MOL0     H  511   4.449   3.151   1.045 -2.5818  0.9700  1.2386
    4MOL0     H  512   4.391   3.263   0.766 -2.1991  1.3749  1.2225
    4MOL0     H  513   4.418   3.091   0.802 -0.1472  1.3631 -0.9591
    4MOL0     H  514   4.219   3.099   0.972 -1.4490  1.6060  1.1482
    4MOL0     H  515   4.173   3.109   0.804 -2.3365 -1.0730  1.8882
    4MOL0     H  516   4.194   3.352   0.988  2.2302  1.7019 -1.8036
    4MOL0     H  517   4.167   3.364   0.822 -1.4323  0.0867  0.5516
    4MOL0     H  518   3.950   3.341   0.994 -1.4238 -1.5521  1.9998
    4MOL0     H  519   3.981   3.172   0.991 -0.7100  0.9950  0.8182
    4MOL0     H  520   3.947   3.158   0.748 -4.1270 -1.6011 -1.7632
    4MOL0     H  521   3.928   3.339   0.732  2.2094 -1.3925 -1.4912
    4MOL0     H  522   4.701   2.964   1.175 -0.1389  0.6663  0.4502
    4MOL0     H  523   4.798   2.812   1.307 -3.5757  1.7225 -0.2760
    4MOL0     H  524   5.221   2.683   1.489 -6.6511 -0.5005 -0.9863
    4MOL0     H  525   5.325   2.513   1.628  1.2678  1.3468 -0.4512
    4MOL0     H  526   6.958   2.811   2.754  0.3214 -3.7060 -0.0043
    4MOL0     H  527   7.202   2.873   2.770  0.2459 -0.9443  0.5609
    4MOL0     H  528   7.555   3.233   2.360  0.1732 -2.0584 -2.0311
    4MOL0     H  529   7.787   3.251   2.352  2.0592 -1.5817 -1.1561
    4MOL0     H  530   8.047   3.287   2.398  0.0402 -1.6436 -0.1160
    4MOL0     H  531   7.951   3.319   2.543 -2.5670 -2.3416  1.6089
    4MOL0     H  532   8.204   3.156   2.551 -0.9371  0.6470 -1.7914
    4MOL0     H  533   8.125   3.241   2.689  0.9546 -1.3352  0.4829
    4MOL0     H  534   8.256   3.385   2.449  1.4644 -0.1100  1.1495
    4MOL0     H  535   8.340   3.367   2.591  1.0591  0.9375 -0.8238
    4MOL0     H  536   8.149   3.488   2.727  0.6911 -2.1901  0.8159
    4MOL0     H  537   8.076   3.512   2.570  0.6357  2.5495 -1.3310
    4MOL0     H  538   8.360   3.820   2.584 -1.1156  1.7551 -0.9757
    4MOL0     H  539   7.845   2.928   2.615  0.1546  1.4732  0.3564
    4MOL0     H  540   7.609   2.879   2.610  1.0604  0.2596  0.2531
    5MOL0     O  541   7.965   4.873   4.067  0.0663  0.1475 -0.3697
    5MOL0     C  542   8.068   4.829   4.108  0.2715 -0.1110  0.4000
    5MOL0     O  543   8.085   4.704   4.178  0.0577  0.2801 -0.1554
    5MOL0     C  544   7.972   4.648   4.226  0.3435 -1.0374  1.1694
    5MOL0     C  545   7.908   4.688   4.340 -0.2228 -0.2307  0.3090
    5MOL0     C  546   7.808   4.609   4.388  0.4768  0.3513  0.7554
    5MOL0     C  547   7.768   4.495   4.320 -0.2600  0.3591  0.5559
    5MOL0     O  548   7.653   4.423   4.358 -0.3988 -0.5355 -0.0752
    5MOL0     C  549   7.545   4.497   4.414 -0.5677 -0.1288  0.6109
    5MOL0     C  550   7.429   4.403   4.451  0.5578 -0.1886  1.2615
    5MOL0     C  551   7.386   4.327   4.314  0.0010 -0.1873 -0.1819
    5MOL0     C  552   7.251   4.251   4.324  0.0645  0.4227 -0.3140
    5MOL0     C  553   7.126   4.329   4.344 -1.4863 -1.1201  0.8803
    5MOL0     C  554   7.006   4.250   4.324  0.3356  0.5296  0.3202
    5MOL0     C  555   6.864   4.316   4.339 -0.0681  0.6146 -0.7102
    5MOL0     C  556   6.844   4.429   4.249 -0.3538 -0.2759 -0.4785
    5MOL0     N  557   6.708   4.452   4.205 -0.4840 -0.1660  0.1548
    5MOL0     C  558   6.594   4.479   4.287  0.8399  0.6318 -0.6363
    5MOL0     C  559   6.509   4.539   4.205  0.2121 -1.1775  0.3726
    5MOL0     C  560   6.375   4.602   4.242  0.1784 -0.2317 -0.4704
    5MOL0     C  561   6.250   4.525   4.181 -0.3936  0.3413 -0.2938
    5MOL0     C  562   6.126   4.615   4.185  0.5212 -0.4414 -0.1043
    5MOL0     C  563   6.020   4.544   4.121  1.0797  0.8582  0.4991
    5MOL0     O  564   5.896   4.611   4.120  0.2456  0.7895  1.2894
    5MOL0     C  565   5.791   4.546   4.067  0.5087 -0.1358  0.1773
    5MOL0     C  566   5.787   4.448   3.967 -0.4974  0.7545  0.4739
    5MOL0     C  567   5.671   4.400   3.913  0.5820  0.3191  0.4726
    5MOL0     C  568   5.670   4.290   3.810 -0.1512  0.5883  0.4534
    5MOL0     C  569   5.548   4.455   3.956 -0.1363 -0.1199 -0.1771
    5MOL0     C  570   5.420   4.407   3.896  0.4025 -0.5874  0.3962
    5MOL0     O  571   5.416   4.395   3.762  0.0941 -0.2993 -0.0803
    5MOL0     C  572   5.293   4.380   3.698 -0.7595 -1.1806 -0.5433
    5MOL0     C  573   5.180   4.453   3.729  0.3972 -0.6660 -0.3936
    5MOL0     C  574   5.057   4.416   3.655  0.0003 -0.4688  0.2302
    5MOL0     C  575   5.041   4.302   3.579 -0.0025 -0.4151 -0.5733
    5MOL0     O  576   4.929   4.274   3.507 -0.2193  0.3817 -0.2181
    5MOL0     C  577   4.828   4.377   3.506  0.1059  0.3437 -0.1520
    5MOL0     C  578   4.725   4.327   3.403 -0.1520 -0.2731  0.1578
    5MOL0     C  579   4.600   4.412   3.388  0.2904  0.1679  0.3611
    5MOL0     C  580   4.506   4.393   3.508  0.7655  0.2303 -0.8181
    5MOL0     C  581   4.376   4.480   3.487 -0.0439  0.1387  0.2674
    5MOL0     C  582   4.289   4.479   3.617  0.1634  1.0389 -0.9327
    5MOL0     C  583   4.160   4.544   3.612 -0.0095 -0.3549  0.2139
    5MOL0     C  584   4.103   4.566   3.750 -0.5416 -0.4391 -0.6302
    5MOL0    Cl  585   3.954   4.657   3.737 -0.1177  0.2554  0.2969
    5MOL0     C  586   5.150   4.225   3.566 -0.5779 -0.7347 -0.4136
    5MOL0     C  587   5.278   4.262   3.624  0.0828 -0.0722 -0.7963
    5MOL0     O  588   5.332   4.389   3.978  0.0562  0.0605 -0.2763
    5MOL0     C  589   5.545   4.546   4.065  0.3119 -0.7705  0.0351
    5MOL0     C  590   5.669   4.598   4.110  0.5350 -1.3326 -1.0955
    5MOL0     N  591   6.566   4.562   4.079  0.1750 -0.0243 -0.1626
    5MOL0     N  592   6.689   4.516   4.090 -0.5712  0.2165  0.5241
    5MOL0     C  593   7.840   4.450   4.221 -0.1704 -0.2000  0.3220
    5MOL0     C  594   7.941   4.527   4.161 -0.1481 -0.0796  0.2742
    5MOL0     C  595   8.197   4.889   4.073 -0.3374 -0.5981 -0.0386
    5MOL0     C  596   8.322   4.822   4.103  0.1915 -0.2210  1.3765
    5MOL0     C  597   8.447   4.888   4.064  1.3979  0.4035 -0.1199
    5MOL0     C  598   8.460   5.013   4.014 -0.5996 -0.1401 -0.3326
    5MOL0     O  599   8.585   5.065   4.000 -0.3471 -0.6729  0.4946
    5MOL0     C  600   8.624   5.102   3.863 -0.4288 -0.0938  0.6331
    5MOL0     C  601   8.680   4.964   3.799  0.5749  0.0886  0.2027
    5MOL0     C  602   8.578   4.872   3.715 -0.4000  0.1524 -0.4164
    5MOL0     C  603   8.578   4.925   3.570  0.2489 -0.4364 -0.6682
    5MOL0     C  604   8.477   4.851   3.496  0.6186 -0.3180 -0.0706
    5MOL0     C  605   8.382   4.811   3.432 -0.3826  0.2526 -0.1392
    5MOL0     C  606   8.340   5.076   3.979 -0.2949  0.2127  0.1761
    5MOL0     C  607   8.213   5.020   4.012  0.7283  0.1617 -0.4960
    5MOL0     H  608   7.929   4.780   4.393 -0.8757 -0.2502  0.6078
    5MOL0     H  609   7.755   4.644   4.476  0.7865 -1.0248  1.5226
    5MOL0     H  610   7.570   4.545   4.509  0.2372 -1.4148  1.0776
    5MOL0     H  611   7.511   4.574   4.345 -2.5131 -0.6930  0.8979
    5MOL0     H  612   7.460   4.328   4.525 -2.4032 -1.7755  1.0050
    5MOL0     H  613   7.356   4.475   4.489  1.0593  0.5192  0.9157
    5MOL0     H  614   7.383   4.405   4.237  2.4428  2.4967  2.1804
    5MOL0     H  615   7.470   4.259   4.299 -1.1652 -2.0947  1.5028
    5MOL0     H  616   7.242   4.188   4.235 -0.7448 -0.5805  0.4401
    5MOL0     H  617   7.261   4.175   4.403 -2.3398 -1.0738 -1.3290
    5MOL0     H  618   7.123   4.387   4.437  0.1084 -0.0076  0.2898
    5MOL0     H  619   7.133   4.416   4.279 -1.5518 -1.4148  0.4799
    5MOL0     H  620   7.011   4.216   4.220  0.1824 -0.8174  0.7312
    5MOL0     H  621   7.013   4.170   4.399 -1.5092 -1.0379 -1.0750
    5MOL0     H  622   6.789   4.240   4.315  1.7372 -1.9581  1.1552
    5MOL0     H  623   6.850   4.336   4.445  2.9023 -0.7297  0.0617
    5MOL0     H  624   6.908   4.411   4.162 -0.3524  2.8822 -1.2265
    5MOL0     H  625   6.874   4.522   4.298 -0.4229 -0.3461 -0.3038
    5MOL0     H  626   6.586   4.466   4.394 -0.7453 -0.6652 -0.8717
    5MOL0     H  627   6.366   4.616   4.350  1.0107 -1.7700 -0.1644
    5MOL0     H  628   6.378   4.705   4.206  2.2405  0.1828  0.7233
    5MOL0     H  629   6.234   4.437   4.245  1.7741 -2.4945 -3.2894
    5MOL0     H  630   6.277   4.484   4.083  1.1597 -1.5532  0.8496
    5MOL0     H  631   6.137   4.715   4.141  0.0409 -1.0870 -1.7615
    5MOL0     H  632   6.103   4.636   4.290  2.6516  3.1434 -0.1795
    5MOL0     H  633   6.010   4.446   4.169  0.5807  0.0401 -1.1812
    5MOL0     H  634   6.034   4.537   4.012 -2.2647  1.1749 -0.0617
    5MOL0     H  635   5.881   4.407   3.931 -0.1804  1.5985  0.3089
    5MOL0     H  636   5.662   4.329   3.708  1.0884  0.7012  0.3922
    5MOL0     H  637   5.758   4.225   3.813  0.4000  1.1647 -1.5841
    5MOL0     H  638   5.583   4.226   3.831 -1.2295  1.9449  0.2943
    5MOL0     H  639   5.184   4.539   3.794  4.4109 -0.4744 -0.5933
    5MOL0     H  640   4.971   4.478   3.678 -1.2152 -2.3821  1.0389
    5MOL0     H  641   4.797   4.393   3.609 -0.2276  1.1722 -0.3690
    5MOL0     H  642   4.862   4.470   3.460 -0.7530  0.7415 -0.0014
    5MOL0     H  643   4.777   4.339   3.308  2.2023 -0.0726  1.3737
    5MOL0     H  644   4.701   4.220   3.409 -1.1193 -0.1469 -1.1884
    5MOL0     H  645   4.543   4.381   3.301 -0.7726  1.5237  0.5423
    5MOL0     H  646   4.609   4.519   3.367 -0.7951  0.3372  0.6909
    5MOL0     H  647   4.480   4.287   3.512  1.6224  0.0456  0.1040
    5MOL0     H  648   4.558   4.417   3.601 -0.6548 -0.4705  0.1981
    5MOL0     H  649   4.319   4.446   3.400 -0.9226  0.3742  0.7358
    5MOL0     H  650   4.395   4.585   3.466  0.6853 -0.2671 -1.2356
    5MOL0     H  651   4.261   4.374   3.631 -5.4536  2.2356 -0.5379
    5MOL0     H  652   4.352   4.507   3.701  1.7000 -0.9072 -1.3559
    5MOL0     H  653   4.098   4.483   3.546  1.4852 -0.3106 -1.3057
    5MOL0     H  654   4.160   4.643   3.567 -0.4016 -0.2812  0.3783
    5MOL0     H  655   4.165   4.635   3.808  0.9333 -1.8868 -0.4150
    5MOL0     H  656   4.086   4.470   3.799 -1.7666 -0.1754 -0.4958
    5MOL0     H  657   5.147   4.137   3.502  0.4084 -1.3995  0.4077
    5MOL0     H  658   5.366   4.206   3.594  1.7507  3.9199 -4.4559
    5MOL0     H  659   5.449   4.566   4.111  1.0607  0.1821  1.2205
    5MOL0     H  660   5.677   4.665   4.195 -2.3003 -2.1036 -0.1052
    5MOL0     H  661   7.844   4.352   4.175  2.2957  0.2477 -0.5595
    5MOL0     H  662   8.005   4.472   4.093  1.1346 -2.2677  3.0227
    5MOL0     H  663   8.311   4.719   4.135  1.6169 -0.2802  1.7496
    5MOL0     H  664   8.530   4.824   4.095 -1.9459 -2.8114  3.1395
    5MOL0     H  665   8.550   5.142   3.793  0.1389 -0.3815 -0.1512
    5MOL0     H  666   8.716   5.160   3.858  1.4615 -2.9593 -1.0203
    5MOL0     H  667   8.702   4.895   3.880  1.6951 -1.0495 -1.0179
    5MOL0     H  668   8.774   4.983   3.746  1.4551 -2.3874  0.7625
    5MOL0     H  669   8.483   4.875   3.767  0.8478 -1.1259  2.0912
    5MOL0     H  670   8.605   4.767   3.704  0.3475  0.4868 -2.2645
    5MOL0     H  671   8.673   4.893   3.527 -0.9383 -2.0897 -2.2123
    5MOL0     H  672   8.570   5.034   3.570  1.0975 -0.3449  0.7321
    5MOL0     H  673   8.308   4.770   3.366  2.2484 -4.3255 -0.7012
    5MOL0     H  674   8.345   5.176   3.937  1.5381 -0.2192 -0.7656
    5MOL0     H  675   8.123   5.076   3.990  0.3206 -0.0935  0.5035
    6MOL0     O  676   1.437   0.451   3.092  0.4669 -0.4193  0.0727
    6MOL0     C  677   1.449   0.338   3.061 -0.5328  0.0335 -0.3597
    6MOL0     O  678   1.369   0.262   2.987  1.0155 -0.3470  0.8161
    6MOL0     C  679   1.255   0.318   2.930  0.0388 -0.7540 -0.6162
    6MOL0     C  680   1.158   0.220   2.910  0.0266 -0.4043  0.1589
    6MOL0     C  681   1.034   0.252   2.848  0.2294 -0.0313  0.4607
    6MOL0     C  682   1.002   0.386   2.810  0.8248 -0.3655  0.2116
    6MOL0     O  683   0.877   0.428   2.763 -0.7934  0.0822 -0.5266
    6MOL0     C  684   0.778   0.335   2.728 -0.4303  0.1241 -0.3864
    6MOL0     C  685   0.669   0.426   2.676  0.1836  0.1448  0.4447
    6MOL0     C  686   0.612   0.509   2.791  0.0729 -0.7116 -1.0236
    6MOL0     C  687   0.523   0.446   2.897  0.2537  0.3452 -0.4148
    6MOL0     C  688   0.416   0.542   2.955  0.4018 -0.5553  0.4188
    6MOL0     C  689   0.292   0.571   2.857 -0.3094 -0.3887  0.3628
    6MOL0     C  690   0.208   0.690   2.906 -0.8354  0.7206  0.8142
    6MOL0     C  691   0.064   0.699   2.837 -0.0494 -0.5748  0.0507
    6MOL0     N  692  -0.010   0.821   2.875 -0.7018  0.7216 -0.6732
    6MOL0     C  693  -0.121   0.814   2.958 -0.9071 -0.2022 -0.4998
    6MOL0     C  694  -0.143   0.939   3.005 -0.4653  1.0069  0.7638
    6MOL0     C  695  -0.264   0.967   3.092 -0.0949 -0.5231 -0.1482
    6MOL0     C  696  -0.346   1.086   3.047 -1.2293 -0.3072 -0.1566
    6MOL0     C  697  -0.424   1.128   3.169  0.3179  0.3769  0.1688
    6MOL0     C  698  -0.518   1.241   3.134  0.1005 -0.1796 -0.0992
    6MOL0     O  699  -0.455   1.349   3.064 -0.3175  0.4979 -0.3217
    6MOL0     C  700  -0.527   1.465   3.044  0.1474  0.4201  0.5414
    6MOL0     C  701  -0.456   1.564   2.983  0.1248 -0.5145  0.8882
    6MOL0     C  702  -0.524   1.688   2.970  0.3327 -0.4356  0.1514
    6MOL0     C  703  -0.439   1.801   2.909  0.1661 -0.4327 -0.2110
    6MOL0     C  704  -0.657   1.711   3.015 -0.4023  0.0341 -0.0981
    6MOL0     C  705  -0.717   1.839   2.993 -0.1248  0.3125 -0.0694
    6MOL0     O  706  -0.847   1.833   2.964  0.4820  0.0109 -0.0731
    6MOL0     C  707  -0.921   1.937   3.015 -0.7432 -0.7260 -0.1817
    6MOL0     C  708  -0.923   2.070   2.964  0.4523 -1.1449  0.2709
    6MOL0     C  709  -1.016   2.161   3.011 -0.5291  0.3928 -0.7349
    6MOL0     C  710  -1.110   2.128   3.111  0.2857  0.0887 -0.3449
    6MOL0     O  711  -1.215   2.207   3.154  0.4967 -0.3363  0.0199
    6MOL0     C  712  -1.269   2.291   3.055 -0.1205 -0.0732  0.6222
    6MOL0     C  713  -1.377   2.383   3.113 -0.7868 -0.1909  0.5311
    6MOL0     C  714  -1.320   2.467   3.224 -0.4906  0.2187  0.6451
    6MOL0     C  715  -1.419   2.567   3.278  1.1014  0.0043 -0.2810
    6MOL0     C  716  -1.369   2.640   3.407  0.1571  0.5201  0.2987
    6MOL0     C  717  -1.241   2.727   3.394  0.2302 -0.2545  0.0540
    6MOL0     C  718  -1.219   2.834   3.496 -0.2194  0.1732 -0.1112
    6MOL0     C  719  -1.114   2.938   3.452  0.0318 -0.2941 -0.1882
    6MOL0    Cl  720  -1.182   3.061   3.337  0.0490  0.1585  0.5571
    6MOL0     C  721  -1.094   1.999   3.165 -0.0622 -0.7617  0.5038
    6MOL0     C  722  -1.010   1.906   3.122 -0.0009 -0.7062 -0.2600
    6MOL0     O  723  -0.651   1.943   3.021 -0.2589  0.2393  1.2534
    6MOL0     C  724  -0.731   1.608   3.070  0.1854  0.1166  0.5379
    6MOL0     C  725  -0.662   1.482   3.086  0.4144  0.3821  0.1589
    6MOL0     N  726  -0.047   1.017   2.945 -0.8509 -0.2339  0.0684
    6MOL0     N  727   0.041   0.942   2.872  0.5779 -0.3948 -0.0059
    6MOL0     C  728   1.102   0.487   2.831 -0.0099  0.8968 -0.0458
    6MOL0     C  729   1.222   0.444   2.891  0.3832 -0.7018  0.2462
    6MOL0     C  730   1.587   0.281   3.095  0.4815  0.0173  0.1477
    6MOL0     C  731   1.650   0.176   3.024  0.0213 -0.7852 -0.4056
    6MOL0     C  732   1.765   0.120   3.075  0.3926 -0.6797  0.3969
    6MOL0     C  733   1.825   0.164   3.186 -0.7252  0.0140  0.3036
    6MOL0     O  734   1.929   0.089   3.239  0.3784 -0.7899 -0.5504
    6MOL0     C  735   1.923   0.033   3.374  0.4937 -0.7211 -0.3963
    6MOL0     C  736   2.065   0.015   3.432 -0.5127  0.3609 -0.6961
    6MOL0     C  737   2.165   0.132   3.430  0.3789 -0.2388 -0.0583
    6MOL0     C  738   2.116   0.254   3.514 -0.3752  0.0971 -0.5011
    6MOL0     C  739   2.164   0.248   3.653  0.3579 -0.8333  0.2290
    6MOL0     C  740   2.206   0.246   3.767  0.6538 -0.1303 -0.7440
    6MOL0     C  741   1.771   0.279   3.258  0.0348  0.6173 -0.0290
    6MOL0     C  742   1.651   0.334   3.208  1.1974 -1.1387 -0.5624
    6MOL0     H  743   1.185   0.124   2.953  0.4507  0.3897  1.7487
    6MOL0     H  744   0.960   0.172   2.846  1.0902 -0.9566 -3.4573
    6MOL0     H  745   0.808   0.254   2.661  0.2922 -0.5551  0.7291
    6MOL0     H  746   0.743   0.285   2.818  0.9097  0.2189  0.2073
    6MOL0     H  747   0.715   0.484   2.596  2.2665  0.2498  1.6649
    6MOL0     H  748   0.595   0.361   2.628  0.1313  0.8609 -0.4807
    6MOL0     H  749   0.691   0.557   2.848  1.1350 -2.1464 -1.2226
    6MOL0     H  750   0.555   0.584   2.737 -2.2355 -3.1456 -2.2117
    6MOL0     H  751   0.480   0.354   2.857 -1.5148  0.2522  1.5482
    6MOL0     H  752   0.600   0.420   2.970  2.1235  1.8917 -1.6831
    6MOL0     H  753   0.380   0.496   3.047  3.3209 -0.8602  1.5121
    6MOL0     H  754   0.468   0.633   2.987 -2.8081  0.5903  2.9309
    6MOL0     H  755   0.330   0.595   2.757  0.3949 -1.9803  0.2128
    6MOL0     H  756   0.234   0.478   2.847 -3.3188  1.2792  1.0932
    6MOL0     H  757   0.211   0.687   3.015  2.6300 -0.7043  0.8081
    6MOL0     H  758   0.265   0.775   2.867 -0.9409  1.2460  1.7832
    6MOL0     H  759   0.010   0.608   2.863  0.8165 -1.6216 -1.6676
    6MOL0     H  760   0.077   0.702   2.729  3.0234 -1.3627  0.3016
    6MOL0     H  761  -0.188   0.731   2.978 -1.1152  0.3496  1.3119
    6MOL0     H  762  -0.332   0.884   3.112 -0.7899 -0.3239 -1.5719
    6MOL0     H  763  -0.214   0.983   3.188 -0.2085  0.2954 -0.2159
    6MOL0     H  764  -0.417   1.056   2.969 -2.3212  0.7343  0.4022
    6MOL0     H  765  -0.274   1.159   3.009  0.1588 -1.7360 -0.3797
    6MOL0     H  766  -0.351   1.160   3.244 -0.4867 -1.8114  1.9834
    6MOL0     H  767  -0.481   1.040   3.198 -0.5876  0.0875 -2.2742
    6MOL0     H  768  -0.558   1.283   3.227 -2.9421 -0.9007 -0.9864
    6MOL0     H  769  -0.600   1.204   3.072  1.2047 -1.2571 -0.9705
    6MOL0     H  770  -0.354   1.549   2.950  0.8678  2.4704  1.5323
    6MOL0     H  771  -0.497   1.836   2.823 -1.2318 -0.2280  0.7878
    6MOL0     H  772  -0.409   1.889   2.967  0.2782  0.7968 -2.0296
    6MOL0     H  773  -0.345   1.758   2.873  1.9607  2.2366  0.9474
    6MOL0     H  774  -0.866   2.101   2.877  2.0179  1.6073  2.1291
    6MOL0     H  775  -1.007   2.262   2.972  1.6628 -0.2784 -2.1401
    6MOL0     H  776  -1.195   2.361   3.014  0.8797 -1.7859 -0.6416
    6MOL0     H  777  -1.308   2.231   2.972  0.5225 -0.0048  0.2667
    6MOL0     H  778  -1.408   2.450   3.032  0.0355  1.0823  1.2404
    6MOL0     H  779  -1.453   2.313   3.148 -0.1560 -1.2262 -0.1263
    6MOL0     H  780  -1.238   2.517   3.172 -1.1923 -2.0812 -3.0804
    6MOL0     H  781  -1.290   2.397   3.303 -0.3885 -1.2894 -0.6642
    6MOL0     H  782  -1.439   2.644   3.203 -0.8506 -0.0259  0.1476
    6MOL0     H  783  -1.513   2.511   3.284  2.0520 -1.7186 -0.6501
    6MOL0     H  784  -1.366   2.575   3.494 -1.2049  1.5480  1.1558
    6MOL0     H  785  -1.453   2.708   3.427  0.7137  0.8814  1.4908
    6MOL0     H  786  -1.142   2.681   3.390  1.3266  1.9699  0.1759
    6MOL0     H  787  -1.251   2.781   3.300  1.5365  0.9225  0.5536
    6MOL0     H  788  -1.181   2.784   3.585 -2.8718  1.4027  1.8546
    6MOL0     H  789  -1.309   2.891   3.523 -1.1142 -1.5512  0.7468
    6MOL0     H  790  -1.030   2.880   3.412  0.1703 -1.1891  1.2944
    6MOL0     H  791  -1.081   2.992   3.541 -3.0376 -0.8757  1.4372
    6MOL0     H  792  -1.179   1.975   3.228 -1.4120 -1.7142 -1.5721
    6MOL0     H  793  -1.009   1.811   3.175 -1.8348  0.4482  2.0071
    6MOL0     H  794  -0.836   1.605   3.098 -0.2853  0.7421 -1.0767
    6MOL0     H  795  -0.720   1.400   3.126  1.8681  0.3148  2.2514
    6MOL0     H  796   1.090   0.589   2.796  1.3073  0.3569 -2.2048
    6MOL0     H  797   1.303   0.516   2.896  2.9925 -3.2379 -1.8740
    6MOL0     H  798   1.605   0.137   2.933  2.1071  2.1487 -2.9132
    6MOL0     H  799   1.803   0.030   3.027 -1.8651 -0.3894 -2.1525
    6MOL0     H  800   1.875   0.092   3.453 -0.4004  0.0254 -1.4530
    6MOL0     H  801   1.872  -0.063   3.371 -2.0729  0.4265  1.6956
    6MOL0     H  802   2.118  -0.070   3.388 -0.7446 -2.1340  3.3478
    6MOL0     H  803   2.054  -0.015   3.537  1.1078  0.5530 -0.4374
    6MOL0     H  804   2.180   0.163   3.326  0.0741 -0.5372 -0.1918
    6MOL0     H  805   2.261   0.091   3.464  1.3007 -1.1535 -3.3934
    6MOL0     H  806   2.007   0.262   3.515 -0.4552  0.3533 -3.1067
    6MOL0     H  807   2.144   0.355   3.481 -1.5643  0.7673  0.4450
    6MOL0     H  808   2.245   0.243   3.867  1.3862  2.4283 -0.8680
    6MOL0     H  809   1.816   0.330   3.342 -0.6133  1.2910 -0.0718
    6MOL0     H  810   1.601   0.422   3.248 -1.7672 -1.7570 -2.5798
    7MOL0     O  811   5.780  10.994   5.367  0.0739 -0.0896  0.3082
    7MOL0     C  812   5.780  10.937   5.470 -0.9273 -0.5960  0.0300
    7MOL0     O  813   5.712  10.821   5.498  0.3409  0.1924 -0.3046
    7MOL0     C  814   5.622  10.762   5.409  0.4963  0.4874 -0.2820
    7MOL0     C  815   5.509  10.690   5.447 -0.4675  0.2843 -0.7636
    7MOL0     C  816   5.423  10.642   5.352  0.5389  1.1107  0.6475
    7MOL0     C  817   5.448  10.646   5.222  0.3531 -0.6063  0.3945
    7MOL0     O  818   5.367  10.595   5.124  0.1985 -0.0021  0.3443
    7MOL0     C  819   5.244  10.528   5.143 -0.4566  0.4674  0.4883
    7MOL0     C  820   5.227  10.441   5.018 -0.5034 -0.1719  0.1076
    7MOL0     C  821   5.095  10.355   5.019 -0.0429 -0.2778  1.2342
    7MOL0     C  822   5.078  10.241   4.907 -0.7320 -0.0671  0.1982
    7MOL0     C  823   4.938  10.194   4.918  0.7391 -0.9675 -0.0820
    7MOL0     C  824   4.908  10.105   4.800 -0.8068 -0.7505 -0.1642
    7MOL0     C  825   4.757  10.066   4.786 -0.5506  0.3065  0.0362
    7MOL0     C  826   4.749   9.913   4.749 -0.1867 -0.8247 -0.3052
    7MOL0     N  827   4.781   9.899   4.605  0.4518 -0.0867 -0.4523
    7MOL0     C  828   4.695   9.944   4.506 -0.6718  0.1080  0.0332
    7MOL0     C  829   4.749   9.898   4.388  0.3147  0.4251 -0.0874
    7MOL0     C  830   4.669   9.920   4.252 -0.1407  0.1493  0.1611
    7MOL0     C  831   4.723  10.031   4.157 -0.9480 -0.1059 -0.6691
    7MOL0     C  832   4.661  10.063   4.014 -0.1009  0.5771 -0.7157
    7MOL0     C  833   4.507  10.065   4.023 -0.5238 -0.0508  0.2054
    7MOL0     O  834   4.441   9.934   4.048 -0.3482 -0.1198 -0.6741
    7MOL0     C  835   4.302   9.941   4.052 -0.8065 -0.0644 -0.1730
    7MOL0     C  836   4.234   9.816   4.062 -0.0167 -0.2930  0.1719
    7MOL0     C  837   4.099   9.800   4.054  0.4782 -0.9188  0.7289
    7MOL0     C  838   4.049   9.661   4.063  0.5103 -0.3798 -0.2687
    7MOL0     C  839   4.015   9.911   4.038  0.3013  0.2684  0.4620
    7MOL0     C  840   3.864   9.913   4.028 -0.4648  0.3188 -0.0599
    7MOL0     O  841   3.801  10.032   4.034  0.0912 -0.1473  0.1933
    7MOL0     C  842   3.670  10.035   3.985  0.1546  0.2022 -0.7572
    7MOL0     C  843   3.624   9.969   3.868 -0.7810 -0.4039  0.3304
    7MOL0     C  844   3.498   9.990   3.814  0.3466  0.6674 -0.6622
    7MOL0     C  845   3.411  10.079   3.867  0.3415  0.7143 -0.2677
    7MOL0     O  846   3.279  10.100   3.828 -0.1206 -0.6976 -1.0469
    7MOL0     C  847   3.210   9.993   3.769  0.1625  0.5717  0.2531
    7MOL0     C  848   3.053  10.005   3.793 -0.4899  0.1506  0.5922
    7MOL0     C  849   3.004  10.124   3.701  0.4185 -0.9640 -0.6135
    7MOL0     C  850   2.855  10.150   3.733  0.3704 -1.2109  0.4498
    7MOL0     C  851   2.798  10.264   3.651  0.4033  0.9160  0.6395
    7MOL0     C  852   2.647  10.275   3.671 -0.5913  0.1199 -0.6666
    7MOL0     C  853   2.585  10.384   3.599  0.4797 -0.1722  0.7605
    7MOL0     C  854   2.435  10.370   3.610 -0.7378  0.6777 -0.1783
    7MOL0    Cl  855   2.344  10.490   3.507 -0.0271 -0.4682 -0.0950
    7MOL0     C  856   3.453  10.147   3.983 -0.2528  0.1425 -0.5418
    7MOL0     C  857   3.576  10.133   4.041 -0.2588 -0.3315 -0.0029
    7MOL0     O  858   3.813   9.800   4.009 -0.3665 -0.7362 -0.1809
    7MOL0     C  859   4.076  10.039   4.041 -0.4092  0.1366 -0.5289
    7MOL0     C  860   4.217  10.054   4.047 -0.1432  0.2679  0.3994
    7MOL0     N  861   4.869   9.833   4.417 -0.2231 -0.9192  0.8879
    7MOL0     N  862   4.886   9.834   4.542  0.1665 -0.1830 -0.2835
    7MOL0     C  863   5.565  10.700   5.184  0.4071  0.8452 -0.2322
    7MOL0     C  864   5.650  10.765   5.271  0.1864 -0.0825  0.2095
    7MOL0     C  865   5.849  11.012   5.580 -0.4448 -0.2017  1.4553
    7MOL0     C  866   5.864  11.153   5.572 -0.3534  0.0068  0.1752
    7MOL0     C  867   5.930  11.216   5.679 -0.6906 -0.5928 -0.3865
    7MOL0     C  868   5.976  11.153   5.793  0.0652  0.4033 -0.3402
    7MOL0     O  869   6.041  11.230   5.882  0.8734  0.8899  0.0566
    7MOL0     C  870   6.087  11.162   6.008 -0.6599 -0.6716  0.7519
    7MOL0     C  871   6.152  11.277   6.086 -0.1202  0.0974  0.2197
    7MOL0     C  872   6.057  11.352   6.186 -0.7905  0.7662 -0.7975
    7MOL0     C  873   6.001  11.280   6.319  0.6984  0.6961  0.5039
    7MOL0     C  874   6.109  11.256   6.410 -0.4965  0.2252 -0.6620
    7MOL0     C  875   6.203  11.219   6.485 -0.5501 -0.2182  0.4659
    7MOL0     C  876   5.961  11.019   5.800 -0.2640 -0.3700  1.0213
    7MOL0     C  877   5.906  10.947   5.690  0.0202 -0.3906  0.1711
    7MOL0     H  878   5.495  10.675   5.554 -0.1074  1.2565 -0.5660
    7MOL0     H  879   5.341  10.593   5.404  1.0720 -1.2889 -0.6524
    7MOL0     H  880   5.241  10.459   5.228  0.6707 -0.4571 -0.1886
    7MOL0     H  881   5.167  10.605   5.148 -0.2356  0.8240 -1.1623
    7MOL0     H  882   5.227  10.505   4.929 -2.5873  0.0610  0.2251
    7MOL0     H  883   5.316  10.378   5.013 -0.3010  0.1547 -0.5164
    7MOL0     H  884   5.091  10.304   5.116  4.3546 -1.9813  0.7366
    7MOL0     H  885   5.018  10.432   5.004  1.6481  1.3527  0.5390
    7MOL0     H  886   5.098  10.281   4.808  0.4505 -0.9877  0.0502
    7MOL0     H  887   5.141  10.153   4.922  1.5330  1.6341  1.1251
    7MOL0     H  888   4.926  10.141   5.013  1.7345 -0.0802  0.5617
    7MOL0     H  889   4.881  10.287   4.921  1.4467 -0.4302 -2.0792
    7MOL0     H  890   4.943  10.149   4.706  1.5750  0.9500  1.4018
    7MOL0     H  891   4.971  10.015   4.802 -3.4217 -2.7938 -2.5481
    7MOL0     H  892   4.710  10.076   4.885  0.6373  1.4730  0.5069
    7MOL0     H  893   4.698  10.117   4.710  1.0577  1.6940 -0.3436
    7MOL0     H  894   4.650   9.872   4.771  0.2670 -2.3433 -0.9596
    7MOL0     H  895   4.806   9.857   4.823  1.1187 -0.2856 -0.8778
    7MOL0     H  896   4.596   9.984   4.519  0.2111  2.4027  0.1381
    7MOL0     H  897   4.674   9.823   4.201  1.2805  2.3838 -4.4875
    7MOL0     H  898   4.565   9.934   4.282  0.0459  1.4253  0.2628
    7MOL0     H  899   4.831  10.024   4.138 -0.0566 -0.4195  3.5094
    7MOL0     H  900   4.707  10.123   4.215  1.9918 -0.1253  0.3841
    7MOL0     H  901   4.699   9.990   3.941  0.1427  0.1210 -0.1421
    7MOL0     H  902   4.699  10.163   3.991  1.1808 -0.2539 -2.5452
    7MOL0     H  903   4.471  10.101   3.926 -0.7301  0.7999  0.5900
    7MOL0     H  904   4.475  10.133   4.101 -0.3533 -0.0190  0.2477
    7MOL0     H  905   4.300   9.730   4.051  1.2546  0.7892 -1.0709
    7MOL0     H  906   3.958   9.650   4.123 -0.0172 -3.4837 -1.4268
    7MOL0     H  907   4.014   9.625   3.965 -2.1364  0.0972  0.4266
    7MOL0     H  908   4.123   9.594   4.107  0.4143  1.0757  2.2568
    7MOL0     H  909   3.684   9.893   3.818  1.4738 -0.1323  2.4115
    7MOL0     H  910   3.479   9.929   3.726  1.1201 -2.3084  1.0750
    7MOL0     H  911   3.234   9.983   3.662  0.5654  1.6965  0.2223
    7MOL0     H  912   3.239   9.899   3.816 -1.8073  0.4073  1.2341
    7MOL0     H  913   3.004   9.913   3.761 -3.6463  1.0782  2.3173
    7MOL0     H  914   3.033  10.013   3.900  1.1891  0.5239  0.9105
    7MOL0     H  915   3.003  10.092   3.597 -1.1263 -3.9414  0.2011
    7MOL0     H  916   3.071  10.211   3.705  0.5433 -0.9558 -2.2211
    7MOL0     H  917   2.798  10.059   3.711 -3.8143  0.7743  2.0707
    7MOL0     H  918   2.846  10.177   3.839 -0.7383 -0.6878  0.2384
    7MOL0     H  919   2.821  10.240   3.547 -1.6252 -0.9145  0.5205
    7MOL0     H  920   2.843  10.360   3.679 -0.3913  1.2340  0.8609
    7MOL0     H  921   2.610  10.177   3.641 -0.0114  0.1351 -1.4656
    7MOL0     H  922   2.632  10.292   3.778 -1.1749  1.8489 -1.0006
    7MOL0     H  923   2.613  10.379   3.494  0.8402 -1.9997  0.9141
    7MOL0     H  924   2.629  10.478   3.635 -0.6484  0.2390  1.1054
    7MOL0     H  925   2.406  10.374   3.716 -0.7797 -0.5574 -0.1212
    7MOL0     H  926   2.414  10.266   3.583  3.1027 -0.0867 -0.8869
    7MOL0     H  927   3.376  10.208   4.029 -2.6260 -1.5514 -2.0169
    7MOL0     H  928   3.605  10.189   4.130  1.5313 -1.3068  0.0768
    7MOL0     H  929   4.008  10.123   4.033  1.5184  1.7431 -0.8376
    7MOL0     H  930   4.268  10.151   4.046  1.5943 -0.6068 -0.9151
    7MOL0     H  931   5.593  10.705   5.079  1.9072 -1.2786  0.0000
    7MOL0     H  932   5.727  10.821   5.218 -1.1738  0.1492 -1.6657
    7MOL0     H  933   5.811  11.216   5.501 -1.6034 -0.6691  0.4815
    7MOL0     H  934   5.950  11.322   5.667 -0.5394 -0.5854 -0.0913
    7MOL0     H  935   6.003  11.121   6.065  0.3523  0.2430  3.0204
    7MOL0     H  936   6.165  11.089   5.984  0.1801  0.2477  0.6117
    7MOL0     H  937   6.188  11.346   6.010 -0.0018  0.4814  0.6160
    7MOL0     H  938   6.245  11.252   6.138  1.2618 -1.9565 -2.9728
    7MOL0     H  939   5.975  11.398   6.131 -1.2233 -1.1444 -1.8379
    7MOL0     H  940   6.110  11.440   6.224 -0.4228 -0.3918  1.5888
    7MOL0     H  941   5.948  11.190   6.287  0.9375  0.1702  1.5388
    7MOL0     H  942   5.928  11.348   6.362  2.4808  2.9564  0.1208
    7MOL0     H  943   6.275  11.180   6.554 -1.2011 -1.4046  0.5055
    7MOL0     H  944   6.012  10.958   5.874  0.2775 -1.4315 -0.1680
    7MOL0     H  945   5.903  10.839   5.701  1.9593 -0.6182 -0.9873
    8MOL0     O  946   7.113   0.834  10.531  0.3587 -0.5511 -0.1180
    8MOL0     C  947   7.054   0.759  10.604  0.4393  0.7467  0.0036
    8MOL0     O  948   6.951   0.686  10.569  0.2483  0.1993 -0.4851
    8MOL0     C  949   6.915   0.645  10.446  0.6004  0.3140  0.3168
    8MOL0     C  950   6.997   0.647  10.332 -0.4500 -0.4133 -0.4884
    8MOL0     C  951   6.951   0.582  10.218 -0.6231 -0.0729 -0.3094
    8MOL0     C  952   6.818   0.528  10.204  0.3562 -0.1268 -0.5126
    8MOL0     O  953   6.789   0.469  10.085 -0.2532 -0.2394  0.0780
    8MOL0     C  954   6.670   0.382  10.087  0.6374 -0.4799  0.7823
    8MOL0     C  955   6.631   0.346   9.941  0.2722 -0.1285 -0.4878
    8MOL0     C  956   6.496   0.268   9.932 -0.4603 -0.0025 -0.2901
    8MOL0     C  957   6.474   0.222   9.786  0.2955 -0.4852  0.3921
    8MOL0     C  958   6.356   0.121   9.783  0.4291 -0.2651 -0.5608
    8MOL0     C  959   6.222   0.210   9.795  0.2726  0.5718  0.1341
    8MOL0     C  960   6.110   0.114   9.805  0.8589 -0.0239  0.8210
    8MOL0     C  961   5.970   0.173   9.769 -0.8955  0.0718 -0.8177
    8MOL0     N  962   5.857   0.101   9.810 -1.0472 -0.1602  1.1915
    8MOL0     C  963   5.849  -0.036   9.840  0.5481  0.0102  0.3214
    8MOL0     C  964   5.723  -0.054   9.893  0.5027  0.0412 -0.0285
    8MOL0     C  965   5.670  -0.188   9.939  0.2070 -0.1895 -0.3824
    8MOL0     C  966   5.700  -0.206  10.097 -0.2913  0.8294  0.2105
    8MOL0     C  967   5.595  -0.145  10.180  0.4724 -0.2767 -0.5923
    8MOL0     C  968   5.610  -0.168  10.324  0.3126  0.3376  0.5389
    8MOL0     O  969   5.600  -0.305  10.371  0.1942  0.4010 -0.1261
    8MOL0     C  970   5.479  -0.371  10.390  0.5802  0.0299 -0.0542
    8MOL0     C  971   5.470  -0.510  10.406  0.0548 -0.4060 -0.6128
    8MOL0     C  972   5.352  -0.575  10.437  0.9195 -0.0690 -1.0936
    8MOL0     C  973   5.356  -0.723  10.443 -0.4339  0.0385  0.0090
    8MOL0     C  974   5.230  -0.502  10.463  0.2052 -0.2291  0.9167
    8MOL0     C  975   5.097  -0.553  10.524 -0.8471  0.3877  0.3287
    8MOL0     O  976   5.000  -0.458  10.516  0.1553  0.4183  0.0642
    8MOL0     C  977   4.885  -0.464  10.597  0.0089  0.0155 -0.4427
    8MOL0     C  978   4.868  -0.531  10.712 -0.1906  0.1951 -0.2120
    8MOL0     C  979   4.739  -0.533  10.771  0.0579 -0.9375  0.7987
    8MOL0     C  980   4.632  -0.451  10.733 -0.2736  0.7024  0.4471
    8MOL0     O  981   4.513  -0.450  10.798 -0.1806 -0.1709 -0.1349
    8MOL0     C  982   4.396  -0.452  10.710  0.7028 -0.2308  0.9788
    8MOL0     C  983   4.310  -0.334  10.751 -0.2492  0.1769 -1.6878
    8MOL0     C  984   4.170  -0.353  10.687  0.2621  0.0268 -0.3016
    8MOL0     C  985   4.067  -0.249  10.725 -0.5153 -0.1369 -0.4658
    8MOL0     C  986   3.922  -0.298  10.686  0.3036  0.1804 -0.4188
    8MOL0     C  987   3.830  -0.171  10.711  0.1410  0.0328 -0.4272
    8MOL0     C  988   3.682  -0.192  10.653 -0.6184  0.1395 -0.0835
    8MOL0     C  989   3.592  -0.078  10.691 -0.3690 -0.0137 -1.3590
    8MOL0    Cl  990   3.607  -0.052  10.869 -0.0837  0.2698 -0.4198
    8MOL0     C  991   4.655  -0.369  10.628 -0.6813 -0.3496 -0.8147
    8MOL0     C  992   4.781  -0.373  10.560  0.5717  0.6671 -0.1724
    8MOL0     O  993   5.083  -0.665  10.573 -0.5665 -0.1969 -0.3886
    8MOL0     C  994   5.235  -0.366  10.419 -0.3928  0.1930  0.3289
    8MOL0     C  995   5.359  -0.299  10.398  0.0094 -0.5343  0.7517
    8MOL0     N  996   5.660   0.077   9.903 -0.3809  0.5452 -0.2881
    8MOL0     N  997   5.747   0.159   9.861 -0.2816 -0.5560  0.0583
    8MOL0     C  998   6.737   0.544  10.310  0.8788  1.2959 -0.0087
    8MOL0     C  999   6.782   0.593  10.435  0.8991  0.3579  0.5442
    8MOL0     C 1000   7.115   0.725  10.737  0.4937 -0.9544 -0.4538
    8MOL0     C 1001   7.225   0.798  10.782 -0.0892 -0.0284  0.0389
    8MOL0     C 1002   7.268   0.774  10.915  0.3177  0.7119  0.3879
    8MOL0     C 1003   7.207   0.688  10.997 -0.9045  0.4144 -0.2635
    8MOL0     O 1004   7.266   0.679  11.125  0.2070 -0.0983  0.6267
    8MOL0     C 1005   7.197   0.606  11.227 -0.7700  0.7245  0.6163
    8MOL0     C 1006   7.276   0.605  11.353 -0.6252 -0.3554 -0.4391
    8MOL0     C 1007   7.428   0.587  11.330  1.1867 -0.0155 -0.8069
    8MOL0     C 1008   7.509   0.587  11.458  0.2676 -0.8470  0.0533
    8MOL0     C 1009   7.500   0.461  11.539  0.0052  0.3903 -0.4822
    8MOL0     C 1010   7.490   0.362  11.609  1.0198 -0.3619 -0.1981
    8MOL0     C 1011   7.099   0.616  10.958  0.1172 -0.3709  0.7788
    8MOL0     C 1012   7.055   0.627  10.824  0.4719 -0.0928  0.0059
    8MOL0     H 1013   7.097   0.688  10.333 -0.4756 -0.2846  1.7373
    8MOL0     H 1014   7.021   0.580  10.135 -1.6438 -1.9545 -1.2022
    8MOL0     H 1015   6.684   0.289  10.143  0.7854  0.4829  2.4170
    8MOL0     H 1016   6.584   0.442  10.119  0.5888  1.3842 -2.4312
    8MOL0     H 1017   6.632   0.442   9.888  2.4874  0.3943  0.3874
    8MOL0     H 1018   6.710   0.295   9.885 -0.5196  1.5664 -3.3745
    8MOL0     H 1019   6.499   0.181   9.998 -0.6426 -1.4073 -2.0570
    8MOL0     H 1020   6.421   0.338   9.970  0.8329  0.5400  1.3921
    8MOL0     H 1021   6.448   0.312   9.730  2.1233  1.4184  2.4514
    8MOL0     H 1022   6.561   0.176   9.738 -2.1189 -2.9886 -2.0243
    8MOL0     H 1023   6.363   0.067   9.688  1.9918  0.4149 -0.8649
    8MOL0     H 1024   6.350   0.049   9.865 -1.4352 -1.4457 -1.6471
    8MOL0     H 1025   6.212   0.280   9.878 -3.4878  0.4450 -0.0709
    8MOL0     H 1026   6.217   0.271   9.704 -2.7058 -1.5040 -1.2386
    8MOL0     H 1027   6.120   0.025   9.742 -1.9091 -0.4756  0.8952
    8MOL0     H 1028   6.112   0.085   9.910 -1.6532 -1.6800  0.5153
    8MOL0     H 1029   5.963   0.193   9.662  0.8917  2.9479 -0.4965
    8MOL0     H 1030   5.971   0.270   9.819  2.9629  0.5504 -1.5340
    8MOL0     H 1031   5.925  -0.109   9.813  0.7276  0.5942 -0.8166
    8MOL0     H 1032   5.565  -0.196   9.909  0.1949 -0.4531 -0.2752
    8MOL0     H 1033   5.725  -0.265   9.884  0.2135 -1.2160  0.9975
    8MOL0     H 1034   5.792  -0.149  10.111 -0.2367  0.4377  1.6734
    8MOL0     H 1035   5.707  -0.313  10.119  3.4634  1.0027  0.4254
    8MOL0     H 1036   5.495  -0.174  10.146  0.7212  1.6823 -3.2791
    8MOL0     H 1037   5.601  -0.039  10.156  1.7392 -0.7488 -2.4862
    8MOL0     H 1038   5.537  -0.102  10.371 -1.6210 -1.0993 -0.3040
    8MOL0     H 1039   5.705  -0.124  10.356  0.2848 -0.9483  2.5684
    8MOL0     H 1040   5.569  -0.555  10.400  2.7517  4.9413 -3.4465
    8MOL0     H 1041   5.331  -0.757  10.544 -1.6775  2.9473  0.7773
    8MOL0     H 1042   5.283  -0.759  10.369 -1.3761  3.7602 -1.1111
    8MOL0     H 1043   5.458  -0.756  10.421  1.1100  2.9650  2.0983
    8MOL0     H 1044   4.938  -0.605  10.749  0.7735 -0.0240 -2.2924
    8MOL0     H 1045   4.719  -0.589  10.862  0.5656 -0.7680  1.0225
    8MOL0     H 1046   4.414  -0.453  10.602  2.3859  2.0766  1.1635
    8MOL0     H 1047   4.344  -0.544  10.738  0.1159  0.7096  3.2540
    8MOL0     H 1048   4.298  -0.336  10.860 -1.4596  0.2151 -1.8045
    8MOL0     H 1049   4.359  -0.242  10.718  1.0397  0.9882  1.9873
    8MOL0     H 1050   4.134  -0.455  10.705  0.7221 -0.1861 -0.5922
    8MOL0     H 1051   4.184  -0.351  10.579  1.8399  2.6279 -0.1397
    8MOL0     H 1052   4.069  -0.235  10.834 -1.3846 -0.8160 -0.3475
    8MOL0     H 1053   4.072  -0.151  10.677  0.2695 -1.2299 -2.7364
    8MOL0     H 1054   3.896  -0.380  10.754  1.7950  0.2683  0.3049
    8MOL0     H 1055   3.909  -0.334  10.583 -2.2591  0.7683 -0.3474
    8MOL0     H 1056   3.818  -0.161  10.819  2.9615  0.0676 -0.0359
    8MOL0     H 1057   3.877  -0.079  10.677 -0.5879  0.1711 -1.1050
    8MOL0     H 1058   3.642  -0.289  10.683 -1.4772  0.8514  1.1734
    8MOL0     H 1059   3.694  -0.198  10.544  3.4090  2.2128  0.0635
    8MOL0     H 1060   3.490  -0.102  10.661 -0.1589 -1.7333 -0.8260
    8MOL0     H 1061   3.629   0.009  10.636  1.1150  1.6291  1.9467
    8MOL0     H 1062   4.577  -0.304  10.589 -0.1947  1.5966  1.2324
    8MOL0     H 1063   4.818  -0.327  10.469  5.0431 -2.0892 -0.0216
    8MOL0     H 1064   5.142  -0.310  10.423  0.4749  1.6838  0.2339
    8MOL0     H 1065   5.365  -0.192  10.377 -1.6748 -0.5023  0.2988
    8MOL0     H 1066   6.633   0.512  10.312  1.1246  0.2785 -1.6854
    8MOL0     H 1067   6.711   0.589  10.517  2.0398 -0.3046  1.5205
    8MOL0     H 1068   7.276   0.878  10.729  2.5778 -0.7285  1.4131
    8MOL0     H 1069   7.353   0.824  10.960 -2.7451  2.4527  4.9708
    8MOL0     H 1070   7.098   0.648  11.247 -0.2544  2.8758 -0.9103
    8MOL0     H 1071   7.190   0.504  11.188  1.5893  1.5574 -2.3534
    8MOL0     H 1072   7.237   0.522  11.414  1.7678 -0.7166  0.7158
    8MOL0     H 1073   7.252   0.693  11.414 -2.0698  0.6631 -2.3634
    8MOL0     H 1074   7.472   0.677  11.284  0.5419  0.5787 -0.2864
    8MOL0     H 1075   7.449   0.496  11.273 -1.7117 -2.1537  1.2443
    8MOL0     H 1076   7.491   0.678  11.516 -1.0277  0.1554 -1.8420
    8MOL0     H 1077   7.616   0.608  11.442  0.3592 -0.1263  1.4400
    8MOL0     H 1078   7.488   0.265  11.655 -1.3195 -0.4143 -0.3095
    8MOL0     H 1079   7.053   0.542  11.022  0.6982 -2.0049 -0.6165
    8MOL0     H 1080   6.976   0.564  10.783 -1.2401  0.2040  2.6300
    9MOL0     O 1081  10.119   5.140   5.551 -0.1720 -0.0267 -0.3075
    9MOL0     C 1082  10.114   5.039   5.621  0.0579 -0.3968 -1.4445
    9MOL0     O 1083  10.011   5.019   5.712  0.4968  0.8844 -0.4365
    9MOL0     C 1084   9.898   5.100   5.705 -0.5244 -0.9772 -0.1882
    9MOL0     C 1085   9.835   5.131   5.583 -0.5561 -0.6531 -0.0051
    9MOL0     C 1086   9.725   5.218   5.574  0.7194  1.3733 -0.1414
    9MOL0     C 1087   9.670   5.276   5.688 -0.0989  0.3269 -0.3446
    9MOL0     O 1088   9.563   5.369   5.687  0.0057 -0.1526 -0.3923
    9MOL0     C 1089   9.483   5.370   5.571  0.6915  0.3738  0.4117
    9MOL0     C 1090   9.351   5.415   5.621  0.2051  0.0693 -0.3721
    9MOL0     C 1091   9.263   5.438   5.497 -0.0711  0.0739 -0.9507
    9MOL0     C 1092   9.147   5.542   5.524 -1.0205 -0.0929  0.1896
    9MOL0     C 1093   9.046   5.555   5.404  0.0078  0.1040  0.8345
    9MOL0     C 1094   8.980   5.424   5.357 -0.6637 -0.5543 -0.2503
    9MOL0     C 1095   8.900   5.356   5.465 -0.0057  0.7755  0.1340
    9MOL0     C 1096   8.852   5.223   5.410 -0.1703  0.0740  0.2457
    9MOL0     N 1097   8.740   5.163   5.480  0.0637  0.0408 -0.3117
    9MOL0     C 1098   8.613   5.214   5.483 -0.7305  0.4764  1.0794
    9MOL0     C 1099   8.561   5.121   5.567  0.6082  0.5789 -0.3345
    9MOL0     C 1100   8.420   5.128   5.625  0.3021 -0.1477  0.4161
    9MOL0     C 1101   8.313   5.085   5.516  0.1555 -0.1614  0.3675
    9MOL0     C 1102   8.175   5.139   5.551 -0.2785 -0.1133 -0.7632
    9MOL0     C 1103   8.076   5.082   5.457  0.4237 -0.5336  0.4182
    9MOL0     O 1104   7.956   5.167   5.452  0.1316 -0.4904  0.3341
    9MOL0     C 1105   7.830   5.117   5.471 -0.1295  0.2895  0.1752
    9MOL0     C 1106   7.793   4.986   5.504  0.7905  0.3363 -0.2247
    9MOL0     C 1107   7.656   4.935   5.532  0.0083 -0.9811  0.6102
    9MOL0     C 1108   7.640   4.797   5.574  0.6274  0.0325 -1.1105
    9MOL0     C 1109   7.556   5.038   5.525 -0.1495  0.3727 -0.5691
    9MOL0     C 1110   7.410   5.011   5.563 -0.0113 -0.2654  0.1963
    9MOL0     O 1111   7.335   5.127   5.569  0.4415  0.3263 -0.1013
    9MOL0     C 1112   7.206   5.112   5.603 -0.2736  0.9449 -0.5255
    9MOL0     C 1113   7.104   5.127   5.510  1.0688  0.2574 -0.4757
    9MOL0     C 1114   6.965   5.122   5.553 -0.2889 -0.6415 -0.0470
    9MOL0     C 1115   6.933   5.104   5.687 -0.6134 -0.5862 -0.1578
    9MOL0     O 1116   6.798   5.090   5.734 -0.2639  0.0574 -0.1829
    9MOL0     C 1117   6.688   5.134   5.652  0.2226 -0.1908 -0.7496
    9MOL0     C 1118   6.554   5.140   5.729  0.0825  0.7597 -0.3003
    9MOL0     C 1119   6.438   5.208   5.665  1.0519  0.0844 -0.2509
    9MOL0     C 1120   6.307   5.246   5.745 -0.2223 -1.8437  1.0841
    9MOL0     C 1121   6.183   5.227   5.657 -0.8415  0.1771 -0.2185
    9MOL0     C 1122   6.062   5.284   5.720 -0.1736 -0.5556  0.6235
    9MOL0     C 1123   5.944   5.254   5.631 -0.4215 -0.6788  0.7694
    9MOL0     C 1124   5.818   5.317   5.676  0.1642  0.3108  0.7248
    9MOL0    Cl 1125   5.703   5.287   5.550 -0.0056  0.5349  0.1209
    9MOL0     C 1126   7.040   5.088   5.778 -0.4604  0.9715 -0.3857
    9MOL0     C 1127   7.173   5.098   5.736 -0.4083  0.3514  0.0601
    9MOL0     O 1128   7.379   4.900   5.603  0.7436 -0.5179 -0.1369
    9MOL0     C 1129   7.595   5.169   5.488 -0.3042  0.2499  0.4502
    9MOL0     C 1130   7.726   5.200   5.455  0.0460  0.1251 -0.6007
    9MOL0     N 1131   8.646   5.028   5.614 -0.2840 -0.1215  1.2393
    9MOL0     N 1132   8.755   5.051   5.554 -0.0069 -0.5698  0.3478
    9MOL0     C 1133   9.746   5.258   5.810  0.0217  0.0452 -0.2688
    9MOL0     C 1134   9.837   5.156   5.826 -0.4689  0.1045  0.0939
    9MOL0     C 1135  10.239   4.947   5.629 -0.5793 -0.4178 -0.3484
    9MOL0     C 1136  10.238   4.834   5.711  0.3145  0.5621 -0.1570
    9MOL0     C 1137  10.355   4.757   5.711  0.2446 -0.1940 -0.5770
    9MOL0     C 1138  10.468   4.786   5.643 -1.0698 -0.8999  1.1159
    9MOL0     O 1139  10.572   4.696   5.662 -0.5077  0.5012 -0.2345
    9MOL0     C 1140  10.705   4.744   5.635  0.1347  0.3180  0.2385
    9MOL0     C 1141  10.756   4.859   5.717  0.4233  0.2176  0.7380
    9MOL0     C 1142  10.760   4.830   5.866 -0.0724 -0.4307 -0.4527
    9MOL0     C 1143  10.813   4.946   5.950  0.7738 -0.1942  0.2164
    9MOL0     C 1144  10.958   4.962   5.934 -0.1654  0.1887 -0.2183
    9MOL0     C 1145  11.077   4.950   5.933 -1.2649 -0.2445  0.5342
    9MOL0     C 1146  10.465   4.906   5.565 -0.3536  0.0998  0.0272
    9MOL0     C 1147  10.355   4.989   5.565 -0.6127  0.3198 -0.3714
    9MOL0     H 1148   9.864   5.079   5.491 -1.2136 -0.5331 -0.2846
    9MOL0     H 1149   9.688   5.254   5.479  0.7844  1.8996  0.0315
    9MOL0     H 1150   9.527   5.442   5.502  1.4038 -1.0720 -0.7110
    9MOL0     H 1151   9.480   5.269   5.527  0.8349  0.8784 -0.8021
    9MOL0     H 1152   9.311   5.341   5.691  1.3324 -0.9753 -0.7873
    9MOL0     H 1153   9.362   5.514   5.667  1.1654  0.3457 -1.1603
    9MOL0     H 1154   9.323   5.475   5.414 -2.8364  0.9902 -2.6549
    9MOL0     H 1155   9.215   5.344   5.469 -2.1204  1.3542 -1.9466
    9MOL0     H 1156   9.086   5.509   5.609 -1.7023  2.2363  0.6873
    9MOL0     H 1157   9.184   5.642   5.549 -0.0159 -0.1202 -1.0892
    9MOL0     H 1158   8.969   5.627   5.431  0.0136  0.8945 -1.0995
    9MOL0     H 1159   9.101   5.580   5.312  0.9406 -1.5359  0.9003
    9MOL0     H 1160   8.917   5.452   5.272 -1.2601 -1.7586 -0.2378
    9MOL0     H 1161   9.051   5.356   5.308 -0.6070  0.5366 -1.7533
    9MOL0     H 1162   8.955   5.338   5.558 -1.7048 -1.7107  0.7613
    9MOL0     H 1163   8.816   5.423   5.489 -1.2325 -0.7810  0.3892
    9MOL0     H 1164   8.938   5.156   5.403  0.4934  0.9229  0.0410
    9MOL0     H 1165   8.819   5.231   5.306  0.3004 -0.3889  0.0591
    9MOL0     H 1166   8.565   5.300   5.438 -3.4341 -2.1197 -1.4069
    9MOL0     H 1167   8.432   5.051   5.702  4.3611 -0.0270  0.1282
    9MOL0     H 1168   8.403   5.228   5.666 -1.1828 -1.0695  2.1981
    9MOL0     H 1169   8.306   4.976   5.507 -1.7762  0.0011 -0.6193
    9MOL0     H 1170   8.334   5.125   5.416 -1.2592  1.5781  0.7055
    9MOL0     H 1171   8.175   5.249   5.556 -4.3923  0.0599 -0.8574
    9MOL0     H 1172   8.145   5.101   5.649 -0.3261 -1.5562 -1.3154
    9MOL0     H 1173   8.066   4.976   5.483  3.0942 -0.8707  0.3519
    9MOL0     H 1174   8.126   5.088   5.360  0.4811 -0.5987  0.4439
    9MOL0     H 1175   7.878   4.923   5.526  0.2531 -0.5125 -0.5385
    9MOL0     H 1176   7.734   4.743   5.585  2.3824  3.2424  1.6583
    9MOL0     H 1177   7.599   4.805   5.675  4.1428 -1.3109  0.5815
    9MOL0     H 1178   7.558   4.746   5.523 -1.8882  1.1297  1.5373
    9MOL0     H 1179   7.124   5.149   5.406 -1.4451  0.4856 -0.9704
    9MOL0     H 1180   6.885   5.153   5.485  1.5802  4.0418 -0.5043
    9MOL0     H 1181   6.717   5.230   5.607  1.1672 -0.4964 -0.8024
    9MOL0     H 1182   6.672   5.054   5.579  2.4966 -1.2850 -0.1242
    9MOL0     H 1183   6.525   5.040   5.762  3.4857 -0.2834  0.0161
    9MOL0     H 1184   6.576   5.184   5.827  0.2000 -1.7712  0.8925
    9MOL0     H 1185   6.410   5.148   5.578  0.3421  1.2651 -0.8676
    9MOL0     H 1186   6.470   5.300   5.615 -0.2951  0.1138 -1.1180
    9MOL0     H 1187   6.306   5.184   5.835  1.2816  0.4168  2.7841
    9MOL0     H 1188   6.315   5.349   5.783  2.2670 -0.6929 -2.1400
    9MOL0     H 1189   6.172   5.121   5.633  0.9255  0.2094 -1.3424
    9MOL0     H 1190   6.205   5.279   5.564  1.7271 -0.5340 -0.0935
    9MOL0     H 1191   6.047   5.244   5.820  0.4474 -3.4997 -0.3578
    9MOL0     H 1192   6.074   5.392   5.728  0.7835 -0.7552  2.1599
    9MOL0     H 1193   5.931   5.146   5.625  0.0357 -0.6610 -0.8779
    9MOL0     H 1194   5.974   5.299   5.536  1.1985  0.3679  1.7221
    9MOL0     H 1195   5.826   5.424   5.694 -0.6779  0.3645  0.7997
    9MOL0     H 1196   5.792   5.269   5.771 -0.7711 -1.3712 -0.3318
    9MOL0     H 1197   7.022   5.066   5.883  0.4640  0.0813 -0.3930
    9MOL0     H 1198   7.255   5.105   5.806  0.8254  1.5907 -1.4225
    9MOL0     H 1199   7.528   5.255   5.484  0.5608  0.9436  0.4514
    9MOL0     H 1200   7.750   5.301   5.425 -2.2684  1.5962  2.0228
    9MOL0     H 1201   9.715   5.321   5.892 -1.5551  0.8044 -1.4121
    9MOL0     H 1202   9.859   5.137   5.930 -0.7445 -2.0831 -0.2028
    9MOL0     H 1203  10.145   4.802   5.756  0.8205 -2.0104 -0.7363
    9MOL0     H 1204  10.355   4.669   5.775  3.0147  1.1187  1.4473
    9MOL0     H 1205  10.762   4.653   5.655 -2.0068 -1.3481 -0.7108
    9MOL0     H 1206  10.725   4.761   5.529  2.4464 -0.1210  0.5520
    9MOL0     H 1207  10.690   4.944   5.697  2.7550  1.4670 -2.4520
    9MOL0     H 1208  10.859   4.885   5.691  0.0523  0.2122 -0.8069
    9MOL0     H 1209  10.823   4.743   5.885  1.0444  0.4585  0.0545
    9MOL0     H 1210  10.657   4.815   5.901  0.2766 -0.8132  0.4538
    9MOL0     H 1211  10.803   4.923   6.056  1.0923  1.4926  0.6346
    9MOL0     H 1212  10.758   5.036   5.924 -2.7951 -1.6754  2.0270
    9MOL0     H 1213  11.177   4.912   5.943 -1.9773 -2.5884 -0.3617
    9MOL0     H 1214  10.554   4.945   5.516 -0.6982  0.3719 -0.3837
    9MOL0     H 1215  10.363   5.077   5.502 -1.4688  0.3912 -0.3872
   10MOL0     O 1216   2.804  10.486   1.247 -0.3540  0.0965 -0.5114
   10MOL0     C 1217   2.912  10.451   1.282 -0.2601  0.2580  0.3810
   10MOL0     O 1218   2.945  10.329   1.331  1.1823 -0.2786  0.5035
   10MOL0     C 1219   2.844  10.234   1.341  0.0697 -1.3186 -0.8378
   10MOL0     C 1220   2.872  10.142   1.437  0.0717  0.4880  0.2577
   10MOL0     C 1221   2.787  10.034   1.458  0.1338  0.1972  0.2936
   10MOL0     C 1222   2.681  10.010   1.371  0.2743  0.4007 -0.1634
   10MOL0     O 1223   2.618   9.891   1.384 -0.2877  0.1113 -0.0456
   10MOL0     C 1224   2.561   9.874   1.516 -0.2087 -0.6091  0.6134
   10MOL0     C 1225   2.410   9.894   1.499 -0.0585  0.1965 -0.0975
   10MOL0     C 1226   2.352   9.875   1.641  0.4650 -0.0870 -0.4810
   10MOL0     C 1227   2.229   9.955   1.665  0.6966  0.5231  0.9114
   10MOL0     C 1228   2.189   9.976   1.813  1.0687 -0.1083 -0.6822
   10MOL0     C 1229   2.125   9.855   1.882 -0.3535 -0.3890 -0.0589
   10MOL0     C 1230   1.981   9.835   1.841  0.2999 -0.1930 -0.3355
   10MOL0     C 1231   1.933   9.694   1.877  0.5860 -0.6458 -0.5143
   10MOL0     N 1232   1.795   9.672   1.831 -0.3188  0.0190 -0.0444
   10MOL0     C 1233   1.747   9.550   1.787 -0.0496  0.1548 -0.3587
   10MOL0     C 1234   1.611   9.565   1.779 -0.3740 -0.9304 -0.7725
   10MOL0     C 1235   1.522   9.464   1.721  0.4675 -1.0617 -0.3943
   10MOL0     C 1236   1.530   9.341   1.810  0.3941  0.4903 -0.5923
   10MOL0     C 1237   1.442   9.228   1.773  0.8836  0.3849  0.7379
   10MOL0     C 1238   1.287   9.250   1.796  0.0351 -0.1988  0.4529
   10MOL0     O 1239   1.225   9.263   1.669 -0.1766  0.4910 -0.4736
   10MOL0     C 1240   1.085   9.274   1.666 -0.6436 -0.6117 -0.2687
   10MOL0     C 1241   0.993   9.257   1.771 -0.5994 -0.4188  1.1357
   10MOL0     C 1242   0.851   9.253   1.745  0.3623 -0.2660  0.4251
   10MOL0     C 1243   0.759   9.225   1.857  0.6967 -0.0265 -0.1563
   10MOL0     C 1244   0.798   9.276   1.613  0.1871 -0.8540  0.1399
   10MOL0     C 1245   0.646   9.265   1.577  0.0439  0.7890 -0.5043
   10MOL0     O 1246   0.620   9.283   1.446 -0.3398 -0.2217  0.6939
   10MOL0     C 1247   0.496   9.251   1.394  0.6217 -0.5120  0.6000
   10MOL0     C 1248   0.487   9.160   1.289  0.3563  0.2264 -0.2196
   10MOL0     C 1249   0.357   9.136   1.240 -0.2827 -0.9411 -0.4704
   10MOL0     C 1250   0.241   9.207   1.276  0.1341  0.0973 -1.0620
   10MOL0     O 1251   0.116   9.176   1.236 -0.0710 -0.6792  0.9808
   10MOL0     C 1252   0.091   9.103   1.116  0.0476  0.2593  0.1098
   10MOL0     C 1253  -0.050   9.109   1.068 -0.5800  0.2055  0.4610
   10MOL0     C 1254  -0.104   9.253   1.039  0.8397 -0.2308 -0.6083
   10MOL0     C 1255  -0.259   9.250   1.004 -0.4059  0.4422 -0.0893
   10MOL0     C 1256  -0.338   9.381   0.986 -0.2095  0.0402  0.3496
   10MOL0     C 1257  -0.489   9.347   0.956  0.2757  1.1177  0.0370
   10MOL0     C 1258  -0.510   9.323   0.802  0.1412  0.0229 -0.5687
   10MOL0     C 1259  -0.646   9.283   0.748 -0.4599 -0.1310 -0.3280
   10MOL0    Cl 1260  -0.678   9.118   0.816  0.0461  0.2017 -0.0647
   10MOL0     C 1261   0.261   9.302   1.377  0.4022  0.2112 -0.1093
   10MOL0     C 1262   0.380   9.315   1.438 -0.5484 -0.4208 -0.6259
   10MOL0     O 1263   0.558   9.251   1.662 -0.3513 -0.0467 -0.4705
   10MOL0     C 1264   0.897   9.301   1.521 -0.1078  0.6534  0.2133
   10MOL0     C 1265   1.032   9.302   1.544  0.7038  0.7254  0.3266
   10MOL0     N 1266   1.577   9.698   1.824 -0.2303  0.3838  0.2297
   10MOL0     N 1267   1.691   9.759   1.843 -0.3674 -0.0989  0.3490
   10MOL0     C 1268   2.641  10.108   1.283 -0.0217  0.8943 -0.2189
   10MOL0     C 1269   2.725  10.224   1.266  0.1258  0.7677 -0.2901
   10MOL0     C 1270   3.020  10.555   1.277  0.1848 -0.9420  0.4828
   10MOL0     C 1271   3.145  10.520   1.313 -0.6367  0.3937 -0.0650
   10MOL0     C 1272   3.252  10.620   1.305 -0.3606 -0.7774 -0.0966
   10MOL0     C 1273   3.221  10.752   1.264 -0.2649  0.1449 -0.0831
   10MOL0     O 1274   3.312  10.864   1.261  0.8454  0.5755 -0.6061
   10MOL0     C 1275   3.434  10.838   1.331 -0.8575  0.2009 -0.0888
   10MOL0     C 1276   3.415  10.843   1.484 -0.1932 -0.4731 -0.3774
   10MOL0     C 1277   3.387  10.991   1.526  0.4718 -0.3476 -0.1672
   10MOL0     C 1278   3.508  11.075   1.572  0.6539 -0.2513  0.0165
   10MOL0     C 1279   3.582  11.136   1.458  0.4605 -0.7352 -0.0981
   10MOL0     C 1280   3.641  11.190   1.362  0.0252  0.0589  0.4483
   10MOL0     C 1281   3.090  10.782   1.219 -0.5550  0.4586  0.2034
   10MOL0     C 1282   2.989  10.689   1.230  0.6640 -0.3483 -0.1320
   10MOL0     H 1283   2.971  10.136   1.481 -0.1804  1.4901  0.9894
   10MOL0     H 1284   2.813   9.970   1.541  4.4414 -1.1530 -1.8213
   10MOL0     H 1285   2.575   9.770   1.545  1.1491 -0.6668 -0.1719
   10MOL0     H 1286   2.601   9.948   1.587 -0.0082  0.2969 -0.4189
   10MOL0     H 1287   2.384   9.995   1.463  0.4859  0.4463  0.2050
   10MOL0     H 1288   2.378   9.825   1.420 -1.3429  1.5950 -0.8517
   10MOL0     H 1289   2.329   9.770   1.662  2.6082 -0.4088  0.4303
   10MOL0     H 1290   2.437   9.903   1.704  0.9807 -0.9391 -0.7817
   10MOL0     H 1291   2.241  10.058   1.630 -2.3865 -0.3238 -3.5072
   10MOL0     H 1292   2.139   9.914   1.617  1.4382  1.0697 -1.0470
   10MOL0     H 1293   2.281  10.003   1.865 -0.3593 -4.2922  5.0064
   10MOL0     H 1294   2.117  10.058   1.804 -3.1656 -3.1304  1.7342
   10MOL0     H 1295   2.182   9.767   1.853 -0.4407 -0.1913 -0.8611
   10MOL0     H 1296   2.130   9.871   1.990  0.6691 -3.6532  0.4891
   10MOL0     H 1297   1.921   9.909   1.896 -1.5153 -1.3786 -0.6093
   10MOL0     H 1298   1.959   9.849   1.735  0.9983 -1.5106 -0.6732
   10MOL0     H 1299   1.934   9.683   1.986 -0.9840  2.5474 -0.0720
   10MOL0     H 1300   2.000   9.615   1.840  0.0640 -1.8249  0.9506
   10MOL0     H 1301   1.803   9.458   1.781  2.5572  1.5610  0.7968
   10MOL0     H 1302   1.422   9.506   1.709  1.4068  2.4089  2.4603
   10MOL0     H 1303   1.539   9.438   1.616  0.6039  2.6660 -1.4425
   10MOL0     H 1304   1.524   9.376   1.913 -0.0376  0.6762 -0.6807
   10MOL0     H 1305   1.631   9.299   1.814  0.7814  1.4695  0.2570
   10MOL0     H 1306   1.465   9.140   1.835  1.9968  0.0397 -0.1324
   10MOL0     H 1307   1.469   9.196   1.672 -0.3425  0.1908  0.4570
   10MOL0     H 1308   1.276   9.334   1.866  0.3096 -0.7961  1.2370
   10MOL0     H 1309   1.250   9.163   1.852  3.3209 -0.9642  1.7275
   10MOL0     H 1310   1.027   9.224   1.869  1.1634 -0.9674  0.3799
   10MOL0     H 1311   0.691   9.143   1.832 -0.1833 -0.0793  2.2120
   10MOL0     H 1312   0.810   9.193   1.948  0.2573  0.1713  0.1626
   10MOL0     H 1313   0.703   9.318   1.868  0.6174  0.3030 -2.7443
   10MOL0     H 1314   0.573   9.108   1.248 -0.0161 -0.3522 -0.2793
   10MOL0     H 1315   0.340   9.055   1.171  0.3810 -2.0610  0.6455
   10MOL0     H 1316   0.159   9.140   1.039  1.4731 -1.7506  0.3281
   10MOL0     H 1317   0.119   8.998   1.131  0.1486  0.3147  0.3198
   10MOL0     H 1318  -0.049   9.057   0.972  4.1289 -0.8288  0.8147
   10MOL0     H 1319  -0.115   9.069   1.146 -0.2713  1.1378  1.2107
   10MOL0     H 1320  -0.056   9.287   0.947  1.4775  2.4276  0.6257
   10MOL0     H 1321  -0.085   9.327   1.117  0.0852 -0.2898 -0.3604
   10MOL0     H 1322  -0.281   9.185   0.919  0.1827 -0.6408  0.5577
   10MOL0     H 1323  -0.316   9.208   1.087 -1.6869  3.3240  0.6194
   10MOL0     H 1324  -0.297   9.438   0.902  0.1045  1.3641  1.3639
   10MOL0     H 1325  -0.316   9.441   1.075  4.7736  0.7712 -1.0711
   10MOL0     H 1326  -0.513   9.252   1.005  0.2988  0.2672 -1.5269
   10MOL0     H 1327  -0.552   9.429   0.992 -0.6382 -0.3364  1.9130
   10MOL0     H 1328  -0.443   9.240   0.776 -2.2473 -1.8164 -1.2076
   10MOL0     H 1329  -0.473   9.412   0.752  2.4335 -0.2586  0.5031
   10MOL0     H 1330  -0.636   9.278   0.639  2.0832  1.1266 -0.2209
   10MOL0     H 1331  -0.729   9.350   0.774 -1.2995 -1.7566  1.4148
   10MOL0     H 1332   0.173   9.353   1.415 -0.7916 -3.0870  1.9297
   10MOL0     H 1333   0.389   9.386   1.520  3.4217  0.4793 -1.5926
   10MOL0     H 1334   0.861   9.300   1.419 -0.7424 -0.8679  0.4245
   10MOL0     H 1335   1.102   9.308   1.461 -0.0787 -1.3600 -0.5344
   10MOL0     H 1336   2.553  10.101   1.220 -0.3478 -0.5400  0.3578
   10MOL0     H 1337   2.693  10.275   1.175 -0.2577 -1.3061 -1.3874
   10MOL0     H 1338   3.169  10.417   1.338  0.2821  0.2239 -1.4928
   10MOL0     H 1339   3.349  10.587   1.340 -0.2504  0.8088  1.2255
   10MOL0     H 1340   3.468  10.740   1.294 -0.3967  0.7087 -1.0564
   10MOL0     H 1341   3.513  10.904   1.295 -0.9258 -1.1147 -2.9583
   10MOL0     H 1342   3.500  10.801   1.539 -0.8683 -0.0400  1.0414
   10MOL0     H 1343   3.324  10.786   1.506 -1.4538  1.0638 -1.3791
   10MOL0     H 1344   3.310  10.988   1.603 -1.4264 -1.0907 -1.9858
   10MOL0     H 1345   3.340  11.039   1.440  3.4474  0.1060 -1.6920
   10MOL0     H 1346   3.577  11.017   1.634  0.8743 -0.8620 -0.7938
   10MOL0     H 1347   3.474  11.162   1.630 -0.1184 -0.2061 -0.4925
   10MOL0     H 1348   3.696  11.233   1.280  0.4540 -0.6927  0.3329
   10MOL0     H 1349   3.064  10.879   1.177 -0.3971  0.4610  0.1115
   10MOL0     H 1350   2.891  10.719   1.193  0.9911 -0.9833 -1.5649
   11MOL0     O 1351   4.321   2.036   3.737 -1.3165 -0.2234  0.0515
   11MOL0     C 1352   4.283   2.127   3.810 -0.2465  0.2811  0.2018
   11MOL0     O 1353   4.154   2.158   3.845  0.5017 -0.4988 -0.5593
   11MOL0     C 1354   4.054   2.100   3.775 -0.1001  0.5223  0.4160
   11MOL0     C 1355   4.061   2.061   3.649  0.9518 -0.5651  1.0973
   11MOL0     C 1356   3.954   2.011   3.573  0.1786  0.4044  0.1872
   11MOL0     C 1357   3.839   1.989   3.636 -0.0361  0.2797  0.4127
   11MOL0     O 1358   3.726   1.943   3.578  0.7606 -0.1490 -0.0346
   11MOL0     C 1359   3.727   1.817   3.497 -0.5035  0.0542  0.5038
   11MOL0     C 1360   3.605   1.825   3.402 -0.2441  0.0238  0.1581
   11MOL0     C 1361   3.477   1.833   3.480  0.1137 -0.2409 -0.3511
   11MOL0     C 1362   3.369   1.847   3.372 -0.0115  0.1321 -0.5468
   11MOL0     C 1363   3.229   1.841   3.432 -0.0411  0.4463  1.0121
   11MOL0     C 1364   3.128   1.761   3.348  0.3243  0.1582  0.4802
   11MOL0     C 1365   2.986   1.819   3.368  0.2387 -0.1604  0.5866
   11MOL0     C 1366   2.939   1.771   3.501  0.1303 -0.5209 -0.7707
   11MOL0     N 1367   2.790   1.779   3.505 -0.3683  0.0675 -0.0200
   11MOL0     C 1368   2.714   1.880   3.456 -0.2466  0.8314  0.0852
   11MOL0     C 1369   2.584   1.847   3.480  0.6939 -0.0879 -0.1503
   11MOL0     C 1370   2.456   1.920   3.463  1.2082 -0.1038 -0.6211
   11MOL0     C 1371   2.362   1.917   3.583 -0.9233  0.1906  0.3916
   11MOL0     C 1372   2.234   2.006   3.566 -0.7787  0.1122 -0.1211
   11MOL0     C 1373   2.129   1.995   3.684  0.3492  0.0170  0.6522
   11MOL0     O 1374   2.015   2.067   3.638 -0.0763  0.1632  0.5419
   11MOL0     C 1375   1.894   2.051   3.708  0.0519 -0.5866 -0.8078
   11MOL0     C 1376   1.778   2.113   3.660  0.0473  0.1218 -1.0559
   11MOL0     C 1377   1.646   2.095   3.720 -0.6698  0.1498  0.1272
   11MOL0     C 1378   1.527   2.140   3.634  0.1852  0.2531  0.4978
   11MOL0     C 1379   1.647   2.026   3.849 -0.3813 -0.2110 -0.0992
   11MOL0     C 1380   1.530   1.993   3.923  1.1410 -0.2055 -0.7062
   11MOL0     O 1381   1.412   2.061   3.886 -0.7293 -0.1215  0.2680
   11MOL0     C 1382   1.302   2.065   3.969 -0.7082  0.1738  0.6933
   11MOL0     C 1383   1.238   1.951   4.005  0.7306 -0.7889 -0.5582
   11MOL0     C 1384   1.142   1.954   4.108 -0.5692  0.4740  0.7999
   11MOL0     C 1385   1.097   2.074   4.168  0.1582  0.0307 -1.0603
   11MOL0     O 1386   0.986   2.087   4.252  0.0346  0.5074  0.1490
   11MOL0     C 1387   0.956   1.977   4.344 -0.6065 -0.5025 -0.1226
   11MOL0     C 1388   1.071   1.959   4.445 -0.0346  0.4672 -0.1182
   11MOL0     C 1389   1.118   2.086   4.524  0.0332 -0.1337 -0.6884
   11MOL0     C 1390   1.200   2.051   4.650 -0.3257  0.5599 -0.7311
   11MOL0     C 1391   1.238   2.183   4.731  0.6931 -0.5693 -0.1432
   11MOL0     C 1392   1.332   2.155   4.850  0.3872  0.4677 -0.7989
   11MOL0     C 1393   1.483   2.166   4.821  0.0878  0.1137 -0.7837
   11MOL0     C 1394   1.526   2.315   4.795 -0.3676  0.4720 -1.4159
   11MOL0    Cl 1395   1.559   2.388   4.955  0.3184 -0.1591 -0.5113
   11MOL0     C 1396   1.167   2.191   4.125  0.3218 -0.6358 -1.0980
   11MOL0     C 1397   1.266   2.189   4.029  0.1084 -0.0254  0.4038
   11MOL0     O 1398   1.535   1.920   4.016 -0.1863 -0.0969 -1.2220
   11MOL0     C 1399   1.771   1.986   3.904 -0.3665  0.2140 -1.0151
   11MOL0     C 1400   1.886   1.983   3.833 -0.0873  0.0420  0.2258
   11MOL0     N 1401   2.586   1.720   3.540 -0.1701  0.3403  0.2822
   11MOL0     N 1402   2.712   1.680   3.557 -0.0188  0.3167  1.0473
   11MOL0     C 1403   3.817   2.045   3.760 -0.7279  0.1312  0.2489
   11MOL0     C 1404   3.928   2.096   3.826  0.3624 -0.4111 -0.8012
   11MOL0     C 1405   4.403   2.196   3.871  0.5374  0.4282 -0.0992
   11MOL0     C 1406   4.388   2.302   3.962  0.3690  0.2064 -0.4810
   11MOL0     C 1407   4.503   2.371   4.006 -1.0913  0.1475 -0.8290
   11MOL0     C 1408   4.634   2.330   3.968  0.6914  0.4508 -0.0729
   11MOL0     O 1409   4.744   2.388   4.019 -0.7263 -0.4277  0.4678
   11MOL0     C 1410   4.734   2.464   4.145  0.6908  0.0165  0.4662
   11MOL0     C 1411   4.872   2.499   4.197  0.2945  0.2930 -1.0917
   11MOL0     C 1412   4.964   2.562   4.089 -0.0395 -0.1595 -0.5291
   11MOL0     C 1413   5.115   2.582   4.125  0.1889  0.4916  0.4165
   11MOL0     C 1414   5.144   2.672   4.239 -0.3737 -1.2184 -0.2142
   11MOL0     C 1415   5.165   2.738   4.335 -0.6818  0.2161 -0.2534
   11MOL0     C 1416   4.647   2.212   3.890  0.7596 -0.6032 -0.3117
   11MOL0     C 1417   4.527   2.153   3.841 -0.1551  0.3681  0.3469
   11MOL0     H 1418   4.150   2.065   3.588 -0.0224  0.5423 -0.3310
   11MOL0     H 1419   3.955   1.986   3.467 -1.1751 -1.6118  0.5881
   11MOL0     H 1420   3.815   1.805   3.432  0.6357  0.8882  1.8365
   11MOL0     H 1421   3.721   1.727   3.559 -1.5421 -0.0490  0.2719
   11MOL0     H 1422   3.622   1.910   3.335 -2.4798 -0.5716 -1.2540
   11MOL0     H 1423   3.596   1.737   3.339  0.8347 -1.0055  1.3821
   11MOL0     H 1424   3.454   1.753   3.552  1.3980  1.5375  2.2026
   11MOL0     H 1425   3.476   1.927   3.536 -0.2223 -0.4124 -0.0657
   11MOL0     H 1426   3.374   1.931   3.302 -3.2054 -0.6226 -1.8681
   11MOL0     H 1427   3.387   1.756   3.313  0.4096 -0.8982  1.1027
   11MOL0     H 1428   3.231   1.795   3.531 -2.6436 -0.2278  0.8393
   11MOL0     H 1429   3.202   1.944   3.458  0.9988  0.5181  1.8998
   11MOL0     H 1430   3.140   1.768   3.239 -3.2449  0.6565 -0.0125
   11MOL0     H 1431   3.136   1.656   3.374  1.1314 -0.0763 -0.6351
   11MOL0     H 1432   2.987   1.927   3.383 -0.8812 -0.1297  0.5417
   11MOL0     H 1433   2.925   1.789   3.282  3.2034  2.2901 -2.6422
   11MOL0     H 1434   2.976   1.825   3.589  0.8929 -1.7010 -0.3314
   11MOL0     H 1435   2.961   1.666   3.521 -0.7992 -0.3453  1.5176
   11MOL0     H 1436   2.751   1.974   3.418 -0.2599  0.5447 -0.6511
   11MOL0     H 1437   2.477   2.023   3.433 -0.8320 -0.2196 -2.7744
   11MOL0     H 1438   2.393   1.883   3.382 -0.7105 -2.3752  1.7546
   11MOL0     H 1439   2.412   1.953   3.674 -2.4195  2.0877  0.5212
   11MOL0     H 1440   2.323   1.817   3.604 -1.2539 -1.0107 -4.8077
   11MOL0     H 1441   2.183   2.001   3.470 -3.5196 -2.0122  1.3134
   11MOL0     H 1442   2.268   2.109   3.579  0.6476  0.1902 -3.4421
   11MOL0     H 1443   2.173   2.038   3.775 -0.2901  1.6521  0.2164
   11MOL0     H 1444   2.108   1.889   3.701 -1.5189  0.3503  0.6446
   11MOL0     H 1445   1.792   2.166   3.567  0.8635  0.2269 -0.8811
   11MOL0     H 1446   1.496   2.243   3.649 -0.8850 -0.1830  1.3929
   11MOL0     H 1447   1.556   2.127   3.529  1.5667  2.9653  0.4605
   11MOL0     H 1448   1.441   2.074   3.650  0.3699  0.2327  1.4235
   11MOL0     H 1449   1.249   1.856   3.955  1.5359 -0.0939 -1.7592
   11MOL0     H 1450   1.090   1.862   4.133 -1.0564  0.7281  0.7419
   11MOL0     H 1451   0.859   2.005   4.387 -1.4689 -2.5038 -0.6874
   11MOL0     H 1452   0.941   1.878   4.302  2.6684 -1.2550  0.2578
   11MOL0     H 1453   1.049   1.876   4.513 -0.9091 -1.1370 -2.2384
   11MOL0     H 1454   1.159   1.928   4.388 -0.5750 -0.2059 -0.6102
   11MOL0     H 1455   1.032   2.141   4.564 -0.4921 -1.8353  0.6247
   11MOL0     H 1456   1.171   2.149   4.453  2.4580 -2.8504 -1.4540
   11MOL0     H 1457   1.143   1.995   4.724 -0.6898  0.8771 -0.7649
   11MOL0     H 1458   1.283   1.987   4.621 -0.5000 -0.6879  1.3891
   11MOL0     H 1459   1.142   2.218   4.771  0.4019 -1.5662  0.0768
   11MOL0     H 1460   1.272   2.256   4.657  2.7938 -2.1821 -0.8884
   11MOL0     H 1461   1.320   2.232   4.927  1.9322  1.0949 -1.1583
   11MOL0     H 1462   1.319   2.055   4.894  1.9309 -0.4544 -2.3244
   11MOL0     H 1463   1.501   2.104   4.733 -1.9629 -0.8281 -0.6010
   11MOL0     H 1464   1.534   2.119   4.905  0.5445  0.2076 -1.0072
   11MOL0     H 1465   1.449   2.381   4.755 -0.2935  2.3955  1.2999
   11MOL0     H 1466   1.625   2.323   4.749  1.2104  5.8458  2.0299
   11MOL0     H 1467   1.148   2.284   4.178 -1.5969 -1.2361 -0.6685
   11MOL0     H 1468   1.328   2.276   4.012  1.7720 -0.7719  2.2087
   11MOL0     H 1469   1.771   1.942   4.003 -1.8857  0.6522 -0.8006
   11MOL0     H 1470   1.979   1.954   3.881 -0.4293 -1.5253  0.0033
   11MOL0     H 1471   3.716   2.060   3.795 -0.8687 -0.2297  0.0072
   11MOL0     H 1472   3.906   2.150   3.918 -3.3132 -0.0752 -1.6940
   11MOL0     H 1473   4.290   2.334   3.994 -1.2307 -3.2182 -1.4776
   11MOL0     H 1474   4.490   2.449   4.079 -0.9283 -1.1203  0.5995
   11MOL0     H 1475   4.677   2.554   4.122  2.0339  0.3944 -1.7581
   11MOL0     H 1476   4.671   2.411   4.218 -0.3623 -0.5969 -0.8382
   11MOL0     H 1477   4.926   2.410   4.230  0.6482  0.1339 -2.0558
   11MOL0     H 1478   4.874   2.565   4.284 -1.0196  0.1139 -0.8999
   11MOL0     H 1479   4.910   2.655   4.067 -0.7764 -0.3453  0.4089
   11MOL0     H 1480   4.965   2.502   3.998  3.8977 -0.5259 -0.4125
   11MOL0     H 1481   5.159   2.616   4.030  1.3046  0.2458  0.8338
   11MOL0     H 1482   5.170   2.496   4.165 -0.5052  0.3649  1.0958
   11MOL0     H 1483   5.182   2.795   4.425  1.7705 -1.5711  0.5347
   11MOL0     H 1484   4.733   2.158   3.852  1.4167 -1.0094  1.6386
   11MOL0     H 1485   4.550   2.070   3.775 -2.2898  0.7583 -0.9829
   12MOL0     O 1486   3.429   9.421   0.177  0.6664  0.3028 -0.1893
   12MOL0     C 1487   3.485   9.447   0.281  0.0430  1.1685 -0.7897
   12MOL0     O 1488   3.419   9.482   0.394 -0.0384  0.0397  0.9158
   12MOL0     C 1489   3.283   9.478   0.401  0.1715 -0.3177 -1.1659
   12MOL0     C 1490   3.225   9.354   0.409 -1.0286 -0.5046  0.6847
   12MOL0     C 1491   3.092   9.346   0.430  0.2492  0.3724 -0.2402
   12MOL0     C 1492   3.007   9.454   0.458 -0.8878 -0.3818 -0.1306
   12MOL0     O 1493   2.878   9.451   0.496  0.1316 -0.1107  0.1059
   12MOL0     C 1494   2.797   9.351   0.446 -0.4746  1.0663 -0.7636
   12MOL0     C 1495   2.654   9.400   0.460 -0.6821 -0.4952  0.9998
   12MOL0     C 1496   2.609   9.514   0.358  0.9143 -0.0124 -0.4698
   12MOL0     C 1497   2.652   9.481   0.214  0.2706 -0.9939  0.6130
   12MOL0     C 1498   2.583   9.563   0.095  0.9816 -0.3041 -0.1797
   12MOL0     C 1499   2.568   9.503  -0.044  0.3968  0.5025  0.7766
   12MOL0     C 1500   2.521   9.597  -0.150  0.0820 -0.4840 -0.0699
   12MOL0     C 1501   2.368   9.610  -0.137 -0.1655  0.4864 -0.4258
   12MOL0     N 1502   2.295   9.486  -0.165 -0.2673  0.1605  0.8065
   12MOL0     C 1503   2.237   9.408  -0.067  0.2359  0.5704  0.1687
   12MOL0     C 1504   2.162   9.320  -0.135  0.3331 -0.5172  0.0171
   12MOL0     C 1505   2.059   9.215  -0.089  0.3789 -0.0225  0.8228
   12MOL0     C 1506   1.916   9.276  -0.070  0.4023 -0.7672  0.2524
   12MOL0     C 1507   1.828   9.160  -0.042 -0.0469  0.3672 -0.6696
   12MOL0     C 1508   1.682   9.210  -0.027 -0.1268  0.5404 -0.3679
   12MOL0     O 1509   1.607   9.096   0.023  0.5543 -1.0858  0.5878
   12MOL0     C 1510   1.474   9.085   0.017 -0.5798 -1.0563 -0.9385
   12MOL0     C 1511   1.393   9.187   0.007 -0.4485 -0.2957  0.3968
   12MOL0     C 1512   1.250   9.172   0.008  0.6250 -0.7826  0.3813
   12MOL0     C 1513   1.176   9.298  -0.030  0.3834  1.2087  0.1839
   12MOL0     C 1514   1.194   9.041   0.012  0.5854 -0.5818  0.9410
   12MOL0     C 1515   1.055   9.003  -0.020  0.5953 -1.0685  0.4098
   12MOL0     O 1516   1.010   8.878   0.003 -0.2431 -0.3511 -0.8151
   12MOL0     C 1517   0.880   8.848  -0.031 -0.2065 -0.3567  0.6469
   12MOL0     C 1518   0.766   8.907   0.028 -0.3146 -0.1788  0.2973
   12MOL0     C 1519   0.636   8.874  -0.012  0.6623 -0.3817 -0.4473
   12MOL0     C 1520   0.617   8.786  -0.117 -0.4411 -0.2859  1.0146
   12MOL0     O 1521   0.487   8.774  -0.153  0.4014 -0.1140  0.1412
   12MOL0     C 1522   0.456   8.653  -0.224  0.8302  0.9999 -0.2246
   12MOL0     C 1523   0.304   8.653  -0.253 -0.3871  0.0564 -0.0299
   12MOL0     C 1524   0.251   8.770  -0.332  0.5340 -0.9451  0.0559
   12MOL0     C 1525   0.095   8.787  -0.331  0.1045  0.4066  0.3562
   12MOL0     C 1526   0.037   8.907  -0.410 -1.0944  0.1979 -0.5267
   12MOL0     C 1527  -0.116   8.912  -0.407  0.0947  0.2984 -0.1400
   12MOL0     C 1528  -0.184   8.805  -0.499  0.8998 -0.5559 -0.1872
   12MOL0     C 1529  -0.335   8.829  -0.515 -0.7601 -0.8805 -0.6685
   12MOL0    Cl 1530  -0.379   8.960  -0.625  0.1668 -0.2832  0.3183
   12MOL0     C 1531   0.732   8.729  -0.179 -0.4716  0.4844 -0.3723
   12MOL0     C 1532   0.859   8.749  -0.133 -0.1592 -0.1633  0.8227
   12MOL0     O 1533   0.981   9.094  -0.057 -0.1689 -0.2076  0.1707
   12MOL0     C 1534   1.288   8.940   0.034 -0.0737 -0.2090 -0.7708
   12MOL0     C 1535   1.425   8.962   0.031  0.6477  0.7322  0.8442
   12MOL0     N 1536   2.183   9.341  -0.276 -0.2575  0.8974 -0.2849
   12MOL0     N 1537   2.257   9.442  -0.291  0.0885 -0.0341 -0.1142
   12MOL0     C 1538   3.076   9.571   0.473 -0.7883 -0.5794  0.4158
   12MOL0     C 1539   3.205   9.587   0.439 -0.3556  0.4151 -0.9126
   12MOL0     C 1540   3.634   9.429   0.289  0.1459 -0.1366 -0.3626
   12MOL0     C 1541   3.698   9.483   0.405 -0.5716  1.1418 -0.7084
   12MOL0     C 1542   3.836   9.462   0.408  0.5202  0.6701 -0.4356
   12MOL0     C 1543   3.919   9.413   0.306 -0.0467 -0.5856 -0.5104
   12MOL0     O 1544   4.055   9.396   0.298 -0.1694 -0.2836  0.5561
   12MOL0     C 1545   4.129   9.388   0.426  0.2642  0.3372  0.0958
   12MOL0     C 1546   4.277   9.356   0.386 -0.5325  0.2510 -0.1240
   12MOL0     C 1547   4.329   9.469   0.296 -0.3378 -0.5968 -0.1936
   12MOL0     C 1548   4.476   9.453   0.254  0.1624 -0.1057  0.0781
   12MOL0     C 1549   4.486   9.354   0.147  0.0080 -0.3045 -0.8336
   12MOL0     C 1550   4.492   9.268   0.066 -0.0947 -0.0633  0.3412
   12MOL0     C 1551   3.851   9.375   0.189 -0.3483 -0.5806 -0.6325
   12MOL0     C 1552   3.716   9.376   0.187  0.8123 -0.0644  0.6570
   12MOL0     H 1553   3.283   9.267   0.380 -0.8506  0.2374 -1.3248
   12MOL0     H 1554   3.054   9.244   0.431  1.7007 -0.2296 -1.5262
   12MOL0     H 1555   2.816   9.327   0.341 -1.4723  1.9983 -1.1743
   12MOL0     H 1556   2.806   9.257   0.503 -0.9289  0.8996 -0.9665
   12MOL0     H 1557   2.583   9.318   0.442 -1.2716  0.3286 -0.6558
   12MOL0     H 1558   2.635   9.446   0.557 -2.4442  0.0800  0.4206
   12MOL0     H 1559   2.500   9.511   0.354  0.8656  1.1837 -0.5357
   12MOL0     H 1560   2.645   9.610   0.398  1.3649 -0.6562  0.7017
   12MOL0     H 1561   2.757   9.505   0.192 -0.2137 -0.8339 -1.8371
   12MOL0     H 1562   2.645   9.374   0.196 -0.4831 -1.2306  2.2139
   12MOL0     H 1563   2.482   9.591   0.126  1.2341  4.3989 -2.6480
   12MOL0     H 1564   2.637   9.657   0.077  0.5604 -0.3819 -2.0201
   12MOL0     H 1565   2.666   9.469  -0.076 -0.7897 -1.6102 -0.8564
   12MOL0     H 1566   2.503   9.416  -0.033  2.1592 -1.2709 -1.8479
   12MOL0     H 1567   2.577   9.690  -0.148  0.0459 -0.4049 -1.6033
   12MOL0     H 1568   2.527   9.559  -0.253 -1.8672 -0.8200 -0.0982
   12MOL0     H 1569   2.340   9.691  -0.205  1.2177  0.8605 -0.5800
   12MOL0     H 1570   2.323   9.649  -0.045 -0.3129 -1.9208  0.5892
   12MOL0     H 1571   2.229   9.419   0.040 -3.9416 -2.1883  0.3590
   12MOL0     H 1572   2.047   9.158  -0.181 -1.7542  0.7823  0.5505
   12MOL0     H 1573   2.093   9.151  -0.007 -1.2657 -0.1331  1.4586
   12MOL0     H 1574   1.888   9.327  -0.162  0.9493 -1.2297 -0.1760
   12MOL0     H 1575   1.911   9.355   0.005 -1.0272  0.7485 -1.3564
   12MOL0     H 1576   1.865   9.131   0.057 -0.7600  3.3433  0.5687
   12MOL0     H 1577   1.836   9.081  -0.118 -1.3724 -0.4722  0.0141
   12MOL0     H 1578   1.646   9.255  -0.120  1.2624 -1.5316 -2.0013
   12MOL0     H 1579   1.668   9.278   0.057 -2.1440  1.6561 -1.5283
   12MOL0     H 1580   1.436   9.284  -0.016  0.4955 -0.9014 -0.4816
   12MOL0     H 1581   1.239   9.381   0.003 -1.8891  2.8395  0.6144
   12MOL0     H 1582   1.146   9.292  -0.135  0.6261 -1.9804  0.1942
   12MOL0     H 1583   1.085   9.297   0.031  0.0224 -1.1329 -0.2807
   12MOL0     H 1584   0.798   8.980   0.102  1.2733 -0.3704 -0.1732
   12MOL0     H 1585   0.551   8.911   0.045  1.7165 -1.6802  2.1087
   12MOL0     H 1586   0.497   8.644  -0.325  0.7940 -0.7452 -0.1209
   12MOL0     H 1587   0.484   8.563  -0.168  0.1393  0.0083 -1.4331
   12MOL0     H 1588   0.272   8.565  -0.310 -1.6824  2.8548 -4.0736
   12MOL0     H 1589   0.257   8.649  -0.154  1.2853 -1.4079  0.7648
   12MOL0     H 1590   0.280   8.756  -0.437 -2.9014 -2.7302 -0.8205
   12MOL0     H 1591   0.304   8.862  -0.306  2.9391 -1.2174 -3.1532
   12MOL0     H 1592   0.051   8.691  -0.358 -0.0478 -0.0469  2.1056
   12MOL0     H 1593   0.069   8.795  -0.226 -2.4289 -0.3871 -0.1423
   12MOL0     H 1594   0.059   8.897  -0.517  1.0996 -3.0811  0.0992
   12MOL0     H 1595   0.077   9.004  -0.380 -1.3510  0.3008 -0.5144
   12MOL0     H 1596  -0.158   8.898  -0.308  0.1273 -2.4599 -0.4344
   12MOL0     H 1597  -0.155   9.008  -0.444 -2.7051 -0.7825 -0.2255
   12MOL0     H 1598  -0.173   8.700  -0.472  0.2190 -1.0198 -1.6211
   12MOL0     H 1599  -0.148   8.805  -0.603  0.5949  0.2666 -0.3011
   12MOL0     H 1600  -0.385   8.851  -0.420 -2.0209  0.5277 -1.6257
   12MOL0     H 1601  -0.386   8.743  -0.560 -1.0620 -0.3588 -1.3432
   12MOL0     H 1602   0.725   8.669  -0.269  0.4274  0.8017 -0.6726
   12MOL0     H 1603   0.946   8.704  -0.178  1.7482 -0.1151  4.1262
   12MOL0     H 1604   1.255   8.837   0.027  1.1711 -0.9051  2.0037
   12MOL0     H 1605   1.500   8.891   0.064  1.5668  1.2218 -0.1499
   12MOL0     H 1606   3.031   9.666   0.499  2.0463  1.4200 -1.4646
   12MOL0     H 1607   3.259   9.680   0.449 -2.0192  1.3245  0.2445
   12MOL0     H 1608   3.643   9.510   0.494  1.6344  1.7725  0.5554
   12MOL0     H 1609   3.885   9.486   0.501  1.1740 -0.7995 -0.3654
   12MOL0     H 1610   4.120   9.477   0.490  1.0384 -0.4018  1.2692
   12MOL0     H 1611   4.091   9.306   0.488 -2.1404 -1.5418 -3.5151
   12MOL0     H 1612   4.292   9.259   0.338 -0.3501  0.1712  0.0868
   12MOL0     H 1613   4.333   9.359   0.480 -2.1323  1.7197  0.8388
   12MOL0     H 1614   4.308   9.554   0.361 -2.4760 -2.0110  1.0953
   12MOL0     H 1615   4.274   9.484   0.202 -0.1487 -0.8747 -0.3518
   12MOL0     H 1616   4.545   9.434   0.336  0.0016 -0.4296  0.1416
   12MOL0     H 1617   4.496   9.554   0.217  1.1093  0.3417  1.7440
   12MOL0     H 1618   4.487   9.192  -0.009  1.1409  0.7771 -0.6336
   12MOL0     H 1619   3.901   9.341   0.099 -0.3542  0.3435 -0.9962
   12MOL0     H 1620   3.679   9.353   0.087  2.1225 -1.2286  0.4099
   13MOL0     O 1621   9.610   4.058   5.873  0.0064  0.0154  0.2501
   13MOL0     C 1622   9.673   3.961   5.862 -0.0273 -0.0987 -0.5662
   13MOL0     O 1623   9.718   3.899   5.749 -0.6560  0.2077 -0.2357
   13MOL0     C 1624   9.678   3.922   5.620 -0.4480  0.2802 -0.5098
   13MOL0     C 1625   9.695   3.821   5.532  0.2206 -0.3426  1.0850
   13MOL0     C 1626   9.630   3.826   5.404  0.5194  1.0228  0.0648
   13MOL0     C 1627   9.560   3.942   5.366  0.1020 -0.1122  0.4125
   13MOL0     O 1628   9.498   3.933   5.244  0.0951  0.7733  0.3469
   13MOL0     C 1629   9.478   4.051   5.168 -0.3661 -0.1407  0.0598
   13MOL0     C 1630   9.378   4.001   5.061 -0.4116 -0.2823 -0.9192
   13MOL0     C 1631   9.449   3.916   4.956  0.2547  0.4537 -0.5700
   13MOL0     C 1632   9.339   3.900   4.848  0.6283  0.4228  0.2036
   13MOL0     C 1633   9.368   3.808   4.735  0.3368  0.1560  0.7401
   13MOL0     C 1634   9.513   3.815   4.682 -0.2046 -0.2851  0.2667
   13MOL0     C 1635   9.514   3.740   4.543 -0.4266  0.4225 -0.3634
   13MOL0     C 1636   9.492   3.590   4.563 -0.0117  0.5958  0.5756
   13MOL0     N 1637   9.490   3.529   4.430 -1.6197  0.5258  0.2984
   13MOL0     C 1638   9.575   3.420   4.410  1.1142 -0.6552  0.0555
   13MOL0     C 1639   9.510   3.344   4.321  0.7995  0.6650 -0.3487
   13MOL0     C 1640   9.537   3.207   4.279 -0.3166  0.8196 -0.4096
   13MOL0     C 1641   9.429   3.143   4.194 -0.2116  0.1615 -0.4758
   13MOL0     C 1642   9.469   3.000   4.148 -0.0130  0.8851  0.3592
   13MOL0     C 1643   9.352   2.918   4.080 -0.5050  0.3793  0.8848
   13MOL0     O 1644   9.242   2.925   4.173  0.1979 -0.2063 -0.1298
   13MOL0     C 1645   9.112   2.965   4.138 -0.4630 -0.6002 -1.0309
   13MOL0     C 1646   9.049   2.951   4.010  0.2064 -0.2141 -0.5831
   13MOL0     C 1647   8.920   3.003   3.991 -0.5315  0.1910 -0.1198
   13MOL0     C 1648   8.862   2.979   3.854  0.0253  0.3474 -0.0157
   13MOL0     C 1649   8.847   3.065   4.093 -0.4610  0.1260  0.5664
   13MOL0     C 1650   8.712   3.123   4.074  1.0939 -0.0971 -0.1478
   13MOL0     O 1651   8.697   3.202   3.967 -0.9065  0.0850 -0.4504
   13MOL0     C 1652   8.573   3.242   3.928 -0.1944 -0.7838 -0.0455
   13MOL0     C 1653   8.527   3.187   3.808  0.1809  0.3182  0.2092
   13MOL0     C 1654   8.403   3.233   3.757 -0.0485 -0.0314 -0.5414
   13MOL0     C 1655   8.322   3.329   3.819  0.3921 -0.7266  0.2760
   13MOL0     O 1656   8.200   3.357   3.769  0.0460  0.4839  0.0734
   13MOL0     C 1657   8.097   3.419   3.859 -0.3420 -0.9086  0.6482
   13MOL0     C 1658   7.966   3.428   3.785  0.5025  0.3676 -0.3827
   13MOL0     C 1659   7.873   3.533   3.851 -0.1451  0.3830  0.6752
   13MOL0     C 1660   7.737   3.529   3.792  0.1937 -0.2725 -0.2993
   13MOL0     C 1661   7.657   3.651   3.837 -0.7553 -1.1163  0.1306
   13MOL0     C 1662   7.513   3.662   3.800  0.2482  1.3784  0.1509
   13MOL0     C 1663   7.450   3.783   3.870 -0.6382 -0.3591  0.5665
   13MOL0     C 1664   7.424   3.905   3.781  0.4675 -0.1682  0.0084
   13MOL0    Cl 1665   7.314   3.852   3.653  0.2558 -0.1690 -0.1626
   13MOL0     C 1666   8.376   3.389   3.935  0.7641  0.2633 -0.0672
   13MOL0     C 1667   8.503   3.350   3.987 -0.5923  0.2841  0.4963
   13MOL0     O 1668   8.621   3.099   4.163  0.0771 -0.3361  0.2570
   13MOL0     C 1669   8.909   3.063   4.215  0.3287  0.4363 -0.3758
   13MOL0     C 1670   9.039   3.012   4.245 -0.0100 -0.4274 -0.9037
   13MOL0     N 1671   9.402   3.410   4.275 -0.1655 -0.2883  0.6204
   13MOL0     N 1672   9.390   3.525   4.335 -0.0694  0.2667 -0.6635
   13MOL0     C 1673   9.565   4.050   5.449 -0.5140 -0.7573 -0.0128
   13MOL0     C 1674   9.616   4.040   5.579  0.2416  0.0543  0.0141
   13MOL0     C 1675   9.729   3.914   5.986 -0.5972 -0.9900  0.0087
   13MOL0     C 1676   9.827   3.813   5.980  0.5271  0.2026 -0.4185
   13MOL0     C 1677   9.876   3.758   6.096  0.1067  0.2826  0.5088
   13MOL0     C 1678   9.857   3.821   6.222  1.7299 -0.4847  0.5794
   13MOL0     O 1679   9.909   3.774   6.343  0.5238  0.4920 -0.2480
   13MOL0     C 1680   9.985   3.861   6.438 -0.4818 -0.8619  0.0696
   13MOL0     C 1681  10.132   3.885   6.382 -0.0622  0.0615  0.1764
   13MOL0     C 1682  10.214   3.757   6.365 -0.0947  0.6973 -0.4043
   13MOL0     C 1683  10.368   3.770   6.324 -0.5265 -0.7940  0.0160
   13MOL0     C 1684  10.452   3.849   6.417 -0.5729  0.2360  0.8769
   13MOL0     C 1685  10.526   3.907   6.500  0.5361 -0.8109 -0.2829
   13MOL0     C 1686   9.765   3.921   6.235 -0.2572 -0.2875  0.6208
   13MOL0     C 1687   9.689   3.963   6.116 -1.0086  0.4029 -0.4592
   13MOL0     H 1688   9.743   3.729   5.565 -0.6760 -0.2648  2.7121
   13MOL0     H 1689   9.628   3.741   5.338 -4.1845 -0.0729  1.1874
   13MOL0     H 1690   9.442   4.140   5.220 -1.0600  0.2408 -1.0482
   13MOL0     H 1691   9.575   4.069   5.120 -0.0767  0.5263  0.8640
   13MOL0     H 1692   9.295   3.950   5.110  0.7764 -0.4680  0.9838
   13MOL0     H 1693   9.340   4.091   5.012  0.4351  1.8262  2.0408
   13MOL0     H 1694   9.540   3.961   4.916 -1.1196  1.9411 -2.1916
   13MOL0     H 1695   9.465   3.816   4.997 -0.6249 -0.5377 -2.5050
   13MOL0     H 1696   9.244   3.866   4.891  0.7627  2.0039  1.9170
   13MOL0     H 1697   9.320   4.001   4.809 -0.4980 -0.2326 -1.0150
   13MOL0     H 1698   9.342   3.709   4.774  1.5138  0.0766  1.3645
   13MOL0     H 1699   9.294   3.840   4.661 -1.2143  1.8881  2.9334
   13MOL0     H 1700   9.540   3.919   4.666 -1.9417  0.1143 -0.2752
   13MOL0     H 1701   9.577   3.762   4.753 -2.1198 -1.3843  1.2795
   13MOL0     H 1702   9.438   3.790   4.484  1.6445  2.0369 -1.8117
   13MOL0     H 1703   9.610   3.767   4.499  0.2977 -2.2639 -0.6484
   13MOL0     H 1704   9.398   3.561   4.611 -1.4618 -1.7869 -3.2267
   13MOL0     H 1705   9.572   3.541   4.620  0.5775  2.2370  1.1975
   13MOL0     H 1706   9.664   3.404   4.470  0.9075 -0.9120  0.3026
   13MOL0     H 1707   9.622   3.188   4.212 -0.4595 -0.2444 -0.3126
   13MOL0     H 1708   9.535   3.141   4.367  1.3139  0.3626 -0.6671
   13MOL0     H 1709   9.417   3.212   4.110 -2.1398  2.3716  1.4771
   13MOL0     H 1710   9.332   3.137   4.243  0.4509 -0.4917  0.8165
   13MOL0     H 1711   9.478   2.939   4.239 -1.2895 -1.5235 -1.0615
   13MOL0     H 1712   9.563   3.004   4.092 -0.4855  1.8458 -0.3921
   13MOL0     H 1713   9.379   2.812   4.070  0.6704  0.6425  1.1162
   13MOL0     H 1714   9.329   2.959   3.982  1.3222  0.2667  0.3773
   13MOL0     H 1715   9.111   2.906   3.933  2.4197 -1.3046  1.6482
   13MOL0     H 1716   8.754   2.964   3.845  0.0367 -1.4933  1.9428
   13MOL0     H 1717   8.894   3.062   3.792  0.4351  0.4009  0.2609
   13MOL0     H 1718   8.912   2.896   3.804  0.4284  1.7487 -2.0400
   13MOL0     H 1719   8.585   3.118   3.748  0.5928  0.5542  0.3342
   13MOL0     H 1720   8.361   3.179   3.672 -2.5029 -1.2434  1.2940
   13MOL0     H 1721   8.086   3.356   3.948  0.4037  1.0357  2.1710
   13MOL0     H 1722   8.122   3.524   3.874 -2.0203 -0.3737 -0.0477
   13MOL0     H 1723   7.977   3.444   3.678  2.2562 -1.2476 -0.4923
   13MOL0     H 1724   7.930   3.325   3.787  1.2436  0.0866 -0.9844
   13MOL0     H 1725   7.910   3.635   3.833 -1.5395  1.0481  1.3806
   13MOL0     H 1726   7.868   3.520   3.959 -0.3495 -1.2366  0.4895
   13MOL0     H 1727   7.733   3.529   3.682 -0.1030 -1.9336 -0.3111
   13MOL0     H 1728   7.685   3.435   3.814 -3.8285  1.9343  0.6757
   13MOL0     H 1729   7.711   3.739   3.801 -2.5654 -0.4472 -1.0514
   13MOL0     H 1730   7.668   3.643   3.946 -0.5905 -1.7454  0.0730
   13MOL0     H 1731   7.512   3.669   3.691  2.2663 -3.1579 -0.4011
   13MOL0     H 1732   7.457   3.569   3.817  0.8571  0.6970 -1.3510
   13MOL0     H 1733   7.516   3.813   3.953 -0.7315 -0.8833  0.8313
   13MOL0     H 1734   7.356   3.755   3.918 -0.7446 -1.6199 -0.3325
   13MOL0     H 1735   7.520   3.941   3.742  1.2692 -2.1533  0.0559
   13MOL0     H 1736   7.378   3.979   3.847  1.1049 -0.9705  1.3839
   13MOL0     H 1737   8.330   3.474   3.984 -1.2798 -0.5711 -0.4524
   13MOL0     H 1738   8.550   3.397   4.073 -0.5081 -2.1063  1.8512
   13MOL0     H 1739   8.848   3.099   4.297 -0.4387  0.1122 -0.7907
   13MOL0     H 1740   9.087   3.020   4.342  0.4038 -2.6049 -0.8680
   13MOL0     H 1741   9.516   4.140   5.415 -2.3803 -1.5262  0.4809
   13MOL0     H 1742   9.608   4.130   5.640 -0.6717 -0.6841  1.0073
   13MOL0     H 1743   9.859   3.762   5.889 -0.9980 -0.8310 -0.4217
   13MOL0     H 1744   9.936   3.667   6.098 -0.2902 -0.1180 -2.4000
   13MOL0     H 1745   9.937   3.959   6.444  0.1825 -0.4963 -0.4491
   13MOL0     H 1746   9.998   3.826   6.540  0.1862 -2.0116 -0.3899
   13MOL0     H 1747  10.178   3.943   6.463  0.1532 -0.5481  0.4984
   13MOL0     H 1748  10.140   3.953   6.297 -1.5361  0.8460  0.6280
   13MOL0     H 1749  10.155   3.701   6.293  0.7535  1.9821 -2.1707
   13MOL0     H 1750  10.208   3.709   6.463  1.4192  0.6988 -0.2840
   13MOL0     H 1751  10.366   3.824   6.229  0.8525  1.1742  1.0154
   13MOL0     H 1752  10.411   3.670   6.326  0.9135 -0.1997 -0.2811
   13MOL0     H 1753  10.583   3.955   6.577  0.6736 -1.8075  0.2421
   13MOL0     H 1754   9.734   3.967   6.328 -0.7026  1.4486 -0.3460
   13MOL0     H 1755   9.617   4.043   6.132 -1.8179 -0.9025  3.5776
   14MOL0     O 1756   2.238   5.214   4.663 -0.7573 -0.2125  0.0577
   14MOL0     C 1757   2.241   5.244   4.783  0.2827  0.9346  0.5886
   14MOL0     O 1758   2.332   5.321   4.854  0.5114 -0.0308 -0.2673
   14MOL0     C 1759   2.433   5.394   4.802 -0.4725  0.4538  0.4851
   14MOL0     C 1760   2.541   5.327   4.743 -0.8440  0.0487 -0.1180
   14MOL0     C 1761   2.658   5.400   4.685  0.1444  0.5260  0.5537
   14MOL0     C 1762   2.661   5.535   4.684  0.3455  0.4599 -0.1818
   14MOL0     O 1763   2.763   5.612   4.632 -0.2187  0.1008  0.2866
   14MOL0     C 1764   2.889   5.551   4.618  0.1694  0.8385  0.3398
   14MOL0     C 1765   2.996   5.642   4.567 -0.4045 -0.5732 -0.6274
   14MOL0     C 1766   3.126   5.554   4.563 -0.1437  0.1806  0.0033
   14MOL0     C 1767   3.204   5.544   4.693  0.6924  0.4609  0.0248
   14MOL0     C 1768   3.320   5.450   4.684  0.8969 -0.3781 -0.2560
   14MOL0     C 1769   3.398   5.438   4.819  0.1471  0.2799 -0.5830
   14MOL0     C 1770   3.496   5.325   4.824 -0.3796 -0.5133 -0.4071
   14MOL0     C 1771   3.646   5.379   4.832 -0.7391 -0.5539  0.2096
   14MOL0     N 1772   3.730   5.260   4.856 -0.2165  0.5691 -0.3221
   14MOL0     C 1773   3.711   5.140   4.801 -0.7958 -0.3554  0.3457
   14MOL0     C 1774   3.812   5.062   4.847  0.0284  0.5722  0.2747
   14MOL0     C 1775   3.834   4.915   4.817  1.5915  0.3998  0.3720
   14MOL0     C 1776   3.971   4.876   4.781 -0.2931 -0.1285 -0.1574
   14MOL0     C 1777   4.074   4.885   4.894  0.6062  0.8669  0.2177
   14MOL0     C 1778   4.209   4.821   4.863  0.3160 -0.3104  0.0320
   14MOL0     O 1779   4.256   4.891   4.747 -0.2179  0.3525 -0.1440
   14MOL0     C 1780   4.385   4.941   4.746 -0.0073 -0.4008 -0.6164
   14MOL0     C 1781   4.446   4.916   4.624 -0.3002 -0.1727 -0.1930
   14MOL0     C 1782   4.579   4.951   4.596  0.0351 -0.4240  0.0412
   14MOL0     C 1783   4.639   4.895   4.469  0.7414  0.0706 -0.6749
   14MOL0     C 1784   4.648   5.014   4.699 -0.1226  0.8835  0.3948
   14MOL0     C 1785   4.792   5.045   4.698 -0.7577 -0.2354 -0.6227
   14MOL0     O 1786   4.851   5.101   4.581 -0.2296  0.5701 -0.5242
   14MOL0     C 1787   4.983   5.143   4.583  0.7885  0.3312  0.3642
   14MOL0     C 1788   5.030   5.273   4.601  0.8387  0.3348 -0.1487
   14MOL0     C 1789   5.169   5.297   4.616 -0.1608 -0.4297  0.1780
   14MOL0     C 1790   5.254   5.191   4.612 -0.1608 -0.9907  0.5589
   14MOL0     O 1791   5.394   5.216   4.609  0.0681  0.5426 -0.1686
   14MOL0     C 1792   5.441   5.309   4.510 -0.1151  0.1651 -0.7795
   14MOL0     C 1793   5.544   5.405   4.563 -0.0218  0.2591 -0.5721
   14MOL0     C 1794   5.517   5.471   4.698 -1.1635 -0.4403 -0.4923
   14MOL0     C 1795   5.648   5.552   4.740  0.8596 -0.5082 -0.2758
   14MOL0     C 1796   5.618   5.643   4.864  0.4980  0.2669  0.0558
   14MOL0     C 1797   5.745   5.710   4.933  0.2348  0.3643  0.4536
   14MOL0     C 1798   5.814   5.785   4.820  0.6128 -0.0529  0.2234
   14MOL0     C 1799   5.929   5.872   4.887 -0.2330  0.0490  0.6026
   14MOL0    Cl 1800   6.007   5.973   4.758 -0.3482  0.1981  0.1647
   14MOL0     C 1801   5.204   5.062   4.602  0.1842 -0.2521  0.5164
   14MOL0     C 1802   5.068   5.041   4.578  0.0939 -0.5464 -0.7362
   14MOL0     O 1803   4.866   5.013   4.797  0.5956  0.2387  0.8791
   14MOL0     C 1804   4.581   5.039   4.820 -1.1457  0.5996  0.0478
   14MOL0     C 1805   4.452   5.003   4.850  0.4132 -0.1939  0.2608
   14MOL0     N 1806   3.898   5.136   4.921 -0.1499 -0.2149 -1.1116
   14MOL0     N 1807   3.845   5.260   4.929  0.0778  0.0238 -0.3575
   14MOL0     C 1808   2.547   5.604   4.746 -1.5942 -0.1788  0.2869
   14MOL0     C 1809   2.436   5.534   4.803  0.2539  0.3236 -0.1670
   14MOL0     C 1810   2.127   5.185   4.867 -0.6527 -0.0443  0.0819
   14MOL0     C 1811   2.030   5.108   4.808  0.0413  0.5002  0.2087
   14MOL0     C 1812   1.916   5.077   4.874 -0.1609 -0.1911 -0.9795
   14MOL0     C 1813   1.892   5.113   5.008  1.3689 -0.6969  0.6714
   14MOL0     O 1814   1.766   5.078   5.059  0.0259 -0.6833  0.0358
   14MOL0     C 1815   1.714   5.153   5.169  0.3196  0.1924 -0.4474
   14MOL0     C 1816   1.657   5.292   5.121 -1.0123 -0.6375  0.9675
   14MOL0     C 1817   1.768   5.405   5.115  0.1821 -0.7071 -0.0657
   14MOL0     C 1818   1.823   5.438   5.257  0.9129 -0.3186 -0.1523
   14MOL0     C 1819   1.722   5.520   5.330  0.0841  0.5359  0.3941
   14MOL0     C 1820   1.631   5.593   5.365  0.8006  0.4947 -0.0633
   14MOL0     C 1821   1.996   5.172   5.073 -1.5433  0.5709 -0.1759
   14MOL0     C 1822   2.112   5.210   4.998  0.3032 -0.0314 -0.2870
   14MOL0     H 1823   2.548   5.219   4.751 -0.1116  0.1732  1.2191
   14MOL0     H 1824   2.731   5.328   4.650 -0.5757 -0.3274  0.7979
   14MOL0     H 1825   2.915   5.497   4.710  2.9676 -0.4910 -1.0946
   14MOL0     H 1826   2.874   5.483   4.534 -2.4829  0.8138  0.7743
   14MOL0     H 1827   2.974   5.674   4.465  0.3550 -4.6206 -2.2438
   14MOL0     H 1828   3.010   5.727   4.634 -2.2394 -0.2812 -0.5655
   14MOL0     H 1829   3.093   5.453   4.536 -1.3009  0.3903  0.6025
   14MOL0     H 1830   3.199   5.587   4.488  0.0671  0.3999  0.3020
   14MOL0     H 1831   3.246   5.642   4.719  0.1478  0.6617  0.1622
   14MOL0     H 1832   3.134   5.527   4.775  0.4533  1.8458  0.1370
   14MOL0     H 1833   3.289   5.350   4.652 -2.8034 -0.0125  1.5949
   14MOL0     H 1834   3.403   5.477   4.618  0.6528 -0.7324 -0.7146
   14MOL0     H 1835   3.456   5.529   4.835 -0.1744  0.2204  1.1305
   14MOL0     H 1836   3.325   5.422   4.899  0.6412 -0.7302 -0.3290
   14MOL0     H 1837   3.474   5.261   4.910  0.2468 -0.9157 -0.5401
   14MOL0     H 1838   3.472   5.269   4.733 -5.4971  0.1214  0.2117
   14MOL0     H 1839   3.644   5.446   4.918 -2.4493 -1.7736  1.1744
   14MOL0     H 1840   3.675   5.434   4.742  1.1047 -0.7450  0.6402
   14MOL0     H 1841   3.630   5.110   4.735 -0.8740 -1.6866  1.0147
   14MOL0     H 1842   3.792   4.845   4.890  1.1972 -0.7751 -0.9306
   14MOL0     H 1843   3.760   4.900   4.738  1.0470 -2.2561  1.2869
   14MOL0     H 1844   4.011   4.941   4.703  1.8442 -1.2786 -0.1048
   14MOL0     H 1845   3.959   4.770   4.755  1.1225 -0.8572  1.8939
   14MOL0     H 1846   4.038   4.826   4.978  1.7402 -0.8061 -0.4202
   14MOL0     H 1847   4.092   4.989   4.922  4.1468  0.7492 -0.9978
   14MOL0     H 1848   4.199   4.714   4.842 -1.4317  0.2201 -2.1989
   14MOL0     H 1849   4.271   4.828   4.953 -2.3681  3.9977  1.8492
   14MOL0     H 1850   4.394   4.867   4.543 -0.2249  1.3269 -1.1979
   14MOL0     H 1851   4.579   4.816   4.423 -0.5707 -0.2635  1.4611
   14MOL0     H 1852   4.651   4.982   4.403  1.6845 -0.7800 -1.6768
   14MOL0     H 1853   4.738   4.851   4.486  1.0664  1.8721  2.9116
   14MOL0     H 1854   4.954   5.351   4.606  1.0567  0.5354  0.0708
   14MOL0     H 1855   5.202   5.395   4.649  0.4014 -1.0150  1.4280
   14MOL0     H 1856   5.469   5.242   4.427 -1.9662 -3.3469  1.2050
   14MOL0     H 1857   5.364   5.379   4.477  0.4712  0.7884 -0.8477
   14MOL0     H 1858   5.638   5.354   4.584  0.2339  1.2308  0.8235
   14MOL0     H 1859   5.551   5.490   4.495  0.0887  0.3888 -0.4010
   14MOL0     H 1860   5.482   5.392   4.765  0.4470 -0.1177  0.7716
   14MOL0     H 1861   5.441   5.549   4.686 -2.7613 -1.8306  0.2336
   14MOL0     H 1862   5.714   5.471   4.774 -0.5163 -2.1724 -1.3901
   14MOL0     H 1863   5.688   5.602   4.652 -0.7006  1.8361  0.2557
   14MOL0     H 1864   5.572   5.582   4.942  1.3923  2.7800  2.7472
   14MOL0     H 1865   5.548   5.722   4.834  0.2755  0.9814  2.2571
   14MOL0     H 1866   5.727   5.770   5.022  3.1175  2.3962 -0.2069
   14MOL0     H 1867   5.810   5.626   4.961  2.1323  1.1838 -1.2763
   14MOL0     H 1868   5.737   5.838   4.764 -0.0874 -1.5449 -0.2895
   14MOL0     H 1869   5.854   5.722   4.740 -1.4369  1.6824 -2.3329
   14MOL0     H 1870   5.999   5.799   4.930 -0.1809  0.3189  0.9756
   14MOL0     H 1871   5.887   5.926   4.972  0.6215 -0.5799  1.4478
   14MOL0     H 1872   5.274   4.979   4.597 -0.7851 -1.1944  1.9278
   14MOL0     H 1873   5.028   4.942   4.561 -1.3567  0.1534 -1.5626
   14MOL0     H 1874   4.636   5.085   4.902  1.4874 -1.0605 -0.6572
   14MOL0     H 1875   4.409   5.015   4.949 -1.2800  1.4030 -0.6241
   14MOL0     H 1876   2.561   5.712   4.753  3.9051 -0.6610  1.5983
   14MOL0     H 1877   2.356   5.592   4.848 -0.5717 -0.3608 -0.7318
   14MOL0     H 1878   2.038   5.083   4.703 -1.5554 -0.5314  0.2926
   14MOL0     H 1879   1.846   5.021   4.812 -0.3714 -0.1956 -0.7417
   14MOL0     H 1880   1.624   5.097   5.197 -1.5790  1.3994 -3.5512
   14MOL0     H 1881   1.780   5.157   5.256  2.3644  3.8820 -1.9264
   14MOL0     H 1882   1.577   5.339   5.179 -0.0493  1.0410  1.0106
   14MOL0     H 1883   1.618   5.281   5.020 -1.0306 -3.4348  1.2208
   14MOL0     H 1884   1.732   5.498   5.070  0.6452 -0.4536  0.0824
   14MOL0     H 1885   1.856   5.379   5.056  1.6527 -1.2748  2.2850
   14MOL0     H 1886   1.903   5.512   5.250 -0.3768  1.5306  2.5510
   14MOL0     H 1887   1.855   5.351   5.315  0.3108 -0.2864  0.2345
   14MOL0     H 1888   1.544   5.654   5.380 -0.6723 -1.7691  1.2360
   14MOL0     H 1889   1.998   5.174   5.181  3.2660 -1.6796  0.0122
   14MOL0     H 1890   2.197   5.250   5.051  2.8403 -1.6974 -2.8297
   15MOL0     O 1891   6.566   4.639   2.471  0.5240 -0.0016  0.4063
   15MOL0     C 1892   6.601   4.760   2.487 -0.7352  0.4136 -0.0927
   15MOL0     O 1893   6.517   4.865   2.474 -0.4785  0.1400 -0.9662
   15MOL0     C 1894   6.391   4.842   2.422 -0.2891 -0.2086 -0.4128
   15MOL0     C 1895   6.274   4.894   2.485 -0.7335  0.9374 -0.3444
   15MOL0     C 1896   6.142   4.861   2.436  0.6801 -0.2813 -0.1707
   15MOL0     C 1897   6.130   4.806   2.312  0.1028  0.6581  0.0068
   15MOL0     O 1898   6.007   4.778   2.266 -0.0793  0.2010  0.1788
   15MOL0     C 1899   5.886   4.831   2.327  0.4452 -0.1349  0.7020
   15MOL0     C 1900   5.764   4.803   2.235  0.1215 -0.0553  0.4394
   15MOL0     C 1901   5.628   4.807   2.300  0.4624  0.1265 -0.3667
   15MOL0     C 1902   5.536   4.743   2.193 -0.8431  0.1661  0.3263
   15MOL0     C 1903   5.409   4.691   2.259  0.9114 -0.2764 -1.2641
   15MOL0     C 1904   5.326   4.635   2.157  0.3513 -0.6475  0.2151
   15MOL0     C 1905   5.184   4.580   2.209 -0.7336 -0.4208  0.3147
   15MOL0     C 1906   5.112   4.481   2.107  0.0163 -1.2327 -0.3441
   15MOL0     N 1907   4.981   4.451   2.154 -0.1959 -0.6783  0.3710
   15MOL0     C 1908   4.917   4.325   2.144  0.6755  0.6240  0.4606
   15MOL0     C 1909   4.798   4.339   2.206 -0.1302 -0.1935 -0.2018
   15MOL0     C 1910   4.693   4.235   2.234 -0.1426  0.2853  0.2761
   15MOL0     C 1911   4.590   4.278   2.345  0.2375  0.8398 -0.0278
   15MOL0     C 1912   4.450   4.203   2.332  0.0725 -0.0750 -0.1580
   15MOL0     C 1913   4.357   4.247   2.444  0.6918  0.2455  0.1831
   15MOL0     O 1914   4.289   4.125   2.489 -0.2437 -0.2213  0.3546
   15MOL0     C 1915   4.172   4.148   2.566 -0.8846  0.0465  0.7749
   15MOL0     C 1916   4.127   4.270   2.625 -0.3828  0.6700  0.6344
   15MOL0     C 1917   4.013   4.256   2.709  0.1653  0.1232  0.4508
   15MOL0     C 1918   3.967   4.377   2.779  0.1020  0.0707  0.3767
   15MOL0     C 1919   3.944   4.130   2.738 -0.7385  0.1126 -0.3450
   15MOL0     C 1920   3.846   4.105   2.836 -0.7662 -0.2139  0.2922
   15MOL0     O 1921   3.816   3.972   2.859 -0.1305  0.2089 -0.5101
   15MOL0     C 1922   3.713   3.931   2.936  0.5399  0.6336  0.4667
   15MOL0     C 1923   3.594   3.925   2.873 -0.7989 -0.3584 -0.8706
   15MOL0     C 1924   3.479   3.891   2.943  0.2086  0.5635 -0.1916
   15MOL0     C 1925   3.491   3.847   3.074  1.0626  0.2341 -0.0767
   15MOL0     O 1926   3.386   3.818   3.148  0.5654  0.2990 -0.4582
   15MOL0     C 1927   3.293   3.713   3.116  0.6005 -0.9264  0.2847
   15MOL0     C 1928   3.171   3.696   3.207  0.2674 -0.3241  0.4471
   15MOL0     C 1929   3.077   3.815   3.177  1.1648  0.2334  0.1045
   15MOL0     C 1930   2.942   3.790   3.248 -0.5160 -0.8656 -0.3374
   15MOL0     C 1931   2.943   3.784   3.411 -0.0412  0.6457  0.1012
   15MOL0     C 1932   2.808   3.819   3.460 -0.5917  0.0480 -0.2167
   15MOL0     C 1933   2.718   3.692   3.456  0.2354 -0.5279 -0.4418
   15MOL0     C 1934   2.572   3.713   3.514 -0.0137 -0.4303  0.1515
   15MOL0    Cl 1935   2.567   3.733   3.692 -0.5555 -0.2195 -0.2588
   15MOL0     C 1936   3.618   3.851   3.142 -0.4162  0.4127  0.4185
   15MOL0     C 1937   3.729   3.901   3.070  0.4218  0.2778 -1.1502
   15MOL0     O 1938   3.777   4.193   2.883  0.5730  0.0147  0.3329
   15MOL0     C 1939   3.983   4.026   2.656  0.7896 -1.0214 -0.4545
   15MOL0     C 1940   4.093   4.036   2.576  0.2096 -0.7058 -0.5636
   15MOL0     N 1941   4.791   4.480   2.246  0.4889  0.0865  0.1155
   15MOL0     N 1942   4.900   4.542   2.224 -0.5720 -0.4215 -0.1000
   15MOL0     C 1943   6.241   4.756   2.253 -0.2285  0.1984  1.5914
   15MOL0     C 1944   6.370   4.779   2.300 -0.2286 -0.4659  0.8692
   15MOL0     C 1945   6.739   4.778   2.547 -0.3990  0.6239  0.2270
   15MOL0     C 1946   6.824   4.668   2.553 -0.1014  0.1817  0.0217
   15MOL0     C 1947   6.957   4.682   2.589 -0.0030  0.1073  0.4562
   15MOL0     C 1948   7.002   4.808   2.631 -0.7130 -0.8768 -0.3105
   15MOL0     O 1949   7.116   4.853   2.691  0.0707 -0.6208  0.1996
   15MOL0     C 1950   7.215   4.752   2.722 -0.7040 -1.5094 -0.7399
   15MOL0     C 1951   7.337   4.813   2.807  0.2028 -0.0491  0.7379
   15MOL0     C 1952   7.427   4.713   2.883  0.0074  0.4496 -0.5737
   15MOL0     C 1953   7.566   4.773   2.907 -0.4224  0.4814 -0.0684
   15MOL0     C 1954   7.659   4.679   2.969  0.9154  0.7163 -0.4193
   15MOL0     C 1955   7.741   4.596   3.015 -0.1716 -0.2800  0.2795
   15MOL0     C 1956   6.915   4.921   2.632  0.5564  0.5248  0.6339
   15MOL0     C 1957   6.782   4.900   2.594  0.1222 -0.5357  0.4862
   15MOL0     H 1958   6.277   4.935   2.586  0.7238 -1.0488  0.4723
   15MOL0     H 1959   6.056   4.868   2.501  1.0419 -0.1142  0.2954
   15MOL0     H 1960   5.870   4.791   2.428 -1.2060 -0.5836  0.2983
   15MOL0     H 1961   5.888   4.941   2.327 -1.0853  0.0205 -2.8664
   15MOL0     H 1962   5.767   4.881   2.158  1.1182 -0.7751 -0.2750
   15MOL0     H 1963   5.780   4.705   2.190 -0.8935 -1.5538  3.1332
   15MOL0     H 1964   5.644   4.747   2.389  1.9674  3.3992  1.7692
   15MOL0     H 1965   5.599   4.907   2.334  1.8321  0.9555 -1.4938
   15MOL0     H 1966   5.518   4.816   2.113  3.9552 -0.0103 -1.1876
   15MOL0     H 1967   5.581   4.663   2.134 -3.2536  1.1650 -3.2138
   15MOL0     H 1968   5.435   4.603   2.318  1.4064  1.8323  1.9353
   15MOL0     H 1969   5.356   4.765   2.320 -0.1279  0.0047 -2.4489
   15MOL0     H 1970   5.316   4.705   2.073 -0.1758 -3.5127 -2.2968
   15MOL0     H 1971   5.379   4.552   2.109  0.2704  0.2333 -1.4839
   15MOL0     H 1972   5.204   4.536   2.307  1.1219  3.6757  1.9943
   15MOL0     H 1973   5.128   4.672   2.227 -0.3623  0.5492 -2.8425
   15MOL0     H 1974   5.174   4.392   2.093 -2.6433 -3.3185  0.2514
   15MOL0     H 1975   5.100   4.538   2.014  4.0770 -1.0109 -0.9150
   15MOL0     H 1976   4.949   4.231   2.100 -0.6580 -2.1363  4.8214
   15MOL0     H 1977   4.627   4.219   2.148  0.4718  0.4108 -0.2252
   15MOL0     H 1978   4.735   4.145   2.278 -1.8840 -0.7344 -0.0476
   15MOL0     H 1979   4.566   4.381   2.320 -1.9021  0.2042 -0.8514
   15MOL0     H 1980   4.630   4.273   2.447 -1.4371  2.1876  0.7413
   15MOL0     H 1981   4.470   4.096   2.342  0.0203 -0.2475 -1.6759
   15MOL0     H 1982   4.405   4.216   2.233 -0.0417 -0.2643 -0.1304
   15MOL0     H 1983   4.291   4.319   2.396 -1.6832 -2.2630 -0.5102
   15MOL0     H 1984   4.395   4.286   2.539 -0.0286  2.9672 -0.5487
   15MOL0     H 1985   4.186   4.361   2.631  0.2208  0.4807 -1.6805
   15MOL0     H 1986   4.036   4.460   2.761 -0.6920  0.3796 -1.4613
   15MOL0     H 1987   3.870   4.398   2.735  0.9921 -0.3315 -1.8909
   15MOL0     H 1988   3.965   4.361   2.888 -4.8996  0.7877  0.6121
   15MOL0     H 1989   3.580   3.942   2.767  2.8079 -0.9514 -1.5870
   15MOL0     H 1990   3.384   3.897   2.890 -0.4623 -3.2136  0.3320
   15MOL0     H 1991   3.261   3.726   3.012 -3.7393 -0.9941  1.4059
   15MOL0     H 1992   3.355   3.623   3.115  1.2593 -0.6490  3.6627
   15MOL0     H 1993   3.123   3.599   3.187 -0.2881 -0.0914  0.6405
   15MOL0     H 1994   3.215   3.702   3.307  1.8231  1.6312 -0.2886
   15MOL0     H 1995   3.057   3.820   3.070 -0.1984  1.0599  0.3866
   15MOL0     H 1996   3.117   3.908   3.219 -1.0524  0.2140  2.4961
   15MOL0     H 1997   2.882   3.873   3.210  0.8681 -0.1855 -1.1107
   15MOL0     H 1998   2.900   3.702   3.198 -0.5444 -0.1285 -1.6518
   15MOL0     H 1999   3.012   3.856   3.456  2.1500 -1.1525 -0.1995
   15MOL0     H 2000   2.983   3.688   3.444  0.3922  0.0837 -1.9025
   15MOL0     H 2001   2.822   3.842   3.566  2.1269 -4.1276  0.5589
   15MOL0     H 2002   2.773   3.902   3.398 -0.0191 -0.9171 -1.8811
   15MOL0     H 2003   2.771   3.614   3.512 -0.9092 -1.2909 -0.3670
   15MOL0     H 2004   2.716   3.655   3.353 -1.2339 -0.8200 -0.3302
   15MOL0     H 2005   2.514   3.626   3.483  0.4669 -1.3413  1.6663
   15MOL0     H 2006   2.545   3.804   3.460  3.9998 -0.8587 -3.1238
   15MOL0     H 2007   3.624   3.818   3.246 -4.4845  0.5970  0.8639
   15MOL0     H 2008   3.828   3.920   3.110  0.7586  2.1665 -2.7409
   15MOL0     H 2009   3.929   3.932   2.653 -0.2626 -0.5262  1.4979
   15MOL0     H 2010   4.125   3.964   2.501  3.6030  3.5950 -3.7610
   15MOL0     H 2011   6.206   4.692   2.172  0.4384 -2.4686  3.2869
   15MOL0     H 2012   6.454   4.736   2.247  1.3045  0.9768  2.0091
   15MOL0     H 2013   6.786   4.568   2.536 -2.6095  0.8709  1.1591
   15MOL0     H 2014   7.023   4.596   2.583 -1.5433 -1.0545 -0.6056
   15MOL0     H 2015   7.172   4.671   2.781 -5.2238  0.8781 -0.3269
   15MOL0     H 2016   7.267   4.715   2.633  4.0444 -0.5195  1.2738
   15MOL0     H 2017   7.282   4.869   2.883 -2.4276 -1.9223  0.3598
   15MOL0     H 2018   7.402   4.871   2.741  1.8546 -0.4514  1.9621
   15MOL0     H 2019   7.443   4.616   2.834 -0.3020  0.0280  0.1472
   15MOL0     H 2020   7.377   4.696   2.978 -0.5307 -1.7694 -1.1919
   15MOL0     H 2021   7.553   4.859   2.973  0.4514 -0.1626  0.9853
   15MOL0     H 2022   7.619   4.799   2.815 -0.6639 -1.7755 -0.9107
   15MOL0     H 2023   7.810   4.536   3.070  0.9947 -1.5205 -2.3840
   15MOL0     H 2024   6.945   5.018   2.668 -0.0995  0.8863  0.2253
   15MOL0     H 2025   6.715   4.985   2.597  2.7142  1.8489 -2.2102
   16MOL0     O 2026   5.012  11.105   4.304  0.1265  0.4614 -0.0405
   16MOL0     C 2027   5.051  11.206   4.362 -1.2002  1.0233  0.9319
   16MOL0     O 2028   4.992  11.265   4.474  0.4748 -0.1184 -0.2171
   16MOL0     C 2029   4.862  11.230   4.518  0.5766  0.9602  0.0909
   16MOL0     C 2030   4.754  11.206   4.436  0.6151  0.2183 -0.0144
   16MOL0     C 2031   4.622  11.183   4.490 -0.1294  0.3798 -0.0236
   16MOL0     C 2032   4.601  11.173   4.630 -0.7899 -0.0782 -0.2487
   16MOL0     O 2033   4.477  11.161   4.690  0.0513 -0.2836  0.9127
   16MOL0     C 2034   4.361  11.133   4.611  0.2231 -0.2919  0.0758
   16MOL0     C 2035   4.230  11.122   4.700  1.0070  0.3233 -0.2568
   16MOL0     C 2036   4.224  10.982   4.770 -0.1302 -0.4283  0.0296
   16MOL0     C 2037   4.118  10.993   4.877  0.4917 -0.4266  0.1333
   16MOL0     C 2038   3.983  10.922   4.839  0.9447  0.5679  0.0985
   16MOL0     C 2039   3.876  10.937   4.957 -0.1477  0.4027 -0.3227
   16MOL0     C 2040   3.743  10.894   4.901  0.1504  0.7541  0.5298
   16MOL0     C 2041   3.626  10.941   4.991 -0.1452  0.0481 -1.2053
   16MOL0     N 2042   3.492  10.887   4.956 -0.6586 -0.3697 -0.5635
   16MOL0     C 2043   3.425  10.783   5.021 -0.3859 -0.5479  0.5866
   16MOL0     C 2044   3.322  10.752   4.938 -0.1991  0.5486 -0.3857
   16MOL0     C 2045   3.226  10.646   4.963  0.8108  0.9341 -0.6761
   16MOL0     C 2046   3.250  10.556   5.086  0.0758  0.1123 -0.0845
   16MOL0     C 2047   3.159  10.435   5.082  0.0402  0.8198  0.3042
   16MOL0     C 2048   3.189  10.341   5.190  0.4536 -0.2441  0.2245
   16MOL0     O 2049   3.252  10.221   5.134  0.5903 -0.2924  0.5967
   16MOL0     C 2050   3.387  10.237   5.116 -0.0487  0.2457  0.0802
   16MOL0     C 2051   3.433  10.245   4.983 -0.2883  0.3129  1.1675
   16MOL0     C 2052   3.567  10.279   4.952  0.2703 -0.4372 -0.3308
   16MOL0     C 2053   3.606  10.270   4.808 -0.6248 -0.4310 -0.4249
   16MOL0     C 2054   3.653  10.314   5.058 -0.1812 -0.1960  0.3382
   16MOL0     C 2055   3.791  10.369   5.024  0.3934  0.0214 -0.0833
   16MOL0     O 2056   3.870  10.372   5.126  0.2870 -0.3480  0.6946
   16MOL0     C 2057   3.993  10.438   5.128 -0.9692  0.5958  0.5845
   16MOL0     C 2058   4.009  10.565   5.072 -0.6196  0.2559 -0.8722
   16MOL0     C 2059   4.144  10.609   5.075 -0.3580 -0.2391 -0.3679
   16MOL0     C 2060   4.253  10.528   5.098 -0.2660  0.1391  0.7746
   16MOL0     O 2061   4.387  10.566   5.099 -0.3559  0.5180  0.0703
   16MOL0     C 2062   4.412  10.689   5.040  0.0218 -0.9243  0.0156
   16MOL0     C 2063   4.563  10.702   5.006 -0.5377  0.4195  0.2391
   16MOL0     C 2064   4.624  10.585   4.925  0.2526 -0.7900  0.6993
   16MOL0     C 2065   4.540  10.498   4.836 -0.2173  0.0823  0.2799
   16MOL0     C 2066   4.613  10.401   4.739 -0.7524 -0.4230 -0.3662
   16MOL0     C 2067   4.529  10.368   4.619 -0.2147  0.0572 -0.0765
   16MOL0     C 2068   4.590  10.288   4.503  0.1297  0.4053  0.1237
   16MOL0     C 2069   4.526  10.322   4.371 -1.2851  0.3689  0.5697
   16MOL0    Cl 2070   4.363  10.308   4.357 -0.2199 -0.3691  0.0305
   16MOL0     C 2071   4.235  10.398   5.141  0.0094  0.4668 -0.1594
   16MOL0     C 2072   4.104  10.351   5.150  0.0457 -0.8639 -1.3239
   16MOL0     O 2073   3.834  10.405   4.916  0.3054 -0.1514  0.6034
   16MOL0     C 2074   3.605  10.314   5.190 -0.3746 -0.7319 -0.3461
   16MOL0     C 2075   3.473  10.268   5.223  0.0189  0.2765 -0.1327
   16MOL0     N 2076   3.323  10.839   4.831  0.3987  0.5469  0.6178
   16MOL0     N 2077   3.425  10.916   4.839  1.1207  0.3786  0.2074
   16MOL0     C 2078   4.714  11.184   4.713 -0.5138 -0.0393  0.1762
   16MOL0     C 2079   4.836  11.217   4.655  0.5696  0.2269 -0.1245
   16MOL0     C 2080   5.172  11.266   4.296 -0.3444  0.0151  0.0412
   16MOL0     C 2081   5.255  11.350   4.361 -1.4745 -0.3967 -0.4380
   16MOL0     C 2082   5.365  11.410   4.305  0.3223 -0.1605  0.3313
   16MOL0     C 2083   5.387  11.388   4.163 -0.0370 -0.1270  0.3892
   16MOL0     O 2084   5.494  11.455   4.101  0.0462 -0.5730 -0.6064
   16MOL0     C 2085   5.565  11.380   4.001 -0.8054  0.3323  0.5026
   16MOL0     C 2086   5.662  11.273   4.051  0.2325 -0.4738  1.2372
   16MOL0     C 2087   5.709  11.176   3.935  0.4919 -0.1471 -0.3657
   16MOL0     C 2088   5.853  11.118   3.960 -1.0513 -0.2794  0.9137
   16MOL0     C 2089   5.944  11.223   3.915  0.3916 -0.1313  0.0587
   16MOL0     C 2090   6.039  11.297   3.882 -0.4876  0.1161 -0.7587
   16MOL0     C 2091   5.302  11.299   4.097  0.0770 -0.4035 -0.1089
   16MOL0     C 2092   5.201  11.231   4.165 -0.6243 -0.0640 -0.3757
   16MOL0     H 2093   4.764  11.209   4.328 -2.4356  2.6193 -0.3751
   16MOL0     H 2094   4.543  11.159   4.420  0.7717  1.0268 -1.3047
   16MOL0     H 2095   4.346  11.213   4.539 -2.6506 -0.0389  0.8213
   16MOL0     H 2096   4.374  11.043   4.550  1.5517 -2.4208  3.2064
   16MOL0     H 2097   4.231  11.201   4.776 -0.0986 -0.9491  1.1241
   16MOL0     H 2098   4.140  11.139   4.639 -0.6405 -1.3350  1.5492
   16MOL0     H 2099   4.216  10.895   4.704  0.5034 -0.5041  0.0490
   16MOL0     H 2100   4.319  10.966   4.822 -0.0296 -1.7822 -0.5257
   16MOL0     H 2101   4.151  10.942   4.968 -0.2779 -0.8715  0.1714
   16MOL0     H 2102   4.091  11.097   4.900  1.4181 -0.1378 -0.0312
   16MOL0     H 2103   3.932  10.983   4.763 -1.3501  0.8473  1.7408
   16MOL0     H 2104   3.992  10.822   4.796 -1.3896  0.5661 -0.5714
   16MOL0     H 2105   3.919  10.887   5.045 -0.3614  0.8485  0.0439
   16MOL0     H 2106   3.873  11.045   4.971 -0.0226  0.4425 -0.6034
   16MOL0     H 2107   3.731  10.949   4.807  0.8342 -0.8236 -0.5172
   16MOL0     H 2108   3.744  10.787   4.882  3.7870  0.8344 -0.4258
   16MOL0     H 2109   3.631  11.049   5.008 -1.2865  0.3481 -2.6099
   16MOL0     H 2110   3.645  10.900   5.091  0.9718  1.5408 -0.7618
   16MOL0     H 2111   3.445  10.735   5.116  1.1402 -1.1661 -0.0062
   16MOL0     H 2112   3.124  10.683   4.982  0.8453 -0.0405  1.7546
   16MOL0     H 2113   3.224  10.579   4.876 -1.6642  0.0483 -0.0115
   16MOL0     H 2114   3.236  10.623   5.172  2.3588 -0.3983  0.7616
   16MOL0     H 2115   3.348  10.508   5.091 -0.2006 -0.4055  3.7072
   16MOL0     H 2116   3.172  10.385   4.985  1.3118 -0.7676  1.2349
   16MOL0     H 2117   3.055  10.466   5.093 -0.0801  0.0943  1.3308
   16MOL0     H 2118   3.098  10.302   5.236  2.9983 -3.2897  3.2186
   16MOL0     H 2119   3.237  10.395   5.272  2.0891 -1.7688  0.3564
   16MOL0     H 2120   3.362  10.221   4.905  0.1781 -0.3270  0.9315
   16MOL0     H 2121   3.702  10.218   4.803 -1.0915 -1.3714  0.1067
   16MOL0     H 2122   3.538  10.213   4.743 -2.1590 -0.2976  1.0016
   16MOL0     H 2123   3.607  10.367   4.758 -1.9367 -1.2775 -2.2339
   16MOL0     H 2124   3.915  10.617   5.057 -1.1605  0.2815  2.0142
   16MOL0     H 2125   4.163  10.712   5.047 -2.3710  0.4474  0.5462
   16MOL0     H 2126   4.348  10.702   4.952 -0.8858 -1.5322  0.5707
   16MOL0     H 2127   4.384  10.764   5.115 -0.3616 -1.7479  0.7110
   16MOL0     H 2128   4.579  10.785   4.937  1.3538 -1.2626 -1.4858
   16MOL0     H 2129   4.626  10.711   5.095  2.2512  0.8621 -1.6652
   16MOL0     H 2130   4.676  10.519   4.995  1.6672 -0.4869 -0.0235
   16MOL0     H 2131   4.699  10.630   4.859 -1.4554  0.0857 -0.7392
   16MOL0     H 2132   4.472  10.436   4.895 -1.7360 -0.3607 -1.8110
   16MOL0     H 2133   4.479  10.568   4.779 -1.5435  0.2291  1.8432
   16MOL0     H 2134   4.634  10.310   4.797  0.6305 -0.6049 -1.1183
   16MOL0     H 2135   4.706  10.447   4.704 -1.5682  1.6082 -0.0090
   16MOL0     H 2136   4.442  10.314   4.657 -1.6190  2.5348  0.4603
   16MOL0     H 2137   4.496  10.460   4.570  1.4181  0.2328 -0.8977
   16MOL0     H 2138   4.565  10.184   4.526  2.4758 -0.3224 -0.3803
   16MOL0     H 2139   4.699  10.284   4.512  0.2546  0.9264 -0.9633
   16MOL0     H 2140   4.560  10.262   4.287 -2.3511  0.6903 -0.1120
   16MOL0     H 2141   4.545  10.428   4.353  1.8027  0.4490  3.3777
   16MOL0     H 2142   4.318  10.330   5.154 -1.5053 -1.5587 -0.6974
   16MOL0     H 2143   4.077  10.247   5.166 -3.5616  0.3648  1.9442
   16MOL0     H 2144   3.668  10.349   5.271 -0.6922 -0.9574  0.0037
   16MOL0     H 2145   3.432  10.278   5.323 -1.5955  0.1369 -0.7505
   16MOL0     H 2146   4.706  11.191   4.821  2.4877 -0.5448  0.5057
   16MOL0     H 2147   4.926  11.223   4.716  2.0726 -2.4255 -1.8804
   16MOL0     H 2148   5.245  11.353   4.469  0.5380 -1.5998 -0.1541
   16MOL0     H 2149   5.415  11.479   4.372  0.3152 -1.0122  1.2212
   16MOL0     H 2150   5.504  11.333   3.923  3.4222 -0.6953 -2.5760
   16MOL0     H 2151   5.625  11.452   3.944  1.1790 -1.7037 -0.1433
   16MOL0     H 2152   5.618  11.209   4.128  1.2652 -2.1553  0.4909
   16MOL0     H 2153   5.748  11.329   4.090  1.1983 -0.9366 -0.1466
   16MOL0     H 2154   5.700  11.228   3.839  4.4282  2.4013  0.4592
   16MOL0     H 2155   5.643  11.089   3.922  0.2777  0.1638 -1.4420
   16MOL0     H 2156   5.859  11.025   3.903 -1.0929  1.0150 -1.2924
   16MOL0     H 2157   5.880  11.087   4.062  2.4570 -0.5135  0.0473
   16MOL0     H 2158   6.124  11.350   3.842 -0.1026 -1.1074 -1.6217
   16MOL0     H 2159   5.300  11.288   3.989 -0.3959  3.0217 -0.5533
   16MOL0     H 2160   5.135  11.170   4.105 -0.3390  0.3327 -1.1069
   17MOL0     O 2161   4.555   9.400   7.242 -0.5993  0.2464  0.3928
   17MOL0     C 2162   4.624   9.417   7.139 -0.1534 -0.9939 -0.4104
   17MOL0     O 2163   4.598   9.510   7.044  0.3784 -0.4392  0.2671
   17MOL0     C 2164   4.481   9.581   7.050 -1.6376 -0.2336  0.2193
   17MOL0     C 2165   4.474   9.712   7.106  0.2738 -0.6841  0.4700
   17MOL0     C 2166   4.344   9.779   7.113 -0.1598  0.4632  0.4724
   17MOL0     C 2167   4.222   9.716   7.070 -1.1554  0.0312 -0.4429
   17MOL0     O 2168   4.112   9.798   7.079 -0.5239 -0.2149 -0.2141
   17MOL0     C 2169   3.991   9.735   7.134  0.5015 -0.9800  0.4083
   17MOL0     C 2170   3.872   9.840   7.131 -0.9861 -0.0862 -0.1447
   17MOL0     C 2171   3.785   9.839   7.012 -0.6686  0.5390 -0.3717
   17MOL0     C 2172   3.678   9.936   7.056  0.2575  0.1650  0.0867
   17MOL0     C 2173   3.566   9.945   6.951  0.2817 -0.6376 -0.1157
   17MOL0     C 2174   3.462  10.047   7.010  0.2583 -0.2201  0.2860
   17MOL0     C 2175   3.325  10.019   6.964 -0.0695 -0.2297 -0.0300
   17MOL0     C 2176   3.232  10.144   6.984  0.7549 -0.0337 -0.1668
   17MOL0     N 2177   3.198  10.150   7.129 -0.5551 -0.7524  0.2529
   17MOL0     C 2178   3.256  10.209   7.236 -0.0890 -0.0993  0.1295
   17MOL0     C 2179   3.174  10.176   7.342  0.3167  0.2359 -0.7357
   17MOL0     C 2180   3.198  10.234   7.478  0.9106 -0.0027 -0.3834
   17MOL0     C 2181   3.062  10.244   7.556  0.4713  0.1159 -0.4782
   17MOL0     C 2182   2.970  10.351   7.491 -0.0052 -0.2263 -0.7999
   17MOL0     C 2183   2.837  10.378   7.571 -0.5924  0.9905 -0.3036
   17MOL0     O 2184   2.732  10.294   7.532 -0.1334 -0.0016  0.7575
   17MOL0     C 2185   2.615  10.296   7.609  0.3828  0.3660  0.5730
   17MOL0     C 2186   2.589  10.373   7.725 -0.2888  0.6840 -0.4168
   17MOL0     C 2187   2.463  10.370   7.795 -0.0440  0.3327  0.6392
   17MOL0     C 2188   2.472  10.437   7.934 -0.3338 -0.0801  0.3328
   17MOL0     C 2189   2.356  10.289   7.753  0.3815 -0.3913  0.9393
   17MOL0     C 2190   2.222  10.291   7.819 -0.4922  0.5068 -0.4858
   17MOL0     O 2191   2.183  10.420   7.856 -0.5950  0.5781 -0.5411
   17MOL0     C 2192   2.062  10.434   7.912  0.0540 -0.3416 -1.1247
   17MOL0     C 2193   2.036  10.399   8.043 -0.2214  0.6989  0.0050
   17MOL0     C 2194   1.903  10.419   8.096 -0.8043 -0.6048  0.0483
   17MOL0     C 2195   1.794  10.450   8.013 -0.6417  0.5657 -0.8173
   17MOL0     O 2196   1.672  10.439   8.070 -0.0646 -0.6467  0.4348
   17MOL0     C 2197   1.553  10.450   7.990  0.1011 -0.1735 -0.1451
   17MOL0     C 2198   1.534  10.333   7.893 -0.2975 -0.8310 -0.3751
   17MOL0     C 2199   1.411  10.353   7.811 -0.8929  0.0345 -0.3655
   17MOL0     C 2200   1.413  10.261   7.692  0.7286  0.0108 -0.0823
   17MOL0     C 2201   1.281  10.283   7.615 -0.1310  0.2149  0.2599
   17MOL0     C 2202   1.242  10.162   7.537 -0.1848  0.3848  0.4633
   17MOL0     C 2203   1.097  10.172   7.484  0.3561  0.2210 -0.5970
   17MOL0     C 2204   1.008  10.150   7.606  0.3039 -0.8474  0.8038
   17MOL0    Cl 2205   0.838  10.184   7.558  0.1443  0.2684  0.2556
   17MOL0     C 2206   1.827  10.488   7.882 -0.3444  0.2999  0.1283
   17MOL0     C 2207   1.956  10.482   7.836  0.2867  0.3720 -0.0447
   17MOL0     O 2208   2.153  10.190   7.820  0.0868  0.2955 -0.3596
   17MOL0     C 2209   2.375  10.214   7.635  0.6185 -0.1684  0.3987
   17MOL0     C 2210   2.502  10.216   7.571 -0.2265  0.3466 -0.2032
   17MOL0     N 2211   3.074  10.085   7.303 -0.4427 -1.3745 -0.1969
   17MOL0     N 2212   3.086  10.084   7.168  0.1334  0.9387 -0.1468
   17MOL0     C 2213   4.239   9.595   7.002 -0.1640  0.3647  0.2416
   17MOL0     C 2214   4.357   9.526   6.999  0.0499 -0.3822  0.3414
   17MOL0     C 2215   4.729   9.318   7.109  0.7675 -0.7656 -0.0086
   17MOL0     C 2216   4.750   9.203   7.189  0.4796  0.4566  0.0014
   17MOL0     C 2217   4.858   9.122   7.174 -1.0183 -0.0220  0.4841
   17MOL0     C 2218   4.951   9.148   7.070  0.7664  0.7098  0.0150
   17MOL0     O 2219   5.052   9.054   7.054 -0.0266  0.0435 -0.4261
   17MOL0     C 2220   5.169   9.076   6.978  0.0246 -0.7506 -0.5210
   17MOL0     C 2221   5.265   9.164   7.063 -0.0186 -0.7856  0.1387
   17MOL0     C 2222   5.398   9.208   7.000 -0.4661  0.2749  0.3886
   17MOL0     C 2223   5.494   9.094   6.955 -0.8385  0.2625 -0.0982
   17MOL0     C 2224   5.514   8.984   7.048 -0.2864  0.0718 -0.4257
   17MOL0     C 2225   5.530   8.891   7.127  0.5034 -0.3866 -0.5998
   17MOL0     C 2226   4.945   9.262   6.987 -0.3621 -0.3188 -0.1130
   17MOL0     C 2227   4.827   9.339   7.006 -0.8383 -0.1524 -0.1438
   17MOL0     H 2228   4.563   9.757   7.148  0.0232  0.2734  0.0003
   17MOL0     H 2229   4.347   9.872   7.169 -0.8794  0.0215  1.2565
   17MOL0     H 2230   3.954   9.655   7.070  1.5518  1.1874 -3.2031
   17MOL0     H 2231   4.016   9.694   7.232  0.3426 -2.6096 -0.1977
   17MOL0     H 2232   3.806   9.814   7.214  0.8204  1.2728  1.8255
   17MOL0     H 2233   3.909   9.942   7.143 -1.7032  0.1509  0.1039
   17MOL0     H 2234   3.855   9.866   6.931  3.3317 -1.1250  2.2077
   17MOL0     H 2235   3.752   9.737   6.989 -4.0829  1.2300  0.8681
   17MOL0     H 2236   3.633   9.906   7.151 -3.2278  1.4319 -1.0122
   17MOL0     H 2237   3.721  10.035   7.068  0.1834 -0.0686  2.7825
   17MOL0     H 2238   3.614   9.979   6.858  2.0899 -1.5578  0.4292
   17MOL0     H 2239   3.532   9.844   6.929  2.2674 -1.4921  0.5584
   17MOL0     H 2240   3.463  10.038   7.119  1.0500  1.7426  0.4781
   17MOL0     H 2241   3.495  10.149   6.988 -0.3693  0.2405  1.3995
   17MOL0     H 2242   3.321  10.002   6.856  5.6951 -1.8308 -0.3657
   17MOL0     H 2243   3.286   9.932   7.018 -0.1645 -0.3752 -0.3291
   17MOL0     H 2244   3.133  10.140   6.939  1.8573 -1.0382 -2.6698
   17MOL0     H 2245   3.273  10.240   6.953 -0.3280 -0.5097 -3.4117
   17MOL0     H 2246   3.333  10.286   7.241  0.8042 -1.0316  1.4553
   17MOL0     H 2247   3.258  10.164   7.537  0.7093  1.5215  1.7353
   17MOL0     H 2248   3.250  10.329   7.481  2.0913 -0.6434  1.0566
   17MOL0     H 2249   3.087  10.265   7.661  1.0994 -1.5703 -0.2670
   17MOL0     H 2250   3.011  10.148   7.557 -0.3493  0.5407 -1.3006
   17MOL0     H 2251   2.938  10.322   7.391 -1.8052 -2.5614  0.3540
   17MOL0     H 2252   3.023  10.446   7.488 -2.1602  1.0806 -0.0416
   17MOL0     H 2253   2.815  10.484   7.561 -1.4876  1.0595  1.8202
   17MOL0     H 2254   2.858  10.354   7.676 -0.4243  0.3720 -0.4724
   17MOL0     H 2255   2.668  10.437   7.764  1.2672 -1.6767  0.5476
   17MOL0     H 2256   2.569  10.447   7.983 -0.5101 -0.0465  0.6837
   17MOL0     H 2257   2.422  10.534   7.927  1.0868  0.5414 -1.8930
   17MOL0     H 2258   2.416  10.374   8.005  0.7849 -0.9960  0.4352
   17MOL0     H 2259   2.122  10.365   8.100 -0.3076  0.3963 -0.0454
   17MOL0     H 2260   1.895  10.379   8.197  1.2993  0.2661  0.6120
   17MOL0     H 2261   1.473  10.444   8.065  0.4972  0.7584  0.3636
   17MOL0     H 2262   1.539  10.551   7.951 -0.9086  1.2327  3.4016
   17MOL0     H 2263   1.613  10.334   7.817  0.2797 -0.1582  0.2101
   17MOL0     H 2264   1.524  10.238   7.946 -1.0486  0.3566  1.7297
   17MOL0     H 2265   1.395  10.459   7.789  1.1147  0.3000 -0.7937
   17MOL0     H 2266   1.325  10.319   7.869 -0.7225 -0.9653 -0.6701
   17MOL0     H 2267   1.491  10.302   7.628  1.2403  1.3060  1.3164
   17MOL0     H 2268   1.439  10.155   7.700 -0.7534 -0.3569  0.2558
   17MOL0     H 2269   1.299  10.367   7.546  0.2811 -0.6146 -0.6824
   17MOL0     H 2270   1.206  10.318   7.685 -1.3923  1.6173 -1.6664
   17MOL0     H 2271   1.306  10.153   7.449 -0.4583  2.1015  0.0507
   17MOL0     H 2272   1.261  10.071   7.593  1.0419  0.9185  0.9481
   17MOL0     H 2273   1.077  10.093   7.411 -0.6018  0.0604 -0.1927
   17MOL0     H 2274   1.076  10.267   7.435 -2.0760 -0.6529 -1.4189
   17MOL0     H 2275   1.032  10.216   7.690 -0.3246 -1.0970  1.1854
   17MOL0     H 2276   1.022  10.049   7.644 -0.6945  0.5115  5.4509
   17MOL0     H 2277   1.739  10.508   7.821  0.0097 -1.1794 -0.9116
   17MOL0     H 2278   1.972  10.490   7.729  1.4951 -2.5643 -0.2004
   17MOL0     H 2279   2.282  10.172   7.598  1.6713 -1.7827 -0.5245
   17MOL0     H 2280   2.509  10.168   7.474 -3.1021 -0.0667 -0.2877
   17MOL0     H 2281   4.156   9.538   6.961  0.6917  0.1395 -1.2556
   17MOL0     H 2282   4.362   9.423   6.966 -0.5240  0.0298 -1.0947
   17MOL0     H 2283   4.679   9.180   7.268 -1.0274  1.6446 -0.9675
   17MOL0     H 2284   4.864   9.030   7.232  0.9772  1.7353  3.3792
   17MOL0     H 2285   5.210   8.976   6.966  1.1252 -0.1789 -1.7524
   17MOL0     H 2286   5.150   9.122   6.881 -0.9544  0.3518  0.1639
   17MOL0     H 2287   5.281   9.110   7.158 -1.7225 -1.9307 -0.1885
   17MOL0     H 2288   5.204   9.251   7.087  0.1459 -1.2967  2.7115
   17MOL0     H 2289   5.450   9.275   7.070  2.2716 -0.2184 -0.9964
   17MOL0     H 2290   5.377   9.260   6.906  1.8211 -0.4298 -0.6036
   17MOL0     H 2291   5.595   9.131   6.933  0.6715 -3.4756 -0.2724
   17MOL0     H 2292   5.468   9.048   6.860 -0.9708 -2.2614  1.0777
   17MOL0     H 2293   5.534   8.806   7.193 -1.8372 -0.6625 -0.7284
   17MOL0     H 2294   5.025   9.286   6.918 -0.7348  1.6376  0.0837
   17MOL0     H 2295   4.827   9.422   6.936  3.0550 -1.4229 -1.9694
   18MOL0     O 2296   3.443  10.377   5.970  0.6400  0.6168  0.3574
   18MOL0     C 2297   3.529  10.364   6.058 -0.1845 -0.8154 -0.6240
   18MOL0     O 2298   3.511  10.414   6.184 -0.3351  0.1111  0.7624
   18MOL0     C 2299   3.385  10.454   6.214  0.7360 -0.0280 -0.2228
   18MOL0     C 2300   3.364  10.591   6.244  0.2780 -0.2542 -0.0131
   18MOL0     C 2301   3.243  10.633   6.282  0.0633 -0.6495  1.2114
   18MOL0     C 2302   3.137  10.549   6.300 -0.2974 -0.5057  0.5571
   18MOL0     O 2303   3.027  10.615   6.355  0.3355 -0.3533  0.1494
   18MOL0     C 2304   2.906  10.534   6.382  0.0608  0.3435  0.5674
   18MOL0     C 2305   2.849  10.450   6.258 -0.1814 -0.5085  0.2996
   18MOL0     C 2306   2.738  10.360   6.310  0.3328 -0.0072  0.3667
   18MOL0     C 2307   2.594  10.423   6.325 -1.5335 -0.3575 -0.1361
   18MOL0     C 2308   2.497  10.307   6.360  0.1084 -0.1065  0.6430
   18MOL0     C 2309   2.362  10.359   6.359  0.2854  0.2754 -0.0382
   18MOL0     C 2310   2.245  10.269   6.377 -0.7237 -0.2841  1.0442
   18MOL0     C 2311   2.239  10.219   6.518 -0.0290 -0.1916 -0.1970
   18MOL0     N 2312   2.099  10.185   6.553 -0.0900 -0.2385 -0.3018
   18MOL0     C 2313   2.054  10.058   6.546  0.2424  0.1545 -0.1122
   18MOL0     C 2314   1.933  10.059   6.595  0.4959  0.8370  0.5893
   18MOL0     C 2315   1.847   9.941   6.605 -0.5963  0.3856 -0.6322
   18MOL0     C 2316   1.748   9.940   6.491  0.1632  0.0147 -0.8559
   18MOL0     C 2317   1.641   9.835   6.537  0.6386  0.1138 -0.7370
   18MOL0     C 2318   1.529   9.821   6.440 -0.5606  0.5194  0.1886
   18MOL0     O 2319   1.430   9.916   6.477  0.3656  0.3059  0.3533
   18MOL0     C 2320   1.303   9.900   6.430  0.1049 -0.3812  0.4960
   18MOL0     C 2321   1.205   9.972   6.495  0.2166 -0.7922  0.0569
   18MOL0     C 2322   1.067   9.967   6.461 -0.2921 -0.2876  0.5283
   18MOL0     C 2323   0.953  10.043   6.530 -0.9160 -0.3258 -1.2989
   18MOL0     C 2324   1.029   9.885   6.355  0.3219 -0.1766  0.4676
   18MOL0     C 2325   0.893   9.852   6.312 -0.4694 -0.1064 -0.0540
   18MOL0     O 2326   0.800   9.942   6.339 -0.1993 -0.4096  0.1408
   18MOL0     C 2327   0.668   9.907   6.342  0.1840  0.6587 -0.3368
   18MOL0     C 2328   0.584   9.958   6.242 -0.0324 -0.7768 -0.7579
   18MOL0     C 2329   0.449   9.938   6.251 -0.5407 -0.0300  1.1790
   18MOL0     C 2330   0.401   9.863   6.349  0.7379  0.0355 -0.8686
   18MOL0     O 2331   0.265   9.854   6.368 -0.3331  0.2988 -0.4081
   18MOL0     C 2332   0.173   9.897   6.259 -1.4014 -0.5239 -0.0631
   18MOL0     C 2333   0.028   9.869   6.315 -0.0073 -0.5275  0.6710
   18MOL0     C 2334  -0.086   9.897   6.216 -0.2024  0.5149 -0.2684
   18MOL0     C 2335  -0.226   9.864   6.288  0.7768 -0.9201  0.0610
   18MOL0     C 2336  -0.349   9.907   6.208  0.4907  1.4970  0.6393
   18MOL0     C 2337  -0.477   9.836   6.259  1.0586 -0.4451  0.2235
   18MOL0     C 2338  -0.515   9.698   6.205 -0.3943 -0.2737 -0.2554
   18MOL0     C 2339  -0.614   9.633   6.302 -0.9505 -0.7503 -0.2159
   18MOL0    Cl 2340  -0.745   9.738   6.360 -0.1537 -0.2861 -0.1239
   18MOL0     C 2341   0.480   9.809   6.446 -0.2198  0.0131 -0.3007
   18MOL0     C 2342   0.619   9.838   6.443 -0.0476 -0.2835 -0.0191
   18MOL0     O 2343   0.872   9.746   6.258 -0.2966  0.1386  0.6135
   18MOL0     C 2344   1.132   9.803   6.290  0.3793 -1.0076 -0.5267
   18MOL0     C 2345   1.267   9.817   6.321 -0.4173 -0.3234  0.8094
   18MOL0     N 2346   1.916  10.188   6.644  0.1094  0.1778 -0.1540
   18MOL0     N 2347   2.010  10.260   6.608 -0.7178  0.1202  0.0955
   18MOL0     C 2348   3.168  10.409   6.286  0.8541  0.1383  0.7937
   18MOL0     C 2349   3.285  10.363   6.233  0.0380  0.6566  0.3797
   18MOL0     C 2350   3.654  10.301   6.011  0.8148  0.0332  0.0013
   18MOL0     C 2351   3.653  10.189   5.922 -0.0541  0.8178 -0.3239
   18MOL0     C 2352   3.775  10.123   5.895 -0.0312  0.1371 -0.0178
   18MOL0     C 2353   3.896  10.149   5.964 -0.0505 -0.4358  0.8813
   18MOL0     O 2354   4.013  10.096   5.922  0.1078 -0.3582 -0.2027
   18MOL0     C 2355   4.136  10.138   5.981  1.0188  0.5221 -0.6086
   18MOL0     C 2356   4.247  10.037   5.954  1.1086 -0.0980  0.5796
   18MOL0     C 2357   4.364  10.082   6.030 -0.1657  0.7328  0.0258
   18MOL0     C 2358   4.445  10.200   5.978  1.0627 -1.4078  0.8159
   18MOL0     C 2359   4.498  10.178   5.845  0.0172 -0.8618 -0.0749
   18MOL0     C 2360   4.550  10.141   5.741 -0.3437 -0.7193 -0.2390
   18MOL0     C 2361   3.892  10.263   6.040 -0.0656  0.2097 -0.1878
   18MOL0     C 2362   3.775  10.329   6.068  0.1405 -0.2609 -0.8675
   18MOL0     H 2363   3.448  10.659   6.233  0.3623 -0.2630  0.5540
   18MOL0     H 2364   3.222  10.739   6.281 -0.1884 -0.6903 -0.2727
   18MOL0     H 2365   2.921  10.474   6.472  0.1545  0.2574  0.4931
   18MOL0     H 2366   2.819  10.596   6.408 -0.0488 -0.1007  1.2744
   18MOL0     H 2367   2.807  10.528   6.194  0.1557 -1.4797 -1.1562
   18MOL0     H 2368   2.921  10.386   6.205 -0.5583 -2.2892  1.8076
   18MOL0     H 2369   2.727  10.282   6.234  0.0967 -1.0209  1.4016
   18MOL0     H 2370   2.768  10.311   6.403 -0.1333 -0.6649  0.1780
   18MOL0     H 2371   2.583  10.490   6.411 -0.1428  0.2750 -0.4178
   18MOL0     H 2372   2.566  10.462   6.227 -0.7466 -0.9363 -0.6044
   18MOL0     H 2373   2.510  10.232   6.282 -1.9534  0.3027 -0.1403
   18MOL0     H 2374   2.526  10.256   6.453 -0.3351  0.8823  1.3382
   18MOL0     H 2375   2.357  10.428   6.444 -0.9325 -0.7502  0.7536
   18MOL0     H 2376   2.348  10.408   6.262  1.0130 -0.4040 -0.4915
   18MOL0     H 2377   2.153  10.326   6.361 -0.4004  0.3246  1.3256
   18MOL0     H 2378   2.260  10.179   6.317  1.1291 -0.5359  1.8305
   18MOL0     H 2379   2.285  10.293   6.585  1.1090 -1.8529  0.9352
   18MOL0     H 2380   2.301  10.129   6.528 -0.8448 -0.9168 -1.4478
   18MOL0     H 2381   2.097   9.966   6.509  0.2823  0.3066 -0.4486
   18MOL0     H 2382   1.904   9.848   6.604 -0.0639  0.6970 -0.1272
   18MOL0     H 2383   1.799   9.954   6.702 -0.5156  0.8852 -0.6567
   18MOL0     H 2384   1.795   9.913   6.395  1.5257  1.6195 -0.6842
   18MOL0     H 2385   1.715  10.044   6.491 -1.2378 -0.3654  1.1719
   18MOL0     H 2386   1.599   9.852   6.636  1.9345  2.1347 -0.4808
   18MOL0     H 2387   1.697   9.741   6.537  3.3063  1.6003  0.3729
   18MOL0     H 2388   1.478   9.725   6.444  0.4735  0.0059  2.2821
   18MOL0     H 2389   1.568   9.840   6.339 -5.3178  2.3167 -1.6248
   18MOL0     H 2390   1.230  10.025   6.586  3.3715 -1.7853 -0.1226
   18MOL0     H 2391   0.874   9.980   6.573  1.9881 -1.5897  2.8912
   18MOL0     H 2392   0.998  10.103   6.610  4.0451  0.0513 -4.0280
   18MOL0     H 2393   0.910  10.118   6.463 -1.0305  0.9306  0.1329
   18MOL0     H 2394   0.617  10.037   6.175 -1.9630  3.4639  2.7991
   18MOL0     H 2395   0.393   9.984   6.170  2.2326  1.2067 -0.1508
   18MOL0     H 2396   0.180  10.005   6.241  1.6803 -1.1852 -4.5132
   18MOL0     H 2397   0.190   9.840   6.168  1.4833 -1.3529  0.8795
   18MOL0     H 2398   0.026   9.775   6.370 -0.8038 -0.6615  0.4361
   18MOL0     H 2399   0.005   9.948   6.387 -0.0935  0.4198 -0.3635
   18MOL0     H 2400  -0.073   9.834   6.127  0.9551  1.5510 -0.8639
   18MOL0     H 2401  -0.088   9.999   6.177 -0.5532  1.5711  2.3587
   18MOL0     H 2402  -0.230   9.755   6.303  0.2770 -0.6482  2.1474
   18MOL0     H 2403  -0.233   9.918   6.383 -0.4599  0.1073 -0.5838
   18MOL0     H 2404  -0.335   9.877   6.104 -0.1828 -1.6575  1.3635
   18MOL0     H 2405  -0.370  10.015   6.212 -2.2825  1.2495 -2.6999
   18MOL0     H 2406  -0.478   9.838   6.368  1.3759  0.3741  0.2123
   18MOL0     H 2407  -0.564   9.896   6.230  0.3314  0.1603  3.2866
   18MOL0     H 2408  -0.424   9.640   6.195 -0.1484  0.2616 -1.3201
   18MOL0     H 2409  -0.561   9.704   6.105  0.9440 -1.6384 -0.9815
   18MOL0     H 2410  -0.567   9.598   6.395 -2.5317 -0.4912  0.7229
   18MOL0     H 2411  -0.659   9.550   6.247 -1.4978 -1.4850  1.2633
   18MOL0     H 2412   0.442   9.751   6.530  0.4780 -0.1713 -0.1009
   18MOL0     H 2413   0.672   9.790   6.524 -0.2743  0.7770  0.7806
   18MOL0     H 2414   1.109   9.736   6.208 -1.7309 -0.9503 -0.0470
   18MOL0     H 2415   1.343   9.770   6.260  0.6832  4.5104 -2.0950
   18MOL0     H 2416   3.098  10.336   6.327  1.9663 -1.5144 -0.1373
   18MOL0     H 2417   3.309  10.257   6.223  1.1178  1.0856 -3.6924
   18MOL0     H 2418   3.566  10.156   5.866  1.0893 -3.3353 -0.0296
   18MOL0     H 2419   3.773  10.040   5.824  0.5614  0.4379 -0.3954
   18MOL0     H 2420   4.166  10.240   5.957  4.8828 -0.3807 -0.3027
   18MOL0     H 2421   4.118  10.141   6.089 -0.3416  1.5700 -0.8379
   18MOL0     H 2422   4.261  10.033   5.845 -2.1435  0.7699  0.0221
   18MOL0     H 2423   4.229   9.935   5.991 -0.8862  0.5646  1.5946
   18MOL0     H 2424   4.430   9.996   6.042 -0.1670  0.8331  0.8451
   18MOL0     H 2425   4.330  10.104   6.132 -1.6949  3.7542 -1.0311
   18MOL0     H 2426   4.539  10.222   6.032  2.2259 -0.3532 -1.4881
   18MOL0     H 2427   4.381  10.288   5.987 -0.0959 -2.1463  0.0285
   18MOL0     H 2428   4.583  10.109   5.645  1.7325  0.5014  0.0184
   18MOL0     H 2429   3.985  10.306   6.074  1.4918 -2.3699 -0.8684
   18MOL0     H 2430   3.773  10.413   6.136 -0.5253 -1.7210  1.0221
   19MOL0     O 2431   4.000   7.551   0.853  0.4664 -0.7498  0.6469
   19MOL0     C 2432   4.088   7.503   0.787  0.1616  0.4027  0.9666
   19MOL0     O 2433   4.080   7.384   0.718  0.1672 -0.5375 -0.4552
   19MOL0     C 2434   3.963   7.316   0.703 -0.2057 -0.4867 -1.0021
   19MOL0     C 2435   3.945   7.258   0.576 -0.2748 -0.6998  0.3480
   19MOL0     C 2436   3.833   7.183   0.547  0.7521 -0.6241 -0.0140
   19MOL0     C 2437   3.733   7.166   0.654 -0.3166 -0.9904 -0.2740
   19MOL0     O 2438   3.607   7.109   0.636 -0.5508 -0.0505  0.3441
   19MOL0     C 2439   3.604   7.036   0.509 -0.3356 -0.3784  0.2273
   19MOL0     C 2440   3.463   6.964   0.507 -0.1977  0.0204  0.0240
   19MOL0     C 2441   3.336   7.055   0.512  0.0256 -0.0991  0.0668
   19MOL0     C 2442   3.323   7.149   0.397  0.4035 -0.2526  0.0381
   19MOL0     C 2443   3.203   7.240   0.397  0.3800  0.2488  0.8073
   19MOL0     C 2444   3.086   7.157   0.329  0.2681 -1.0262  0.0694
   19MOL0     C 2445   2.953   7.228   0.310 -0.5624 -0.0800  0.0794
   19MOL0     C 2446   2.898   7.275   0.443  0.6218 -0.0187  0.2364
   19MOL0     N 2447   2.750   7.295   0.439  0.8560 -0.0374 -0.6029
   19MOL0     C 2448   2.695   7.406   0.375  0.2229 -0.4790  1.1091
   19MOL0     C 2449   2.562   7.374   0.375  1.3556  0.7984 -0.5022
   19MOL0     C 2450   2.447   7.460   0.335  0.2101  0.1768 -0.2726
   19MOL0     C 2451   2.302   7.422   0.384  0.7726 -0.2299 -1.2488
   19MOL0     C 2452   2.207   7.533   0.353  0.6897  0.3806  1.3074
   19MOL0     C 2453   2.061   7.492   0.359 -0.1175  0.3157  0.2997
   19MOL0     O 2454   2.009   7.516   0.221  1.6047  0.4915  0.1366
   19MOL0     C 2455   1.869   7.544   0.217 -0.4101  0.0698  0.4043
   19MOL0     C 2456   1.787   7.526   0.325 -0.3516  0.3535  0.3545
   19MOL0     C 2457   1.657   7.557   0.325 -0.1958 -0.3418 -0.1558
   19MOL0     C 2458   1.581   7.520   0.455 -0.9071  0.1716 -0.7111
   19MOL0     C 2459   1.601   7.616   0.206 -0.0256 -0.0665  0.6486
   19MOL0     C 2460   1.453   7.661   0.195 -0.9816 -1.3804  0.4441
   19MOL0     O 2461   1.417   7.761   0.103 -0.9800 -0.3031  0.4690
   19MOL0     C 2462   1.282   7.807   0.110 -0.3163 -0.3717 -0.8080
   19MOL0     C 2463   1.230   7.853   0.228  1.0556  0.3109 -0.7372
   19MOL0     C 2464   1.096   7.884   0.244 -0.5975  0.6861 -0.3349
   19MOL0     C 2465   1.004   7.861   0.139  0.2592  0.0120 -0.1019
   19MOL0     O 2466   0.877   7.897   0.170 -0.0588 -0.5063 -0.0301
   19MOL0     C 2467   0.768   7.867   0.079  0.4250 -0.0577  0.9113
   19MOL0     C 2468   0.645   7.908   0.151  0.4039  0.6641 -0.2550
   19MOL0     C 2469   0.513   7.866   0.069  0.0312  0.2124  0.5356
   19MOL0     C 2470   0.388   7.896   0.147 -0.2230 -0.3563  0.1737
   19MOL0     C 2471   0.265   7.811   0.121 -0.9172 -0.4263 -0.5717
   19MOL0     C 2472   0.280   7.660   0.169  0.9866 -0.3174 -0.9918
   19MOL0     C 2473   0.141   7.582   0.166  0.6211  0.6250  0.8911
   19MOL0     C 2474   0.038   7.638   0.070  0.0009  0.6600 -0.2265
   19MOL0    Cl 2475  -0.106   7.536   0.058 -0.4496 -0.1730  0.3359
   19MOL0     C 2476   1.060   7.811   0.017 -0.0053 -0.1051 -0.6247
   19MOL0     C 2477   1.192   7.776   0.005 -0.1728 -0.5224  0.2361
   19MOL0     O 2478   1.378   7.606   0.271 -0.7787  0.0439  0.4516
   19MOL0     C 2479   1.687   7.646   0.097 -0.3454 -0.4528  0.5046
   19MOL0     C 2480   1.822   7.598   0.101  0.6796 -0.2041  0.2627
   19MOL0     N 2481   2.545   7.244   0.422 -0.1755  0.0307 -0.6303
   19MOL0     N 2482   2.656   7.200   0.472  0.1714 -0.6649 -0.4343
   19MOL0     C 2483   3.754   7.225   0.780 -0.1977  0.7120 -0.8054
   19MOL0     C 2484   3.870   7.298   0.809  0.5958 -0.6035 -0.1978
   19MOL0     C 2485   4.217   7.570   0.791  0.7223 -0.5211 -0.4882
   19MOL0     C 2486   4.242   7.696   0.857 -0.3315  0.4376  0.3486
   19MOL0     C 2487   4.368   7.744   0.882  0.8677 -0.1172  0.2156
   19MOL0     C 2488   4.483   7.676   0.836  0.0519 -0.2218  0.0680
   19MOL0     O 2489   4.615   7.724   0.864  0.2700 -0.4607  0.2819
   19MOL0     C 2490   4.667   7.653   0.983  0.6103 -1.0046 -0.0260
   19MOL0     C 2491   4.813   7.669   0.994 -0.2751 -0.1553  0.2480
   19MOL0     C 2492   4.868   7.804   1.024  1.0752 -0.0607 -0.1205
   19MOL0     C 2493   5.024   7.802   1.012  0.2545  0.0880 -0.3972
   19MOL0     C 2494   5.086   7.933   0.983  0.7923  0.5410  0.4314
   19MOL0     C 2495   5.147   8.026   0.946  0.5040 -1.1199 -0.2957
   19MOL0     C 2496   4.462   7.551   0.779  0.3010 -0.1262  1.0793
   19MOL0     C 2497   4.333   7.499   0.756 -0.0644  0.0662 -0.2603
   19MOL0     H 2498   4.023   7.274   0.502  0.2226  2.2243  1.3900
   19MOL0     H 2499   3.812   7.172   0.441 -0.1642 -0.4298  0.1458
   19MOL0     H 2500   3.602   7.105   0.424  1.8411 -1.4452 -0.7786
   19MOL0     H 2501   3.688   6.969   0.488 -2.2679 -2.2734 -2.0006
   19MOL0     H 2502   3.450   6.902   0.417  0.0845 -1.3284  0.8731
   19MOL0     H 2503   3.456   6.896   0.592 -0.1028 -0.3101 -0.2295
   19MOL0     H 2504   3.248   6.990   0.512 -1.4009  1.6704 -1.8631
   19MOL0     H 2505   3.354   7.113   0.603 -1.2660  1.8159 -0.8248
   19MOL0     H 2506   3.413   7.210   0.383  0.8956 -1.4701 -2.7649
   19MOL0     H 2507   3.321   7.091   0.305 -2.4505  1.0266 -0.8290
   19MOL0     H 2508   3.180   7.273   0.499  0.0092 -1.6860  1.3903
   19MOL0     H 2509   3.242   7.332   0.354  1.8675  0.2673  2.1032
   19MOL0     H 2510   3.113   7.125   0.228 -0.1431 -2.7685  0.4770
   19MOL0     H 2511   3.068   7.062   0.380  0.4971 -1.0882  0.0363
   19MOL0     H 2512   2.959   7.308   0.236 -2.9611 -0.5606 -0.7335
   19MOL0     H 2513   2.892   7.146   0.271 -0.9766 -0.3842  1.3140
   19MOL0     H 2514   2.931   7.377   0.466 -1.0540  0.9018 -1.2380
   19MOL0     H 2515   2.937   7.210   0.522  0.3899  0.3872  0.6900
   19MOL0     H 2516   2.742   7.502   0.356 -1.2720  0.3078  1.2123
   19MOL0     H 2517   2.477   7.562   0.359  0.9600 -0.6606  2.7597
   19MOL0     H 2518   2.448   7.448   0.226 -0.4209 -0.8216 -0.1848
   19MOL0     H 2519   2.294   7.389   0.488  0.8421 -0.7147 -1.3930
   19MOL0     H 2520   2.269   7.329   0.338 -3.0456 -0.9124  2.3576
   19MOL0     H 2521   2.233   7.575   0.256  0.9365 -0.7066  0.8957
   19MOL0     H 2522   2.212   7.620   0.420  4.2281  0.7803  0.7345
   19MOL0     H 2523   2.013   7.559   0.430 -4.6835  1.0570 -3.0676
   19MOL0     H 2524   2.061   7.389   0.396  4.2263  0.6520  1.9238
   19MOL0     H 2525   1.826   7.479   0.415  0.2975 -1.1352 -0.6590
   19MOL0     H 2526   1.513   7.602   0.481 -0.6930 -0.0200  0.4869
   19MOL0     H 2527   1.525   7.430   0.429 -2.2230  1.4878 -2.7776
   19MOL0     H 2528   1.654   7.497   0.533  3.7111  1.9761 -4.0253
   19MOL0     H 2529   1.282   7.859   0.323  1.2044 -2.5471 -0.5573
   19MOL0     H 2530   1.057   7.914   0.341  0.5217 -1.2864  0.7820
   19MOL0     H 2531   0.785   7.926  -0.011  0.5122  2.0421  2.2263
   19MOL0     H 2532   0.765   7.758   0.067 -0.3232 -0.4169  3.5645
   19MOL0     H 2533   0.657   7.849   0.242 -0.2657 -1.4106 -1.4391
   19MOL0     H 2534   0.648   8.016   0.172 -0.2925  0.5208  0.6264
   19MOL0     H 2535   0.521   7.758   0.053 -1.0772 -0.1659  2.2192
   19MOL0     H 2536   0.517   7.906  -0.032 -0.9038 -0.8706  0.0355
   19MOL0     H 2537   0.409   7.892   0.255  0.6094 -0.4351  0.0167
   19MOL0     H 2538   0.366   8.000   0.122 -1.6351 -1.2215 -2.6303
   19MOL0     H 2539   0.263   7.813   0.011  3.3288  2.0628 -0.8425
   19MOL0     H 2540   0.180   7.863   0.165 -0.6968 -0.4818 -0.0786
   19MOL0     H 2541   0.355   7.609   0.107  2.8374 -0.6200  1.3700
   19MOL0     H 2542   0.316   7.652   0.272 -0.7253 -0.5376 -0.3689
   19MOL0     H 2543   0.086   7.587   0.261 -4.4832 -0.4349 -1.6605
   19MOL0     H 2544   0.162   7.480   0.132 -0.4323  1.2936 -2.0607
   19MOL0     H 2545   0.074   7.642  -0.033 -0.5309  0.4314 -0.4254
   19MOL0     H 2546   0.014   7.737   0.110 -2.9374 -1.0565  2.7612
   19MOL0     H 2547   1.000   7.819  -0.073  0.6185  2.0966 -0.9013
   19MOL0     H 2548   1.233   7.734  -0.087  1.4004  0.5876  0.4008
   19MOL0     H 2549   1.668   7.703   0.006  2.1989  3.7266  2.2655
   19MOL0     H 2550   1.883   7.621   0.015 -0.1759  2.5257  0.3033
   19MOL0     H 2551   3.674   7.229   0.853 -0.4425 -2.5345 -0.7722
   19MOL0     H 2552   3.880   7.335   0.911 -1.7078 -0.3777 -0.0084
   19MOL0     H 2553   4.163   7.754   0.904 -0.1079  0.7565  0.3406
   19MOL0     H 2554   4.383   7.843   0.924  1.4309  0.9178 -2.2207
   19MOL0     H 2555   4.627   7.697   1.074  4.3630  1.4094  0.6911
   19MOL0     H 2556   4.631   7.550   0.988 -0.3573 -0.6407  0.8016
   19MOL0     H 2557   4.859   7.653   0.896  1.1598  3.4722  0.1909
   19MOL0     H 2558   4.852   7.591   1.060  0.8054 -1.2065 -1.5355
   19MOL0     H 2559   4.837   7.841   1.123 -0.6488  0.4498 -0.8214
   19MOL0     H 2560   4.836   7.869   0.943 -0.0089 -1.0564 -0.5244
   19MOL0     H 2561   5.061   7.732   0.936  0.3675 -0.7546  0.4199
   19MOL0     H 2562   5.055   7.774   1.113  2.3087  3.2703 -0.0027
   19MOL0     H 2563   5.199   8.112   0.909 -1.6011  0.9565  1.3023
   19MOL0     H 2564   4.547   7.492   0.747  0.8540  0.8870  0.6038
   19MOL0     H 2565   4.330   7.399   0.712 -2.3399  0.6852 -1.6835
   20MOL0     O 2566   0.506   4.508   6.992  0.1893  0.3653  0.5828
   20MOL0     C 2567   0.563   4.539   6.886 -0.1250 -0.4745  0.5647
   20MOL0     O 2568   0.508   4.616   6.785  0.3918 -0.0295 -0.5912
   20MOL0     C 2569   0.372   4.643   6.780  0.6215  0.3912 -0.0988
   20MOL0     C 2570   0.328   4.776   6.746  0.0953 -0.6485 -0.3087
   20MOL0     C 2571   0.191   4.804   6.736  0.0908  0.6108 -0.2850
   20MOL0     C 2572   0.095   4.714   6.774  0.6542 -1.4377  0.0724
   20MOL0     O 2573  -0.035   4.755   6.771 -0.1965 -0.1624  0.1400
   20MOL0     C 2574  -0.080   4.800   6.897 -0.2075 -1.1897  0.1281
   20MOL0     C 2575  -0.230   4.848   6.911  0.4345  0.6552  0.6302
   20MOL0     C 2576  -0.260   4.967   6.823 -0.5604  0.5802  0.1393
   20MOL0     C 2577  -0.415   4.994   6.808 -0.5844  0.7396 -0.0948
   20MOL0     C 2578  -0.495   4.989   6.936  0.5342 -0.5870 -0.0082
   20MOL0     C 2579  -0.639   5.038   6.912 -0.3211  0.3096 -0.9974
   20MOL0     C 2580  -0.717   5.025   7.043  0.4916 -0.4144 -0.0564
   20MOL0     C 2581  -0.752   5.158   7.114  0.1627  0.9842 -0.6104
   20MOL0     N 2582  -0.874   5.210   7.045 -0.4209 -0.1826 -0.9393
   20MOL0     C 2583  -0.975   5.282   7.110 -0.8570 -0.5411  0.6120
   20MOL0     C 2584  -1.061   5.320   7.010 -0.7252  0.3388 -0.6223
   20MOL0     C 2585  -1.188   5.397   7.029  0.0711 -0.2880  0.1937
   20MOL0     C 2586  -1.258   5.352   7.161 -0.2955  0.9753  0.9036
   20MOL0     C 2587  -1.393   5.423   7.180 -1.5911  0.1439  0.1161
   20MOL0     C 2588  -1.500   5.401   7.069  0.2167 -0.2068  0.6100
   20MOL0     O 2589  -1.497   5.527   7.001 -0.4301 -0.6458  0.0391
   20MOL0     C 2590  -1.619   5.582   6.979 -0.0610  0.3138 -0.6563
   20MOL0     C 2591  -1.625   5.718   6.951  0.4915 -0.1977  0.2302
   20MOL0     C 2592  -1.751   5.787   6.935 -0.5756 -0.7902 -0.0858
   20MOL0     C 2593  -1.740   5.932   6.903  0.7360 -0.4926 -0.7111
   20MOL0     C 2594  -1.866   5.710   6.937 -0.6210 -0.0094 -0.2398
   20MOL0     C 2595  -1.995   5.767   6.905 -0.1704  0.1769 -0.7207
   20MOL0     O 2596  -2.098   5.696   6.839 -0.4605  0.2270 -0.1368
   20MOL0     C 2597  -2.226   5.742   6.833 -0.3161 -0.1274  0.1166
   20MOL0     C 2598  -2.255   5.859   6.766 -0.6493  0.6594  0.0025
   20MOL0     C 2599  -2.383   5.899   6.750  0.3143  0.0402 -0.1061
   20MOL0     C 2600  -2.492   5.827   6.797  1.6211  0.7721 -0.3945
   20MOL0     O 2601  -2.626   5.862   6.784  0.0629  0.0058  0.2841
   20MOL0     C 2602  -2.654   5.936   6.664  0.3259  0.1998  0.7008
   20MOL0     C 2603  -2.801   5.924   6.655 -0.1053 -0.1205 -0.0106
   20MOL0     C 2604  -2.846   5.945   6.508  0.3439  0.4018 -0.5143
   20MOL0     C 2605  -2.858   6.097   6.475 -0.3686  0.5008 -0.2248
   20MOL0     C 2606  -2.985   6.157   6.539  0.3935  0.1499  0.4351
   20MOL0     C 2607  -3.104   6.152   6.450 -0.5818 -0.2216  0.4823
   20MOL0     C 2608  -3.218   6.233   6.522 -0.5587 -0.1537  0.1851
   20MOL0     C 2609  -3.352   6.214   6.455 -0.1453 -0.1376  0.1439
   20MOL0    Cl 2610  -3.451   6.315   6.551  0.2904 -0.2333 -0.0808
   20MOL0     C 2611  -2.464   5.709   6.872  0.1187 -0.6478 -0.2789
   20MOL0     C 2612  -2.333   5.666   6.888 -0.3255 -0.1076 -0.4399
   20MOL0     O 2613  -2.008   5.874   6.959  0.4635  0.4841 -0.6320
   20MOL0     C 2614  -1.859   5.571   6.956 -0.2295  0.4215 -0.0056
   20MOL0     C 2615  -1.744   5.511   6.978 -0.4268  0.2084  0.0201
   20MOL0     N 2616  -1.002   5.281   6.887  0.9688 -0.3647  0.5978
   20MOL0     N 2617  -0.892   5.226   6.913 -0.1551 -1.1205 -0.1736
   20MOL0     C 2618   0.137   4.586   6.810  0.8143 -0.1452 -0.8809
   20MOL0     C 2619   0.271   4.543   6.809 -0.8918 -0.1508 -0.2219
   20MOL0     C 2620   0.709   4.524   6.882  0.5380  0.0403 -0.0892
   20MOL0     C 2621   0.781   4.536   6.761  0.2497  0.4411 -0.2528
   20MOL0     C 2622   0.914   4.546   6.766  0.0889 -0.3250  0.2999
   20MOL0     C 2623   0.993   4.522   6.875  0.5544  1.1330  0.3781
   20MOL0     O 2624   1.127   4.551   6.863 -0.6084 -0.4494 -0.4657
   20MOL0     C 2625   1.204   4.520   6.978 -0.4837  0.3994 -0.6983
   20MOL0     C 2626   1.348   4.506   6.942 -0.3850 -0.2817 -0.4555
   20MOL0     C 2627   1.438   4.483   7.056  0.9861  1.0437 -0.1816
   20MOL0     C 2628   1.414   4.337   7.100  0.5933  0.3650  0.8140
   20MOL0     C 2629   1.510   4.302   7.215 -0.3542 -0.7605 -0.2236
   20MOL0     C 2630   1.581   4.273   7.314 -0.1238  0.1795 -0.0923
   20MOL0     C 2631   0.921   4.487   6.998 -0.2016 -0.1614  0.2534
   20MOL0     C 2632   0.780   4.490   6.995 -0.2694 -0.8215  0.0644
   20MOL0     H 2633   0.414   4.842   6.738  1.1925 -1.9697  0.1338
   20MOL0     H 2634   0.168   4.909   6.723 -1.9456  0.2766  0.2734
   20MOL0     H 2635  -0.057   4.732   6.980 -0.0782  1.6140  2.5345
   20MOL0     H 2636  -0.022   4.890   6.919 -2.3114  0.7756 -1.8245
   20MOL0     H 2637  -0.301   4.768   6.890 -0.0927  1.7607 -2.3185
   20MOL0     H 2638  -0.246   4.879   7.015  0.7542  0.7832  0.6430
   20MOL0     H 2639  -0.212   5.052   6.871 -0.0140  1.7625 -2.3383
   20MOL0     H 2640  -0.217   4.957   6.723 -1.0829  4.4231 -0.6183
   20MOL0     H 2641  -0.419   5.096   6.769  0.0239  0.7200 -0.2080
   20MOL0     H 2642  -0.472   4.935   6.735 -1.9923 -0.5489  1.9142
   20MOL0     H 2643  -0.499   4.886   6.971 -2.0769 -0.7524 -0.5893
   20MOL0     H 2644  -0.458   5.063   7.007  0.2238  1.2984 -1.6949
   20MOL0     H 2645  -0.631   5.142   6.878 -0.0981  0.7707  0.3824
   20MOL0     H 2646  -0.690   4.967   6.846  1.4311 -0.0722 -2.0048
   20MOL0     H 2647  -0.807   4.967   7.024  2.2293 -2.5453 -2.6223
   20MOL0     H 2648  -0.660   4.963   7.112  0.0288  0.1618  0.8595
   20MOL0     H 2649  -0.659   5.214   7.096  2.3215 -2.1703 -0.0212
   20MOL0     H 2650  -0.765   5.149   7.222 -1.4712  1.0511 -0.7769
   20MOL0     H 2651  -0.988   5.295   7.217  0.8674 -1.9996  1.0481
   20MOL0     H 2652  -1.170   5.504   7.025 -0.4143  0.0664  4.0259
   20MOL0     H 2653  -1.250   5.367   6.944 -0.7697 -0.6483  0.9076
   20MOL0     H 2654  -1.196   5.381   7.246 -2.1846  0.4492  2.5145
   20MOL0     H 2655  -1.273   5.244   7.163  1.3770  0.7246  1.1667
   20MOL0     H 2656  -1.386   5.532   7.194 -2.6367  0.4161 -1.2496
   20MOL0     H 2657  -1.433   5.393   7.277  2.3726  3.5875  3.2355
   20MOL0     H 2658  -1.594   5.379   7.119 -1.3356  2.0353 -1.1440
   20MOL0     H 2659  -1.467   5.317   7.006  2.2507  0.5078  0.6401
   20MOL0     H 2660  -1.538   5.780   6.934 -1.5994  2.5775 -1.2290
   20MOL0     H 2661  -1.748   5.999   6.989 -1.1844  2.1079 -2.7690
   20MOL0     H 2662  -1.648   5.962   6.852  1.7439  0.4250  1.5190
   20MOL0     H 2663  -1.827   5.955   6.841 -0.8642  0.1776  1.6646
   20MOL0     H 2664  -2.172   5.924   6.738  1.2249 -1.7269 -0.2936
   20MOL0     H 2665  -2.396   5.991   6.694 -1.2432  0.9674  1.6493
   20MOL0     H 2666  -2.625   6.041   6.675  1.9334 -0.0305 -0.8831
   20MOL0     H 2667  -2.607   5.889   6.577 -1.4121 -0.3536  0.0075
   20MOL0     H 2668  -2.826   5.822   6.685 -0.0559 -0.0481  0.2758
   20MOL0     H 2669  -2.850   5.983   6.733 -2.8405  1.1368 -2.4674
   20MOL0     H 2670  -2.946   5.903   6.493  1.5757 -1.9543 -3.1891
   20MOL0     H 2671  -2.774   5.899   6.439  0.1841 -3.4208  1.5507
   20MOL0     H 2672  -2.770   6.151   6.511  1.1178 -4.1739  4.4582
   20MOL0     H 2673  -2.866   6.104   6.366 -0.7717  2.2172 -0.1202
   20MOL0     H 2674  -2.964   6.264   6.546 -1.4620  0.6806 -1.1840
   20MOL0     H 2675  -3.007   6.117   6.638 -6.8041  2.0668  0.1733
   20MOL0     H 2676  -3.076   6.198   6.355  0.8488 -0.7788  0.6157
   20MOL0     H 2677  -3.122   6.046   6.428  0.0619  0.3106 -3.2060
   20MOL0     H 2678  -3.184   6.336   6.529  2.5065 -1.0592  0.0061
   20MOL0     H 2679  -3.232   6.198   6.625 -0.1516  2.4145  1.1783
   20MOL0     H 2680  -3.382   6.108   6.457  2.8401 -1.1029 -0.7800
   20MOL0     H 2681  -3.360   6.246   6.351 -0.7640 -1.9650 -0.4165
   20MOL0     H 2682  -2.555   5.661   6.906  0.3729 -0.7074  0.3333
   20MOL0     H 2683  -2.313   5.582   6.954  1.0565  1.0753  0.7225
   20MOL0     H 2684  -1.952   5.514   6.949  2.2287 -4.1238  0.8141
   20MOL0     H 2685  -1.756   5.403   6.983 -0.4765  0.2690  1.8533
   20MOL0     H 2686   0.062   4.511   6.833  0.4276  0.1998 -0.9970
   20MOL0     H 2687   0.306   4.445   6.838  0.7329  0.1811 -0.9220
   20MOL0     H 2688   0.739   4.547   6.662 -3.0890 -1.4572  0.8030
   20MOL0     H 2689   0.959   4.571   6.671 -2.1382  0.4412 -0.6203
   20MOL0     H 2690   1.200   4.592   7.060 -0.7087 -2.2985  1.8356
   20MOL0     H 2691   1.170   4.421   7.012  0.9976  0.8264  2.3766
   20MOL0     H 2692   1.370   4.607   6.906  0.2155  0.2791  1.3867
   20MOL0     H 2693   1.358   4.434   6.860  0.5911  0.4136 -0.9742
   20MOL0     H 2694   1.402   4.546   7.138  0.5929  0.0273  0.4537
   20MOL0     H 2695   1.545   4.501   7.043  0.8342  2.2985  0.1778
   20MOL0     H 2696   1.431   4.275   7.011  1.3564  0.1013  1.1336
   20MOL0     H 2697   1.310   4.317   7.126  0.1130  0.2092 -1.0591
   20MOL0     H 2698   1.652   4.241   7.387 -1.3332  1.0619  1.5552
   20MOL0     H 2699   0.970   4.473   7.093  2.1184  2.3355 -0.4392
   20MOL0     H 2700   0.717   4.474   7.082 -0.9624 -1.8351 -0.6102
   21MOL0     O 2701   3.308   3.253   4.858  0.2443  0.2891  0.4866
   21MOL0     C 2702   3.388   3.233   4.955 -0.2952  0.5112  0.3924
   21MOL0     O 2703   3.360   3.257   5.086 -0.2316  0.0784 -0.2892
   21MOL0     C 2704   3.233   3.294   5.116  1.6795 -0.0714  0.0819
   21MOL0     C 2705   3.116   3.227   5.067 -0.0517 -0.0997  0.8766
   21MOL0     C 2706   2.986   3.269   5.106  0.0220  0.0604  0.7518
   21MOL0     C 2707   2.978   3.375   5.196  0.2164 -0.3060 -0.7340
   21MOL0     O 2708   2.850   3.418   5.212 -0.1120 -0.0305 -0.8350
   21MOL0     C 2709   2.819   3.545   5.274 -0.1899  0.6464  1.0677
   21MOL0     C 2710   2.678   3.571   5.251  0.3863  0.0811  0.6822
   21MOL0     C 2711   2.634   3.701   5.314  0.3939  0.1791  0.0530
   21MOL0     C 2712   2.482   3.732   5.305  0.2102 -0.1812 -0.1429
   21MOL0     C 2713   2.395   3.629   5.386 -0.1840  0.6841 -0.0920
   21MOL0     C 2714   2.410   3.614   5.536  0.5226 -0.4049 -0.1849
   21MOL0     C 2715   2.322   3.504   5.595 -0.0733  0.1476 -0.3976
   21MOL0     C 2716   2.316   3.533   5.748 -0.1894  0.7529 -0.8240
   21MOL0     N 2717   2.224   3.443   5.812  0.1164  0.0498 -0.6796
   21MOL0     C 2718   2.260   3.321   5.872  0.1546 -0.4899  0.2127
   21MOL0     C 2719   2.137   3.278   5.928  0.2847 -0.2512  1.1473
   21MOL0     C 2720   2.130   3.142   5.994  0.0107 -1.0277 -0.2399
   21MOL0     C 2721   1.981   3.081   6.024 -0.4711 -0.2080  0.7002
   21MOL0     C 2722   1.895   3.172   6.116 -0.1199 -0.6858  0.0320
   21MOL0     C 2723   1.768   3.112   6.151 -0.2301  0.5978  0.3055
   21MOL0     O 2724   1.708   3.184   6.257  0.3396  0.1253  0.2518
   21MOL0     C 2725   1.567   3.168   6.262 -1.2904 -0.5389  0.1726
   21MOL0     C 2726   1.505   3.061   6.209 -0.2080 -0.1292 -0.7193
   21MOL0     C 2727   1.367   3.046   6.213  0.0194  0.3845  0.6798
   21MOL0     C 2728   1.317   2.932   6.129  0.6290  0.2775  0.1573
   21MOL0     C 2729   1.286   3.148   6.266 -0.0327 -0.1817 -0.5450
   21MOL0     C 2730   1.139   3.148   6.272 -0.8556 -0.2153  0.2360
   21MOL0     O 2731   1.094   3.255   6.343  0.2424 -0.0779  0.3536
   21MOL0     C 2732   0.971   3.274   6.396 -0.5523  1.1592 -0.1663
   21MOL0     C 2733   0.977   3.366   6.500  0.2735  0.4330  0.6694
   21MOL0     C 2734   0.869   3.392   6.580  0.3519  0.1340  0.9129
   21MOL0     C 2735   0.745   3.312   6.561 -0.1035 -1.2066  0.0387
   21MOL0     O 2736   0.634   3.337   6.631  0.2905  0.0302  0.1124
   21MOL0     C 2737   0.654   3.383   6.767 -0.4109  0.4369  0.5106
   21MOL0     C 2738   0.516   3.369   6.838 -0.3032  0.4450  0.6606
   21MOL0     C 2739   0.515   3.471   6.957 -0.1608 -0.1780 -0.7170
   21MOL0     C 2740   0.395   3.438   7.051  0.0079 -0.2683  0.5052
   21MOL0     C 2741   0.392   3.503   7.186  0.2283 -0.0906  0.1240
   21MOL0     C 2742   0.514   3.472   7.272 -0.0188 -0.6001 -0.9310
   21MOL0     C 2743   0.529   3.313   7.309 -0.2075 -0.4092  0.2659
   21MOL0     C 2744   0.601   3.307   7.448  0.1708 -0.5622  0.1478
   21MOL0    Cl 2745   0.477   3.334   7.588  0.2913  0.0321  0.3538
   21MOL0     C 2746   0.745   3.218   6.455 -0.4166  0.1496 -0.0684
   21MOL0     C 2747   0.860   3.200   6.377 -0.0109 -0.4142  0.0963
   21MOL0     O 2748   1.073   3.053   6.218  0.2775 -0.0175  0.1723
   21MOL0     C 2749   1.359   3.262   6.320  0.4495 -0.5171  0.2822
   21MOL0     C 2750   1.500   3.263   6.323  0.1116 -0.0721 -0.0385
   21MOL0     N 2751   2.035   3.352   5.877 -0.2108  0.1111  0.2098
   21MOL0     N 2752   2.087   3.444   5.808 -0.0847  0.4742  0.1296
   21MOL0     C 2753   3.093   3.439   5.247  0.8537 -0.1386 -0.0043
   21MOL0     C 2754   3.216   3.398   5.213 -1.3435  0.1974 -0.2473
   21MOL0     C 2755   3.521   3.215   4.922 -0.6196 -0.1962  0.3967
   21MOL0     C 2756   3.625   3.201   5.021 -1.1841  0.5569  0.6503
   21MOL0     C 2757   3.755   3.179   4.976  0.4395  0.6237 -0.2758
   21MOL0     C 2758   3.785   3.162   4.843 -0.0771 -0.7578 -0.0047
   21MOL0     O 2759   3.918   3.123   4.829  0.1679 -0.3260  0.2954
   21MOL0     C 2760   3.969   3.098   4.696  0.1129 -0.0187  0.2211
   21MOL0     C 2761   3.901   2.976   4.617  0.4322  0.3386 -0.5912
   21MOL0     C 2762   3.955   2.847   4.666  0.1936 -0.3170 -0.2323
   21MOL0     C 2763   3.871   2.724   4.637  0.8773 -0.4361  0.0163
   21MOL0     C 2764   3.742   2.726   4.701 -0.3227  0.2949  0.0438
   21MOL0     C 2765   3.631   2.711   4.748 -0.7119  0.0562  0.3345
   21MOL0     C 2766   3.688   3.191   4.745 -0.9669  0.5864 -0.2313
   21MOL0     C 2767   3.560   3.212   4.782 -0.0638  0.3075  0.8705
   21MOL0     H 2768   3.132   3.143   4.999  4.4382  0.5428  0.8164
   21MOL0     H 2769   2.893   3.231   5.065 -0.9256 -0.9059  3.5578
   21MOL0     H 2770   2.836   3.540   5.382  0.5931 -0.6705  0.9043
   21MOL0     H 2771   2.882   3.617   5.220 -0.3710 -1.9903 -3.1725
   21MOL0     H 2772   2.670   3.582   5.142  2.9310 -1.4568  0.2425
   21MOL0     H 2773   2.616   3.493   5.295 -2.1170  2.3103  1.3621
   21MOL0     H 2774   2.663   3.706   5.419 -0.1512  0.9190  0.1832
   21MOL0     H 2775   2.685   3.783   5.261 -0.7033  2.1688  1.9135
   21MOL0     H 2776   2.465   3.831   5.347  0.4178 -0.0878 -0.2753
   21MOL0     H 2777   2.444   3.733   5.202  0.4002  1.0016 -0.2153
   21MOL0     H 2778   2.290   3.652   5.367 -0.6952 -1.3113  0.0374
   21MOL0     H 2779   2.414   3.528   5.347 -0.8691  0.3688  0.3741
   21MOL0     H 2780   2.514   3.611   5.569  0.3993  0.6361  0.3632
   21MOL0     H 2781   2.368   3.708   5.574 -0.5323 -1.2662  0.8663
   21MOL0     H 2782   2.227   3.499   5.541  1.3352 -0.7984 -3.0102
   21MOL0     H 2783   2.389   3.419   5.580  0.0102  0.3170 -1.0329
   21MOL0     H 2784   2.267   3.630   5.765  0.4913  0.9157  0.3059
   21MOL0     H 2785   2.412   3.536   5.799 -0.9052 -2.2026  0.9018
   21MOL0     H 2786   2.358   3.275   5.875  0.0216 -0.7534  0.6533
   21MOL0     H 2787   2.195   3.080   5.931  2.8204 -0.5397  1.9494
   21MOL0     H 2788   2.179   3.158   6.091  1.0933  2.5548 -1.2123
   21MOL0     H 2789   1.993   2.980   6.064 -0.2240  0.7700  3.2250
   21MOL0     H 2790   1.936   3.064   5.925  1.9570 -1.2317 -0.3031
   21MOL0     H 2791   1.889   3.268   6.064  0.4430 -0.9716 -0.5761
   21MOL0     H 2792   1.952   3.189   6.208  1.5246 -1.1191 -0.8494
   21MOL0     H 2793   1.777   3.004   6.168 -0.2810  0.5218 -0.1416
   21MOL0     H 2794   1.703   3.127   6.064 -1.4773 -1.1786  0.8672
   21MOL0     H 2795   1.557   2.970   6.178 -0.5814  0.2066 -2.3626
   21MOL0     H 2796   1.272   2.852   6.188  0.0309 -1.0518 -1.9755
   21MOL0     H 2797   1.237   2.958   6.058  0.2704  0.4135  0.6045
   21MOL0     H 2798   1.401   2.899   6.067  0.5491  1.4003 -0.5785
   21MOL0     H 2799   1.065   3.429   6.509  0.6733 -0.1754  1.0962
   21MOL0     H 2800   0.881   3.472   6.651  0.5774  1.1840 -0.2694
   21MOL0     H 2801   0.730   3.325   6.820  1.3452 -1.0131 -3.2856
   21MOL0     H 2802   0.679   3.489   6.757 -1.8791  0.9009  1.3965
   21MOL0     H 2803   0.436   3.390   6.767  0.5250  1.4188 -0.0213
   21MOL0     H 2804   0.508   3.266   6.873  1.5254 -0.6843 -1.9355
   21MOL0     H 2805   0.525   3.579   6.942  2.1122 -0.0455  1.1855
   21MOL0     H 2806   0.610   3.444   7.004  0.4243 -2.4959 -3.0040
   21MOL0     H 2807   0.309   3.491   7.009  1.1729  1.1001 -0.2440
   21MOL0     H 2808   0.371   3.332   7.065 -0.9623  0.1754  2.5815
   21MOL0     H 2809   0.298   3.480   7.237 -0.1200  0.7919 -0.0893
   21MOL0     H 2810   0.396   3.612   7.177 -2.0554  0.1174  0.7664
   21MOL0     H 2811   0.606   3.496   7.219  0.7679  0.9881  1.0150
   21MOL0     H 2812   0.518   3.540   7.357 -1.1331  1.4148 -2.4168
   21MOL0     H 2813   0.593   3.269   7.232 -0.5761 -2.8167  1.2639
   21MOL0     H 2814   0.432   3.262   7.312 -0.8925  0.8809  2.7021
   21MOL0     H 2815   0.695   3.363   7.450  0.5486 -1.1614  2.8328
   21MOL0     H 2816   0.637   3.207   7.473  0.6363 -0.2359  0.8234
   21MOL0     H 2817   0.650   3.170   6.433 -1.7482  3.9079 -3.9500
   21MOL0     H 2818   0.854   3.129   6.296 -1.3082 -0.3450  0.1161
   21MOL0     H 2819   1.314   3.346   6.373 -0.2516 -1.3200  1.0056
   21MOL0     H 2820   1.554   3.343   6.373 -1.7665  0.4070  1.3197
   21MOL0     H 2821   3.077   3.524   5.313 -0.6657 -0.7235  0.4354
   21MOL0     H 2822   3.301   3.450   5.257  1.2858 -3.4343 -0.5860
   21MOL0     H 2823   3.611   3.205   5.128  2.6546 -0.0909  1.3067
   21MOL0     H 2824   3.840   3.183   5.043 -1.3474 -0.0636  2.2083
   21MOL0     H 2825   3.964   3.181   4.625 -0.4898 -1.1982 -1.1547
   21MOL0     H 2826   4.078   3.086   4.698  0.3945  1.0551 -3.0155
   21MOL0     H 2827   3.939   2.977   4.514  1.3131 -1.7989 -0.3276
   21MOL0     H 2828   3.792   2.972   4.614  0.4704 -3.3542 -1.8443
   21MOL0     H 2829   3.968   2.856   4.774 -1.0115  4.0786 -0.2764
   21MOL0     H 2830   4.046   2.830   4.609  0.5244 -1.8302  0.6821
   21MOL0     H 2831   3.930   2.633   4.656  0.6367 -0.6315 -0.1718
   21MOL0     H 2832   3.861   2.740   4.530  1.4708 -2.1941 -0.3483
   21MOL0     H 2833   3.539   2.708   4.802 -1.0848 -0.7539 -0.3268
   21MOL0     H 2834   3.728   3.186   4.644  1.7359 -0.6649  0.7855
   21MOL0     H 2835   3.488   3.218   4.702  0.9802  2.2174  0.0282
   22MOL0     O 2836  10.705   5.691   5.223  0.2774  0.2907  0.9296
   22MOL0     C 2837  10.648   5.763   5.311 -0.0400 -1.2683  1.0647
   22MOL0     O 2838  10.518   5.791   5.319 -0.1124  0.1733  0.3682
   22MOL0     C 2839  10.427   5.734   5.232  0.5779 -0.4625  0.0187
   22MOL0     C 2840  10.332   5.819   5.177 -0.6370 -0.0284 -0.2266
   22MOL0     C 2841  10.235   5.767   5.084  1.0172 -0.4188 -0.2555
   22MOL0     C 2842  10.233   5.628   5.055  0.2431  0.2621  0.9289
   22MOL0     O 2843  10.141   5.572   4.971  0.5225 -0.3707  0.5572
   22MOL0     C 2844  10.006   5.613   4.981  0.6033  0.4492 -0.3868
   22MOL0     C 2845   9.981   5.705   4.864 -0.8716 -0.2575  0.8022
   22MOL0     C 2846   9.830   5.753   4.852 -0.9493  0.1135 -0.8424
   22MOL0     C 2847   9.725   5.642   4.808 -0.3143 -0.4110  0.1508
   22MOL0     C 2848   9.575   5.668   4.852 -0.3608  0.9886  0.2687
   22MOL0     C 2849   9.481   5.592   4.751 -0.5926 -0.5871 -0.5480
   22MOL0     C 2850   9.335   5.603   4.771  0.1895  0.2663 -0.5648
   22MOL0     C 2851   9.271   5.527   4.653 -0.0544 -0.2570  0.4555
   22MOL0     N 2852   9.124   5.522   4.659  0.4818 -0.2976  0.3774
   22MOL0     C 2853   9.046   5.433   4.597 -0.3627 -0.9465  0.2108
   22MOL0     C 2854   8.927   5.506   4.593  0.3771 -0.7723 -0.1549
   22MOL0     C 2855   8.803   5.471   4.512  0.2884 -0.9864 -0.2205
   22MOL0     C 2856   8.840   5.395   4.380  0.6296  0.6218 -0.7555
   22MOL0     C 2857   8.720   5.369   4.287  1.2501 -1.1540 -0.5066
   22MOL0     C 2858   8.773   5.272   4.171  0.5278 -0.0232  0.2004
   22MOL0     O 2859   8.901   5.313   4.137 -0.2495  0.1255 -0.9393
   22MOL0     C 2860   8.987   5.229   4.081 -0.3630 -0.7033  0.4521
   22MOL0     C 2861   9.125   5.280   4.077 -0.1884 -0.9490  0.1673
   22MOL0     C 2862   9.214   5.210   4.003 -0.0715 -1.1208  0.7104
   22MOL0     C 2863   9.351   5.262   3.990  0.5164 -0.0372 -0.2739
   22MOL0     C 2864   9.179   5.090   3.937 -0.0562 -0.0783  0.2757
   22MOL0     C 2865   9.276   4.991   3.878  0.1681 -0.4323 -0.3758
   22MOL0     O 2866   9.233   4.921   3.766  0.1825 -0.3419  0.4101
   22MOL0     C 2867   9.307   4.807   3.738  0.7295 -0.0019  0.4844
   22MOL0     C 2868   9.229   4.696   3.734 -0.4062  0.7575  0.0285
   22MOL0     C 2869   9.285   4.572   3.702 -0.1434 -1.0529 -0.0788
   22MOL0     C 2870   9.423   4.555   3.686  0.1881 -0.2014  0.4992
   22MOL0     O 2871   9.475   4.434   3.656 -0.5002  0.2959 -0.8629
   22MOL0     C 2872   9.400   4.333   3.589  0.1008 -0.0322  0.8011
   22MOL0     C 2873   9.511   4.241   3.524 -0.2470 -0.2108  0.1296
   22MOL0     C 2874   9.576   4.140   3.627  0.0930  0.0541  0.6685
   22MOL0     C 2875   9.657   4.204   3.731  0.1214  0.8756 -0.0034
   22MOL0     C 2876   9.729   4.102   3.815  0.2625 -0.0519  0.4379
   22MOL0     C 2877   9.869   4.049   3.764  0.3084 -0.3094 -0.3622
   22MOL0     C 2878   9.923   3.969   3.881  0.1924  0.8553  0.2307
   22MOL0     C 2879  10.060   3.926   3.829 -0.3646 -0.9619 -0.3271
   22MOL0    Cl 2880  10.163   3.846   3.965  0.1967 -0.4900  0.1071
   22MOL0     C 2881   9.503   4.672   3.699 -0.2294 -0.0257  0.2928
   22MOL0     C 2882   9.441   4.800   3.726  0.2669 -0.5455 -0.6703
   22MOL0     O 2883   9.369   4.966   3.953  0.6075  0.1512 -0.3872
   22MOL0     C 2884   9.045   5.046   3.941  0.2553 -0.1689 -0.4553
   22MOL0     C 2885   8.947   5.117   4.011  0.1476  0.4671 -0.7378
   22MOL0     N 2886   8.932   5.618   4.668  0.0948 -0.7112 -0.1972
   22MOL0     N 2887   9.048   5.626   4.713  0.5322  0.2242 -0.7567
   22MOL0     C 2888  10.331   5.546   5.102 -0.3582 -0.1669  0.0599
   22MOL0     C 2889  10.431   5.594   5.190 -0.3347 -0.0333  0.6014
   22MOL0     C 2890  10.740   5.830   5.404 -0.0632 -0.1776  0.5226
   22MOL0     C 2891  10.681   5.908   5.505 -0.7194 -1.0016 -0.2003
   22MOL0     C 2892  10.756   5.980   5.598  0.6662 -0.3976 -0.9031
   22MOL0     C 2893  10.890   5.959   5.607 -0.0202 -0.1090  0.0355
   22MOL0     O 2894  10.968   6.018   5.704 -0.3045 -0.0820 -0.2549
   22MOL0     C 2895  10.925   6.070   5.827  0.0729  0.3928  1.1597
   22MOL0     C 2896  10.924   5.970   5.939 -0.0191 -0.9426  0.1750
   22MOL0     C 2897  10.792   5.904   5.961  0.9361 -0.1145 -0.1543
   22MOL0     C 2898  10.786   5.782   6.047 -0.9617 -0.1628  0.3721
   22MOL0     C 2899  10.839   5.810   6.183  0.1907  0.3669  0.5551
   22MOL0     C 2900  10.871   5.829   6.299  0.1379  0.0941 -0.4186
   22MOL0     C 2901  10.948   5.872   5.509 -0.6206 -0.0119 -0.3649
   22MOL0     C 2902  10.874   5.815   5.405 -0.3204 -0.5342 -0.1059
   22MOL0     H 2903  10.339   5.926   5.193  2.1586 -0.0222 -0.9300
   22MOL0     H 2904  10.160   5.831   5.041 -0.9356 -1.2281  1.7562
   22MOL0     H 2905   9.929   5.536   4.989 -0.1167  1.0703 -1.1570
   22MOL0     H 2906   9.995   5.668   5.075 -0.4257 -0.2919 -0.0513
   22MOL0     H 2907  10.056   5.785   4.865 -0.9366 -0.0421 -1.9983
   22MOL0     H 2908  10.018   5.654   4.775  0.7298 -0.2169  1.4064
   22MOL0     H 2909   9.815   5.781   4.956  2.5305  0.7435 -0.3905
   22MOL0     H 2910   9.813   5.843   4.793 -1.9672  0.4643 -0.0313
   22MOL0     H 2911   9.732   5.634   4.699  0.4701  0.5280  0.1173
   22MOL0     H 2912   9.754   5.545   4.849  1.0097  0.2826  0.9103
   22MOL0     H 2913   9.558   5.631   4.953  0.5843 -0.2220  0.0160
   22MOL0     H 2914   9.541   5.771   4.859 -1.6347  0.4951  1.8009
   22MOL0     H 2915   9.499   5.633   4.651 -2.1583 -0.5336 -0.8295
   22MOL0     H 2916   9.503   5.485   4.743  0.0351 -0.7285  1.9990
   22MOL0     H 2917   9.319   5.560   4.871  1.4404 -0.4377 -0.6335
   22MOL0     H 2918   9.303   5.707   4.774 -3.6816 -0.7088 -2.0064
   22MOL0     H 2919   9.312   5.426   4.652  3.5764  1.0555  1.8715
   22MOL0     H 2920   9.302   5.581   4.563  2.0002 -0.0053  1.2690
   22MOL0     H 2921   9.068   5.346   4.537  1.4109 -0.0042 -0.5717
   22MOL0     H 2922   8.743   5.410   4.580 -0.6828  0.7220  0.5518
   22MOL0     H 2923   8.750   5.564   4.488 -0.7220 -2.1897 -3.1104
   22MOL0     H 2924   8.903   5.311   4.409  0.2776 -0.3701 -2.6961
   22MOL0     H 2925   8.903   5.464   4.323  1.8165  0.4727  0.3510
   22MOL0     H 2926   8.691   5.459   4.232 -1.7863 -1.5632  0.2673
   22MOL0     H 2927   8.641   5.325   4.349  0.1795  0.7209 -0.4602
   22MOL0     H 2928   8.712   5.276   4.080  1.7084  3.3906 -0.5699
   22MOL0     H 2929   8.780   5.168   4.206  0.2323  0.2424  1.0759
   22MOL0     H 2930   9.162   5.364   4.134 -0.6441 -0.4331 -0.2897
   22MOL0     H 2931   9.356   5.371   4.004 -2.7897 -0.1432  3.1396
   22MOL0     H 2932   9.423   5.209   4.052  0.5865 -2.0155 -1.9525
   22MOL0     H 2933   9.383   5.250   3.886 -2.3938  1.2986 -1.4336
   22MOL0     H 2934   9.122   4.704   3.751 -1.0101 -1.3123 -2.0871
   22MOL0     H 2935   9.208   4.495   3.698 -4.2892  2.7047 -0.0507
   22MOL0     H 2936   9.346   4.263   3.654 -0.2648  1.1262  1.7702
   22MOL0     H 2937   9.323   4.371   3.522 -0.7420 -2.3110  0.3782
   22MOL0     H 2938   9.470   4.180   3.443  1.4021 -1.1475 -0.0323
   22MOL0     H 2939   9.578   4.315   3.482 -1.0365  0.2963 -0.2592
   22MOL0     H 2940   9.634   4.062   3.576 -1.2948 -0.9102  0.5090
   22MOL0     H 2941   9.490   4.080   3.660  0.1509 -1.8786 -2.3107
   22MOL0     H 2942   9.725   4.272   3.678 -0.9248  1.0279 -1.2107
   22MOL0     H 2943   9.595   4.265   3.797 -1.5992 -0.2595 -0.5109
   22MOL0     H 2944   9.661   4.020   3.840 -1.5357  1.3715  0.3280
   22MOL0     H 2945   9.756   4.148   3.910  4.4759 -2.9262  0.9668
   22MOL0     H 2946   9.860   3.992   3.671 -1.9343 -3.0126  1.3273
   22MOL0     H 2947   9.937   4.133   3.748  2.3073 -1.5297  1.2776
   22MOL0     H 2948   9.868   3.875   3.896  2.3741 -0.3916  0.9714
   22MOL0     H 2949   9.925   4.025   3.975  1.1727  3.0356 -1.0159
   22MOL0     H 2950  10.111   4.014   3.789  2.6049 -0.9573  3.0088
   22MOL0     H 2951  10.050   3.849   3.752  2.5514  0.6009 -2.4574
   22MOL0     H 2952   9.611   4.670   3.687 -0.2993  0.8999 -0.6023
   22MOL0     H 2953   9.503   4.888   3.742  0.1556 -0.2264 -1.8867
   22MOL0     H 2954   9.006   4.963   3.882 -0.7968  1.6454 -2.4651
   22MOL0     H 2955   8.848   5.073   3.996  1.9248 -4.4002  0.0471
   22MOL0     H 2956  10.347   5.442   5.078  1.2345 -0.3200  1.5983
   22MOL0     H 2957  10.511   5.529   5.225  0.4257  0.7663  0.3980
   22MOL0     H 2958  10.574   5.924   5.502 -0.8264 -1.5688  0.3137
   22MOL0     H 2959  10.706   6.038   5.675  1.4866 -1.5833  0.5653
   22MOL0     H 2960  10.987   6.155   5.853 -0.2295  0.9991 -0.0534
   22MOL0     H 2961  10.826   6.115   5.820  0.0314  0.1097 -0.2682
   22MOL0     H 2962  10.938   6.043   6.019 -0.3350  0.4586 -0.9970
   22MOL0     H 2963  11.013   5.908   5.945 -0.4565 -1.4171  3.2936
   22MOL0     H 2964  10.745   5.894   5.863 -0.4992 -0.6832  0.5571
   22MOL0     H 2965  10.730   5.980   6.010  2.3665  0.7314  0.3813
   22MOL0     H 2966  10.844   5.699   6.005 -0.3691  0.9907 -1.1938
   22MOL0     H 2967  10.683   5.745   6.053 -1.3750  0.9100  0.1949
   22MOL0     H 2968  10.891   5.846   6.403  1.1510  0.1894 -0.6183
   22MOL0     H 2969  11.051   5.842   5.524 -1.1310 -0.6324  2.3832
   22MOL0     H 2970  10.932   5.751   5.339  0.2939  0.0545 -0.1514
   23MOL0     O 2971   3.116   7.373   3.919 -0.0211 -0.2739 -0.9576
   23MOL0     C 2972   3.192   7.362   4.016 -0.1820 -1.0101 -0.5237
   23MOL0     O 2973   3.159   7.386   4.147  0.1803 -0.4503 -0.5906
   23MOL0     C 2974   3.042   7.456   4.167 -0.2637  0.0147  0.1653
   23MOL0     C 2975   3.013   7.588   4.122 -0.5412  0.3211 -0.2001
   23MOL0     C 2976   2.891   7.649   4.165 -0.2670 -0.2358  0.8933
   23MOL0     C 2977   2.802   7.582   4.253  0.1552 -0.0876 -0.0209
   23MOL0     O 2978   2.705   7.660   4.306  0.4601 -0.0660  0.0812
   23MOL0     C 2979   2.654   7.625   4.436 -0.4512 -1.1772  0.4059
   23MOL0     C 2980   2.545   7.729   4.482 -0.1590 -0.2636 -0.3696
   23MOL0     C 2981   2.612   7.858   4.541  0.0589 -0.2495  0.5875
   23MOL0     C 2982   2.522   7.973   4.523  0.0595 -0.0707  0.2580
   23MOL0     C 2983   2.594   8.091   4.580 -0.4398 -0.2247  1.2624
   23MOL0     C 2984   2.486   8.216   4.600 -0.1162  0.0076 -0.1502
   23MOL0     C 2985   2.550   8.354   4.608  0.2374 -0.0829  0.4217
   23MOL0     C 2986   2.616   8.394   4.741 -0.0252  0.4912 -0.1428
   23MOL0     N 2987   2.631   8.538   4.742  0.0619  0.4139  0.6667
   23MOL0     C 2988   2.738   8.605   4.692  0.3672  0.2602 -0.3644
   23MOL0     C 2989   2.715   8.734   4.727  0.2181 -0.3893  0.4286
   23MOL0     C 2990   2.816   8.831   4.693 -0.4198 -0.4672 -0.1924
   23MOL0     C 2991   2.818   8.886   4.547  0.4125 -0.1081 -0.0015
   23MOL0     C 2992   2.677   8.907   4.498  0.5241 -1.5785 -0.6692
   23MOL0     C 2993   2.610   9.015   4.580 -0.5425 -0.5827  0.5290
   23MOL0     O 2994   2.496   9.062   4.514  0.1171 -0.1723  0.0165
   23MOL0     C 2995   2.372   9.005   4.537  0.5327 -0.3801  0.4071
   23MOL0     C 2996   2.357   8.875   4.590 -0.3230 -0.0129  0.4134
   23MOL0     C 2997   2.232   8.818   4.598  0.3326  0.1293 -0.0834
   23MOL0     C 2998   2.226   8.676   4.665  0.2603  0.6535  0.2784
   23MOL0     C 2999   2.114   8.894   4.558  0.1480 -0.2229 -1.2021
   23MOL0     C 3000   1.977   8.852   4.593  0.6429  0.1380  0.7782
   23MOL0     O 3001   1.877   8.941   4.550 -0.1187  0.2372  0.1846
   23MOL0     C 3002   1.748   8.902   4.575 -0.5054  0.6916 -1.0694
   23MOL0     C 3003   1.696   8.944   4.696 -0.7655  0.4447 -0.2250
   23MOL0     C 3004   1.567   8.903   4.728  0.4519  0.7308  0.0919
   23MOL0     C 3005   1.491   8.822   4.645  0.1212  0.4245  0.0862
   23MOL0     O 3006   1.360   8.786   4.672 -0.1166 -0.5216  0.0431
   23MOL0     C 3007   1.280   8.875   4.753 -0.9188  0.9453 -0.0369
   23MOL0     C 3008   1.139   8.857   4.707  0.5975 -0.6453  0.4115
   23MOL0     C 3009   1.037   8.932   4.778  0.3373 -0.2590 -0.4665
   23MOL0     C 3010   1.032   8.919   4.931  0.1857  0.6136  0.7897
   23MOL0     C 3011   0.888   8.927   4.976 -0.6664  0.4597 -0.5325
   23MOL0     C 3012   0.873   8.946   5.129  0.0472 -0.1682 -0.0337
   23MOL0     C 3013   0.724   8.976   5.161 -0.5410  0.5649 -0.3223
   23MOL0     C 3014   0.659   8.845   5.178 -0.2994 -1.0858  0.1827
   23MOL0    Cl 3015   0.504   8.885   5.240  0.1452 -0.4755  0.5826
   23MOL0     C 3016   1.545   8.786   4.521 -0.4706  0.4132  0.1340
   23MOL0     C 3017   1.670   8.823   4.488 -0.4415 -1.0514 -0.7723
   23MOL0     O 3018   1.959   8.748   4.653  0.3882 -0.1647  0.0849
   23MOL0     C 3019   2.131   9.024   4.507  1.3132  0.0489 -0.2431
   23MOL0     C 3020   2.261   9.075   4.493  0.6538  0.7441  1.0971
   23MOL0     N 3021   2.589   8.744   4.797 -0.2241  0.5692 -0.6981
   23MOL0     N 3022   2.542   8.624   4.802 -0.4607  0.8251 -0.1875
   23MOL0     C 3023   2.830   7.449   4.291 -0.7962 -0.3584 -0.1533
   23MOL0     C 3024   2.948   7.393   4.250 -0.3794 -0.2150  0.0764
   23MOL0     C 3025   3.316   7.279   3.996 -0.7929  0.1788 -0.1763
   23MOL0     C 3026   3.404   7.250   4.099  0.3665  0.1396 -0.8101
   23MOL0     C 3027   3.515   7.169   4.079  0.4957  0.0208 -0.0642
   23MOL0     C 3028   3.550   7.131   3.954 -0.6170 -0.2190  0.2069
   23MOL0     O 3029   3.670   7.066   3.921 -0.1228  0.4088 -0.1735
   23MOL0     C 3030   3.760   7.014   4.027  0.1112 -0.7733  0.2889
   23MOL0     C 3031   3.905   7.011   3.957  0.5771 -0.3336 -0.4139
   23MOL0     C 3032   3.992   6.949   4.061 -0.8835 -0.0926 -0.3240
   23MOL0     C 3033   4.133   6.915   4.019  0.3909 -0.1929 -0.2280
   23MOL0     C 3034   4.232   6.949   4.120  0.1504  0.9615  0.5358
   23MOL0     C 3035   4.315   6.988   4.204  0.6118  1.0534  1.2167
   23MOL0     C 3036   3.473   7.173   3.838  0.5096  0.2279  0.0261
   23MOL0     C 3037   3.355   7.237   3.868  0.2213  0.8511  0.5295
   23MOL0     H 3038   3.086   7.653   4.074 -1.6347  1.2199 -0.7043
   23MOL0     H 3039   2.880   7.752   4.131 -1.3648 -1.2950 -2.2778
   23MOL0     H 3040   2.598   7.532   4.446 -0.4294 -0.9974  2.9118
   23MOL0     H 3041   2.746   7.613   4.494 -0.0136 -4.4222 -0.7736
   23MOL0     H 3042   2.487   7.750   4.392 -0.3163  1.5473  0.1128
   23MOL0     H 3043   2.486   7.681   4.561 -2.1817 -0.1467 -1.7347
   23MOL0     H 3044   2.629   7.841   4.648  0.6621  0.5654  0.6325
   23MOL0     H 3045   2.707   7.868   4.487  0.0537 -0.3558  0.5576
   23MOL0     H 3046   2.514   7.992   4.415  2.4956 -0.2697 -0.0198
   23MOL0     H 3047   2.424   7.958   4.570  1.2807  0.2561  3.0927
   23MOL0     H 3048   2.639   8.062   4.676  2.2276 -0.0038  0.1861
   23MOL0     H 3049   2.669   8.125   4.507 -1.0137  1.9968  1.6277
   23MOL0     H 3050   2.427   8.220   4.507  0.6892 -0.7071 -0.7074
   23MOL0     H 3051   2.417   8.203   4.684  1.6469  0.9945  1.5278
   23MOL0     H 3052   2.617   8.381   4.526  1.9298 -2.4846  0.8923
   23MOL0     H 3053   2.470   8.428   4.605  0.0658 -0.2369  0.9723
   23MOL0     H 3054   2.711   8.340   4.755 -1.4550 -2.3113 -0.5885
   23MOL0     H 3055   2.556   8.363   4.827 -0.6761 -0.4795 -0.9334
   23MOL0     H 3056   2.816   8.573   4.623 -1.2423 -2.3315 -1.1461
   23MOL0     H 3057   2.792   8.915   4.760  0.4298 -0.2707 -0.1319
   23MOL0     H 3058   2.920   8.803   4.710 -0.9097 -2.3608 -0.0681
   23MOL0     H 3059   2.860   8.803   4.489 -5.1484 -3.7752  0.4372
   23MOL0     H 3060   2.871   8.981   4.544 -0.2140  0.2364 -0.1756
   23MOL0     H 3061   2.614   8.817   4.490 -1.9967  0.1166 -1.2719
   23MOL0     H 3062   2.675   8.936   4.392  1.3134 -2.9540 -1.0818
   23MOL0     H 3063   2.684   9.095   4.579  1.6157 -2.4064 -2.9100
   23MOL0     H 3064   2.584   8.983   4.682  1.6558 -0.6325  1.1194
   23MOL0     H 3065   2.437   8.812   4.629  1.9335  1.4817 -1.5213
   23MOL0     H 3066   2.163   8.606   4.610 -0.8986  0.8948  1.2550
   23MOL0     H 3067   2.320   8.620   4.665 -0.1044 -0.0441  2.1768
   23MOL0     H 3068   2.203   8.670   4.772  0.2815  0.4697  0.2738
   23MOL0     H 3069   1.761   8.992   4.768  2.9793 -1.7025 -1.8437
   23MOL0     H 3070   1.536   8.937   4.826  1.3806  2.6925 -0.2452
   23MOL0     H 3071   1.299   8.855   4.859  0.8737 -2.0562 -0.8278
   23MOL0     H 3072   1.302   8.982   4.759 -2.9594  1.3345  2.3412
   23MOL0     H 3073   1.143   8.877   4.600 -0.2169  0.5119  0.5788
   23MOL0     H 3074   1.116   8.750   4.716  1.7935 -0.7085  4.7325
   23MOL0     H 3075   0.943   8.893   4.737  0.3259  1.1096 -1.8072
   23MOL0     H 3076   1.033   9.040   4.762 -0.2410 -0.1014  0.6268
   23MOL0     H 3077   1.060   8.827   4.984 -1.8583  0.2376  1.2940
   23MOL0     H 3078   1.084   9.003   4.978 -0.0250  0.1626  1.8644
   23MOL0     H 3079   0.836   8.833   4.955 -4.9278  2.7951 -1.7558
   23MOL0     H 3080   0.839   9.004   4.915  1.6311  2.1097 -0.4184
   23MOL0     H 3081   0.902   8.856   5.184  0.6981 -1.1015 -1.8464
   23MOL0     H 3082   0.939   9.031   5.149 -0.7817  0.5850 -0.4569
   23MOL0     H 3083   0.681   9.052   5.096  0.2468  2.3524  1.1689
   23MOL0     H 3084   0.722   9.019   5.261 -0.6684 -0.5927  0.1953
   23MOL0     H 3085   0.714   8.776   5.242 -0.4341 -1.6824 -0.3419
   23MOL0     H 3086   0.657   8.799   5.079  2.5220  1.7105 -1.3574
   23MOL0     H 3087   1.493   8.720   4.451 -0.0711 -0.7599  0.9188
   23MOL0     H 3088   1.712   8.809   4.389 -3.1025  2.8304 -2.6988
   23MOL0     H 3089   2.044   9.081   4.476  0.9414 -0.5672 -0.3585
   23MOL0     H 3090   2.278   9.176   4.457 -1.2859  0.1189 -1.9701
   23MOL0     H 3091   2.765   7.394   4.359 -0.7435 -0.6434 -0.3293
   23MOL0     H 3092   2.964   7.288   4.272 -3.9433 -0.5502  1.7302
   23MOL0     H 3093   3.369   7.298   4.190 -2.0563 -2.3957 -0.2692
   23MOL0     H 3094   3.576   7.147   4.167 -1.1516  0.7975  1.3428
   23MOL0     H 3095   3.763   7.070   4.121  1.1344 -0.4624  0.0817
   23MOL0     H 3096   3.736   6.910   4.053  0.7320 -0.4701  2.2549
   23MOL0     H 3097   3.942   7.110   3.929  2.1108 -0.9951 -0.8561
   23MOL0     H 3098   3.901   6.947   3.868 -2.8076 -1.9753  0.7392
   23MOL0     H 3099   3.953   6.853   4.096  4.8176 -2.9906 -0.8066
   23MOL0     H 3100   3.998   7.027   4.139  1.2631 -2.0205  1.5815
   23MOL0     H 3101   4.154   6.948   3.917 -0.0397  0.8816  0.0130
   23MOL0     H 3102   4.134   6.806   4.005 -4.9248 -0.2369 -3.1405
   23MOL0     H 3103   4.392   7.014   4.273  2.0215  0.3275 -0.0453
   23MOL0     H 3104   3.498   7.148   3.735  1.7746 -2.7317  0.9529
   23MOL0     H 3105   3.289   7.257   3.784 -1.1090 -0.5710  1.1710
   24MOL0     O 3106   0.280   0.876   8.813  0.0954 -0.2724 -0.3699
   24MOL0     C 3107   0.237   0.797   8.737  0.2365  0.0097 -0.0934
   24MOL0     O 3108   0.099   0.783   8.711 -0.4402 -0.6575 -0.2784
   24MOL0     C 3109  -0.006   0.830   8.786 -0.3911  0.0419 -0.8510
   24MOL0     C 3110  -0.126   0.847   8.719 -0.9162  0.9510 -0.1742
   24MOL0     C 3111  -0.240   0.894   8.783  0.2896  0.0161 -0.1524
   24MOL0     C 3112  -0.236   0.924   8.918 -1.1036  0.7123 -1.3365
   24MOL0     O 3113  -0.353   0.935   8.988 -0.1229 -0.6795  0.4070
   24MOL0     C 3114  -0.347   0.944   9.129 -0.0228  0.6899  0.0282
   24MOL0     C 3115  -0.482   0.908   9.180  0.8559  0.1663 -0.2930
   24MOL0     C 3116  -0.597   1.007   9.142 -0.7819 -0.7133  0.0210
   24MOL0     C 3117  -0.713   0.972   9.235  0.0873  0.7906 -1.0295
   24MOL0     C 3118  -0.827   1.047   9.192 -0.5612 -0.4161  0.2763
   24MOL0     C 3119  -0.956   1.041   9.266  0.5535  0.1351 -0.1097
   24MOL0     C 3120  -1.090   1.076   9.196 -0.7416  0.3332 -0.1562
   24MOL0     C 3121  -1.121   0.976   9.082  0.5948 -0.1538  0.3743
   24MOL0     N 3122  -1.178   1.042   8.961 -0.6148  0.5129 -0.1357
   24MOL0     C 3123  -1.284   1.125   8.969 -0.2157  0.5352  0.2611
   24MOL0     C 3124  -1.287   1.170   8.842  0.2370 -0.2373  0.7891
   24MOL0     C 3125  -1.396   1.270   8.799  0.0903  0.7150 -0.4463
   24MOL0     C 3126  -1.409   1.266   8.644  0.3463  1.1515 -0.1493
   24MOL0     C 3127  -1.478   1.135   8.602 -0.0730  1.4401  0.3495
   24MOL0     C 3128  -1.633   1.143   8.606  0.0867 -0.0816  0.1756
   24MOL0     O 3129  -1.676   1.013   8.585  0.6041  0.6211 -0.0314
   24MOL0     C 3130  -1.810   0.988   8.596 -1.0437 -0.2607  0.3597
   24MOL0     C 3131  -1.851   0.855   8.621 -0.2608  0.4717 -0.4510
   24MOL0     C 3132  -1.991   0.818   8.617  0.3705 -0.8183 -0.5316
   24MOL0     C 3133  -2.026   0.671   8.642 -0.5981  0.5052  0.7468
   24MOL0     C 3134  -2.090   0.919   8.594  0.0899  0.4628 -0.5530
   24MOL0     C 3135  -2.227   0.894   8.603 -0.5604 -0.3126 -0.6397
   24MOL0     O 3136  -2.306   0.948   8.510 -0.8466 -0.2577  0.3467
   24MOL0     C 3137  -2.437   0.932   8.520  0.9326  0.4020  0.1605
   24MOL0     C 3138  -2.499   0.804   8.507 -0.7087 -0.4774 -0.6824
   24MOL0     C 3139  -2.644   0.784   8.528 -0.6696 -0.2230  0.0869
   24MOL0     C 3140  -2.724   0.895   8.555  0.8025 -0.3109 -0.1850
   24MOL0     O 3141  -2.858   0.872   8.578 -0.1068  0.0420  0.6078
   24MOL0     C 3142  -2.913   0.964   8.665 -0.0515 -0.3676 -0.1664
   24MOL0     C 3143  -3.057   0.922   8.706  0.1289  0.6856 -0.4252
   24MOL0     C 3144  -3.154   0.922   8.583 -0.4211 -0.6020  0.0255
   24MOL0     C 3145  -3.292   0.864   8.608 -0.0936  0.2835  0.8346
   24MOL0     C 3146  -3.355   0.947   8.723  0.4871 -0.3845 -0.5451
   24MOL0     C 3147  -3.509   0.941   8.728  0.3998  0.0332  0.3984
   24MOL0     C 3148  -3.571   0.804   8.754  0.3534  0.3007 -0.8386
   24MOL0     C 3149  -3.726   0.800   8.728  0.0372  0.7362 -0.0087
   24MOL0    Cl 3150  -3.778   0.621   8.759 -0.4099  0.3434 -0.3559
   24MOL0     C 3151  -2.660   1.027   8.539 -0.0338 -1.4289  0.3442
   24MOL0     C 3152  -2.520   1.038   8.526  0.2343  0.4752 -0.1596
   24MOL0     O 3153  -2.266   0.842   8.710 -0.3115 -0.7583  0.9225
   24MOL0     C 3154  -2.048   1.049   8.568  0.1878  0.3192  0.2038
   24MOL0     C 3155  -1.911   1.078   8.567 -0.1058 -0.2051 -0.0663
   24MOL0     N 3156  -1.178   1.123   8.769  0.4306  0.0770  0.6517
   24MOL0     N 3157  -1.123   1.033   8.839 -0.1282  0.1922 -0.0949
   24MOL0     C 3158  -0.106   0.915   8.982  0.1162  0.2172  0.2462
   24MOL0     C 3159   0.008   0.864   8.923 -0.3659 -0.6063 -0.9669
   24MOL0     C 3160   0.311   0.704   8.652 -0.2336 -1.4024  1.4000
   24MOL0     C 3161   0.449   0.713   8.665  0.4155  0.9077  0.0670
   24MOL0     C 3162   0.531   0.621   8.605  0.6885 -0.0941 -0.4286
   24MOL0     C 3163   0.486   0.521   8.520  0.2836  0.0753  0.0737
   24MOL0     O 3164   0.572   0.428   8.473  0.1935 -0.4672 -0.4955
   24MOL0     C 3165   0.512   0.312   8.420  0.0999  0.2912  0.7415
   24MOL0     C 3166   0.528   0.202   8.523  0.3033  0.2422  0.0880
   24MOL0     C 3167   0.410   0.190   8.622  0.6728 -0.3837  0.7929
   24MOL0     C 3168   0.279   0.139   8.567  0.0549  0.6573 -1.1671
   24MOL0     C 3169   0.292  -0.005   8.547 -0.1697 -0.6715 -0.3248
   24MOL0     C 3170   0.317  -0.123   8.530  0.2745  1.4465  0.1875
   24MOL0     C 3171   0.342   0.512   8.507  0.0533 -0.2619  0.1630
   24MOL0     C 3172   0.260   0.605   8.573 -0.7003  1.3614 -0.8610
   24MOL0     H 3173  -0.142   0.827   8.613 -3.5586  6.6639 -1.2400
   24MOL0     H 3174  -0.338   0.902   8.737  0.9634 -2.0963 -2.1625
   24MOL0     H 3175  -0.277   0.870   9.171 -0.0042  1.6248  1.7242
   24MOL0     H 3176  -0.317   1.041   9.169 -2.1380  0.4587  2.4158
   24MOL0     H 3177  -0.502   0.808   9.140  5.3174 -0.5972 -1.0907
   24MOL0     H 3178  -0.478   0.896   9.289 -1.2232  0.7933 -0.1143
   24MOL0     H 3179  -0.567   1.112   9.153 -0.1661 -0.7658 -1.0330
   24MOL0     H 3180  -0.626   0.984   9.039 -1.1883 -1.6697  0.3408
   24MOL0     H 3181  -0.743   0.867   9.240 -2.4747  1.4638 -0.8324
   24MOL0     H 3182  -0.699   0.985   9.342  0.1712 -2.3078 -0.5733
   24MOL0     H 3183  -0.812   1.156   9.190 -1.2185 -0.2915  1.0580
   24MOL0     H 3184  -0.841   1.030   9.085  0.1386 -0.7249  0.2336
   24MOL0     H 3185  -0.972   0.938   9.296 -2.4837 -0.0934 -2.1057
   24MOL0     H 3186  -0.952   1.104   9.356  0.2352  0.1257 -0.0898
   24MOL0     H 3187  -1.178   1.081   9.260  0.1483  0.8865  1.0661
   24MOL0     H 3188  -1.074   1.174   9.149  1.1537 -0.3758 -1.1235
   24MOL0     H 3189  -1.183   0.892   9.115  1.6825 -1.2457 -0.2974
   24MOL0     H 3190  -1.027   0.941   9.040  0.8039 -0.2954  0.9514
   24MOL0     H 3191  -1.345   1.142   9.057 -1.5391  3.0478 -1.0192
   24MOL0     H 3192  -1.489   1.236   8.846  0.7070 -1.1630 -0.4951
   24MOL0     H 3193  -1.368   1.371   8.829  0.3385  0.6027 -0.2952
   24MOL0     H 3194  -1.305   1.275   8.611  0.2406 -0.7921 -1.1051
   24MOL0     H 3195  -1.450   1.356   8.596 -1.9850 -1.3777 -3.3322
   24MOL0     H 3196  -1.436   1.060   8.670  0.4311 -0.5430 -2.0139
   24MOL0     H 3197  -1.446   1.113   8.500 -0.3121  1.6164  0.2372
   24MOL0     H 3198  -1.666   1.218   8.534 -0.4247  0.7985  1.2947
   24MOL0     H 3199  -1.668   1.176   8.705  0.2404 -1.0340  0.5561
   24MOL0     H 3200  -1.771   0.784   8.641  0.2810  1.0994 -0.3304
   24MOL0     H 3201  -1.951   0.626   8.708  0.6222  2.6593  0.9333
   24MOL0     H 3202  -2.129   0.652   8.674 -2.1372  0.5591 -3.5382
   24MOL0     H 3203  -2.018   0.612   8.550  2.6699  1.5046  0.2556
   24MOL0     H 3204  -2.436   0.722   8.475  3.6471  2.9831 -2.0399
   24MOL0     H 3205  -2.685   0.684   8.518  1.4123 -1.0304 -1.0125
   24MOL0     H 3206  -2.860   0.982   8.759 -0.6823  0.5655  0.0302
   24MOL0     H 3207  -2.926   1.055   8.606 -2.3617  0.0177  0.8204
   24MOL0     H 3208  -3.054   0.820   8.744  0.7791 -0.0194 -2.2544
   24MOL0     H 3209  -3.094   0.990   8.784 -0.1935  0.0124  0.0118
   24MOL0     H 3210  -3.095   0.867   8.508  2.0220  0.8988  0.7242
   24MOL0     H 3211  -3.159   1.025   8.546  2.8455 -0.8958 -1.6305
   24MOL0     H 3212  -3.355   0.884   8.521 -0.4063  0.8840  1.1992
   24MOL0     H 3213  -3.302   0.759   8.637 -1.3948  1.4742  5.3795
   24MOL0     H 3214  -3.334   1.054   8.710 -1.0279  0.1399  1.0818
   24MOL0     H 3215  -3.309   0.924   8.819  2.0415  3.2344 -0.2418
   24MOL0     H 3216  -3.539   1.011   8.807 -1.0315  0.6971 -0.7111
   24MOL0     H 3217  -3.551   0.969   8.631 -3.1629 -2.1571  1.1322
   24MOL0     H 3218  -3.560   0.792   8.862 -1.5424 -0.5127 -0.7030
   24MOL0     H 3219  -3.514   0.725   8.704  2.3966 -3.2679  5.8189
   24MOL0     H 3220  -3.756   0.829   8.627 -0.0060 -0.0419 -0.2233
   24MOL0     H 3221  -3.779   0.862   8.801  0.3236  0.0745  0.7865
   24MOL0     H 3222  -2.721   1.116   8.549  0.0581 -1.1706 -1.1253
   24MOL0     H 3223  -2.483   1.138   8.503  0.3587  0.7514  1.1756
   24MOL0     H 3224  -2.121   1.126   8.546 -1.3647 -0.9480  0.7166
   24MOL0     H 3225  -1.899   1.180   8.530  2.3611  0.1035  1.3667
   24MOL0     H 3226  -0.099   0.959   9.081  0.6242  1.4401 -0.3082
   24MOL0     H 3227   0.101   0.851   8.978 -0.8171 -0.0820 -0.0473
   24MOL0     H 3228   0.483   0.782   8.742 -2.5273  2.5042  0.0954
   24MOL0     H 3229   0.634   0.615   8.640  0.3421 -0.7389  0.5386
   24MOL0     H 3230   0.415   0.314   8.370  0.7697 -3.2347 -1.0557
   24MOL0     H 3231   0.580   0.281   8.340 -1.3270 -0.5664 -0.1631
   24MOL0     H 3232   0.628   0.210   8.568  0.3266 -1.8950  0.4901
   24MOL0     H 3233   0.527   0.105   8.473 -3.1276  0.4606 -0.4816
   24MOL0     H 3234   0.397   0.286   8.673 -0.9722  0.2920 -0.7803
   24MOL0     H 3235   0.448   0.127   8.703 -2.6379  1.0551  3.7446
   24MOL0     H 3236   0.265   0.201   8.478  0.4578  0.8956 -1.0662
   24MOL0     H 3237   0.202   0.161   8.642  3.1284  0.6476  2.2664
   24MOL0     H 3238   0.340  -0.227   8.520  0.9862  1.7182 -1.2339
   24MOL0     H 3239   0.286   0.436   8.454 -2.1393  0.7899  0.8412
   24MOL0     H 3240   0.153   0.592   8.565 -1.0026 -2.1199  4.0826
   25MOL0     O 3241   1.906   9.628   6.436 -0.1550 -0.1120 -0.2549
   25MOL0     C 3242   1.941   9.515   6.471  0.2431 -0.5990 -0.0501
   25MOL0     O 3243   1.854   9.408   6.487 -0.3334 -0.0453  0.3831
   25MOL0     C 3244   1.724   9.421   6.455 -1.0328  0.5092 -0.0465
   25MOL0     C 3245   1.677   9.487   6.338 -0.4334 -0.9826  0.7525
   25MOL0     C 3246   1.542   9.490   6.299  0.6884 -0.1190 -0.0489
   25MOL0     C 3247   1.447   9.436   6.386  0.0974  1.1385 -0.6091
   25MOL0     O 3248   1.312   9.451   6.354  0.0253  0.0722  0.0845
   25MOL0     C 3249   1.216   9.402   6.441  0.2911  0.3108  0.8193
   25MOL0     C 3250   1.084   9.442   6.377  0.1150  0.6652 -0.7123
   25MOL0     C 3251   1.069   9.365   6.239  0.0138  0.1326 -0.4765
   25MOL0     C 3252   0.917   9.352   6.223  0.2184  0.1834  0.0477
   25MOL0     C 3253   0.889   9.288   6.087  0.4013 -0.7727  0.6466
   25MOL0     C 3254   0.763   9.359   6.032 -0.1500  0.6724  1.6826
   25MOL0     C 3255   0.717   9.317   5.892 -0.3718 -0.0697  0.0793
   25MOL0     C 3256   0.789   9.389   5.783 -0.9536 -0.2391  0.7019
   25MOL0     N 3257   0.733   9.348   5.653 -0.2560 -0.3120 -0.3474
   25MOL0     C 3258   0.618   9.384   5.596 -0.1723 -0.3373  0.1163
   25MOL0     C 3259   0.601   9.296   5.494  0.4887 -0.0487  1.0916
   25MOL0     C 3260   0.484   9.287   5.403 -0.3157 -0.8858 -0.1302
   25MOL0     C 3261   0.354   9.270   5.487  0.8028 -0.4008 -0.5233
   25MOL0     C 3262   0.273   9.400   5.493  1.0662 -0.8341 -0.0187
   25MOL0     C 3263   0.126   9.368   5.493  0.4470 -0.5020 -0.8713
   25MOL0     O 3264   0.087   9.293   5.611 -0.1217  0.5227  0.2512
   25MOL0     C 3265  -0.039   9.244   5.622 -0.4450 -0.3345  0.1468
   25MOL0     C 3266  -0.146   9.276   5.539  0.0346  0.5033  0.6987
   25MOL0     C 3267  -0.270   9.221   5.567  0.1428  0.1436  0.3458
   25MOL0     C 3268  -0.383   9.262   5.470 -0.0289 -0.3160 -0.3987
   25MOL0     C 3269  -0.291   9.120   5.672 -0.0595 -0.8262 -0.7225
   25MOL0     C 3270  -0.416   9.047   5.689 -0.1991  0.0978 -1.1627
   25MOL0     O 3271  -0.399   8.927   5.756  1.0379 -0.2058 -0.2235
   25MOL0     C 3272  -0.508   8.851   5.789 -0.5552 -0.0991  0.5717
   25MOL0     C 3273  -0.529   8.799   5.916 -0.5933 -0.1419 -0.0410
   25MOL0     C 3274  -0.636   8.709   5.938 -0.5466 -0.3165 -0.1633
   25MOL0     C 3275  -0.712   8.658   5.835  0.1645  0.6355  0.1552
   25MOL0     O 3276  -0.814   8.572   5.865 -0.8514 -0.2693  0.3941
   25MOL0     C 3277  -0.884   8.511   5.758 -0.5609  0.3506 -0.4571
   25MOL0     C 3278  -1.011   8.458   5.818  0.6234  0.2379 -0.0673
   25MOL0     C 3279  -1.111   8.424   5.706  0.2104 -0.1779 -0.3351
   25MOL0     C 3280  -1.085   8.305   5.612 -0.0012 -0.0938 -0.4372
   25MOL0     C 3281  -1.188   8.298   5.504 -0.1002 -0.1548  1.2154
   25MOL0     C 3282  -1.152   8.177   5.410  0.4238  1.2985 -0.1022
   25MOL0     C 3283  -1.237   8.167   5.278 -0.1541 -0.6147 -0.3838
   25MOL0     C 3284  -1.246   8.018   5.226  0.7810 -0.3584  0.5511
   25MOL0    Cl 3285  -1.078   7.967   5.214  0.0548  0.7330 -0.3626
   25MOL0     C 3286  -0.679   8.699   5.704 -0.7706 -0.1109  0.2757
   25MOL0     C 3287  -0.579   8.793   5.683 -0.0158 -0.2003  0.3176
   25MOL0     O 3288  -0.526   9.116   5.685  0.0650  0.8810  0.6991
   25MOL0     C 3289  -0.185   9.090   5.755  0.0954 -0.0120 -0.0086
   25MOL0     C 3290  -0.065   9.164   5.729 -1.3089 -0.0181 -0.2226
   25MOL0     N 3291   0.688   9.193   5.512  0.3706 -0.5701 -0.6274
   25MOL0     N 3292   0.770   9.228   5.604  0.0493 -0.1594  0.1352
   25MOL0     C 3293   1.490   9.368   6.505 -0.2972  0.1079 -0.5668
   25MOL0     C 3294   1.627   9.361   6.536 -0.5515  0.5524 -0.1852
   25MOL0     C 3295   2.080   9.498   6.509  0.0803 -0.1541 -0.4171
   25MOL0     C 3296   2.125   9.366   6.510 -0.2683  0.4359  0.9364
   25MOL0     C 3297   2.256   9.337   6.546  0.2561  0.2717 -0.0589
   25MOL0     C 3298   2.336   9.442   6.598 -0.4609 -0.5217  0.8038
   25MOL0     O 3299   2.457   9.401   6.637 -0.4078  0.2255 -0.0159
   25MOL0     C 3300   2.540   9.471   6.732 -0.2342 -0.3191 -0.4795
   25MOL0     C 3301   2.623   9.585   6.663  0.2716 -0.0535 -0.5819
   25MOL0     C 3302   2.725   9.521   6.570 -0.7351  0.6178 -0.5347
   25MOL0     C 3303   2.825   9.628   6.536 -0.9030  0.0745  0.2268
   25MOL0     C 3304   2.914   9.566   6.426 -0.0188 -0.1912  1.3173
   25MOL0     C 3305   2.967   9.521   6.333  0.7963  0.4356  1.1053
   25MOL0     C 3306   2.289   9.571   6.594 -0.6934 -0.0354  0.2856
   25MOL0     C 3307   2.169   9.596   6.542  0.1356 -0.0701 -0.2632
   25MOL0     H 3308   1.742   9.538   6.268 -3.9704  3.5093  0.2415
   25MOL0     H 3309   1.510   9.532   6.204 -1.5430 -2.6186 -0.5233
   25MOL0     H 3310   1.232   9.294   6.446  2.3750  0.5030 -0.5323
   25MOL0     H 3311   1.221   9.441   6.543 -3.9723  0.8512  1.0143
   25MOL0     H 3312   1.001   9.430   6.447  1.4984 -1.0100  0.7210
   25MOL0     H 3313   1.077   9.548   6.353 -2.6328  0.1717 -2.6475
   25MOL0     H 3314   1.100   9.425   6.153 -2.3378  0.9710 -0.8176
   25MOL0     H 3315   1.124   9.271   6.233 -0.2019 -0.0212 -0.0655
   25MOL0     H 3316   0.880   9.282   6.298 -0.0702  0.1597 -0.1161
   25MOL0     H 3317   0.867   9.449   6.231  1.7483  1.4379 -3.4526
   25MOL0     H 3318   0.973   9.314   6.022 -1.2403 -0.3288 -1.4102
   25MOL0     H 3319   0.862   9.182   6.094 -1.5051 -0.4596 -0.9441
   25MOL0     H 3320   0.678   9.343   6.098 -0.9696 -1.0184  0.3007
   25MOL0     H 3321   0.785   9.466   6.030 -1.8565  1.0758 -1.4572
   25MOL0     H 3322   0.739   9.211   5.882 -1.8292 -0.7091  2.6209
   25MOL0     H 3323   0.612   9.349   5.887  0.5939  4.0736  2.0580
   25MOL0     H 3324   0.894   9.362   5.793 -0.8808 -1.4726 -2.3940
   25MOL0     H 3325   0.793   9.498   5.794 -1.0931  0.1830 -2.5204
   25MOL0     H 3326   0.550   9.460   5.633 -0.3434 -0.7631  0.6851
   25MOL0     H 3327   0.484   9.382   5.349  0.0190  0.1876  1.6601
   25MOL0     H 3328   0.495   9.199   5.340 -1.1279 -1.4225  0.4702
   25MOL0     H 3329   0.373   9.240   5.590  0.1850 -0.0141 -0.2890
   25MOL0     H 3330   0.293   9.193   5.439 -1.3729 -1.1075  3.0014
   25MOL0     H 3331   0.286   9.463   5.404 -1.7198 -1.2112 -0.7986
   25MOL0     H 3332   0.294   9.455   5.585 -1.3799 -2.2873  1.5331
   25MOL0     H 3333   0.095   9.314   5.404 -2.6435  0.0060 -0.2049
   25MOL0     H 3334   0.063   9.457   5.488 -2.1173 -2.2244 -1.2245
   25MOL0     H 3335  -0.135   9.345   5.456  2.8608 -0.5792  0.0830
   25MOL0     H 3336  -0.460   9.310   5.531 -1.2736 -1.6926 -0.8494
   25MOL0     H 3337  -0.347   9.322   5.385  3.6979 -1.4270  0.2138
   25MOL0     H 3338  -0.435   9.182   5.418 -0.3503 -0.6094  0.3651
   25MOL0     H 3339  -0.467   8.839   5.996 -0.7849  2.0104 -0.9031
   25MOL0     H 3340  -0.648   8.687   6.044 -0.0744  1.3683  0.2781
   25MOL0     H 3341  -0.892   8.587   5.681  1.5651  0.1804 -0.9195
   25MOL0     H 3342  -0.832   8.416   5.739 -1.0155 -0.7100  2.8812
   25MOL0     H 3343  -0.982   8.373   5.881 -0.6407  0.2906  0.6084
   25MOL0     H 3344  -1.056   8.534   5.882  1.2489  2.8025 -2.4874
   25MOL0     H 3345  -1.127   8.512   5.643  0.6957 -0.5781 -1.0329
   25MOL0     H 3346  -1.211   8.408   5.747 -0.1237 -3.3636 -2.0740
   25MOL0     H 3347  -0.983   8.329   5.578 -0.3601  1.7055 -0.3143
   25MOL0     H 3348  -1.077   8.211   5.668 -2.0730  1.2101  2.1984
   25MOL0     H 3349  -1.172   8.391   5.448  0.3295 -1.3504 -0.7323
   25MOL0     H 3350  -1.288   8.293   5.547 -0.2232  1.7151  1.2223
   25MOL0     H 3351  -1.048   8.180   5.377  0.4455  0.2287 -0.1594
   25MOL0     H 3352  -1.174   8.079   5.455 -1.6826 -0.0542 -3.7061
   25MOL0     H 3353  -1.183   8.224   5.201  2.2884 -0.9494  0.9803
   25MOL0     H 3354  -1.337   8.207   5.291  0.8520  2.0257 -0.1148
   25MOL0     H 3355  -1.299   8.017   5.130 -1.9095  1.3271  1.8968
   25MOL0     H 3356  -1.309   7.957   5.291  0.1258  1.7265  1.9896
   25MOL0     H 3357  -0.724   8.661   5.613 -1.2417  0.8275  0.1000
   25MOL0     H 3358  -0.564   8.823   5.580 -1.3347 -2.9127 -0.7616
   25MOL0     H 3359  -0.181   9.015   5.832  1.4228  0.3910  0.3384
   25MOL0     H 3360   0.006   9.145   5.809 -4.0111  1.5961  2.8092
   25MOL0     H 3361   1.427   9.333   6.586  0.3296 -0.6026 -0.3684
   25MOL0     H 3362   1.680   9.311   6.616  2.6305  0.9619 -1.8681
   25MOL0     H 3363   2.076   9.273   6.481 -0.1207  0.0881  1.7652
   25MOL0     H 3364   2.298   9.237   6.549  1.4749  0.6633 -2.1165
   25MOL0     H 3365   2.476   9.515   6.809  0.1609  0.0425 -0.3552
   25MOL0     H 3366   2.612   9.400   6.773  0.3569  0.0349 -0.8766
   25MOL0     H 3367   2.669   9.628   6.753 -0.0452 -0.7103 -0.0990
   25MOL0     H 3368   2.560   9.655   6.609  0.4215 -2.0465 -3.5974
   25MOL0     H 3369   2.684   9.482   6.476 -1.5584  1.1219 -0.3992
   25MOL0     H 3370   2.774   9.439   6.623 -1.6310  1.0917  1.0692
   25MOL0     H 3371   2.895   9.649   6.617  1.3162  0.3374 -1.6646
   25MOL0     H 3372   2.769   9.712   6.493 -3.7271 -1.2884  0.9420
   25MOL0     H 3373   3.006   9.486   6.240 -2.1583  1.0368 -0.4582
   25MOL0     H 3374   2.343   9.650   6.645  1.4721 -0.6849 -0.8519
   25MOL0     H 3375   2.129   9.696   6.550  0.4794 -0.0055  0.8155
   26MOL0     O 3376   8.528  10.243   9.049 -0.4757 -0.3221 -0.4388
   26MOL0     C 3377   8.574  10.360   9.045  0.1498  1.1872 -0.0234
   26MOL0     O 3378   8.505  10.465   9.046 -0.1641 -0.9843  0.6087
   26MOL0     C 3379   8.370  10.453   9.090  0.5606 -0.1682 -0.3906
   26MOL0     C 3380   8.267  10.486   9.004 -1.1756  0.4848 -0.0008
   26MOL0     C 3381   8.137  10.504   9.055 -0.6160 -0.0693  0.3482
   26MOL0     C 3382   8.117  10.503   9.195 -0.2766  0.0547 -0.3058
   26MOL0     O 3383   7.989  10.523   9.244 -0.4603 -0.3556 -0.1739
   26MOL0     C 3384   7.881  10.506   9.151  0.1449 -0.0942  0.5052
   26MOL0     C 3385   7.752  10.508   9.228  0.1818  0.4353 -0.6371
   26MOL0     C 3386   7.717  10.372   9.275 -0.8719  0.9536  0.3215
   26MOL0     C 3387   7.583  10.371   9.350 -0.0391  0.3965  0.3950
   26MOL0     C 3388   7.518  10.229   9.348  0.1870 -0.7131 -0.4785
   26MOL0     C 3389   7.372  10.226   9.402  0.2657  0.1878  0.6143
   26MOL0     C 3390   7.293  10.093   9.404  0.0391  0.2226 -0.2680
   26MOL0     C 3391   7.294  10.026   9.546 -0.0058  0.3784  0.3753
   26MOL0     N 3392   7.233   9.893   9.542  0.0785  0.6556  0.3820
   26MOL0     C 3393   7.279   9.797   9.459  0.4506  0.0839 -0.1062
   26MOL0     C 3394   7.166   9.715   9.451 -0.1161  0.9440 -0.8260
   26MOL0     C 3395   7.138   9.588   9.372 -0.6905 -0.0232  0.1068
   26MOL0     C 3396   7.211   9.479   9.439 -0.5149 -0.2230 -0.1315
   26MOL0     C 3397   7.190   9.345   9.381 -0.0107  0.8060  0.3085
   26MOL0     C 3398   7.049   9.290   9.390  0.6967 -0.4788 -0.1640
   26MOL0     O 3399   7.008   9.267   9.525 -0.9299  0.6182  0.1305
   26MOL0     C 3400   6.871   9.247   9.549 -0.5257  0.5517 -0.0975
   26MOL0     C 3401   6.842   9.219   9.686  0.1462 -0.9836  0.4025
   26MOL0     C 3402   6.714   9.173   9.722 -0.4242 -0.3903 -0.2614
   26MOL0     C 3403   6.700   9.145   9.871 -0.2930  1.3147  0.9706
   26MOL0     C 3404   6.612   9.178   9.623 -0.6014  0.0457 -0.4854
   26MOL0     C 3405   6.467   9.180   9.662  0.8728 -0.6316 -0.2839
   26MOL0     O 3406   6.416   9.102   9.760  0.1636 -0.2200  0.5688
   26MOL0     C 3407   6.277   9.106   9.784 -0.5965 -0.3550  0.1520
   26MOL0     C 3408   6.176   9.056   9.701  0.7131 -0.5318  0.3260
   26MOL0     C 3409   6.042   9.050   9.756 -0.5388  0.2148  0.1760
   26MOL0     C 3410   6.019   9.081   9.886  0.6695  0.2436 -0.8704
   26MOL0     O 3411   5.894   9.081   9.945 -0.1358  0.0236  0.5294
   26MOL0     C 3412   5.782   9.029   9.871  0.0527 -0.1957 -0.2952
   26MOL0     C 3413   5.667   8.985   9.971  0.2900  0.5930 -0.0742
   26MOL0     C 3414   5.539   8.929   9.902  0.3779 -0.0744  0.9043
   26MOL0     C 3415   5.444   8.873  10.014  0.7208  0.0337 -0.0731
   26MOL0     C 3416   5.322   8.803   9.954 -0.3414 -0.7893 -0.1476
   26MOL0     C 3417   5.235   8.730  10.061 -0.2018  1.0651 -0.3667
   26MOL0     C 3418   5.109   8.666   9.998  0.4117 -0.0796  0.3972
   26MOL0     C 3419   5.003   8.589  10.083 -0.0239 -0.2625  0.3263
   26MOL0    Cl 3420   4.888   8.567   9.960  0.1228  0.2011 -0.2107
   26MOL0     C 3421   6.117   9.124   9.969  0.3856  0.2678  0.8483
   26MOL0     C 3422   6.243   9.149   9.915  0.5610  0.9515  0.9701
   26MOL0     O 3423   6.396   9.240   9.587 -0.1556 -0.4711 -0.3870
   26MOL0     C 3424   6.641   9.205   9.488 -0.0936  0.1901  0.6994
   26MOL0     C 3425   6.772   9.240   9.450  1.2661  0.4383  0.3028
   26MOL0     N 3426   7.065   9.758   9.533 -0.3061 -0.5258 -0.4421
   26MOL0     N 3427   7.110   9.863   9.597 -0.0346 -0.0295 -0.0249
   26MOL0     C 3428   8.224  10.478   9.281  0.0786  0.3111 -0.0194
   26MOL0     C 3429   8.350  10.452   9.224 -0.3642  0.2959 -0.9226
   26MOL0     C 3430   8.723  10.368   9.038 -0.7388  0.5385  0.0681
   26MOL0     C 3431   8.795  10.473   9.092 -0.5447 -0.0132 -0.4517
   26MOL0     C 3432   8.932  10.482   9.083 -0.6914 -0.0439  0.1185
   26MOL0     C 3433   9.009  10.380   9.015 -0.5653  0.1422 -0.0468
   26MOL0     O 3434   9.143  10.403   9.005  0.0249 -0.2766  0.1644
   26MOL0     C 3435   9.226  10.315   8.927  1.0022 -0.2219 -0.4403
   26MOL0     C 3436   9.335  10.399   8.866  0.5338 -0.3859 -0.5530
   26MOL0     C 3437   9.412  10.310   8.761  0.0989 -0.2537  0.2855
   26MOL0     C 3438   9.531  10.402   8.715 -0.0183 -0.6580  0.0505
   26MOL0     C 3439   9.500  10.539   8.678  1.1407  0.9858 -0.8223
   26MOL0     C 3440   9.493  10.648   8.636  0.0565 -0.8912  0.6953
   26MOL0     C 3441   8.940  10.265   8.968  0.2779  0.6479 -0.3102
   26MOL0     C 3442   8.796  10.259   8.982 -0.5716  0.0216  0.0288
   26MOL0     H 3443   8.285  10.502   8.898  1.1574 -2.5028 -0.2032
   26MOL0     H 3444   8.064  10.536   8.982  3.1743  2.6771 -2.6790
   26MOL0     H 3445   7.877  10.588   9.079  0.3078 -0.1080  0.4797
   26MOL0     H 3446   7.886  10.416   9.089  0.3757  0.2633 -0.0044
   26MOL0     H 3447   7.756  10.582   9.308 -1.3330 -1.3885  1.2098
   26MOL0     H 3448   7.671  10.533   9.159 -0.8257 -4.3105 -1.5424
   26MOL0     H 3449   7.712  10.296   9.196 -2.2225  0.1112  1.1686
   26MOL0     H 3450   7.801  10.342   9.338  2.6634  1.1716 -3.7823
   26MOL0     H 3451   7.602  10.404   9.453  1.7891  0.2986  0.1354
   26MOL0     H 3452   7.506  10.437   9.311 -0.1077  0.8755  1.3198
   26MOL0     H 3453   7.525  10.190   9.246  0.1405 -0.7274 -0.4757
   26MOL0     H 3454   7.567  10.165   9.422 -0.4170  0.6374  1.1593
   26MOL0     H 3455   7.367  10.277   9.499 -5.7649  1.3148  0.1347
   26MOL0     H 3456   7.314  10.295   9.340 -0.6072 -0.5190  0.6319
   26MOL0     H 3457   7.189  10.115   9.379 -0.0474  0.2731  0.1271
   26MOL0     H 3458   7.328  10.024   9.326  0.6690 -0.6786  0.7825
   26MOL0     H 3459   7.251  10.100   9.613 -0.4522 -0.1112  0.6261
   26MOL0     H 3460   7.398  10.000   9.570 -0.6127 -1.9900  0.6806
   26MOL0     H 3461   7.374   9.788   9.407  1.0101  0.4427  0.8397
   26MOL0     H 3462   7.031   9.566   9.387 -0.7339  1.7857  3.6473
   26MOL0     H 3463   7.163   9.598   9.266 -1.1389  4.8821  0.2182
   26MOL0     H 3464   7.184   9.478   9.545 -0.4173 -0.8714 -0.1080
   26MOL0     H 3465   7.318   9.505   9.435 -0.8764  1.2359 -0.9161
   26MOL0     H 3466   7.246   9.272   9.439 -2.8791 -0.8706  1.1578
   26MOL0     H 3467   7.223   9.346   9.277 -2.1488  2.3213 -0.4413
   26MOL0     H 3468   7.046   9.192   9.341 -1.6296 -0.3660 -0.3426
   26MOL0     H 3469   6.978   9.346   9.329  1.2051 -0.3042 -0.6069
   26MOL0     H 3470   6.925   9.239   9.753 -1.9078  2.6831  2.1970
   26MOL0     H 3471   6.695   9.036   9.880 -2.0735  1.4300  1.9774
   26MOL0     H 3472   6.784   9.177   9.933  2.8665 -1.3583 -1.5843
   26MOL0     H 3473   6.609   9.199   9.900 -0.3946  2.0085 -0.5596
   26MOL0     H 3474   6.199   9.020   9.602  0.6633  3.3594 -1.2995
   26MOL0     H 3475   5.961   9.024   9.688  1.3331  0.5508 -2.3543
   26MOL0     H 3476   5.739   9.101   9.800 -0.3264  0.3718  0.4970
   26MOL0     H 3477   5.817   8.942   9.814  0.6070  0.8964 -1.7103
   26MOL0     H 3478   5.703   8.907  10.038 -2.1499 -2.5582 -2.1134
   26MOL0     H 3479   5.626   9.076  10.017  0.5853 -0.2791  2.0051
   26MOL0     H 3480   5.554   8.842   9.837 -1.8823  0.1364  0.0169
   26MOL0     H 3481   5.482   9.003   9.846  1.3434  0.7729  1.0062
   26MOL0     H 3482   5.494   8.801  10.079 -0.8375  0.9852  2.3330
   26MOL0     H 3483   5.406   8.955  10.076 -2.0057  1.7559 -3.6188
   26MOL0     H 3484   5.360   8.730   9.882  1.0562 -1.7901  1.5208
   26MOL0     H 3485   5.261   8.877   9.903 -0.6929 -1.6485 -1.0028
   26MOL0     H 3486   5.296   8.655  10.112  1.7901  2.9993  0.2243
   26MOL0     H 3487   5.200   8.802  10.135 -1.9180  1.9846 -1.9856
   26MOL0     H 3488   5.140   8.604   9.914  2.6757  1.8835 -0.3226
   26MOL0     H 3489   5.064   8.759   9.963  1.2171 -0.1181 -0.8021
   26MOL0     H 3490   4.964   8.642  10.171 -0.2064  0.1058  0.0279
   26MOL0     H 3491   5.047   8.495  10.117 -1.1993 -0.9878 -0.1010
   26MOL0     H 3492   6.103   9.143  10.075 -0.9646  2.9165  0.2981
   26MOL0     H 3493   6.321   9.189   9.980  1.3239  1.8054 -0.4211
   26MOL0     H 3494   6.566   9.181   9.414 -0.7991  0.1680  1.4014
   26MOL0     H 3495   6.788   9.269   9.347 -0.8969 -0.1660 -0.2687
   26MOL0     H 3496   8.218  10.471   9.389 -2.5314 -0.4238 -0.1361
   26MOL0     H 3497   8.437  10.428   9.284  0.3424  0.1039 -1.9942
   26MOL0     H 3498   8.754  10.555   9.150 -0.0075 -0.5824  0.7615
   26MOL0     H 3499   8.985  10.557   9.142 -1.3352 -3.0970  5.1468
   26MOL0     H 3500   9.254  10.239   8.999 -0.1730  0.5784  0.9150
   26MOL0     H 3501   9.167  10.277   8.843 -1.2586  0.0214  0.9533
   26MOL0     H 3502   9.401  10.427   8.948 -0.6457 -2.5562  1.2713
   26MOL0     H 3503   9.290  10.487   8.819 -0.3590 -1.4721 -1.8268
   26MOL0     H 3504   9.353  10.302   8.669  0.7764  0.1367 -0.1932
   26MOL0     H 3505   9.437  10.213   8.804 -0.7760 -0.0536  1.2997
   26MOL0     H 3506   9.577  10.369   8.621 -4.7463 -1.9869 -2.1103
   26MOL0     H 3507   9.611  10.406   8.790 -0.3734  2.1892  0.3862
   26MOL0     H 3508   9.503  10.747   8.597  2.8741 -2.2110 -2.4536
   26MOL0     H 3509   8.996  10.188   8.916 -1.2809  0.5562 -1.9282
   26MOL0     H 3510   8.746  10.172   8.941 -1.2670  0.3468  0.1739
   27MOL0     O 3511   1.948  10.954   7.490 -0.0142  0.0520 -0.3788
   27MOL0     C 3512   2.003  10.848   7.527  0.2314 -0.0837 -0.6885
   27MOL0     O 3513   1.933  10.739   7.578 -0.1422  0.1365 -0.4256
   27MOL0     C 3514   1.795  10.753   7.586  0.4241 -0.1235  0.1020
   27MOL0     C 3515   1.734  10.797   7.706 -0.0412 -0.9934  0.6070
   27MOL0     C 3516   1.598  10.830   7.710 -0.5048  0.5863 -0.5218
   27MOL0     C 3517   1.523  10.808   7.594  0.3067  0.0274  0.3818
   27MOL0     O 3518   1.388  10.816   7.603 -0.1110 -0.8588 -0.9594
   27MOL0     C 3519   1.305  10.719   7.543 -0.0744 -0.2101 -0.1691
   27MOL0     C 3520   1.160  10.749   7.571 -0.3946 -0.1490 -0.0657
   27MOL0     C 3521   1.063  10.658   7.511 -0.0143 -0.2191  0.1897
   27MOL0     C 3522   0.915  10.706   7.519 -0.7321  0.0828  0.7817
   27MOL0     C 3523   0.832  10.644   7.405  0.2058  0.4085 -0.1918
   27MOL0     C 3524   0.682  10.656   7.443 -0.5306 -0.8921  0.6702
   27MOL0     C 3525   0.579  10.609   7.341  0.0260 -0.3788 -0.1404
   27MOL0     C 3526   0.438  10.614   7.399  0.1338 -0.8211  0.1321
   27MOL0     N 3527   0.341  10.624   7.284  0.6835  0.3808 -0.0186
   27MOL0     C 3528   0.254  10.721   7.248  0.3476 -0.0766  0.2078
   27MOL0     C 3529   0.181  10.672   7.141 -0.9311  0.6699  0.1609
   27MOL0     C 3530   0.103  10.761   7.056 -0.3942  0.0259  0.9472
   27MOL0     C 3531  -0.049  10.736   7.072  0.6346 -0.1372 -0.5546
   27MOL0     C 3532  -0.128  10.805   6.951  0.1085  0.5150 -0.5566
   27MOL0     C 3533  -0.135  10.954   6.972 -0.4314 -0.2646  0.1002
   27MOL0     O 3534  -0.228  10.978   7.082  0.0045 -0.5623 -0.8354
   27MOL0     C 3535  -0.350  11.027   7.037  0.3165  0.9105 -0.2300
   27MOL0     C 3536  -0.368  11.154   7.005 -0.2059 -0.3517 -0.3865
   27MOL0     C 3537  -0.480  11.202   6.944 -0.4533  0.5990 -0.6673
   27MOL0     C 3538  -0.493  11.349   6.913  0.1972 -0.0916  0.2883
   27MOL0     C 3539  -0.598  11.115   6.950  0.1622  0.6643 -0.5507
   27MOL0     C 3540  -0.732  11.155   6.900 -0.8977  0.0308 -1.0674
   27MOL0     O 3541  -0.809  11.061   6.839  0.2469 -0.0194 -0.5791
   27MOL0     C 3542  -0.926  11.091   6.780 -0.1545  0.5391  0.5365
   27MOL0     C 3543  -0.955  11.209   6.702  1.0789 -0.8624 -0.6655
   27MOL0     C 3544  -1.090  11.231   6.652 -0.8470  0.5466 -0.6978
   27MOL0     C 3545  -1.185  11.126   6.666 -0.6850 -0.4581 -0.1910
   27MOL0     O 3546  -1.312  11.149   6.622 -0.1532 -0.5067  0.4925
   27MOL0     C 3547  -1.415  11.111   6.713 -1.0043  0.2866  0.5597
   27MOL0     C 3548  -1.397  11.178   6.848  0.6815 -0.6376  0.3385
   27MOL0     C 3549  -1.538  11.195   6.925 -1.1908 -0.1784 -0.0229
   27MOL0     C 3550  -1.547  11.276   7.048 -0.5628 -0.4153  0.1910
   27MOL0     C 3551  -1.687  11.331   7.083  1.1856  0.7047  0.6283
   27MOL0     C 3552  -1.707  11.453   7.168  0.4670 -0.1018 -0.5757
   27MOL0     C 3553  -1.695  11.586   7.084 -0.4632 -0.2272  0.2757
   27MOL0     C 3554  -1.720  11.708   7.173  0.2641 -0.3651 -1.1886
   27MOL0    Cl 3555  -1.883  11.695   7.247 -0.0051  0.5808 -0.4121
   27MOL0     C 3556  -1.142  10.997   6.720  0.2618  0.5998  0.3702
   27MOL0     C 3557  -1.014  10.992   6.781  0.1505  0.3632 -0.4124
   27MOL0     O 3558  -0.758  11.279   6.900  0.6492 -0.2341 -0.3603
   27MOL0     C 3559  -0.576  10.976   6.971  0.0116 -0.3453 -0.1956
   27MOL0     C 3560  -0.450  10.935   7.017 -1.0541  1.1223 -0.0435
   27MOL0     N 3561   0.220  10.534   7.129 -0.1725  0.1194  0.3184
   27MOL0     N 3562   0.311  10.509   7.219 -0.1320  0.3253  0.3128
   27MOL0     C 3563   1.579  10.773   7.471  0.1745 -0.5787  0.0990
   27MOL0     C 3564   1.719  10.746   7.464  0.5126  0.5885  0.2928
   27MOL0     C 3565   2.146  10.840   7.526  1.0486  0.3551 -0.1941
   27MOL0     C 3566   2.234  10.948   7.509  0.0599 -0.9372 -0.0760
   27MOL0     C 3567   2.370  10.920   7.511  0.0860  0.6106 -0.3292
   27MOL0     C 3568   2.425  10.795   7.533  0.3451 -0.2951 -0.6413
   27MOL0     O 3569   2.557  10.790   7.564  1.2511 -0.2547  0.4857
   27MOL0     C 3570   2.633  10.763   7.446  0.6962  0.5488 -0.1940
   27MOL0     C 3571   2.682  10.894   7.377  0.2506  0.3613  0.3503
   27MOL0     C 3572   2.773  10.860   7.250  0.4521  0.2342 -0.0868
   27MOL0     C 3573   2.913  10.788   7.278  0.2457 -0.1237 -0.6761
   27MOL0     C 3574   2.997  10.878   7.355 -0.0580  0.0836  0.6149
   27MOL0     C 3575   3.050  10.955   7.427 -0.4856 -0.1739  0.2196
   27MOL0     C 3576   2.341  10.699   7.573  0.0684 -0.0322  0.0997
   27MOL0     C 3577   2.208  10.715   7.558 -0.6281 -0.4000 -0.2945
   27MOL0     H 3578   1.793  10.820   7.794  2.2963 -1.3782 -0.7658
   27MOL0     H 3579   1.553  10.878   7.795 -0.5048  1.4322 -0.9924
   27MOL0     H 3580   1.318  10.713   7.434 -2.1630 -0.1575 -0.4550
   27MOL0     H 3581   1.338  10.626   7.591  1.8008  1.7679  2.6266
   27MOL0     H 3582   1.142  10.751   7.679  1.4039 -3.7859  0.4585
   27MOL0     H 3583   1.143  10.849   7.531  1.0612 -0.0451 -0.4677
   27MOL0     H 3584   1.091  10.652   7.406 -1.2028  1.2887 -0.2579
   27MOL0     H 3585   1.074  10.559   7.557  3.5785 -0.3622 -0.6479
   27MOL0     H 3586   0.889  10.673   7.620 -3.3641  0.8572  0.4130
   27MOL0     H 3587   0.902  10.813   7.499 -0.8609 -0.1641 -0.5730
   27MOL0     H 3588   0.853  10.694   7.310  0.1149 -0.1032 -0.4834
   27MOL0     H 3589   0.860  10.538   7.403  2.3038  0.8890  1.0397
   27MOL0     H 3590   0.663  10.601   7.536  0.0001 -1.3525  0.5150
   27MOL0     H 3591   0.666  10.762   7.462  1.6046 -0.5706  0.9109
   27MOL0     H 3592   0.580  10.674   7.254 -0.2680  1.4534  1.1665
   27MOL0     H 3593   0.584  10.502   7.320 -1.2829 -0.4808 -0.0243
   27MOL0     H 3594   0.423  10.690   7.476  0.6253 -0.0180 -0.5544
   27MOL0     H 3595   0.418  10.520   7.452  0.8981  0.0826  2.1306
   27MOL0     H 3596   0.263  10.824   7.278  0.0157 -0.8079  3.1064
   27MOL0     H 3597   0.125  10.865   7.079 -1.1617  0.0193  1.7743
   27MOL0     H 3598   0.136  10.740   6.954  0.5494  0.8799  1.0674
   27MOL0     H 3599  -0.081  10.769   7.171  0.5493 -3.4914  0.6960
   27MOL0     H 3600  -0.068  10.628   7.069 -2.0708  0.2635 -2.6626
   27MOL0     H 3601  -0.233  10.774   6.951  0.3096 -0.1973  0.1751
   27MOL0     H 3602  -0.089  10.766   6.857  0.6591  1.0716 -0.5610
   27MOL0     H 3603  -0.162  10.999   6.876  2.7914  0.2996 -0.6605
   27MOL0     H 3604  -0.033  10.991   6.980  0.5587 -1.3433 -4.4441
   27MOL0     H 3605  -0.289  11.223   7.032 -1.7804  0.4779  2.6111
   27MOL0     H 3606  -0.393  11.393   6.911 -0.4051  1.5522 -3.7981
   27MOL0     H 3607  -0.540  11.368   6.816 -0.9836 -2.7232  0.2515
   27MOL0     H 3608  -0.545  11.410   6.988  0.4567  2.1927 -1.2970
   27MOL0     H 3609  -0.884  11.289   6.679 -1.6005  3.1346  3.2618
   27MOL0     H 3610  -1.101  11.320   6.590  1.1099  0.7803 -0.7838
   27MOL0     H 3611  -1.504  11.149   6.663  0.0479  2.2568  0.0748
   27MOL0     H 3612  -1.434  11.003   6.716  0.6242 -0.0263  0.8139
   27MOL0     H 3613  -1.332  11.113   6.906 -2.1364 -1.2953  2.9593
   27MOL0     H 3614  -1.346  11.275   6.838  0.0438  0.0283  2.9587
   27MOL0     H 3615  -1.571  11.092   6.941 -0.1229 -0.1300  3.0639
   27MOL0     H 3616  -1.603  11.240   6.849 -1.2907 -0.1377  0.0872
   27MOL0     H 3617  -1.492  11.228   7.129  0.4959  0.4363 -0.0030
   27MOL0     H 3618  -1.484  11.364   7.032 -2.4473  1.0476  0.4731
   27MOL0     H 3619  -1.730  11.241   7.130  0.1904  0.9116  0.1360
   27MOL0     H 3620  -1.748  11.341   6.993 -2.5702 -1.9610  2.6029
   27MOL0     H 3621  -1.810  11.459   7.206  0.7548  2.2698  0.0196
   27MOL0     H 3622  -1.626  11.459   7.241  0.2396 -0.6104 -0.2777
   27MOL0     H 3623  -1.776  11.588   7.011  0.5749 -0.0839 -0.9182
   27MOL0     H 3624  -1.597  11.592   7.036 -0.7936  1.7107 -0.2629
   27MOL0     H 3625  -1.728  11.787   7.097  0.0388 -0.7829 -1.6107
   27MOL0     H 3626  -1.636  11.733   7.238  0.7451  3.7620 -3.0856
   27MOL0     H 3627  -1.192  10.905   6.748  1.9141 -1.3227 -2.5973
   27MOL0     H 3628  -0.981  10.898   6.823  0.6306  0.7595  0.1220
   27MOL0     H 3629  -0.659  10.907   6.962  2.2149 -3.3151  0.6699
   27MOL0     H 3630  -0.423  10.834   7.045  1.7322  2.4339  2.6212
   27MOL0     H 3631   1.533  10.750   7.376  4.0826  1.4566 -2.5556
   27MOL0     H 3632   1.769  10.727   7.369  0.0234  3.1371 -0.5568
   27MOL0     H 3633   2.206  11.049   7.480  0.9637  0.1450  2.4523
   27MOL0     H 3634   2.442  10.997   7.484 -2.1461  3.2779  0.8813
   27MOL0     H 3635   2.715  10.699   7.480  0.3683 -0.1347 -0.6647
   27MOL0     H 3636   2.565  10.716   7.375 -1.9573  2.5634  0.8616
   27MOL0     H 3637   2.740  10.950   7.451 -0.4618  0.0133  1.1713
   27MOL0     H 3638   2.601  10.957   7.338  0.9113 -0.0126 -1.7669
   27MOL0     H 3639   2.788  10.947   7.186 -0.3213 -1.2229 -2.3540
   27MOL0     H 3640   2.715  10.798   7.182 -1.1362  0.0528  1.3643
   27MOL0     H 3641   2.966  10.765   7.185  0.9430  1.4160 -0.6816
   27MOL0     H 3642   2.890  10.691   7.323 -0.2243  0.5594  0.6198
   27MOL0     H 3643   3.092  11.032   7.489 -1.3591  1.1475 -0.7613
   27MOL0     H 3644   2.375  10.600   7.603  1.4866  0.0566 -1.0662
   27MOL0     H 3645   2.150  10.625   7.576 -2.4170  0.7856  0.0918
   28MOL0     O 3646   4.481   0.562   0.859  0.5079 -0.3541  0.0540
   28MOL0     C 3647   4.477   0.616   0.750  0.5799  1.4629  0.7910
   28MOL0     O 3648   4.368   0.624   0.673 -0.3336 -0.3712 -0.2557
   28MOL0     C 3649   4.246   0.599   0.729 -0.3771  0.2454  0.1698
   28MOL0     C 3650   4.151   0.522   0.662 -0.3383  0.0908 -0.0429
   28MOL0     C 3651   4.018   0.515   0.718 -0.1360  1.0455 -0.0702
   28MOL0     C 3652   3.993   0.573   0.840  0.7937 -0.3741  1.0125
   28MOL0     O 3653   3.857   0.559   0.886 -0.5153  0.0034  0.6946
   28MOL0     C 3654   3.847   0.585   1.025  0.0551  0.5187 -0.6389
   28MOL0     C 3655   3.701   0.583   1.068 -0.0523  0.6866 -0.2074
   28MOL0     C 3656   3.643   0.445   1.074 -0.6751  0.3908 -0.5994
   28MOL0     C 3657   3.498   0.432   1.113 -0.1419  0.5535 -0.2250
   28MOL0     C 3658   3.468   0.287   1.144 -0.2985  0.0522  1.2520
   28MOL0     C 3659   3.476   0.186   1.023 -0.3255  0.3594 -0.3406
   28MOL0     C 3660   3.570   0.077   1.066 -0.7460 -1.2028 -0.0563
   28MOL0     C 3661   3.570  -0.045   0.966 -0.8129 -0.7902 -0.5465
   28MOL0     N 3662   3.616  -0.161   1.027 -0.1657  0.8204 -0.3014
   28MOL0     C 3663   3.744  -0.205   1.043  0.2744  0.1333 -0.1770
   28MOL0     C 3664   3.734  -0.334   1.083  0.5664 -0.9232 -0.5476
   28MOL0     C 3665   3.860  -0.417   1.113 -0.3622 -1.0026 -0.7304
   28MOL0     C 3666   3.888  -0.421   1.263 -0.5788 -0.5636 -0.0001
   28MOL0     C 3667   3.826  -0.536   1.338 -0.4524 -0.6214  0.5474
   28MOL0     C 3668   3.893  -0.546   1.472  0.2478  0.6703 -0.8761
   28MOL0     O 3669   3.839  -0.656   1.545  0.0204  0.0492 -0.3042
   28MOL0     C 3670   3.918  -0.680   1.658  0.2398  0.0209  0.3956
   28MOL0     C 3671   3.920  -0.810   1.706 -0.6031  1.0450 -0.7374
   28MOL0     C 3672   3.986  -0.838   1.824 -0.6913  0.5388  0.3034
   28MOL0     C 3673   3.992  -0.984   1.850 -0.9131 -0.5193 -0.2176
   28MOL0     C 3674   4.047  -0.741   1.897 -0.1667 -0.1161 -0.0468
   28MOL0     C 3675   4.111  -0.765   2.034 -0.9909 -0.2236  0.3462
   28MOL0     O 3676   4.137  -0.888   2.076  0.9250 -0.4904  0.1060
   28MOL0     C 3677   4.190  -0.917   2.199  0.2346  0.9924  0.4539
   28MOL0     C 3678   4.225  -1.053   2.205  0.0076  0.3761 -0.0206
   28MOL0     C 3679   4.289  -1.100   2.325  0.3599 -0.2731 -0.6095
   28MOL0     C 3680   4.328  -1.019   2.436 -0.0091  0.0434  0.9544
   28MOL0     O 3681   4.404  -1.074   2.536 -0.2812 -0.5711 -0.2167
   28MOL0     C 3682   4.514  -1.001   2.602 -0.0456  0.0256  0.9116
   28MOL0     C 3683   4.612  -1.106   2.664 -0.8607  0.3327 -0.3389
   28MOL0     C 3684   4.724  -1.037   2.742  0.2057  1.0615 -0.2647
   28MOL0     C 3685   4.809  -1.133   2.836  0.3661  1.0056  0.5491
   28MOL0     C 3686   4.915  -1.050   2.902  0.2090 -0.3680  0.5973
   28MOL0     C 3687   5.028  -1.140   2.958  0.2702 -1.1430 -0.2775
   28MOL0     C 3688   5.138  -1.047   3.033  0.1577  0.2290 -0.0695
   28MOL0     C 3689   5.258  -1.009   2.935 -0.1508  0.3767 -0.2721
   28MOL0    Cl 3690   5.393  -0.932   3.026  0.7135 -0.1636 -0.3869
   28MOL0     C 3691   4.289  -0.885   2.421 -0.5558 -0.0280 -0.1087
   28MOL0     C 3692   4.220  -0.835   2.306  0.5509 -0.4290  0.0063
   28MOL0     O 3693   4.153  -0.662   2.089 -0.2110 -0.1899 -0.4579
   28MOL0     C 3694   4.036  -0.612   1.853  0.0507 -0.0364  0.6849
   28MOL0     C 3695   3.973  -0.578   1.742  1.3124  0.5846  0.1614
   28MOL0     N 3696   3.603  -0.379   1.067 -0.4441 -0.0352 -0.1815
   28MOL0     N 3697   3.535  -0.276   1.034 -0.4654  0.0466 -0.1012
   28MOL0     C 3698   4.093   0.645   0.905 -0.7293 -0.4831 -0.6545
   28MOL0     C 3699   4.217   0.648   0.855 -0.0968 -0.2321 -1.0906
   28MOL0     C 3700   4.605   0.657   0.687  0.2535  0.1532 -0.8832
   28MOL0     C 3701   4.593   0.676   0.547 -0.2553  0.5121  0.0090
   28MOL0     C 3702   4.714   0.713   0.484  0.8793  0.3550  0.3895
   28MOL0     C 3703   4.836   0.733   0.556 -0.6029  0.4214 -0.3455
   28MOL0     O 3704   4.957   0.751   0.501 -0.2845 -0.3649  0.4572
   28MOL0     C 3705   4.962   0.789   0.363  0.0692 -0.0900 -1.2010
   28MOL0     C 3706   5.100   0.775   0.308 -1.2023 -0.1142  1.0116
   28MOL0     C 3707   5.189   0.872   0.378 -0.0579 -0.3409  0.4317
   28MOL0     C 3708   5.340   0.834   0.363 -0.0223  0.7438 -0.4103
   28MOL0     C 3709   5.429   0.938   0.418 -0.3705  0.0173  0.2393
   28MOL0     C 3710   5.510   1.017   0.461 -0.1124  0.3635 -0.7639
   28MOL0     C 3711   4.839   0.711   0.696  0.3740 -0.7099  0.6988
   28MOL0     C 3712   4.725   0.662   0.763  0.1832  0.2808  0.7535
   28MOL0     H 3713   4.198   0.472   0.578  2.7267  1.9879  0.3955
   28MOL0     H 3714   3.938   0.456   0.675  2.5921 -2.3282 -0.9266
   28MOL0     H 3715   3.907   0.517   1.086 -0.8650  0.6644  0.4814
   28MOL0     H 3716   3.879   0.689   1.036 -0.2102  0.4783  0.6987
   28MOL0     H 3717   3.703   0.621   1.171  0.7973 -3.1653  1.3809
   28MOL0     H 3718   3.626   0.641   1.012 -1.7201 -0.8649  0.3301
   28MOL0     H 3719   3.660   0.397   0.977  1.1084 -1.7469  0.6542
   28MOL0     H 3720   3.695   0.382   1.147 -1.8477 -1.8038 -1.5630
   28MOL0     H 3721   3.488   0.484   1.209  0.2258 -3.2738  2.1009
   28MOL0     H 3722   3.443   0.466   1.025 -0.4317 -0.0122 -0.2698
   28MOL0     H 3723   3.533   0.252   1.224 -1.4395 -3.1645  0.9309
   28MOL0     H 3724   3.368   0.275   1.186 -1.2102  0.4455 -0.6680
   28MOL0     H 3725   3.384   0.133   0.997  0.0938 -0.3470 -0.3940
   28MOL0     H 3726   3.505   0.232   0.928 -0.1422 -0.4109 -0.6630
   28MOL0     H 3727   3.671   0.120   1.069 -1.2833  0.1436 -0.5548
   28MOL0     H 3728   3.548   0.042   1.167  1.2899 -0.2090  0.8013
   28MOL0     H 3729   3.629  -0.020   0.877  3.3976  0.2051  2.2799
   28MOL0     H 3730   3.471  -0.045   0.918 -0.4060  3.5816 -1.8398
   28MOL0     H 3731   3.834  -0.147   1.029 -1.6941  2.7657 -3.3009
   28MOL0     H 3732   3.843  -0.516   1.068  1.1741 -2.2271  1.2096
   28MOL0     H 3733   3.949  -0.376   1.064  0.5032 -0.7580  0.9871
   28MOL0     H 3734   3.872  -0.326   1.316  1.3696  1.1401 -2.2785
   28MOL0     H 3735   3.996  -0.438   1.262 -0.3989  0.4211  0.5289
   28MOL0     H 3736   3.837  -0.632   1.288 -3.1070 -0.4640 -0.5269
   28MOL0     H 3737   3.719  -0.518   1.352 -0.1052  1.4472  0.8852
   28MOL0     H 3738   3.858  -0.465   1.537  1.9997 -1.5162  3.1321
   28MOL0     H 3739   4.001  -0.537   1.459  0.2868  0.6473 -0.5947
   28MOL0     H 3740   3.885  -0.891   1.642  1.4689  0.0902 -0.7647
   28MOL0     H 3741   3.969  -1.050   1.766  1.4651 -1.6438 -0.0551
   28MOL0     H 3742   4.095  -1.012   1.872 -0.0525  3.1042  1.0294
   28MOL0     H 3743   3.929  -1.022   1.932 -0.9038 -0.2810 -0.0984
   28MOL0     H 3744   4.213  -1.122   2.123  0.9518 -0.5762  0.6110
   28MOL0     H 3745   4.330  -1.200   2.323  0.0291 -0.4379  0.2455
   28MOL0     H 3746   4.577  -0.942   2.535  2.5925  1.9263  4.7081
   28MOL0     H 3747   4.473  -0.925   2.670  1.2277  0.5060  1.1625
   28MOL0     H 3748   4.555  -1.177   2.725  0.2856 -2.2148 -2.0492
   28MOL0     H 3749   4.655  -1.169   2.585  0.4205 -1.0459  1.3786
   28MOL0     H 3750   4.684  -0.960   2.808 -2.5133 -2.1668  2.2134
   28MOL0     H 3751   4.803  -1.005   2.673  2.2485 -1.0635  0.9315
   28MOL0     H 3752   4.747  -1.180   2.913  1.0774 -2.2508 -0.7327
   28MOL0     H 3753   4.854  -1.213   2.777 -0.2658 -0.6568  2.2241
   28MOL0     H 3754   4.866  -0.996   2.984  0.4588  1.2029 -0.2529
   28MOL0     H 3755   4.967  -0.985   2.831 -1.9305  1.6929  0.8046
   28MOL0     H 3756   4.986  -1.213   3.027 -0.9359 -1.4900 -1.3580
   28MOL0     H 3757   5.085  -1.200   2.886 -0.1843  2.3052 -3.8471
   28MOL0     H 3758   5.195  -1.103   3.108 -0.0999 -1.0945 -0.8377
   28MOL0     H 3759   5.096  -0.960   3.083 -0.2485 -0.2132  0.3612
   28MOL0     H 3760   5.221  -0.949   2.852 -0.0307 -1.3997 -1.6647
   28MOL0     H 3761   5.294  -1.099   2.883  0.0358 -0.8351  1.8474
   28MOL0     H 3762   4.310  -0.811   2.498 -0.2142 -2.3402  2.1329
   28MOL0     H 3763   4.181  -0.735   2.321 -1.4660 -1.5892  3.6447
   28MOL0     H 3764   4.081  -0.538   1.919 -0.4376  1.4882 -0.6270
   28MOL0     H 3765   3.958  -0.474   1.717 -1.1632 -0.2648 -2.4587
   28MOL0     H 3766   4.072   0.702   0.995 -2.8364 -1.7795 -0.2734
   28MOL0     H 3767   4.288   0.698   0.920 -0.5584 -3.7061  2.5214
   28MOL0     H 3768   4.513   0.659   0.475 -0.8060  3.4902 -0.2203
   28MOL0     H 3769   4.720   0.705   0.376 -0.0517 -0.7921  0.4149
   28MOL0     H 3770   4.902   0.715   0.310 -1.2700 -0.7750  1.1598
   28MOL0     H 3771   4.920   0.889   0.347 -1.0239 -0.6925 -2.2727
   28MOL0     H 3772   5.103   0.789   0.199 -0.2265 -0.0330  1.0463
   28MOL0     H 3773   5.129   0.671   0.323 -1.5412  0.1940  4.9302
   28MOL0     H 3774   5.166   0.886   0.484 -2.1562 -1.2091  0.1328
   28MOL0     H 3775   5.169   0.973   0.340  1.1646 -0.2560 -0.0301
   28MOL0     H 3776   5.367   0.812   0.260  0.6736  0.2649 -0.1360
   28MOL0     H 3777   5.355   0.742   0.420  0.1323  1.7201  1.1944
   28MOL0     H 3778   5.562   1.101   0.502 -0.3569 -0.4795  1.4284
   28MOL0     H 3779   4.938   0.720   0.739  0.7473  0.1993 -0.3227
   28MOL0     H 3780   4.714   0.652   0.870  0.9218 -1.4536  0.7013
   29MOL0     O 3781   8.447   3.081   9.490  0.8269 -0.1815  0.3167
   29MOL0     C 3782   8.516   3.168   9.552  0.0208 -0.4798  0.0094
   29MOL0     O 3783   8.466   3.269   9.634 -0.1832  0.0060 -0.6528
   29MOL0     C 3784   8.336   3.272   9.636  1.0054 -0.8206 -0.0950
   29MOL0     C 3785   8.274   3.262   9.759  0.5204  0.7820 -0.5258
   29MOL0     C 3786   8.142   3.266   9.774  0.9637  0.6666 -1.2375
   29MOL0     C 3787   8.059   3.274   9.667 -0.8449 -1.7699  0.1641
   29MOL0     O 3788   7.924   3.265   9.692 -0.3963 -0.3195  0.1677
   29MOL0     C 3789   7.841   3.363   9.629  0.6901  0.1731 -0.0480
   29MOL0     C 3790   7.698   3.372   9.689  0.0379 -0.0451  0.2643
   29MOL0     C 3791   7.579   3.421   9.603  0.4373  0.1966 -0.8526
   29MOL0     C 3792   7.612   3.557   9.531 -0.1730 -0.7039 -0.4974
   29MOL0     C 3793   7.492   3.587   9.431 -0.2716 -0.1460  0.1990
   29MOL0     C 3794   7.537   3.697   9.337  0.7429 -1.0534 -0.8246
   29MOL0     C 3795   7.427   3.733   9.237 -0.2581  0.6790  0.9613
   29MOL0     C 3796   7.393   3.611   9.132  1.0491 -0.1814 -1.2655
   29MOL0     N 3797   7.285   3.649   9.040 -0.0153  0.4274  0.9203
   29MOL0     C 3798   7.168   3.716   9.066 -0.5049  0.2377  0.2781
   29MOL0     C 3799   7.115   3.732   8.952  0.7134 -0.6093  0.6059
   29MOL0     C 3800   6.993   3.818   8.924 -0.2670 -0.7928  0.6040
   29MOL0     C 3801   6.866   3.737   8.878  0.2017  0.8026  0.2719
   29MOL0     C 3802   6.759   3.821   8.834  0.7709  0.0854  0.6233
   29MOL0     C 3803   6.628   3.746   8.825  0.3687 -0.5591 -1.2156
   29MOL0     O 3804   6.549   3.809   8.723  0.5898 -0.0887 -0.5499
   29MOL0     C 3805   6.414   3.779   8.715  0.0526  0.3657 -0.5167
   29MOL0     C 3806   6.348   3.856   8.620 -0.6230 -0.3369 -0.6316
   29MOL0     C 3807   6.207   3.875   8.612  0.1827 -0.3759  0.2504
   29MOL0     C 3808   6.144   3.974   8.515 -0.8864  0.6271 -0.0458
   29MOL0     C 3809   6.122   3.787   8.691  0.6033  0.1656  0.1713
   29MOL0     C 3810   5.970   3.792   8.694 -0.5112  0.3637  0.6180
   29MOL0     O 3811   5.907   3.711   8.787 -0.2846  0.4358  0.1181
   29MOL0     C 3812   5.769   3.708   8.785  0.6497  0.2426  0.0403
   29MOL0     C 3813   5.699   3.806   8.842  0.1071 -1.2120  0.1175
   29MOL0     C 3814   5.561   3.811   8.860  0.4512 -0.2357  0.5848
   29MOL0     C 3815   5.497   3.689   8.830  0.5194  0.9782 -0.2552
   29MOL0     O 3816   5.363   3.683   8.826 -0.2397  0.4225 -0.3948
   29MOL0     C 3817   5.285   3.788   8.875  0.6804 -1.0637 -0.0013
   29MOL0     C 3818   5.135   3.766   8.867 -0.6163  0.1836  0.5108
   29MOL0     C 3819   5.078   3.772   8.723  0.3101 -0.6816  0.4234
   29MOL0     C 3820   4.946   3.698   8.714  0.1479  0.1523  0.3808
   29MOL0     C 3821   4.828   3.762   8.796 -0.1830 -0.0285  0.1947
   29MOL0     C 3822   4.713   3.649   8.807  0.9107 -0.2795  0.6414
   29MOL0     C 3823   4.587   3.682   8.882 -0.1055  0.3668  0.0987
   29MOL0     C 3824   4.498   3.794   8.814  0.5983  1.3987 -0.4192
   29MOL0    Cl 3825   4.389   3.700   8.687  0.1759 -0.0407 -0.0662
   29MOL0     C 3826   5.568   3.575   8.785 -0.9139  0.5202 -0.4782
   29MOL0     C 3827   5.701   3.586   8.754 -0.1476  0.5463 -1.0131
   29MOL0     O 3828   5.911   3.846   8.598  0.7892 -0.2831 -0.5053
   29MOL0     C 3829   6.197   3.693   8.764 -0.0577  0.9173 -0.7399
   29MOL0     C 3830   6.334   3.705   8.797  0.2824 -0.0333 -0.8962
   29MOL0     N 3831   7.192   3.679   8.853  0.0532  1.0641 -0.6424
   29MOL0     N 3832   7.299   3.644   8.905 -0.3437  0.2088  0.2113
   29MOL0     C 3833   8.111   3.308   9.542 -0.8117 -0.3801  1.2168
   29MOL0     C 3834   8.251   3.305   9.531 -0.1624  0.1119  0.3409
   29MOL0     C 3835   8.660   3.150   9.536 -0.4702 -0.4243 -0.4935
   29MOL0     C 3836   8.740   3.244   9.595 -0.1943  0.4937 -0.0213
   29MOL0     C 3837   8.883   3.227   9.584 -0.4852  1.0160 -0.2424
   29MOL0     C 3838   8.940   3.115   9.520  0.1849 -0.7818  0.4935
   29MOL0     O 3839   9.068   3.075   9.499  0.1875  0.2764  0.0246
   29MOL0     C 3840   9.164   3.146   9.581  0.3042  0.4754  0.1623
   29MOL0     C 3841   9.299   3.091   9.525 -0.5712  1.2616 -0.2709
   29MOL0     C 3842   9.330   2.950   9.586  0.0158 -0.4516 -0.4283
   29MOL0     C 3843   9.387   2.971   9.731 -0.3081 -0.5202  0.3210
   29MOL0     C 3844   9.409   2.848   9.800  0.2103  0.1778  0.1486
   29MOL0     C 3845   9.416   2.736   9.839 -0.1244  0.3883 -1.1543
   29MOL0     C 3846   8.847   3.019   9.465 -0.6406 -1.3013  0.3655
   29MOL0     C 3847   8.709   3.033   9.474  0.2285 -0.8599 -0.4221
   29MOL0     H 3848   8.340   3.254   9.845 -0.4617 -2.1425  0.0901
   29MOL0     H 3849   8.090   3.249   9.868 -0.2241  2.5940 -1.4828
   29MOL0     H 3850   7.887   3.463   9.636  0.3150  0.4036 -0.8052
   29MOL0     H 3851   7.827   3.333   9.526 -0.6718  0.5986 -0.0075
   29MOL0     H 3852   7.659   3.271   9.707 -0.7581  0.1902 -0.1247
   29MOL0     H 3853   7.697   3.433   9.780  1.2721 -0.0323  0.2856
   29MOL0     H 3854   7.551   3.341   9.534 -3.3575  1.9188 -1.5223
   29MOL0     H 3855   7.494   3.433   9.671 -0.5211 -2.8483 -1.3514
   29MOL0     H 3856   7.617   3.638   9.605 -2.7730 -0.8303 -0.0891
   29MOL0     H 3857   7.710   3.554   9.482  0.0941 -1.8697  0.0703
   29MOL0     H 3858   7.472   3.498   9.370  3.6683  0.0733 -1.7101
   29MOL0     H 3859   7.400   3.611   9.485 -0.3907 -2.4822  1.1436
   29MOL0     H 3860   7.572   3.784   9.392 -0.4079 -2.1281  1.7365
   29MOL0     H 3861   7.617   3.656   9.274  0.8061  1.2985 -2.3988
   29MOL0     H 3862   7.338   3.770   9.290 -1.1244 -1.9850  1.5233
   29MOL0     H 3863   7.465   3.811   9.170  1.2276 -0.5664  0.3264
   29MOL0     H 3864   7.347   3.525   9.183  4.4679 -1.0939  0.6099
   29MOL0     H 3865   7.484   3.568   9.087  2.2209 -0.3302  1.0749
   29MOL0     H 3866   7.131   3.746   9.163 -2.3600 -1.3980  0.1476
   29MOL0     H 3867   6.965   3.877   9.012 -0.4106  0.0694 -0.0087
   29MOL0     H 3868   7.027   3.891   8.850 -0.7247  0.5268  1.6533
   29MOL0     H 3869   6.838   3.680   8.967  2.2350 -2.1065 -0.7827
   29MOL0     H 3870   6.891   3.668   8.797 -0.2616  0.3792  0.4828
   29MOL0     H 3871   6.778   3.863   8.734  1.8092  0.1825  0.8489
   29MOL0     H 3872   6.758   3.909   8.898  1.2073  0.9635 -0.5351
   29MOL0     H 3873   6.575   3.755   8.920  1.6542 -0.9528 -0.4266
   29MOL0     H 3874   6.650   3.641   8.806  1.4916 -0.6308  0.3408
   29MOL0     H 3875   6.413   3.931   8.577 -0.7794  1.8698  2.6309
   29MOL0     H 3876   6.214   4.045   8.469 -2.0511  0.6793 -1.8220
   29MOL0     H 3877   6.098   3.924   8.429 -1.6277  0.7026  0.3049
   29MOL0     H 3878   6.082   4.046   8.569  0.9700  0.9532  1.7768
   29MOL0     H 3879   5.757   3.897   8.856  0.7044 -1.3349 -1.3482
   29MOL0     H 3880   5.511   3.904   8.886  0.6065  0.2269 -0.7123
   29MOL0     H 3881   5.317   3.799   8.980 -1.0993 -1.1181  0.5853
   29MOL0     H 3882   5.302   3.884   8.826  1.0193  0.1590  2.3268
   29MOL0     H 3883   5.128   3.665   8.909  2.8786 -0.6383 -0.5594
   29MOL0     H 3884   5.081   3.837   8.930 -0.9667  0.8473 -0.5123
   29MOL0     H 3885   5.144   3.706   8.668  1.7086  0.1341  1.0634
   29MOL0     H 3886   5.074   3.869   8.673  0.7426  0.3205  2.2173
   29MOL0     H 3887   4.912   3.709   8.611 -0.1147 -2.5443  0.1098
   29MOL0     H 3888   4.962   3.595   8.747 -0.3746  0.4773  1.7039
   29MOL0     H 3889   4.801   3.862   8.761  2.1720  2.4713  4.5662
   29MOL0     H 3890   4.855   3.787   8.899  1.7450  2.6058 -0.8592
   29MOL0     H 3891   4.695   3.613   8.705  1.4970 -3.7964  1.6686
   29MOL0     H 3892   4.764   3.568   8.858  1.4045 -2.6472 -3.1883
   29MOL0     H 3893   4.625   3.725   8.975  1.3528 -0.4272 -0.1029
   29MOL0     H 3894   4.533   3.592   8.912  0.5146  0.4313  1.4817
   29MOL0     H 3895   4.548   3.876   8.763 -0.4905  1.7859 -0.8868
   29MOL0     H 3896   4.432   3.836   8.890 -1.6470 -1.4669 -0.5894
   29MOL0     H 3897   5.525   3.477   8.770  3.1244 -1.4065 -0.8456
   29MOL0     H 3898   5.758   3.497   8.728  0.0535 -0.6269  2.8269
   29MOL0     H 3899   6.137   3.620   8.816  0.6865  0.4100 -0.5857
   29MOL0     H 3900   6.381   3.628   8.858 -3.3724  0.1098  2.5560
   29MOL0     H 3901   8.044   3.337   9.461 -2.0926 -0.6074  2.1600
   29MOL0     H 3902   8.303   3.337   9.442  0.4077 -0.8934  0.2977
   29MOL0     H 3903   8.705   3.323   9.662 -0.4250 -0.6298  1.2327
   29MOL0     H 3904   8.947   3.299   9.634 -2.3314  1.5490  1.4797
   29MOL0     H 3905   9.160   3.251   9.551  4.9289  0.3575 -1.6702
   29MOL0     H 3906   9.152   3.121   9.687 -1.6991  1.6096  0.2687
   29MOL0     H 3907   9.380   3.162   9.545  1.7636 -0.9798 -1.2373
   29MOL0     H 3908   9.303   3.079   9.416  0.9549 -0.2838 -0.0809
   29MOL0     H 3909   9.406   2.892   9.532 -0.1279 -0.4205 -0.6669
   29MOL0     H 3910   9.234   2.898   9.593 -1.7610  2.7127  0.8766
   29MOL0     H 3911   9.323   3.039   9.789  2.0881  2.3643 -0.1525
   29MOL0     H 3912   9.490   3.007   9.726 -0.4930 -0.1325 -1.0671
   29MOL0     H 3913   9.432   2.636   9.873 -3.6601  0.2544  0.5576
   29MOL0     H 3914   8.893   2.944   9.400 -1.8649 -0.6398 -1.3260
   29MOL0     H 3915   8.642   2.958   9.432 -1.5611  0.8796 -0.8763
   30MOL0     O 3916   7.892   0.731   9.119 -0.0003 -0.1756  0.7281
   30MOL0     C 3917   7.877   0.821   9.194 -0.2490  0.5746  0.3319
   30MOL0     O 3918   7.769   0.847   9.275 -0.3090  0.3345  0.3279
   30MOL0     C 3919   7.653   0.778   9.260 -0.3549 -0.1919 -0.2468
   30MOL0     C 3920   7.593   0.752   9.127 -0.7929 -0.0439  0.3772
   30MOL0     C 3921   7.474   0.682   9.121 -0.7270 -0.0475  0.5321
   30MOL0     C 3922   7.410   0.634   9.238 -0.2125  0.0538 -0.0801
   30MOL0     O 3923   7.299   0.554   9.228  0.0900 -0.3813 -0.2907
   30MOL0     C 3924   7.259   0.481   9.343 -0.7583 -0.7930 -0.0259
   30MOL0     C 3925   7.144   0.393   9.305  0.2999 -0.3635 -0.2800
   30MOL0     C 3926   7.008   0.475   9.295 -0.1314  0.5418  0.7115
   30MOL0     C 3927   6.893   0.384   9.269 -0.3163  0.4036  0.1654
   30MOL0     C 3928   6.764   0.471   9.272 -0.3574 -0.3610 -0.6209
   30MOL0     C 3929   6.640   0.386   9.260 -0.3138  0.5019  0.0047
   30MOL0     C 3930   6.516   0.464   9.269  0.1197  0.2521  0.4931
   30MOL0     C 3931   6.385   0.389   9.214 -0.1367 -0.7016 -0.1967
   30MOL0     N 3932   6.373   0.266   9.285  0.7596 -0.5890 -0.0280
   30MOL0     C 3933   6.441   0.158   9.246  0.4725  0.0362  0.5162
   30MOL0     C 3934   6.384   0.066   9.329 -0.4373 -0.2624 -0.4187
   30MOL0     C 3935   6.412  -0.082   9.333  0.4492  0.4998 -0.7227
   30MOL0     C 3936   6.438  -0.150   9.468 -0.2643 -0.2579  0.2690
   30MOL0     C 3937   6.322  -0.182   9.550  0.1796  0.1114  0.1304
   30MOL0     C 3938   6.254  -0.317   9.521  0.3577 -0.8092  0.2433
   30MOL0     O 3939   6.164  -0.309   9.406 -0.3699 -0.6890 -0.0142
   30MOL0     C 3940   6.035  -0.331   9.437  0.0911 -0.3137 -0.0686
   30MOL0     C 3941   5.955  -0.228   9.488  0.1591 -0.0249 -0.0542
   30MOL0     C 3942   5.818  -0.254   9.498 -0.0202 -0.2313 -0.1013
   30MOL0     C 3943   5.728  -0.136   9.529  0.0143 -0.0623  0.0633
   30MOL0     C 3944   5.765  -0.388   9.482  0.0969 -0.3366 -0.0753
   30MOL0     C 3945   5.622  -0.424   9.514 -0.5108 -0.1538 -0.2095
   30MOL0     O 3946   5.573  -0.531   9.455  0.3259 -0.1969 -0.1887
   30MOL0     C 3947   5.453  -0.585   9.502  0.1048 -0.8840  0.3916
   30MOL0     C 3948   5.329  -0.550   9.436  0.1935  0.0495 -0.5711
   30MOL0     C 3949   5.212  -0.609   9.483 -0.0258  0.3886  0.4029
   30MOL0     C 3950   5.223  -0.710   9.587 -0.2464 -1.0429 -0.0573
   30MOL0     O 3951   5.109  -0.762   9.645  0.3877 -0.6940  0.0191
   30MOL0     C 3952   5.106  -0.796   9.785  0.4053 -0.0742  0.0068
   30MOL0     C 3953   4.962  -0.797   9.844  0.1953  0.1676 -0.6119
   30MOL0     C 3954   4.892  -0.663   9.837 -0.1222 -0.5466 -0.2828
   30MOL0     C 3955   4.747  -0.680   9.870 -0.2596  0.4590  0.3224
   30MOL0     C 3956   4.666  -0.555   9.831  0.0058 -0.0837  0.6150
   30MOL0     C 3957   4.525  -0.569   9.878  0.6592  0.6694  0.1564
   30MOL0     C 3958   4.438  -0.444   9.862 -0.0458  0.0542 -0.0781
   30MOL0     C 3959   4.294  -0.458   9.917  0.0728  0.3050 -0.3758
   30MOL0    Cl 3960   4.204  -0.554   9.799 -0.4983  0.3200  0.3067
   30MOL0     C 3961   5.342  -0.750   9.631 -0.2858 -0.3550 -0.2905
   30MOL0     C 3962   5.460  -0.689   9.592 -0.6307  0.0124  0.5542
   30MOL0     O 3963   5.574  -0.373   9.615  0.3875 -0.8534  0.1558
   30MOL0     C 3964   5.849  -0.483   9.438 -0.1602 -0.9404 -0.0669
   30MOL0     C 3965   5.979  -0.454   9.413 -0.8828  0.0432 -0.2807
   30MOL0     N 3966   6.283   0.125   9.409  1.2077 -0.5172 -0.4073
   30MOL0     N 3967   6.276   0.249   9.374  0.2429  0.6900  0.9899
   30MOL0     C 3968   7.473   0.652   9.366 -0.1490 -0.0470  0.1979
   30MOL0     C 3969   7.588   0.732   9.372  0.2003 -0.6292  0.1940
   30MOL0     C 3970   7.976   0.928   9.185  0.8924 -0.7000  0.3272
   30MOL0     C 3971   7.962   1.056   9.246 -0.1514  0.4734 -0.6989
   30MOL0     C 3972   8.066   1.156   9.246  0.6205  0.7097  0.6143
   30MOL0     C 3973   8.188   1.131   9.179  0.3200  0.8484 -0.7731
   30MOL0     O 3974   8.258   1.247   9.186 -0.5444  0.0542  0.5378
   30MOL0     C 3975   8.365   1.244   9.092  0.2976 -0.3132 -0.4203
   30MOL0     C 3976   8.426   1.378   9.129 -0.0168  0.0453 -0.4582
   30MOL0     C 3977   8.508   1.417   9.000  1.4684 -0.2632 -0.0150
   30MOL0     C 3978   8.620   1.520   9.029  0.2165 -0.2771  1.4228
   30MOL0     C 3979   8.684   1.572   8.904  0.1745  0.1101  0.0751
   30MOL0     C 3980   8.748   1.609   8.815  0.5010 -0.1785  0.6251
   30MOL0     C 3981   8.205   0.996   9.122  0.0648  0.0424 -0.4265
   30MOL0     C 3982   8.107   0.904   9.130  0.1269  0.0976 -0.4067
   30MOL0     H 3983   7.643   0.789   9.038  0.2200 -0.0859  0.9102
   30MOL0     H 3984   7.445   0.668   9.017  2.2017 -0.1210 -0.3573
   30MOL0     H 3985   7.339   0.417   9.382 -0.9051 -0.0719  1.5446
   30MOL0     H 3986   7.223   0.541   9.427  1.7150 -0.7809  1.1158
   30MOL0     H 3987   7.156   0.337   9.212  0.3458  0.1667 -0.5996
   30MOL0     H 3988   7.137   0.314   9.380  1.9115 -1.5832 -1.3593
   30MOL0     H 3989   6.989   0.528   9.389 -1.0815 -0.3522  1.0354
   30MOL0     H 3990   7.016   0.548   9.214  2.3672  2.4879  2.5429
   30MOL0     H 3991   6.906   0.341   9.169 -2.3883 -0.7102  0.3127
   30MOL0     H 3992   6.892   0.302   9.342  3.6901 -1.0520 -1.1307
   30MOL0     H 3993   6.759   0.524   9.367 -0.0597  1.5848 -1.6552
   30MOL0     H 3994   6.766   0.548   9.195 -2.4276  0.8617  0.4577
   30MOL0     H 3995   6.644   0.324   9.170 -2.4682 -0.5571  0.5703
   30MOL0     H 3996   6.651   0.321   9.347  1.9905  0.6827 -0.0825
   30MOL0     H 3997   6.500   0.489   9.374  0.6896 -0.0340  0.6529
   30MOL0     H 3998   6.528   0.560   9.217 -0.4723  0.6396  1.0558
   30MOL0     H 3999   6.395   0.366   9.108 -0.8384  1.5905 -0.8330
   30MOL0     H 4000   6.293   0.446   9.226 -0.6217 -1.6214  0.5868
   30MOL0     H 4001   6.509   0.138   9.164 -1.2560  2.0923 -1.5765
   30MOL0     H 4002   6.323  -0.127   9.287  1.7203 -1.8573 -1.0582
   30MOL0     H 4003   6.485  -0.103   9.254 -1.7978 -1.4171 -2.4796
   30MOL0     H 4004   6.494  -0.073   9.521 -0.7731  0.0305  0.3991
   30MOL0     H 4005   6.505  -0.235   9.459  1.4255  0.9705  0.8024
   30MOL0     H 4006   6.246  -0.104   9.551 -1.5774 -1.5011 -0.7798
   30MOL0     H 4007   6.357  -0.201   9.652 -1.2341 -1.5264  0.3677
   30MOL0     H 4008   6.200  -0.359   9.607 -0.3372 -1.3625 -0.4475
   30MOL0     H 4009   6.330  -0.390   9.491 -1.6549 -2.7700 -0.3697
   30MOL0     H 4010   5.990  -0.126   9.503 -2.7595  1.1889 -0.8794
   30MOL0     H 4011   5.775  -0.039   9.511 -1.0759  0.2565 -1.2062
   30MOL0     H 4012   5.640  -0.147   9.464 -1.6022 -0.2812  2.1826
   30MOL0     H 4013   5.686  -0.139   9.629  0.2129 -1.7128  0.1146
   30MOL0     H 4014   5.328  -0.478   9.356  1.5355 -0.2674 -0.8933
   30MOL0     H 4015   5.122  -0.572   9.434  1.2441  4.0535  0.5390
   30MOL0     H 4016   5.157  -0.891   9.805  0.5593  0.1578  0.7385
   30MOL0     H 4017   5.168  -0.719   9.832  0.7401  2.1203 -3.6693
   30MOL0     H 4018   4.904  -0.872   9.790  0.2604  0.9830 -1.8577
   30MOL0     H 4019   4.970  -0.818   9.951 -2.7482  1.4524 -0.0679
   30MOL0     H 4020   4.904  -0.634   9.733  3.8254 -0.6781 -0.0418
   30MOL0     H 4021   4.933  -0.592   9.910  0.3704 -3.6017  2.7177
   30MOL0     H 4022   4.695  -0.762   9.820 -1.1449  0.9308  0.4469
   30MOL0     H 4023   4.738  -0.692   9.978 -1.6065  3.0988  0.5889
   30MOL0     H 4024   4.661  -0.538   9.723 -0.3367  0.9804  0.7844
   30MOL0     H 4025   4.706  -0.464   9.878 -0.3901  2.1081 -2.9461
   30MOL0     H 4026   4.479  -0.656   9.832 -0.6983  2.1382 -1.4248
   30MOL0     H 4027   4.538  -0.579   9.986 -0.0927  1.2080  0.3038
   30MOL0     H 4028   4.427  -0.414   9.758  1.1745  1.1528  0.0909
   30MOL0     H 4029   4.484  -0.358   9.911  0.6884  0.3094 -1.1955
   30MOL0     H 4030   4.236  -0.367   9.939  0.5145  1.0060 -1.9241
   30MOL0     H 4031   4.295  -0.512  10.012  0.1727  1.0316  0.0444
   30MOL0     H 4032   5.358  -0.833   9.699  2.1099 -0.5434 -1.0001
   30MOL0     H 4033   5.558  -0.725   9.621 -1.4003 -1.4280  1.4827
   30MOL0     H 4034   5.830  -0.589   9.424  4.0002 -1.7954 -0.4986
   30MOL0     H 4035   6.043  -0.533   9.376 -0.4881 -0.0741  0.6292
   30MOL0     H 4036   7.437   0.609   9.459 -0.1739 -2.9133 -1.0350
   30MOL0     H 4037   7.626   0.757   9.471  0.2018  0.7470 -0.1228
   30MOL0     H 4038   7.872   1.090   9.295  0.2330 -1.0636  1.2234
   30MOL0     H 4039   8.052   1.249   9.299 -1.6836  0.0039  1.3922
   30MOL0     H 4040   8.427   1.160   9.125  0.0415 -0.6846 -0.8645
   30MOL0     H 4041   8.347   1.232   8.985 -0.6346 -0.9477 -0.2160
   30MOL0     H 4042   8.496   1.377   9.213 -0.2552 -0.1461 -0.2622
   30MOL0     H 4043   8.352   1.455   9.154  0.7228  1.0245 -1.2003
   30MOL0     H 4044   8.433   1.455   8.930  0.7099 -4.2499 -1.6255
   30MOL0     H 4045   8.534   1.327   8.943 -2.2039 -3.3446  2.5885
   30MOL0     H 4046   8.704   1.486   9.090  0.5003  2.0863  2.4738
   30MOL0     H 4047   8.578   1.604   9.086 -3.0619  0.0211 -1.1401
   30MOL0     H 4048   8.802   1.646   8.730 -1.8054  3.4850  0.5296
   30MOL0     H 4049   8.299   0.963   9.078 -0.2417 -2.1048  0.3997
   30MOL0     H 4050   8.129   0.804   9.093  2.2889  1.7374 -4.1209
   31MOL0     O 4051   7.510   5.909  11.051  0.5708 -0.2920  0.1281
   31MOL0     C 4052   7.601   5.973  10.994 -0.2404  0.8846  0.3546
   31MOL0     O 4053   7.623   5.977  10.853 -0.2857  0.3175 -0.3484
   31MOL0     C 4054   7.554   5.916  10.756  0.3307  0.6215  0.4222
   31MOL0     C 4055   7.621   5.907  10.629 -0.7273  0.7027  1.1916
   31MOL0     C 4056   7.566   5.833  10.530  0.3486 -0.0998 -0.0016
   31MOL0     C 4057   7.449   5.763  10.542  0.3444 -0.1868 -0.3925
   31MOL0     O 4058   7.396   5.682  10.449  0.1927  0.2214 -0.3313
   31MOL0     C 4059   7.471   5.631  10.342 -0.5435  0.1040  0.1665
   31MOL0     C 4060   7.411   5.527  10.241  0.3312  0.3523 -0.3285
   31MOL0     C 4061   7.304   5.586  10.143 -0.9918 -0.4542  0.0977
   31MOL0     C 4062   7.181   5.497  10.093  0.2673 -0.1272 -0.7325
   31MOL0     C 4063   7.077   5.475  10.205 -0.2169 -0.2219 -0.2387
   31MOL0     C 4064   6.970   5.374  10.154  0.0782  0.1138  0.5612
   31MOL0     C 4065   6.841   5.377  10.246 -0.4222  0.2599  0.8893
   31MOL0     C 4066   6.756   5.252  10.219  0.0421  0.5132  0.8569
   31MOL0     N 4067   6.659   5.227  10.317 -0.5065  0.2665  0.1320
   31MOL0     C 4068   6.520   5.242  10.295  0.1508 -1.4634 -0.8232
   31MOL0     C 4069   6.477   5.218  10.417  0.0616  0.1985 -0.2663
   31MOL0     C 4070   6.343   5.239  10.471  0.9738 -0.0111  0.3540
   31MOL0     C 4071   6.284   5.104  10.530  0.3794  0.0164 -0.6763
   31MOL0     C 4072   6.153   5.133  10.602 -0.6823  0.1799 -0.6414
   31MOL0     C 4073   6.040   5.186  10.510 -0.1848  1.1124 -0.3991
   31MOL0     O 4074   5.946   5.231  10.610 -0.0163 -0.5154  0.3491
   31MOL0     C 4075   5.825   5.262  10.569  0.8524 -0.1264  0.1152
   31MOL0     C 4076   5.761   5.358  10.639  0.0940 -1.2894  0.0707
   31MOL0     C 4077   5.647   5.415  10.596 -0.8338  0.4168  0.7676
   31MOL0     C 4078   5.586   5.521  10.687 -0.3473  0.0013  0.3110
   31MOL0     C 4079   5.602   5.384  10.461  0.6004  0.4969  0.7467
   31MOL0     C 4080   5.482   5.449  10.391 -0.7111  0.4403  0.7558
   31MOL0     O 4081   5.437   5.403  10.260 -0.5490 -0.6628  0.1431
   31MOL0     C 4082   5.316   5.455  10.220 -0.4181 -0.2271 -0.0885
   31MOL0     C 4083   5.291   5.460  10.085  0.3157  0.3050  0.4711
   31MOL0     C 4084   5.165   5.502  10.048 -0.0593 -0.1810 -0.1484
   31MOL0     C 4085   5.056   5.521  10.133 -0.1743 -0.4285 -0.0943
   31MOL0     O 4086   4.928   5.555  10.098 -0.4237  0.7415  0.0566
   31MOL0     C 4087   4.905   5.645   9.995 -0.0792 -0.2714  0.4293
   31MOL0     C 4088   4.769   5.716   9.999  0.0300  0.0115  0.6559
   31MOL0     C 4089   4.735   5.788  10.134  0.8045 -0.1866 -0.7373
   31MOL0     C 4090   4.578   5.769  10.168 -0.2209  0.5352  0.1673
   31MOL0     C 4091   4.546   5.646  10.259  0.2866  0.4009 -0.7047
   31MOL0     C 4092   4.572   5.516  10.191  0.2823  0.6684  0.7886
   31MOL0     C 4093   4.547   5.395  10.279  0.2841  0.0815  0.3126
   31MOL0     C 4094   4.408   5.337  10.273  0.7078 -0.6189 -0.4374
   31MOL0    Cl 4095   4.357   5.271  10.113  0.4933  0.1377 -0.1097
   31MOL0     C 4096   5.078   5.520  10.273  0.7981  0.1317  0.0839
   31MOL0     C 4097   5.205   5.485  10.313 -0.5140 -0.0575 -0.2523
   31MOL0     O 4098   5.438   5.548  10.443 -0.0330 -0.6112 -0.5738
   31MOL0     C 4099   5.664   5.277  10.397 -0.0324  0.3647  0.3768
   31MOL0     C 4100   5.772   5.218  10.444 -0.0968 -0.8556 -0.3832
   31MOL0     N 4101   6.578   5.186  10.499  0.5280  0.1510  0.0509
   31MOL0     N 4102   6.687   5.177  10.432  0.1260 -0.1631  0.2761
   31MOL0     C 4103   7.375   5.772  10.666  0.2713 -0.0362  0.9300
   31MOL0     C 4104   7.423   5.847  10.773 -1.5727  0.0513 -0.5270
   31MOL0     C 4105   7.699   6.047  11.081  0.5225  0.3521  0.3290
   31MOL0     C 4106   7.813   6.102  11.029 -0.1925 -0.0556 -0.0529
   31MOL0     C 4107   7.911   6.161  11.110 -0.1765  0.9142  0.2445
   31MOL0     C 4108   7.887   6.189  11.244  0.4521 -0.3942 -0.4622
   31MOL0     O 4109   7.977   6.251  11.327  0.1392 -0.3925  0.6063
   31MOL0     C 4110   8.112   6.286  11.282  0.2446  0.1917  1.0435
   31MOL0     C 4111   8.120   6.428  11.249 -0.7006  0.2657  0.7509
   31MOL0     C 4112   8.104   6.530  11.367  0.2261  1.1128  0.4761
   31MOL0     C 4113   8.111   6.671  11.310 -0.5649 -0.2599 -0.4409
   31MOL0     C 4114   7.988   6.751  11.290  0.5205 -0.6679 -0.7600
   31MOL0     C 4115   7.878   6.799  11.278  0.2442 -0.0057  0.0793
   31MOL0     C 4116   7.772   6.140  11.297 -0.9577  0.5426  0.2546
   31MOL0     C 4117   7.675   6.074  11.220 -0.0453  0.0765  0.1070
   31MOL0     H 4118   7.720   5.948  10.613  0.8552 -3.0890  0.1245
   31MOL0     H 4119   7.622   5.823  10.437  0.4807 -1.9104  0.2476
   31MOL0     H 4120   7.494   5.719  10.282 -1.4395  0.0702 -0.2388
   31MOL0     H 4121   7.567   5.590  10.375  1.4375  1.5001 -3.3645
   31MOL0     H 4122   7.498   5.479  10.196 -0.5131 -3.4047  1.6598
   31MOL0     H 4123   7.373   5.450  10.308  2.1627  1.7265  2.4442
   31MOL0     H 4124   7.244   5.661  10.195 -1.2921  0.3610 -1.3470
   31MOL0     H 4125   7.357   5.653  10.075  1.0201 -2.5117 -0.4867
   31MOL0     H 4126   7.134   5.556  10.014  2.0737  2.7149  0.1814
   31MOL0     H 4127   7.221   5.403  10.053  1.2594  0.0774 -0.2671
   31MOL0     H 4128   7.129   5.424  10.286  0.0639  0.6419  0.1337
   31MOL0     H 4129   7.027   5.567  10.237 -0.2558 -0.8990  1.7613
   31MOL0     H 4130   6.936   5.403  10.054  1.5717  2.6730  0.7127
   31MOL0     H 4131   7.017   5.276  10.166 -1.0054 -0.3253  1.4020
   31MOL0     H 4132   6.870   5.380  10.351 -1.0706  0.8865  1.0644
   31MOL0     H 4133   6.783   5.470  10.235  1.2808  1.1142 -1.9415
   31MOL0     H 4134   6.819   5.162  10.218  0.6440  0.9251  0.8463
   31MOL0     H 4135   6.710   5.263  10.121 -1.2062  0.5542  1.4349
   31MOL0     H 4136   6.479   5.275  10.200 -0.4324 -0.6400 -0.2957
   31MOL0     H 4137   6.356   5.317  10.547  0.4053  3.1708 -2.5237
   31MOL0     H 4138   6.282   5.284  10.392  0.3421  0.2012  0.9404
   31MOL0     H 4139   6.360   5.071  10.602  1.7741 -0.9924 -2.5466
   31MOL0     H 4140   6.273   5.016  10.467  2.5109  0.2591 -1.4623
   31MOL0     H 4141   6.175   5.219  10.666 -0.2780  0.9279 -1.7574
   31MOL0     H 4142   6.116   5.048  10.661 -0.6445  1.4974  1.3706
   31MOL0     H 4143   6.002   5.103  10.451 -1.3527  0.3779  1.3227
   31MOL0     H 4144   6.070   5.273  10.450 -2.1732  0.2432 -2.8104
   31MOL0     H 4145   5.817   5.381  10.730  3.0173  0.0110 -1.8906
   31MOL0     H 4146   5.478   5.509  10.699 -0.3772  0.4104  0.4550
   31MOL0     H 4147   5.637   5.508  10.783  2.5992 -2.8034 -1.4120
   31MOL0     H 4148   5.604   5.619  10.644 -1.9164 -0.2420 -1.0012
   31MOL0     H 4149   5.368   5.424  10.017 -0.3476 -1.6441  0.7089
   31MOL0     H 4150   5.143   5.513   9.942  0.4059 -1.1181 -0.3509
   31MOL0     H 4151   4.970   5.733   9.991  1.1349 -1.1902 -2.1545
   31MOL0     H 4152   4.915   5.586   9.903  2.3201  0.1586  0.3618
   31MOL0     H 4153   4.771   5.790   9.918  0.8155  1.4681  1.9505
   31MOL0     H 4154   4.689   5.648   9.969  0.5765 -0.7490  0.8985
   31MOL0     H 4155   4.766   5.892  10.128  0.2848  0.0010 -0.2207
   31MOL0     H 4156   4.799   5.740  10.209 -0.3896  0.9537  1.0929
   31MOL0     H 4157   4.548   5.861  10.219  1.2650  0.5734  1.0637
   31MOL0     H 4158   4.522   5.752  10.076  3.1202 -1.0337 -1.7595
   31MOL0     H 4159   4.440   5.653  10.286  0.6399  3.5847  0.3243
   31MOL0     H 4160   4.604   5.648  10.352 -0.0410  0.5324 -0.5003
   31MOL0     H 4161   4.514   5.499  10.099  1.5699 -1.1102  0.2367
   31MOL0     H 4162   4.676   5.521  10.156 -0.3250  3.0952 -0.9429
   31MOL0     H 4163   4.561   5.417  10.385  2.5964  2.8535 -0.4630
   31MOL0     H 4164   4.614   5.319  10.237 -0.2712  0.4848 -1.4038
   31MOL0     H 4165   4.335   5.418  10.289  0.8478 -0.4380 -0.7030
   31MOL0     H 4166   4.386   5.265  10.352  4.6483 -2.2578 -0.6211
   31MOL0     H 4167   4.997   5.530  10.345  1.2448 -2.8632  1.1704
   31MOL0     H 4168   5.218   5.491  10.421  0.6319 -1.5017 -0.2791
   31MOL0     H 4169   5.625   5.240  10.303 -1.5379 -1.7390  1.7415
   31MOL0     H 4170   5.815   5.142  10.379 -1.1491 -2.8155  1.1154
   31MOL0     H 4171   7.281   5.718  10.671  0.8038 -1.0544  0.1977
   31MOL0     H 4172   7.365   5.856  10.864  0.1774  2.7159  0.4675
   31MOL0     H 4173   7.841   6.085  10.925 -0.0689 -0.9703  0.1155
   31MOL0     H 4174   7.999   6.189  11.053  0.3134 -0.3405  0.3558
   31MOL0     H 4175   8.179   6.267  11.367  1.4814  0.3515  0.1308
   31MOL0     H 4176   8.152   6.230  11.197  1.5108  2.3294  0.1270
   31MOL0     H 4177   8.047   6.452  11.171 -1.4359  0.7668  1.5744
   31MOL0     H 4178   8.218   6.443  11.203 -1.7501  0.2033 -1.6192
   31MOL0     H 4179   8.182   6.502  11.438 -0.7367 -1.5109  0.5842
   31MOL0     H 4180   8.007   6.516  11.416 -0.0571 -0.7740 -0.5200
   31MOL0     H 4181   8.148   6.665  11.208  2.1836  3.4003  0.1413
   31MOL0     H 4182   8.182   6.732  11.367 -1.6502  1.8843 -1.2785
   31MOL0     H 4183   7.777   6.828  11.259  0.4848  1.6660  1.1400
   31MOL0     H 4184   7.765   6.156  11.405  1.1794  0.7758  0.4057
   31MOL0     H 4185   7.585   6.038  11.270 -2.0063  1.6565 -2.0631
   32MOL0     O 4186   8.775   6.392   9.060  0.6289 -0.0301  0.0572
   32MOL0     C 4187   8.885   6.338   9.067  0.9005 -0.1138 -0.0315
   32MOL0     O 4188   8.917   6.228   9.160  0.2312 -0.4568 -0.0285
   32MOL0     C 4189   8.810   6.209   9.251 -0.3314  0.3888  0.2089
   32MOL0     C 4190   8.815   6.268   9.378  0.4794 -0.2358  0.5741
   32MOL0     C 4191   8.713   6.259   9.467 -0.3701 -0.2201  0.4554
   32MOL0     C 4192   8.601   6.184   9.432 -0.3800 -0.0181 -0.5207
   32MOL0     O 4193   8.501   6.172   9.524 -0.7356  0.3638 -0.1209
   32MOL0     C 4194   8.365   6.150   9.476  0.9686  0.1846 -0.8309
   32MOL0     C 4195   8.266   6.132   9.604  0.4408 -0.2789 -0.1074
   32MOL0     C 4196   8.263   6.250   9.692  1.3035 -0.7820 -0.3503
   32MOL0     C 4197   8.158   6.233   9.805  0.1669  0.2178  0.1789
   32MOL0     C 4198   8.018   6.188   9.758 -0.4714 -0.3961 -0.0835
   32MOL0     C 4199   7.905   6.188   9.869  0.6611  0.1143  0.7004
   32MOL0     C 4200   7.773   6.129   9.829  0.6507 -0.4577  0.6051
   32MOL0     C 4201   7.668   6.219   9.764  0.2149  0.1394 -0.5103
   32MOL0     N 4202   7.617   6.322   9.855  0.0245 -0.6451 -0.8968
   32MOL0     C 4203   7.556   6.302   9.977 -1.2468  0.5280 -0.6179
   32MOL0     C 4204   7.515   6.428  10.005 -0.2915 -0.1298 -0.9409
   32MOL0     C 4205   7.448   6.469  10.131 -0.3932  1.0908  0.4026
   32MOL0     C 4206   7.340   6.571  10.102  1.0976 -0.5820 -0.4357
   32MOL0     C 4207   7.231   6.512  10.011  0.2839  0.5722 -0.1760
   32MOL0     C 4208   7.144   6.626   9.958  1.2058  0.0675 -0.0270
   32MOL0     O 4209   7.087   6.705  10.064  0.1561  0.1715 -0.2974
   32MOL0     C 4210   7.002   6.802  10.014 -0.1071  0.0228 -0.5917
   32MOL0     C 4211   6.888   6.825  10.089  0.7112  0.7983 -0.1954
   32MOL0     C 4212   6.794   6.920  10.050  0.3042  0.0561  0.1995
   32MOL0     C 4213   6.676   6.933  10.149 -0.1653 -0.6718  0.5912
   32MOL0     C 4214   6.810   6.991   9.929  0.2517  0.8512  0.2393
   32MOL0     C 4215   6.700   7.082   9.874  0.8598 -0.0846  0.1505
   32MOL0     O 4216   6.724   7.139   9.753  0.0803  0.3984  0.0394
   32MOL0     C 4217   6.641   7.245   9.706 -0.2212  0.7601 -0.7036
   32MOL0     C 4218   6.689   7.369   9.678 -0.2415 -0.6197 -0.4532
   32MOL0     C 4219   6.602   7.472   9.636 -0.3790 -0.7627 -0.8634
   32MOL0     C 4220   6.466   7.444   9.624  0.3331  0.1537  0.0307
   32MOL0     O 4221   6.392   7.545   9.565  0.1293  0.0649  0.5516
   32MOL0     C 4222   6.253   7.535   9.555 -0.3195 -0.5332 -0.1283
   32MOL0     C 4223   6.215   7.671   9.505 -0.5434 -0.9294  0.0596
   32MOL0     C 4224   6.067   7.681   9.499  0.3717  0.0757 -0.4520
   32MOL0     C 4225   6.036   7.824   9.456  0.4104 -0.9511  0.6447
   32MOL0     C 4226   5.882   7.850   9.434 -0.5100 -0.6069  0.9262
   32MOL0     C 4227   5.799   7.839   9.559  0.6783 -0.3057  0.4505
   32MOL0     C 4228   5.655   7.868   9.531 -0.0191 -0.5617 -0.7898
   32MOL0     C 4229   5.585   7.880   9.666  0.2005 -0.2031  0.5624
   32MOL0    Cl 4230   5.413   7.916   9.644 -0.2499 -0.0694 -0.0524
   32MOL0     C 4231   6.418   7.316   9.647  0.5213  1.3639  0.4522
   32MOL0     C 4232   6.506   7.218   9.687 -0.2408  0.5425 -0.2886
   32MOL0     O 4233   6.601   7.106   9.945 -0.2489 -0.2414  0.0217
   32MOL0     C 4234   6.931   6.969   9.847  0.0835 -0.5880 -1.2442
   32MOL0     C 4235   7.027   6.877   9.894  0.5170 -0.6271 -0.3407
   32MOL0     N 4236   7.547   6.514   9.896 -0.3260  0.0862 -0.4769
   32MOL0     N 4237   7.609   6.441   9.805 -0.0785 -0.1180 -0.1100
   32MOL0     C 4238   8.596   6.124   9.309 -0.3329 -0.4291 -0.0904
   32MOL0     C 4239   8.702   6.130   9.218 -0.4916 -0.1245 -0.2160
   32MOL0     C 4240   8.998   6.394   8.991  0.0186 -0.5270 -0.5633
   32MOL0     C 4241   9.001   6.527   8.936  0.3361  0.2790 -0.0966
   32MOL0     C 4242   9.105   6.575   8.857  0.7483 -1.1407  0.6152
   32MOL0     C 4243   9.207   6.486   8.828 -0.2590 -0.1020 -0.6834
   32MOL0     O 4244   9.311   6.531   8.741  0.5863  0.5602 -0.5827
   32MOL0     C 4245   9.416   6.437   8.693  0.3388  0.4443 -0.2702
   32MOL0     C 4246   9.541   6.461   8.775 -0.6564 -0.4760  0.2166
   32MOL0     C 4247   9.644   6.346   8.742 -0.1188  0.9180 -0.3775
   32MOL0     C 4248   9.743   6.311   8.862 -0.3108  0.3082  0.6077
   32MOL0     C 4249   9.839   6.212   8.817  0.0033  0.0669 -0.3023
   32MOL0     C 4250   9.924   6.135   8.776 -0.0981 -0.1395 -0.0416
   32MOL0     C 4251   9.211   6.356   8.884 -0.8019 -0.1883 -0.2984
   32MOL0     C 4252   9.105   6.312   8.963 -0.4966  0.4898 -0.3414
   32MOL0     H 4253   8.902   6.320   9.418 -0.3443  0.5738  1.3429
   32MOL0     H 4254   8.721   6.301   9.566  0.8656  2.7403 -0.8062
   32MOL0     H 4255   8.332   6.226   9.404 -0.2194 -1.1493 -1.7478
   32MOL0     H 4256   8.366   6.058   9.417  0.5529 -1.5539  1.7166
   32MOL0     H 4257   8.167   6.100   9.568 -0.6902  2.2184  0.5324
   32MOL0     H 4258   8.295   6.056   9.677 -0.2088  0.2910  0.7641
   32MOL0     H 4259   8.361   6.278   9.732  1.3560 -1.4740  0.0369
   32MOL0     H 4260   8.235   6.340   9.638  1.2476 -0.1675  0.6752
   32MOL0     H 4261   8.182   6.152   9.875 -2.1107 -1.5376 -0.9364
   32MOL0     H 4262   8.154   6.331   9.854  1.3390 -0.0694  0.8947
   32MOL0     H 4263   7.993   6.250   9.672  0.7405  2.0279  1.2025
   32MOL0     H 4264   8.033   6.087   9.721  2.8116 -1.2857  3.0703
   32MOL0     H 4265   7.939   6.127   9.953  2.2293  0.3220  0.2515
   32MOL0     H 4266   7.889   6.285   9.918 -0.0993  0.3418  0.0218
   32MOL0     H 4267   7.792   6.051   9.755 -0.8887  2.7072 -3.4999
   32MOL0     H 4268   7.726   6.090   9.920 -2.2031  1.0763 -0.0960
   32MOL0     H 4269   7.584   6.165   9.719 -1.3828  3.1025 -1.4135
   32MOL0     H 4270   7.706   6.261   9.670  3.2866 -0.8369  0.2028
   32MOL0     H 4271   7.541   6.210  10.033 -1.3438  1.6181  1.2083
   32MOL0     H 4272   7.408   6.378  10.176 -2.1642  0.2263 -2.6154
   32MOL0     H 4273   7.538   6.512  10.176  2.6622  0.3134 -4.2464
   32MOL0     H 4274   7.382   6.664  10.063  0.8128  0.0064  0.6325
   32MOL0     H 4275   7.294   6.605  10.195 -1.0271 -1.8581 -0.9363
   32MOL0     H 4276   7.169   6.435  10.057 -2.1845  0.8624 -2.7992
   32MOL0     H 4277   7.279   6.459   9.928  0.0353 -0.2536  0.1979
   32MOL0     H 4278   7.071   6.601   9.880  1.9555 -0.4403 -0.5704
   32MOL0     H 4279   7.224   6.685   9.912  0.4660  0.5098 -0.7794
   32MOL0     H 4280   6.878   6.762  10.177  0.3634  0.4117 -0.5130
   32MOL0     H 4281   6.654   7.040  10.162  2.1655 -0.1857  1.1124
   32MOL0     H 4282   6.587   6.884  10.110 -1.5800  1.5560  0.8420
   32MOL0     H 4283   6.714   6.900  10.246  2.5240 -1.3994 -0.6171
   32MOL0     H 4284   6.794   7.393   9.694 -0.7962  1.9324 -0.1820
   32MOL0     H 4285   6.639   7.568   9.601 -2.5561 -0.1644 -1.6855
   32MOL0     H 4286   6.225   7.466   9.475  1.9128 -2.2756  0.4518
   32MOL0     H 4287   6.216   7.489   9.648  2.0059  1.5717  1.9800
   32MOL0     H 4288   6.256   7.738   9.581  1.6927 -2.9512  0.7664
   32MOL0     H 4289   6.261   7.695   9.408  2.6077 -0.1313  1.6166
   32MOL0     H 4290   6.023   7.660   9.596 -0.3095  0.3279 -0.6968
   32MOL0     H 4291   6.023   7.606   9.432 -2.8675 -0.6343  2.2148
   32MOL0     H 4292   6.089   7.900   9.515  1.5394 -0.5834 -0.7895
   32MOL0     H 4293   6.077   7.830   9.355 -0.3346 -0.9378  0.3351
   32MOL0     H 4294   5.852   7.780   9.356  0.0108  2.7354 -2.5682
   32MOL0     H 4295   5.867   7.947   9.386  1.4436  0.4586  2.3166
   32MOL0     H 4296   5.803   7.744   9.614  3.8433 -0.1064  0.7781
   32MOL0     H 4297   5.847   7.908   9.629 -0.9731  0.2781  1.0504
   32MOL0     H 4298   5.614   7.792   9.464  1.5687 -0.5022 -1.8893
   32MOL0     H 4299   5.639   7.964   9.482  0.7771  0.0626  0.1383
   32MOL0     H 4300   5.626   7.965   9.723  2.3015  0.5148 -1.8495
   32MOL0     H 4301   5.600   7.790   9.726  1.0869  1.4536  2.9998
   32MOL0     H 4302   6.315   7.285   9.632  1.4535 -2.2113  0.4570
   32MOL0     H 4303   6.456   7.126   9.713 -1.5342  1.4382  0.5432
   32MOL0     H 4304   6.965   7.025   9.761  0.1884  3.2985  1.0652
   32MOL0     H 4305   7.121   6.854   9.844  1.7800 -3.0296  2.7571
   32MOL0     H 4306   8.514   6.061   9.275  0.1908  0.0987 -2.5694
   32MOL0     H 4307   8.694   6.086   9.119  1.4779 -0.4567 -0.2579
   32MOL0     H 4308   8.908   6.581   8.949 -0.1188 -0.2848 -0.8563
   32MOL0     H 4309   9.113   6.666   8.799  0.8134 -1.2289  0.4842
   32MOL0     H 4310   9.387   6.332   8.683 -0.2736  0.5870  0.0184
   32MOL0     H 4311   9.437   6.466   8.589 -2.4319  1.1574 -0.6992
   32MOL0     H 4312   9.501   6.457   8.877 -0.4619  1.0203  0.3681
   32MOL0     H 4313   9.586   6.560   8.767  2.0281 -1.6419 -0.0565
   32MOL0     H 4314   9.699   6.376   8.651  0.7158  3.3972  0.8485
   32MOL0     H 4315   9.584   6.258   8.716  1.7582 -0.1857 -1.1986
   32MOL0     H 4316   9.687   6.266   8.944  4.4339  0.8440  4.5432
   32MOL0     H 4317   9.788   6.400   8.905 -0.6712  0.2845  1.0358
   32MOL0     H 4318  10.006   6.072   8.750  2.6986  2.5596  1.6564
   32MOL0     H 4319   9.290   6.285   8.863 -1.6889 -0.3672 -3.6656
   32MOL0     H 4320   9.119   6.207   8.989 -2.6662  0.4738  1.0078
   33MOL0     O 4321   9.456   9.098   7.790 -0.7286  0.8082 -0.3957
   33MOL0     C 4322   9.396   9.073   7.688  0.1578  1.0349 -0.1467
   33MOL0     O 4323   9.277   9.014   7.687 -0.5991 -0.2125  0.3066
   33MOL0     C 4324   9.214   8.997   7.811 -0.1663  0.7388  0.2958
   33MOL0     C 4325   9.183   9.115   7.891 -0.3590  0.3337 -0.1696
   33MOL0     C 4326   9.104   9.113   8.005 -0.1513 -0.3979 -0.7628
   33MOL0     C 4327   9.052   8.987   8.042  0.0821 -0.6132 -0.3403
   33MOL0     O 4328   8.982   8.979   8.159  0.2929  0.5719 -0.1817
   33MOL0     C 4329   8.917   9.095   8.216  0.1259  0.8108 -0.3558
   33MOL0     C 4330   8.833   9.046   8.345  0.1994 -0.6693 -0.2738
   33MOL0     C 4331   8.792   9.170   8.427 -0.2087  1.1600 -0.4480
   33MOL0     C 4332   8.644   9.208   8.409 -0.1626  0.2334  0.0202
   33MOL0     C 4333   8.589   9.211   8.265  0.4034  0.3044 -0.1626
   33MOL0     C 4334   8.429   9.215   8.252  0.1611  0.6721 -0.5363
   33MOL0     C 4335   8.374   9.343   8.329  0.1936  0.0012 -0.1562
   33MOL0     C 4336   8.226   9.359   8.338  0.0834  1.0089  0.5262
   33MOL0     N 4337   8.163   9.244   8.403  0.2864 -0.1089  0.4675
   33MOL0     C 4338   8.141   9.238   8.539 -1.1196  0.4775  0.3802
   33MOL0     C 4339   8.068   9.130   8.562 -0.6947  0.9695 -0.2959
   33MOL0     C 4340   8.022   9.089   8.703 -0.8766  0.5583  0.0410
   33MOL0     C 4341   7.875   9.125   8.744  0.4568  0.2175 -0.0396
   33MOL0     C 4342   7.862   9.263   8.810  0.2421 -0.4669  0.5704
   33MOL0     C 4343   7.825   9.380   8.717  0.5755 -0.4513 -0.2972
   33MOL0     O 4344   7.829   9.500   8.788  0.1509 -0.3208 -0.4995
   33MOL0     C 4345   7.759   9.602   8.739  0.1970 -0.1712 -0.6208
   33MOL0     C 4346   7.707   9.604   8.610 -0.2670 -0.3187  0.2713
   33MOL0     C 4347   7.639   9.724   8.569 -0.1369 -0.1036 -0.1069
   33MOL0     C 4348   7.595   9.730   8.429 -0.6599 -0.0280 -0.2148
   33MOL0     C 4349   7.623   9.838   8.661 -0.1184  0.8714 -0.7685
   33MOL0     C 4350   7.557   9.966   8.630  0.5989  0.8067 -0.3353
   33MOL0     O 4351   7.514   9.992   8.503 -0.4194 -0.1698 -0.0321
   33MOL0     C 4352   7.406  10.070   8.483 -0.7803 -0.2598 -0.8428
   33MOL0     C 4353   7.279  10.045   8.538  0.6587 -0.6142 -0.6352
   33MOL0     C 4354   7.174  10.140   8.520  0.3836  0.8250  0.2185
   33MOL0     C 4355   7.194  10.249   8.429  0.9474  0.1564 -0.0965
   33MOL0     O 4356   7.094  10.341   8.397 -0.4140 -0.0572  0.0309
   33MOL0     C 4357   6.973  10.332   8.480 -0.0613  0.5105  0.7106
   33MOL0     C 4358   6.885  10.453   8.460 -0.7934 -0.1993 -0.1204
   33MOL0     C 4359   6.808  10.440   8.333 -0.5657 -0.2958 -1.0191
   33MOL0     C 4360   6.738  10.574   8.312 -0.1895  0.3457  0.3804
   33MOL0     C 4361   6.662  10.571   8.181 -1.0548 -0.0061  0.3190
   33MOL0     C 4362   6.592  10.702   8.166 -0.1245 -0.3980  0.1079
   33MOL0     C 4363   6.457  10.711   8.246  0.4394  0.2619 -0.2194
   33MOL0     C 4364   6.341  10.646   8.184 -0.2784  0.1859  0.1857
   33MOL0    Cl 4365   6.191  10.657   8.285 -0.1895  0.2547 -0.1413
   33MOL0     C 4366   7.321  10.278   8.384  0.0939  0.5295 -1.1270
   33MOL0     C 4367   7.431  10.188   8.411 -0.3938  0.4003  0.2514
   33MOL0     O 4368   7.532  10.035   8.728  0.3044  0.0046  0.0555
   33MOL0     C 4369   7.664   9.820   8.792  0.8470  0.0565 -0.2800
   33MOL0     C 4370   7.731   9.708   8.828 -0.8778  0.2868 -0.3728
   33MOL0     N 4371   8.039   9.071   8.442  1.3918 -0.3419  0.1508
   33MOL0     N 4372   8.086   9.144   8.345  0.5303 -0.5644  1.0317
   33MOL0     C 4373   9.074   8.875   7.970 -0.5662 -0.2722  0.3242
   33MOL0     C 4374   9.147   8.876   7.853  0.1012 -0.6589  0.5707
   33MOL0     C 4375   9.483   9.084   7.567  0.6872  0.0673  0.7592
   33MOL0     C 4376   9.429   9.050   7.440  0.1714 -0.4346 -0.0639
   33MOL0     C 4377   9.500   9.058   7.325  0.4224 -0.1534 -0.4546
   33MOL0     C 4378   9.642   9.082   7.326 -0.6679  0.7357 -0.6631
   33MOL0     O 4379   9.715   9.076   7.205  0.1811  0.1610  0.1783
   33MOL0     C 4380   9.862   9.057   7.203  0.4391  0.7850 -0.0165
   33MOL0     C 4381   9.923   9.057   7.067 -0.1363 -0.6483  0.3888
   33MOL0     C 4382   9.896   9.192   6.998  0.1971  0.9933  1.2835
   33MOL0     C 4383   9.958   9.188   6.852  0.2714 -0.7738 -1.0461
   33MOL0     C 4384  10.101   9.171   6.856  0.7998  0.5384 -0.9251
   33MOL0     C 4385  10.218   9.147   6.849 -0.4360  0.7621 -0.9387
   33MOL0     C 4386   9.695   9.117   7.448  0.3132 -0.4825 -0.3933
   33MOL0     C 4387   9.615   9.124   7.566  0.3097  0.4322  0.0362
   33MOL0     H 4388   9.221   9.215   7.871 -0.8100  0.8798  1.5312
   33MOL0     H 4389   9.090   9.208   8.056  0.2757 -0.6236 -0.2159
   33MOL0     H 4390   8.997   9.163   8.248  0.1316  0.3468  0.6614
   33MOL0     H 4391   8.844   9.149   8.155 -0.8293 -0.8096 -0.7001
   33MOL0     H 4392   8.750   8.981   8.315 -0.1378 -0.9906  1.2276
   33MOL0     H 4393   8.900   8.985   8.407 -1.5657 -1.2830  1.1151
   33MOL0     H 4394   8.815   9.145   8.531  0.9201  0.8496 -0.7608
   33MOL0     H 4395   8.840   9.259   8.387  0.7481  0.8689  0.0287
   33MOL0     H 4396   8.582   9.135   8.462  1.6408 -0.5915  1.1081
   33MOL0     H 4397   8.640   9.303   8.463  2.5342 -0.6842  2.0975
   33MOL0     H 4398   8.622   9.300   8.210  0.1226  0.5806  0.1084
   33MOL0     H 4399   8.612   9.116   8.216 -3.6653 -1.0725  0.1782
   33MOL0     H 4400   8.395   9.213   8.148 -2.0716  0.2650  0.1400
   33MOL0     H 4401   8.384   9.134   8.311  1.1985  0.8256  0.4972
   33MOL0     H 4402   8.421   9.356   8.427 -3.1932 -3.8430  2.3010
   33MOL0     H 4403   8.391   9.429   8.263 -1.4518 -1.1948 -2.2789
   33MOL0     H 4404   8.180   9.386   8.243 -2.1176 -0.9896  0.9137
   33MOL0     H 4405   8.205   9.451   8.393  1.6730  0.4320  2.2196
   33MOL0     H 4406   8.171   9.317   8.607  2.2745 -1.1526  0.9943
   33MOL0     H 4407   8.033   8.981   8.714  0.3497  0.6726  0.0636
   33MOL0     H 4408   8.085   9.124   8.785 -0.7367  2.6449 -0.9065
   33MOL0     H 4409   7.846   9.053   8.821 -0.7564  0.4876 -0.2093
   33MOL0     H 4410   7.804   9.108   8.662 -0.2069  0.4260  0.4821
   33MOL0     H 4411   7.960   9.293   8.848 -0.6020  2.7661  0.4974
   33MOL0     H 4412   7.787   9.261   8.890 -2.0966  0.9970 -1.4294
   33MOL0     H 4413   7.718   9.369   8.697 -0.5198  2.5294  2.8256
   33MOL0     H 4414   7.887   9.380   8.627  0.8061 -1.2023 -0.1458
   33MOL0     H 4415   7.705   9.514   8.550  0.1491  0.5108 -1.0457
   33MOL0     H 4416   7.637   9.820   8.382 -0.8801 -1.0755 -2.5752
   33MOL0     H 4417   7.628   9.635   8.385 -1.7058 -1.4133  1.8479
   33MOL0     H 4418   7.486   9.728   8.432 -0.6570 -2.7840  1.2624
   33MOL0     H 4419   7.249   9.964   8.604 -1.3871  1.9344  1.8058
   33MOL0     H 4420   7.085  10.117   8.577 -0.0055  0.6312 -0.4604
   33MOL0     H 4421   6.919  10.238   8.468 -0.0128  0.6428 -0.7731
   33MOL0     H 4422   7.003  10.338   8.585  0.4331 -0.8182  0.6599
   33MOL0     H 4423   6.819  10.459   8.547  1.3946 -0.1741  1.6185
   33MOL0     H 4424   6.951  10.540   8.466 -0.4883 -0.0912 -3.2799
   33MOL0     H 4425   6.739  10.356   8.345 -0.6728 -0.2946 -1.6040
   33MOL0     H 4426   6.869  10.429   8.243 -1.6962 -0.4968 -1.7878
   33MOL0     H 4427   6.670  10.591   8.396  1.6321 -1.0629  2.2410
   33MOL0     H 4428   6.803  10.661   8.319 -0.6993  0.6281  2.3810
   33MOL0     H 4429   6.600  10.482   8.170 -1.0176 -0.0940  0.7826
   33MOL0     H 4430   6.732  10.572   8.098 -4.1142  0.0858 -2.4610
   33MOL0     H 4431   6.662  10.778   8.203  0.5371 -0.7110 -0.4711
   33MOL0     H 4432   6.570  10.713   8.060  0.9094  1.2753  0.0376
   33MOL0     H 4433   6.444  10.820   8.253  2.1670  0.5779 -1.1789
   33MOL0     H 4434   6.463  10.669   8.347 -0.5452  5.0505  2.1080
   33MOL0     H 4435   6.375  10.545   8.161  1.4617  1.0998 -1.6528
   33MOL0     H 4436   6.309  10.693   8.090  1.8376 -3.1784 -2.4803
   33MOL0     H 4437   7.333  10.371   8.330  0.5904  2.9593  2.7806
   33MOL0     H 4438   7.533  10.216   8.385 -0.7534  1.3172 -0.2084
   33MOL0     H 4439   7.639   9.885   8.875 -3.8843  2.1514 -2.9454
   33MOL0     H 4440   7.774   9.705   8.928  0.7091 -1.6190 -1.0323
   33MOL0     H 4441   9.016   8.791   8.008 -2.7818  1.7104  1.6004
   33MOL0     H 4442   9.149   8.788   7.790  1.5714 -1.4740  1.6972
   33MOL0     H 4443   9.327   9.014   7.444 -0.8761  2.2449 -0.5944
   33MOL0     H 4444   9.452   9.023   7.234  2.9226 -2.5606 -1.0168
   33MOL0     H 4445   9.905   9.134   7.268 -1.0319  0.3255  1.5452
   33MOL0     H 4446   9.894   8.958   7.237  0.1988  0.3667 -0.9709
   33MOL0     H 4447   9.870   8.974   7.018 -0.8218 -0.0635  0.1215
   33MOL0     H 4448  10.030   9.031   7.066 -0.0388 -0.2914  1.3534
   33MOL0     H 4449   9.939   9.271   7.061  2.4905  0.3862  0.5810
   33MOL0     H 4450   9.787   9.199   6.986  0.0040  0.6068  2.6135
   33MOL0     H 4451   9.928   9.279   6.800  0.2254  0.0965  0.4278
   33MOL0     H 4452   9.917   9.097   6.808  2.4878 -1.4683 -1.7537
   33MOL0     H 4453  10.320   9.114   6.842 -0.2625 -0.9908  4.5626
   33MOL0     H 4454   9.802   9.126   7.460  0.5143 -0.7458 -1.8672
   33MOL0     H 4455   9.667   9.131   7.661  1.6749 -1.5836 -0.5008
   34MOL0     O 4456   8.387   1.617  10.367  0.2065 -0.6693 -0.4785
   34MOL0     C 4457   8.291   1.589  10.298 -0.4881 -0.0343 -0.7634
   34MOL0     O 4458   8.161   1.597  10.338  0.5015 -0.7246 -0.0266
   34MOL0     C 4459   8.117   1.622  10.465  0.8346 -0.3127  0.1835
   34MOL0     C 4460   8.171   1.564  10.579  0.5767 -0.0376  0.5635
   34MOL0     C 4461   8.103   1.577  10.696  0.7433  0.7131 -0.3124
   34MOL0     C 4462   8.016   1.685  10.719 -0.3596  0.8112 -0.0177
   34MOL0     O 4463   7.955   1.722  10.836 -0.1388  0.1682  0.1763
   34MOL0     C 4464   8.021   1.695  10.956  0.5164 -0.3825  0.6932
   34MOL0     C 4465   7.911   1.701  11.072  0.1339  0.5115  0.3595
   34MOL0     C 4466   7.779   1.627  11.047 -0.2568  0.2885 -0.0391
   34MOL0     C 4467   7.677   1.648  11.161  0.0056  0.0097 -0.2106
   34MOL0     C 4468   7.539   1.626  11.109 -0.8795  0.5438  0.2143
   34MOL0     C 4469   7.432   1.656  11.216  0.1417  0.5634  0.5771
   34MOL0     C 4470   7.295   1.603  11.183 -1.4927  0.3794 -0.1376
   34MOL0     C 4471   7.234   1.670  11.061 -0.1542  0.3035  0.5840
   34MOL0     N 4472   7.107   1.616  11.013 -0.6543 -0.9643 -0.1119
   34MOL0     C 4473   7.089   1.574  10.886  0.2508  0.2462 -0.1829
   34MOL0     C 4474   6.963   1.536  10.883 -0.6092  0.3337 -0.2150
   34MOL0     C 4475   6.881   1.487  10.765  0.1075  0.0023  0.0464
   34MOL0     C 4476   6.732   1.498  10.773 -0.2383  0.3534  0.8088
   34MOL0     C 4477   6.670   1.402  10.663  0.2790 -0.4246  0.3260
   34MOL0     C 4478   6.523   1.360  10.695 -0.5700 -0.3176  0.1525
   34MOL0     O 4479   6.433   1.468  10.696 -0.0903 -0.8584  0.1215
   34MOL0     C 4480   6.295   1.451  10.697 -0.0224  0.0331  0.1541
   34MOL0     C 4481   6.215   1.563  10.693  0.3478 -0.2272 -0.5283
   34MOL0     C 4482   6.077   1.549  10.698  0.1801  0.1149 -0.0686
   34MOL0     C 4483   5.984   1.668  10.703  0.1808 -0.2199  0.3421
   34MOL0     C 4484   6.018   1.417  10.689 -1.5846  0.8532  0.4351
   34MOL0     C 4485   5.879   1.384  10.676  0.9397 -0.4039 -0.8455
   34MOL0     O 4486   5.837   1.263  10.723  0.4658  1.1041 -0.3871
   34MOL0     C 4487   5.699   1.253  10.731  0.3851 -0.0855  0.3990
   34MOL0     C 4488   5.642   1.304  10.850 -0.0203  0.1515  0.1132
   34MOL0     C 4489   5.504   1.302  10.861 -0.5171 -1.3684  0.7910
   34MOL0     C 4490   5.425   1.240  10.762  0.4914 -0.4924 -0.2538
   34MOL0     O 4491   5.293   1.226  10.800  0.3866  0.4099 -0.1641
   34MOL0     C 4492   5.188   1.180  10.712 -0.2993 -0.0580 -0.1053
   34MOL0     C 4493   5.064   1.236  10.761  0.8634 -0.0317  1.0711
   34MOL0     C 4494   5.067   1.386  10.743  0.1861 -0.5444 -0.1680
   34MOL0     C 4495   4.935   1.452  10.796 -0.1875  0.5451 -0.1691
   34MOL0     C 4496   4.808   1.433  10.719  0.9145 -0.0357  0.8084
   34MOL0     C 4497   4.693   1.465  10.815 -0.4891 -0.0909  0.5150
   34MOL0     C 4498   4.553   1.427  10.749 -0.7757 -0.0151  0.9136
   34MOL0     C 4499   4.434   1.459  10.836  0.5668  0.1202 -0.0128
   34MOL0    Cl 4500   4.281   1.358  10.776 -0.1674 -0.1494 -0.0478
   34MOL0     C 4501   5.489   1.188  10.648  0.2815 -0.3635 -0.2040
   34MOL0     C 4502   5.625   1.191  10.631  0.3009 -0.2003 -0.3289
   34MOL0     O 4503   5.803   1.465  10.619  0.3829  0.6753  0.0501
   34MOL0     C 4504   6.107   1.307  10.680  1.1158  0.3343 -0.2063
   34MOL0     C 4505   6.244   1.328  10.694  1.2698  0.5962 -0.9928
   34MOL0     N 4506   6.907   1.555  11.004  0.1664 -0.2853  0.3279
   34MOL0     N 4507   6.999   1.596  11.084 -0.1262 -0.7236  0.0627
   34MOL0     C 4508   7.968   1.744  10.606 -0.3746  0.0047 -0.3346
   34MOL0     C 4509   8.013   1.710  10.480 -1.2270 -0.7938  0.3097
   34MOL0     C 4510   8.304   1.556  10.153  0.2698  0.1412  0.4399
   34MOL0     C 4511   8.429   1.558  10.092 -0.2017  0.2566  0.4901
   34MOL0     C 4512   8.440   1.546   9.953 -0.5021 -0.0805 -0.1176
   34MOL0     C 4513   8.328   1.527   9.879  0.6220 -0.0775 -0.8263
   34MOL0     O 4514   8.330   1.508   9.741 -0.2604  0.4399 -0.3393
   34MOL0     C 4515   8.443   1.456   9.670 -0.3179 -0.1658 -0.6675
   34MOL0     C 4516   8.390   1.433   9.529  0.8662  0.2649  1.1393
   34MOL0     C 4517   8.343   1.561   9.449 -0.1447 -0.6715 -0.2207
   34MOL0     C 4518   8.442   1.668   9.418 -0.0716 -0.1660  0.1919
   34MOL0     C 4519   8.583   1.619   9.398  0.0887 -0.4923  0.1966
   34MOL0     C 4520   8.688   1.568   9.386 -0.5808  0.2885  0.3927
   34MOL0     C 4521   8.202   1.514   9.937 -0.7700  0.2063  0.2358
   34MOL0     C 4522   8.187   1.526  10.076 -0.7086 -0.7774 -0.4739
   34MOL0     H 4523   8.251   1.493  10.563  0.3181  0.0755 -1.4150
   34MOL0     H 4524   8.118   1.506  10.776  0.3980  0.7458 -0.2174
   34MOL0     H 4525   8.056   1.591  10.955 -0.5995 -0.7771 -0.5121
   34MOL0     H 4526   8.106   1.759  10.978  0.0926 -0.4395  2.6903
   34MOL0     H 4527   7.952   1.654  11.162  0.5315  0.6371  0.2460
   34MOL0     H 4528   7.880   1.803  11.095  2.3519  1.8713 -2.1799
   34MOL0     H 4529   7.739   1.664  10.952 -1.2901 -2.6789 -0.8871
   34MOL0     H 4530   7.790   1.518  11.039 -2.2345 -0.0263  0.9679
   34MOL0     H 4531   7.694   1.583  11.248  2.0091  0.0981 -0.5104
   34MOL0     H 4532   7.682   1.750  11.201 -3.3365  0.3884 -0.4354
   34MOL0     H 4533   7.533   1.690  11.021  4.3900  0.5158 -0.5030
   34MOL0     H 4534   7.518   1.529  11.065 -0.7818  0.1144  1.0913
   34MOL0     H 4535   7.467   1.607  11.307 -0.3215 -0.9568 -0.0367
   34MOL0     H 4536   7.423   1.763  11.237  1.3528  0.7488  0.2467
   34MOL0     H 4537   7.289   1.495  11.168 -0.8528  0.6688 -2.8349
   34MOL0     H 4538   7.242   1.627  11.276 -2.7807 -0.7212 -0.5597
   34MOL0     H 4539   7.297   1.671  10.972 -1.0699 -0.1585 -0.0835
   34MOL0     H 4540   7.219   1.777  11.080 -0.1244  0.3673  0.2409
   34MOL0     H 4541   7.156   1.582  10.801  0.8021  1.4382  0.3374
   34MOL0     H 4542   6.920   1.537  10.676 -1.3500  1.2283  0.0472
   34MOL0     H 4543   6.904   1.381  10.772  2.2589  0.3464 -0.9771
   34MOL0     H 4544   6.707   1.604  10.763  2.2407  1.2285  2.7676
   34MOL0     H 4545   6.696   1.468  10.872 -2.2782 -3.0534 -0.7708
   34MOL0     H 4546   6.731   1.311  10.661  1.0564  0.0907 -0.1536
   34MOL0     H 4547   6.676   1.438  10.560 -1.4275  0.2201  0.4227
   34MOL0     H 4548   6.522   1.305  10.789 -2.1605  0.5374  0.6603
   34MOL0     H 4549   6.495   1.290  10.615 -2.3796  0.0533  0.4188
   34MOL0     H 4550   6.260   1.661  10.688  0.1982 -0.0407  1.1745
   34MOL0     H 4551   5.954   1.697  10.601  1.3974  0.2280  0.0983
   34MOL0     H 4552   5.893   1.640  10.757  0.3984  0.7830  1.2422
   34MOL0     H 4553   6.022   1.760  10.748 -1.7718  0.8343 -0.0331
   34MOL0     H 4554   5.706   1.337  10.930 -1.7454 -1.0470  2.0900
   34MOL0     H 4555   5.461   1.348  10.949  0.4782  0.5057  0.3512
   34MOL0     H 4556   5.207   1.199  10.606 -0.9696  0.7335 -0.0845
   34MOL0     H 4557   5.180   1.071  10.719  0.3077 -0.0652  0.6183
   34MOL0     H 4558   4.985   1.190  10.701  0.7923 -0.4389  1.4711
   34MOL0     H 4559   5.036   1.210  10.864 -4.0676 -1.0689 -0.2573
   34MOL0     H 4560   5.083   1.410  10.638 -0.2255 -1.0794 -0.3588
   34MOL0     H 4561   5.145   1.428  10.808  0.3486 -0.5972 -0.3289
   34MOL0     H 4562   4.924   1.407  10.895  2.8294 -1.5722 -0.6494
   34MOL0     H 4563   4.952   1.559  10.814 -0.3260  0.6579 -0.7057
   34MOL0     H 4564   4.805   1.326  10.696 -1.2400 -0.4886  2.7039
   34MOL0     H 4565   4.789   1.504  10.638 -2.1658 -0.3802  1.0969
   34MOL0     H 4566   4.702   1.410  10.909  1.6995  2.0442  1.6665
   34MOL0     H 4567   4.689   1.573  10.830  0.0245  0.0314 -0.1529
   34MOL0     H 4568   4.568   1.319  10.741  0.1736  0.0941  1.0629
   34MOL0     H 4569   4.550   1.470  10.649  1.4809 -0.5715  0.5461
   34MOL0     H 4570   4.407   1.565  10.833  1.4965  0.4132  1.0443
   34MOL0     H 4571   4.455   1.429  10.939 -3.8816  1.2315  1.4558
   34MOL0     H 4572   5.426   1.141  10.573 -0.4783 -0.6138  0.5756
   34MOL0     H 4573   5.667   1.139  10.546  0.7409  0.5691 -0.5808
   34MOL0     H 4574   6.087   1.202  10.666  2.3488  0.2718 -1.7493
   34MOL0     H 4575   6.303   1.238  10.679  0.1498 -0.2253 -0.6270
   34MOL0     H 4576   7.895   1.820  10.629 -1.3932 -0.7216 -1.0514
   34MOL0     H 4577   7.981   1.767  10.393  2.2909  0.3710 -0.3539
   34MOL0     H 4578   8.516   1.575  10.155  1.4761 -0.8558 -1.4102
   34MOL0     H 4579   8.538   1.537   9.907 -1.0570 -1.3304 -1.1348
   34MOL0     H 4580   8.526   1.527   9.665 -1.7005  1.5305 -0.4708
   34MOL0     H 4581   8.487   1.368   9.720  2.6485  1.4567 -0.1948
   34MOL0     H 4582   8.302   1.371   9.548 -0.7577 -0.1902 -5.2787
   34MOL0     H 4583   8.457   1.370   9.468  1.4679  0.8258  1.2176
   34MOL0     H 4584   8.265   1.601   9.515  1.7579 -1.4913  2.7098
   34MOL0     H 4585   8.300   1.529   9.354 -0.1967 -0.0651 -0.4076
   34MOL0     H 4586   8.449   1.740   9.500 -1.4953  1.6203 -1.1826
   34MOL0     H 4587   8.408   1.726   9.333  2.7040  1.3088 -0.0265
   34MOL0     H 4588   8.784   1.524   9.370  0.2087 -0.1532  5.0123
   34MOL0     H 4589   8.122   1.496   9.866 -1.1923  0.7578  0.5656
   34MOL0     H 4590   8.086   1.514  10.115 -0.1745  0.8327  1.5916
   35MOL0     O 4591  10.539   9.205   7.531  0.4247  0.4306  0.0113
   35MOL0     C 4592  10.571   9.105   7.470 -0.3568 -0.5666 -0.7417
   35MOL0     O 4593  10.494   8.991   7.450  0.0213  0.1480 -0.2132
   35MOL0     C 4594  10.365   8.988   7.497  1.1691  0.3812 -0.4608
   35MOL0     C 4595  10.264   8.943   7.414 -0.5716 -0.2333 -0.1672
   35MOL0     C 4596  10.134   8.925   7.476  0.6691 -0.1686  0.2417
   35MOL0     C 4597  10.109   8.959   7.607  0.2811  0.3177 -1.4921
   35MOL0     O 4598   9.977   8.957   7.651  0.0780  0.3633  0.1656
   35MOL0     C 4599   9.946   8.980   7.786 -0.4657  0.0747 -0.3165
   35MOL0     C 4600   9.822   8.909   7.836  0.3900 -0.7177  0.3611
   35MOL0     C 4601   9.755   8.968   7.958 -0.0135  0.0530  0.1482
   35MOL0     C 4602   9.632   8.884   8.012  0.2847 -0.0313  0.8603
   35MOL0     C 4603   9.564   8.961   8.131  0.4335 -0.3095  1.2174
   35MOL0     C 4604   9.437   8.883   8.170 -0.0178 -0.2920  0.3434
   35MOL0     C 4605   9.346   8.954   8.274 -0.5881  0.9246  0.1223
   35MOL0     C 4606   9.410   8.965   8.410  0.1952  0.1000  1.1400
   35MOL0     N 4607   9.318   9.034   8.508 -0.5707 -0.4663 -0.3983
   35MOL0     C 4608   9.343   9.158   8.567 -0.6103 -0.1676 -0.0122
   35MOL0     C 4609   9.238   9.164   8.644 -0.7866 -0.1106 -0.4584
   35MOL0     C 4610   9.209   9.264   8.755 -0.7127 -0.2493 -0.1529
   35MOL0     C 4611   9.081   9.334   8.725  0.3714 -0.2275  0.4514
   35MOL0     C 4612   9.055   9.378   8.575 -0.5667 -0.1024 -0.3957
   35MOL0     C 4613   8.934   9.479   8.577 -0.4152  0.8131 -0.1169
   35MOL0     O 4614   8.842   9.462   8.683 -0.6058  0.1869  0.3515
   35MOL0     C 4615   8.715   9.516   8.656 -0.8611 -0.4609 -0.6861
   35MOL0     C 4616   8.621   9.475   8.744 -0.1789 -0.7572 -0.7110
   35MOL0     C 4617   8.492   9.532   8.750 -0.3492  0.3143  0.0983
   35MOL0     C 4618   8.396   9.493   8.857 -0.5299  0.1371  0.2063
   35MOL0     C 4619   8.450   9.627   8.653 -0.2431 -0.4845 -0.3799
   35MOL0     C 4620   8.319   9.703   8.663 -0.3344  0.0090  0.0232
   35MOL0     O 4621   8.343   9.834   8.706  0.4729  0.2724 -0.4766
   35MOL0     C 4622   8.253   9.939   8.713  1.0103  0.2980 -0.5665
   35MOL0     C 4623   8.297  10.061   8.763  0.3523  0.1676 -0.3359
   35MOL0     C 4624   8.218  10.175   8.763 -1.2282 -0.5677 -1.1713
   35MOL0     C 4625   8.090  10.182   8.711 -0.2288  0.5527 -0.5697
   35MOL0     O 4626   8.017  10.292   8.733 -0.3767  0.6032 -0.1008
   35MOL0     C 4627   7.879  10.299   8.701 -0.0778  0.0120  0.2195
   35MOL0     C 4628   7.804  10.423   8.736  1.1182  0.2882  0.0832
   35MOL0     C 4629   7.663  10.391   8.687  0.5261 -0.0053 -0.1290
   35MOL0     C 4630   7.586  10.530   8.706 -0.4390  0.0170 -0.2800
   35MOL0     C 4631   7.440  10.531   8.668 -0.7645 -0.3866  0.1498
   35MOL0     C 4632   7.368  10.410   8.726  0.1086  0.6626 -0.3629
   35MOL0     C 4633   7.358  10.398   8.874  0.2074  0.3091  0.6058
   35MOL0     C 4634   7.313  10.525   8.950 -0.7702 -0.7872  0.1280
   35MOL0    Cl 4635   7.269  10.467   9.115 -0.0628 -0.2921  0.3423
   35MOL0     C 4636   8.048  10.055   8.660  0.3392 -0.4797  0.7119
   35MOL0     C 4637   8.130   9.932   8.664 -0.0304 -0.5201 -0.6311
   35MOL0     O 4638   8.210   9.647   8.661 -0.1541  0.7404 -0.5338
   35MOL0     C 4639   8.548   9.673   8.566 -0.2534 -0.8158 -0.3280
   35MOL0     C 4640   8.684   9.613   8.564  0.1534 -0.2377 -0.3474
   35MOL0     N 4641   9.159   9.054   8.626 -1.1141  0.0301 -0.1848
   35MOL0     N 4642   9.209   8.969   8.550 -0.4817 -0.8304 -0.7011
   35MOL0     C 4643  10.219   8.986   7.683 -0.1704  0.2947  0.6195
   35MOL0     C 4644  10.345   9.015   7.631  0.5423  0.2802  0.2738
   35MOL0     C 4645  10.711   9.110   7.421 -0.2521 -0.0643 -0.0335
   35MOL0     C 4646  10.785   8.999   7.397 -0.3300  0.3997  0.8509
   35MOL0     C 4647  10.923   9.003   7.380  0.6130 -0.4181 -1.0619
   35MOL0     C 4648  10.986   9.128   7.369  0.4610  1.0497  0.1300
   35MOL0     O 4649  11.118   9.116   7.341 -0.3977 -0.4157  0.0425
   35MOL0     C 4650  11.193   9.235   7.326 -0.4669  0.6266  0.6207
   35MOL0     C 4651  11.229   9.266   7.181  0.3099  0.1425 -0.2706
   35MOL0     C 4652  11.280   9.413   7.151 -0.1171 -0.1328  0.5097
   35MOL0     C 4653  11.185   9.522   7.212 -0.1082  0.1055  0.5821
   35MOL0     C 4654  11.055   9.515   7.144  0.3721  0.7829  0.2351
   35MOL0     C 4655  10.947   9.526   7.092 -0.2995  0.1073  0.3534
   35MOL0     C 4656  10.906   9.240   7.388 -0.0831 -0.6210  0.6612
   35MOL0     C 4657  10.773   9.237   7.419 -1.0231  0.7052  0.5016
   35MOL0     H 4658  10.283   8.910   7.312 -4.0754  0.1945 -1.1059
   35MOL0     H 4659  10.047   8.882   7.428  1.1989 -2.0982  0.8969
   35MOL0     H 4660  10.026   8.957   7.857 -0.8088 -0.3798 -0.0669
   35MOL0     H 4661   9.918   9.085   7.794  0.8389  0.2965  2.7375
   35MOL0     H 4662   9.742   8.909   7.761 -1.7608 -0.6284  2.5230
   35MOL0     H 4663   9.849   8.807   7.864 -4.1497 -1.2061  4.1976
   35MOL0     H 4664   9.828   8.973   8.040  0.8971 -1.7831 -0.5021
   35MOL0     H 4665   9.715   9.068   7.941 -1.8440 -0.9015 -1.4460
   35MOL0     H 4666   9.569   8.860   7.926 -1.1545 -3.4602  2.6449
   35MOL0     H 4667   9.664   8.782   8.037 -1.3358 -0.2152  2.4182
   35MOL0     H 4668   9.633   8.971   8.215  2.3520 -1.0981 -0.1610
   35MOL0     H 4669   9.539   9.060   8.092 -1.8459 -1.1517  0.4002
   35MOL0     H 4670   9.370   8.866   8.085 -0.0302  0.5163  0.1815
   35MOL0     H 4671   9.461   8.785   8.211 -2.0016 -1.6178 -1.4709
   35MOL0     H 4672   9.326   9.058   8.246  4.6098  1.8911 -0.8870
   35MOL0     H 4673   9.255   8.892   8.280 -0.8157  1.3681  2.2844
   35MOL0     H 4674   9.501   9.026   8.416 -0.7678  1.5414  1.9354
   35MOL0     H 4675   9.433   8.862   8.440 -1.3721 -0.5096  0.3305
   35MOL0     H 4676   9.429   9.224   8.560 -0.9253  0.2817  0.2373
   35MOL0     H 4677   9.193   9.223   8.854  1.1321 -1.0216 -0.1293
   35MOL0     H 4678   9.284   9.344   8.752 -0.3226 -0.6267 -1.1133
   35MOL0     H 4679   9.069   9.416   8.796 -2.5018 -2.2862  2.5746
   35MOL0     H 4680   9.003   9.267   8.762 -0.3159 -0.4457 -1.2853
   35MOL0     H 4681   9.037   9.297   8.504 -0.6133  0.5901 -1.1891
   35MOL0     H 4682   9.142   9.426   8.529  0.1863 -1.8538 -0.8995
   35MOL0     H 4683   8.880   9.478   8.482 -3.0475  0.8982  1.2860
   35MOL0     H 4684   8.988   9.573   8.592  1.2771 -0.2759  0.9585
   35MOL0     H 4685   8.660   9.399   8.811  3.3167  0.8068 -0.7533
   35MOL0     H 4686   8.453   9.456   8.943  0.7882  0.9043 -0.3121
   35MOL0     H 4687   8.343   9.581   8.895 -1.8087 -0.0361 -1.0968
   35MOL0     H 4688   8.327   9.414   8.824  0.8788 -0.8050 -0.5812
   35MOL0     H 4689   8.400  10.074   8.795  0.3140 -0.9377  0.2826
   35MOL0     H 4690   8.252  10.264   8.814 -1.4135 -0.5456 -1.0846
   35MOL0     H 4691   7.871  10.286   8.593 -1.8222  0.6283  0.2392
   35MOL0     H 4692   7.822  10.217   8.746  0.0533 -0.7979 -1.0242
   35MOL0     H 4693   7.788  10.434   8.843  0.0742  0.9262 -0.1242
   35MOL0     H 4694   7.840  10.514   8.687 -4.2090  0.6389 -4.2329
   35MOL0     H 4695   7.623  10.308   8.746  2.8235 -0.3028  1.1240
   35MOL0     H 4696   7.658  10.363   8.581  2.8867 -3.2377  0.4653
   35MOL0     H 4697   7.598  10.564   8.809  1.0621 -0.3271 -0.3208
   35MOL0     H 4698   7.644  10.598   8.642  0.1066 -0.5234 -0.3690
   35MOL0     H 4699   7.428  10.517   8.560  1.3273  1.5691 -0.4077
   35MOL0     H 4700   7.389  10.622   8.700 -0.0391  0.4468 -0.9913
   35MOL0     H 4701   7.262  10.400   8.699  0.2851 -1.7229 -0.3975
   35MOL0     H 4702   7.407  10.313   8.693 -0.2181 -0.1979  1.6273
   35MOL0     H 4703   7.459  10.368   8.902  1.0170  0.8083 -1.6131
   35MOL0     H 4704   7.293  10.314   8.897  2.3011 -1.2982  0.9681
   35MOL0     H 4705   7.232  10.574   8.896 -0.4311 -1.0811 -0.6504
   35MOL0     H 4706   7.400  10.589   8.966  0.2631 -1.5115 -2.1908
   35MOL0     H 4707   7.946  10.049   8.624 -1.1183  1.3624  4.0704
   35MOL0     H 4708   8.093   9.835   8.631 -0.4253  0.2892 -2.7186
   35MOL0     H 4709   8.531   9.755   8.496  0.1098 -0.4291  0.0292
   35MOL0     H 4710   8.751   9.661   8.493 -1.2482  0.3924 -1.2913
   35MOL0     H 4711  10.203   9.013   7.787 -5.8055 -0.7975  0.3302
   35MOL0     H 4712  10.421   9.041   7.704  1.6431 -1.3550 -0.2318
   35MOL0     H 4713  10.739   8.902   7.406  2.4602 -0.9607  1.4324
   35MOL0     H 4714  10.985   8.914   7.384  0.1155 -0.8763 -2.5088
   35MOL0     H 4715  11.135   9.317   7.369  0.3258  2.0386 -0.9172
   35MOL0     H 4716  11.285   9.227   7.386  0.7241 -0.6527 -1.2612
   35MOL0     H 4717  11.143   9.252   7.114  1.5390 -0.6397 -1.7590
   35MOL0     H 4718  11.304   9.193   7.149 -2.9818 -2.0684 -3.9552
   35MOL0     H 4719  11.290   9.423   7.042  0.7687 -1.0077  0.4955
   35MOL0     H 4720  11.375   9.428   7.203 -0.4345 -0.2743  1.1448
   35MOL0     H 4721  11.223   9.624   7.205  2.2324 -0.6563  1.3932
   35MOL0     H 4722  11.174   9.506   7.320 -1.3998 -0.7226  0.3544
   35MOL0     H 4723  10.856   9.516   7.036  0.9512 -1.1189 -1.5976
   35MOL0     H 4724  10.940   9.343   7.392  0.3599 -0.7891  1.7819
   35MOL0     H 4725  10.715   9.329   7.420 -3.6234 -0.8279  0.9173
   36MOL0     O 4726   3.375   9.823   8.672  0.2971  0.4946 -0.7299
   36MOL0     C 4727   3.422   9.917   8.735  1.6854  1.3127  0.7576
   36MOL0     O 4728   3.360   9.997   8.820 -0.5690 -0.6832 -0.0770
   36MOL0     C 4729   3.224  10.025   8.791  0.3539 -0.0368 -0.2916
   36MOL0     C 4730   3.182  10.054   8.660 -0.1585 -0.4872  0.1105
   36MOL0     C 4731   3.054  10.099   8.642 -1.1073  0.0874  0.5536
   36MOL0     C 4732   2.960  10.093   8.743 -0.2473 -0.0555 -0.3886
   36MOL0     O 4733   2.831  10.084   8.700  0.1157 -0.3236 -0.0089
   36MOL0     C 4734   2.727  10.062   8.798 -0.8652 -0.5934  0.1965
   36MOL0     C 4735   2.616  10.026   8.701 -0.0535 -0.3013  0.3355
   36MOL0     C 4736   2.500   9.977   8.792  0.4613 -0.3299 -0.2285
   36MOL0     C 4737   2.375   9.928   8.706  0.1497  0.3926  0.9429
   36MOL0     C 4738   2.256   9.867   8.788 -0.2307 -0.3732  0.3249
   36MOL0     C 4739   2.278   9.728   8.847  0.0432 -0.7327  0.4385
   36MOL0     C 4740   2.160   9.694   8.928  0.0166  0.3642  0.3453
   36MOL0     C 4741   2.148   9.787   9.049  1.3392 -0.6669 -0.5072
   36MOL0     N 4742   2.034   9.754   9.125 -0.4882 -0.4634  0.7881
   36MOL0     C 4743   1.902   9.800   9.100  0.6190  1.1019  0.0121
   36MOL0     C 4744   1.845   9.780   9.222  0.5195 -0.9906 -0.2865
   36MOL0     C 4745   1.701   9.817   9.261 -0.5259  0.1961 -0.1784
   36MOL0     C 4746   1.692   9.930   9.362 -0.2148  0.8115 -0.0220
   36MOL0     C 4747   1.575   9.918   9.454 -0.0242 -0.0582 -1.1393
   36MOL0     C 4748   1.436   9.926   9.390  0.0850 -0.5286  1.0142
   36MOL0     O 4749   1.325   9.915   9.481  0.6715  0.3553 -0.1816
   36MOL0     C 4750   1.212   9.860   9.427  0.4024 -0.2652  1.2283
   36MOL0     C 4751   1.112   9.806   9.512 -0.5348 -0.0294  0.1083
   36MOL0     C 4752   1.000   9.737   9.455  1.1496 -0.0589  0.9865
   36MOL0     C 4753   0.920   9.646   9.543  0.2084  0.0384  0.9071
   36MOL0     C 4754   0.975   9.746   9.311 -0.1768 -0.1518  0.0404
   36MOL0     C 4755   0.854   9.696   9.249  0.2235  0.2237  0.0614
   36MOL0     O 4756   0.724   9.722   9.297 -0.5655  0.4787  0.7146
   36MOL0     C 4757   0.609   9.695   9.223  0.9188 -0.5367  0.4639
   36MOL0     C 4758   0.586   9.582   9.154 -0.1464  0.9812 -0.7595
   36MOL0     C 4759   0.459   9.547   9.102 -0.5171  0.2123  0.7849
   36MOL0     C 4760   0.352   9.627   9.123 -0.0050 -0.7591 -0.2113
   36MOL0     O 4761   0.234   9.580   9.071 -0.5975  0.4918  0.2544
   36MOL0     C 4762   0.106   9.645   9.096 -0.0312  0.0136 -0.0654
   36MOL0     C 4763  -0.007   9.573   9.017 -0.5804  1.2676 -0.1252
   36MOL0     C 4764  -0.141   9.631   9.058 -0.2320 -0.7819 -0.1362
   36MOL0     C 4765  -0.244   9.581   8.951 -0.2203 -0.1095  0.2509
   36MOL0     C 4766  -0.380   9.646   8.974  0.1727 -0.3451  0.2438
   36MOL0     C 4767  -0.492   9.607   8.884  0.7274  0.3137  0.6966
   36MOL0     C 4768  -0.615   9.695   8.912 -0.0554  0.5027 -1.5883
   36MOL0     C 4769  -0.706   9.705   8.786 -0.1289  0.1733  0.7573
   36MOL0    Cl 4770  -0.629   9.759   8.633  0.4306 -0.1879 -0.0842
   36MOL0     C 4771   0.376   9.747   9.202 -0.3562 -0.9767  0.4953
   36MOL0     C 4772   0.502   9.782   9.238  0.9194 -0.0305  0.9690
   36MOL0     O 4773   0.882   9.636   9.141  0.2704  0.5423 -0.8638
   36MOL0     C 4774   1.058   9.827   9.233 -0.1999 -0.4473  0.0144
   36MOL0     C 4775   1.182   9.874   9.287  0.4298  0.1954 -0.4687
   36MOL0     N 4776   1.934   9.711   9.302  0.1919 -0.4256 -0.5601
   36MOL0     N 4777   2.047   9.707   9.247  0.1418  1.2412  0.5261
   36MOL0     C 4778   3.001  10.073   8.874 -1.2381 -0.1667 -0.0610
   36MOL0     C 4779   3.138  10.039   8.894  0.4546 -0.1574 -0.2309
   36MOL0     C 4780   3.558   9.921   8.744  0.2121  0.0724 -1.3512
   36MOL0     C 4781   3.613  10.041   8.790 -0.4320 -0.3691 -0.3268
   36MOL0     C 4782   3.750  10.052   8.815  0.0265  0.2358  0.9379
   36MOL0     C 4783   3.828   9.937   8.800 -0.4147  0.4211 -0.4879
   36MOL0     O 4784   3.961   9.946   8.848  0.6994  0.3675 -0.5074
   36MOL0     C 4785   4.036   9.840   8.904  0.7790 -0.0708  0.4052
   36MOL0     C 4786   4.165   9.898   8.975 -0.2374  0.2342 -0.1128
   36MOL0     C 4787   4.243   9.979   8.879 -0.0844 -0.4945 -0.0545
   36MOL0     C 4788   4.347   9.901   8.794  0.0687  0.1600 -0.0889
   36MOL0     C 4789   4.437   9.810   8.867  0.1352 -0.0309 -0.0117
   36MOL0     C 4790   4.497   9.720   8.928 -0.3837 -0.2759 -0.2256
   36MOL0     C 4791   3.773   9.819   8.752 -0.2771 -0.2678  1.0882
   36MOL0     C 4792   3.640   9.805   8.737  0.3368 -0.0977  1.1113
   36MOL0     H 4793   3.250  10.057   8.575 -0.6180 -1.1951 -0.2966
   36MOL0     H 4794   3.021  10.123   8.541 -1.8211 -0.3567  0.6746
   36MOL0     H 4795   2.751   9.973   8.856 -0.0061 -1.3234 -1.2318
   36MOL0     H 4796   2.709  10.158   8.847 -2.3850 -1.0840  0.6607
   36MOL0     H 4797   2.584  10.120   8.655  2.0119  0.6045  0.6338
   36MOL0     H 4798   2.623   9.961   8.613 -2.1917 -0.0777 -0.0499
   36MOL0     H 4799   2.538   9.888   8.843  0.6561 -0.1444 -0.0459
   36MOL0     H 4800   2.455  10.057   8.852 -0.8661  1.7555 -3.7278
   36MOL0     H 4801   2.329  10.017   8.661 -0.1623 -1.1770 -2.1043
   36MOL0     H 4802   2.405   9.862   8.625  2.3469  3.1104 -0.6172
   36MOL0     H 4803   2.224   9.941   8.862 -1.1829 -0.7666  0.3262
   36MOL0     H 4804   2.173   9.869   8.717 -1.0031 -3.2057  1.0188
   36MOL0     H 4805   2.303   9.659   8.765  2.0650  1.0426 -0.5427
   36MOL0     H 4806   2.373   9.737   8.901 -0.8871 -0.9378  2.1765
   36MOL0     H 4807   2.070   9.702   8.866  0.4039 -1.5991 -0.5267
   36MOL0     H 4808   2.162   9.595   8.974  1.2637  2.0600  4.4008
   36MOL0     H 4809   2.135   9.894   9.030 -0.2399 -0.6472  0.4613
   36MOL0     H 4810   2.242   9.762   9.099  0.3119 -1.6161  1.0218
   36MOL0     H 4811   1.866   9.841   9.006 -2.9609  1.2041  1.2597
   36MOL0     H 4812   1.638   9.842   9.175 -1.6695  2.1694  1.1507
   36MOL0     H 4813   1.667   9.720   9.298  1.0178 -0.4723 -0.4259
   36MOL0     H 4814   1.685  10.031   9.321  0.1106  1.2889  1.0636
   36MOL0     H 4815   1.786   9.931   9.418  2.1915 -1.8448 -3.5625
   36MOL0     H 4816   1.576   9.999   9.526 -2.6221  0.6419 -1.7901
   36MOL0     H 4817   1.575   9.820   9.503 -3.2218 -0.0451 -0.9211
   36MOL0     H 4818   1.448   9.855   9.307  3.3441  2.3536 -1.2570
   36MOL0     H 4819   1.434  10.018   9.331  4.2086 -2.0153 -1.9170
   36MOL0     H 4820   1.128   9.777   9.616  1.4044 -2.5763 -0.7970
   36MOL0     H 4821   0.981   9.603   9.623 -0.1388 -0.7964  0.7421
   36MOL0     H 4822   0.828   9.688   9.586  1.3532  2.8158  0.8466
   36MOL0     H 4823   0.889   9.558   9.487  1.7679 -0.2795  0.5030
   36MOL0     H 4824   0.669   9.514   9.144 -0.2160  0.5718  1.0509
   36MOL0     H 4825   0.445   9.461   9.038  0.7085  0.1365  0.5959
   36MOL0     H 4826   0.086   9.650   9.203 -2.3395  4.0065 -0.4828
   36MOL0     H 4827   0.116   9.747   9.058  0.9623  0.2138  0.7211
   36MOL0     H 4828   0.009   9.576   8.909 -1.7840 -0.3597 -0.3793
   36MOL0     H 4829  -0.003   9.467   9.044 -1.1333  1.3851  0.4369
   36MOL0     H 4830  -0.133   9.740   9.071 -0.7572 -0.8596  0.9098
   36MOL0     H 4831  -0.180   9.596   9.154  0.6519  0.7219  0.8170
   36MOL0     H 4832  -0.216   9.603   8.848 -1.6523 -1.1250 -0.3918
   36MOL0     H 4833  -0.247   9.473   8.963  1.5639 -0.2675 -0.4779
   36MOL0     H 4834  -0.368   9.752   8.947  0.2140 -0.2468  0.6412
   36MOL0     H 4835  -0.420   9.646   9.076 -3.4126  3.0243 -0.9373
   36MOL0     H 4836  -0.464   9.618   8.779  1.2616 -1.8702  0.5670
   36MOL0     H 4837  -0.515   9.501   8.894 -0.8561  0.7114  1.7129
   36MOL0     H 4838  -0.582   9.799   8.923 -2.6411  1.3280 -0.8523
   36MOL0     H 4839  -0.661   9.661   9.005  1.5287  2.2062 -0.1077
   36MOL0     H 4840  -0.780   9.780   8.816 -0.6165  0.4865 -1.0949
   36MOL0     H 4841  -0.753   9.608   8.769 -0.0915  0.4324 -1.0037
   36MOL0     H 4842   0.307   9.821   9.242  0.9809  1.6110 -1.6888
   36MOL0     H 4843   0.524   9.872   9.294 -0.4427  0.1150  1.3081
   36MOL0     H 4844   1.037   9.819   9.127 -1.7013 -1.0930  0.3397
   36MOL0     H 4845   1.249   9.912   9.210  0.0535 -2.8394 -2.4974
   36MOL0     H 4846   2.931  10.076   8.957  1.1748  0.6841  2.0906
   36MOL0     H 4847   3.183  10.021   8.991 -0.1823 -0.0357  0.0912
   36MOL0     H 4848   3.552  10.129   8.807  2.4353  1.7805 -0.3343
   36MOL0     H 4849   3.785  10.146   8.857  0.4385 -0.1479  1.4735
   36MOL0     H 4850   3.975   9.792   8.981  0.2627  1.6090  1.0905
   36MOL0     H 4851   4.074   9.761   8.839 -1.0023  1.8455 -3.3490
   36MOL0     H 4852   4.226   9.812   9.005  0.8333  0.8467 -0.4852
   36MOL0     H 4853   4.141   9.962   9.060 -0.0023 -0.2417  0.3213
   36MOL0     H 4854   4.291  10.041   8.955 -4.2668 -1.4901  3.8255
   36MOL0     H 4855   4.174  10.040   8.821 -0.8181 -1.2121  0.0409
   36MOL0     H 4856   4.417   9.977   8.758  0.3549 -0.5688 -1.1371
   36MOL0     H 4857   4.296   9.843   8.716  0.9921 -2.0587  0.8541
   36MOL0     H 4858   4.564   9.660   8.985 -0.0074 -0.7330 -1.1250
   36MOL0     H 4859   3.843   9.737   8.739  0.5108  0.4535  0.6517
   36MOL0     H 4860   3.595   9.707   8.723  0.8619 -0.2156  0.1046
   37MOL0     O 4861   8.411   7.188   9.946 -0.4736 -0.6540 -0.0389
   37MOL0     C 4862   8.425   7.130   9.833  0.1302  0.2663  0.2185
   37MOL0     O 4863   8.331   7.111   9.739  0.0468 -0.0152 -0.0751
   37MOL0     C 4864   8.203   7.147   9.765 -0.5083 -0.1433 -0.6046
   37MOL0     C 4865   8.122   7.170   9.657  0.6368 -0.0406  0.9193
   37MOL0     C 4866   7.984   7.190   9.675  0.1276 -0.5924  0.1442
   37MOL0     C 4867   7.924   7.198   9.799 -0.6398  0.0097 -0.4712
   37MOL0     O 4868   7.795   7.231   9.789 -0.2415  0.3412  0.2027
   37MOL0     C 4869   7.714   7.248   9.908  0.1575  0.0814  0.7173
   37MOL0     C 4870   7.693   7.393   9.956 -0.1494  0.2294 -0.5000
   37MOL0     C 4871   7.602   7.399  10.081  0.0167  0.4335 -0.3413
   37MOL0     C 4872   7.576   7.541  10.115 -0.9676  0.6475 -0.4980
   37MOL0     C 4873   7.478   7.543  10.245  0.0771  0.3245  0.8563
   37MOL0     C 4874   7.416   7.684  10.262 -0.5901 -0.1123 -0.4886
   37MOL0     C 4875   7.526   7.780  10.320  0.4595  0.8551  0.4861
   37MOL0     C 4876   7.604   7.744  10.448  0.3019 -0.5584  0.1112
   37MOL0     N 4877   7.517   7.704  10.562  1.3215  0.6899  0.2242
   37MOL0     C 4878   7.473   7.578  10.592 -0.0431 -0.0668 -0.2128
   37MOL0     C 4879   7.410   7.589  10.713 -0.1044 -0.0912 -0.2869
   37MOL0     C 4880   7.338   7.480  10.786  0.2476 -0.2033 -0.0525
   37MOL0     C 4881   7.194   7.520  10.796 -0.8130  0.5874  0.2603
   37MOL0     C 4882   7.117   7.410  10.857  0.8437 -0.5590  0.3911
   37MOL0     C 4883   6.970   7.463  10.904 -0.2529  0.3126  0.0333
   37MOL0     O 4884   6.868   7.404  10.822  0.7936  0.2684  1.0823
   37MOL0     C 4885   6.737   7.450  10.823  0.1376  0.3507  0.7098
   37MOL0     C 4886   6.695   7.578  10.852  0.2029 -0.4225  0.3269
   37MOL0     C 4887   6.558   7.612  10.868  0.3555 -0.2560 -0.8206
   37MOL0     C 4888   6.522   7.757  10.912 -0.1359  0.6653  0.1619
   37MOL0     C 4889   6.456   7.513  10.852 -0.6750 -0.7409 -0.3346
   37MOL0     C 4890   6.306   7.529  10.862 -0.6330 -1.1355 -0.6225
   37MOL0     O 4891   6.233   7.457  10.778  0.2134  0.4580 -0.5617
   37MOL0     C 4892   6.099   7.461  10.790 -0.3283  0.5461 -0.1943
   37MOL0     C 4893   6.019   7.347  10.814  0.9944 -0.2698  0.0095
   37MOL0     C 4894   5.878   7.355  10.806  1.2068 -0.0010  0.5197
   37MOL0     C 4895   5.814   7.482  10.789 -0.2534 -0.2075 -0.4316
   37MOL0     O 4896   5.675   7.505  10.783  0.5720 -0.3154 -0.0689
   37MOL0     C 4897   5.583   7.401  10.814  0.3177  0.4840 -0.3351
   37MOL0     C 4898   5.445   7.450  10.776  0.7449 -0.4724  0.0690
   37MOL0     C 4899   5.341   7.344  10.804 -0.6519  0.2802  0.3986
   37MOL0     C 4900   5.197   7.387  10.760  0.2268  0.6769  0.2764
   37MOL0     C 4901   5.091   7.277  10.776  0.6470  0.1532  0.2006
   37MOL0     C 4902   4.951   7.328  10.756  0.1485 -0.3012  0.8117
   37MOL0     C 4903   4.846   7.252  10.839  0.1962 -0.1415 -0.1383
   37MOL0     C 4904   4.710   7.315  10.807  0.4052  1.2709 -0.2295
   37MOL0    Cl 4905   4.569   7.229  10.872  0.5006  0.1141  0.1125
   37MOL0     C 4906   5.895   7.600  10.777 -0.5142  0.3554  0.6844
   37MOL0     C 4907   6.039   7.582  10.770  0.2634 -0.9677  0.8037
   37MOL0     O 4908   6.264   7.597  10.956 -0.8138  0.0367  0.1393
   37MOL0     C 4909   6.503   7.385  10.814  0.7014  0.4131  0.1398
   37MOL0     C 4910   6.642   7.350  10.801  0.2350 -0.3432 -0.0568
   37MOL0     N 4911   7.419   7.723  10.752 -0.1239 -0.0190  0.6833
   37MOL0     N 4912   7.486   7.787  10.663 -1.0077 -0.0821 -0.4730
   37MOL0     C 4913   8.002   7.166   9.911  0.2011 -0.8356 -0.0398
   37MOL0     C 4914   8.140   7.132   9.891 -0.3892 -1.0851  0.3697
   37MOL0     C 4915   8.558   7.085   9.796  0.1261  1.0091 -0.2465
   37MOL0     C 4916   8.586   7.061   9.657 -0.0873 -0.4007  0.0639
   37MOL0     C 4917   8.713   7.026   9.610  0.9889  0.0134  0.2294
   37MOL0     C 4918   8.814   6.996   9.702  0.1436 -0.0311  0.1284
   37MOL0     O 4919   8.936   6.967   9.653  0.3516 -0.6692  0.9553
   37MOL0     C 4920   9.004   6.872   9.733  0.0008  0.3224 -0.3886
   37MOL0     C 4921   9.126   6.833   9.650  0.7158 -0.5029  0.4330
   37MOL0     C 4922   9.254   6.924   9.668 -0.1427  0.3224 -0.1740
   37MOL0     C 4923   9.385   6.879   9.591 -0.2281  0.2224  0.4830
   37MOL0     C 4924   9.362   6.929   9.450  0.6537  0.3982 -0.0805
   37MOL0     C 4925   9.329   6.956   9.328  0.3921 -0.1996 -0.6249
   37MOL0     C 4926   8.790   7.005   9.831  0.1395 -0.1325 -0.4917
   37MOL0     C 4927   8.665   7.062   9.882 -0.0527  0.3124  0.0513
   37MOL0     H 4928   8.167   7.168   9.558 -0.3046 -0.7490  0.4853
   37MOL0     H 4929   7.921   7.215   9.590  0.8461  1.7240  0.2218
   37MOL0     H 4930   7.621   7.204   9.872  1.3927 -3.1438  1.1402
   37MOL0     H 4931   7.752   7.186   9.990  1.9838 -0.6923 -0.6425
   37MOL0     H 4932   7.791   7.440   9.967  0.0376 -0.6289  2.3638
   37MOL0     H 4933   7.640   7.445   9.875 -1.6880  0.4603  0.5965
   37MOL0     H 4934   7.502   7.360  10.061 -0.2152  1.0331 -0.3684
   37MOL0     H 4935   7.633   7.332  10.161 -0.9152  3.8329  3.1477
   37MOL0     H 4936   7.672   7.578  10.153 -1.3200  0.5309  0.5432
   37MOL0     H 4937   7.544   7.597  10.027 -0.2530 -0.0146 -1.2004
   37MOL0     H 4938   7.389   7.483  10.226  0.8418 -1.2575  1.9855
   37MOL0     H 4939   7.533   7.505  10.332  1.4839  0.2326 -0.0354
   37MOL0     H 4940   7.385   7.715  10.161 -0.2893 -0.6317 -0.7416
   37MOL0     H 4941   7.342   7.683  10.342  1.0625  1.0629  1.1199
   37MOL0     H 4942   7.604   7.795  10.245  2.2566  2.2146  2.4903
   37MOL0     H 4943   7.471   7.875  10.324 -1.9938 -0.4237 -0.5004
   37MOL0     H 4944   7.652   7.832  10.493 -2.8859  1.8433 -0.8545
   37MOL0     H 4945   7.676   7.664  10.428  0.8163  0.7820 -4.5481
   37MOL0     H 4946   7.480   7.485  10.536  0.5873 -0.9140  1.2207
   37MOL0     H 4947   7.339   7.390  10.724 -0.9496 -0.9051  0.8899
   37MOL0     H 4948   7.378   7.458  10.886  1.2041 -2.4178 -0.8510
   37MOL0     H 4949   7.149   7.543  10.699  0.0424 -2.1859 -0.8735
   37MOL0     H 4950   7.188   7.617  10.847  1.1435  1.3184 -0.7793
   37MOL0     H 4951   7.154   7.354  10.944  3.5824 -1.1433 -1.0374
   37MOL0     H 4952   7.115   7.324  10.791  3.0004  0.3213 -0.9524
   37MOL0     H 4953   6.968   7.571  10.887  0.8871  0.2293 -0.7981
   37MOL0     H 4954   6.950   7.444  11.010  2.0554  1.4145  0.7317
   37MOL0     H 4955   6.773   7.654  10.860 -0.0045 -0.4215  3.7443
   37MOL0     H 4956   6.602   7.820  10.872  1.0289 -2.2298 -2.4106
   37MOL0     H 4957   6.435   7.794  10.856 -0.8904  1.8267  1.9668
   37MOL0     H 4958   6.499   7.767  11.019 -0.6012  1.3126  0.0120
   37MOL0     H 4959   6.069   7.253  10.831 -1.5567 -1.8276 -0.5517
   37MOL0     H 4960   5.818   7.266  10.821  2.4031 -0.5430  2.3295
   37MOL0     H 4961   5.608   7.311  10.758  2.3152  0.3043  0.7728
   37MOL0     H 4962   5.587   7.387  10.923 -0.7238 -0.2585 -0.3736
   37MOL0     H 4963   5.420   7.550  10.814  0.3334 -0.9071  0.9791
   37MOL0     H 4964   5.437   7.457  10.667 -2.3291 -2.4137  0.0325
   37MOL0     H 4965   5.356   7.317  10.909  3.0906  2.1263  0.4936
   37MOL0     H 4966   5.370   7.248  10.760  1.3568  0.1777  1.8134
   37MOL0     H 4967   5.172   7.475  10.820  0.5981 -0.3058  1.9198
   37MOL0     H 4968   5.195   7.411  10.653  1.3126 -2.4513 -0.5390
   37MOL0     H 4969   5.101   7.234  10.875 -0.6674  0.9639  0.7145
   37MOL0     H 4970   5.103   7.196  10.703 -1.7760  0.2990 -0.4483
   37MOL0     H 4971   4.947   7.434  10.783  1.8310  0.1488 -0.5819
   37MOL0     H 4972   4.919   7.336  10.652  3.6613  2.0497 -0.2590
   37MOL0     H 4973   4.870   7.268  10.945 -1.3204 -0.4972  0.2781
   37MOL0     H 4974   4.847   7.145  10.820 -2.0854  0.0498 -1.7107
   37MOL0     H 4975   4.682   7.318  10.701 -1.3876  0.9808  0.1971
   37MOL0     H 4976   4.712   7.420  10.839 -0.9607  0.9514  1.0117
   37MOL0     H 4977   5.856   7.700  10.760 -1.4434  0.0029  0.7260
   37MOL0     H 4978   6.103   7.668  10.756  1.0013 -1.6796 -0.4083
   37MOL0     H 4979   6.438   7.299  10.802  1.3983 -0.2401  0.9083
   37MOL0     H 4980   6.673   7.247  10.793  1.1600 -0.3421  2.3930
   37MOL0     H 4981   7.970   7.174  10.014  1.3282 -0.9263  0.3202
   37MOL0     H 4982   8.194   7.111   9.983  0.9849 -0.0856 -0.1789
   37MOL0     H 4983   8.509   7.071   9.581  0.7795  2.1386 -0.5631
   37MOL0     H 4984   8.730   7.013   9.503  0.7177  0.0034  0.1853
   37MOL0     H 4985   9.042   6.913   9.827  1.0499 -3.0929  0.7877
   37MOL0     H 4986   8.935   6.792   9.761 -0.9490  0.5862 -1.8253
   37MOL0     H 4987   9.094   6.850   9.547 -1.7206  2.8951  1.5684
   37MOL0     H 4988   9.150   6.728   9.669 -2.4116 -2.0137 -2.9675
   37MOL0     H 4989   9.295   6.934   9.769  1.8329  0.5201 -0.9588
   37MOL0     H 4990   9.233   7.028   9.641  3.3759  1.1378 -0.2154
   37MOL0     H 4991   9.411   6.773   9.603 -1.2456  0.1325  2.3697
   37MOL0     H 4992   9.475   6.928   9.629  0.2505 -1.7796  2.1428
   37MOL0     H 4993   9.289   6.961   9.229  1.0414  1.4986 -0.8412
   37MOL0     H 4994   8.863   6.985   9.910 -0.5996 -1.9784 -0.2298
   37MOL0     H 4995   8.661   7.072   9.990  3.1896 -1.8212  0.4934
   38MOL0     O 4996   5.262   7.006  10.922  0.0325 -0.1826  0.1759
   38MOL0     C 4997   5.272   6.997  11.043 -0.2383  0.2605  0.3012
   38MOL0     O 4998   5.186   6.925  11.119  0.1476  0.0011  0.5047
   38MOL0     C 4999   5.083   6.852  11.061  0.0526  0.7512 -0.5619
   38MOL0     C 5000   4.996   6.901  10.962 -0.1514 -0.4244  0.0894
   38MOL0     C 5001   4.892   6.823  10.915 -0.3488 -0.5171  0.3839
   38MOL0     C 5002   4.850   6.707  10.975  0.6493 -0.1055 -1.0248
   38MOL0     O 5003   4.729   6.660  10.920 -0.4890  0.4224 -0.7549
   38MOL0     C 5004   4.637   6.595  11.016 -0.2477  0.1096  0.2627
   38MOL0     C 5005   4.501   6.612  10.960  0.9233  0.2045 -0.4424
   38MOL0     C 5006   4.390   6.556  11.057 -0.5183 -0.1569  0.6318
   38MOL0     C 5007   4.380   6.396  11.047 -0.4774  0.3151 -0.3465
   38MOL0     C 5008   4.247   6.339  11.100 -0.1362 -1.0375 -0.3293
   38MOL0     C 5009   4.257   6.180  11.085  0.0167 -0.0028  0.0681
   38MOL0     C 5010   4.143   6.115  11.173  0.9535 -0.7978  0.3343
   38MOL0     C 5011   4.000   6.158  11.130 -0.0437  0.1792  0.0872
   38MOL0     N 5012   3.899   6.070  11.198  0.6315 -0.1592  0.1994
   38MOL0     C 5013   3.765   6.075  11.175 -0.3196  0.1586  0.6896
   38MOL0     C 5014   3.714   5.978  11.257 -0.2148 -0.3380 -0.2881
   38MOL0     C 5015   3.567   5.955  11.283  0.2124  0.1493  0.1338
   38MOL0     C 5016   3.480   6.079  11.259  0.3617  0.9409 -0.3411
   38MOL0     C 5017   3.338   6.059  11.321 -1.1416 -0.6619 -0.4706
   38MOL0     C 5018   3.258   6.183  11.301  0.5666  0.1511  0.9683
   38MOL0     O 5019   3.307   6.295  11.374 -0.0702 -0.5296 -0.1043
   38MOL0     C 5020   3.239   6.418  11.381 -0.0506 -0.1453  0.5617
   38MOL0     C 5021   3.285   6.510  11.476 -0.4458 -0.3027  0.3250
   38MOL0     C 5022   3.233   6.638  11.485  0.0717 -0.5173 -0.1816
   38MOL0     C 5023   3.292   6.725  11.597 -0.0010 -0.3567  0.1864
   38MOL0     C 5024   3.116   6.668  11.413  0.2676 -0.3601  0.0411
   38MOL0     C 5025   3.048   6.797  11.419  0.2173  0.1632  0.8183
   38MOL0     O 5026   2.912   6.796  11.395 -0.3539 -0.3828 -0.3866
   38MOL0     C 5027   2.857   6.918  11.390 -0.0278 -0.4410  0.4350
   38MOL0     C 5028   2.858   6.994  11.281 -0.6000  0.4321  0.2568
   38MOL0     C 5029   2.791   7.122  11.278  0.5313  0.3060 -0.7755
   38MOL0     C 5030   2.709   7.162  11.378 -0.1117 -0.0110 -0.2273
   38MOL0     O 5031   2.633   7.282  11.369 -0.7045  0.2540  0.4643
   38MOL0     C 5032   2.542   7.294  11.253 -0.2101  0.0194  0.9449
   38MOL0     C 5033   2.432   7.193  11.266  0.0971  0.0577  0.4905
   38MOL0     C 5034   2.333   7.189  11.148  0.1922  0.3574 -0.4224
   38MOL0     C 5035   2.394   7.213  11.016 -0.0588  0.5856 -0.1009
   38MOL0     C 5036   2.291   7.195  10.892 -0.5527 -0.2916 -0.5839
   38MOL0     C 5037   2.202   7.322  10.868 -0.0913  1.1895  0.0206
   38MOL0     C 5038   2.099   7.309  10.756  0.2506  0.4181  0.5212
   38MOL0     C 5039   2.062   7.439  10.681  0.1749  0.8574  0.4367
   38MOL0    Cl 5040   1.990   7.569  10.780 -0.6860  0.2278 -0.3415
   38MOL0     C 5041   2.696   7.078  11.489  0.2481  0.5999  0.3804
   38MOL0     C 5042   2.767   6.952  11.492  0.2987  0.1255  0.2637
   38MOL0     O 5043   3.124   6.890  11.438  0.7486  0.0715 -0.1675
   38MOL0     C 5044   3.057   6.571  11.323 -0.1876  1.1861  0.4051
   38MOL0     C 5045   3.125   6.446  11.304  0.0043 -0.5160  0.4232
   38MOL0     N 5046   3.820   5.925  11.332  0.1720  0.5218  0.1720
   38MOL0     N 5047   3.925   5.989  11.295  0.6996 -0.9541  0.0361
   38MOL0     C 5048   4.935   6.654  11.079  0.3708  0.4236 -0.8158
   38MOL0     C 5049   5.051   6.717  11.116 -0.8459 -0.4882  0.0335
   38MOL0     C 5050   5.400   7.036  11.101 -0.9514 -0.9721 -1.8639
   38MOL0     C 5051   5.428   7.035  11.237  0.6516  0.4250 -0.2500
   38MOL0     C 5052   5.561   7.053  11.282  0.1538  0.5371  0.3610
   38MOL0     C 5053   5.672   7.076  11.200 -0.3196  0.0286 -0.5316
   38MOL0     O 5054   5.800   7.062  11.252 -0.1424  0.2753  0.2077
   38MOL0     C 5055   5.892   6.989  11.175 -0.4752 -0.3578  1.1012
   38MOL0     C 5056   5.993   7.076  11.110  0.3477  0.7964  0.2590
   38MOL0     C 5057   6.093   6.993  11.028  0.2955 -0.4836 -0.3250
   38MOL0     C 5058   6.200   6.922  11.106  0.2746  0.7722  0.0319
   38MOL0     C 5059   6.272   6.822  11.022  1.0427  0.4039  0.3535
   38MOL0     C 5060   6.338   6.741  10.959  0.0479  0.8649  0.4095
   38MOL0     C 5061   5.643   7.093  11.064  0.6730  0.4458  0.5050
   38MOL0     C 5062   5.510   7.079  11.016  0.0823  0.2598  0.9172
   38MOL0     H 5063   5.017   7.005  10.938 -0.4737 -0.5845 -0.9299
   38MOL0     H 5064   4.829   6.868  10.839  1.0735  2.0416  0.5972
   38MOL0     H 5065   4.667   6.490  11.024 -0.5354  0.0024 -0.0480
   38MOL0     H 5066   4.651   6.641  11.114  3.3076  3.2745 -1.4698
   38MOL0     H 5067   4.495   6.720  10.943  0.4647  0.3990  0.8681
   38MOL0     H 5068   4.476   6.558  10.869 -2.1468  3.7156 -1.9413
   38MOL0     H 5069   4.412   6.579  11.162  1.0755  0.2489  0.2380
   38MOL0     H 5070   4.292   6.598  11.032 -0.9474 -0.2474  2.0579
   38MOL0     H 5071   4.390   6.363  10.943  1.0281 -1.0423  0.1751
   38MOL0     H 5072   4.465   6.343  11.092  1.7009 -0.4998 -4.8374
   38MOL0     H 5073   4.234   6.365  11.205 -0.1298 -0.2364 -0.5254
   38MOL0     H 5074   4.168   6.371  11.032  0.7952 -0.2149 -1.0572
   38MOL0     H 5075   4.247   6.153  10.979  0.9476 -0.9712  0.2133
   38MOL0     H 5076   4.349   6.141  11.129 -0.9753 -1.7222  0.7291
   38MOL0     H 5077   4.152   6.007  11.155  0.2366 -0.5453 -1.7067
   38MOL0     H 5078   4.168   6.151  11.274  3.5021  1.3420 -0.9249
   38MOL0     H 5079   3.999   6.142  11.022  1.6030 -1.3466  0.2674
   38MOL0     H 5080   3.984   6.265  11.145  1.5910  0.7004 -1.5614
   38MOL0     H 5081   3.717   6.150  11.113 -1.6375  0.1838  1.6868
   38MOL0     H 5082   3.549   5.873  11.214  2.2268 -0.3817  0.1807
   38MOL0     H 5083   3.560   5.919  11.386  2.1432 -2.3318 -0.5288
   38MOL0     H 5084   3.468   6.098  11.152 -1.1354  0.2341 -0.3251
   38MOL0     H 5085   3.528   6.171  11.295  1.9816 -0.1512  0.3886
   38MOL0     H 5086   3.344   6.046  11.430 -1.2499 -0.1822 -0.4069
   38MOL0     H 5087   3.276   5.982  11.275 -0.4358 -1.1481 -0.6272
   38MOL0     H 5088   3.153   6.162  11.320  0.2358  2.0219  1.3990
   38MOL0     H 5089   3.267   6.205  11.194 -1.1714 -1.6220  0.4071
   38MOL0     H 5090   3.373   6.478  11.531  0.2019  1.8689  0.6334
   38MOL0     H 5091   3.226   6.745  11.682  1.4000 -1.7806  1.6873
   38MOL0     H 5092   3.387   6.682  11.631  0.6308 -0.1974 -1.2857
   38MOL0     H 5093   3.324   6.825  11.567  2.3675 -0.4152  2.2298
   38MOL0     H 5094   2.905   6.949  11.195 -0.0776 -3.1619  2.2052
   38MOL0     H 5095   2.785   7.174  11.183  0.4704 -0.2246 -1.0685
   38MOL0     H 5096   2.496   7.393  11.257  0.2445  0.3042 -0.3195
   38MOL0     H 5097   2.590   7.282  11.155 -0.1374  2.9858  0.5263
   38MOL0     H 5098   2.484   7.096  11.271  1.9550  1.0650  2.1962
   38MOL0     H 5099   2.376   7.202  11.359 -3.3228  0.2217 -1.4428
   38MOL0     H 5100   2.251   7.261  11.158 -1.8909 -1.4520 -2.9214
   38MOL0     H 5101   2.287   7.090  11.148  2.1214 -0.5955  1.0657
   38MOL0     H 5102   2.436   7.312  10.999 -0.9661  0.8397 -0.9630
   38MOL0     H 5103   2.476   7.144  10.996 -1.8564 -1.9982  0.8227
   38MOL0     H 5104   2.219   7.113  10.900 -0.9461 -0.0202 -1.2542
   38MOL0     H 5105   2.347   7.179  10.799 -0.1720  0.5922 -0.5192
   38MOL0     H 5106   2.138   7.349  10.952 -2.3643 -1.8254 -0.5590
   38MOL0     H 5107   2.264   7.411  10.852  0.5607  0.6401 -0.5672
   38MOL0     H 5108   2.011   7.265  10.804 -0.1355 -1.4622 -1.7218
   38MOL0     H 5109   2.131   7.235  10.682 -1.1611  1.1999 -0.9125
   38MOL0     H 5110   1.992   7.410  10.602  1.4075  0.5807 -0.5890
   38MOL0     H 5111   2.151   7.479  10.630 -1.5356  2.4437 -1.5093
   38MOL0     H 5112   2.627   7.095  11.571 -0.5511 -0.0553 -0.1306
   38MOL0     H 5113   2.752   6.882  11.574  0.1872 -1.4973 -1.0768
   38MOL0     H 5114   2.976   6.589  11.253 -0.3278 -2.4040 -0.5614
   38MOL0     H 5115   3.079   6.375  11.235 -0.6996 -0.0423  0.3917
   38MOL0     H 5116   4.909   6.561  11.129  1.8804  0.0628 -0.6651
   38MOL0     H 5117   5.125   6.679  11.186 -0.9252  0.3055  0.5662
   38MOL0     H 5118   5.343   7.026  11.303  1.2179  2.3536  0.8198
   38MOL0     H 5119   5.583   7.048  11.388  0.8958 -1.0522  0.1541
   38MOL0     H 5120   5.939   6.924  11.250  2.0196  0.1277  0.0611
   38MOL0     H 5121   5.848   6.910  11.114 -0.2650 -1.0117  1.7706
   38MOL0     H 5122   6.051   7.134  11.182 -1.7012  1.6713  1.2735
   38MOL0     H 5123   5.938   7.141  11.040 -2.0494 -2.0523 -0.7223
   38MOL0     H 5124   6.147   7.058  10.959  2.2287 -3.1698 -1.5035
   38MOL0     H 5125   6.036   6.921  10.969  0.5470 -1.0519  0.1030
   38MOL0     H 5126   6.160   6.868  11.192  0.2450 -3.5862 -2.4499
   38MOL0     H 5127   6.276   6.991  11.146  1.6043  0.2669 -1.5327
   38MOL0     H 5128   6.382   6.670  10.891 -1.6503 -1.8658  1.9868
   38MOL0     H 5129   5.728   7.116  11.000 -1.2296 -0.9482 -2.7781
   38MOL0     H 5130   5.495   7.092  10.909 -2.3735 -0.9846  1.0243
   39MOL0     O 5131   6.933   8.981   9.295  1.2376  0.5945  0.0024
   39MOL0     C 5132   6.945   8.970   9.171  0.3138 -0.6824 -0.0933
   39MOL0     O 5133   6.853   9.005   9.086 -0.5266 -0.1925  0.3551
   39MOL0     C 5134   6.723   9.039   9.128 -0.6934  1.0128 -0.8316
   39MOL0     C 5135   6.669   9.164   9.113  0.3346  0.1208  0.1489
   39MOL0     C 5136   6.533   9.193   9.142  0.5484 -0.5829 -0.7347
   39MOL0     C 5137   6.451   9.104   9.203  0.6690  0.1355  0.3093
   39MOL0     O 5138   6.322   9.152   9.216  0.4053 -0.2624 -0.5141
   39MOL0     C 5139   6.237   9.064   9.294  0.4873  0.0269 -0.0974
   39MOL0     C 5140   6.106   9.138   9.323 -0.1035  0.2862 -0.1120
   39MOL0     C 5141   6.001   9.043   9.364  0.6473 -0.2935  0.1667
   39MOL0     C 5142   5.877   9.135   9.370 -0.7553  0.3678  0.5843
   39MOL0     C 5143   5.747   9.057   9.394  0.2156 -0.3664  0.9682
   39MOL0     C 5144   5.621   9.147   9.389 -0.7177  0.4050 -0.0101
   39MOL0     C 5145   5.492   9.064   9.420 -0.1916 -0.4105 -0.2354
   39MOL0     C 5146   5.480   9.009   9.569 -0.3231  0.0878 -0.4705
   39MOL0     N 5147   5.355   8.930   9.581  0.2374  0.0058  0.7187
   39MOL0     C 5148   5.339   8.801   9.530  0.0084  0.4235  0.3451
   39MOL0     C 5149   5.205   8.787   9.538  0.7232  0.2746 -0.0345
   39MOL0     C 5150   5.114   8.677   9.501 -0.4910 -0.7022 -0.7526
   39MOL0     C 5151   5.089   8.578   9.608 -0.1487  0.6432  1.2164
   39MOL0     C 5152   5.009   8.448   9.557 -0.6040 -0.2962 -0.6662
   39MOL0     C 5153   5.106   8.359   9.472  0.3324 -0.3307 -0.3812
   39MOL0     O 5154   5.076   8.217   9.465 -0.3604  0.3724  0.2030
   39MOL0     C 5155   4.954   8.181   9.420  0.4127  0.1286 -0.2272
   39MOL0     C 5156   4.888   8.248   9.323  0.6018  0.9078  0.2330
   39MOL0     C 5157   4.755   8.200   9.277 -0.2505  0.1545 -0.3307
   39MOL0     C 5158   4.686   8.291   9.184 -0.5979  0.0091 -0.0443
   39MOL0     C 5159   4.702   8.084   9.338  0.3896 -0.4588 -0.6200
   39MOL0     C 5160   4.570   8.028   9.295 -0.7033 -0.9200 -0.3904
   39MOL0     O 5161   4.510   7.967   9.397 -0.5144  0.5774  0.1998
   39MOL0     C 5162   4.374   7.947   9.386  0.5925  1.0770  1.2612
   39MOL0     C 5163   4.307   7.821   9.401 -0.1100  0.8151 -0.1746
   39MOL0     C 5164   4.170   7.818   9.376 -0.0961 -0.0762 -0.6682
   39MOL0     C 5165   4.090   7.932   9.360 -1.0175 -0.4945  0.6642
   39MOL0     O 5166   3.958   7.921   9.371 -0.0229 -0.2151  0.6789
   39MOL0     C 5167   3.879   8.038   9.354  0.0829  0.7222  0.2866
   39MOL0     C 5168   3.733   7.990   9.351  0.7970 -0.0888  0.3896
   39MOL0     C 5169   3.643   8.110   9.324 -0.3129  0.5245  0.7529
   39MOL0     C 5170   3.502   8.044   9.325 -1.1269 -0.5670 -0.0263
   39MOL0     C 5171   3.412   8.146   9.257 -0.3796  0.5621 -0.3448
   39MOL0     C 5172   3.265   8.101   9.236 -0.3218 -0.3997  0.0321
   39MOL0     C 5173   3.185   8.215   9.175 -0.9390 -0.3491  0.2123
   39MOL0     C 5174   3.197   8.210   9.021 -0.4147 -0.6159  0.4273
   39MOL0    Cl 5175   3.078   8.320   8.940  0.1367 -0.1546 -0.3115
   39MOL0     C 5176   4.151   8.054   9.335  0.5143 -0.2820 -0.1642
   39MOL0     C 5177   4.293   8.058   9.353 -0.2185 -0.5531  0.0239
   39MOL0     O 5178   4.534   8.027   9.173 -0.0103  0.0914 -0.0633
   39MOL0     C 5179   4.777   8.022   9.433  0.9262  0.4071  0.3570
   39MOL0     C 5180   4.903   8.062   9.471  0.2706 -0.0169  0.3496
   39MOL0     N 5181   5.148   8.896   9.597  0.5449  0.2913 -0.2249
   39MOL0     N 5182   5.238   8.980   9.619 -0.2608 -0.0094 -0.2918
   39MOL0     C 5183   6.505   8.981   9.230 -0.5804 -0.3855  0.5379
   39MOL0     C 5184   6.638   8.946   9.190  0.4505 -0.4761  1.1192
   39MOL0     C 5185   7.075   8.918   9.117  0.6325  0.3938 -0.3845
   39MOL0     C 5186   7.179   8.882   9.207  0.3108 -0.5496 -1.0032
   39MOL0     C 5187   7.294   8.839   9.163  0.0056  0.9629  0.9199
   39MOL0     C 5188   7.315   8.810   9.026 -0.3800  1.2286  0.1326
   39MOL0     O 5189   7.427   8.745   8.989 -0.2463  0.4028 -0.5840
   39MOL0     C 5190   7.466   8.755   8.853 -0.1858  0.5354 -0.0844
   39MOL0     C 5191   7.609   8.710   8.821 -0.4370 -0.1631  0.2946
   39MOL0     C 5192   7.618   8.559   8.852 -0.6785 -0.1884 -0.5886
   39MOL0     C 5193   7.706   8.504   8.742  0.1575  1.2263  0.4288
   39MOL0     C 5194   7.622   8.464   8.632  0.2902 -0.8617 -1.1087
   39MOL0     C 5195   7.567   8.443   8.521  0.7741  1.1501 -0.2683
   39MOL0     C 5196   7.223   8.860   8.935  0.2639 -0.3200 -0.4083
   39MOL0     C 5197   7.096   8.910   8.974 -0.3022 -0.2043  1.0176
   39MOL0     H 5198   6.717   9.240   9.053 -0.4389 -1.9890 -3.4179
   39MOL0     H 5199   6.493   9.285   9.100  0.5062 -1.4572 -2.7075
   39MOL0     H 5200   6.218   8.980   9.228  1.2691 -1.4909  1.5364
   39MOL0     H 5201   6.279   9.037   9.392  2.1948  0.4118 -0.6771
   39MOL0     H 5202   6.133   9.214   9.396 -4.5135  1.8269  0.1567
   39MOL0     H 5203   6.080   9.177   9.224  0.1344 -1.1626 -0.7810
   39MOL0     H 5204   5.987   8.972   9.282  1.3349 -1.5648  1.1147
   39MOL0     H 5205   6.023   8.994   9.459 -3.3795  1.9524  2.5456
   39MOL0     H 5206   5.882   9.213   9.447 -1.4887  1.9667 -0.8951
   39MOL0     H 5207   5.873   9.194   9.277 -2.7625 -0.0355  0.3801
   39MOL0     H 5208   5.745   8.970   9.327 -1.8780  1.7327 -1.9421
   39MOL0     H 5209   5.757   9.014   9.494  0.3111 -1.9222  0.3317
   39MOL0     H 5210   5.624   9.236   9.453 -4.6753  1.1401 -0.6315
   39MOL0     H 5211   5.618   9.186   9.287  1.5350  1.9503  0.4185
   39MOL0     H 5212   5.413   9.134   9.392  0.6392  1.4367  1.7218
   39MOL0     H 5213   5.489   8.980   9.350  2.0384  0.2589 -1.2439
   39MOL0     H 5214   5.486   9.084   9.649  3.7196 -0.4157 -0.1105
   39MOL0     H 5215   5.568   8.947   9.585 -0.4692 -0.3407 -1.2804
   39MOL0     H 5216   5.419   8.742   9.486 -0.0211  0.6889 -0.0713
   39MOL0     H 5217   5.022   8.725   9.469 -0.8627 -1.0314 -0.1970
   39MOL0     H 5218   5.152   8.638   9.406 -0.0901  0.2331 -0.9861
   39MOL0     H 5219   5.033   8.611   9.696  0.3414  2.2203  0.9671
   39MOL0     H 5220   5.184   8.540   9.648 -0.5669 -1.4767  0.3434
   39MOL0     H 5221   4.930   8.499   9.502 -0.2252  0.6046 -0.4012
   39MOL0     H 5222   4.964   8.403   9.646 -1.0335  0.5781 -0.4356
   39MOL0     H 5223   5.210   8.373   9.502  0.1597  0.0575  0.0539
   39MOL0     H 5224   5.108   8.412   9.376  0.5633  0.1480 -0.1164
   39MOL0     H 5225   4.927   8.343   9.289  0.5351  1.5049  1.7692
   39MOL0     H 5226   4.580   8.308   9.207 -0.3840  0.0993  0.9163
   39MOL0     H 5227   4.733   8.388   9.171  2.8035 -1.7348 -2.2796
   39MOL0     H 5228   4.686   8.251   9.082  2.5120  0.6394 -0.3757
   39MOL0     H 5229   4.361   7.727   9.410  0.9647  1.4026 -0.3292
   39MOL0     H 5230   4.117   7.724   9.378  0.6951 -0.5748  2.7595
   39MOL0     H 5231   3.892   8.108   9.437  1.9892  0.4733  0.2354
   39MOL0     H 5232   3.911   8.083   9.260  1.0585 -0.4016  0.0692
   39MOL0     H 5233   3.717   7.927   9.262  0.7571  1.9882 -1.1427
   39MOL0     H 5234   3.701   7.934   9.439  1.2273 -2.5510 -0.9201
   39MOL0     H 5235   3.659   8.163   9.229 -1.9909  0.9649  0.6993
   39MOL0     H 5236   3.664   8.178   9.407  1.9565 -0.0735  0.7535
   39MOL0     H 5237   3.491   7.950   9.270  3.2297 -0.4697 -1.3859
   39MOL0     H 5238   3.460   8.033   9.426  2.2104 -0.0269  1.5437
   39MOL0     H 5239   3.461   8.169   9.162  0.4639  2.3769  0.4837
   39MOL0     H 5240   3.412   8.234   9.322 -2.5887  0.3522  0.0159
   39MOL0     H 5241   3.269   8.012   9.173  2.0895 -0.8984  0.7817
   39MOL0     H 5242   3.210   8.069   9.325 -0.3481 -2.1046 -0.5569
   39MOL0     H 5243   3.231   8.307   9.211 -0.3300 -0.4148 -0.3912
   39MOL0     H 5244   3.081   8.208   9.209 -1.7140  0.6344 -1.7957
   39MOL0     H 5245   3.190   8.106   8.989  3.0192 -1.1986  1.1433
   39MOL0     H 5246   3.293   8.256   8.995 -0.0391 -1.7513 -0.2681
   39MOL0     H 5247   4.101   8.148   9.312 -2.6382 -1.9785 -0.7060
   39MOL0     H 5248   4.341   8.156   9.351  0.2212 -0.6533  2.7222
   39MOL0     H 5249   4.749   7.925   9.474 -1.0480  0.3244 -1.0453
   39MOL0     H 5250   4.964   8.018   9.549 -0.7751  2.2350  2.5586
   39MOL0     H 5251   6.453   8.892   9.262 -4.7773  2.3954  2.2492
   39MOL0     H 5252   6.664   8.845   9.221  4.9320  0.5137  1.2515
   39MOL0     H 5253   7.161   8.885   9.314 -1.2551 -1.7276 -1.2079
   39MOL0     H 5254   7.377   8.804   9.224  0.2464 -0.3920 -0.1395
   39MOL0     H 5255   7.409   8.688   8.788  4.6075 -2.8011 -1.3269
   39MOL0     H 5256   7.464   8.856   8.810  2.5290  0.9554  0.5894
   39MOL0     H 5257   7.691   8.770   8.862 -1.3403  1.9596 -0.8477
   39MOL0     H 5258   7.623   8.726   8.714  0.3915 -1.9944  0.0887
   39MOL0     H 5259   7.524   8.506   8.871 -0.6828  0.5702  1.9657
   39MOL0     H 5260   7.678   8.551   8.944  0.2381  3.7170 -0.7026
   39MOL0     H 5261   7.765   8.420   8.780 -0.7644  1.0243  1.4494
   39MOL0     H 5262   7.774   8.579   8.699 -0.2259  2.3194  1.6852
   39MOL0     H 5263   7.527   8.409   8.428 -0.3749 -0.6417  0.8300
   39MOL0     H 5264   7.234   8.844   8.829  4.8949 -1.4537 -0.0039
   39MOL0     H 5265   7.017   8.937   8.905 -0.1924 -2.5919 -0.1349
   40MOL0     O 5266   8.939   8.253   5.557  0.7088 -0.7971  0.1477
   40MOL0     C 5267   8.950   8.205   5.672 -0.5952  0.3230  0.1565
   40MOL0     O 5268   8.843   8.146   5.738 -0.2666  0.3167 -0.5686
   40MOL0     C 5269   8.719   8.173   5.680 -0.8987 -0.0067  0.9567
   40MOL0     C 5270   8.695   8.117   5.557 -0.1951 -0.2266 -0.2495
   40MOL0     C 5271   8.570   8.140   5.490 -1.1545 -0.4953 -0.2952
   40MOL0     C 5272   8.471   8.226   5.538  1.0920  0.2029  0.5759
   40MOL0     O 5273   8.354   8.233   5.470 -0.4331 -0.1904 -0.6851
   40MOL0     C 5274   8.258   8.337   5.508 -0.2601 -1.0746  0.4651
   40MOL0     C 5275   8.160   8.368   5.393 -0.6634 -0.0705  0.2188
   40MOL0     C 5276   8.048   8.450   5.444  0.1561  0.1590 -0.2906
   40MOL0     C 5277   7.946   8.455   5.327  0.5755 -0.4091  0.1047
   40MOL0     C 5278   7.812   8.524   5.361 -0.6181 -0.0043 -0.2376
   40MOL0     C 5279   7.696   8.487   5.274 -0.3044  0.2973 -0.6307
   40MOL0     C 5280   7.573   8.560   5.314 -0.3030 -0.0942 -0.1478
   40MOL0     C 5281   7.446   8.517   5.236  0.1776 -0.0147  0.5740
   40MOL0     N 5282   7.318   8.571   5.295 -0.1417  0.3894  0.4300
   40MOL0     C 5283   7.205   8.491   5.308 -0.0212 -0.2617  0.0494
   40MOL0     C 5284   7.110   8.584   5.312 -0.2843  0.8792  0.6195
   40MOL0     C 5285   6.965   8.556   5.299  0.4829 -0.2589 -0.1287
   40MOL0     C 5286   6.899   8.649   5.195 -0.0682  0.5090  0.5889
   40MOL0     C 5287   6.759   8.595   5.180 -0.5294  0.2225  0.3023
   40MOL0     C 5288   6.675   8.667   5.078 -1.4676  0.9170  0.6424
   40MOL0     O 5289   6.546   8.600   5.064 -0.3564  0.2505 -0.1074
   40MOL0     C 5290   6.441   8.653   5.130  0.4216 -0.3435  0.2746
   40MOL0     C 5291   6.430   8.786   5.176  0.6326  0.1131  0.7541
   40MOL0     C 5292   6.316   8.826   5.238  1.3086  0.9289 -0.4125
   40MOL0     C 5293   6.317   8.970   5.294  1.4758 -0.4064  0.1254
   40MOL0     C 5294   6.214   8.729   5.270  0.6353  0.5198  0.8848
   40MOL0     C 5295   6.094   8.754   5.348 -0.1235  0.7362 -0.3086
   40MOL0     O 5296   6.103   8.850   5.452  0.0277 -0.2485 -0.4613
   40MOL0     C 5297   5.999   8.860   5.547  0.6058  0.5938  0.9856
   40MOL0     C 5298   5.903   8.762   5.583  0.2320 -0.3439 -0.4432
   40MOL0     C 5299   5.811   8.788   5.680 -0.3074  0.7040  0.7227
   40MOL0     C 5300   5.813   8.913   5.746 -0.4288  0.4888 -0.0363
   40MOL0     O 5301   5.716   8.946   5.838  0.2572 -0.2778 -0.6291
   40MOL0     C 5302   5.727   9.063   5.923 -0.2871  0.3548  0.7215
   40MOL0     C 5303   5.678   9.048   6.068 -0.2669  0.3461  0.9621
   40MOL0     C 5304   5.530   9.004   6.065  0.0982  0.0937  0.3525
   40MOL0     C 5305   5.456   9.033   6.198 -0.0682  0.7234  0.2030
   40MOL0     C 5306   5.305   9.019   6.185 -0.8473  0.7720 -0.6809
   40MOL0     C 5307   5.244   9.100   6.076  0.3720  0.1002  1.7504
   40MOL0     C 5308   5.086   9.101   6.071  0.5571  0.7643 -0.0067
   40MOL0     C 5309   5.034   9.008   5.955  0.8790 -0.2367  0.1863
   40MOL0    Cl 5310   5.050   8.835   6.000 -0.2351  0.0727 -0.0599
   40MOL0     C 5311   5.912   9.010   5.720  0.2848  0.0417  0.0594
   40MOL0     C 5312   5.999   8.980   5.619 -0.6130  0.0911 -0.1485
   40MOL0     O 5313   5.991   8.698   5.304  0.1282 -0.0167 -0.6269
   40MOL0     C 5314   6.239   8.601   5.226  0.4292  0.2640 -0.2996
   40MOL0     C 5315   6.350   8.559   5.162  0.5835  0.3846  0.1004
   40MOL0     N 5316   7.169   8.710   5.314  0.6159 -0.6282  0.1531
   40MOL0     N 5317   7.295   8.697   5.321 -0.5322 -0.1655 -0.3809
   40MOL0     C 5318   8.499   8.286   5.661 -0.6148 -0.3111 -0.1732
   40MOL0     C 5319   8.623   8.265   5.727  0.5046  0.2993  0.3861
   40MOL0     C 5320   9.087   8.192   5.725  0.5222 -1.8215 -0.4162
   40MOL0     C 5321   9.113   8.125   5.851  0.3102  0.8559 -0.2034
   40MOL0     C 5322   9.239   8.106   5.905  0.8759 -0.2979  0.1620
   40MOL0     C 5323   9.344   8.172   5.832 -1.3561 -0.1934 -0.0655
   40MOL0     O 5324   9.476   8.159   5.864 -0.2399 -0.0559  0.2680
   40MOL0     C 5325   9.529   8.069   5.962  0.3530 -0.5946  0.2272
   40MOL0     C 5326   9.671   8.020   5.941  0.1261 -0.3973  0.0644
   40MOL0     C 5327   9.781   8.116   5.962 -0.2251 -0.4025 -0.3472
   40MOL0     C 5328   9.920   8.064   5.968  0.1391  0.0335  0.3774
   40MOL0     C 5329   9.973   8.012   5.842  0.5448 -0.0978  0.3127
   40MOL0     C 5330  10.036   7.972   5.745  0.4573  0.4210  0.0617
   40MOL0     C 5331   9.317   8.257   5.722  0.2450  0.2192  0.0468
   40MOL0     C 5332   9.191   8.258   5.660  0.3992 -0.4488 -0.5078
   40MOL0     H 5333   8.778   8.056   5.523 -0.8293 -1.7405  0.8068
   40MOL0     H 5334   8.559   8.094   5.392  1.0306 -1.2164 -0.2531
   40MOL0     H 5335   8.216   8.312   5.606  0.5395  1.2549  1.4842
   40MOL0     H 5336   8.316   8.428   5.527  0.7043 -0.8649 -2.8332
   40MOL0     H 5337   8.203   8.411   5.302  0.4377  0.6387  1.0543
   40MOL0     H 5338   8.115   8.271   5.369 -0.4731  0.2555 -1.6457
   40MOL0     H 5339   8.017   8.403   5.537  0.4310  0.9570  0.2171
   40MOL0     H 5340   8.091   8.548   5.467  1.9192 -0.6269 -0.0935
   40MOL0     H 5341   7.986   8.488   5.230 -0.6931 -4.7811 -2.1509
   40MOL0     H 5342   7.914   8.352   5.310  0.6302 -0.2868 -0.7987
   40MOL0     H 5343   7.781   8.511   5.465  1.1961 -0.5366  0.2673
   40MOL0     H 5344   7.838   8.630   5.352 -2.4216  0.5618  0.6473
   40MOL0     H 5345   7.728   8.517   5.174  1.3667 -0.1955 -0.2758
   40MOL0     H 5346   7.691   8.378   5.279  0.2185  0.3211  1.4566
   40MOL0     H 5347   7.557   8.550   5.422 -1.1791 -2.8757 -0.4621
   40MOL0     H 5348   7.589   8.667   5.293 -1.8555  0.1264 -0.3091
   40MOL0     H 5349   7.428   8.409   5.239 -2.6304  0.3557  0.4407
   40MOL0     H 5350   7.448   8.547   5.131 -1.7130  2.3248  1.1181
   40MOL0     H 5351   7.200   8.382   5.309 -1.8250 -0.6455 -6.4373
   40MOL0     H 5352   6.958   8.451   5.268 -1.7137  0.3057 -1.8251
   40MOL0     H 5353   6.910   8.566   5.394  1.1800 -0.6179  0.3233
   40MOL0     H 5354   6.945   8.643   5.096 -1.6851 -0.0952 -0.1719
   40MOL0     H 5355   6.896   8.753   5.226  2.2193  1.3751 -1.7806
   40MOL0     H 5356   6.719   8.606   5.282  0.3673  0.9470  0.5899
   40MOL0     H 5357   6.764   8.489   5.154  4.8252  0.3362 -0.1139
   40MOL0     H 5358   6.720   8.641   4.982 -1.6312  0.1686  0.7658
   40MOL0     H 5359   6.672   8.776   5.090  0.4298  1.0573  0.1644
   40MOL0     H 5360   6.503   8.861   5.149 -0.1043  0.1004 -1.5023
   40MOL0     H 5361   6.306   8.971   5.403 -1.4667  1.5706 -0.0983
   40MOL0     H 5362   6.406   9.025   5.260  1.2481  0.3274  0.6865
   40MOL0     H 5363   6.227   9.017   5.255  0.9288 -0.1134  1.6937
   40MOL0     H 5364   5.910   8.667   5.532  0.0184  0.5192 -2.1667
   40MOL0     H 5365   5.742   8.708   5.703 -0.5313  0.7307  0.1656
   40MOL0     H 5366   5.831   9.095   5.936 -0.0041 -0.5571  0.7315
   40MOL0     H 5367   5.677   9.150   5.877 -2.0066  0.0306  1.9040
   40MOL0     H 5368   5.739   8.980   6.127  0.8827 -0.4081 -0.9957
   40MOL0     H 5369   5.689   9.145   6.117 -1.4137  1.1755 -0.3459
   40MOL0     H 5370   5.516   8.896   6.064 -1.7702  0.2857  0.8701
   40MOL0     H 5371   5.486   9.034   5.970 -2.4389 -4.1412 -0.0744
   40MOL0     H 5372   5.494   8.958   6.268  0.4150  0.5948 -0.1913
   40MOL0     H 5373   5.477   9.129   6.244  1.8069 -0.0309  1.0212
   40MOL0     H 5374   5.265   9.044   6.283  0.7181  0.9335 -0.0562
   40MOL0     H 5375   5.279   8.915   6.166  1.0268  0.1800 -0.1541
   40MOL0     H 5376   5.274   9.204   6.094  2.2072 -0.6526  3.3197
   40MOL0     H 5377   5.283   9.065   5.980 -0.8495  0.2530  1.1806
   40MOL0     H 5378   5.038   9.196   6.044 -4.5283 -1.1429  1.1865
   40MOL0     H 5379   5.044   9.073   6.168 -2.2750  2.1191 -0.7236
   40MOL0     H 5380   5.087   9.036   5.864 -0.4135 -1.8425 -1.1430
   40MOL0     H 5381   4.929   9.034   5.939  0.1754 -2.4111  0.8852
   40MOL0     H 5382   5.900   9.110   5.763 -2.6114 -0.4919  0.7370
   40MOL0     H 5383   6.070   9.058   5.592 -1.2704  0.4095 -0.9974
   40MOL0     H 5384   6.164   8.524   5.239 -2.0775  2.7166  0.8216
   40MOL0     H 5385   6.361   8.455   5.134 -2.3451 -0.7643  2.5773
   40MOL0     H 5386   8.421   8.350   5.701 -1.3053 -2.3825  2.0027
   40MOL0     H 5387   8.653   8.311   5.821 -1.2280  1.7650  0.2813
   40MOL0     H 5388   9.032   8.086   5.913  1.2557  4.7278  4.0918
   40MOL0     H 5389   9.251   8.050   5.997 -0.3198 -0.2158  0.3831
   40MOL0     H 5390   9.511   8.115   6.059  0.6738  2.4507 -1.0604
   40MOL0     H 5391   9.457   7.987   5.963 -2.1224  1.4512 -0.1005
   40MOL0     H 5392   9.671   7.983   5.838 -1.6320 -3.0556  0.8968
   40MOL0     H 5393   9.694   7.941   6.013 -2.2039 -2.2067 -1.0326
   40MOL0     H 5394   9.770   8.164   6.060  6.0150  1.0348  0.0846
   40MOL0     H 5395   9.770   8.197   5.890 -0.2316  1.7335  1.9088
   40MOL0     H 5396   9.923   7.980   6.038  1.4352 -0.8529 -0.6873
   40MOL0     H 5397   9.982   8.148   5.999 -0.6618  1.4816 -1.6839
   40MOL0     H 5398  10.086   7.940   5.656 -0.5749 -0.0939 -0.3493
   40MOL0     H 5399   9.409   8.288   5.675  0.7454 -1.2186  0.0282
   40MOL0     H 5400   9.172   8.306   5.564  0.0225 -0.2890 -0.3575
   41MOL0     O 5401   1.402   6.426   9.514  0.4034  0.7027  0.7146
   41MOL0     C 5402   1.444   6.396   9.402 -0.4197 -0.1583  0.6236
   41MOL0     O 5403   1.371   6.337   9.296 -0.0252  0.1673  0.0914
   41MOL0     C 5404   1.233   6.307   9.310 -0.0788 -0.5572  0.1686
   41MOL0     C 5405   1.183   6.178   9.280 -0.1435  0.3369 -0.3544
   41MOL0     C 5406   1.051   6.149   9.298 -0.0449  0.4478  0.5594
   41MOL0     C 5407   0.957   6.241   9.344 -0.8332 -0.0474  0.5576
   41MOL0     O 5408   0.829   6.203   9.348  0.2371  0.4594  0.4299
   41MOL0     C 5409   0.730   6.296   9.395  0.8088  0.3643 -0.3385
   41MOL0     C 5410   0.588   6.241   9.357  0.3182 -0.1855  0.4328
   41MOL0     C 5411   0.569   6.203   9.213 -0.5771  0.5606 -0.3613
   41MOL0     C 5412   0.449   6.114   9.199  0.3236 -0.2153 -0.2050
   41MOL0     C 5413   0.435   6.045   9.062  0.2286  0.3042 -0.5399
   41MOL0     C 5414   0.400   6.140   8.957  0.3133  0.6533 -0.2133
   41MOL0     C 5415   0.365   6.051   8.830  0.2446  0.1774  0.5018
   41MOL0     C 5416   0.325   6.121   8.696 -0.3774 -0.6540  0.3053
   41MOL0     N 5417   0.223   6.032   8.629 -0.0106  0.2894 -0.0264
   41MOL0     C 5418   0.100   5.999   8.687  0.3361  0.1770 -0.6309
   41MOL0     C 5419   0.040   5.928   8.586  0.5279 -0.2873 -0.0186
   41MOL0     C 5420  -0.095   5.870   8.598  0.7677  0.4487  0.6663
   41MOL0     C 5421  -0.186   5.907   8.476  0.4461 -0.6761 -0.3179
   41MOL0     C 5422  -0.183   5.788   8.384 -0.0830 -0.5187 -0.2511
   41MOL0     C 5423  -0.248   5.816   8.247  0.1806 -0.1965 -0.9970
   41MOL0     O 5424  -0.384   5.856   8.281 -0.3456  0.2653 -0.4514
   41MOL0     C 5425  -0.464   5.894   8.171  0.3554  0.4559 -0.1356
   41MOL0     C 5426  -0.584   5.944   8.212 -0.5415 -0.2265 -0.7700
   41MOL0     C 5427  -0.676   6.007   8.119 -0.0387  1.2802  0.7120
   41MOL0     C 5428  -0.809   6.053   8.178 -0.0441 -0.4572 -0.0144
   41MOL0     C 5429  -0.635   6.014   7.984  0.3737 -0.1729  0.1680
   41MOL0     C 5430  -0.723   6.067   7.873  0.0217  0.1789 -0.3594
   41MOL0     O 5431  -0.676   6.070   7.744  0.1960  0.4109  0.2579
   41MOL0     C 5432  -0.761   6.132   7.649 -0.3154  0.2720  0.3858
   41MOL0     C 5433  -0.873   6.065   7.606 -0.9457 -0.4119  0.2122
   41MOL0     C 5434  -0.963   6.130   7.528 -0.0847 -0.0330  0.8817
   41MOL0     C 5435  -0.942   6.264   7.490  0.0345  0.5694  0.0059
   41MOL0     O 5436  -1.037   6.323   7.409 -0.3624 -0.2995 -0.1410
   41MOL0     C 5437  -1.171   6.327   7.461  0.0857 -0.3377 -0.7252
   41MOL0     C 5438  -1.266   6.231   7.387  0.0883 -0.5438 -0.9174
   41MOL0     C 5439  -1.407   6.224   7.447  0.3242 -0.3328  0.3749
   41MOL0     C 5440  -1.490   6.112   7.374  0.3723  1.0025  0.2238
   41MOL0     C 5441  -1.644   6.108   7.398 -0.0937 -0.5880  0.3004
   41MOL0     C 5442  -1.703   6.014   7.301 -0.9886  0.0533 -0.4132
   41MOL0     C 5443  -1.640   5.867   7.323 -0.3910  0.5645 -0.3802
   41MOL0     C 5444  -1.753   5.765   7.315  0.0151 -0.2781  0.0990
   41MOL0    Cl 5445  -1.685   5.603   7.356 -0.2269 -0.1272  0.1194
   41MOL0     C 5446  -0.837   6.334   7.538  0.0322  0.5155 -0.2550
   41MOL0     C 5447  -0.741   6.270   7.614  1.0077 -0.5476 -0.2566
   41MOL0     O 5448  -0.837   6.098   7.910  0.3938 -0.1493  0.1045
   41MOL0     C 5449  -0.518   5.947   7.948 -0.4690 -0.5001  0.9637
   41MOL0     C 5450  -0.436   5.896   8.041  0.2750 -0.1174  0.1136
   41MOL0     N 5451   0.120   5.905   8.483 -0.4328  0.0067 -0.5177
   41MOL0     N 5452   0.229   5.968   8.511  0.0085 -0.6697  0.2930
   41MOL0     C 5453   1.000   6.367   9.367 -0.3118  0.5888  0.7027
   41MOL0     C 5454   1.134   6.402   9.345  0.2618 -0.0692  0.4232
   41MOL0     C 5455   1.590   6.426   9.387  0.0942  1.7716 -1.0304
   41MOL0     C 5456   1.647   6.432   9.262 -1.2450  0.9471 -0.4805
   41MOL0     C 5457   1.790   6.439   9.247  0.4737 -0.6578  0.9970
   41MOL0     C 5458   1.874   6.446   9.356 -0.2940 -0.3021 -0.0450
   41MOL0     O 5459   2.014   6.449   9.330  0.1070 -0.3211  0.7752
   41MOL0     C 5460   2.107   6.427   9.438  0.4174 -0.7940  0.3498
   41MOL0     C 5461   2.222   6.345   9.379  0.6589 -0.1365 -0.8574
   41MOL0     C 5462   2.174   6.230   9.286 -0.6217 -0.3425 -0.0624
   41MOL0     C 5463   2.274   6.107   9.276  0.2357 -0.1590  0.1544
   41MOL0     C 5464   2.282   6.038   9.400 -0.0672  0.1237 -0.1236
   41MOL0     C 5465   2.316   5.979   9.501  0.4401 -0.6083 -0.4856
   41MOL0     C 5466   1.814   6.448   9.485 -0.2313  0.3212 -0.3686
   41MOL0     C 5467   1.672   6.438   9.497 -0.0132  0.6370 -0.2979
   41MOL0     H 5468   1.258   6.104   9.253 -1.2692 -2.2938  3.0586
   41MOL0     H 5469   1.012   6.050   9.277 -1.2266  1.0038  0.0679
   41MOL0     H 5470   0.731   6.294   9.504 -1.2701  0.9619 -0.2637
   41MOL0     H 5471   0.734   6.399   9.360 -0.9389  0.8932  0.8595
   41MOL0     H 5472   0.565   6.144   9.403 -1.1887 -2.3166 -4.0847
   41MOL0     H 5473   0.509   6.310   9.389  0.6987 -0.8434  2.9798
   41MOL0     H 5474   0.568   6.300   9.162  1.6384  2.0077  2.0755
   41MOL0     H 5475   0.659   6.150   9.182  0.7073  3.1505 -1.3986
   41MOL0     H 5476   0.450   6.042   9.281 -1.8391  2.0875  2.0268
   41MOL0     H 5477   0.362   6.179   9.214  1.3221  1.1769 -0.2805
   41MOL0     H 5478   0.531   5.994   9.048  0.6420  0.3786  1.6151
   41MOL0     H 5479   0.355   5.971   9.071  0.6982 -0.1095  0.4061
   41MOL0     H 5480   0.325   6.209   8.996 -1.4151 -2.0407  1.5134
   41MOL0     H 5481   0.495   6.195   8.947  0.4164  0.2785 -1.4792
   41MOL0     H 5482   0.451   5.985   8.818 -0.2141 -0.3824  0.3023
   41MOL0     H 5483   0.276   5.995   8.857 -1.1083  1.2769 -1.4091
   41MOL0     H 5484   0.409   6.136   8.628  0.1343  1.0227  1.2616
   41MOL0     H 5485   0.281   6.220   8.711 -1.9340 -1.3112  0.2802
   41MOL0     H 5486   0.057   6.031   8.781 -1.2533 -2.0132 -0.5146
   41MOL0     H 5487  -0.088   5.761   8.611 -1.6897  0.0715 -0.5459
   41MOL0     H 5488  -0.152   5.903   8.685 -3.5385 -2.9163 -0.4935
   41MOL0     H 5489  -0.144   5.994   8.426  0.8071  0.3850  1.7438
   41MOL0     H 5490  -0.288   5.936   8.503  1.3003  1.6769  0.6192
   41MOL0     H 5491  -0.235   5.702   8.428 -2.4875  1.4470  0.9391
   41MOL0     H 5492  -0.078   5.764   8.366  0.9836  4.1024 -1.5384
   41MOL0     H 5493  -0.258   5.724   8.189 -1.0811 -1.2251  0.7459
   41MOL0     H 5494  -0.193   5.901   8.204  0.1664  0.8594  0.9662
   41MOL0     H 5495  -0.606   5.938   8.318  2.2263 -5.5088 -0.1260
   41MOL0     H 5496  -0.788   6.070   8.284  1.0178  0.6210 -0.3674
   41MOL0     H 5497  -0.830   6.151   8.133 -1.4215 -1.1255 -0.9098
   41MOL0     H 5498  -0.888   5.979   8.162 -1.7004  1.4199 -0.9921
   41MOL0     H 5499  -0.881   5.960   7.633  2.6434 -1.4026 -1.9333
   41MOL0     H 5500  -1.039   6.064   7.489 -0.6287 -1.4249  3.9571
   41MOL0     H 5501  -1.166   6.301   7.567  1.7710  1.1863 -0.3663
   41MOL0     H 5502  -1.204   6.431   7.454 -0.1366 -0.4705 -1.7221
   41MOL0     H 5503  -1.265   6.252   7.280  2.0089  2.3796 -0.4491
   41MOL0     H 5504  -1.226   6.131   7.408  1.3713  0.4462  1.8491
   41MOL0     H 5505  -1.447   6.324   7.432 -1.5992 -1.2696 -1.2393
   41MOL0     H 5506  -1.392   6.211   7.555 -1.8968 -1.0579  0.6597
   41MOL0     H 5507  -1.473   6.110   7.266 -0.2995  0.3714  0.1188
   41MOL0     H 5508  -1.451   6.023   7.424 -1.6962 -0.3277 -0.4079
   41MOL0     H 5509  -1.685   6.207   7.380  0.8707  0.4453  3.1836
   41MOL0     H 5510  -1.674   6.079   7.499 -0.5211  1.4982  0.8109
   41MOL0     H 5511  -1.807   6.014   7.335 -0.9202 -0.3641 -0.1994
   41MOL0     H 5512  -1.705   6.043   7.196 -2.0591  0.6646 -0.2337
   41MOL0     H 5513  -1.577   5.845   7.410 -0.8367  1.7394  0.2536
   41MOL0     H 5514  -1.579   5.862   7.232 -2.6120 -1.3773 -1.8617
   41MOL0     H 5515  -1.781   5.764   7.209 -0.3605  2.7363  0.0762
   41MOL0     H 5516  -1.833   5.794   7.383 -0.1882  1.4264 -0.8118
   41MOL0     H 5517  -0.827   6.434   7.497  1.1393 -0.8634 -3.6909
   41MOL0     H 5518  -0.645   6.315   7.637  1.7175 -1.4616 -1.3476
   41MOL0     H 5519  -0.486   5.945   7.844  0.6417  1.5075  1.1987
   41MOL0     H 5520  -0.343   5.856   8.000 -0.9839 -1.6915 -1.3799
   41MOL0     H 5521   0.940   6.446   9.410  1.8051  2.3735  0.5267
   41MOL0     H 5522   1.160   6.507   9.357 -2.6848  0.6443  1.4634
   41MOL0     H 5523   1.587   6.411   9.173 -1.0404 -1.1220 -0.1903
   41MOL0     H 5524   1.840   6.430   9.151  1.5651  0.5979  1.4380
   41MOL0     H 5525   2.144   6.523   9.477  0.9676 -1.7533  2.3146
   41MOL0     H 5526   2.074   6.373   9.527  0.2055 -0.1687  0.6603
   41MOL0     H 5527   2.274   6.300   9.464 -1.6423 -1.2999  0.0249
   41MOL0     H 5528   2.291   6.414   9.329  0.3582  1.1294  0.3977
   41MOL0     H 5529   2.138   6.269   9.190  0.0918  1.7132  0.4516
   41MOL0     H 5530   2.086   6.187   9.335  0.6771 -1.6227  1.2426
   41MOL0     H 5531   2.369   6.143   9.236  0.8671 -1.7427  0.1361
   41MOL0     H 5532   2.232   6.038   9.201  2.0666 -1.3791  0.1842
   41MOL0     H 5533   2.352   5.943   9.595  3.1640  0.9002 -0.8400
   41MOL0     H 5534   1.874   6.464   9.574  0.7688  0.5898 -1.0737
   41MOL0     H 5535   1.627   6.445   9.596  1.0237  0.8116  0.1714
   42MOL0     O 5536   6.899   3.853   7.864  0.0094  0.1823  0.0417
   42MOL0     C 5537   6.918   3.974   7.842  0.5953  0.7462  0.0066
   42MOL0     O 5538   6.840   4.051   7.760 -0.5852  0.2036 -0.2372
   42MOL0     C 5539   6.743   3.994   7.691  0.4796 -0.0160  0.6070
   42MOL0     C 5540   6.741   3.872   7.612  0.5685  0.2748 -0.6949
   42MOL0     C 5541   6.611   3.829   7.550 -0.1752 -0.4931  0.4905
   42MOL0     C 5542   6.491   3.894   7.584  0.3834  0.3120  0.5815
   42MOL0     O 5543   6.377   3.842   7.533 -0.2340  0.3238 -0.2631
   42MOL0     C 5544   6.271   3.926   7.505  0.9370 -0.4460 -0.0546
   42MOL0     C 5545   6.144   3.852   7.460  0.2011  0.0761 -0.5044
   42MOL0     C 5546   6.042   3.946   7.389 -0.7086  0.1961 -0.4045
   42MOL0     C 5547   5.928   3.849   7.361 -0.6294  0.1431  0.2743
   42MOL0     C 5548   5.841   3.907   7.260  0.6581  0.0625 -0.2869
   42MOL0     C 5549   5.710   3.829   7.248  0.3120 -0.0754  1.1504
   42MOL0     C 5550   5.626   3.832   7.373  0.5404 -0.6881  0.1627
   42MOL0     C 5551   5.590   3.707   7.445  0.2426 -0.5205 -0.1995
   42MOL0     N 5552   5.516   3.610   7.362 -1.0428 -0.7316 -0.2372
   42MOL0     C 5553   5.542   3.478   7.371  0.2007  0.7829 -0.2757
   42MOL0     C 5554   5.457   3.413   7.289  0.5219 -0.4775 -0.6108
   42MOL0     C 5555   5.447   3.262   7.273 -0.1486  0.1804  0.1249
   42MOL0     C 5556   5.499   3.203   7.143 -0.3279 -0.6608 -0.5781
   42MOL0     C 5557   5.407   3.209   7.019  0.1133  0.5854  0.2140
   42MOL0     C 5558   5.264   3.145   7.040 -0.0150  0.0740 -0.8184
   42MOL0     O 5559   5.263   2.999   7.036 -0.7772  0.1091  0.0221
   42MOL0     C 5560   5.231   2.922   6.926  0.2869 -0.6341 -0.5781
   42MOL0     C 5561   5.207   2.786   6.932  0.6134 -0.2321 -0.0557
   42MOL0     C 5562   5.174   2.704   6.828 -0.2609  0.4130  0.2250
   42MOL0     C 5563   5.151   2.560   6.869 -0.2082  0.6528  2.0721
   42MOL0     C 5564   5.144   2.753   6.698  0.1337  0.1810  0.1492
   42MOL0     C 5565   5.098   2.680   6.579  0.7134  0.6264  0.2088
   42MOL0     O 5566   5.125   2.741   6.459  0.1407  0.6062  0.3220
   42MOL0     C 5567   5.044   2.704   6.358 -0.5192  0.0948  1.4753
   42MOL0     C 5568   5.074   2.587   6.288  0.5002 -0.0962  0.6189
   42MOL0     C 5569   4.999   2.540   6.182  0.7652 -0.4624 -0.0953
   42MOL0     C 5570   4.891   2.622   6.140  0.6752  0.1049  0.4594
   42MOL0     O 5571   4.815   2.576   6.032  0.7651  0.3916 -0.3776
   42MOL0     C 5572   4.707   2.653   5.985  0.2474 -0.3254 -0.3339
   42MOL0     C 5573   4.634   2.598   5.865  0.4729 -0.2881  0.4433
   42MOL0     C 5574   4.479   2.612   5.888 -0.0671 -0.0342 -0.1046
   42MOL0     C 5575   4.434   2.732   5.795  0.6407 -0.0589 -0.1287
   42MOL0     C 5576   4.283   2.729   5.775 -1.1244 -0.1922  0.2446
   42MOL0     C 5577   4.227   2.853   5.713 -0.0791  0.2396 -0.2461
   42MOL0     C 5578   4.079   2.826   5.690  0.0230 -0.0724  0.2676
   42MOL0     C 5579   3.978   2.930   5.757 -0.1529  0.2953  0.1134
   42MOL0    Cl 5580   3.811   2.906   5.710  0.0285  0.1985  0.0778
   42MOL0     C 5581   4.856   2.736   6.214 -0.0631 -0.0609 -0.1018
   42MOL0     C 5582   4.937   2.771   6.324  0.5198  0.0483 -0.6128
   42MOL0     O 5583   5.050   2.563   6.587  0.6484 -0.9014 -0.2438
   42MOL0     C 5584   5.174   2.894   6.684  0.3284  0.6397 -0.2567
   42MOL0     C 5585   5.211   2.979   6.793 -0.0346  0.2825  0.3761
   42MOL0     N 5586   5.384   3.514   7.230 -0.3510 -0.7551 -0.5669
   42MOL0     N 5587   5.413   3.629   7.277  0.7409  0.8988 -0.6611
   42MOL0     C 5588   6.488   4.004   7.672 -0.4697  0.7073  0.1826
   42MOL0     C 5589   6.612   4.046   7.723 -1.4650  0.6895 -0.4452
   42MOL0     C 5590   7.030   4.032   7.917  0.5154  0.4573 -0.3725
   42MOL0     C 5591   7.135   3.954   7.968  0.7022  0.0027 -0.1652
   42MOL0     C 5592   7.243   4.006   8.035 -0.0057  0.2474 -0.0612
   42MOL0     C 5593   7.260   4.147   8.039  1.1171  0.3126  0.6602
   42MOL0     O 5594   7.353   4.205   8.114  0.4978 -0.5748 -0.6776
   42MOL0     C 5595   7.416   4.135   8.224 -0.6358 -0.3413  0.4521
   42MOL0     C 5596   7.518   4.222   8.288 -1.2177 -0.1774  0.3727
   42MOL0     C 5597   7.561   4.160   8.422  0.3800 -0.3464 -0.0149
   42MOL0     C 5598   7.678   4.242   8.483 -0.0660 -0.0472 -0.3333
   42MOL0     C 5599   7.714   4.164   8.608 -0.5250  0.4171  0.7408
   42MOL0     C 5600   7.742   4.113   8.716 -1.0377 -1.0308 -0.1630
   42MOL0     C 5601   7.166   4.229   7.983 -0.5751 -0.1947  0.3639
   42MOL0     C 5602   7.052   4.171   7.921  0.3700 -1.3138  0.6120
   42MOL0     H 5603   6.827   3.806   7.603  0.5343  0.1673 -0.2892
   42MOL0     H 5604   6.599   3.739   7.490 -1.4432  0.2486 -0.4149
   42MOL0     H 5605   6.236   3.980   7.593 -0.3509  0.0450 -0.8321
   42MOL0     H 5606   6.305   3.994   7.426  2.4853 -4.2062 -2.9667
   42MOL0     H 5607   6.162   3.755   7.412  0.4552  0.9645 -2.2785
   42MOL0     H 5608   6.097   3.821   7.554 -1.3896  1.4689 -0.7967
   42MOL0     H 5609   6.015   4.041   7.436  1.9778  2.4524 -2.9995
   42MOL0     H 5610   6.097   3.981   7.301  1.6149 -1.5820  0.2557
   42MOL0     H 5611   5.970   3.758   7.318  0.1800  0.3022  0.7079
   42MOL0     H 5612   5.895   3.824   7.462  3.7332 -3.5323  1.0933
   42MOL0     H 5613   5.822   4.013   7.279  0.1681 -0.4091  2.1261
   42MOL0     H 5614   5.895   3.898   7.165  1.0951  3.8212 -0.5297
   42MOL0     H 5615   5.663   3.865   7.156  0.7543 -2.0669  0.1052
   42MOL0     H 5616   5.726   3.723   7.229 -1.2708 -0.2589  0.6801
   42MOL0     H 5617   5.685   3.892   7.443 -2.0283 -0.9668  2.7164
   42MOL0     H 5618   5.535   3.892   7.362  0.6746 -0.2527  1.3073
   42MOL0     H 5619   5.524   3.738   7.527  1.4004  0.8309  0.2787
   42MOL0     H 5620   5.679   3.658   7.486  2.0122  0.2146 -2.8649
   42MOL0     H 5621   5.627   3.441   7.427 -0.1515  2.3912  1.4415
   42MOL0     H 5622   5.510   3.231   7.356 -1.2691 -0.1800  0.8638
   42MOL0     H 5623   5.347   3.234   7.308  1.0783 -2.4553  1.7832
   42MOL0     H 5624   5.535   3.103   7.169 -1.6545 -0.9144  0.3877
   42MOL0     H 5625   5.592   3.260   7.128 -1.1693  1.0336  0.3247
   42MOL0     H 5626   5.454   3.159   6.934 -0.1089 -1.7431  1.3837
   42MOL0     H 5627   5.390   3.313   6.989 -0.1325  0.4695 -0.0550
   42MOL0     H 5628   5.202   3.188   6.961 -0.6509  0.6033 -0.0433
   42MOL0     H 5629   5.225   3.182   7.135  0.7660  0.0288 -0.4691
   42MOL0     H 5630   5.195   2.748   7.032 -1.0167  0.0792 -0.1030
   42MOL0     H 5631   5.173   2.500   6.781 -0.6679  4.4218 -0.9183
   42MOL0     H 5632   5.220   2.537   6.950  3.2714 -1.2963 -1.1182
   42MOL0     H 5633   5.046   2.541   6.894 -1.5242  1.8868 -1.7403
   42MOL0     H 5634   5.164   2.539   6.325  0.9163 -0.7413 -1.1336
   42MOL0     H 5635   5.010   2.446   6.130  0.6899 -0.2003 -0.5913
   42MOL0     H 5636   4.640   2.671   6.069  0.0024 -3.2303  0.1835
   42MOL0     H 5637   4.732   2.750   5.941 -1.6695  0.6520  0.6031
   42MOL0     H 5638   4.674   2.643   5.774  1.6699 -0.0706  1.0662
   42MOL0     H 5639   4.659   2.491   5.857  1.0124 -0.2132  1.1530
   42MOL0     H 5640   4.443   2.645   5.986 -3.4104 -0.4637 -1.0725
   42MOL0     H 5641   4.420   2.525   5.857  0.8769 -0.1503 -1.6255
   42MOL0     H 5642   4.466   2.829   5.833 -4.5140  2.3639 -1.1257
   42MOL0     H 5643   4.465   2.730   5.690  4.3764 -1.2549  0.8558
   42MOL0     H 5644   4.243   2.714   5.876 -1.0336 -0.7558  0.2005
   42MOL0     H 5645   4.266   2.639   5.714  1.3267 -0.3492 -0.3319
   42MOL0     H 5646   4.240   2.938   5.781  0.7458 -1.4925  1.9073
   42MOL0     H 5647   4.282   2.881   5.623  1.4428 -1.3352  0.1192
   42MOL0     H 5648   4.047   2.727   5.725  0.8912 -0.9553 -1.3127
   42MOL0     H 5649   4.065   2.812   5.582 -2.2398 -1.4602  0.6635
   42MOL0     H 5650   4.003   3.034   5.733  2.3472  0.1582  1.7738
   42MOL0     H 5651   3.976   2.919   5.866 -2.2682 -1.3868 -0.0248
   42MOL0     H 5652   4.772   2.798   6.187 -0.9830  0.8728  4.1822
   42MOL0     H 5653   4.925   2.861   6.383 -1.1243  0.5723 -1.6950
   42MOL0     H 5654   5.160   2.944   6.589 -0.6314  1.7313  0.4421
   42MOL0     H 5655   5.234   3.082   6.768 -0.8800  0.3294 -0.2474
   42MOL0     H 5656   6.402   4.064   7.699 -0.3509  1.3864 -0.8920
   42MOL0     H 5657   6.615   4.121   7.801  1.3362 -1.1378  1.3598
   42MOL0     H 5658   7.110   3.849   7.966  0.8212 -0.0327 -1.9666
   42MOL0     H 5659   7.305   3.930   8.082 -0.1702  0.5315  0.6199
   42MOL0     H 5660   7.335   4.125   8.298 -0.0007 -2.1270  0.9714
   42MOL0     H 5661   7.455   4.041   8.185 -2.1368 -1.3772  1.3361
   42MOL0     H 5662   7.467   4.318   8.299  0.3510  0.7166  0.1255
   42MOL0     H 5663   7.608   4.233   8.226 -1.9769 -0.5896 -0.8360
   42MOL0     H 5664   7.606   4.063   8.396  1.9691  1.1297 -3.3193
   42MOL0     H 5665   7.475   4.145   8.488 -0.2035  1.6173 -0.2652
   42MOL0     H 5666   7.649   4.336   8.531  0.7782  0.1929 -0.2722
   42MOL0     H 5667   7.759   4.248   8.409 -0.0973 -4.1814 -0.9322
   42MOL0     H 5668   7.747   4.060   8.809  0.5071 -1.0311 -0.2283
   42MOL0     H 5669   7.182   4.336   7.975  0.5012 -0.2356  1.5160
   42MOL0     H 5670   6.975   4.234   7.877 -0.2949 -2.7581 -0.3980
   43MOL0     O 5671   1.394   0.428  10.626 -0.0749 -0.0809 -0.4842
   43MOL0     C 5672   1.453   0.532  10.597  0.5909 -0.0595 -0.5055
   43MOL0     O 5673   1.399   0.651  10.609  0.3069 -0.0513  0.4069
   43MOL0     C 5674   1.272   0.655  10.658  0.4715 -0.8326 -0.4018
   43MOL0     C 5675   1.166   0.699  10.575 -0.8499  0.5969 -0.1681
   43MOL0     C 5676   1.033   0.704  10.633  0.2300 -0.2689 -0.5465
   43MOL0     C 5677   1.011   0.650  10.763  0.2946  0.3312  1.1104
   43MOL0     O 5678   0.876   0.636  10.804  0.2154 -0.0048  0.3862
   43MOL0     C 5679   0.840   0.556  10.920  0.0740  0.6823  0.1230
   43MOL0     C 5680   0.684   0.528  10.907  0.2915 -0.1481 -0.2490
   43MOL0     C 5681   0.607   0.660  10.950  0.1687  1.1553 -0.2609
   43MOL0     C 5682   0.480   0.680  10.861  0.1272 -0.4233  0.1244
   43MOL0     C 5683   0.522   0.724  10.712 -0.5127 -0.1406 -0.2982
   43MOL0     C 5684   0.396   0.724  10.618  0.3311  0.5118  0.1081
   43MOL0     C 5685   0.285   0.818  10.662 -0.1442  0.4452  0.0698
   43MOL0     C 5686   0.170   0.803  10.555  0.5067  0.0344  0.1434
   43MOL0     N 5687   0.066   0.901  10.594 -0.7137 -0.2915 -0.2425
   43MOL0     C 5688  -0.066   0.863  10.606 -0.5212  0.1734  0.2086
   43MOL0     C 5689  -0.125   0.980  10.635  0.6773 -0.3326 -0.7450
   43MOL0     C 5690  -0.272   1.002  10.642 -0.3580  0.1740 -0.6097
   43MOL0     C 5691  -0.329   1.017  10.498 -0.1289  0.0596  0.1849
   43MOL0     C 5692  -0.440   0.920  10.464  0.1786  0.5149  0.9287
   43MOL0     C 5693  -0.580   0.953  10.540 -0.7900  0.5821  0.3918
   43MOL0     O 5694  -0.685   0.940  10.451 -0.6142 -0.3450 -0.9037
   43MOL0     C 5695  -0.807   0.994  10.479 -0.2002 -0.3580 -1.8276
   43MOL0     C 5696  -0.857   1.027  10.612  0.5039  0.0689 -0.3380
   43MOL0     C 5697  -0.992   1.084  10.629  0.1144  0.0033  0.2038
   43MOL0     C 5698  -1.054   1.090  10.772  0.4944 -0.1081 -0.2531
   43MOL0     C 5699  -1.075   1.121  10.523 -0.2725 -0.0901 -0.7630
   43MOL0     C 5700  -1.210   1.193  10.529  0.5962 -0.4234 -0.4364
   43MOL0     O 5701  -1.295   1.185  10.414 -0.2212 -0.9065 -0.1716
   43MOL0     C 5702  -1.426   1.229  10.428  0.7788  0.4072  0.6454
   43MOL0     C 5703  -1.459   1.363  10.440 -0.2192  0.0973  0.1373
   43MOL0     C 5704  -1.587   1.409  10.458 -0.7322 -0.0037  0.0123
   43MOL0     C 5705  -1.695   1.322  10.450 -0.2070 -0.4118  0.4223
   43MOL0     O 5706  -1.826   1.367  10.462 -0.2890  0.6021  0.1608
   43MOL0     C 5707  -1.936   1.276  10.422  0.0269 -0.2480 -0.0248
   43MOL0     C 5708  -2.068   1.362  10.429 -0.8521 -0.0848 -0.8566
   43MOL0     C 5709  -2.193   1.290  10.383 -0.0962 -0.0414  0.2941
   43MOL0     C 5710  -2.220   1.296  10.228  0.1669  0.1710 -0.2794
   43MOL0     C 5711  -2.345   1.215  10.184  0.3067  0.0906 -0.2024
   43MOL0     C 5712  -2.364   1.185  10.032 -1.1592 -1.0985 -0.5538
   43MOL0     C 5713  -2.459   1.067  10.005  0.3404  0.6077  0.5342
   43MOL0     C 5714  -2.559   1.104   9.889 -0.0041  0.3787 -0.3885
   43MOL0    Cl 5715  -2.649   1.253   9.931 -0.2757  0.4005 -0.0854
   43MOL0     C 5716  -1.662   1.183  10.457 -0.0568  0.0173  0.1545
   43MOL0     C 5717  -1.532   1.136  10.448 -0.2792 -0.1730  0.1315
   43MOL0     O 5718  -1.242   1.258  10.635  0.5471  0.0566 -0.2442
   43MOL0     C 5719  -1.022   1.087  10.398  0.1191  0.5224 -0.0860
   43MOL0     C 5720  -0.897   1.028  10.378 -0.4552 -0.4695  0.7055
   43MOL0     N 5721  -0.028   1.088  10.632 -0.3393 -0.0435  0.6213
   43MOL0     N 5722   0.084   1.032  10.608  0.3412 -0.5932 -0.8271
   43MOL0     C 5723   1.115   0.612  10.843 -0.0802 -0.0631 -0.5644
   43MOL0     C 5724   1.247   0.614  10.789  0.2058 -0.7694  1.2883
   43MOL0     C 5725   1.587   0.513  10.541 -0.1587  0.7443  0.8780
   43MOL0     C 5726   1.618   0.397  10.468  0.7065  0.9197 -0.2375
   43MOL0     C 5727   1.743   0.387  10.407 -0.5226 -0.6563  0.2788
   43MOL0     C 5728   1.814   0.505  10.386 -1.1804  0.2083  0.1352
   43MOL0     O 5729   1.922   0.494  10.302  0.5288  0.5440  0.2204
   43MOL0     C 5730   2.018   0.604  10.274 -0.7212 -0.5871 -0.0837
   43MOL0     C 5731   2.115   0.636  10.392 -0.6948 -0.6357 -0.2917
   43MOL0     C 5732   2.204   0.533  10.441 -0.6593  0.7374  0.5492
   43MOL0     C 5733   2.259   0.563  10.584 -1.2467 -0.6985 -0.1513
   43MOL0     C 5734   2.360   0.463  10.597 -0.2527 -0.4201 -0.9707
   43MOL0     C 5735   2.448   0.378  10.585 -0.6755 -0.1670  0.8947
   43MOL0     C 5736   1.775   0.626  10.445 -0.4723  0.4996 -0.5428
   43MOL0     C 5737   1.662   0.628  10.521 -0.1518  0.8749 -0.2324
   43MOL0     H 5738   1.178   0.736  10.474  1.4127 -0.4867 -0.3548
   43MOL0     H 5739   0.946   0.750  10.587 -0.1552  0.6862  1.0726
   43MOL0     H 5740   0.899   0.465  10.909  0.6954  1.1698 -0.7323
   43MOL0     H 5741   0.868   0.598  11.017  2.8264  1.6006 -0.9679
   43MOL0     H 5742   0.653   0.488  10.810 -1.4054  0.3125  0.0771
   43MOL0     H 5743   0.653   0.443  10.969 -2.6324  0.6887 -0.4373
   43MOL0     H 5744   0.589   0.670  11.058  0.6280  1.5567 -0.2155
   43MOL0     H 5745   0.672   0.745  10.929 -0.9753  1.4830 -2.8968
   43MOL0     H 5746   0.415   0.592  10.861  0.6315 -0.7986 -0.2541
   43MOL0     H 5747   0.418   0.759  10.904  1.0314  1.1087 -1.2680
   43MOL0     H 5748   0.578   0.817  10.699  0.0596 -0.4700 -0.2162
   43MOL0     H 5749   0.592   0.648  10.678 -2.5984 -1.9883 -0.6389
   43MOL0     H 5750   0.413   0.754  10.514 -2.8117 -3.4098 -1.7956
   43MOL0     H 5751   0.351   0.625  10.609 -3.8729  2.1351  0.9960
   43MOL0     H 5752   0.243   0.777  10.755 -0.1596 -1.5277 -0.7511
   43MOL0     H 5753   0.317   0.922  10.666 -1.2070  0.8061 -0.3706
   43MOL0     H 5754   0.130   0.702  10.564  1.9391 -0.6336 -0.6342
   43MOL0     H 5755   0.205   0.819  10.453  0.5449 -0.7012  0.0401
   43MOL0     H 5756  -0.127   0.774  10.593  0.4102 -0.8229  2.2256
   43MOL0     H 5757  -0.315   0.910  10.683  3.3784 -0.9612  1.2014
   43MOL0     H 5758  -0.305   1.081  10.710 -1.6793 -0.9451  0.1193
   43MOL0     H 5759  -0.250   1.002  10.424 -1.5738 -2.9129 -0.9399
   43MOL0     H 5760  -0.375   1.116  10.491  0.3807  0.2200 -1.2421
   43MOL0     H 5761  -0.409   0.820  10.495 -3.9512 -0.9176  1.0013
   43MOL0     H 5762  -0.459   0.921  10.357 -2.6142 -1.4458  1.3017
   43MOL0     H 5763  -0.584   1.051  10.589  3.2076  0.8714  0.5145
   43MOL0     H 5764  -0.580   0.892  10.631  1.5068 -0.1525 -0.0299
   43MOL0     H 5765  -0.790   1.010  10.696 -1.3707  0.4019  1.3023
   43MOL0     H 5766  -1.052   1.193  10.810 -1.5682  1.1545 -3.1728
   43MOL0     H 5767  -1.163   1.078  10.766 -0.3719  3.9552  2.7360
   43MOL0     H 5768  -1.006   1.022  10.842 -2.7699 -2.4060 -0.0030
   43MOL0     H 5769  -1.380   1.436  10.426  0.9937 -0.8422  1.6504
   43MOL0     H 5770  -1.600   1.517  10.466  2.2883  0.4639 -0.3059
   43MOL0     H 5771  -1.932   1.229  10.324 -2.4862 -0.4293 -0.1047
   43MOL0     H 5772  -1.932   1.192  10.493  1.0671 -0.0987  0.0999
   43MOL0     H 5773  -2.082   1.392  10.533 -0.4269 -1.2240 -0.4510
   43MOL0     H 5774  -2.048   1.455  10.375 -2.1586  1.4816  1.1956
   43MOL0     H 5775  -2.271   1.343  10.438  0.7092  0.0152  1.4127
   43MOL0     H 5776  -2.187   1.182  10.401 -0.7228 -0.0596  0.4063
   43MOL0     H 5777  -2.224   1.398  10.189  0.0402 -0.1492 -1.1439
   43MOL0     H 5778  -2.134   1.243  10.185  1.8312  2.4634  0.0478
   43MOL0     H 5779  -2.419   1.281  10.231 -0.2686  0.1199 -1.1394
   43MOL0     H 5780  -2.352   1.123  10.243 -3.3027  1.3672  1.6738
   43MOL0     H 5781  -2.390   1.284   9.995 -4.9233 -1.2931  1.0994
   43MOL0     H 5782  -2.271   1.162   9.978  0.9264  0.8876  1.9069
   43MOL0     H 5783  -2.525   1.039  10.088  1.4057 -2.3770  0.5247
   43MOL0     H 5784  -2.407   0.973   9.981  1.8594  1.3755  0.7071
   43MOL0     H 5785  -2.623   1.019   9.867  1.8853 -0.5247 -2.9293
   43MOL0     H 5786  -2.498   1.110   9.798 -1.6371  0.2377 -1.5425
   43MOL0     H 5787  -1.741   1.111  10.473  0.7527 -0.6578  1.1948
   43MOL0     H 5788  -1.521   1.028  10.457 -2.1247 -0.5842 -1.7324
   43MOL0     H 5789  -1.083   1.112  10.312 -1.6884  0.5064  1.1283
   43MOL0     H 5790  -0.857   1.001  10.281  1.5156 -1.1077  1.6452
   43MOL0     H 5791   1.106   0.589  10.948 -0.0263  0.1947 -0.5032
   43MOL0     H 5792   1.335   0.605  10.852  0.9943  3.4571  1.0228
   43MOL0     H 5793   1.552   0.311  10.480  0.0590  1.5328  0.7743
   43MOL0     H 5794   1.784   0.289  10.383 -1.2314 -0.9688  0.3111
   43MOL0     H 5795   2.072   0.575  10.184 -1.3973  1.5803 -1.2621
   43MOL0     H 5796   1.955   0.690  10.248 -1.6312 -0.6611  1.6988
   43MOL0     H 5797   2.060   0.679  10.476  0.6394 -2.0135  1.3500
   43MOL0     H 5798   2.175   0.720  10.354 -1.5637 -0.3998 -1.1790
   43MOL0     H 5799   2.289   0.521  10.373 -0.1301 -2.2295  1.5775
   43MOL0     H 5800   2.168   0.430  10.430  0.8341  0.0546  1.6296
   43MOL0     H 5801   2.190   0.540  10.665 -1.9565 -2.0165 -1.0883
   43MOL0     H 5802   2.304   0.663  10.595  2.9308 -2.0689 -2.4215
   43MOL0     H 5803   2.531   0.311  10.573 -0.9121 -0.7142  2.2088
   43MOL0     H 5804   1.839   0.713  10.439  3.9488 -2.3189  0.9816
   43MOL0     H 5805   1.627   0.711  10.581 -3.7550 -1.6909  1.6050
   44MOL0     O 5806   2.486  10.962   9.763 -0.1259  0.2154 -0.3600
   44MOL0     C 5807   2.540  10.861   9.717 -0.1895 -0.2115 -0.8501
   44MOL0     O 5808   2.491  10.736   9.725 -0.4322  0.3238  0.5356
   44MOL0     C 5809   2.368  10.717   9.777  0.7283 -0.6816 -0.0905
   44MOL0     C 5810   2.334  10.594   9.823 -0.2953 -0.6262 -0.1366
   44MOL0     C 5811   2.204  10.560   9.861 -0.1319  0.3692 -0.2129
   44MOL0     C 5812   2.096  10.642   9.843 -0.2767 -0.2984 -0.8998
   44MOL0     O 5813   1.974  10.584   9.863  0.4240 -1.0182 -0.4716
   44MOL0     C 5814   1.877  10.640   9.781  0.3848 -1.0665 -0.3267
   44MOL0     C 5815   1.741  10.559   9.811  0.4461 -0.3683 -0.6410
   44MOL0     C 5816   1.626  10.595   9.713  0.6515 -0.0144 -0.0032
   44MOL0     C 5817   1.493  10.542   9.764 -0.3819 -0.3032  0.1095
   44MOL0     C 5818   1.380  10.626   9.697 -1.0258 -0.5442  0.1267
   44MOL0     C 5819   1.258  10.560   9.710  0.2576 -0.3419 -0.2053
   44MOL0     C 5820   1.151  10.606   9.615  0.2817  0.0596 -0.5705
   44MOL0     C 5821   1.027  10.520   9.639  0.0008  0.0653 -0.8708
   44MOL0     N 5822   0.906  10.592   9.589  0.2840  0.1023 -0.3239
   44MOL0     C 5823   0.888  10.617   9.457  0.4336  0.2205 -0.3943
   44MOL0     C 5824   0.772  10.682   9.457 -0.5992 -0.0828 -0.4469
   44MOL0     C 5825   0.725  10.750   9.331 -0.6266  0.5754  0.5221
   44MOL0     C 5826   0.639  10.650   9.254 -0.3010 -0.4570 -0.6181
   44MOL0     C 5827   0.601  10.698   9.110  0.0376  0.0295  0.1876
   44MOL0     C 5828   0.498  10.613   9.041 -0.3172  0.3856  0.5473
   44MOL0     O 5829   0.378  10.652   9.112  0.1857 -0.0889 -0.1270
   44MOL0     C 5830   0.275  10.689   9.031  0.0567 -0.5128 -0.1744
   44MOL0     C 5831   0.237  10.819   9.009 -0.4245  0.4077  0.2777
   44MOL0     C 5832   0.127  10.855   8.928 -0.3089  0.3007  0.4078
   44MOL0     C 5833   0.111  11.003   8.910  0.1874  0.4536  0.6747
   44MOL0     C 5834   0.060  10.747   8.853 -0.2360  0.0781  0.5784
   44MOL0     C 5835  -0.048  10.778   8.751  0.4960  0.4713  0.5366
   44MOL0     O 5836  -0.120  10.892   8.768 -0.0239  0.5177  0.4840
   44MOL0     C 5837  -0.250  10.889   8.721 -0.4799  0.2349 -0.6905
   44MOL0     C 5838  -0.305  10.838   8.604  0.0720 -0.1525 -0.2374
   44MOL0     C 5839  -0.442  10.862   8.574 -0.2989  0.3496 -0.2044
   44MOL0     C 5840  -0.518  10.936   8.659 -0.4512 -1.2345 -0.5215
   44MOL0     O 5841  -0.650  10.983   8.646  0.4598  1.0364 -0.1785
   44MOL0     C 5842  -0.659  11.082   8.541 -0.3190  0.4753 -0.2828
   44MOL0     C 5843  -0.781  11.167   8.534 -0.6158  0.4269 -0.6934
   44MOL0     C 5844  -0.896  11.076   8.582 -0.3418 -0.6026 -0.1797
   44MOL0     C 5845  -1.039  11.135   8.552  0.2117  0.1355 -0.0910
   44MOL0     C 5846  -1.166  11.052   8.593  0.1097 -0.0264  0.1497
   44MOL0     C 5847  -1.296  11.138   8.557  0.5705  0.7710 -0.7342
   44MOL0     C 5848  -1.419  11.038   8.550  0.5568  0.6782  0.4877
   44MOL0     C 5849  -1.543  11.102   8.512 -0.4204 -0.5083 -0.0537
   44MOL0    Cl 5850  -1.662  10.979   8.481 -0.2050  0.1801 -0.2044
   44MOL0     C 5851  -0.468  10.983   8.779  0.5138  0.6804  0.4808
   44MOL0     C 5852  -0.336  10.964   8.809  0.8269  1.0803  0.3393
   44MOL0     O 5853  -0.078  10.679   8.679  0.7183  0.1070  0.0819
   44MOL0     C 5854   0.101  10.616   8.876  0.0356 -0.4439  1.2113
   44MOL0     C 5855   0.205  10.590   8.964 -0.3480  0.7016  0.3408
   44MOL0     N 5856   0.715  10.697   9.580  0.0671  0.1314 -0.5944
   44MOL0     N 5857   0.800  10.646   9.664  0.4284  0.5840 -0.2471
   44MOL0     C 5858   2.123  10.773   9.799 -0.2027  0.5738 -0.2945
   44MOL0     C 5859   2.251  10.804   9.756  0.1434 -0.0447 -0.3986
   44MOL0     C 5860   2.678  10.868   9.654 -0.2579 -0.8042  1.0918
   44MOL0     C 5861   2.768  10.765   9.662 -1.2387 -0.4076  0.4138
   44MOL0     C 5862   2.882  10.771   9.589 -0.5284  0.3212 -0.2755
   44MOL0     C 5863   2.926  10.890   9.527 -0.1452  0.1285 -0.3196
   44MOL0     O 5864   3.049  10.878   9.467  0.6523  0.4607 -0.6220
   44MOL0     C 5865   3.078  10.984   9.371  0.0279  1.0160 -0.5547
   44MOL0     C 5866   3.157  11.098   9.445  0.1559  0.5344  0.2490
   44MOL0     C 5867   3.151  11.216   9.347  0.0529 -0.2036 -1.1088
   44MOL0     C 5868   3.221  11.343   9.396  0.1305 -0.0577  0.8697
   44MOL0     C 5869   3.237  11.431   9.283  1.1687 -0.1261  0.1464
   44MOL0     C 5870   3.262  11.508   9.194 -0.2610 -0.0797 -0.5135
   44MOL0     C 5871   2.829  10.998   9.529 -0.0741  0.4577 -0.0211
   44MOL0     C 5872   2.714  10.993   9.601  0.3309  0.5997  0.5470
   44MOL0     H 5873   2.413  10.521   9.835  0.4933  0.3031  0.4318
   44MOL0     H 5874   2.191  10.458   9.896  0.1333  0.3638 -0.1303
   44MOL0     H 5875   1.854  10.741   9.816  1.1019 -0.9459 -0.1969
   44MOL0     H 5876   1.915  10.652   9.680 -0.3916  1.4263 -0.3928
   44MOL0     H 5877   1.772  10.455   9.802  1.6619 -0.6076  3.8282
   44MOL0     H 5878   1.722  10.584   9.916 -1.5849 -2.2209 -0.5013
   44MOL0     H 5879   1.626  10.704   9.704  1.5702  0.1090  1.2074
   44MOL0     H 5880   1.643  10.546   9.617 -0.3099  0.1321 -0.2490
   44MOL0     H 5881   1.498  10.433   9.757  2.0854 -0.2547 -0.0598
   44MOL0     H 5882   1.479  10.561   9.871 -1.3317  0.8810 -0.2051
   44MOL0     H 5883   1.373  10.726   9.742 -1.2923 -1.2271  1.6589
   44MOL0     H 5884   1.421  10.622   9.596 -1.7658 -1.8864 -0.1435
   44MOL0     H 5885   1.259  10.455   9.680 -0.1257 -1.2118  2.5445
   44MOL0     H 5886   1.221  10.562   9.813 -0.4008  2.1206 -0.4054
   44MOL0     H 5887   1.129  10.711   9.637  0.5903  0.4019 -1.8535
   44MOL0     H 5888   1.190  10.597   9.514  0.1457  1.2506 -0.7453
   44MOL0     H 5889   1.009  10.504   9.745 -2.4601 -3.1597 -1.6245
   44MOL0     H 5890   1.036  10.425   9.585  1.8966  0.3358 -1.0831
   44MOL0     H 5891   0.963  10.604   9.380  2.5635 -1.7600  1.8219
   44MOL0     H 5892   0.667  10.839   9.359 -0.4808  0.1898  2.1077
   44MOL0     H 5893   0.813  10.785   9.275  0.6114 -0.3839  1.8143
   44MOL0     H 5894   0.541  10.640   9.302 -1.1862  1.8024 -1.8191
   44MOL0     H 5895   0.693  10.555   9.253  0.5795 -0.0361  1.4824
   44MOL0     H 5896   0.691  10.694   9.047  0.5106 -0.3927  0.8815
   44MOL0     H 5897   0.561  10.800   9.107  2.0243  0.8289 -0.9723
   44MOL0     H 5898   0.524  10.507   9.050  1.0348  0.4059 -2.0637
   44MOL0     H 5899   0.496  10.644   8.936 -3.4419  1.0500  0.6920
   44MOL0     H 5900   0.292  10.901   9.054  1.3100 -0.3675 -0.3332
   44MOL0     H 5901   0.174  11.067   8.973  2.2344 -1.6660  0.9108
   44MOL0     H 5902   0.130  11.021   8.804 -0.5090 -1.5696  0.1707
   44MOL0     H 5903   0.006  11.019   8.934  0.0518  0.3721  0.1491
   44MOL0     H 5904  -0.250  10.791   8.523  4.6138 -0.3045  2.5641
   44MOL0     H 5905  -0.486  10.809   8.491  0.9353 -0.0238 -0.6372
   44MOL0     H 5906  -0.582  11.158   8.554 -1.8862  2.0988 -0.1402
   44MOL0     H 5907  -0.643  11.038   8.442  0.5137 -2.5975  1.0872
   44MOL0     H 5908  -0.770  11.255   8.599  1.5816  2.1438 -3.1973
   44MOL0     H 5909  -0.803  11.197   8.431 -0.2681 -1.4689 -1.3592
   44MOL0     H 5910  -0.887  11.079   8.691 -1.8061  2.1056 -0.0565
   44MOL0     H 5911  -0.875  10.971   8.561 -2.5399 -1.4145  1.2791
   44MOL0     H 5912  -1.056  11.223   8.616  1.2182  0.1544  0.1624
   44MOL0     H 5913  -1.041  11.168   8.448 -0.4572 -0.5783 -0.3061
   44MOL0     H 5914  -1.167  11.042   8.702  0.0960  2.4564  0.4224
   44MOL0     H 5915  -1.161  10.950   8.552  1.1868  0.1677 -0.2406
   44MOL0     H 5916  -1.318  11.219   8.628 -3.5815 -1.9794  1.5986
   44MOL0     H 5917  -1.284  11.188   8.461  1.1424  0.5682 -0.7710
   44MOL0     H 5918  -1.432  10.998   8.651 -0.9323  2.8557  1.2527
   44MOL0     H 5919  -1.401  10.952   8.484 -1.5443 -1.0602  2.0536
   44MOL0     H 5920  -1.518  11.174   8.433  1.2105  0.1544  1.0147
   44MOL0     H 5921  -1.568  11.160   8.601  1.0250 -0.4878  0.3707
   44MOL0     H 5922  -0.534  11.028   8.853  0.1442 -0.1128  0.6473
   44MOL0     H 5923  -0.300  10.998   8.906 -1.2536  1.5011  1.0116
   44MOL0     H 5924   0.046  10.537   8.825 -2.0454  2.5200 -1.5686
   44MOL0     H 5925   0.246  10.492   8.989  0.4032  1.1472  0.9002
   44MOL0     H 5926   2.045  10.844   9.774  0.8098  0.4859 -4.3943
   44MOL0     H 5927   2.252  10.894   9.695 -2.7160 -0.4213 -1.1299
   44MOL0     H 5928   2.742  10.675   9.717  1.9466  0.7420  4.2587
   44MOL0     H 5929   2.940  10.681   9.570  2.6572  2.4063 -1.3165
   44MOL0     H 5930   3.151  10.942   9.301  1.5077  1.6772  0.5321
   44MOL0     H 5931   2.988  11.006   9.314  0.5657 -0.2184 -1.9495
   44MOL0     H 5932   3.261  11.069   9.459 -0.1724 -1.5877 -1.3240
   44MOL0     H 5933   3.107  11.109   9.542 -0.3979 -1.3736  0.2166
   44MOL0     H 5934   3.045  11.241   9.338  0.9383  4.7006 -0.5932
   44MOL0     H 5935   3.177  11.195   9.243 -1.7517 -0.6008 -1.5235
   44MOL0     H 5936   3.316  11.324   9.447  1.0224 -0.3224 -0.8493
   44MOL0     H 5937   3.154  11.400   9.461  0.7221  3.0050 -0.9905
   44MOL0     H 5938   3.274  11.587   9.122 -2.7778  2.8655  1.9835
   44MOL0     H 5939   2.851  11.098   9.494 -0.3777 -0.0285 -1.7186
   44MOL0     H 5940   2.646  11.077   9.611 -1.7246 -1.1013  1.8538
   45MOL0     O 5941   6.726   2.101   7.014  0.4845 -0.9909 -0.4438
   45MOL0     C 5942   6.746   2.214   6.975 -0.3079  0.1117 -0.3144
   45MOL0     O 5943   6.680   2.286   6.885  0.2854 -0.4584  0.2270
   45MOL0     C 5944   6.580   2.224   6.818  0.9048  0.0212  0.2696
   45MOL0     C 5945   6.592   2.216   6.678 -0.7994  0.2661  0.0977
   45MOL0     C 5946   6.492   2.153   6.606 -0.3505  0.0180 -0.4886
   45MOL0     C 5947   6.373   2.110   6.662  0.4900  0.1803 -0.4233
   45MOL0     O 5948   6.286   2.042   6.580 -0.1233 -0.0219 -0.0067
   45MOL0     C 5949   6.191   1.953   6.635 -0.6079 -0.4898 -0.6201
   45MOL0     C 5950   6.103   1.914   6.514 -0.8811 -0.4141 -0.9918
   45MOL0     C 5951   5.952   1.910   6.545  0.0879  0.2334 -1.0768
   45MOL0     C 5952   5.869   1.852   6.424 -0.0970  0.6587 -0.6122
   45MOL0     C 5953   5.724   1.842   6.458  0.0359 -0.3525 -0.0963
   45MOL0     C 5954   5.642   1.803   6.328 -0.6920 -0.0108 -0.8459
   45MOL0     C 5955   5.498   1.761   6.361  0.3186  0.0612 -0.0825
   45MOL0     C 5956   5.406   1.879   6.403 -0.2709  0.1379  0.2407
   45MOL0     N 5957   5.272   1.825   6.430 -0.1127  0.6114 -0.2576
   45MOL0     C 5958   5.192   1.790   6.326 -0.9031  0.1487  0.1839
   45MOL0     C 5959   5.093   1.709   6.385 -0.2641 -0.2756 -0.2052
   45MOL0     C 5960   4.979   1.654   6.305  0.2183  0.8230 -0.5279
   45MOL0     C 5961   4.835   1.690   6.345  0.2758  0.0393  0.2252
   45MOL0     C 5962   4.744   1.607   6.255 -0.2709 -1.1494 -0.4920
   45MOL0     C 5963   4.592   1.644   6.263  0.1673 -0.5266 -0.0293
   45MOL0     O 5964   4.561   1.735   6.159 -0.5063 -0.3967 -0.5470
   45MOL0     C 5965   4.437   1.805   6.154 -0.4849  0.5793 -0.6172
   45MOL0     C 5966   4.322   1.790   6.239 -0.5851 -0.3442  0.6768
   45MOL0     C 5967   4.205   1.855   6.220 -0.0474  0.7567  0.3367
   45MOL0     C 5968   4.105   1.840   6.315  1.6228  0.4417 -0.1490
   45MOL0     C 5969   4.189   1.940   6.101  0.6371  0.5026 -0.2530
   45MOL0     C 5970   4.062   2.029   6.088 -0.4741 -0.6565  0.8330
   45MOL0     O 5971   3.982   2.071   6.201 -0.0058  0.4486 -0.0057
   45MOL0     C 5972   3.868   2.145   6.179 -1.4493  0.1405  0.3322
   45MOL0     C 5973   3.782   2.144   6.067 -0.9297 -0.4549  0.1961
   45MOL0     C 5974   3.679   2.241   6.068  1.2746  0.4740  0.4771
   45MOL0     C 5975   3.665   2.335   6.169  0.7467 -0.2652  0.4153
   45MOL0     O 5976   3.573   2.442   6.160  0.1038  0.5264  0.6006
   45MOL0     C 5977   3.481   2.447   6.264  1.0347 -0.1579 -0.3823
   45MOL0     C 5978   3.377   2.552   6.219 -0.3124  0.3506  0.0775
   45MOL0     C 5979   3.280   2.495   6.120  0.0781  0.1549  0.4402
   45MOL0     C 5980   3.197   2.606   6.049  0.0123 -1.2393 -0.0447
   45MOL0     C 5981   3.078   2.658   6.136  0.1222  0.3044 -0.1391
   45MOL0     C 5982   3.013   2.793   6.093  0.4590  0.4080  0.0897
   45MOL0     C 5983   2.886   2.815   6.178 -1.1231 -0.2831 -0.0650
   45MOL0     C 5984   2.908   2.891   6.319  0.8043 -0.3926 -0.3233
   45MOL0    Cl 5985   2.957   3.052   6.288  0.4227  0.3084 -0.1805
   45MOL0     C 5986   3.751   2.331   6.276  0.0284  0.0280  0.8668
   45MOL0     C 5987   3.850   2.232   6.277  1.1523  0.0156 -0.3716
   45MOL0     O 5988   4.046   2.063   5.973  0.4284  0.0837  0.1120
   45MOL0     C 5989   4.292   1.938   6.010  0.5794  0.0357 -1.0298
   45MOL0     C 5990   4.414   1.878   6.038 -0.2270  0.2078  0.3855
   45MOL0     N 5991   5.133   1.693   6.518  0.6851  0.2890 -0.6280
   45MOL0     N 5992   5.240   1.764   6.549 -0.5357  0.1147  0.6328
   45MOL0     C 5993   6.359   2.131   6.798  0.0073 -0.2515 -0.2131
   45MOL0     C 5994   6.456   2.185   6.883 -0.1066 -0.2715 -0.0821
   45MOL0     C 5995   6.875   2.281   7.013  0.3358 -0.2651  0.4309
   45MOL0     C 5996   6.962   2.218   7.102  0.7192  0.2806  0.5870
   45MOL0     C 5997   7.090   2.268   7.125 -0.4352 -0.0245 -0.4228
   45MOL0     C 5998   7.129   2.386   7.066  0.5047  0.2863  0.6049
   45MOL0     O 5999   7.260   2.432   7.096  0.3606  0.0308 -0.4285
   45MOL0     C 6000   7.306   2.547   7.028  0.3112 -0.3339 -0.8966
   45MOL0     C 6001   7.452   2.564   7.056  0.8177  0.2118  0.4273
   45MOL0     C 6002   7.498   2.696   7.003 -0.1573  0.2231  0.8901
   45MOL0     C 6003   7.653   2.694   6.981  0.0745  0.3574 -0.7361
   45MOL0     C 6004   7.710   2.818   6.933  1.3605  0.5678 -0.8551
   45MOL0     C 6005   7.753   2.928   6.895 -0.1000  0.0685 -0.6213
   45MOL0     C 6006   7.042   2.450   6.985 -0.4455 -0.6791  0.1469
   45MOL0     C 6007   6.924   2.395   6.953 -0.6511  0.1966  1.1995
   45MOL0     H 6008   6.691   2.247   6.644  0.6300 -2.9989  0.8601
   45MOL0     H 6009   6.508   2.129   6.502  2.4150 -1.1089  0.0998
   45MOL0     H 6010   6.242   1.866   6.676 -0.0036 -0.3601 -1.0970
   45MOL0     H 6011   6.130   2.008   6.708 -0.4378 -2.6556  1.2753
   45MOL0     H 6012   6.107   1.991   6.436 -0.7173  1.0197  0.3904
   45MOL0     H 6013   6.147   1.819   6.482  1.1835  0.7086 -1.6860
   45MOL0     H 6014   5.930   1.852   6.635  0.1859  0.0843 -1.1472
   45MOL0     H 6015   5.914   2.009   6.570 -2.0222 -0.1995 -2.3279
   45MOL0     H 6016   5.878   1.918   6.337  0.4562  0.0336 -1.0320
   45MOL0     H 6017   5.895   1.748   6.405 -2.1164 -0.3939  1.8754
   45MOL0     H 6018   5.708   1.767   6.536 -0.9966 -0.9623 -0.8764
   45MOL0     H 6019   5.687   1.939   6.492  1.6733  0.2681  0.0445
   45MOL0     H 6020   5.655   1.874   6.246  2.1974 -0.1167 -0.5558
   45MOL0     H 6021   5.688   1.710   6.295 -0.8792 -0.6216  0.5505
   45MOL0     H 6022   5.446   1.714   6.277  3.7517  1.5990 -3.3782
   45MOL0     H 6023   5.501   1.682   6.436 -1.4820 -0.5060 -0.5690
   45MOL0     H 6024   5.402   1.956   6.326  2.6531 -1.1832 -1.3675
   45MOL0     H 6025   5.440   1.912   6.502 -2.1220 -2.6876  1.9786
   45MOL0     H 6026   5.211   1.814   6.222  0.6848 -3.3676 -0.4962
   45MOL0     H 6027   4.984   1.689   6.202  1.3321  2.0645 -0.0954
   45MOL0     H 6028   4.993   1.546   6.311  4.6256  1.2544  0.4436
   45MOL0     H 6029   4.809   1.797   6.341 -0.8477 -0.2484 -2.6457
   45MOL0     H 6030   4.817   1.670   6.451  0.3895  0.3763  0.3104
   45MOL0     H 6031   4.758   1.503   6.284 -0.4858 -0.9197  0.4758
   45MOL0     H 6032   4.773   1.634   6.153 -0.7740  3.4984  0.3604
   45MOL0     H 6033   4.567   1.692   6.358 -1.0865  1.0029 -1.0661
   45MOL0     H 6034   4.544   1.547   6.247  1.8732 -1.0849 -2.3603
   45MOL0     H 6035   4.329   1.727   6.327 -0.9026 -0.9887  0.2445
   45MOL0     H 6036   4.012   1.802   6.271 -0.1824  1.6982  2.3439
   45MOL0     H 6037   4.125   1.761   6.389  0.4421  1.4451  1.2919
   45MOL0     H 6038   4.083   1.931   6.371  0.6459 -0.1294  0.4353
   45MOL0     H 6039   3.798   2.090   5.974 -2.1799 -1.7587  0.7253
   45MOL0     H 6040   3.623   2.251   5.976  2.9440  2.9008 -0.3923
   45MOL0     H 6041   3.448   2.344   6.276  0.0819  0.2428  0.5384
   45MOL0     H 6042   3.526   2.482   6.358  1.3636  0.5523 -0.7922
   45MOL0     H 6043   3.316   2.586   6.303  1.6741 -0.1480  1.8047
   45MOL0     H 6044   3.425   2.635   6.167 -0.7685 -1.3929 -3.4795
   45MOL0     H 6045   3.217   2.416   6.162 -0.4521  0.1220 -0.3996
   45MOL0     H 6046   3.339   2.453   6.038  0.8794  0.2412  0.9643
   45MOL0     H 6047   3.263   2.685   6.013  2.5441 -1.7988  2.9347
   45MOL0     H 6048   3.153   2.573   5.954 -3.6366 -0.8934  1.3750
   45MOL0     H 6049   3.119   2.681   6.235  0.9129 -0.3101 -0.3114
   45MOL0     H 6050   2.999   2.583   6.140 -0.5520  1.0553  1.3971
   45MOL0     H 6051   3.071   2.884   6.113 -2.4340  2.5711 -0.6814
   45MOL0     H 6052   2.992   2.785   5.986  1.0736  3.3163 -0.3426
   45MOL0     H 6053   2.826   2.725   6.196 -1.2580 -0.4067 -1.0265
   45MOL0     H 6054   2.823   2.885   6.122 -2.6775  1.1218  3.2033
   45MOL0     H 6055   2.966   2.833   6.390 -0.8436 -0.8247  0.7345
   45MOL0     H 6056   2.808   2.884   6.364 -1.0755 -0.4115 -4.1108
   45MOL0     H 6057   3.757   2.408   6.353 -2.7892  1.4737 -0.2497
   45MOL0     H 6058   3.922   2.237   6.359 -0.4340  1.2026  1.0329
   45MOL0     H 6059   4.282   1.999   5.922  0.8237  0.4799 -0.7527
   45MOL0     H 6060   4.488   1.882   5.959 -0.0354  3.2080  0.5672
   45MOL0     H 6061   6.263   2.106   6.843 -0.5594 -1.6913 -2.0695
   45MOL0     H 6062   6.439   2.183   6.990  0.8284 -2.5404  0.0837
   45MOL0     H 6063   6.935   2.122   7.146  3.0749 -0.3982  0.6485
   45MOL0     H 6064   7.152   2.208   7.191 -0.4187 -0.7749 -1.0988
   45MOL0     H 6065   7.291   2.524   6.922 -0.8968 -2.2652 -0.3547
   45MOL0     H 6066   7.238   2.628   7.054  0.3737 -1.1055  1.9767
   45MOL0     H 6067   7.501   2.480   7.007 -1.2769 -1.0740  0.4071
   45MOL0     H 6068   7.467   2.561   7.164 -1.6371  1.3890  0.8717
   45MOL0     H 6069   7.463   2.773   7.072 -1.7689 -1.8895  2.5681
   45MOL0     H 6070   7.441   2.704   6.910  1.8034  0.6389 -0.3504
   45MOL0     H 6071   7.670   2.620   6.903  2.3629  0.5331 -0.4498
   45MOL0     H 6072   7.704   2.668   7.074 -2.6307  1.5981  1.2571
   45MOL0     H 6073   7.796   3.024   6.876 -0.5754 -0.0145 -2.1918
   45MOL0     H 6074   7.064   2.549   6.945  2.2659 -0.8057  1.1290
   45MOL0     H 6075   6.866   2.454   6.883  1.2477  2.4160  1.3997
   46MOL0     O 6076   2.750   6.381   0.035 -0.3545  0.5912 -0.9340
   46MOL0     C 6077   2.725   6.454   0.131  0.7310  0.4336 -0.2271
   46MOL0     O 6078   2.632   6.553   0.135  0.6573 -0.4748 -0.0291
   46MOL0     C 6079   2.536   6.560   0.037  0.1091 -0.7427  0.6178
   46MOL0     C 6080   2.495   6.689  -0.007 -0.2505  0.0157  0.1577
   46MOL0     C 6081   2.383   6.699  -0.095 -0.4548  0.4813  0.0371
   46MOL0     C 6082   2.307   6.588  -0.126 -0.2624  0.3347 -0.3835
   46MOL0     O 6083   2.200   6.581  -0.218 -0.3671  0.5545 -1.1062
   46MOL0     C 6084   2.105   6.683  -0.198  0.3096 -0.1668 -0.7097
   46MOL0     C 6085   1.969   6.624  -0.231 -0.4289  0.0432 -0.2495
   46MOL0     C 6086   1.858   6.719  -0.219  1.3627  0.4422  0.4722
   46MOL0     C 6087   1.870   6.827  -0.330  1.0202  0.0188  0.0245
   46MOL0     C 6088   1.734   6.903  -0.363 -0.0569  0.1711  0.1562
   46MOL0     C 6089   1.618   6.817  -0.411  0.3546  0.3312 -0.4655
   46MOL0     C 6090   1.518   6.893  -0.490  0.4673  0.8320  0.1766
   46MOL0     C 6091   1.429   6.805  -0.585  0.2134 -0.5520 -0.6737
   46MOL0     N 6092   1.333   6.891  -0.658 -0.4154  0.0684  0.0367
   46MOL0     C 6093   1.231   6.959  -0.609  1.4976 -0.0802  0.4732
   46MOL0     C 6094   1.144   6.971  -0.721  0.0742 -0.0312  0.7409
   46MOL0     C 6095   1.007   7.036  -0.727  0.7664  0.9055 -0.5706
   46MOL0     C 6096   0.904   6.928  -0.685  0.1219 -0.0500 -0.3945
   46MOL0     C 6097   0.903   6.808  -0.778  0.2251 -0.1769  0.4109
   46MOL0     C 6098   0.875   6.852  -0.920 -0.7648  0.0965 -0.3995
   46MOL0     O 6099   0.869   6.733  -0.995  0.0931 -0.7306  0.5993
   46MOL0     C 6100   0.753   6.712  -1.066  0.4117  0.1676  0.1793
   46MOL0     C 6101   0.632   6.702  -1.004 -0.2694 -0.0686 -0.2366
   46MOL0     C 6102   0.520   6.648  -1.072  0.3433 -1.1560 -0.3581
   46MOL0     C 6103   0.386   6.636  -0.994  0.0406  0.2670 -1.4102
   46MOL0     C 6104   0.528   6.616  -1.207 -0.4536  0.3485  0.0258
   46MOL0     C 6105   0.413   6.580  -1.290  0.2101 -0.5298  0.1911
   46MOL0     O 6106   0.411   6.646  -1.411 -0.0072  0.8833 -0.1819
   46MOL0     C 6107   0.313   6.610  -1.502  0.3514  0.8781  0.0930
   46MOL0     C 6108   0.311   6.481  -1.553  0.9351 -0.3605  0.1460
   46MOL0     C 6109   0.215   6.438  -1.644 -0.0491 -0.2486  0.2621
   46MOL0     C 6110   0.111   6.529  -1.687 -0.0441  0.3789 -0.1425
   46MOL0     O 6111   0.012   6.506  -1.778 -0.1584  0.0962 -0.2755
   46MOL0     C 6112   0.048   6.398  -1.869  0.1661 -1.3245 -0.4627
   46MOL0     C 6113  -0.079   6.375  -1.946 -0.1227 -0.1783 -0.5453
   46MOL0     C 6114  -0.054   6.282  -2.067 -0.3951 -0.4062 -0.1847
   46MOL0     C 6115   0.017   6.151  -2.041 -0.0538  0.0519  0.0039
   46MOL0     C 6116   0.021   6.063  -2.168 -0.0984  0.4386  0.4605
   46MOL0     C 6117  -0.107   5.972  -2.171  0.4522  0.9244  0.1162
   46MOL0     C 6118  -0.146   5.932  -2.311  0.2115  0.6295  0.0774
   46MOL0     C 6119  -0.241   5.813  -2.303 -0.2013 -0.8053 -0.7010
   46MOL0    Cl 6120  -0.265   5.738  -2.468  0.0183  0.4966 -0.7245
   46MOL0     C 6121   0.110   6.657  -1.624 -0.4635  0.3610  0.7662
   46MOL0     C 6122   0.215   6.698  -1.542  0.4465 -0.2438 -0.1655
   46MOL0     O 6123   0.333   6.495  -1.245  0.1343  0.0755  0.3504
   46MOL0     C 6124   0.651   6.638  -1.277  0.2763 -0.6765 -1.2904
   46MOL0     C 6125   0.760   6.682  -1.199 -0.8101 -0.2870 -0.1800
   46MOL0     N 6126   1.206   6.922  -0.829 -0.2687  1.0084  0.9417
   46MOL0     N 6127   1.322   6.891  -0.796  0.0110 -0.0690  0.1453
   46MOL0     C 6128   2.341   6.465  -0.070 -0.8872  0.6177 -0.0936
   46MOL0     C 6129   2.458   6.451   0.008  0.4202  0.4350 -0.0052
   46MOL0     C 6130   2.838   6.461   0.230  1.1556 -0.0100 -0.3770
   46MOL0     C 6131   2.928   6.354   0.234 -0.8044  0.5354  0.6282
   46MOL0     C 6132   3.035   6.355   0.311 -0.6559  0.3919 -0.8429
   46MOL0     C 6133   3.057   6.451   0.414 -0.2540 -0.3700  0.3292
   46MOL0     O 6134   3.165   6.453   0.501 -0.2564 -0.0048 -0.5668
   46MOL0     C 6135   3.235   6.332   0.531  0.2872  0.6199  0.4890
   46MOL0     C 6136   3.307   6.328   0.664  0.4303 -0.9933 -0.6485
   46MOL0     C 6137   3.417   6.437   0.657 -0.1781 -0.0672 -0.1610
   46MOL0     C 6138   3.496   6.416   0.793  0.6593 -0.1733  1.3830
   46MOL0     C 6139   3.591   6.526   0.816  0.2872  0.2010 -0.2562
   46MOL0     C 6140   3.663   6.619   0.835 -0.4967 -0.6099  0.0089
   46MOL0     C 6141   2.964   6.555   0.421 -0.1632 -0.7705  0.4392
   46MOL0     C 6142   2.857   6.563   0.322  0.1008 -0.7546 -0.4555
   46MOL0     H 6143   2.558   6.768   0.034 -0.5286  0.8290 -0.9286
   46MOL0     H 6144   2.367   6.793  -0.147  0.3024 -0.8122 -2.7162
   46MOL0     H 6145   2.105   6.718  -0.094 -2.8441 -0.1235 -0.6518
   46MOL0     H 6146   2.128   6.772  -0.257 -0.1624  1.9059  2.0321
   46MOL0     H 6147   1.968   6.573  -0.328  1.9282  0.1197 -0.3653
   46MOL0     H 6148   1.956   6.537  -0.166  0.8441 -0.7528 -1.0086
   46MOL0     H 6149   1.766   6.660  -0.229  2.1637 -0.9712  1.1429
   46MOL0     H 6150   1.843   6.763  -0.120 -4.2555  0.1277  0.0830
   46MOL0     H 6151   1.951   6.892  -0.297  1.9940 -1.9055  1.6363
   46MOL0     H 6152   1.915   6.783  -0.419 -0.1851  1.4206 -1.3384
   46MOL0     H 6153   1.703   6.951  -0.270  1.7472 -0.2531  1.0116
   46MOL0     H 6154   1.765   6.974  -0.439 -1.3317 -1.3835 -1.9266
   46MOL0     H 6155   1.663   6.735  -0.468  0.7489 -0.5742  1.0815
   46MOL0     H 6156   1.558   6.759  -0.339 -1.1473 -1.8722 -3.3063
   46MOL0     H 6157   1.455   6.953  -0.424 -1.5202 -0.8794 -0.0809
   46MOL0     H 6158   1.575   6.965  -0.550 -0.2846  2.1516  1.0199
   46MOL0     H 6159   1.368   6.738  -0.523  0.4427  1.2122  1.6229
   46MOL0     H 6160   1.495   6.756  -0.657  1.9453  2.1858 -1.0838
   46MOL0     H 6161   1.204   6.978  -0.506  2.8983 -0.0857  0.8591
   46MOL0     H 6162   0.992   7.127  -0.669 -2.3776  1.5768 -2.2622
   46MOL0     H 6163   0.984   7.072  -0.827  2.1013 -2.8059 -2.3953
   46MOL0     H 6164   0.808   6.979  -0.678 -0.0956 -0.7095  2.6091
   46MOL0     H 6165   0.930   6.900  -0.582 -1.2269  1.2088  0.3284
   46MOL0     H 6166   0.811   6.753  -0.754 -1.1319  1.7682  0.0040
   46MOL0     H 6167   0.993   6.749  -0.765  0.6569  0.4392  0.2647
   46MOL0     H 6168   0.956   6.911  -0.963 -0.1030 -0.9701 -0.6394
   46MOL0     H 6169   0.782   6.908  -0.932  0.0146  1.6797  0.6619
   46MOL0     H 6170   0.622   6.710  -0.896  3.4878  1.4410  0.1440
   46MOL0     H 6171   0.301   6.666  -1.056 -1.3709  2.6259  1.4586
   46MOL0     H 6172   0.383   6.536  -0.951 -2.0339 -0.1822 -2.4596
   46MOL0     H 6173   0.391   6.709  -0.913  0.8025 -2.9888  1.6805
   46MOL0     H 6174   0.393   6.414  -1.528  0.2082 -0.6394  1.8915
   46MOL0     H 6175   0.229   6.345  -1.698 -1.6134  0.6931 -1.9051
   46MOL0     H 6176   0.130   6.425  -1.937 -0.7229  2.1059 -0.3443
   46MOL0     H 6177   0.063   6.308  -1.808 -0.6713 -0.9877  0.2461
   46MOL0     H 6178  -0.158   6.337  -1.881 -0.9006  1.3144 -0.5650
   46MOL0     H 6179  -0.118   6.473  -1.975  0.2802  0.5790  1.3284
   46MOL0     H 6180  -0.005   6.341  -2.144  0.1010 -2.3945 -1.4759
   46MOL0     H 6181  -0.151   6.268  -2.116 -1.5069  1.6624  1.2516
   46MOL0     H 6182   0.119   6.179  -2.012  1.0646 -2.8074 -0.7887
   46MOL0     H 6183  -0.029   6.088  -1.964 -0.5411 -3.3989 -2.8314
   46MOL0     H 6184   0.102   5.990  -2.164  0.0455  0.5989  0.4338
   46MOL0     H 6185   0.038   6.122  -2.258  2.9724 -1.2686 -0.2027
   46MOL0     H 6186  -0.094   5.887  -2.103  1.6412  0.1576 -1.0209
   46MOL0     H 6187  -0.187   6.031  -2.125 -0.3584  0.1320 -0.2428
   46MOL0     H 6188  -0.060   5.883  -2.358 -2.5525 -2.4979 -2.2843
   46MOL0     H 6189  -0.183   6.018  -2.368 -2.2406 -0.5073 -0.1848
   46MOL0     H 6190  -0.340   5.843  -2.266  0.7911 -1.7546  3.1495
   46MOL0     H 6191  -0.205   5.748  -2.222  0.1073  1.9977  1.5830
   46MOL0     H 6192   0.037   6.728  -1.661  1.7038  1.7227 -1.2410
   46MOL0     H 6193   0.218   6.799  -1.504  0.6598  0.2493 -1.4245
   46MOL0     H 6194   0.663   6.615  -1.382 -0.0553 -1.5851 -1.1447
   46MOL0     H 6195   0.859   6.679  -1.242 -0.2547 -0.7723  1.0812
   46MOL0     H 6196   2.279   6.376  -0.079 -1.3065  1.0357 -1.4876
   46MOL0     H 6197   2.475   6.354   0.053 -1.5867 -0.8753 -1.8944
   46MOL0     H 6198   2.922   6.269   0.167  4.2567  0.3351  0.0634
   46MOL0     H 6199   3.096   6.266   0.296 -1.5937 -0.5718  0.7556
   46MOL0     H 6200   3.165   6.248   0.521  0.7978  0.3910 -1.8181
   46MOL0     H 6201   3.305   6.313   0.449  0.7462  1.7613  0.5985
   46MOL0     H 6202   3.351   6.230   0.688  4.0673 -0.1716 -3.1322
   46MOL0     H 6203   3.239   6.363   0.741  2.6518  0.8957  0.6027
   46MOL0     H 6204   3.366   6.533   0.646  1.2915  0.5295 -2.3420
   46MOL0     H 6205   3.486   6.425   0.573  1.3662  0.6031  0.9639
   46MOL0     H 6206   3.550   6.323   0.813 -0.4832 -1.2028 -0.0540
   46MOL0     H 6207   3.418   6.432   0.868 -3.2676 -0.3605 -2.2675
   46MOL0     H 6208   3.741   6.692   0.846  0.5947 -1.6997 -0.1542
   46MOL0     H 6209   2.987   6.626   0.501  2.5128  0.5393 -1.3423
   46MOL0     H 6210   2.788   6.647   0.323 -1.0747 -1.4801  4.7794
   47MOL0     O 6211   1.919   2.953   1.659 -0.0321 -0.2221  0.1422
   47MOL0     C 6212   2.020   2.891   1.617  0.0667 -0.9683  0.1338
   47MOL0     O 6213   2.030   2.761   1.604  0.4164 -0.2311 -0.3596
   47MOL0     C 6214   1.925   2.694   1.651  0.9443  0.1454  0.5516
   47MOL0     C 6215   1.922   2.664   1.790  0.4327 -0.3413  0.5914
   47MOL0     C 6216   1.814   2.613   1.851 -0.3450  0.1985 -0.2096
   47MOL0     C 6217   1.697   2.578   1.770 -0.2181  0.1375 -0.2716
   47MOL0     O 6218   1.596   2.525   1.837  0.3286 -0.5333  0.2770
   47MOL0     C 6219   1.470   2.589   1.810 -0.1474 -0.9584 -0.2428
   47MOL0     C 6220   1.346   2.513   1.865 -0.5057  0.1315 -0.2020
   47MOL0     C 6221   1.226   2.591   1.820  0.4445 -0.0102 -0.0986
   47MOL0     C 6222   1.087   2.530   1.850  0.1297  0.5687 -0.3487
   47MOL0     C 6223   1.033   2.570   1.989 -0.0174 -0.5411 -1.1898
   47MOL0     C 6224   0.896   2.509   2.012  0.9178 -0.3078 -0.5717
   47MOL0     C 6225   0.837   2.516   2.156 -0.3042 -0.1490  0.0321
   47MOL0     C 6226   0.820   2.665   2.195 -0.1242 -0.7544  0.5067
   47MOL0     N 6227   0.760   2.677   2.330 -0.3367 -0.1760 -0.2552
   47MOL0     C 6228   0.626   2.661   2.367 -0.4111 -1.2744  1.0811
   47MOL0     C 6229   0.617   2.684   2.497  0.2187  0.2588 -1.1522
   47MOL0     C 6230   0.494   2.663   2.574  0.1395 -0.0916 -0.0611
   47MOL0     C 6231   0.440   2.522   2.557 -1.0495 -0.6636  0.1204
   47MOL0     C 6232   0.327   2.496   2.658 -0.5606 -0.5489 -0.0899
   47MOL0     C 6233   0.204   2.586   2.632 -0.2577 -0.6417  0.0977
   47MOL0     O 6234   0.080   2.529   2.690 -0.0088 -0.6603  0.0208
   47MOL0     C 6235  -0.028   2.615   2.683  0.8665 -0.2587 -0.4129
   47MOL0     C 6236  -0.035   2.745   2.631 -0.6517 -0.7667 -0.8316
   47MOL0     C 6237  -0.159   2.814   2.619  0.0231 -0.2549  0.1430
   47MOL0     C 6238  -0.151   2.959   2.575  0.2552 -0.5505 -0.1470
   47MOL0     C 6239  -0.278   2.746   2.665 -0.5261  0.5121  0.4494
   47MOL0     C 6240  -0.408   2.810   2.647  0.3632 -0.1718  0.3257
   47MOL0     O 6241  -0.505   2.724   2.676  0.3110  0.2407 -0.4707
   47MOL0     C 6242  -0.630   2.753   2.636 -0.8116 -0.0278  0.7127
   47MOL0     C 6243  -0.701   2.860   2.684 -0.8592  0.3913  1.2859
   47MOL0     C 6244  -0.822   2.895   2.628  0.1950  0.0473 -0.2985
   47MOL0     C 6245  -0.889   2.818   2.526 -0.4617 -0.6810  0.1584
   47MOL0     O 6246  -1.013   2.865   2.475 -0.5359  0.6680 -0.1981
   47MOL0     C 6247  -1.117   2.761   2.463  0.4479 -0.4643 -0.7287
   47MOL0     C 6248  -1.202   2.773   2.338  0.1533  0.1240 -0.8997
   47MOL0     C 6249  -1.334   2.692   2.352  0.4062  1.0414 -0.5002
   47MOL0     C 6250  -1.431   2.712   2.240 -0.1053  0.0754  0.3761
   47MOL0     C 6251  -1.553   2.796   2.273  0.6146 -0.1951 -0.1141
   47MOL0     C 6252  -1.524   2.939   2.303  0.1739  0.7205 -0.0813
   47MOL0     C 6253  -1.650   3.018   2.332 -0.6544  0.6166  0.1890
   47MOL0     C 6254  -1.744   2.984   2.446 -0.3426 -0.3774 -0.3303
   47MOL0    Cl 6255  -1.868   3.113   2.444  0.3780  0.2084  0.0513
   47MOL0     C 6256  -0.817   2.710   2.477  0.5708  1.0597 -0.5073
   47MOL0     C 6257  -0.684   2.682   2.522  0.1750 -0.0224  0.3898
   47MOL0     O 6258  -0.423   2.916   2.586  0.1395 -0.4957 -0.5296
   47MOL0     C 6259  -0.272   2.617   2.717  0.0058  0.6679  0.4429
   47MOL0     C 6260  -0.149   2.555   2.732 -0.4886 -0.4394  0.6101
   47MOL0     N 6261   0.746   2.716   2.539  0.2695 -0.8386 -0.5264
   47MOL0     N 6262   0.831   2.718   2.442  0.2054 -0.1762 -0.1247
   47MOL0     C 6263   1.705   2.592   1.634 -0.4285 -0.5572  0.2325
   47MOL0     C 6264   1.818   2.642   1.568 -0.6299 -0.4479 -0.3581
   47MOL0     C 6265   2.134   2.970   1.571 -0.1075  0.3281 -0.7991
   47MOL0     C 6266   2.256   2.907   1.552 -0.8002 -0.0444 -0.8572
   47MOL0     C 6267   2.372   2.977   1.513  0.7714  0.2872  0.8087
   47MOL0     C 6268   2.364   3.111   1.484  0.3356 -0.5008  0.0567
   47MOL0     O 6269   2.483   3.175   1.451  0.9138  0.7126  0.6026
   47MOL0     C 6270   2.513   3.288   1.521 -0.4357 -0.5344 -0.2443
   47MOL0     C 6271   2.638   3.354   1.469 -0.3777  0.0827  0.2852
   47MOL0     C 6272   2.775   3.278   1.494 -0.4310 -0.6733 -0.2836
   47MOL0     C 6273   2.894   3.349   1.431 -1.2912  0.0277  0.3027
   47MOL0     C 6274   3.008   3.269   1.463 -0.7242  0.1224  0.5597
   47MOL0     C 6275   3.112   3.215   1.478 -0.1450  0.2126 -0.8012
   47MOL0     C 6276   2.240   3.174   1.495 -0.1713  0.2661  0.0291
   47MOL0     C 6277   2.128   3.108   1.540  0.1035  0.0233  0.8751
   47MOL0     H 6278   2.020   2.683   1.833  0.6213  1.5386 -0.5281
   47MOL0     H 6279   1.810   2.605   1.959 -0.0396 -1.6922 -0.2900
   47MOL0     H 6280   1.474   2.688   1.857 -3.0411 -0.0758 -1.5696
   47MOL0     H 6281   1.456   2.603   1.703  0.6231 -1.7174 -0.4460
   47MOL0     H 6282   1.343   2.415   1.816 -2.6614 -0.2627  0.6138
   47MOL0     H 6283   1.347   2.495   1.972 -1.0801 -0.2861 -0.2640
   47MOL0     H 6284   1.224   2.691   1.864  2.8124 -0.6428  1.6563
   47MOL0     H 6285   1.242   2.592   1.712  2.2569 -0.8590  0.1190
   47MOL0     H 6286   1.025   2.566   1.767 -2.1852  2.2694  1.9773
   47MOL0     H 6287   1.089   2.421   1.842 -1.6652  0.4766  0.1140
   47MOL0     H 6288   1.100   2.517   2.057 -1.7772 -2.1813 -0.6562
   47MOL0     H 6289   1.033   2.677   2.015 -0.0065 -0.2406 -2.3742
   47MOL0     H 6290   0.816   2.558   1.955  0.2701 -1.3371 -0.5669
   47MOL0     H 6291   0.896   2.409   1.968  4.8947  0.2060 -2.2195
   47MOL0     H 6292   0.738   2.470   2.149 -1.2052  1.7151 -0.1000
   47MOL0     H 6293   0.903   2.458   2.221  1.7728  0.9240 -1.0184
   47MOL0     H 6294   0.758   2.719   2.123  0.0298 -0.8599  0.2963
   47MOL0     H 6295   0.916   2.718   2.203  0.0285 -1.2099  1.8639
   47MOL0     H 6296   0.546   2.648   2.294  0.4593  0.7598 -0.3034
   47MOL0     H 6297   0.502   2.698   2.678 -2.0033 -2.7507  1.1268
   47MOL0     H 6298   0.419   2.733   2.536 -0.1903  1.5816  3.2472
   47MOL0     H 6299   0.525   2.454   2.570 -1.1383 -0.9568 -0.8002
   47MOL0     H 6300   0.400   2.507   2.456 -2.8027 -0.7940  0.8099
   47MOL0     H 6301   0.362   2.503   2.761  1.5642 -1.7144 -0.6732
   47MOL0     H 6302   0.294   2.392   2.653 -1.8934 -0.3688  2.8224
   47MOL0     H 6303   0.185   2.596   2.525 -1.3536  0.9485  0.4177
   47MOL0     H 6304   0.226   2.686   2.670 -1.2512 -0.7697  1.0575
   47MOL0     H 6305   0.052   2.801   2.601  0.9556 -1.8638  1.4722
   47MOL0     H 6306  -0.181   3.029   2.653 -2.3381 -3.0818  1.3410
   47MOL0     H 6307  -0.049   2.989   2.550  1.3306 -2.3392  1.8051
   47MOL0     H 6308  -0.218   2.970   2.489 -2.2965 -0.6376  1.7001
   47MOL0     H 6309  -0.664   2.921   2.766  2.3599  1.8249 -1.0414
   47MOL0     H 6310  -0.884   2.983   2.642 -0.7228 -0.4559 -1.0223
   47MOL0     H 6311  -1.086   2.656   2.464 -0.5233 -0.7707 -1.2250
   47MOL0     H 6312  -1.181   2.775   2.550 -1.3310  0.6621 -2.1576
   47MOL0     H 6313  -1.236   2.877   2.334  0.1598  0.3325  1.8765
   47MOL0     H 6314  -1.140   2.757   2.250  0.4736  3.8308 -1.5095
   47MOL0     H 6315  -1.388   2.724   2.442 -0.6420  0.1539 -0.7862
   47MOL0     H 6316  -1.302   2.588   2.351  0.8350  1.1786 -1.2573
   47MOL0     H 6317  -1.379   2.754   2.154 -3.2066 -0.7403 -2.0966
   47MOL0     H 6318  -1.469   2.613   2.212  0.0423  0.4179 -1.1110
   47MOL0     H 6319  -1.594   2.748   2.363 -1.5855 -0.5615 -1.2472
   47MOL0     H 6320  -1.630   2.782   2.197  0.9064 -4.6033  0.1242
   47MOL0     H 6321  -1.464   2.938   2.394 -0.4626 -0.3676  0.3449
   47MOL0     H 6322  -1.467   2.991   2.225 -3.5502  0.9549 -2.9499
   47MOL0     H 6323  -1.709   3.020   2.240 -0.6911  0.0561  0.1947
   47MOL0     H 6324  -1.612   3.120   2.344 -0.1777  0.4057  0.4854
   47MOL0     H 6325  -1.691   2.970   2.541 -2.2689  1.7533  1.1670
   47MOL0     H 6326  -1.782   2.884   2.427 -0.6173 -0.0815 -1.3764
   47MOL0     H 6327  -0.866   2.651   2.400 -0.1608  2.1434 -0.8931
   47MOL0     H 6328  -0.623   2.599   2.488 -0.8501 -0.4786 -0.3806
   47MOL0     H 6329  -0.359   2.557   2.742 -0.2133  0.7428 -0.1343
   47MOL0     H 6330  -0.150   2.452   2.765  1.0601 -1.5803 -2.4758
   47MOL0     H 6331   1.624   2.573   1.565 -0.3147 -0.6389  0.1223
   47MOL0     H 6332   1.826   2.650   1.460  2.9294 -0.7501 -0.2368
   47MOL0     H 6333   2.273   2.803   1.576  0.0318  0.6120  1.6960
   47MOL0     H 6334   2.463   2.919   1.502  0.1333 -0.9456  1.7623
   47MOL0     H 6335   2.432   3.359   1.506  0.8887  0.6517 -2.2964
   47MOL0     H 6336   2.514   3.272   1.629 -3.3661  1.8717  0.2519
   47MOL0     H 6337   2.644   3.451   1.519 -2.9036 -1.5528  4.2709
   47MOL0     H 6338   2.615   3.376   1.364  1.5655  0.9598  0.0029
   47MOL0     H 6339   2.770   3.184   1.438 -0.7008  1.0640 -3.3959
   47MOL0     H 6340   2.797   3.264   1.600  0.8193  1.7746 -0.1395
   47MOL0     H 6341   2.917   3.440   1.487  0.9155 -0.7391  0.7478
   47MOL0     H 6342   2.888   3.370   1.323 -1.0928  0.6149  0.4048
   47MOL0     H 6343   3.207   3.172   1.501  0.1584  0.5246 -1.4643
   47MOL0     H 6344   2.250   3.280   1.473 -0.9599  0.0370 -1.5498
   47MOL0     H 6345   2.034   3.159   1.553  0.8691  1.6847  0.1872
   48MOL0     O 6346   6.501   2.585   8.398  0.3458  0.0874 -0.1894
   48MOL0     C 6347   6.511   2.623   8.277  0.2016  1.4900 -1.0849
   48MOL0     O 6348   6.635   2.646   8.206  0.0405 -0.2844 -0.2760
   48MOL0     C 6349   6.745   2.623   8.282 -0.0010 -0.6071  0.2806
   48MOL0     C 6350   6.766   2.694   8.400  0.1241 -0.3698 -0.6789
   48MOL0     C 6351   6.890   2.680   8.476  0.6721  0.1430  0.0414
   48MOL0     C 6352   6.994   2.599   8.426 -0.1648  0.6639 -0.1421
   48MOL0     O 6353   7.118   2.582   8.478 -0.3260  0.8610 -0.9612
   48MOL0     C 6354   7.151   2.601   8.615  1.0660  0.5038 -0.4343
   48MOL0     C 6355   7.303   2.621   8.619  1.2921 -0.3084  0.1614
   48MOL0     C 6356   7.349   2.660   8.760  0.0436 -0.1659  0.3928
   48MOL0     C 6357   7.446   2.555   8.814  0.1542  0.1946 -0.6525
   48MOL0     C 6358   7.583   2.582   8.736 -0.6229 -0.1046 -0.1204
   48MOL0     C 6359   7.682   2.668   8.811 -0.5295 -0.0297  0.7200
   48MOL0     C 6360   7.807   2.691   8.725 -0.5991 -0.1784 -0.7852
   48MOL0     C 6361   7.909   2.787   8.781  0.4925 -0.5690 -0.1747
   48MOL0     N 6362   7.881   2.929   8.750 -0.1417  0.1808  0.1654
   48MOL0     C 6363   7.918   2.994   8.636 -0.3352 -0.0279 -0.0289
   48MOL0     C 6364   7.852   3.115   8.648  0.4618 -0.1131 -0.1271
   48MOL0     C 6365   7.837   3.234   8.558 -0.0106  0.1025  0.0991
   48MOL0     C 6366   7.929   3.349   8.593  0.4930 -0.4082 -0.6968
   48MOL0     C 6367   8.016   3.375   8.472 -0.6504 -0.8172 -0.3739
   48MOL0     C 6368   8.126   3.488   8.506  0.5343 -0.0204  1.3040
   48MOL0     O 6369   8.081   3.624   8.516 -0.1042 -0.7759  0.1163
   48MOL0     C 6370   8.060   3.696   8.401  0.1647 -0.4575  0.5595
   48MOL0     C 6371   8.068   3.638   8.271  0.0414 -0.5185  0.0437
   48MOL0     C 6372   8.040   3.712   8.156  0.4812 -0.6855  0.0851
   48MOL0     C 6373   8.060   3.641   8.024  0.0815 -0.3983  1.0301
   48MOL0     C 6374   7.991   3.849   8.161 -0.5825  0.4901 -0.7189
   48MOL0     C 6375   7.954   3.933   8.044  0.6832  0.3158  0.4814
   48MOL0     O 6376   7.875   4.044   8.073  1.1672  0.1253 -0.0351
   48MOL0     C 6377   7.865   4.146   7.986 -0.2322 -0.2831 -0.0115
   48MOL0     C 6378   7.978   4.218   7.933  0.4202  0.0243  0.3356
   48MOL0     C 6379   7.969   4.328   7.844  0.5324  0.9055  0.5352
   48MOL0     C 6380   7.840   4.376   7.818 -0.6926 -0.0612  0.6319
   48MOL0     O 6381   7.841   4.477   7.726 -0.1262 -0.3290  0.4508
   48MOL0     C 6382   7.788   4.449   7.594 -0.6639  0.0536 -0.3125
   48MOL0     C 6383   7.853   4.537   7.491 -0.3038 -0.5216  0.6528
   48MOL0     C 6384   7.807   4.483   7.353 -0.1505  0.3117 -1.2289
   48MOL0     C 6385   7.679   4.547   7.301 -0.5091 -0.5173 -0.0359
   48MOL0     C 6386   7.654   4.523   7.151  1.3291 -0.3253 -0.5371
   48MOL0     C 6387   7.527   4.598   7.113 -0.5587 -0.1935 -0.7814
   48MOL0     C 6388   7.546   4.743   7.087  0.0796 -0.3430  0.5635
   48MOL0     C 6389   7.445   4.801   6.984  0.8592  0.0400 -0.5272
   48MOL0    Cl 6390   7.477   4.974   6.985 -0.0889  0.1276 -0.5787
   48MOL0     C 6391   7.729   4.312   7.876  0.2320  0.5790  0.0162
   48MOL0     C 6392   7.739   4.201   7.960  0.3657  0.6746  0.1708
   48MOL0     O 6393   7.996   3.911   7.935  0.6410  0.5119  0.3027
   48MOL0     C 6394   7.978   3.898   8.294  0.4398 -0.1231 -0.1873
   48MOL0     C 6395   8.014   3.829   8.409 -0.2463 -0.3045 -0.0749
   48MOL0     N 6396   7.782   3.124   8.772 -1.2309 -0.1566 -0.4407
   48MOL0     N 6397   7.803   3.013   8.834 -0.0155  1.2353  0.3172
   48MOL0     C 6398   6.967   2.527   8.311  0.2750  0.2371  0.1117
   48MOL0     C 6399   6.841   2.529   8.248  0.1912  0.5442 -0.1659
   48MOL0     C 6400   6.379   2.628   8.210 -0.0642  0.5261 -0.2706
   48MOL0     C 6401   6.261   2.567   8.259 -0.2073  0.3105 -0.3893
   48MOL0     C 6402   6.142   2.583   8.188  0.2950 -0.1700 -0.1032
   48MOL0     C 6403   6.144   2.668   8.075  0.1296  0.1614  0.2871
   48MOL0     O 6404   6.013   2.682   8.017  0.4865 -0.5093  0.4521
   48MOL0     C 6405   6.003   2.739   7.887  0.0689 -0.0514 -0.2867
   48MOL0     C 6406   5.864   2.696   7.839 -0.8327 -0.0799 -0.1880
   48MOL0     C 6407   5.748   2.752   7.923 -0.4008 -0.1746  0.4017
   48MOL0     C 6408   5.616   2.706   7.880 -0.2430 -0.1893  0.3561
   48MOL0     C 6409   5.519   2.733   7.979  0.4480  0.1736  0.0145
   48MOL0     C 6410   5.449   2.780   8.061  0.3386 -0.5287  0.0016
   48MOL0     C 6411   6.259   2.726   8.029 -0.5515 -0.0963 -0.1311
   48MOL0     C 6412   6.376   2.697   8.089  0.1107  0.0532 -0.2140
   48MOL0     H 6413   6.696   2.762   8.447  3.2328  1.8487  1.1093
   48MOL0     H 6414   6.910   2.745   8.560 -1.8417  2.1379 -0.7698
   48MOL0     H 6415   7.112   2.696   8.652  1.1984 -0.0856  1.3009
   48MOL0     H 6416   7.114   2.517   8.675  0.8544  0.5430 -0.5085
   48MOL0     H 6417   7.356   2.529   8.590 -0.2989 -1.4802  0.8343
   48MOL0     H 6418   7.329   2.701   8.549  0.7569 -0.1881  0.0990
   48MOL0     H 6419   7.395   2.759   8.746  1.8533 -0.8631  1.1489
   48MOL0     H 6420   7.268   2.676   8.831 -2.0174  0.6292 -1.9862
   48MOL0     H 6421   7.465   2.571   8.920 -1.5055  0.7580 -0.4048
   48MOL0     H 6422   7.401   2.458   8.790 -2.2659  1.5905 -2.1535
   48MOL0     H 6423   7.623   2.485   8.707  1.2910  1.0783 -1.7066
   48MOL0     H 6424   7.574   2.638   8.643  0.1477 -1.6645 -1.1662
   48MOL0     H 6425   7.645   2.769   8.830 -0.4277  0.4814 -1.5092
   48MOL0     H 6426   7.702   2.618   8.906 -1.7306 -0.3919  0.7960
   48MOL0     H 6427   7.859   2.595   8.714 -1.1561 -0.2437 -3.9637
   48MOL0     H 6428   7.767   2.724   8.628 -1.7769  2.0929  0.3988
   48MOL0     H 6429   8.010   2.772   8.744  1.0314  0.4425  0.8361
   48MOL0     H 6430   7.912   2.770   8.889  0.3311 -0.2198 -0.1117
   48MOL0     H 6431   7.975   2.954   8.553 -1.0115 -0.2449 -0.4022
   48MOL0     H 6432   7.839   3.204   8.453 -1.7260 -1.3864  0.4319
   48MOL0     H 6433   7.734   3.265   8.580  0.3180 -0.5717  2.9647
   48MOL0     H 6434   8.006   3.323   8.665  1.5066 -1.4439 -2.0953
   48MOL0     H 6435   7.879   3.435   8.638  3.3020  0.3189  1.2688
   48MOL0     H 6436   7.959   3.393   8.380 -2.7860  0.0005  1.0170
   48MOL0     H 6437   8.080   3.287   8.462 -3.2866 -2.6169 -3.4784
   48MOL0     H 6438   8.206   3.479   8.432 -0.0939  2.1422  0.2974
   48MOL0     H 6439   8.174   3.467   8.602  0.8492 -0.4416  1.0561
   48MOL0     H 6440   8.100   3.535   8.264  1.2959 -0.2496  1.4995
   48MOL0     H 6441   8.143   3.675   7.962 -1.5516  2.3455  0.1888
   48MOL0     H 6442   8.089   3.537   8.044 -2.3601 -1.0594  1.4819
   48MOL0     H 6443   7.966   3.628   7.970 -0.0034 -1.1568  1.3421
   48MOL0     H 6444   8.074   4.170   7.953  0.2527 -0.2239  0.5479
   48MOL0     H 6445   8.054   4.374   7.795  0.0920  1.4721  0.2817
   48MOL0     H 6446   7.820   4.350   7.562  0.5719  0.4359 -0.3164
   48MOL0     H 6447   7.679   4.457   7.591 -0.6828  1.0273  1.7936
   48MOL0     H 6448   7.830   4.644   7.502  2.3425  0.2738 -0.8037
   48MOL0     H 6449   7.960   4.516   7.502  0.7235  2.0216 -2.7573
   48MOL0     H 6450   7.806   4.373   7.351  1.4284  0.2804 -1.6373
   48MOL0     H 6451   7.878   4.512   7.275 -0.2666 -2.5777 -2.5427
   48MOL0     H 6452   7.593   4.521   7.363 -1.9682  1.9787 -0.8680
   48MOL0     H 6453   7.698   4.654   7.309  2.5926 -0.9999  0.2718
   48MOL0     H 6454   7.634   4.417   7.133 -0.3656  0.3822 -3.5749
   48MOL0     H 6455   7.730   4.568   7.086  1.5609  0.8416  0.4945
   48MOL0     H 6456   7.481   4.536   7.036  1.4037 -1.7651 -0.7636
   48MOL0     H 6457   7.460   4.597   7.200  0.5958  0.8501  0.1457
   48MOL0     H 6458   7.644   4.764   7.044  0.5047 -0.2497  1.5353
   48MOL0     H 6459   7.534   4.794   7.184 -0.2064  0.4243  0.1336
   48MOL0     H 6460   7.342   4.779   7.011 -0.0379  2.2921 -1.8477
   48MOL0     H 6461   7.459   4.773   6.879 -2.2634 -0.5971 -0.8736
   48MOL0     H 6462   7.630   4.343   7.843  0.1476  0.7464  0.4161
   48MOL0     H 6463   7.648   4.149   7.986  2.6927 -3.3046  1.1359
   48MOL0     H 6464   7.937   3.995   8.319  1.4951  0.3357 -0.1953
   48MOL0     H 6465   7.993   3.862   8.510  0.7946  0.5135 -0.1080
   48MOL0     H 6466   7.033   2.448   8.276 -1.6553 -0.9795 -0.9394
   48MOL0     H 6467   6.825   2.460   8.166 -0.6956  0.1510  0.3183
   48MOL0     H 6468   6.249   2.521   8.357 -0.8329 -0.5494 -0.8561
   48MOL0     H 6469   6.041   2.557   8.219  0.0353  0.1699 -0.6511
   48MOL0     H 6470   6.000   2.848   7.888 -1.9035 -0.0844  0.5385
   48MOL0     H 6471   6.085   2.705   7.822 -0.4621  1.1437 -1.6481
   48MOL0     H 6472   5.858   2.587   7.837 -2.1012 -0.0327 -2.6487
   48MOL0     H 6473   5.846   2.714   7.733  0.1992  0.5702 -0.2716
   48MOL0     H 6474   5.756   2.860   7.908  1.5419 -0.2152  0.8462
   48MOL0     H 6475   5.771   2.733   8.028  0.5121  1.6756  0.5883
   48MOL0     H 6476   5.617   2.598   7.864  1.5964  0.0431 -1.5617
   48MOL0     H 6477   5.594   2.764   7.790  0.4099 -0.1765  0.1975
   48MOL0     H 6478   5.373   2.827   8.120  0.2512 -3.2039  2.2135
   48MOL0     H 6479   6.253   2.789   7.940  1.7253  1.3144  0.6249
   48MOL0     H 6480   6.469   2.730   8.045  0.2924 -1.4148 -1.0152
   49MOL0     O 6481   7.402   1.145   1.646  0.0409  0.3681  0.7492
   49MOL0     C 6482   7.309   1.229   1.622 -0.3425  0.6510 -0.7680
   49MOL0     O 6483   7.303   1.360   1.668  0.4743  0.3639 -0.5597
   49MOL0     C 6484   7.405   1.432   1.731 -0.4909  0.1072 -1.1311
   49MOL0     C 6485   7.369   1.549   1.802 -0.4377 -0.3012 -0.1954
   49MOL0     C 6486   7.470   1.624   1.866 -0.7410 -0.5485  0.5763
   49MOL0     C 6487   7.604   1.596   1.840  0.0064 -0.3181  0.2937
   49MOL0     O 6488   7.706   1.676   1.887  0.4462  0.6090  0.0781
   49MOL0     C 6489   7.680   1.779   1.986  1.5878 -0.4238 -0.0643
   49MOL0     C 6490   7.810   1.857   2.010 -0.1251 -0.2848  0.4242
   49MOL0     C 6491   7.869   1.932   1.882  0.1899 -0.4481 -0.1608
   49MOL0     C 6492   7.828   2.076   1.868  0.1968  0.1742 -0.0094
   49MOL0     C 6493   7.842   2.130   1.728  0.0452 -0.0441  0.4448
   49MOL0     C 6494   7.763   2.257   1.695  0.0388 -0.1998 -0.4207
   49MOL0     C 6495   7.800   2.381   1.769 -1.0453 -1.1773  0.4019
   49MOL0     C 6496   7.711   2.428   1.894 -0.0268  1.0932  0.1497
   49MOL0     N 6497   7.584   2.459   1.852  0.1479  0.4199 -0.1826
   49MOL0     C 6498   7.552   2.579   1.790  0.0559  1.9759 -0.3797
   49MOL0     C 6499   7.419   2.580   1.804 -0.4180  0.7736 -1.0130
   49MOL0     C 6500   7.344   2.696   1.747 -0.2963  0.4693  0.5331
   49MOL0     C 6501   7.193   2.656   1.722 -0.4384  0.5022 -0.5206
   49MOL0     C 6502   7.108   2.773   1.659 -0.8013 -0.1250 -0.0953
   49MOL0     C 6503   6.969   2.729   1.623 -0.6491 -0.2256  0.0701
   49MOL0     O 6504   6.982   2.642   1.510  1.5744  0.2976 -0.2928
   49MOL0     C 6505   6.870   2.592   1.447  0.4499 -0.3020 -0.5372
   49MOL0     C 6506   6.884   2.480   1.376 -0.0387  0.1345  0.0524
   49MOL0     C 6507   6.776   2.403   1.320 -0.2107  0.9877 -0.5652
   49MOL0     C 6508   6.802   2.278   1.240 -0.2447  0.9925 -0.8228
   49MOL0     C 6509   6.643   2.450   1.353  0.7635 -0.1586  0.2638
   49MOL0     C 6510   6.519   2.370   1.326  0.0152 -0.1289  0.7742
   49MOL0     O 6511   6.429   2.381   1.434  0.6708  0.4291 -0.2154
   49MOL0     C 6512   6.313   2.308   1.433  0.8463  0.4266 -0.6531
   49MOL0     C 6513   6.217   2.350   1.522  0.8873  0.0086  0.6381
   49MOL0     C 6514   6.085   2.288   1.523  0.1275  0.1439 -0.6827
   49MOL0     C 6515   6.067   2.175   1.449 -0.4723 -0.1190 -0.1690
   49MOL0     O 6516   5.938   2.119   1.467  0.1543 -0.0855  1.1249
   49MOL0     C 6517   5.917   1.982   1.422 -0.4762 -0.8695  0.4333
   49MOL0     C 6518   5.784   1.942   1.477 -0.2419 -0.7876  0.1272
   49MOL0     C 6519   5.753   1.795   1.465 -0.0227  1.0661  0.3948
   49MOL0     C 6520   5.620   1.756   1.534  0.4771 -0.4180  0.4107
   49MOL0     C 6521   5.600   1.605   1.545 -0.0921 -0.3288  0.7205
   49MOL0     C 6522   5.720   1.521   1.603  0.9408 -1.0641 -0.0765
   49MOL0     C 6523   5.675   1.372   1.641  0.0380 -0.4617  0.5152
   49MOL0     C 6524   5.611   1.287   1.534 -0.1038 -1.6024  0.1078
   49MOL0    Cl 6525   5.439   1.320   1.517  0.0799  0.2870  0.4855
   49MOL0     C 6526   6.163   2.138   1.359  0.1733  0.0572 -0.1663
   49MOL0     C 6527   6.286   2.199   1.348  0.4597 -0.2220 -0.7115
   49MOL0     O 6528   6.504   2.319   1.215  0.4901  0.4453 -0.2422
   49MOL0     C 6529   6.634   2.577   1.419  0.1298  0.4531  0.2811
   49MOL0     C 6530   6.745   2.642   1.468  0.6389  0.7564  0.0378
   49MOL0     N 6531   7.379   2.463   1.855  0.5883  1.0239  1.0328
   49MOL0     N 6532   7.481   2.388   1.880 -0.5628 -0.4173  0.5678
   49MOL0     C 6533   7.639   1.486   1.764 -0.0692 -0.9110  0.7985
   49MOL0     C 6534   7.538   1.406   1.707  0.1165 -0.6387 -0.1461
   49MOL0     C 6535   7.196   1.185   1.539  0.7420 -1.2714 -0.0320
   49MOL0     C 6536   7.136   1.283   1.463  0.6796  0.4304  0.3216
   49MOL0     C 6537   7.032   1.249   1.374  1.0145  0.6947 -0.3737
   49MOL0     C 6538   6.994   1.119   1.354 -1.0050 -0.5698 -0.3955
   49MOL0     O 6539   6.896   1.107   1.270  0.6551  0.5236 -0.1178
   49MOL0     C 6540   6.866   0.979   1.217 -0.0299 -0.0509  0.4835
   49MOL0     C 6541   6.749   0.997   1.119  0.0790  0.7000 -0.2403
   49MOL0     C 6542   6.811   1.041   0.974  0.5179  0.4405 -0.5824
   49MOL0     C 6543   6.690   1.055   0.874  0.1309 -0.0312  0.7360
   49MOL0     C 6544   6.604   1.172   0.897  0.2386  0.6024  0.8460
   49MOL0     C 6545   6.545   1.273   0.918  0.2379 -0.5557 -0.2056
   49MOL0     C 6546   7.061   1.018   1.421  0.3027 -0.2979  0.0357
   49MOL0     C 6547   7.159   1.057   1.518  0.1676  0.2416  0.3579
   49MOL0     H 6548   7.269   1.585   1.824  0.2979  2.3654 -0.8552
   49MOL0     H 6549   7.441   1.705   1.932 -0.1216 -0.8924  1.2963
   49MOL0     H 6550   7.602   1.851   1.959  1.8167  0.9706  2.6607
   49MOL0     H 6551   7.647   1.733   2.080  0.8563  0.3618  0.0822
   49MOL0     H 6552   7.813   1.932   2.091  3.6296 -0.3235  0.5256
   49MOL0     H 6553   7.880   1.779   2.041  1.0394  1.2520  1.8939
   49MOL0     H 6554   7.978   1.933   1.874  0.0658 -0.0610 -2.1306
   49MOL0     H 6555   7.840   1.869   1.797 -0.1838 -1.6485  0.8147
   49MOL0     H 6556   7.725   2.092   1.900  0.0079 -1.5331  0.3047
   49MOL0     H 6557   7.887   2.138   1.935  3.1219 -2.6168  0.2189
   49MOL0     H 6558   7.947   2.146   1.704 -0.0687 -2.3016 -2.0651
   49MOL0     H 6559   7.800   2.055   1.660 -1.4253  0.8227  0.3432
   49MOL0     H 6560   7.773   2.281   1.589  1.1170  0.4062 -0.1891
   49MOL0     H 6561   7.657   2.231   1.709  0.0950 -0.9623 -1.2639
   49MOL0     H 6562   7.903   2.365   1.802 -0.6456 -3.2405 -1.6122
   49MOL0     H 6563   7.796   2.460   1.694 -1.4506 -2.6850 -1.2214
   49MOL0     H 6564   7.758   2.515   1.941 -0.9963  0.5827  2.2017
   49MOL0     H 6565   7.717   2.349   1.969  0.0272  3.0447  2.3452
   49MOL0     H 6566   7.619   2.659   1.761 -0.2790  2.7009  0.7696
   49MOL0     H 6567   7.359   2.776   1.821 -2.4873  1.5052 -0.0529
   49MOL0     H 6568   7.381   2.735   1.651 -1.9981  1.7346  0.3476
   49MOL0     H 6569   7.150   2.634   1.820  2.4305 -0.9272  0.5431
   49MOL0     H 6570   7.184   2.569   1.657 -2.4558  1.1092 -1.1387
   49MOL0     H 6571   7.161   2.826   1.580 -0.2527  2.1440  1.6903
   49MOL0     H 6572   7.100   2.840   1.745  1.6586 -0.5491  0.5706
   49MOL0     H 6573   6.907   2.818   1.605 -1.2730 -0.0099  2.8593
   49MOL0     H 6574   6.933   2.678   1.713  1.6916 -0.1796  1.1021
   49MOL0     H 6575   6.984   2.447   1.352 -0.7619 -0.6429 -2.1677
   49MOL0     H 6576   6.767   2.187   1.290  0.2128  0.6965 -1.0321
   49MOL0     H 6577   6.748   2.292   1.146 -0.7097  0.9169 -0.5668
   49MOL0     H 6578   6.910   2.263   1.228 -0.2345  1.6439 -1.6849
   49MOL0     H 6579   6.234   2.439   1.581  0.2836  1.0600 -0.7190
   49MOL0     H 6580   6.016   2.316   1.601  1.1578  1.3757 -0.1720
   49MOL0     H 6581   5.922   1.972   1.313  1.6357 -3.2179  0.6563
   49MOL0     H 6582   5.984   1.916   1.476 -2.0128 -2.1598  0.8289
   49MOL0     H 6583   5.781   1.972   1.582  0.2028  2.0220 -0.5669
   49MOL0     H 6584   5.710   2.006   1.427  1.5208  4.1032  3.0917
   49MOL0     H 6585   5.828   1.740   1.522 -1.6232 -2.9970 -1.0618
   49MOL0     H 6586   5.753   1.760   1.361  2.7283 -0.9469  0.9398
   49MOL0     H 6587   5.619   1.799   1.634  1.0626 -0.0789  0.2766
   49MOL0     H 6588   5.540   1.809   1.482 -1.8256 -3.3368  0.7432
   49MOL0     H 6589   5.586   1.570   1.442 -0.8244 -2.0778  1.3764
   49MOL0     H 6590   5.507   1.599   1.601  0.6729  1.2852  2.2531
   49MOL0     H 6591   5.797   1.506   1.527  1.2974 -2.3294  0.5162
   49MOL0     H 6592   5.760   1.576   1.689  1.0044  1.6661 -1.7267
   49MOL0     H 6593   5.604   1.378   1.723 -2.2253 -1.4795 -1.2690
   49MOL0     H 6594   5.762   1.312   1.671 -2.7458 -3.5614  3.1112
   49MOL0     H 6595   5.615   1.180   1.560 -3.0590 -2.3019 -1.8299
   49MOL0     H 6596   5.659   1.308   1.438 -0.2316  0.1810  0.4120
   49MOL0     H 6597   6.141   2.064   1.283  0.1179 -0.7808  0.6396
   49MOL0     H 6598   6.355   2.153   1.278 -0.5777 -0.6276 -1.4958
   49MOL0     H 6599   6.537   2.622   1.435 -0.3222 -0.1954 -0.5986
   49MOL0     H 6600   6.722   2.729   1.529 -1.1982 -0.7003  1.5299
   49MOL0     H 6601   7.746   1.472   1.746  0.6909 -1.4507  4.8212
   49MOL0     H 6602   7.570   1.327   1.640  1.9552 -1.6923  1.8650
   49MOL0     H 6603   7.171   1.385   1.462  0.7391  0.5026  2.8847
   49MOL0     H 6604   6.971   1.328   1.332  0.1952  1.9766  2.9536
   49MOL0     H 6605   6.945   0.920   1.168 -1.6640 -2.6002  0.7294
   49MOL0     H 6606   6.840   0.911   1.300 -0.4603 -1.6180 -0.8784
   49MOL0     H 6607   6.675   1.069   1.154 -1.1807 -1.3543  1.6294
   49MOL0     H 6608   6.692   0.904   1.121  0.1424  0.6601  1.2509
   49MOL0     H 6609   6.877   0.966   0.930  1.7185  0.6591  0.7768
   49MOL0     H 6610   6.871   1.133   0.976  0.6486  0.3422  0.0602
   49MOL0     H 6611   6.635   0.960   0.875  0.1875 -0.0599  1.0858
   49MOL0     H 6612   6.730   1.057   0.772  1.9072 -3.4214  1.2161
   49MOL0     H 6613   6.504   1.371   0.936  0.9976  0.0036 -1.3964
   49MOL0     H 6614   7.028   0.916   1.409 -2.0732  0.2672  1.1529
   49MOL0     H 6615   7.211   0.977   1.569 -0.8066  0.0101  1.0174
   50MOL0     O 6616   9.269   9.927   4.614 -0.0085  0.0633  0.1457
   50MOL0     C 6617   9.336   9.983   4.704 -0.4502 -0.0709 -0.7076
   50MOL0     O 6618   9.281  10.068   4.799 -0.5529  0.3015 -0.2737
   50MOL0     C 6619   9.146  10.055   4.825  0.3723  0.3536  0.5367
   50MOL0     C 6620   9.062  10.158   4.778  0.1644 -0.5076  0.0343
   50MOL0     C 6621   8.923  10.149   4.802 -0.0908 -0.2030 -1.0579
   50MOL0     C 6622   8.866  10.032   4.873 -0.2234 -0.0280  0.4036
   50MOL0     O 6623   8.727  10.028   4.882 -0.3709  0.2298  0.4420
   50MOL0     C 6624   8.660   9.914   4.942 -0.8938  0.1772 -0.2642
   50MOL0     C 6625   8.552   9.962   5.040 -0.0618  0.0002 -0.7545
   50MOL0     C 6626   8.469   9.834   5.074 -0.0581  0.1931  0.8243
   50MOL0     C 6627   8.330   9.875   5.129 -0.3715  0.3584 -1.0625
   50MOL0     C 6628   8.227   9.762   5.111 -0.5453 -0.2155 -0.1123
   50MOL0     C 6629   8.090   9.811   5.075  0.4385 -0.7238 -0.3280
   50MOL0     C 6630   8.000   9.840   5.201 -0.4508  0.3271  0.3523
   50MOL0     C 6631   7.998   9.733   5.306  0.6966  0.5024 -0.3512
   50MOL0     N 6632   7.887   9.755   5.410 -0.3806 -0.4842  0.5911
   50MOL0     C 6633   7.761   9.704   5.399 -0.4553 -0.5041 -0.9066
   50MOL0     C 6634   7.699   9.757   5.509 -0.2267  0.4797 -0.6972
   50MOL0     C 6635   7.553   9.751   5.535  0.3131  0.3019 -0.5167
   50MOL0     C 6636   7.482   9.887   5.540  0.1875 -0.1875  0.8579
   50MOL0     C 6637   7.474   9.944   5.395 -0.4592  0.0176 -0.2264
   50MOL0     C 6638   7.411  10.086   5.407 -0.5471 -0.3618  1.4724
   50MOL0     O 6639   7.336  10.108   5.285  0.0009 -0.7868  0.3042
   50MOL0     C 6640   7.199  10.117   5.286 -0.0111  1.1420  0.4885
   50MOL0     C 6641   7.133  10.062   5.181 -0.6495 -0.4006  0.0919
   50MOL0     C 6642   6.993  10.080   5.164 -0.0775  0.0693 -0.1676
   50MOL0     C 6643   6.938  10.026   5.033  0.5784 -0.1239  0.4281
   50MOL0     C 6644   6.926  10.143   5.268  0.5833  0.3214 -0.5894
   50MOL0     C 6645   6.779  10.142   5.272  0.1913 -0.2276 -0.2654
   50MOL0     O 6646   6.720  10.248   5.207  0.7662 -0.9703  0.3709
   50MOL0     C 6647   6.587  10.237   5.176 -0.8402  0.4126  0.6433
   50MOL0     C 6648   6.535  10.124   5.120 -2.0053  0.0324  0.3926
   50MOL0     C 6649   6.398  10.107   5.087  0.1437  0.6003  0.6442
   50MOL0     C 6650   6.307  10.211   5.107  0.1668  0.0840  0.5645
   50MOL0     O 6651   6.175  10.195   5.091  0.8617 -0.3697  0.0114
   50MOL0     C 6652   6.129  10.145   4.961  0.2596  0.9703  0.0548
   50MOL0     C 6653   5.984  10.106   4.974 -0.2757  0.0970 -0.0180
   50MOL0     C 6654   5.932  10.040   4.854 -0.2394  0.4325 -0.7070
   50MOL0     C 6655   5.955  10.103   4.711 -0.2646 -0.3029  0.0484
   50MOL0     C 6656   5.882  10.027   4.597 -0.5444  0.0446 -0.5594
   50MOL0     C 6657   5.937   9.890   4.580  0.2223 -0.5967  0.0580
   50MOL0     C 6658   5.870   9.826   4.463  0.2857  0.0814  0.1124
   50MOL0     C 6659   5.928   9.685   4.452  0.9676 -0.6626  0.1398
   50MOL0    Cl 6660   5.887   9.613   4.300  0.2232  0.2694  0.1896
   50MOL0     C 6661   6.357  10.329   5.157  0.3025 -0.2779  0.0431
   50MOL0     C 6662   6.492  10.338   5.200 -0.7045  0.9284  0.3364
   50MOL0     O 6663   6.719  10.051   5.326 -0.0423 -0.7998  0.0393
   50MOL0     C 6664   6.994  10.187   5.385  0.6921 -0.3819 -0.4524
   50MOL0     C 6665   7.129  10.189   5.377 -0.0696  0.4965 -0.8924
   50MOL0     N 6666   7.789   9.814   5.601 -0.4089 -0.1193 -1.1251
   50MOL0     N 6667   7.897   9.824   5.527 -0.1574 -0.8411 -0.3025
   50MOL0     C 6668   8.961   9.947   4.926  0.4150  0.3775 -0.1038
   50MOL0     C 6669   9.093   9.957   4.908  1.0545  0.0817  0.5533
   50MOL0     C 6670   9.485   9.964   4.704 -0.0975  0.5636  0.4876
   50MOL0     C 6671   9.553   9.889   4.604 -0.7872 -0.0786  0.4173
   50MOL0     C 6672   9.692   9.879   4.603  0.1438 -1.0033  0.5655
   50MOL0     C 6673   9.770   9.945   4.696  0.4183  0.1226  0.2872
   50MOL0     O 6674   9.907   9.919   4.689  0.1357  0.0269  0.1260
   50MOL0     C 6675   9.996  10.027   4.717  0.8967  0.7430  0.9237
   50MOL0     C 6676  10.076  10.005   4.838  0.0800  0.8417  0.5623
   50MOL0     C 6677  10.020  10.080   4.961 -0.2345 -0.1658  0.1420
   50MOL0     C 6678  10.130  10.095   5.072  0.0342 -0.1400  0.1047
   50MOL0     C 6679  10.215  10.216   5.056 -0.6714  0.4521  0.4900
   50MOL0     C 6680  10.287  10.310   5.041 -0.6352  0.1531 -0.3813
   50MOL0     C 6681   9.705  10.017   4.800  0.0468 -0.2299 -0.4295
   50MOL0     C 6682   9.572  10.024   4.800  0.2982 -0.5876 -0.3226
   50MOL0     H 6683   9.104  10.233   4.712 -0.7882  2.8172  2.8993
   50MOL0     H 6684   8.856  10.225   4.763  1.4693  1.3696 -0.7774
   50MOL0     H 6685   8.625   9.844   4.865  0.9353 -2.7323  1.3824
   50MOL0     H 6686   8.727   9.854   5.004 -0.3760 -0.5669 -1.5164
   50MOL0     H 6687   8.601  10.009   5.126  1.1765 -0.4364 -1.2033
   50MOL0     H 6688   8.490  10.031   4.982  2.7676  1.3294 -2.3897
   50MOL0     H 6689   8.450   9.783   4.979 -1.7738 -2.7675  2.6004
   50MOL0     H 6690   8.511   9.768   5.149 -2.5189 -2.5465 -0.0200
   50MOL0     H 6691   8.339   9.887   5.238 -1.2961  2.0089 -1.1430
   50MOL0     H 6692   8.302   9.972   5.087  2.3495  0.9568 -1.6821
   50MOL0     H 6693   8.259   9.714   5.019  1.3604  0.9529 -0.1102
   50MOL0     H 6694   8.242   9.688   5.190  1.0643 -1.1155 -1.2185
   50MOL0     H 6695   8.095   9.898   5.008  3.7726  0.2939  1.0271
   50MOL0     H 6696   8.034   9.737   5.018 -1.9276  1.0074 -0.4137
   50MOL0     H 6697   8.045   9.922   5.259  0.3526  0.2559 -0.1461
   50MOL0     H 6698   7.900   9.879   5.180 -0.1694  0.5645 -0.5627
   50MOL0     H 6699   8.093   9.713   5.355 -0.6158 -2.7961  1.1328
   50MOL0     H 6700   7.984   9.639   5.251 -1.0290  1.4473 -1.6572
   50MOL0     H 6701   7.722   9.643   5.318 -0.7352 -1.6353  0.0598
   50MOL0     H 6702   7.498   9.695   5.459 -0.2884 -2.1970  1.6470
   50MOL0     H 6703   7.545   9.697   5.630  1.5597  1.2098  0.1448
   50MOL0     H 6704   7.529   9.957   5.610  0.8485  1.5991 -1.2619
   50MOL0     H 6705   7.383   9.888   5.587  0.7546  2.4902  2.1330
   50MOL0     H 6706   7.408   9.873   5.345  0.5914 -1.7836  0.7978
   50MOL0     H 6707   7.574   9.961   5.355 -0.4224  1.5848  0.4669
   50MOL0     H 6708   7.490  10.161   5.421 -0.6255 -0.1899  1.0148
   50MOL0     H 6709   7.344  10.084   5.494  0.4128 -1.6082  2.2101
   50MOL0     H 6710   7.184   9.985   5.124  1.7254  0.5797  0.7618
   50MOL0     H 6711   7.022  10.032   4.964  0.6421  0.6441  0.5566
   50MOL0     H 6712   6.913   9.923   5.060 -2.9098 -0.1705 -2.3905
   50MOL0     H 6713   6.855  10.078   4.986  0.1380 -2.7277 -1.9276
   50MOL0     H 6714   6.614  10.054   5.098 -1.7711  0.3968  0.0560
   50MOL0     H 6715   6.376  10.004   5.059  0.1574  0.2811  1.7321
   50MOL0     H 6716   6.131  10.224   4.885 -0.4019  0.9799  0.0336
   50MOL0     H 6717   6.186  10.058   4.928  1.1335  1.1399  1.0766
   50MOL0     H 6718   5.977  10.034   5.056 -1.8907  1.1133  0.7966
   50MOL0     H 6719   5.917  10.191   4.991 -0.1642  0.0152  0.9180
   50MOL0     H 6720   5.824  10.036   4.868 -0.3442  2.5527 -0.5496
   50MOL0     H 6721   5.983   9.943   4.860  1.2293  1.1728 -0.7960
   50MOL0     H 6722   5.926  10.209   4.709  0.9006  0.0347 -1.1253
   50MOL0     H 6723   6.063  10.114   4.694  0.1292 -1.1471  1.7974
   50MOL0     H 6724   5.900  10.087   4.507  3.3064 -0.9655 -0.6552
   50MOL0     H 6725   5.777  10.038   4.627 -2.0346 -0.4578 -4.8585
   50MOL0     H 6726   6.045   9.898   4.564  0.0216  1.0585 -0.6668
   50MOL0     H 6727   5.922   9.824   4.666 -1.5722 -1.9319 -1.2200
   50MOL0     H 6728   5.891   9.883   4.371 -0.6535 -1.4659 -1.1064
   50MOL0     H 6729   5.762   9.822   4.482  0.2680  0.0075 -0.0011
   50MOL0     H 6730   5.877   9.631   4.532 -1.8679  0.4737 -0.7669
   50MOL0     H 6731   6.037   9.679   4.461  0.8185 -2.0975  1.2216
   50MOL0     H 6732   6.298  10.409   5.201  3.2676  1.6241  0.8135
   50MOL0     H 6733   6.527  10.427   5.252 -3.1106  2.3424 -0.2736
   50MOL0     H 6734   6.942  10.229   5.470 -0.1227 -1.2508 -0.5105
   50MOL0     H 6735   7.185  10.229   5.461  1.9331  1.7623 -2.7201
   50MOL0     H 6736   8.937   9.864   4.992  0.2507  2.0539  2.0791
   50MOL0     H 6737   9.167   9.894   4.957  0.5410 -0.2307  0.9319
   50MOL0     H 6738   9.509   9.840   4.517 -0.7631 -0.7700  0.7813
   50MOL0     H 6739   9.740   9.822   4.524  0.9624  1.7800 -1.0727
   50MOL0     H 6740  10.072  10.028   4.638  1.6651 -0.6755  1.6059
   50MOL0     H 6741   9.941  10.121   4.704  0.6917  0.2422 -3.3664
   50MOL0     H 6742  10.177  10.046   4.832  0.2591  0.6026  1.6728
   50MOL0     H 6743  10.085   9.898   4.858  1.0056  1.4855  4.4424
   50MOL0     H 6744   9.936  10.021   4.999 -2.3655  0.0952 -3.6037
   50MOL0     H 6745   9.989  10.181   4.931  2.3463  1.4750  2.5043
   50MOL0     H 6746  10.196  10.007   5.067  1.6982  1.1033 -2.8836
   50MOL0     H 6747  10.082  10.082   5.169 -0.1799 -1.5665 -0.1609
   50MOL0     H 6748  10.357  10.390   5.031  1.6766 -1.8043 -0.7156
   50MOL0     H 6749   9.750  10.048   4.894  0.9287 -1.7860 -0.3010
   50MOL0     H 6750   9.517  10.068   4.882 -3.2206 -1.1395 -2.2038
   51MOL0     O 6751   0.603   4.580  10.861 -1.2083 -0.2204  0.7448
   51MOL0     C 6752   0.598   4.689  10.908  0.0324 -0.1309 -0.2650
   51MOL0     O 6753   0.708   4.777  10.909 -0.2563 -0.2748  0.2061
   51MOL0     C 6754   0.818   4.752  10.828 -0.5217 -0.7314  0.7447
   51MOL0     C 6755   0.812   4.710  10.696 -0.1196 -0.2159  0.2084
   51MOL0     C 6756   0.919   4.710  10.619 -0.3451  0.7373  0.6458
   51MOL0     C 6757   1.044   4.742  10.666  0.3504  0.1656  0.7201
   51MOL0     O 6758   1.161   4.729  10.590  0.1119 -0.8845  0.3847
   51MOL0     C 6759   1.217   4.601  10.599 -0.5190 -0.4719 -0.1240
   51MOL0     C 6760   1.368   4.605  10.628 -0.5979  0.7423 -0.0110
   51MOL0     C 6761   1.445   4.470  10.630 -0.1206  1.5114  0.5036
   51MOL0     C 6762   1.523   4.433  10.499 -0.3229  0.2018 -0.6342
   51MOL0     C 6763   1.607   4.303  10.509 -0.3113 -0.3743  0.1322
   51MOL0     C 6764   1.515   4.185  10.545  0.5353  0.2941  0.1412
   51MOL0     C 6765   1.592   4.052  10.550  1.0196 -0.7620 -0.1957
   51MOL0     C 6766   1.664   3.997  10.422 -0.4479 -0.7412  0.0668
   51MOL0     N 6767   1.721   3.864  10.447 -0.7614 -0.1044  0.5691
   51MOL0     C 6768   1.645   3.748  10.459 -0.8945  0.6273  0.0722
   51MOL0     C 6769   1.727   3.647  10.500  0.4376 -0.4037  0.5052
   51MOL0     C 6770   1.682   3.518  10.546  0.5697  0.1429  0.1934
   51MOL0     C 6771   1.539   3.518  10.591  0.1919  0.1042 -0.4216
   51MOL0     C 6772   1.535   3.591  10.723 -0.3042 -0.0945 -0.8067
   51MOL0     C 6773   1.393   3.592  10.786  0.0462 -0.4475 -0.1858
   51MOL0     O 6774   1.320   3.675  10.695 -0.0083 -0.0124  0.0550
   51MOL0     C 6775   1.189   3.625  10.683 -0.7065  0.2343  0.4689
   51MOL0     C 6776   1.084   3.711  10.733 -0.3747  0.3546 -1.3120
   51MOL0     C 6777   0.952   3.658  10.731 -1.0717  0.0035  0.4268
   51MOL0     C 6778   0.847   3.743  10.804  1.6454  0.5307  0.2404
   51MOL0     C 6779   0.919   3.527  10.679 -0.1759 -0.1097  0.3146
   51MOL0     C 6780   0.789   3.464  10.680 -0.2143  0.4022 -0.6183
   51MOL0     O 6781   0.740   3.423  10.560 -0.7735  0.6400  0.1909
   51MOL0     C 6782   0.608   3.410  10.550 -0.4667  0.1785 -0.3747
   51MOL0     C 6783   0.552   3.304  10.486  0.0128 -0.7218  0.0405
   51MOL0     C 6784   0.411   3.293  10.467 -0.1197  0.9523 -0.1829
   51MOL0     C 6785   0.325   3.389  10.506 -0.8142  0.2797  0.7852
   51MOL0     O 6786   0.188   3.385  10.490 -0.1588 -0.0036  0.0441
   51MOL0     C 6787   0.128   3.262  10.457  0.6669 -0.2456  0.0544
   51MOL0     C 6788   0.023   3.241  10.554  0.7457 -0.1322 -0.2917
   51MOL0     C 6789   0.071   3.226  10.692  0.3666 -0.5587 -0.2182
   51MOL0     C 6790   0.158   3.104  10.721 -0.0828 -0.0210  0.5138
   51MOL0     C 6791   0.190   3.087  10.874 -0.1228 -0.0411 -0.6721
   51MOL0     C 6792   0.288   3.191  10.924 -1.0083  0.3008  0.2094
   51MOL0     C 6793   0.431   3.183  10.861 -0.4642 -0.2782 -0.4700
   51MOL0     C 6794   0.538   3.280  10.929 -0.2585  0.0124 -0.2508
   51MOL0    Cl 6795   0.538   3.246  11.107 -0.1796 -0.1259 -0.0466
   51MOL0     C 6796   0.385   3.514  10.559 -0.0366 -0.6102  0.3355
   51MOL0     C 6797   0.520   3.516  10.591 -0.1039 -0.2573 -0.3703
   51MOL0     O 6798   0.731   3.461  10.790 -0.2168 -0.0836 -0.4472
   51MOL0     C 6799   1.029   3.454  10.626  0.4429 -1.2251  0.0853
   51MOL0     C 6800   1.161   3.499  10.626  0.0019 -0.8202  0.4947
   51MOL0     N 6801   1.857   3.701  10.491 -0.0662 -1.5258 -0.1983
   51MOL0     N 6802   1.847   3.828  10.462 -1.1274  0.0443 -0.0553
   51MOL0     C 6803   1.058   4.785  10.801  0.2250  0.1596 -0.5516
   51MOL0     C 6804   0.944   4.785  10.877  0.0496 -0.1186  0.5634
   51MOL0     C 6805   0.477   4.749  10.955  0.2659  0.1962 -0.4623
   51MOL0     C 6806   0.479   4.885  10.993 -0.5629 -0.2931  0.9039
   51MOL0     C 6807   0.363   4.947  11.034 -0.4878 -0.1041 -0.2792
   51MOL0     C 6808   0.246   4.869  11.037  0.2421  0.4552  0.0792
   51MOL0     O 6809   0.127   4.917  11.081 -0.1008 -0.1378  0.3206
   51MOL0     C 6810   0.121   5.010  11.192 -0.0792 -0.5010 -1.2263
   51MOL0     C 6811  -0.015   4.984  11.256 -0.9185  0.1659 -0.2305
   51MOL0     C 6812  -0.133   5.028  11.161 -0.2456  0.1822  0.3248
   51MOL0     C 6813  -0.274   4.967  11.187  0.2600  0.2821  0.9047
   51MOL0     C 6814  -0.304   4.971  11.333  0.2649 -0.1144 -0.3686
   51MOL0     C 6815  -0.336   4.997  11.451 -0.1226 -0.0781 -0.0911
   51MOL0     C 6816   0.241   4.736  10.994  0.4469  0.0201  0.8013
   51MOL0     C 6817   0.356   4.675  10.954  0.2715 -0.3689  0.4523
   51MOL0     H 6818   0.714   4.685  10.656  0.7282 -0.2644 -1.9650
   51MOL0     H 6819   0.906   4.678  10.516 -2.3916  2.2493  0.3593
   51MOL0     H 6820   1.175   4.529  10.670 -1.1087 -1.2333 -1.2174
   51MOL0     H 6821   1.198   4.557  10.501 -0.3271  0.2505 -0.4906
   51MOL0     H 6822   1.410   4.678  10.558 -1.7373 -0.5613 -2.1223
   51MOL0     H 6823   1.378   4.657  10.724 -0.1366  0.1636  0.2583
   51MOL0     H 6824   1.502   4.464  10.724 -3.0565 -1.1286  2.3332
   51MOL0     H 6825   1.372   4.390  10.641  0.1048  1.3798  1.0976
   51MOL0     H 6826   1.446   4.422  10.422  0.5167  0.8578 -1.6035
   51MOL0     H 6827   1.587   4.521  10.487  2.4422 -1.3804  1.2852
   51MOL0     H 6828   1.664   4.295  10.416  1.3153  1.7477  0.8528
   51MOL0     H 6829   1.688   4.310  10.582 -0.4859  0.0585  0.2848
   51MOL0     H 6830   1.469   4.205  10.643 -0.4235  2.2976 -0.6721
   51MOL0     H 6831   1.429   4.190  10.478  0.5857  1.9377  0.1741
   51MOL0     H 6832   1.652   4.047  10.641 -1.5117 -3.9029  1.4938
   51MOL0     H 6833   1.515   3.978  10.573  1.4118 -0.6550  1.6183
   51MOL0     H 6834   1.735   4.072  10.384 -3.9621  3.0067  0.1644
   51MOL0     H 6835   1.595   3.998  10.337  4.0039 -0.3612 -3.9749
   51MOL0     H 6836   1.538   3.736  10.447 -1.0066  2.7554 -1.5991
   51MOL0     H 6837   1.701   3.452  10.461  4.4486  0.2200  0.8010
   51MOL0     H 6838   1.751   3.483  10.623  0.4044 -1.2922 -0.2764
   51MOL0     H 6839   1.519   3.417  10.627  1.4901  0.3270  1.0619
   51MOL0     H 6840   1.465   3.543  10.514 -0.5110 -0.8335 -0.0654
   51MOL0     H 6841   1.547   3.699  10.707  0.0067  0.0435  0.3205
   51MOL0     H 6842   1.602   3.548  10.797 -1.5764 -2.8301 -1.0983
   51MOL0     H 6843   1.395   3.645  10.881 -2.1049  2.4550 -1.6362
   51MOL0     H 6844   1.357   3.489  10.791  1.1123 -0.8099  0.3839
   51MOL0     H 6845   1.096   3.810  10.776  0.1890 -0.0105 -0.6070
   51MOL0     H 6846   0.750   3.708  10.769  0.6125  1.8832  1.6539
   51MOL0     H 6847   0.849   3.715  10.909 -0.9642 -1.0396 -0.0524
   51MOL0     H 6848   0.862   3.850  10.785 -0.6454  0.7469 -0.5765
   51MOL0     H 6849   0.619   3.227  10.448 -0.2097 -1.6479  1.4437
   51MOL0     H 6850   0.377   3.202  10.419 -1.1475  1.6110 -0.7475
   51MOL0     H 6851   0.086   3.250  10.357  0.7894 -0.1049 -0.0137
   51MOL0     H 6852   0.185   3.169  10.472 -0.6629 -1.1202 -0.1088
   51MOL0     H 6853  -0.054   3.319  10.553  1.0407  0.1515 -0.5808
   51MOL0     H 6854  -0.023   3.151  10.513  0.6313  0.4009 -1.3527
   51MOL0     H 6855  -0.012   3.201  10.758 -1.6377  2.5905 -1.3106
   51MOL0     H 6856   0.111   3.317  10.738 -3.1370  0.8136  0.4068
   51MOL0     H 6857   0.098   3.019  10.687  0.4364 -0.0584 -0.3617
   51MOL0     H 6858   0.252   3.095  10.665 -0.0792 -1.6929  0.7401
   51MOL0     H 6859   0.223   2.985  10.895  2.2672  0.5553 -1.2242
   51MOL0     H 6860   0.094   3.104  10.924 -0.4562  2.7570 -2.0493
   51MOL0     H 6861   0.245   3.291  10.915  1.3870  1.2991 -0.9393
   51MOL0     H 6862   0.304   3.168  11.030  0.3276 -3.6318 -0.6679
   51MOL0     H 6863   0.441   3.196  10.753  3.2050  2.3024  0.0100
   51MOL0     H 6864   0.474   3.085  10.885  0.6019  0.7415  2.0925
   51MOL0     H 6865   0.505   3.383  10.915  0.5367  0.1049 -1.6194
   51MOL0     H 6866   0.636   3.261  10.883 -0.2642 -0.0814 -0.2249
   51MOL0     H 6867   0.312   3.593  10.576  1.1047  0.4342  0.5726
   51MOL0     H 6868   0.550   3.599  10.653  1.6071 -0.0006 -1.4787
   51MOL0     H 6869   1.008   3.364  10.568  2.2982 -0.6539 -1.5921
   51MOL0     H 6870   1.248   3.445  10.590  0.5903  0.5678 -0.2700
   51MOL0     H 6871   1.153   4.815  10.845 -0.5775  0.3356  1.1587
   51MOL0     H 6872   0.952   4.829  10.977  0.8372  1.9396 -0.3430
   51MOL0     H 6873   0.567   4.947  10.996  0.9189 -2.2382 -0.1661
   51MOL0     H 6874   0.359   5.053  11.055  0.1783  0.3090 -2.1155
   51MOL0     H 6875   0.196   4.989  11.268 -0.7800 -2.1464 -0.9596
   51MOL0     H 6876   0.122   5.114  11.157 -1.0369 -0.6414 -1.7233
   51MOL0     H 6877  -0.030   5.045  11.346  0.8245 -0.8185  0.7884
   51MOL0     H 6878  -0.020   4.875  11.268  0.1279 -0.2868 -3.0956
   51MOL0     H 6879  -0.100   5.013  11.058  1.0505 -1.1117  0.9005
   51MOL0     H 6880  -0.154   5.132  11.184 -0.3968  0.0364  0.8613
   51MOL0     H 6881  -0.273   4.862  11.154 -1.1499  0.7298 -0.7073
   51MOL0     H 6882  -0.352   5.029  11.142  1.3831  2.0138  1.2703
   51MOL0     H 6883  -0.375   5.023  11.548 -1.6208 -3.0471  0.1916
   51MOL0     H 6884   0.150   4.678  10.990  2.3525 -3.2047  0.4036
   51MOL0     H 6885   0.355   4.571  10.923 -1.2645 -0.3381  0.3160
   52MOL0     O 6886   8.613   2.821   3.565 -0.4965 -0.6061  0.5201
   52MOL0     C 6887   8.598   2.715   3.627  0.0273 -0.1476  0.1471
   52MOL0     O 6888   8.484   2.671   3.687  0.0501  0.2605  0.3594
   52MOL0     C 6889   8.383   2.765   3.693  0.1397 -0.1899  0.1128
   52MOL0     C 6890   8.354   2.832   3.811  0.1512 -0.1856  0.6513
   52MOL0     C 6891   8.246   2.926   3.823 -0.3146  0.2609  0.3273
   52MOL0     C 6892   8.182   2.964   3.703 -0.6487  1.1357  0.0307
   52MOL0     O 6893   8.100   3.065   3.711  0.7664 -0.1271  0.0821
   52MOL0     C 6894   8.039   3.113   3.588  0.8320 -0.0717 -0.6551
   52MOL0     C 6895   7.910   3.040   3.550 -0.0209  0.2484  0.7938
   52MOL0     C 6896   7.790   3.079   3.637  0.1669 -0.4064  0.0979
   52MOL0     C 6897   7.783   2.994   3.768 -0.0860  0.2586  0.3887
   52MOL0     C 6898   7.666   3.041   3.855  0.3527 -0.1671 -0.5227
   52MOL0     C 6899   7.533   3.057   3.774  0.4563 -0.8153  0.6297
   52MOL0     C 6900   7.411   3.074   3.865  0.2615 -0.4050  0.1402
   52MOL0     C 6901   7.360   2.945   3.923  0.0391 -0.7549  0.5565
   52MOL0     N 6902   7.253   2.883   3.849 -0.2002 -0.0150 -0.4945
   52MOL0     C 6903   7.124   2.862   3.897 -0.4813  0.1775 -0.7508
   52MOL0     C 6904   7.048   2.808   3.790 -0.4875  0.2199  0.5613
   52MOL0     C 6905   6.901   2.771   3.780 -0.1364 -0.5194 -0.2068
   52MOL0     C 6906   6.832   2.864   3.677 -0.2607  0.3366 -0.0588
   52MOL0     C 6907   6.690   2.812   3.656  0.0419  0.1509  0.1299
   52MOL0     C 6908   6.602   2.919   3.594 -0.2075 -0.7351 -0.1687
   52MOL0     O 6909   6.465   2.872   3.607 -0.0124 -0.1400  0.2384
   52MOL0     C 6910   6.381   2.868   3.499 -0.2135  0.1465  0.5956
   52MOL0     C 6911   6.243   2.866   3.531 -0.2523 -0.1675  0.0999
   52MOL0     C 6912   6.144   2.841   3.427  0.3541 -0.1645  0.0103
   52MOL0     C 6913   6.004   2.843   3.480 -0.8866  0.0983 -0.6316
   52MOL0     C 6914   6.193   2.828   3.295  0.7969  0.7205  0.5087
   52MOL0     C 6915   6.092   2.807   3.189 -0.3962 -0.3674 -0.0407
   52MOL0     O 6916   5.992   2.727   3.215 -0.6068  0.3599  0.0403
   52MOL0     C 6917   5.874   2.743   3.147  0.2220  0.1197  0.5975
   52MOL0     C 6918   5.809   2.630   3.105 -0.6812  0.7039 -0.2077
   52MOL0     C 6919   5.686   2.630   3.036 -1.0313  0.8432 -0.3063
   52MOL0     C 6920   5.628   2.746   3.001 -0.4404 -0.2182 -0.4225
   52MOL0     O 6921   5.502   2.756   2.936 -0.5301 -0.6578  0.4843
   52MOL0     C 6922   5.420   2.642   2.920  0.9421  0.8456  0.6421
   52MOL0     C 6923   5.306   2.673   2.812 -0.4742  0.8830  0.7610
   52MOL0     C 6924   5.240   2.549   2.763 -0.1174  0.1562  0.4834
   52MOL0     C 6925   5.108   2.595   2.703 -0.2604  0.1972 -0.0557
   52MOL0     C 6926   5.036   2.474   2.636  0.3607 -0.0132 -1.1515
   52MOL0     C 6927   4.901   2.526   2.598  0.8086  0.9462  0.4769
   52MOL0     C 6928   4.824   2.423   2.521  0.4601 -0.4409 -0.0526
   52MOL0     C 6929   4.829   2.438   2.371 -0.0419 -0.9224  0.5034
   52MOL0    Cl 6930   4.768   2.596   2.348 -0.1668  0.4360 -0.2140
   52MOL0     C 6931   5.694   2.866   3.037 -0.0405  0.8323  1.1008
   52MOL0     C 6932   5.818   2.866   3.109  0.2460 -0.3916  0.9003
   52MOL0     O 6933   6.111   2.861   3.080  0.2050 -0.6397  0.1859
   52MOL0     C 6934   6.327   2.844   3.256 -0.3623 -0.7065  0.4929
   52MOL0     C 6935   6.426   2.852   3.357  0.9037  0.6269  0.3282
   52MOL0     N 6936   7.144   2.799   3.692  0.9242 -0.0409  0.3240
   52MOL0     N 6937   7.257   2.838   3.728  0.0497 -0.6001  0.1704
   52MOL0     C 6938   8.215   2.901   3.582 -0.5831 -0.3163  0.1839
   52MOL0     C 6939   8.316   2.802   3.570 -0.0836  0.1955 -0.3621
   52MOL0     C 6940   8.716   2.632   3.622  0.0944 -0.5082 -0.6856
   52MOL0     C 6941   8.701   2.493   3.659  0.0347 -0.0358  0.7916
   52MOL0     C 6942   8.814   2.405   3.669  0.0411 -0.0549  0.5506
   52MOL0     C 6943   8.935   2.456   3.627 -0.2305  0.7082  0.6816
   52MOL0     O 6944   9.038   2.366   3.654  0.2636 -0.0419  0.2404
   52MOL0     C 6945   9.179   2.409   3.640 -0.1202 -0.0556 -1.0776
   52MOL0     C 6946   9.267   2.291   3.685  0.4014 -0.6353 -0.0497
   52MOL0     C 6947   9.416   2.340   3.689  0.2601 -0.3798  0.3428
   52MOL0     C 6948   9.486   2.311   3.551 -0.1994  0.1926  0.2630
   52MOL0     C 6949   9.624   2.356   3.560 -0.1047  0.1632  0.4425
   52MOL0     C 6950   9.730   2.405   3.570 -0.3872  0.4473  0.0424
   52MOL0     C 6951   8.952   2.581   3.590 -0.6402 -0.2559  0.4179
   52MOL0     C 6952   8.846   2.670   3.589  0.2153  0.6211 -0.6435
   52MOL0     H 6953   8.406   2.807   3.903 -1.1000 -4.5078  0.3949
   52MOL0     H 6954   8.209   2.984   3.907 -0.7805  2.4249 -1.2862
   52MOL0     H 6955   8.004   3.216   3.602  0.0618 -0.1735 -1.7828
   52MOL0     H 6956   8.106   3.118   3.502  1.0956 -1.6191 -0.5702
   52MOL0     H 6957   7.893   3.069   3.446 -2.2546 -0.0099  1.0370
   52MOL0     H 6958   7.924   2.931   3.552 -3.2679 -0.3384 -1.2191
   52MOL0     H 6959   7.798   3.184   3.664  1.5101 -0.5577  0.3629
   52MOL0     H 6960   7.699   3.060   3.578 -1.6296 -2.2038  3.1913
   52MOL0     H 6961   7.784   2.889   3.740  1.7278  0.4853 -0.5727
   52MOL0     H 6962   7.876   3.024   3.818  0.1462  1.4608 -0.7087
   52MOL0     H 6963   7.658   2.969   3.938  2.3529  0.5348  0.3276
   52MOL0     H 6964   7.691   3.131   3.912  0.3188 -0.6036  0.1953
   52MOL0     H 6965   7.542   3.144   3.708 -2.1992 -1.9430 -1.3510
   52MOL0     H 6966   7.524   2.970   3.709  1.2754 -1.7229  1.6746
   52MOL0     H 6967   7.439   3.137   3.950  0.4757 -0.1531 -0.1188
   52MOL0     H 6968   7.333   3.125   3.808 -2.8720 -0.6091  3.7921
   52MOL0     H 6969   7.328   2.970   4.024 -0.8293  1.3547 -0.1882
   52MOL0     H 6970   7.438   2.868   3.929  1.8797  1.0791  1.7366
   52MOL0     H 6971   7.089   2.891   3.995 -2.6900 -0.4564 -1.2933
   52MOL0     H 6972   6.882   2.667   3.751 -2.7271  0.5144 -2.6868
   52MOL0     H 6973   6.851   2.794   3.875 -2.2133 -3.1506 -0.5378
   52MOL0     H 6974   6.878   2.852   3.579 -2.1894  0.9612 -1.0942
   52MOL0     H 6975   6.839   2.969   3.708  0.6552  0.0723  0.6920
   52MOL0     H 6976   6.650   2.783   3.754 -2.5947 -1.5338 -1.3323
   52MOL0     H 6977   6.698   2.726   3.590 -3.0862  0.5358 -0.9078
   52MOL0     H 6978   6.648   2.944   3.498 -1.0602 -1.8939 -0.9209
   52MOL0     H 6979   6.605   3.010   3.654 -0.4065 -1.2675  0.6653
   52MOL0     H 6980   6.205   2.873   3.632 -0.3313  1.1378  0.0076
   52MOL0     H 6981   5.944   2.890   3.402 -0.5694  0.2186 -0.8043
   52MOL0     H 6982   5.969   2.744   3.510  2.0336 -0.3659  1.8290
   52MOL0     H 6983   5.998   2.913   3.564 -5.9652  0.3897 -0.9210
   52MOL0     H 6984   5.852   2.535   3.136  1.2128  1.0068 -1.7214
   52MOL0     H 6985   5.629   2.539   3.020 -0.0052 -0.1059  1.2122
   52MOL0     H 6986   5.471   2.550   2.888 -1.1539 -0.4493  0.7768
   52MOL0     H 6987   5.369   2.622   3.015  2.0834  0.5240  1.2136
   52MOL0     H 6988   5.249   2.754   2.858  3.6788  3.9660  1.0246
   52MOL0     H 6989   5.345   2.711   2.717 -2.1524 -0.0935 -0.3910
   52MOL0     H 6990   5.217   2.475   2.839 -1.2086 -1.1580 -1.0639
   52MOL0     H 6991   5.310   2.511   2.687  0.2015  1.1722  0.2440
   52MOL0     H 6992   5.050   2.635   2.786 -1.7074 -2.1436  0.1393
   52MOL0     H 6993   5.112   2.682   2.637 -2.7626  0.8652  0.5720
   52MOL0     H 6994   5.028   2.393   2.710  0.9359  0.2484 -0.7932
   52MOL0     H 6995   5.096   2.449   2.548 -0.3784 -0.9084 -1.4170
   52MOL0     H 6996   4.845   2.547   2.689  1.7480  0.3129  1.2170
   52MOL0     H 6997   4.904   2.624   2.550 -1.3572  1.7137  1.7949
   52MOL0     H 6998   4.722   2.436   2.558  0.4251  0.3256 -0.3966
   52MOL0     H 6999   4.847   2.320   2.546 -1.2712 -0.6775  0.7092
   52MOL0     H 7000   4.772   2.360   2.319  1.6124 -0.4793 -2.2068
   52MOL0     H 7001   4.934   2.421   2.344  1.0848  3.0287  1.6709
   52MOL0     H 7002   5.642   2.958   3.012 -1.3379 -0.0021  0.6541
   52MOL0     H 7003   5.880   2.955   3.114  0.9011 -0.8952  2.2459
   52MOL0     H 7004   6.356   2.837   3.152 -0.6090 -2.0169  0.4935
   52MOL0     H 7005   6.531   2.854   3.328  0.0547 -0.6627 -3.3750
   52MOL0     H 7006   8.155   2.917   3.492 -3.7331  1.9032  2.4559
   52MOL0     H 7007   8.340   2.754   3.476 -0.0623 -1.5978  0.5198
   52MOL0     H 7008   8.599   2.468   3.686 -0.6947  0.9428 -0.9241
   52MOL0     H 7009   8.808   2.306   3.713  0.1606  0.2756  1.3163
   52MOL0     H 7010   9.210   2.431   3.537 -1.6593 -0.2414 -1.6078
   52MOL0     H 7011   9.193   2.495   3.705  3.4108  0.1153 -1.8388
   52MOL0     H 7012   9.259   2.205   3.618  0.5474 -3.0402  2.7889
   52MOL0     H 7013   9.237   2.256   3.784  1.7929  0.0792  0.6502
   52MOL0     H 7014   9.475   2.296   3.770 -2.1149 -1.7933  1.4462
   52MOL0     H 7015   9.415   2.449   3.698  3.5123  0.0058 -2.0578
   52MOL0     H 7016   9.438   2.357   3.464 -1.2275  1.3543  1.4139
   52MOL0     H 7017   9.493   2.205   3.526 -0.6415  0.6885 -2.2194
   52MOL0     H 7018   9.832   2.435   3.585 -0.6987  1.2193  0.6920
   52MOL0     H 7019   9.052   2.606   3.555  0.4759 -1.8062  2.2731
   52MOL0     H 7020   8.879   2.773   3.576  0.9274  0.3931 -0.6795
   53MOL0     O 7021   5.525   2.453   2.561  0.7405 -0.0641  0.1828
   53MOL0     C 7022   5.590   2.353   2.585 -0.4217  0.6424  0.1255
   53MOL0     O 7023   5.556   2.225   2.557 -0.6637 -0.0383  0.2317
   53MOL0     C 7024   5.448   2.210   2.477  0.2881  0.3178 -0.7257
   53MOL0     C 7025   5.471   2.196   2.337  0.7895  0.8715  0.1085
   53MOL0     C 7026   5.362   2.174   2.254  0.2954 -0.3430  0.0533
   53MOL0     C 7027   5.232   2.161   2.311  0.2876  0.5347 -0.6534
   53MOL0     O 7028   5.130   2.128   2.218 -0.2107  0.8378 -0.2453
   53MOL0     C 7029   5.105   1.985   2.215 -0.1119 -0.4073  0.0854
   53MOL0     C 7030   4.983   1.953   2.121  0.0020 -0.2556  0.1435
   53MOL0     C 7031   4.875   2.060   2.148  0.0304 -0.0665 -0.4449
   53MOL0     C 7032   4.743   2.033   2.075 -0.4637 -0.0547  0.7072
   53MOL0     C 7033   4.632   2.127   2.108  0.4992 -0.4729 -0.7821
   53MOL0     C 7034   4.509   2.085   2.029 -0.1753 -0.0833  0.1051
   53MOL0     C 7035   4.377   2.123   2.093 -0.5912  0.3227 -0.6680
   53MOL0     C 7036   4.257   2.056   2.023  0.2353 -0.2585 -0.3774
   53MOL0     N 7037   4.137   2.136   2.039  0.9786 -0.6373 -0.2625
   53MOL0     C 7038   4.101   2.202   2.156 -0.6073 -0.7847 -0.9381
   53MOL0     C 7039   3.984   2.262   2.136 -0.4881  0.5082 -0.1053
   53MOL0     C 7040   3.918   2.340   2.237 -0.2340 -0.1929  1.0663
   53MOL0     C 7041   3.779   2.275   2.278  0.2558  0.0771  0.8028
   53MOL0     C 7042   3.668   2.299   2.166  0.0987  0.7506 -0.2746
   53MOL0     C 7043   3.530   2.268   2.216  0.7184  0.6133  0.0258
   53MOL0     O 7044   3.500   2.361   2.326  0.2842 -0.0643 -0.5438
   53MOL0     C 7045   3.370   2.373   2.372  0.4125 -0.9063  0.9591
   53MOL0     C 7046   3.326   2.471   2.466 -0.5566  0.8391 -0.3450
   53MOL0     C 7047   3.200   2.479   2.535  0.6603 -0.0952  1.2206
   53MOL0     C 7048   3.185   2.580   2.640 -0.3080 -0.1678 -0.0682
   53MOL0     C 7049   3.097   2.395   2.490  0.0169  0.2713  0.3426
   53MOL0     C 7050   2.955   2.391   2.545 -0.3914  0.8097  0.3040
   53MOL0     O 7051   2.871   2.309   2.474 -0.3324 -0.3315 -0.8517
   53MOL0     C 7052   2.742   2.320   2.503  0.5894  0.4966 -0.7498
   53MOL0     C 7053   2.670   2.274   2.615 -0.0374 -0.1026  1.1188
   53MOL0     C 7054   2.533   2.309   2.630  0.2116 -0.5599 -0.2711
   53MOL0     C 7055   2.474   2.404   2.548  0.0166 -0.4048 -0.6041
   53MOL0     O 7056   2.346   2.454   2.575 -0.2940 -0.4363 -0.1698
   53MOL0     C 7057   2.256   2.491   2.476 -0.3944 -0.6554  0.3242
   53MOL0     C 7058   2.113   2.505   2.523 -0.2729  0.2345 -0.4466
   53MOL0     C 7059   2.035   2.372   2.516  0.0504  0.3452 -0.1812
   53MOL0     C 7060   1.898   2.382   2.583  0.1732 -0.1408  0.5307
   53MOL0     C 7061   1.822   2.253   2.589  0.3071  0.0360 -0.9544
   53MOL0     C 7062   1.687   2.251   2.656 -0.3312 -0.4869 -0.0561
   53MOL0     C 7063   1.611   2.122   2.662  0.6939  0.0127  0.7747
   53MOL0     C 7064   1.522   2.113   2.782 -1.4752 -0.1543  0.2243
   53MOL0    Cl 7065   1.398   1.996   2.761 -0.4404 -0.0874 -0.1326
   53MOL0     C 7066   2.543   2.445   2.439 -0.0669  0.2451  1.1996
   53MOL0     C 7067   2.672   2.398   2.415  0.0423 -0.3245  0.3766
   53MOL0     O 7068   2.917   2.467   2.632 -0.2452 -0.2547  0.0973
   53MOL0     C 7069   3.133   2.307   2.381  0.4599  0.0321 -0.2091
   53MOL0     C 7070   3.261   2.295   2.327 -0.3975 -0.3944  0.2379
   53MOL0     N 7071   3.947   2.236   2.006  0.4713 -0.0448 -0.8283
   53MOL0     N 7072   4.048   2.176   1.942  0.0658  0.5566  0.1466
   53MOL0     C 7073   5.216   2.162   2.449  0.5695  0.0586 -0.4744
   53MOL0     C 7074   5.321   2.186   2.538 -0.7084 -0.3481  0.5360
   53MOL0     C 7075   5.710   2.366   2.664 -0.6215 -0.3903  0.1449
   53MOL0     C 7076   5.803   2.260   2.680  0.5315  0.1195  0.7450
   53MOL0     C 7077   5.924   2.282   2.746 -0.1596 -1.0348 -0.1493
   53MOL0     C 7078   5.953   2.402   2.812  0.0934  0.3591 -0.7744
   53MOL0     O 7079   6.068   2.399   2.890 -0.1069  0.5628  0.0757
   53MOL0     C 7080   6.116   2.520   2.953  1.0783  0.3535  0.0252
   53MOL0     C 7081   6.237   2.495   3.029  0.5993  0.3761 -0.3984
   53MOL0     C 7082   6.353   2.460   2.938 -0.7525 -0.2222 -0.9337
   53MOL0     C 7083   6.484   2.490   3.009 -0.5679 -0.3579  0.8207
   53MOL0     C 7084   6.588   2.417   2.939  0.5064 -0.5735  0.0036
   53MOL0     C 7085   6.677   2.342   2.899 -0.1865  0.8691  0.4706
   53MOL0     C 7086   5.862   2.509   2.797  0.7615  0.4066 -0.0942
   53MOL0     C 7087   5.749   2.487   2.718 -0.1495 -0.4900  0.6690
   53MOL0     H 7088   5.573   2.200   2.302  0.9084 -0.8968  0.1650
   53MOL0     H 7089   5.378   2.157   2.148 -0.8598 -1.4449  0.0388
   53MOL0     H 7090   5.192   1.927   2.185  1.0873  1.2827  0.1754
   53MOL0     H 7091   5.081   1.952   2.316  2.0757 -1.2557  0.3642
   53MOL0     H 7092   5.003   1.937   2.015 -0.7537  0.5153 -0.1308
   53MOL0     H 7093   4.948   1.855   2.153 -1.3180 -0.8378 -2.7223
   53MOL0     H 7094   4.852   2.070   2.254  0.5295 -2.9727  0.0297
   53MOL0     H 7095   4.914   2.157   2.115 -1.7650  1.8345  2.6111
   53MOL0     H 7096   4.761   2.026   1.968  1.9397 -1.0309  1.1078
   53MOL0     H 7097   4.714   1.930   2.100 -0.5825 -0.0594  0.5471
   53MOL0     H 7098   4.598   2.114   2.211  0.5081 -0.9945 -0.8411
   53MOL0     H 7099   4.655   2.232   2.087  2.5343 -1.0240 -1.5424
   53MOL0     H 7100   4.521   2.151   1.942 -0.5985  0.4023  0.4082
   53MOL0     H 7101   4.512   1.978   2.007 -1.7442 -0.2790  0.7417
   53MOL0     H 7102   4.376   2.088   2.197  1.4645 -0.9510 -1.0256
   53MOL0     H 7103   4.366   2.232   2.095 -1.9737  0.1989  0.8122
   53MOL0     H 7104   4.254   1.961   2.077  0.5308 -0.1646 -0.1958
   53MOL0     H 7105   4.273   2.038   1.916  0.9364 -0.2669 -0.2767
   53MOL0     H 7106   4.158   2.217   2.247 -3.1226 -1.3278  0.8062
   53MOL0     H 7107   3.976   2.339   2.330  3.3335  0.8964 -0.9414
   53MOL0     H 7108   3.896   2.442   2.206 -2.0939 -0.7788  0.3038
   53MOL0     H 7109   3.759   2.325   2.373 -0.0418  1.7277 -0.0908
   53MOL0     H 7110   3.796   2.171   2.307 -0.3430 -0.0509  0.7109
   53MOL0     H 7111   3.687   2.225   2.087  1.4623 -2.7199  3.0071
   53MOL0     H 7112   3.683   2.402   2.133  0.6267  0.4467 -1.0295
   53MOL0     H 7113   3.517   2.163   2.244 -0.7283  0.2677 -1.7398
   53MOL0     H 7114   3.471   2.295   2.128  1.4078 -3.4133 -1.9010
   53MOL0     H 7115   3.411   2.514   2.518  0.3979 -2.8717  1.5224
   53MOL0     H 7116   3.094   2.639   2.629 -0.9619 -1.3861 -1.6163
   53MOL0     H 7117   3.175   2.523   2.733 -5.3550 -0.9410 -0.8138
   53MOL0     H 7118   3.271   2.647   2.639  0.9360 -1.6786  1.0425
   53MOL0     H 7119   2.726   2.212   2.684 -2.0385  0.7222  3.6171
   53MOL0     H 7120   2.489   2.273   2.722  0.7536 -1.6694 -0.4316
   53MOL0     H 7121   2.291   2.588   2.440 -0.6217 -1.1219 -1.2492
   53MOL0     H 7122   2.266   2.418   2.395 -2.1595 -1.7352  0.9969
   53MOL0     H 7123   2.122   2.554   2.620  1.3503  3.0209 -1.8515
   53MOL0     H 7124   2.064   2.587   2.469 -0.8773  0.5894  0.6178
   53MOL0     H 7125   2.095   2.303   2.576 -2.7852 -0.5204  1.8659
   53MOL0     H 7126   2.029   2.342   2.411 -0.1425 -1.3913  0.2909
   53MOL0     H 7127   1.895   2.424   2.684  1.4735  0.4615  0.3479
   53MOL0     H 7128   1.838   2.455   2.528  0.0768  0.8473  1.8937
   53MOL0     H 7129   1.885   2.181   2.642 -2.5775 -0.6065  1.8773
   53MOL0     H 7130   1.814   2.221   2.484  0.0163 -0.8942 -0.6545
   53MOL0     H 7131   1.699   2.297   2.755 -0.5205  0.7740 -0.5918
   53MOL0     H 7132   1.631   2.322   2.593  2.8243  1.9651 -0.3718
   53MOL0     H 7133   1.676   2.035   2.652 -0.1663 -0.4494 -1.3719
   53MOL0     H 7134   1.544   2.125   2.576 -1.0175 -1.7333  1.9768
   53MOL0     H 7135   1.477   2.212   2.793 -0.8109  0.2478 -0.5542
   53MOL0     H 7136   1.577   2.105   2.876 -4.0179  1.2431  1.9609
   53MOL0     H 7137   2.494   2.498   2.359 -2.4867 -1.0715  1.7274
   53MOL0     H 7138   2.719   2.442   2.327 -0.0713 -1.0658 -0.0600
   53MOL0     H 7139   3.052   2.252   2.333  1.7302 -1.6170 -0.5693
   53MOL0     H 7140   3.274   2.232   2.240  0.8952  1.8650 -1.2787
   53MOL0     H 7141   5.117   2.140   2.488  0.1608  0.9826 -0.9577
   53MOL0     H 7142   5.318   2.183   2.647  3.0234 -1.7595  0.7595
   53MOL0     H 7143   5.777   2.171   2.622 -2.5458  0.4782  1.3687
   53MOL0     H 7144   5.997   2.201   2.748  0.9800 -0.1119 -1.8988
   53MOL0     H 7145   6.117   2.605   2.885 -1.8919 -0.0217 -0.6695
   53MOL0     H 7146   6.037   2.545   3.025  0.9594 -1.7608  0.7296
   53MOL0     H 7147   6.211   2.413   3.097  0.9881  1.4651  1.1255
   53MOL0     H 7148   6.255   2.586   3.088 -1.3162  0.9845 -0.7012
   53MOL0     H 7149   6.353   2.519   2.846  1.6856  0.0465 -0.8150
   53MOL0     H 7150   6.342   2.354   2.912 -3.3299 -0.1216 -0.5313
   53MOL0     H 7151   6.482   2.473   3.117  1.9719 -0.5471  0.8999
   53MOL0     H 7152   6.499   2.598   2.998  3.4691 -1.0014 -3.0849
   53MOL0     H 7153   6.763   2.283   2.876  1.4230  2.3805  2.2614
   53MOL0     H 7154   5.890   2.610   2.822 -3.8454  1.9775 -0.3678
   53MOL0     H 7155   5.685   2.573   2.699  0.4541 -0.0276  0.6879
   54MOL0     O 7156   7.440   5.993   4.095  0.0112  0.2150  0.7142
   54MOL0     C 7157   7.353   6.072   4.121  0.8047  0.1372  0.2268
   54MOL0     O 7158   7.216   6.048   4.118 -0.1058  0.8067 -0.2431
   54MOL0     C 7159   7.151   5.935   4.087  0.7715  1.0237 -0.4127
   54MOL0     C 7160   7.011   5.944   4.054 -0.9960 -0.0659  0.1751
   54MOL0     C 7161   6.933   5.831   4.039  0.3100  0.0060 -0.1789
   54MOL0     C 7162   6.986   5.697   4.037 -0.4137 -0.5699 -0.2740
   54MOL0     O 7163   6.896   5.608   3.988 -0.0660  0.3515  0.7045
   54MOL0     C 7164   6.928   5.468   4.005  1.4950  0.8579 -0.1524
   54MOL0     C 7165   6.818   5.379   3.938  0.3888 -0.5028 -0.2198
   54MOL0     C 7166   6.808   5.240   4.006 -0.1221 -0.4310 -1.0243
   54MOL0     C 7167   6.719   5.144   3.924 -0.0030 -0.9386 -0.3649
   54MOL0     C 7168   6.576   5.195   3.913 -0.5622  0.1192  0.2009
   54MOL0     C 7169   6.481   5.082   3.881 -0.1676 -0.2258  0.4802
   54MOL0     C 7170   6.464   4.982   3.991 -0.0983 -0.1874  0.8013
   54MOL0     C 7171   6.321   4.922   3.980 -0.1458  0.2979  1.3964
   54MOL0     N 7172   6.296   4.856   3.854  0.0686 -0.3355 -0.1870
   54MOL0     C 7173   6.343   4.732   3.833  0.3482  0.2858 -0.0381
   54MOL0     C 7174   6.304   4.705   3.697  0.0892 -0.5177 -0.1930
   54MOL0     C 7175   6.325   4.581   3.623  0.2261  0.5066  0.1442
   54MOL0     C 7176   6.184   4.508   3.615 -0.4580 -0.1899  0.3020
   54MOL0     C 7177   6.201   4.385   3.521  0.4000 -0.6333  0.1898
   54MOL0     C 7178   6.055   4.333   3.513  1.3192 -0.1652 -0.4322
   54MOL0     O 7179   6.008   4.266   3.628 -0.0134 -0.3619 -0.4890
   54MOL0     C 7180   5.926   4.163   3.609  0.9387 -0.0624  1.0382
   54MOL0     C 7181   5.820   4.169   3.513 -0.4319 -0.5122 -0.4188
   54MOL0     C 7182   5.728   4.072   3.511 -0.6690 -0.0797  0.4469
   54MOL0     C 7183   5.625   4.079   3.401  0.0827 -0.2947  0.0347
   54MOL0     C 7184   5.730   3.958   3.602  0.7462  0.1817  0.0366
   54MOL0     C 7185   5.636   3.835   3.598 -0.5530 -0.3431  0.3534
   54MOL0     O 7186   5.556   3.824   3.490  0.3587  0.0217  0.9414
   54MOL0     C 7187   5.474   3.719   3.459 -0.1168 -0.3553 -0.6278
   54MOL0     C 7188   5.464   3.588   3.516 -0.0652 -0.6397  0.1900
   54MOL0     C 7189   5.372   3.492   3.481  0.3442  1.0713  0.4366
   54MOL0     C 7190   5.285   3.519   3.369 -0.0135  0.5316  0.3052
   54MOL0     O 7191   5.195   3.438   3.319 -0.3645  0.5662 -0.1251
   54MOL0     C 7192   5.194   3.290   3.343 -0.0378  0.4189  0.7739
   54MOL0     C 7193   5.069   3.246   3.267  0.0522  0.4117  0.2186
   54MOL0     C 7194   5.091   3.244   3.115  0.6424  0.0337  0.2426
   54MOL0     C 7195   4.950   3.239   3.049  0.2287 -0.4177  0.0077
   54MOL0     C 7196   4.878   3.379   3.047  0.3687 -1.1129 -0.2781
   54MOL0     C 7197   4.752   3.410   2.953  0.4916 -0.0436  0.4347
   54MOL0     C 7198   4.645   3.304   2.954 -0.1997  0.2742  0.6599
   54MOL0     C 7199   4.540   3.343   2.855 -0.5383 -0.3393  1.2475
   54MOL0    Cl 7200   4.401   3.230   2.858  0.3088  0.4666 -0.2350
   54MOL0     C 7201   5.285   3.643   3.311 -0.9124 -0.6042  0.0950
   54MOL0     C 7202   5.377   3.745   3.357  0.0804 -1.3554  0.5577
   54MOL0     O 7203   5.633   3.761   3.694 -0.1802  0.5763 -0.4850
   54MOL0     C 7204   5.850   3.949   3.680  0.0177  0.1335 -0.5808
   54MOL0     C 7205   5.946   4.054   3.689 -1.0556  0.0473  0.3487
   54MOL0     N 7206   6.250   4.821   3.649 -0.1854 -1.0742 -0.0778
   54MOL0     N 7207   6.240   4.910   3.748  0.6301 -0.0491  0.2572
   54MOL0     C 7208   7.119   5.686   4.074  0.4085 -0.2387  0.5032
   54MOL0     C 7209   7.198   5.801   4.105 -0.0290 -0.6489 -1.2026
   54MOL0     C 7210   7.386   6.200   4.175  0.3794 -0.0517 -0.3504
   54MOL0     C 7211   7.502   6.203   4.253 -0.0160 -0.7096 -0.8495
   54MOL0     C 7212   7.552   6.329   4.294 -0.3428 -0.5717  0.3634
   54MOL0     C 7213   7.495   6.450   4.256 -0.1420 -0.4133  0.9438
   54MOL0     O 7214   7.542   6.576   4.268 -0.0462 -0.4215 -0.2415
   54MOL0     C 7215   7.673   6.603   4.319 -0.4485 -0.6044 -0.0100
   54MOL0     C 7216   7.774   6.571   4.202  0.9553  0.1200  0.3624
   54MOL0     C 7217   7.915   6.616   4.232  0.4148  0.0269 -0.3663
   54MOL0     C 7218   7.966   6.556   4.362 -0.0446  0.1185 -0.2361
   54MOL0     C 7219   8.110   6.531   4.357  0.4413  0.1430  0.4194
   54MOL0     C 7220   8.225   6.516   4.346  0.6739 -0.7386  0.1643
   54MOL0     C 7221   7.375   6.439   4.193  0.3510 -0.5116 -0.5113
   54MOL0     C 7222   7.320   6.316   4.154  0.5479 -0.6267  0.6208
   54MOL0     H 7223   6.972   6.041   4.023  1.3095  0.4073 -1.4934
   54MOL0     H 7224   6.828   5.848   4.016  0.1701 -1.2393 -0.5511
   54MOL0     H 7225   7.013   5.438   3.944 -0.7530 -1.2026 -2.5274
   54MOL0     H 7226   6.946   5.435   4.107 -0.2885  0.6455  0.1345
   54MOL0     H 7227   6.728   5.441   3.945  0.7815  0.7737 -3.9836
   54MOL0     H 7228   6.845   5.370   3.832  0.9084 -0.7748 -0.0666
   54MOL0     H 7229   6.908   5.196   4.019 -0.5218 -0.5025  3.5918
   54MOL0     H 7230   6.767   5.249   4.107 -2.0442  1.5448 -1.9090
   54MOL0     H 7231   6.775   5.124   3.833  1.9442  0.4534  0.4457
   54MOL0     H 7232   6.720   5.048   3.976  0.3893 -0.4764  0.5207
   54MOL0     H 7233   6.551   5.236   4.011 -0.0192  0.8367  0.0514
   54MOL0     H 7234   6.577   5.292   3.862 -0.7687  0.5838  1.0505
   54MOL0     H 7235   6.388   5.135   3.858 -1.3072 -1.6100  1.6518
   54MOL0     H 7236   6.509   5.032   3.787 -3.0818 -3.1440  0.9927
   54MOL0     H 7237   6.540   4.904   3.981 -0.4192 -0.5150  0.8551
   54MOL0     H 7238   6.485   5.018   4.092 -1.6533 -1.3097  1.5871
   54MOL0     H 7239   6.242   4.997   3.994  1.4025  2.7011 -1.3433
   54MOL0     H 7240   6.308   4.846   4.058  1.4823 -1.4704  0.0481
   54MOL0     H 7241   6.400   4.673   3.905  0.6198  2.6071  1.7528
   54MOL0     H 7242   6.372   4.594   3.525  1.9520  2.1837  1.1301
   54MOL0     H 7243   6.393   4.517   3.680 -0.6581  0.1818  0.8443
   54MOL0     H 7244   6.123   4.581   3.560  2.6520  0.3555 -2.8191
   54MOL0     H 7245   6.144   4.486   3.714  2.0743 -0.9537  1.2373
   54MOL0     H 7246   6.268   4.313   3.569  2.1467  0.7542 -0.0620
   54MOL0     H 7247   6.234   4.415   3.421 -3.4912 -0.7867 -1.2998
   54MOL0     H 7248   6.051   4.264   3.428 -2.7155 -1.2047  0.3913
   54MOL0     H 7249   5.981   4.408   3.484  1.1726 -0.8908 -2.0592
   54MOL0     H 7250   5.815   4.254   3.446 -1.2829 -2.5138 -3.0678
   54MOL0     H 7251   5.534   4.065   3.460  1.6569  0.7139  2.9787
   54MOL0     H 7252   5.616   4.179   3.357 -1.1866  0.3113  1.5457
   54MOL0     H 7253   5.637   4.010   3.318  1.0167 -0.4143  0.2587
   54MOL0     H 7254   5.545   3.565   3.584  1.7258 -0.4574 -1.7983
   54MOL0     H 7255   5.364   3.396   3.531  2.6670  0.1991 -0.7363
   54MOL0     H 7256   5.287   3.245   3.307 -0.4589 -2.8653  3.2414
   54MOL0     H 7257   5.174   3.258   3.446 -1.1019 -2.9377 -0.3165
   54MOL0     H 7258   5.033   3.145   3.285 -0.6866  0.6789  0.2761
   54MOL0     H 7259   4.985   3.316   3.278  1.8129  3.0966 -1.9317
   54MOL0     H 7260   5.139   3.147   3.102  1.3050  0.1004  1.9126
   54MOL0     H 7261   5.154   3.328   3.083  0.6074  0.6209  1.6318
   54MOL0     H 7262   4.973   3.205   2.948  2.1200 -1.6870  0.8019
   54MOL0     H 7263   4.882   3.161   3.082  1.8722 -1.2666  1.5679
   54MOL0     H 7264   4.949   3.457   3.018  0.2823 -0.2686  1.6339
   54MOL0     H 7265   4.844   3.396   3.150  0.0354 -1.6629 -0.2937
   54MOL0     H 7266   4.712   3.509   2.976 -1.7960 -0.4457 -1.3800
   54MOL0     H 7267   4.785   3.416   2.849  1.6058 -0.0365  0.7765
   54MOL0     H 7268   4.607   3.290   3.055 -1.1552  0.1163  0.2936
   54MOL0     H 7269   4.689   3.213   2.913  0.1807  0.0585  1.5366
   54MOL0     H 7270   4.581   3.336   2.754 -1.1391 -0.3431  0.9997
   54MOL0     H 7271   4.496   3.443   2.867  1.7767  0.8216  0.6583
   54MOL0     H 7272   5.224   3.661   3.222  0.7496 -1.2876 -1.2369
   54MOL0     H 7273   5.378   3.842   3.307  0.3294 -2.8802 -2.7006
   54MOL0     H 7274   5.860   3.860   3.742  0.7817  1.0480  0.6569
   54MOL0     H 7275   6.034   4.049   3.752  1.3761 -1.2107 -2.9185
   54MOL0     H 7276   7.160   5.586   4.083 -0.6605 -0.7333  0.1418
   54MOL0     H 7277   7.298   5.789   4.143 -0.7775  2.0726  2.0924
   54MOL0     H 7278   7.558   6.114   4.278  1.4124  0.8087  1.7669
   54MOL0     H 7279   7.645   6.335   4.350 -1.1777  2.3684  1.6132
   54MOL0     H 7280   7.672   6.708   4.346 -0.7677 -0.1926 -1.4890
   54MOL0     H 7281   7.699   6.540   4.404  0.2059  0.1677  0.3659
   54MOL0     H 7282   7.741   6.621   4.110 -1.5134 -0.6075  0.7578
   54MOL0     H 7283   7.778   6.466   4.172 -1.6459  0.0651 -0.0772
   54MOL0     H 7284   7.924   6.724   4.240 -1.5551  0.2467 -0.6451
   54MOL0     H 7285   7.970   6.574   4.148 -3.8376 -1.2873 -2.8133
   54MOL0     H 7286   7.917   6.461   4.387  3.0637 -1.6192 -0.1557
   54MOL0     H 7287   7.953   6.630   4.441  2.3733 -1.1269  1.4663
   54MOL0     H 7288   8.328   6.487   4.337  1.4065  2.1339 -1.9743
   54MOL0     H 7289   7.330   6.530   4.154  2.7545  1.3543  0.7930
   54MOL0     H 7290   7.231   6.326   4.093  0.3101  0.7354  1.1470
   55MOL0     O 7291   1.022   4.132   8.586  0.1305 -0.6980  0.0583
   55MOL0     C 7292   1.120   4.061   8.615 -0.0179 -0.0283  0.1912
   55MOL0     O 7293   1.149   3.940   8.553 -0.5576  0.0205 -0.6633
   55MOL0     C 7294   1.050   3.875   8.483  0.2209  0.1596  0.6298
   55MOL0     C 7295   0.965   3.783   8.534 -0.0830  0.5322  0.0772
   55MOL0     C 7296   0.869   3.734   8.446 -0.3930  0.0499  0.3716
   55MOL0     C 7297   0.852   3.782   8.312  0.2191  0.0915 -0.5866
   55MOL0     O 7298   0.756   3.741   8.230  0.4469  0.5353 -0.5193
   55MOL0     C 7299   0.672   3.630   8.268 -1.2427 -0.6406 -0.1693
   55MOL0     C 7300   0.592   3.568   8.155 -1.0091 -0.5223 -0.0858
   55MOL0     C 7301   0.480   3.652   8.100 -0.8396 -0.1832 -0.9034
   55MOL0     C 7302   0.410   3.575   7.996  0.7300  0.0779  0.2786
   55MOL0     C 7303   0.309   3.670   7.920  0.4812 -0.3072 -0.2186
   55MOL0     C 7304   0.250   3.600   7.795 -0.5279 -0.4791  0.9714
   55MOL0     C 7305   0.156   3.690   7.706 -0.1718 -0.3109  0.4222
   55MOL0     C 7306   0.160   3.646   7.559  0.0019  0.0880  0.1905
   55MOL0     N 7307   0.116   3.753   7.464  0.0530 -0.4008 -1.0300
   55MOL0     C 7308   0.083   3.728   7.334  0.4955  0.5207 -0.2579
   55MOL0     C 7309   0.063   3.852   7.280 -0.8502  0.0498 -0.3413
   55MOL0     C 7310   0.048   3.865   7.131  0.5794 -0.2994 -0.3821
   55MOL0     C 7311   0.186   3.832   7.070 -0.0909  0.3564  0.6732
   55MOL0     C 7312   0.178   3.835   6.911  0.4416 -1.0062  0.6598
   55MOL0     C 7313   0.306   3.780   6.849 -0.9286  0.6525 -0.0415
   55MOL0     O 7314   0.406   3.862   6.897  0.0020 -0.2839 -0.7149
   55MOL0     C 7315   0.535   3.846   6.849  0.3041 -0.0422  0.2554
   55MOL0     C 7316   0.624   3.803   6.941 -0.4886  0.7124  0.5359
   55MOL0     C 7317   0.760   3.787   6.908 -1.1159 -0.1060  0.2963
   55MOL0     C 7318   0.848   3.737   7.016 -0.2523 -0.3467 -0.5231
   55MOL0     C 7319   0.801   3.817   6.780 -0.9242 -0.6385  0.0651
   55MOL0     C 7320   0.943   3.804   6.736  1.2827  0.2894 -0.7807
   55MOL0     O 7321   1.018   3.694   6.775  0.0888 -0.0952  0.3053
   55MOL0     C 7322   1.151   3.678   6.729  0.5453  0.4950 -0.7042
   55MOL0     C 7323   1.175   3.672   6.590  0.1325 -0.6363 -0.0220
   55MOL0     C 7324   1.300   3.640   6.534 -1.2866 -0.1903 -0.9467
   55MOL0     C 7325   1.410   3.622   6.620  0.4655  0.0155  0.6540
   55MOL0     O 7326   1.528   3.584   6.555 -0.2608 -0.8338  0.7033
   55MOL0     C 7327   1.652   3.583   6.628  0.6654 -0.8977 -0.3625
   55MOL0     C 7328   1.769   3.544   6.547  0.3132  0.8201  0.4425
   55MOL0     C 7329   1.801   3.649   6.433  0.3049 -0.4299 -0.2187
   55MOL0     C 7330   1.923   3.607   6.360 -0.2054 -0.0186 -0.2666
   55MOL0     C 7331   1.985   3.734   6.290  0.1109 -0.5853 -0.1942
   55MOL0     C 7332   2.077   3.691   6.175 -0.4963 -0.9940  0.2827
   55MOL0     C 7333   2.175   3.580   6.214 -0.0129  0.2358  0.5800
   55MOL0     C 7334   2.292   3.568   6.117 -0.8354  0.1266  0.0663
   55MOL0    Cl 7335   2.445   3.638   6.182  0.2490  0.2371  0.0452
   55MOL0     C 7336   1.389   3.635   6.755  0.2700  0.3222  0.3939
   55MOL0     C 7337   1.259   3.663   6.808  0.7235  0.2788 -0.3119
   55MOL0     O 7338   0.983   3.896   6.671  0.0729 -0.0780  0.0140
   55MOL0     C 7339   0.704   3.859   6.688  0.5555 -0.6206  0.1627
   55MOL0     C 7340   0.571   3.870   6.715 -0.3522 -0.0163 -0.0018
   55MOL0     N 7341   0.057   3.946   7.377  0.1569  1.1118  0.2612
   55MOL0     N 7342   0.094   3.893   7.489  0.5050 -1.0289 -0.1424
   55MOL0     C 7343   0.946   3.869   8.260 -0.1067  0.4577  0.4426
   55MOL0     C 7344   1.049   3.912   8.348  0.5040  0.0774  0.7399
   55MOL0     C 7345   1.220   4.108   8.711  0.3816  0.5209 -0.5647
   55MOL0     C 7346   1.325   4.021   8.743  0.0358  0.4798 -0.4918
   55MOL0     C 7347   1.414   4.063   8.843  1.0898  0.9091 -0.6497
   55MOL0     C 7348   1.409   4.194   8.907 -0.7491  0.4223  0.3876
   55MOL0     O 7349   1.496   4.229   9.005 -1.0468  0.1849  0.0530
   55MOL0     C 7350   1.617   4.161   9.020 -0.4900 -0.2710 -0.5899
   55MOL0     C 7351   1.700   4.239   9.111  1.2436 -0.1557  0.5707
   55MOL0     C 7352   1.643   4.250   9.257 -0.6736 -0.2182 -0.5021
   55MOL0     C 7353   1.712   4.360   9.338 -0.0191 -0.0382  0.2096
   55MOL0     C 7354   1.666   4.374   9.476  0.0383 -0.9303  0.4877
   55MOL0     C 7355   1.632   4.382   9.586 -0.3769 -0.4493 -1.8324
   55MOL0     C 7356   1.306   4.279   8.861  0.3384  0.0991  0.2524
   55MOL0     C 7357   1.211   4.237   8.772 -0.3245 -1.3928  0.4911
   55MOL0     H 7358   0.967   3.769   8.641  0.4344  1.2598  0.1669
   55MOL0     H 7359   0.800   3.662   8.489 -0.2404  0.7007  1.7664
   55MOL0     H 7360   0.731   3.546   8.307  0.3296  0.5162  0.0736
   55MOL0     H 7361   0.599   3.664   8.341 -0.8757  0.4168 -0.2836
   55MOL0     H 7362   0.660   3.535   8.076 -0.5229  1.2903 -0.4661
   55MOL0     H 7363   0.532   3.492   8.206 -1.8992 -1.1210 -1.9397
   55MOL0     H 7364   0.405   3.670   8.177  0.3536  3.0978 -0.3405
   55MOL0     H 7365   0.511   3.752   8.066 -4.2263  1.9965  1.7594
   55MOL0     H 7366   0.484   3.540   7.924 -0.8908 -2.7404 -0.2022
   55MOL0     H 7367   0.357   3.487   8.035  0.0068  0.5467  0.3888
   55MOL0     H 7368   0.229   3.707   7.984  0.4216  1.1327 -1.0691
   55MOL0     H 7369   0.368   3.755   7.883 -0.5584  0.1149 -0.9552
   55MOL0     H 7370   0.331   3.568   7.730 -0.0957  1.2015  0.6390
   55MOL0     H 7371   0.178   3.523   7.824  1.6602 -2.3492  1.6973
   55MOL0     H 7372   0.056   3.708   7.746  0.5156  3.6974  0.8034
   55MOL0     H 7373   0.198   3.792   7.710 -0.2127 -0.3013  0.6178
   55MOL0     H 7374   0.080   3.573   7.545 -2.6208  2.3209  2.3495
   55MOL0     H 7375   0.261   3.614   7.532  0.7872  1.3642  1.4460
   55MOL0     H 7376   0.095   3.631   7.287  2.2677  0.9081 -0.7243
   55MOL0     H 7377  -0.025   3.790   7.098  0.0479  0.7246 -1.6212
   55MOL0     H 7378   0.012   3.966   7.106 -0.6095 -0.5225  0.3453
   55MOL0     H 7379   0.205   3.727   7.096 -0.4715  0.2324  0.4442
   55MOL0     H 7380   0.263   3.904   7.101  0.1846  0.0523  0.7063
   55MOL0     H 7381   0.167   3.935   6.868  2.4371 -2.3423 -3.4837
   55MOL0     H 7382   0.088   3.776   6.893 -0.0563 -0.5512  1.6240
   55MOL0     H 7383   0.292   3.788   6.740  2.5588 -0.3522 -0.6627
   55MOL0     H 7384   0.325   3.674   6.867  0.5933  1.0674  1.0305
   55MOL0     H 7385   0.596   3.767   7.040  0.9256 -2.4711 -0.0897
   55MOL0     H 7386   0.797   3.741   7.112 -0.2550 -0.3968 -0.5220
   55MOL0     H 7387   0.876   3.632   6.997  1.4919 -0.2065  1.0651
   55MOL0     H 7388   0.943   3.789   7.027 -0.0783 -0.4720 -1.3502
   55MOL0     H 7389   1.099   3.683   6.514  1.5891 -1.0101 -1.5951
   55MOL0     H 7390   1.302   3.616   6.428 -1.9141  1.1576 -1.2884
   55MOL0     H 7391   1.684   3.669   6.687  1.0643  1.1678 -3.3528
   55MOL0     H 7392   1.629   3.510   6.707 -0.5786 -0.9729 -0.7750
   55MOL0     H 7393   1.863   3.560   6.601  1.1166 -0.2306 -0.5795
   55MOL0     H 7394   1.761   3.441   6.510  2.0919  0.8661 -0.1400
   55MOL0     H 7395   1.825   3.744   6.483 -0.6224  1.2936 -2.8147
   55MOL0     H 7396   1.721   3.679   6.365 -0.2187  1.5941  1.1913
   55MOL0     H 7397   1.999   3.579   6.433 -0.1195 -3.0408 -1.3955
   55MOL0     H 7398   1.901   3.518   6.302  1.6770 -1.7830  1.5479
   55MOL0     H 7399   2.041   3.799   6.359  1.3470 -2.6128  0.8196
   55MOL0     H 7400   1.907   3.799   6.248 -2.5538 -4.3137 -1.4978
   55MOL0     H 7401   2.008   3.654   6.098 -1.1774 -0.1309  0.4718
   55MOL0     H 7402   2.126   3.780   6.136 -3.1935  0.1362 -0.7418
   55MOL0     H 7403   2.118   3.486   6.209  1.7053 -0.8608  0.7147
   55MOL0     H 7404   2.216   3.588   6.316  1.2075  0.7777  0.0611
   55MOL0     H 7405   2.261   3.611   6.022 -1.9595 -0.2148  0.2646
   55MOL0     H 7406   2.317   3.462   6.100 -2.7629 -0.0293 -2.3155
   55MOL0     H 7407   1.472   3.632   6.825 -0.1687 -1.2189  0.8900
   55MOL0     H 7408   1.248   3.669   6.916  0.7511  0.0145 -0.2951
   55MOL0     H 7409   0.720   3.881   6.583 -3.8360  1.0469 -0.3985
   55MOL0     H 7410   0.485   3.904   6.659 -0.9773 -0.7745  0.4748
   55MOL0     H 7411   0.933   3.906   8.159 -1.6262  0.2207  0.5145
   55MOL0     H 7412   1.115   3.990   8.312 -0.1618  0.8575  1.1875
   55MOL0     H 7413   1.328   3.919   8.707  1.4751  0.6669 -0.9428
   55MOL0     H 7414   1.498   3.997   8.863  1.4342  0.3208 -3.5889
   55MOL0     H 7415   1.603   4.058   9.057 -1.7625 -0.4906 -1.6045
   55MOL0     H 7416   1.658   4.152   8.919  1.4534 -1.0286  0.2222
   55MOL0     H 7417   1.705   4.341   9.072 -4.6234  1.3643  2.7564
   55MOL0     H 7418   1.798   4.191   9.112  1.7818  0.8720 -0.1569
   55MOL0     H 7419   1.684   4.156   9.295  1.1587  0.5701 -0.4584
   55MOL0     H 7420   1.534   4.243   9.263 -0.5632 -3.0493 -0.2767
   55MOL0     H 7421   1.691   4.460   9.299 -0.5920 -0.1232  0.2916
   55MOL0     H 7422   1.821   4.349   9.336  0.4723  2.2758  4.0365
   55MOL0     H 7423   1.618   4.389   9.692  1.6518  4.5412 -1.6277
   55MOL0     H 7424   1.318   4.377   8.906  1.4553  0.1847 -0.1899
   55MOL0     H 7425   1.137   4.302   8.727  1.6183  1.2807  0.9098
   56MOL0     O 7426   1.480   3.114   0.592 -0.5677 -0.4002 -0.1146
   56MOL0     C 7427   1.536   3.060   0.497 -0.9927  0.4484 -0.3900
   56MOL0     O 7428   1.472   2.995   0.400  0.4436  0.2320 -0.5209
   56MOL0     C 7429   1.339   2.995   0.407  0.7992  0.3544  0.2021
   56MOL0     C 7430   1.257   2.918   0.489 -0.0779  0.5930 -0.6931
   56MOL0     C 7431   1.122   2.933   0.481 -0.4323  0.7635 -0.5117
   56MOL0     C 7432   1.066   3.015   0.383  0.7728  0.8322  0.1089
   56MOL0     O 7433   0.931   3.024   0.356  0.2049  0.4494  0.2072
   56MOL0     C 7434   0.848   2.920   0.413  0.1521  0.4416 -0.5456
   56MOL0     C 7435   0.696   2.962   0.413  0.3189  0.3363 -0.2929
   56MOL0     C 7436   0.638   2.999   0.270 -0.0227 -0.0720  0.7187
   56MOL0     C 7437   0.486   3.005   0.282 -0.1126  0.1096  0.0716
   56MOL0     C 7438   0.427   3.015   0.138  0.0099  0.6193 -0.2418
   56MOL0     C 7439   0.274   2.996   0.142  0.5956  0.1667 -0.5389
   56MOL0     C 7440   0.224   2.956   0.002 -0.8658  1.0707 -0.0976
   56MOL0     C 7441   0.072   2.964  -0.009 -0.9871  0.3965  0.6109
   56MOL0     N 7442   0.031   2.903  -0.141 -0.6653  0.2870 -0.5919
   56MOL0     C 7443  -0.084   2.927  -0.208 -0.6725  0.1058  0.2695
   56MOL0     C 7444  -0.066   2.864  -0.329  0.5935  0.2783  0.0261
   56MOL0     C 7445  -0.182   2.861  -0.422 -0.2694  0.4851  0.0469
   56MOL0     C 7446  -0.142   2.879  -0.574 -0.0691 -0.5576  0.6995
   56MOL0     C 7447  -0.264   2.844  -0.672 -0.3571 -0.2086  0.0797
   56MOL0     C 7448  -0.384   2.938  -0.646 -0.1056  0.2018  0.0050
   56MOL0     O 7449  -0.355   3.076  -0.676 -0.0812  0.4087  0.0533
   56MOL0     C 7450  -0.433   3.184  -0.643  0.4148  0.8883 -0.1767
   56MOL0     C 7451  -0.376   3.308  -0.629 -0.0781  0.0201 -0.6673
   56MOL0     C 7452  -0.445   3.417  -0.568 -0.6379  0.2612 -0.1113
   56MOL0     C 7453  -0.363   3.542  -0.534  0.5097  0.6204  0.4834
   56MOL0     C 7454  -0.587   3.402  -0.556 -0.3832  0.5755 -0.3776
   56MOL0     C 7455  -0.674   3.521  -0.535  0.1280 -0.1136  0.3522
   56MOL0     O 7456  -0.808   3.489  -0.499 -0.1664  0.2119 -1.2859
   56MOL0     C 7457  -0.917   3.560  -0.529  0.1783  1.1306 -0.8029
   56MOL0     C 7458  -0.930   3.651  -0.634  0.3736  0.2644  0.1325
   56MOL0     C 7459  -1.054   3.705  -0.659 -0.2718  0.2648 -0.1135
   56MOL0     C 7460  -1.171   3.674  -0.586 -0.3450  0.8884  0.7389
   56MOL0     O 7461  -1.289   3.735  -0.610  0.2482  0.6122 -0.0587
   56MOL0     C 7462  -1.404   3.695  -0.526 -0.4774  0.3208 -0.4872
   56MOL0     C 7463  -1.517   3.795  -0.539  0.0257  0.2978 -0.1730
   56MOL0     C 7464  -1.534   3.827  -0.686 -0.4484  0.4171 -0.4950
   56MOL0     C 7465  -1.660   3.917  -0.708  0.2663 -0.2724 -0.0319
   56MOL0     C 7466  -1.686   3.977  -0.850  0.3722  0.6457 -0.3352
   56MOL0     C 7467  -1.558   4.038  -0.900  0.2847  0.7798 -0.1113
   56MOL0     C 7468  -1.585   4.110  -1.032  0.0128  0.5812  0.3490
   56MOL0     C 7469  -1.492   4.218  -1.076 -0.9878 -0.1740  0.0174
   56MOL0    Cl 7470  -1.331   4.138  -1.089 -0.0591  0.2072  0.0799
   56MOL0     C 7471  -1.156   3.568  -0.492 -0.7071 -0.6099 -1.1113
   56MOL0     C 7472  -1.028   3.524  -0.461  0.2400  0.1408 -0.0944
   56MOL0     O 7473  -0.636   3.635  -0.570  0.2018  0.2738 -0.5055
   56MOL0     C 7474  -0.648   3.281  -0.575  0.2857  0.1392  0.5092
   56MOL0     C 7475  -0.570   3.171  -0.614 -0.3977  0.5855 -0.1397
   56MOL0     N 7476   0.047   2.799  -0.337 -0.8967  0.3430  0.7702
   56MOL0     N 7477   0.111   2.823  -0.222  0.3512  0.3935  0.9871
   56MOL0     C 7478   1.148   3.089   0.300 -1.0149  0.2402 -0.3150
   56MOL0     C 7479   1.283   3.084   0.313 -0.4290  0.4086 -0.3473
   56MOL0     C 7480   1.687   3.066   0.493 -0.2152 -0.7102 -0.1510
   56MOL0     C 7481   1.769   3.099   0.597  0.6096 -0.4440 -0.3654
   56MOL0     C 7482   1.913   3.108   0.588  0.0552 -0.2247  0.9690
   56MOL0     C 7483   1.966   3.099   0.456 -0.5728  0.0842 -0.6402
   56MOL0     O 7484   2.106   3.110   0.452 -0.1468 -0.1435 -0.1082
   56MOL0     C 7485   2.165   3.175   0.339 -0.0999  1.4032 -0.0831
   56MOL0     C 7486   2.269   3.265   0.394  0.4883  0.2170  0.3546
   56MOL0     C 7487   2.366   3.178   0.467  0.3839 -0.2841  0.1542
   56MOL0     C 7488   2.486   3.253   0.523 -0.3269 -0.2170  0.1373
   56MOL0     C 7489   2.592   3.266   0.413  0.2487  0.0767  0.0358
   56MOL0     C 7490   2.670   3.288   0.321 -0.6546 -0.2545 -0.0491
   56MOL0     C 7491   1.885   3.076   0.349 -0.1313  0.0046 -1.3803
   56MOL0     C 7492   1.753   3.053   0.365  0.4104 -0.5760  0.0219
   56MOL0     H 7493   1.309   2.841   0.546 -0.8491  1.0201  0.6365
   56MOL0     H 7494   1.055   2.866   0.535 -0.6098  1.5044  0.1932
   56MOL0     H 7495   0.859   2.820   0.370 -0.1383 -0.7965  2.0485
   56MOL0     H 7496   0.867   2.916   0.521  1.4463 -1.6513 -0.8059
   56MOL0     H 7497   0.644   2.872   0.447  1.4074  0.0403  0.6523
   56MOL0     H 7498   0.688   3.043   0.487  3.1722  1.0491 -0.6580
   56MOL0     H 7499   0.688   3.090   0.235  1.2092 -1.3968 -1.1068
   56MOL0     H 7500   0.661   2.916   0.203 -0.1434  0.9136 -0.5705
   56MOL0     H 7501   0.444   2.925   0.344 -0.5692  1.9477  2.2834
   56MOL0     H 7502   0.463   3.096   0.338 -0.8166 -0.8229  1.3429
   56MOL0     H 7503   0.455   3.111   0.093 -2.4882 -0.4912 -4.7733
   56MOL0     H 7504   0.478   2.934   0.086 -0.3493  1.4887 -2.0332
   56MOL0     H 7505   0.232   2.927   0.217 -2.6931  2.5051  0.0024
   56MOL0     H 7506   0.228   3.093   0.163  1.1393  0.8091 -2.2145
   56MOL0     H 7507   0.272   3.029  -0.064  1.9059  3.1772  3.8497
   56MOL0     H 7508   0.265   2.856  -0.009 -0.8474  0.9582  0.9057
   56MOL0     H 7509   0.025   3.062  -0.005  0.2957  1.2199 -2.0436
   56MOL0     H 7510   0.039   2.904   0.077 -0.7550  1.6537  1.5908
   56MOL0     H 7511  -0.174   2.977  -0.175 -0.2725  0.7477  0.3889
   56MOL0     H 7512  -0.223   2.760  -0.411  2.5619 -0.5844  1.7961
   56MOL0     H 7513  -0.257   2.934  -0.390  3.1066  4.2396  0.2625
   56MOL0     H 7514  -0.064   2.811  -0.612  0.6467 -0.6412  2.2524
   56MOL0     H 7515  -0.112   2.982  -0.593  0.1109 -0.5079  1.2354
   56MOL0     H 7516  -0.289   2.738  -0.658  1.5483 -0.7572 -0.2968
   56MOL0     H 7517  -0.232   2.852  -0.777 -2.0004 -3.0920 -0.7635
   56MOL0     H 7518  -0.421   2.928  -0.543 -0.4206  1.6233  0.0568
   56MOL0     H 7519  -0.458   2.891  -0.711  0.0823 -0.7273  0.4490
   56MOL0     H 7520  -0.273   3.316  -0.664  0.7015 -0.7290  1.2619
   56MOL0     H 7521  -0.359   3.598  -0.628 -1.8324 -0.0015 -0.0597
   56MOL0     H 7522  -0.395   3.609  -0.454  0.1830  1.4280 -0.2999
   56MOL0     H 7523  -0.267   3.496  -0.507 -0.3031 -0.1118  2.2814
   56MOL0     H 7524  -0.845   3.671  -0.698 -0.4326  0.4536 -0.8996
   56MOL0     H 7525  -1.081   3.781  -0.732  0.3332  0.5887 -0.0042
   56MOL0     H 7526  -1.436   3.595  -0.555  1.4542 -0.6860  0.6533
   56MOL0     H 7527  -1.364   3.700  -0.424  1.2516 -1.3092 -1.0299
   56MOL0     H 7528  -1.604   3.765  -0.479 -0.3564  3.2260  0.9133
   56MOL0     H 7529  -1.503   3.888  -0.482 -3.5727  0.9562 -0.1066
   56MOL0     H 7530  -1.560   3.746  -0.754  0.4062  0.3616 -0.7669
   56MOL0     H 7531  -1.448   3.882  -0.727  0.8928 -1.5346 -0.4332
   56MOL0     H 7532  -1.749   3.862  -0.675 -0.9309  1.3923 -0.3769
   56MOL0     H 7533  -1.644   4.005  -0.645  2.4880  0.4182 -1.4535
   56MOL0     H 7534  -1.764   4.053  -0.843 -2.0038 -1.6665 -0.2664
   56MOL0     H 7535  -1.718   3.903  -0.924  1.3686  0.0317 -0.1756
   56MOL0     H 7536  -1.512   4.109  -0.830 -2.3233  1.7695  0.7129
   56MOL0     H 7537  -1.484   3.962  -0.927 -0.6774  0.4890 -2.1207
   56MOL0     H 7538  -1.686   4.150  -1.031 -1.7237 -3.3315  1.9576
   56MOL0     H 7539  -1.577   4.037  -1.112 -1.2173 -1.3895  1.9310
   56MOL0     H 7540  -1.486   4.296  -0.999 -1.6491 -1.7026  1.6786
   56MOL0     H 7541  -1.527   4.271  -1.165 -1.9278  1.0418  1.0702
   56MOL0     H 7542  -1.248   3.524  -0.457 -0.5188  1.2001  1.9775
   56MOL0     H 7543  -1.012   3.456  -0.378 -0.1348 -1.3361 -1.2087
   56MOL0     H 7544  -0.755   3.266  -0.576  0.6447 -3.1682  0.5544
   56MOL0     H 7545  -0.618   3.074  -0.622 -0.3021  0.4541  0.7672
   56MOL0     H 7546   1.097   3.150   0.226  1.2275 -0.3349 -2.4691
   56MOL0     H 7547   1.348   3.144   0.250  0.5640  3.3706  3.1449
   56MOL0     H 7548   1.721   3.109   0.694  0.2702 -1.2671 -0.4446
   56MOL0     H 7549   1.975   3.143   0.670  1.4230  2.4324 -1.0340
   56MOL0     H 7550   2.214   3.105   0.270 -0.6375  0.4592  0.4634
   56MOL0     H 7551   2.096   3.232   0.275  1.4243 -0.3376 -3.5455
   56MOL0     H 7552   2.233   3.344   0.460  0.0403  2.1833 -2.0892
   56MOL0     H 7553   2.319   3.311   0.308  1.4567 -1.2195  0.1069
   56MOL0     H 7554   2.391   3.093   0.403 -0.9073 -0.4369 -0.1831
   56MOL0     H 7555   2.321   3.141   0.560  0.3759 -1.6111 -0.3542
   56MOL0     H 7556   2.529   3.187   0.599 -1.6461 -2.4134 -0.9535
   56MOL0     H 7557   2.452   3.344   0.574 -1.3125 -1.3579  1.5839
   56MOL0     H 7558   2.733   3.335   0.249 -0.5268  0.0597  0.2637
   56MOL0     H 7559   1.929   3.061   0.251  1.9463 -4.9207 -0.0093
   56MOL0     H 7560   1.693   3.026   0.279 -0.2987  0.6773  0.0977
   57MOL0     O 7561   4.974   4.051   2.436  0.6282 -0.0590 -0.2353
   57MOL0     C 7562   4.966   4.048   2.557  1.1210 -0.1115 -0.0233
   57MOL0     O 7563   5.061   4.096   2.647 -0.0759  0.8226 -0.4364
   57MOL0     C 7564   5.184   4.126   2.591 -0.2684  0.0918  0.2906
   57MOL0     C 7565   5.286   4.027   2.583 -0.2156 -0.1346 -0.1956
   57MOL0     C 7566   5.390   4.048   2.499  0.0741  0.0040 -0.4166
   57MOL0     C 7567   5.400   4.157   2.417 -0.2003 -0.4943  0.1385
   57MOL0     O 7568   5.503   4.176   2.322  0.2477  0.7690  0.1186
   57MOL0     C 7569   5.516   4.300   2.252  0.2153 -0.2474  0.3735
   57MOL0     C 7570   5.661   4.324   2.216 -0.5103 -0.5489 -0.0255
   57MOL0     C 7571   5.756   4.408   2.308 -0.3576 -0.5907 -0.5508
   57MOL0     C 7572   5.782   4.335   2.439  0.0404 -0.1071  0.9298
   57MOL0     C 7573   5.931   4.279   2.444 -0.1334  0.1052  0.0062
   57MOL0     C 7574   6.037   4.384   2.473 -0.0618 -0.3654 -0.0284
   57MOL0     C 7575   6.174   4.318   2.450 -0.2453  0.4905  0.6569
   57MOL0     C 7576   6.257   4.309   2.582  0.4546 -0.6196  1.1058
   57MOL0     N 7577   6.199   4.200   2.659 -0.5769  0.1502 -0.0440
   57MOL0     C 7578   6.224   4.069   2.655  0.1249 -0.0598 -0.4940
   57MOL0     C 7579   6.128   4.006   2.723  0.4512  0.2535 -0.7297
   57MOL0     C 7580   6.123   3.858   2.750 -0.1646  0.1685 -0.6124
   57MOL0     C 7581   5.985   3.800   2.779  0.5284  0.4763 -0.7443
   57MOL0     C 7582   5.901   3.784   2.653 -0.1736 -0.3205 -0.0102
   57MOL0     C 7583   5.755   3.729   2.703 -0.4835  0.5212 -0.9209
   57MOL0     O 7584   5.672   3.718   2.592  0.3320  0.6319 -0.3594
   57MOL0     C 7585   5.543   3.674   2.601  0.8094  0.0298  0.3610
   57MOL0     C 7586   5.500   3.607   2.714 -0.3481  0.5950  0.0447
   57MOL0     C 7587   5.373   3.561   2.726  0.3078 -0.1594 -0.3847
   57MOL0     C 7588   5.348   3.489   2.860  0.4123  0.2967  0.5737
   57MOL0     C 7589   5.273   3.595   2.623 -0.4959  1.5061  0.7751
   57MOL0     C 7590   5.129   3.566   2.637  0.9125  0.5753 -0.3972
   57MOL0     O 7591   5.055   3.606   2.532  0.4198 -0.9403 -0.1144
   57MOL0     C 7592   4.926   3.567   2.525  0.2562 -0.3194  0.0423
   57MOL0     C 7593   4.877   3.485   2.421 -1.1540  0.0330  0.5279
   57MOL0     C 7594   4.743   3.459   2.403  0.0989  0.4509  0.1135
   57MOL0     C 7595   4.656   3.509   2.496  0.1131 -0.3025 -0.1382
   57MOL0     O 7596   4.520   3.481   2.505 -0.0127 -0.0423 -0.5704
   57MOL0     C 7597   4.454   3.434   2.388  0.0858  0.3675 -0.4604
   57MOL0     C 7598   4.297   3.462   2.400 -0.5223  0.3668  0.5258
   57MOL0     C 7599   4.240   3.376   2.515  0.5487  0.1666 -0.7774
   57MOL0     C 7600   4.228   3.226   2.494  0.8339 -0.6101 -0.1307
   57MOL0     C 7601   4.162   3.142   2.605  0.6858 -0.0202 -0.1860
   57MOL0     C 7602   4.013   3.094   2.578 -0.2169  0.9857 -0.2231
   57MOL0     C 7603   3.925   3.212   2.579  0.8000 -0.5536 -0.2245
   57MOL0     C 7604   3.783   3.175   2.554 -0.8633 -0.7076 -0.7411
   57MOL0    Cl 7605   3.677   3.317   2.539  0.2442 -0.0268  0.4674
   57MOL0     C 7606   4.702   3.605   2.592 -0.1107  1.3163 -0.2940
   57MOL0     C 7607   4.836   3.636   2.605  0.6563 -0.6072 -0.2191
   57MOL0     O 7608   5.075   3.546   2.742 -0.5954  0.4978  0.3413
   57MOL0     C 7609   5.324   3.662   2.510 -0.2711 -0.9249 -0.2966
   57MOL0     C 7610   5.457   3.704   2.495  0.5759  0.3309 -0.1351
   57MOL0     N 7611   6.047   4.101   2.780  0.0166 -0.4175  0.5123
   57MOL0     N 7612   6.088   4.217   2.741 -0.2259  0.4930 -0.2409
   57MOL0     C 7613   5.298   4.257   2.427  0.1030 -1.1780 -0.3677
   57MOL0     C 7614   5.195   4.240   2.514 -0.7781  0.0258 -0.8581
   57MOL0     C 7615   4.840   4.011   2.613  0.4605 -0.5644 -0.2073
   57MOL0     C 7616   4.739   3.964   2.533 -0.3149 -1.0824  0.2615
   57MOL0     C 7617   4.616   3.920   2.583 -0.2621  0.3793  0.4277
   57MOL0     C 7618   4.587   3.942   2.719 -0.1820  0.1189  0.8108
   57MOL0     O 7619   4.474   3.907   2.788 -0.1018 -0.1004 -0.6655
   57MOL0     C 7620   4.376   3.846   2.704 -0.2799 -0.6735  0.0690
   57MOL0     C 7621   4.250   3.796   2.778 -0.4991 -0.0127 -0.1604
   57MOL0     C 7622   4.176   3.680   2.714  0.2972 -1.0074  0.2546
   57MOL0     C 7623   4.034   3.659   2.788 -0.7061 -0.0075 -0.0414
   57MOL0     C 7624   3.921   3.639   2.699  0.2468  0.1989  0.1896
   57MOL0     C 7625   3.818   3.611   2.649  0.0965  0.1449  0.1381
   57MOL0     C 7626   4.680   4.008   2.796  0.2167  0.0203  0.9261
   57MOL0     C 7627   4.808   4.032   2.748  0.4990 -1.5040 -0.2959
   57MOL0     H 7628   5.274   3.935   2.639  1.4022 -0.7828 -0.8332
   57MOL0     H 7629   5.467   3.976   2.474  1.2691  1.0139  0.2019
   57MOL0     H 7630   5.459   4.298   2.159 -0.1147 -0.8706  0.5805
   57MOL0     H 7631   5.484   4.393   2.301  1.7233  1.8041 -2.2699
   57MOL0     H 7632   5.714   4.230   2.197  2.6119  0.6390  2.0682
   57MOL0     H 7633   5.665   4.368   2.116 -0.4979  0.4769  0.4149
   57MOL0     H 7634   5.847   4.440   2.257 -1.3694  3.3972 -0.1909
   57MOL0     H 7635   5.705   4.502   2.331 -0.2987 -0.3245 -1.4865
   57MOL0     H 7636   5.761   4.395   2.528  1.5819 -0.0652  1.3001
   57MOL0     H 7637   5.712   4.251   2.433 -0.2062 -0.1631  3.4841
   57MOL0     H 7638   5.935   4.206   2.526 -1.7788  1.6504  1.5199
   57MOL0     H 7639   5.948   4.224   2.350 -1.6322 -1.7843  0.7687
   57MOL0     H 7640   6.025   4.472   2.410 -0.7258 -1.6847 -1.8378
   57MOL0     H 7641   6.019   4.404   2.579 -1.9037 -2.5177  0.1380
   57MOL0     H 7642   6.164   4.217   2.407 -0.9672  1.6708 -2.2255
   57MOL0     H 7643   6.231   4.376   2.376 -0.4608 -1.7994 -1.4475
   57MOL0     H 7644   6.238   4.406   2.629 -1.7350 -0.9014  0.9186
   57MOL0     H 7645   6.360   4.291   2.549  0.3282 -0.7889  0.8042
   57MOL0     H 7646   6.313   4.032   2.603 -1.2543  1.2292 -4.1154
   57MOL0     H 7647   6.173   3.814   2.663  2.2819  1.5049  0.0409
   57MOL0     H 7648   6.183   3.829   2.837 -1.7722 -3.0860 -0.4461
   57MOL0     H 7649   5.935   3.873   2.843 -3.0159  0.5988 -3.3795
   57MOL0     H 7650   5.995   3.700   2.824 -0.5744  0.6679 -0.0423
   57MOL0     H 7651   5.945   3.730   2.569 -0.6662  0.1759 -0.5985
   57MOL0     H 7652   5.873   3.883   2.613 -1.5143 -0.8700 -0.4943
   57MOL0     H 7653   5.703   3.805   2.763 -0.6405  0.3278 -0.8081
   57MOL0     H 7654   5.754   3.636   2.761  4.0120 -0.1560 -1.5586
   57MOL0     H 7655   5.560   3.609   2.805 -0.8003  1.6174  0.3272
   57MOL0     H 7656   5.286   3.400   2.849 -0.0876  0.6352  0.5991
   57MOL0     H 7657   5.436   3.468   2.920  0.6350  0.9859  0.5042
   57MOL0     H 7658   5.286   3.559   2.917 -1.0051 -0.4625  0.0330
   57MOL0     H 7659   4.953   3.453   2.351 -0.0548 -2.8197  2.8345
   57MOL0     H 7660   4.716   3.387   2.327  1.3071 -0.9706  0.9574
   57MOL0     H 7661   4.501   3.485   2.304  1.1692  1.4253  0.7527
   57MOL0     H 7662   4.475   3.328   2.371  2.7896  0.9767 -1.3740
   57MOL0     H 7663   4.294   3.569   2.421  0.9746  0.1146  2.2522
   57MOL0     H 7664   4.245   3.437   2.306  3.9423 -0.8352 -1.9127
   57MOL0     H 7665   4.141   3.414   2.539  0.9618 -0.0259  1.4605
   57MOL0     H 7666   4.288   3.385   2.613  1.1595  0.9034 -1.1328
   57MOL0     H 7667   4.178   3.198   2.401 -0.0484 -0.3907  0.2711
   57MOL0     H 7668   4.328   3.182   2.484  1.5184 -0.2489  3.6095
   57MOL0     H 7669   4.188   3.196   2.696  0.8937 -1.1045  0.4108
   57MOL0     H 7670   4.209   3.044   2.612 -1.6275 -1.1498  0.4127
   57MOL0     H 7671   4.011   3.045   2.480  0.8307 -4.7557  2.2809
   57MOL0     H 7672   3.977   3.015   2.644 -0.7123  2.4520  1.3312
   57MOL0     H 7673   3.956   3.279   2.499  1.3497  1.7530  1.8206
   57MOL0     H 7674   3.936   3.273   2.669 -1.5111  0.2085 -0.3866
   57MOL0     H 7675   3.749   3.125   2.645 -2.4408  2.0190  0.2968
   57MOL0     H 7676   3.781   3.111   2.466  3.7340  0.7417 -2.2106
   57MOL0     H 7677   4.625   3.651   2.654 -0.7229 -0.6501  0.4819
   57MOL0     H 7678   4.859   3.713   2.678  1.7282  0.4767 -1.6444
   57MOL0     H 7679   5.261   3.686   2.424  0.9305  2.9975 -0.2753
   57MOL0     H 7680   5.491   3.761   2.409 -0.7297  0.2034 -0.7630
   57MOL0     H 7681   5.294   4.336   2.352 -1.5653  0.9846  1.8601
   57MOL0     H 7682   5.119   4.318   2.509  0.8947  1.7388 -0.9869
   57MOL0     H 7683   4.762   3.940   2.430  3.0222  0.5890  0.4793
   57MOL0     H 7684   4.563   3.854   2.515  0.1446  0.4806  0.0007
   57MOL0     H 7685   4.339   3.917   2.629 -1.0833 -0.1690  0.9355
   57MOL0     H 7686   4.419   3.760   2.651  0.3552 -1.7619  2.2571
   57MOL0     H 7687   4.184   3.879   2.803 -0.5027 -0.4739  1.4986
   57MOL0     H 7688   4.290   3.761   2.874  1.1998 -1.2001 -1.2375
   57MOL0     H 7689   4.234   3.587   2.711 -0.2681 -1.4234  1.5588
   57MOL0     H 7690   4.160   3.716   2.612  1.1297  2.6940  1.2661
   57MOL0     H 7691   4.011   3.733   2.865 -2.2214 -1.3465  0.8687
   57MOL0     H 7692   4.046   3.568   2.847 -1.8812 -0.9182 -1.1685
   57MOL0     H 7693   3.722   3.591   2.606 -1.2954  0.9573  2.6554
   57MOL0     H 7694   4.670   4.019   2.904 -1.9251  1.6648  0.6196
   57MOL0     H 7695   4.890   4.066   2.810  0.7267 -1.1352 -0.7890
   58MOL0     O 7696   1.878   9.740   4.148  0.6913  0.2041 -0.1374
   58MOL0     C 7697   1.917   9.760   4.264  0.5269 -0.1705  0.6103
   58MOL0     O 7698   1.839   9.757   4.374  0.2490 -0.0071 -0.1602
   58MOL0     C 7699   1.710   9.729   4.362 -0.4110 -0.3445  0.7296
   58MOL0     C 7700   1.669   9.603   4.313 -0.3060 -0.3417 -0.6123
   58MOL0     C 7701   1.531   9.573   4.295 -0.4579 -0.1040 -0.2830
   58MOL0     C 7702   1.436   9.673   4.312 -0.2492 -0.0356 -0.3179
   58MOL0     O 7703   1.299   9.641   4.300 -1.2830  0.3767 -0.4578
   58MOL0     C 7704   1.191   9.681   4.384 -0.4390 -0.1259  0.0133
   58MOL0     C 7705   1.062   9.604   4.354  0.0668  0.4014 -0.5551
   58MOL0     C 7706   0.937   9.643   4.432 -0.8931 -0.0234 -1.0968
   58MOL0     C 7707   0.819   9.564   4.391 -0.1239  0.0505 -0.0360
   58MOL0     C 7708   0.694   9.633   4.446 -0.0648 -0.0909 -0.6505
   58MOL0     C 7709   0.579   9.541   4.406  0.3091 -0.2300  0.3784
   58MOL0     C 7710   0.457   9.573   4.485  0.2451  0.3198  0.2497
   58MOL0     C 7711   0.347   9.499   4.414 -0.1332  0.3454  0.2896
   58MOL0     N 7712   0.321   9.362   4.464  0.5405 -0.6792 -0.8561
   58MOL0     C 7713   0.304   9.317   4.597 -0.2875 -0.2938 -0.8876
   58MOL0     C 7714   0.248   9.196   4.580  0.1525  0.2080 -0.5914
   58MOL0     C 7715   0.183   9.107   4.692  0.1270 -0.4418 -0.6125
   58MOL0     C 7716   0.033   9.142   4.694 -0.0637  0.1494 -0.7697
   58MOL0     C 7717  -0.041   9.059   4.793  0.2579  0.8997 -0.2947
   58MOL0     C 7718  -0.194   9.066   4.766  0.0345  0.0822  0.1307
   58MOL0     O 7719  -0.280   9.027   4.872  0.1892  0.3105 -0.4872
   58MOL0     C 7720  -0.342   9.120   4.952 -0.5509  0.8017  1.1089
   58MOL0     C 7721  -0.287   9.246   4.974  0.4310 -0.0809 -0.4232
   58MOL0     C 7722  -0.348   9.336   5.061  0.3328 -0.5093 -1.1287
   58MOL0     C 7723  -0.286   9.473   5.105  0.0963  0.1269  0.7569
   58MOL0     C 7724  -0.475   9.306   5.109 -0.2360  0.5163  0.0263
   58MOL0     C 7725  -0.564   9.406   5.176 -0.2369 -0.8657  0.0082
   58MOL0     O 7726  -0.641   9.357   5.270  0.6157  0.6572 -0.3570
   58MOL0     C 7727  -0.719   9.434   5.353  0.1553  0.9795  0.7187
   58MOL0     C 7728  -0.858   9.416   5.331 -0.2981 -0.1211 -0.5579
   58MOL0     C 7729  -0.949   9.480   5.408  0.3802 -0.6199 -0.0757
   58MOL0     C 7730  -0.908   9.549   5.525 -0.2046 -1.7330 -0.0304
   58MOL0     O 7731  -0.993   9.609   5.624  0.1026 -0.3230  0.3003
   58MOL0     C 7732  -1.136   9.605   5.584 -0.4702  0.6668 -0.3659
   58MOL0     C 7733  -1.222   9.679   5.693  0.4155  0.9014  0.9285
   58MOL0     C 7734  -1.180   9.828   5.689 -0.6496  0.0852  0.6067
   58MOL0     C 7735  -1.263   9.916   5.778  0.9556  0.8069 -0.1148
   58MOL0     C 7736  -1.235  10.065   5.762  0.7121  0.4474  0.0722
   58MOL0     C 7737  -1.249  10.123   5.625  0.0021  0.6573 -1.1787
   58MOL0     C 7738  -1.200  10.273   5.623  0.7318  0.6430 -0.1294
   58MOL0     C 7739  -1.306  10.357   5.686 -0.7664 -0.3553 -0.7363
   58MOL0    Cl 7740  -1.235  10.512   5.756 -0.1778 -0.2169  0.1282
   58MOL0     C 7741  -0.768   9.576   5.538  0.0191  0.7341  0.0095
   58MOL0     C 7742  -0.675   9.516   5.453 -0.1485 -0.5911 -0.0933
   58MOL0     O 7743  -0.564   9.524   5.143 -0.3763 -0.0893 -0.4337
   58MOL0     C 7744  -0.530   9.180   5.086 -0.8357 -0.5896 -0.5512
   58MOL0     C 7745  -0.463   9.085   5.008 -0.2426 -0.6379  0.5373
   58MOL0     N 7746   0.249   9.167   4.444 -0.2267  0.7592 -0.9516
   58MOL0     N 7747   0.292   9.266   4.377  0.5984  0.2414 -0.7670
   58MOL0     C 7748   1.475   9.803   4.354 -0.3022  0.1435 -0.1785
   58MOL0     C 7749   1.612   9.833   4.379  0.1607 -0.4686 -0.2826
   58MOL0     C 7750   2.060   9.783   4.274 -0.6956  0.4799  0.4658
   58MOL0     C 7751   2.140   9.786   4.158 -0.8816  0.2155 -0.0432
   58MOL0     C 7752   2.279   9.804   4.166  0.5062 -0.4560 -0.4829
   58MOL0     C 7753   2.340   9.826   4.292 -0.6269 -0.7121 -0.7090
   58MOL0     O 7754   2.482   9.842   4.299  0.9723  0.2271 -0.3249
   58MOL0     C 7755   2.548   9.880   4.423 -0.1891 -0.5756  0.9728
   58MOL0     C 7756   2.695   9.919   4.401 -0.0236 -0.4579 -0.7489
   58MOL0     C 7757   2.695  10.050   4.327  0.4638 -0.2626 -0.4891
   58MOL0     C 7758   2.809  10.064   4.230 -0.1059 -0.4746  0.2414
   58MOL0     C 7759   2.933  10.048   4.299 -0.1193  0.4809 -0.1445
   58MOL0     C 7760   3.032  10.044   4.374 -0.3742  0.3333  0.3624
   58MOL0     C 7761   2.256   9.834   4.409  0.2307  0.4980 -0.0170
   58MOL0     C 7762   2.118   9.805   4.398  0.1013  0.7637 -0.0475
   58MOL0     H 7763   1.741   9.526   4.285  0.3401 -0.7100  1.8159
   58MOL0     H 7764   1.493   9.477   4.262 -1.8603 -0.3145  1.7355
   58MOL0     H 7765   1.216   9.675   4.491 -1.6371 -0.9027  0.2593
   58MOL0     H 7766   1.178   9.785   4.353 -0.1335  0.0288  0.3914
   58MOL0     H 7767   1.043   9.618   4.247 -2.8298  0.1888 -0.1574
   58MOL0     H 7768   1.082   9.500   4.379  2.2220  0.9954  0.3785
   58MOL0     H 7769   0.941   9.616   4.538 -0.1505 -1.6375 -1.5115
   58MOL0     H 7770   0.922   9.749   4.408 -0.7217  0.1844 -0.3274
   58MOL0     H 7771   0.807   9.561   4.282 -0.6605 -3.1019  0.0385
   58MOL0     H 7772   0.836   9.466   4.435  2.9891  0.8260  0.7541
   58MOL0     H 7773   0.693   9.632   4.555  3.1842 -0.3693 -0.5139
   58MOL0     H 7774   0.659   9.727   4.403 -1.5702 -0.7657 -0.9708
   58MOL0     H 7775   0.563   9.563   4.300  0.5730 -1.0856  0.1545
   58MOL0     H 7776   0.613   9.438   4.424 -3.0804 -1.2636  1.7289
   58MOL0     H 7777   0.471   9.541   4.588 -1.3033 -3.6613 -0.5978
   58MOL0     H 7778   0.431   9.678   4.469 -2.1367 -0.6935 -3.9584
   58MOL0     H 7779   0.369   9.498   4.307  1.9561  1.1974  0.6591
   58MOL0     H 7780   0.253   9.552   4.431  0.7429  1.3422  2.4127
   58MOL0     H 7781   0.335   9.375   4.682  3.4948 -0.2110 -2.1441
   58MOL0     H 7782   0.207   9.000   4.694  1.5768 -0.2029 -2.4026
   58MOL0     H 7783   0.224   9.147   4.785 -0.7017  0.8381 -0.7708
   58MOL0     H 7784  -0.016   9.118   4.600 -1.8446  1.5876 -0.2706
   58MOL0     H 7785   0.012   9.246   4.720 -3.1892 -0.3491 -0.9133
   58MOL0     H 7786  -0.015   9.087   4.896  1.9231 -2.4928  0.3747
   58MOL0     H 7787  -0.013   8.953   4.797 -1.1592  0.5420  1.8476
   58MOL0     H 7788  -0.226   8.996   4.688 -0.3048 -0.2138  0.5295
   58MOL0     H 7789  -0.217   9.161   4.717  1.4588  0.6168  0.4447
   58MOL0     H 7790  -0.196   9.281   4.928  0.5996 -0.5535 -0.4518
   58MOL0     H 7791  -0.295   9.479   5.214  0.8778 -1.9720  0.9792
   58MOL0     H 7792  -0.179   9.477   5.083  0.3940 -3.0994  1.0972
   58MOL0     H 7793  -0.345   9.551   5.056 -1.8127 -0.4490  2.0186
   58MOL0     H 7794  -0.890   9.359   5.244 -0.2839  0.5466 -1.0163
   58MOL0     H 7795  -1.051   9.457   5.379  0.1424  1.0673 -0.7115
   58MOL0     H 7796  -1.164   9.653   5.489 -2.1590 -0.7027 -0.6045
   58MOL0     H 7797  -1.179   9.505   5.574  0.3731  0.2146  0.4088
   58MOL0     H 7798  -1.324   9.671   5.655  1.0622  2.3531 -1.2432
   58MOL0     H 7799  -1.207   9.637   5.793  1.6755 -1.5603 -0.2092
   58MOL0     H 7800  -1.196   9.858   5.585  1.9307  0.8479  0.3562
   58MOL0     H 7801  -1.072   9.833   5.707 -0.4879 -0.3163 -0.1764
   58MOL0     H 7802  -1.362   9.895   5.738  1.0257  1.1273 -0.4570
   58MOL0     H 7803  -1.269   9.872   5.878 -2.3619  0.0650 -0.5498
   58MOL0     H 7804  -1.130  10.077   5.789  0.6387  0.2641  0.4444
   58MOL0     H 7805  -1.306  10.110   5.832 -0.9760 -1.4919 -0.2941
   58MOL0     H 7806  -1.179  10.063   5.566  0.6976 -1.2243  1.3882
   58MOL0     H 7807  -1.352  10.119   5.587 -1.3975 -0.9440  2.3543
   58MOL0     H 7808  -1.190  10.307   5.520 -0.9462 -1.9368 -1.2331
   58MOL0     H 7809  -1.109  10.275   5.685  1.9172 -0.6340 -1.7573
   58MOL0     H 7810  -1.336  10.307   5.778 -0.5179  2.8017  1.1875
   58MOL0     H 7811  -1.390  10.374   5.618  0.0600 -0.7705 -1.9141
   58MOL0     H 7812  -0.727   9.635   5.620  2.0104 -2.0951  1.2272
   58MOL0     H 7813  -0.568   9.518   5.470 -0.2070 -2.7450  0.9710
   58MOL0     H 7814  -0.628   9.155   5.125  0.2221 -3.3880  0.5671
   58MOL0     H 7815  -0.496   8.982   4.993  0.6741 -1.1053  1.6184
   58MOL0     H 7816   1.407   9.887   4.354  2.8273  2.9109 -0.6038
   58MOL0     H 7817   1.654   9.930   4.404  3.6965 -1.9973  0.3645
   58MOL0     H 7818   2.096   9.766   4.060 -2.0192  0.3433  0.4259
   58MOL0     H 7819   2.343   9.799   4.079 -0.5078  1.0805 -1.3585
   58MOL0     H 7820   2.499   9.968   4.465  0.5484  0.2264  0.2213
   58MOL0     H 7821   2.539   9.795   4.491  2.6578 -1.7385  0.0701
   58MOL0     H 7822   2.753   9.844   4.347  1.0990 -0.7504  0.7963
   58MOL0     H 7823   2.742   9.930   4.499 -0.1813  0.1509 -0.7364
   58MOL0     H 7824   2.708  10.131   4.399  1.8688  1.1461 -2.2212
   58MOL0     H 7825   2.602  10.066   4.273  0.3638  0.2135 -0.1794
   58MOL0     H 7826   2.809  10.165   4.188  2.8631 -0.9628 -1.2058
   58MOL0     H 7827   2.802   9.982   4.159  0.4046 -1.5635  1.3986
   58MOL0     H 7828   3.127  10.030   4.422  0.0228  0.6457 -0.3177
   58MOL0     H 7829   2.298   9.849   4.508 -1.8638 -0.2502  1.0568
   58MOL0     H 7830   2.055   9.801   4.486  0.2641 -1.6858  0.0164
   59MOL0     O 7831   0.850   2.014   1.300  1.1226 -0.2400 -0.1256
   59MOL0     C 7832   0.880   2.025   1.181 -0.1957  0.5495 -0.6285
   59MOL0     O 7833   0.795   2.054   1.084  0.6344 -0.0327  0.6627
   59MOL0     C 7834   0.659   2.061   1.116 -0.7791  0.2546  0.4169
   59MOL0     C 7835   0.567   1.963   1.083 -0.0207  0.9293 -0.7890
   59MOL0     C 7836   0.426   1.965   1.117  0.0604  0.3966 -0.3775
   59MOL0     C 7837   0.369   2.078   1.182 -0.6015  0.1319  0.1130
   59MOL0     O 7838   0.244   2.103   1.226 -0.2946  0.0196 -0.6235
   59MOL0     C 7839   0.134   2.042   1.157 -0.0206  0.4880 -0.1131
   59MOL0     C 7840   0.143   2.073   1.004  0.3594 -0.1374 -0.2555
   59MOL0     C 7841   0.011   2.031   0.940  0.0202  0.0406  0.3280
   59MOL0     C 7842  -0.025   2.129   0.825  0.0796  0.2929  0.5258
   59MOL0     C 7843  -0.136   2.071   0.742  0.5962  0.8853  0.7186
   59MOL0     C 7844  -0.195   2.149   0.625  1.2927 -1.0352  0.1989
   59MOL0     C 7845  -0.317   2.077   0.570  0.1785  1.0821  0.2740
   59MOL0     C 7846  -0.298   2.036   0.423  0.5480 -0.1267 -0.0320
   59MOL0     N 7847  -0.418   1.971   0.372 -0.2752  0.9991  0.4204
   59MOL0     C 7848  -0.540   2.029   0.335 -0.1703  0.9054  0.2028
   59MOL0     C 7849  -0.613   1.919   0.296 -0.3174  0.1645 -0.1530
   59MOL0     C 7850  -0.750   1.936   0.231 -0.1471  0.0580 -0.1575
   59MOL0     C 7851  -0.857   1.859   0.318  0.3386  0.0949 -1.1425
   59MOL0     C 7852  -0.997   1.865   0.259 -0.4931  1.3294 -0.2103
   59MOL0     C 7853  -1.061   2.004   0.253 -0.4968  0.3184 -0.2568
   59MOL0     O 7854  -1.119   2.041   0.384 -0.2172  0.1724 -0.0129
   59MOL0     C 7855  -1.252   2.021   0.408  0.7244  0.2772  0.8752
   59MOL0     C 7856  -1.335   1.949   0.324  0.7116  0.2147 -0.0402
   59MOL0     C 7857  -1.476   1.957   0.341  0.2789 -0.1457  0.5791
   59MOL0     C 7858  -1.572   1.894   0.232 -0.4334 -0.1613 -1.3696
   59MOL0     C 7859  -1.534   2.049   0.436 -0.2703 -0.4084  0.2688
   59MOL0     C 7860  -1.673   2.069   0.455 -0.8588 -0.3207 -0.8276
   59MOL0     O 7861  -1.712   2.157   0.555  0.0449  0.7172  0.7939
   59MOL0     C 7862  -1.832   2.230   0.561  0.6562 -0.9360  0.5786
   59MOL0     C 7863  -1.943   2.220   0.475  0.7330 -0.7034  0.7300
   59MOL0     C 7864  -2.051   2.311   0.495 -0.4483 -0.9845 -0.0720
   59MOL0     C 7865  -2.051   2.404   0.596 -0.2328 -0.9662  0.8657
   59MOL0     O 7866  -2.147   2.503   0.598  0.1651  0.3895  0.2197
   59MOL0     C 7867  -2.131   2.605   0.694  0.1036 -0.2415 -0.7856
   59MOL0     C 7868  -2.260   2.676   0.706 -0.6400  0.7267  0.2562
   59MOL0     C 7869  -2.374   2.596   0.786  0.3840 -0.0537  1.1629
   59MOL0     C 7870  -2.503   2.666   0.795 -0.5387 -0.1425  0.0420
   59MOL0     C 7871  -2.594   2.591   0.893 -0.2986  0.3978 -0.4728
   59MOL0     C 7872  -2.723   2.674   0.930 -0.5385  0.0493 -0.0324
   59MOL0     C 7873  -2.805   2.690   0.801  0.7571 -0.1205 -0.0439
   59MOL0     C 7874  -2.954   2.740   0.832 -0.7538 -0.2183  1.0958
   59MOL0    Cl 7875  -2.940   2.891   0.910 -0.2116  0.1169  0.1109
   59MOL0     C 7876  -1.938   2.397   0.686  0.4435  0.8266 -0.7105
   59MOL0     C 7877  -1.828   2.312   0.672  0.6740 -0.4654 -1.0768
   59MOL0     O 7878  -1.756   1.993   0.401 -0.5206 -0.2130 -0.5270
   59MOL0     C 7879  -1.444   2.116   0.517 -0.3442  0.6762 -0.6410
   59MOL0     C 7880  -1.308   2.106   0.495 -0.1696  0.0483  0.2152
   59MOL0     N 7881  -0.540   1.800   0.313  0.1761 -0.6038  0.2389
   59MOL0     N 7882  -0.427   1.833   0.365  0.0790  0.1607 -1.0303
   59MOL0     C 7883   0.465   2.176   1.219  1.1968  1.1038  0.5431
   59MOL0     C 7884   0.597   2.174   1.186 -0.9372 -0.3602  0.0341
   59MOL0     C 7885   1.016   1.989   1.156  0.4275  0.1776 -0.3079
   59MOL0     C 7886   1.070   1.871   1.215  0.4252 -0.5075 -0.7392
   59MOL0     C 7887   1.200   1.835   1.206 -0.3132 -0.1909  0.0073
   59MOL0     C 7888   1.287   1.913   1.115 -0.6772 -0.3027 -1.1039
   59MOL0     O 7889   1.423   1.889   1.114  0.2559 -0.7308 -0.2115
   59MOL0     C 7890   1.505   1.865   1.223 -0.6817 -0.7246  0.2598
   59MOL0     C 7891   1.608   1.988   1.235  0.3579  0.3728 -1.1199
   59MOL0     C 7892   1.709   1.966   1.120 -0.3708 -0.0441 -0.1541
   59MOL0     C 7893   1.844   2.027   1.152  0.5051 -0.5057 -0.3583
   59MOL0     C 7894   1.941   1.984   1.059 -0.2784  0.3231 -0.0726
   59MOL0     C 7895   2.028   1.937   0.987 -0.7561 -0.0493  0.1385
   59MOL0     C 7896   1.236   2.023   1.045 -0.0519  0.3445  0.3447
   59MOL0     C 7897   1.100   2.059   1.062 -1.3122 -0.2787 -0.1745
   59MOL0     H 7898   0.598   1.882   1.017 -1.2647 -1.4531  1.3578
   59MOL0     H 7899   0.357   1.886   1.088 -0.8664  0.6766  0.9829
   59MOL0     H 7900   0.142   1.934   1.172 -3.0089  0.1465 -0.4534
   59MOL0     H 7901   0.043   2.079   1.205 -0.9085 -0.1148 -1.2683
   59MOL0     H 7902   0.163   2.180   0.991 -1.7802  0.4095  0.4317
   59MOL0     H 7903   0.222   2.010   0.964  0.0423 -0.6149 -0.1397
   59MOL0     H 7904   0.018   1.932   0.894  0.5189 -0.2721  1.0667
   59MOL0     H 7905  -0.075   2.026   1.006  0.9300 -1.1586  1.4727
   59MOL0     H 7906  -0.062   2.227   0.858 -0.0702  0.4606 -0.1178
   59MOL0     H 7907   0.049   2.148   0.747 -1.6414  0.8497 -1.0774
   59MOL0     H 7908  -0.087   1.980   0.705 -1.9352 -1.1044  1.8648
   59MOL0     H 7909  -0.217   2.046   0.812 -0.3681  0.6136 -0.4558
   59MOL0     H 7910  -0.242   2.242   0.659 -1.4178 -2.7522  1.5442
   59MOL0     H 7911  -0.112   2.167   0.556  0.8379  0.0109 -0.0888
   59MOL0     H 7912  -0.348   1.995   0.635 -0.3673  1.2199  0.1946
   59MOL0     H 7913  -0.399   2.149   0.575 -0.3735  0.6691 -1.8198
   59MOL0     H 7914  -0.212   1.973   0.400 -0.4985 -1.6388  0.0644
   59MOL0     H 7915  -0.282   2.127   0.364  0.6122  0.4914  0.9174
   59MOL0     H 7916  -0.566   2.134   0.330  2.0029  1.4434 -0.8654
   59MOL0     H 7917  -0.777   2.042   0.226  0.8248  0.2912 -0.5841
   59MOL0     H 7918  -0.742   1.889   0.133 -1.6488 -0.7120  0.0501
   59MOL0     H 7919  -0.869   1.895   0.420 -1.6211 -1.1071 -0.8935
   59MOL0     H 7920  -0.835   1.752   0.330  0.2042  0.3020  1.4293
   59MOL0     H 7921  -1.066   1.797   0.310  0.1055  1.3128  0.5920
   59MOL0     H 7922  -0.998   1.829   0.156 -2.3125  0.7074 -0.0046
   59MOL0     H 7923  -1.138   2.013   0.176  0.2860 -0.7566 -1.2117
   59MOL0     H 7924  -0.989   2.082   0.226 -0.0575  1.3419  3.3193
   59MOL0     H 7925  -1.292   1.881   0.252  0.4653  2.1682 -2.1452
   59MOL0     H 7926  -1.631   1.978   0.194 -0.2394  0.9932  0.7353
   59MOL0     H 7927  -1.510   1.846   0.155 -2.5831  0.3954 -3.5849
   59MOL0     H 7928  -1.635   1.818   0.278 -2.9904  2.3847 -0.3779
   59MOL0     H 7929  -1.949   2.139   0.402 -2.5972 -2.1715  2.3946
   59MOL0     H 7930  -2.134   2.314   0.426  0.4973 -1.9124 -1.2853
   59MOL0     H 7931  -2.106   2.568   0.794 -1.8176 -0.2022 -0.2542
   59MOL0     H 7932  -2.045   2.666   0.664  2.8048 -1.8015  2.9082
   59MOL0     H 7933  -2.240   2.778   0.742  0.2096  1.2348 -1.5400
   59MOL0     H 7934  -2.293   2.683   0.603  2.1150 -3.6464 -1.2110
   59MOL0     H 7935  -2.330   2.566   0.881  2.7542 -6.2200 -1.3572
   59MOL0     H 7936  -2.397   2.503   0.734 -1.6653  0.6815  0.6710
   59MOL0     H 7937  -2.492   2.771   0.824 -0.0412 -0.2144  0.1179
   59MOL0     H 7938  -2.557   2.667   0.700 -1.6997  0.2439  0.6835
   59MOL0     H 7939  -2.534   2.573   0.983  1.6427  0.9348 -1.6041
   59MOL0     H 7940  -2.628   2.492   0.863 -2.0250  0.5943  0.6988
   59MOL0     H 7941  -2.780   2.628   1.011 -1.2922 -1.2753 -1.2590
   59MOL0     H 7942  -2.695   2.766   0.982 -0.2380 -0.3565  0.5353
   59MOL0     H 7943  -2.799   2.594   0.749  1.9358  0.5890 -1.2686
   59MOL0     H 7944  -2.755   2.768   0.743 -1.2329  2.6015  1.6512
   59MOL0     H 7945  -3.004   2.665   0.894  0.5927 -1.4935  0.6845
   59MOL0     H 7946  -3.015   2.745   0.741  1.2877  0.6275 -0.3029
   59MOL0     H 7947  -1.920   2.453   0.778  1.1254 -1.6609  0.7596
   59MOL0     H 7948  -1.739   2.325   0.732  0.1910  0.6880 -0.5950
   59MOL0     H 7949  -1.476   2.186   0.593 -0.3583  0.4284 -0.4169
   59MOL0     H 7950  -1.241   2.180   0.538 -0.0777  0.8714 -1.2617
   59MOL0     H 7951   0.433   2.266   1.272 -1.8993  0.0770  0.6033
   59MOL0     H 7952   0.663   2.239   1.241  1.0679 -2.6990  0.5830
   59MOL0     H 7953   1.009   1.814   1.284 -0.6843  1.1312 -0.3145
   59MOL0     H 7954   1.251   1.750   1.248  1.2799 -0.6109 -2.5298
   59MOL0     H 7955   1.449   1.867   1.316 -0.1117 -0.5577  0.6028
   59MOL0     H 7956   1.567   1.774   1.222 -0.7827 -0.7962 -0.6469
   59MOL0     H 7957   1.661   1.989   1.331 -0.9119  0.4908 -0.3897
   59MOL0     H 7958   1.549   2.080   1.233  0.0400  0.1826 -0.6862
   59MOL0     H 7959   1.684   2.010   1.023  3.0726  1.8253 -0.3706
   59MOL0     H 7960   1.726   1.859   1.106  0.7799 -0.1277  1.5541
   59MOL0     H 7961   1.891   2.011   1.250 -0.6055  0.7505  0.4192
   59MOL0     H 7962   1.826   2.134   1.138  1.4241 -0.0408  1.6183
   59MOL0     H 7963   2.099   1.881   0.929 -2.1230 -2.1992  0.4331
   59MOL0     H 7964   1.308   2.072   0.979 -0.0504  1.1145  0.9050
   59MOL0     H 7965   1.058   2.149   1.018 -0.9368  1.0721  2.0712
   60MOL0     O 7966   7.204   6.770   4.047  0.6144  0.2617 -0.3378
   60MOL0     C 7967   7.085   6.770   4.038  0.0207  0.4450  0.8478
   60MOL0     O 7968   7.022   6.814   3.919  0.4592  0.1667 -0.0878
   60MOL0     C 7969   7.091   6.874   3.814  1.1252 -0.4040  0.5784
   60MOL0     C 7970   7.141   7.007   3.828  1.0404  0.7524 -0.2998
   60MOL0     C 7971   7.203   7.064   3.713 -0.4084 -0.1369 -0.1956
   60MOL0     C 7972   7.207   6.998   3.582 -0.1449  0.4041  0.2241
   60MOL0     O 7973   7.255   7.051   3.471 -0.2688  0.0285  0.2727
   60MOL0     C 7974   7.156   7.109   3.380  0.2856  0.4943  0.1752
   60MOL0     C 7975   7.220   7.233   3.322 -0.0037 -0.3076  1.2239
   60MOL0     C 7976   7.157   7.363   3.358 -0.0281  0.4370  0.1022
   60MOL0     C 7977   7.197   7.412   3.495 -0.0324  0.5531 -0.6377
   60MOL0     C 7978   7.145   7.555   3.536 -0.1957  0.5266 -0.3844
   60MOL0     C 7979   7.221   7.585   3.667 -0.2120  0.0403  0.2321
   60MOL0     C 7980   7.176   7.518   3.799 -0.5247 -0.4321  0.5137
   60MOL0     C 7981   7.197   7.604   3.925 -0.0876  0.0083 -0.5432
   60MOL0     N 7982   7.098   7.715   3.927  0.1860 -0.0896 -0.0252
   60MOL0     C 7983   6.968   7.690   3.950 -0.1513  0.7811 -0.1843
   60MOL0     C 7984   6.912   7.815   3.955 -0.3247 -0.2137 -0.0301
   60MOL0     C 7985   6.762   7.836   3.961 -0.2179  0.4341  0.4491
   60MOL0     C 7986   6.705   7.837   3.820 -1.3486  1.1455  0.5409
   60MOL0     C 7987   6.553   7.867   3.825 -0.5194  0.7752 -0.0162
   60MOL0     C 7988   6.498   7.873   3.683 -0.4556  0.4902  0.0756
   60MOL0     O 7989   6.398   7.773   3.676 -1.2081 -0.2613  0.2201
   60MOL0     C 7990   6.323   7.758   3.554 -0.2016  0.4085 -0.3051
   60MOL0     C 7991   6.288   7.628   3.527  0.2789 -0.1532  0.0703
   60MOL0     C 7992   6.197   7.593   3.419 -0.7470 -0.4618  0.2174
   60MOL0     C 7993   6.151   7.451   3.407  0.5484  0.5429  0.1184
   60MOL0     C 7994   6.163   7.692   3.325 -0.6181  0.1473 -0.4164
   60MOL0     C 7995   6.083   7.677   3.198  0.6139  0.4783 -0.8463
   60MOL0     O 7996   6.035   7.795   3.147 -0.4091 -0.1266  0.4621
   60MOL0     C 7997   5.956   7.782   3.036 -0.0480 -0.0717  0.4442
   60MOL0     C 7998   5.999   7.744   2.903  0.7927  0.5520  0.1467
   60MOL0     C 7999   5.904   7.724   2.798  0.3137  0.4802  0.4169
   60MOL0     C 8000   5.764   7.737   2.817 -0.3212  0.0436 -0.4258
   60MOL0     O 8001   5.660   7.730   2.724  0.2152  0.1540  0.2184
   60MOL0     C 8002   5.709   7.707   2.584 -0.1578 -0.2858 -0.2267
   60MOL0     C 8003   5.581   7.668   2.493 -0.5299 -0.5891 -0.3070
   60MOL0     C 8004   5.491   7.788   2.474 -0.3208  0.2846 -0.3558
   60MOL0     C 8005   5.370   7.729   2.400  1.1871 -0.0768 -1.1234
   60MOL0     C 8006   5.281   7.839   2.353 -1.5986 -0.2699 -0.5678
   60MOL0     C 8007   5.148   7.791   2.299  0.9151  1.0125 -0.1842
   60MOL0     C 8008   5.153   7.711   2.160 -0.2911  0.3765 -0.1323
   60MOL0     C 8009   5.027   7.718   2.084  0.0017 -0.4094 -0.3835
   60MOL0    Cl 8010   4.890   7.633   2.159 -0.4534  0.5169  0.1077
   60MOL0     C 8011   5.731   7.784   2.943  0.7230 -0.5392 -0.3820
   60MOL0     C 8012   5.816   7.809   3.049 -0.4101  0.0139  0.3180
   60MOL0     O 8013   6.052   7.561   3.163  0.4826 -0.2751 -0.1659
   60MOL0     C 8014   6.200   7.824   3.357 -0.3079 -0.0123 -0.0187
   60MOL0     C 8015   6.293   7.851   3.470  1.0861 -0.2539 -0.2216
   60MOL0     N 8016   7.015   7.908   3.938  0.6709 -0.3122  0.2985
   60MOL0     N 8017   7.124   7.846   3.925 -0.6039 -0.0186  0.0681
   60MOL0     C 8018   7.136   6.884   3.565 -0.1662  0.6562  0.1894
   60MOL0     C 8019   7.089   6.818   3.679  0.1452 -0.1218  0.5192
   60MOL0     C 8020   7.011   6.713   4.147  0.6319  0.1854  0.4722
   60MOL0     C 8021   6.868   6.725   4.152  0.3439  0.7163  0.2016
   60MOL0     C 8022   6.794   6.652   4.246  0.6480 -0.1981 -0.3037
   60MOL0     C 8023   6.859   6.570   4.348 -1.2509 -0.7482 -0.4166
   60MOL0     O 8024   6.784   6.502   4.451  0.1574 -0.4967  0.3934
   60MOL0     C 8025   6.674   6.431   4.399 -0.2929  0.5327  0.1438
   60MOL0     C 8026   6.634   6.336   4.512 -1.1917 -0.1611 -0.2291
   60MOL0     C 8027   6.502   6.369   4.582  0.6325  0.3942 -0.1847
   60MOL0     C 8028   6.490   6.328   4.727  0.5906  0.1737  0.2405
   60MOL0     C 8029   6.350   6.315   4.763  0.1815  0.1591  0.3034
   60MOL0     C 8030   6.230   6.302   4.786 -0.3114  0.1913 -0.4620
   60MOL0     C 8031   7.004   6.566   4.348 -0.3613  0.5634 -0.5098
   60MOL0     C 8032   7.074   6.638   4.244 -0.5647  0.1414 -0.5600
   60MOL0     H 8033   7.144   7.058   3.924  0.9613 -2.1840  1.3565
   60MOL0     H 8034   7.233   7.168   3.723 -0.6304 -0.0644 -0.2724
   60MOL0     H 8035   7.118   7.039   3.306  2.2939 -0.4455 -0.0419
   60MOL0     H 8036   7.071   7.152   3.435 -0.0867  0.0312 -0.0365
   60MOL0     H 8037   7.322   7.237   3.360 -0.2813 -0.6167  2.0040
   60MOL0     H 8038   7.207   7.215   3.214  3.0017 -1.4393  0.9628
   60MOL0     H 8039   7.193   7.432   3.280  2.8672 -2.7515 -1.6363
   60MOL0     H 8040   7.048   7.361   3.348 -0.0770  1.5243  0.2858
   60MOL0     H 8041   7.158   7.336   3.564  3.6439 -2.4693 -1.5927
   60MOL0     H 8042   7.305   7.411   3.507 -0.1224 -0.7347  0.2594
   60MOL0     H 8043   7.173   7.627   3.458 -0.6779  2.3632  1.0621
   60MOL0     H 8044   7.037   7.561   3.555 -0.0495 -0.1534  0.7846
   60MOL0     H 8045   7.330   7.576   3.656 -0.2577 -1.5419  0.8654
   60MOL0     H 8046   7.208   7.693   3.676  1.4106  0.3189 -0.3020
   60MOL0     H 8047   7.068   7.502   3.795 -0.3653 -2.1673  2.1970
   60MOL0     H 8048   7.223   7.420   3.801 -1.1540 -0.7731 -0.4906
   60MOL0     H 8049   7.299   7.643   3.929 -0.9441  2.6034 -1.4385
   60MOL0     H 8050   7.183   7.546   4.016  1.4982  3.0275  1.7953
   60MOL0     H 8051   6.913   7.597   3.962 -0.5754  1.2065  1.3405
   60MOL0     H 8052   6.720   7.758   4.024  0.2912 -1.4012 -1.3627
   60MOL0     H 8053   6.740   7.930   4.012 -0.3675  0.9159 -0.4808
   60MOL0     H 8054   6.727   7.736   3.784  1.5228  2.7474 -2.8576
   60MOL0     H 8055   6.762   7.915   3.768  1.5661 -2.3746 -2.0428
   60MOL0     H 8056   6.534   7.963   3.874 -3.3154  0.7873 -0.9470
   60MOL0     H 8057   6.495   7.801   3.890  0.3215 -1.3955 -1.3534
   60MOL0     H 8058   6.568   7.853   3.601 -1.9139  4.3382 -2.3775
   60MOL0     H 8059   6.453   7.970   3.658  2.7816  2.1565  0.3006
   60MOL0     H 8060   6.311   7.549   3.598  0.6904 -0.7166 -0.6723
   60MOL0     H 8061   6.173   7.406   3.310 -2.3846  0.0259 -0.4249
   60MOL0     H 8062   6.200   7.389   3.482  1.7199 -2.4234 -2.8440
   60MOL0     H 8063   6.041   7.450   3.414  0.4246  0.8147 -1.4890
   60MOL0     H 8064   6.104   7.722   2.887  0.8814  1.8354 -1.3344
   60MOL0     H 8065   5.929   7.696   2.696 -0.4883  1.4232 -0.0623
   60MOL0     H 8066   5.756   7.789   2.529  1.7438 -1.3633 -0.2890
   60MOL0     H 8067   5.774   7.619   2.585 -0.4352 -0.4905  1.2258
   60MOL0     H 8068   5.616   7.620   2.402  0.1610  1.4137 -1.1691
   60MOL0     H 8069   5.517   7.598   2.548 -0.1998  0.3857  1.4124
   60MOL0     H 8070   5.549   7.860   2.416  1.4206 -0.9675 -0.2521
   60MOL0     H 8071   5.460   7.832   2.569  0.7225  0.2137  0.0285
   60MOL0     H 8072   5.385   7.676   2.306 -2.8934 -1.1463 -1.3522
   60MOL0     H 8073   5.318   7.656   2.462 -1.3986 -0.2269 -3.2800
   60MOL0     H 8074   5.327   7.891   2.269  0.9630  0.2933  1.0592
   60MOL0     H 8075   5.278   7.918   2.428  1.3868 -1.6663  1.1899
   60MOL0     H 8076   5.101   7.730   2.377 -0.3680  1.5009 -0.5394
   60MOL0     H 8077   5.070   7.867   2.286  0.4026  0.5818  0.3436
   60MOL0     H 8078   5.170   7.604   2.178 -1.4193  0.0022 -1.1541
   60MOL0     H 8079   5.236   7.743   2.096 -0.2399  1.5995  0.5327
   60MOL0     H 8080   5.039   7.684   1.981 -0.5582  0.5196 -0.7737
   60MOL0     H 8081   4.989   7.821   2.082  0.6432 -0.1731 -1.8087
   60MOL0     H 8082   5.623   7.796   2.951  0.7036 -1.0852  0.2501
   60MOL0     H 8083   5.784   7.842   3.148  0.8217  3.5518 -0.3129
   60MOL0     H 8084   6.172   7.910   3.298 -1.2622 -1.1594 -1.3005
   60MOL0     H 8085   6.325   7.954   3.471  2.3898 -0.6409 -0.0020
   60MOL0     H 8086   7.143   6.840   3.466  0.3061 -2.3427  1.4550
   60MOL0     H 8087   7.046   6.722   3.654  0.1015 -0.5227  2.0812
   60MOL0     H 8088   6.809   6.791   4.089 -1.4900 -0.9124  0.1015
   60MOL0     H 8089   6.688   6.673   4.252  0.8935  0.7301  1.9478
   60MOL0     H 8090   6.593   6.501   4.376  0.0837  0.7919 -0.4324
   60MOL0     H 8091   6.706   6.387   4.304 -1.4876  2.9676 -1.4889
   60MOL0     H 8092   6.718   6.329   4.582 -0.3927 -0.1765 -1.1617
   60MOL0     H 8093   6.633   6.237   4.465  1.3994  0.5946 -2.1036
   60MOL0     H 8094   6.420   6.325   4.525 -0.4167  1.6885  0.2711
   60MOL0     H 8095   6.484   6.476   4.596  3.9858  0.6347  4.1397
   60MOL0     H 8096   6.548   6.399   4.787  1.0701  0.7645 -0.8981
   60MOL0     H 8097   6.534   6.229   4.739  2.4953  0.8393 -0.9151
   60MOL0     H 8098   6.123   6.308   4.784 -0.2202  2.5383 -0.8037
   60MOL0     H 8099   7.052   6.522   4.435 -1.3176 -2.1294 -1.2423
   60MOL0     H 8100   7.181   6.650   4.256 -0.7835  2.0560 -0.1804
   61MOL0     O 8101   7.881   9.956  10.164 -0.3465  0.3354  0.5442
   61MOL0     C 8102   7.979   9.889  10.136  0.6574  0.2683 -0.2063
   61MOL0     O 8103   7.979   9.756  10.132  0.6701  0.0653 -0.6305
   61MOL0     C 8104   7.868   9.680  10.147 -0.1465  0.2378 -0.0494
   61MOL0     C 8105   7.833   9.590  10.051  0.2367  0.1753 -0.3485
   61MOL0     C 8106   7.724   9.490  10.074 -0.4600 -0.7590 -0.5316
   61MOL0     C 8107   7.654   9.493  10.196  0.7106  0.0832 -0.6784
   61MOL0     O 8108   7.535   9.416  10.216 -0.2387 -0.4348  0.7925
   61MOL0     C 8109   7.476   9.346  10.110 -0.3791  0.4864  0.1821
   61MOL0     C 8110   7.525   9.196  10.117  0.6917 -0.3685 -0.5518
   61MOL0     C 8111   7.510   9.125  10.247  0.6052  0.1303  0.8995
   61MOL0     C 8112   7.375   9.140  10.320 -0.0597  0.1957  0.8334
   61MOL0     C 8113   7.253   9.067  10.256 -0.1446  0.4629  0.2077
   61MOL0     C 8114   7.298   8.915  10.219  0.3794  0.7897  0.3674
   61MOL0     C 8115   7.184   8.819  10.193 -0.0826  0.5532 -0.0293
   61MOL0     C 8116   7.107   8.783  10.322 -1.2511 -0.1288 -0.4358
   61MOL0     N 8117   7.000   8.694  10.309 -0.2627 -0.3298 -0.1571
   61MOL0     C 8118   6.885   8.702  10.229  0.8446 -0.6630 -0.2362
   61MOL0     C 8119   6.800   8.614  10.288 -0.3478 -0.8435  0.5028
   61MOL0     C 8120   6.656   8.580  10.254 -0.0422 -0.2951  0.1361
   61MOL0     C 8121   6.591   8.658  10.152  0.4571 -0.2948  0.4292
   61MOL0     C 8122   6.460   8.596  10.127  0.4364  0.8786  0.5873
   61MOL0     C 8123   6.373   8.695  10.042  0.6349  0.8390  0.5048
   61MOL0     O 8124   6.289   8.770  10.134  0.1287 -0.3509 -0.1559
   61MOL0     C 8125   6.163   8.720  10.169 -0.3556 -0.4990 -0.9770
   61MOL0     C 8126   6.077   8.812  10.227  0.1951  0.5542  0.3998
   61MOL0     C 8127   5.950   8.783  10.263 -0.2945 -0.0291  0.5806
   61MOL0     C 8128   5.869   8.895  10.312  0.1242 -0.4008 -0.2102
   61MOL0     C 8129   5.908   8.655  10.252  1.2930 -0.3147 -0.1755
   61MOL0     C 8130   5.764   8.607  10.282  0.0117 -0.0770 -0.0505
   61MOL0     O 8131   5.731   8.478  10.230  0.4642  0.1949  0.4501
   61MOL0     C 8132   5.608   8.421  10.263  0.0932 -0.9624  0.1352
   61MOL0     C 8133   5.571   8.403  10.402  0.2415 -0.1144  0.2037
   61MOL0     C 8134   5.451   8.325  10.428  0.2596  0.7250 -0.1132
   61MOL0     C 8135   5.359   8.279  10.330 -0.0144 -0.5748 -0.0387
   61MOL0     O 8136   5.251   8.208  10.362 -0.5274 -1.0169 -0.0044
   61MOL0     C 8137   5.175   8.245  10.476  1.1097 -0.6476 -0.6667
   61MOL0     C 8138   5.029   8.194  10.462 -0.9580  0.2716  0.1252
   61MOL0     C 8139   4.964   8.254  10.337  0.1886 -0.2263  0.4559
   61MOL0     C 8140   4.825   8.187  10.304  0.4642  0.1951  0.4007
   61MOL0     C 8141   4.835   8.045  10.261  0.6812  0.2023  0.1265
   61MOL0     C 8142   4.700   7.997  10.203 -0.2471  1.0914 -0.7521
   61MOL0     C 8143   4.619   7.913  10.303  0.2900  0.0709  0.4810
   61MOL0     C 8144   4.478   7.896  10.261  0.2626 -0.0775 -0.5141
   61MOL0    Cl 8145   4.456   7.866  10.088 -0.1353 -0.2627 -0.3088
   61MOL0     C 8146   5.407   8.294  10.196  0.3837  0.4183  0.6724
   61MOL0     C 8147   5.526   8.369  10.168 -0.4542  0.6913  1.5030
   61MOL0     O 8148   5.688   8.681  10.346  0.4790 -0.2711 -0.1491
   61MOL0     C 8149   5.995   8.561  10.192 -0.4464  0.2872  1.0323
   61MOL0     C 8150   6.126   8.585  10.157 -0.1130  0.2029 -0.2886
   61MOL0     N 8151   6.864   8.558  10.394 -0.5981 -0.2383  0.4354
   61MOL0     N 8152   6.982   8.593  10.405 -0.2119  0.1972  0.2544
   61MOL0     C 8153   7.701   9.584  10.295 -0.5196 -0.2786 -0.4996
   61MOL0     C 8154   7.807   9.677  10.273  0.0705 -0.6646  0.6925
   61MOL0     C 8155   8.099   9.966  10.102 -0.2133 -0.5206 -1.3350
   61MOL0     C 8156   8.225   9.901  10.079 -0.4629  0.2435  0.4708
   61MOL0     C 8157   8.338   9.980  10.058  0.1629 -0.0040 -0.0353
   61MOL0     C 8158   8.331  10.120  10.058 -1.0242  0.8669  0.2797
   61MOL0     O 8159   8.456  10.191  10.043  0.5717  0.5049  0.2835
   61MOL0     C 8160   8.459  10.339  10.059 -0.5252  0.1196  0.3043
   61MOL0     C 8161   8.599  10.390  10.047  0.2369  0.2959  0.1928
   61MOL0     C 8162   8.685  10.347   9.922  1.3510 -0.0649 -0.6862
   61MOL0     C 8163   8.749  10.210   9.932  0.1194  0.2179  0.2846
   61MOL0     C 8164   8.854  10.188   9.824  0.1965  0.4882  0.2339
   61MOL0     C 8165   8.923  10.166   9.726 -0.0003  0.1833  0.2159
   61MOL0     C 8166   8.208  10.181  10.081  0.1531  0.7510  0.3181
   61MOL0     C 8167   8.090  10.111  10.110  0.1285 -0.4138  0.2839
   61MOL0     H 8168   7.891   9.602   9.960  2.6072 -2.7514  0.5798
   61MOL0     H 8169   7.690   9.422   9.997 -3.0552 -0.4142  0.1934
   61MOL0     H 8170   7.370   9.351  10.137 -0.3647  0.3417  0.2654
   61MOL0     H 8171   7.495   9.392  10.012  1.4192  0.0418  0.2780
   61MOL0     H 8172   7.469   9.131  10.048  0.8738 -2.4912  1.1924
   61MOL0     H 8173   7.632   9.195  10.092  1.2573 -0.1164  1.6776
   61MOL0     H 8174   7.536   9.021  10.227  0.0041  0.2173 -0.4841
   61MOL0     H 8175   7.586   9.167  10.314  1.6234 -1.1628  0.6104
   61MOL0     H 8176   7.399   9.104  10.421  3.6071 -0.9229 -0.2855
   61MOL0     H 8177   7.343   9.245  10.314  0.0793  0.1985  0.1498
   61MOL0     H 8178   7.176   9.066  10.334  0.0827 -0.6372  0.4361
   61MOL0     H 8179   7.222   9.106  10.159 -0.6895  1.6162  0.8295
   61MOL0     H 8180   7.359   8.928  10.129  1.6343  1.3996  1.2814
   61MOL0     H 8181   7.359   8.873  10.299 -0.9963 -0.0258  1.0172
   61MOL0     H 8182   7.114   8.869  10.125 -0.9896  2.9466  2.4195
   61MOL0     H 8183   7.227   8.729  10.150  2.4079  1.4317  0.4789
   61MOL0     H 8184   7.061   8.873  10.365  0.1716 -0.2544  1.4933
   61MOL0     H 8185   7.179   8.741  10.393  1.6528  1.3144 -2.3688
   61MOL0     H 8186   6.848   8.767  10.150 -1.4581 -0.6074  0.8298
   61MOL0     H 8187   6.651   8.477  10.219  0.9504  0.3444 -2.0669
   61MOL0     H 8188   6.595   8.585  10.345  1.5147  0.3792  1.1715
   61MOL0     H 8189   6.646   8.661  10.057 -1.6548  0.4221 -0.8445
   61MOL0     H 8190   6.584   8.761  10.187  0.7183  1.0147 -2.9253
   61MOL0     H 8191   6.406   8.574  10.219 -1.4573  1.1590 -0.4117
   61MOL0     H 8192   6.470   8.503  10.069 -1.1851  1.6526 -1.0445
   61MOL0     H 8193   6.326   8.649   9.955  2.0040 -2.0089  1.1639
   61MOL0     H 8194   6.440   8.768   9.994  2.3472 -1.0488 -0.1149
   61MOL0     H 8195   6.107   8.914  10.249  0.1832  0.3175  1.5720
   61MOL0     H 8196   5.914   8.995  10.300 -0.2164 -0.5032 -2.7782
   61MOL0     H 8197   5.784   8.903  10.244  0.2736  3.6690 -0.1803
   61MOL0     H 8198   5.834   8.884  10.415  0.1646  1.9308  0.1139
   61MOL0     H 8199   5.629   8.450  10.481  2.5396 -1.3784 -0.6209
   61MOL0     H 8200   5.428   8.319  10.534 -0.7110 -0.4172 -0.3587
   61MOL0     H 8201   5.205   8.184  10.561  0.7612 -2.0972 -1.5557
   61MOL0     H 8202   5.178   8.353  10.496 -0.5089 -0.7738  0.3438
   61MOL0     H 8203   5.027   8.085  10.468 -2.7007 -0.0380 -3.3507
   61MOL0     H 8204   4.979   8.240  10.547  0.9236 -1.8248  2.5052
   61MOL0     H 8205   5.024   8.257  10.245 -0.3515  1.9266  0.1024
   61MOL0     H 8206   4.941   8.360  10.351  1.3183  0.0257  0.4846
   61MOL0     H 8207   4.760   8.193  10.392 -0.2354 -2.7429  0.1780
   61MOL0     H 8208   4.774   8.251  10.231 -0.1076 -1.6893 -0.9449
   61MOL0     H 8209   4.852   7.988  10.353 -1.5618 -2.0896 -0.7335
   61MOL0     H 8210   4.913   8.010  10.193 -0.3479 -1.3764 -0.3068
   61MOL0     H 8211   4.637   8.082  10.172 -0.9274  0.9486  0.2042
   61MOL0     H 8212   4.717   7.929  10.119 -1.6422  0.6297 -0.6850
   61MOL0     H 8213   4.612   7.956  10.403 -1.4643  0.6809  0.1158
   61MOL0     H 8214   4.662   7.812  10.303  0.2863 -0.1196 -3.8031
   61MOL0     H 8215   4.419   7.979  10.302 -0.9391 -1.5103  0.8497
   61MOL0     H 8216   4.442   7.812  10.321  1.9279 -1.0015 -0.7637
   61MOL0     H 8217   5.349   8.242  10.120  1.2833 -4.0752  2.7322
   61MOL0     H 8218   5.561   8.388  10.067  1.1146  1.2000  2.1133
   61MOL0     H 8219   5.968   8.459  10.170 -1.4750  1.4246 -4.3609
   61MOL0     H 8220   6.185   8.497  10.134 -0.3698 -1.0341  3.0994
   61MOL0     H 8221   7.664   9.609  10.394 -0.0197  2.4294 -0.9025
   61MOL0     H 8222   7.838   9.740  10.355 -1.1616 -2.0743  2.3294
   61MOL0     H 8223   8.236   9.793  10.073 -2.0930  0.1335 -2.2659
   61MOL0     H 8224   8.430   9.927  10.034  0.9035  1.7368 -1.3348
   61MOL0     H 8225   8.392  10.370   9.978  0.0036  0.4239 -0.0291
   61MOL0     H 8226   8.417  10.378  10.152 -0.7838  0.4345  0.0604
   61MOL0     H 8227   8.662  10.368  10.134  1.6454 -1.0157 -1.1134
   61MOL0     H 8228   8.584  10.499  10.041 -1.6767  0.0522  0.0291
   61MOL0     H 8229   8.763  10.423   9.930 -0.9646  2.3785  0.4875
   61MOL0     H 8230   8.628  10.364   9.830 -0.4398 -1.1940  0.1587
   61MOL0     H 8231   8.671  10.135   9.915 -0.5576  0.7763  0.8547
   61MOL0     H 8232   8.795  10.196  10.031  0.6484  1.0279  0.1704
   61MOL0     H 8233   9.007  10.129   9.670  0.8875  0.2844  1.4509
   61MOL0     H 8234   8.211  10.289  10.083  3.2402  0.7668 -1.0781
   61MOL0     H 8235   8.000  10.166  10.136 -0.4684 -2.7435  3.6553
   62MOL0     O 8236   6.385   3.428   8.278 -0.6437 -0.5892 -0.1887
   62MOL0     C 8237   6.402   3.415   8.396 -0.1265 -0.1809 -1.1877
   62MOL0     O 8238   6.311   3.418   8.504  0.1165  0.1102  0.7985
   62MOL0     C 8239   6.184   3.450   8.474 -0.1840  0.4537 -0.5868
   62MOL0     C 8240   6.141   3.561   8.405  0.4532  0.9893  0.0107
   62MOL0     C 8241   6.004   3.585   8.391  0.0414  1.1275 -0.1586
   62MOL0     C 8242   5.908   3.493   8.424 -0.6469 -0.3451  0.1138
   62MOL0     O 8243   5.766   3.502   8.409 -0.2959  0.5291 -0.3643
   62MOL0     C 8244   5.719   3.636   8.416  0.5739  0.3953 -0.1447
   62MOL0     C 8245   5.569   3.626   8.409  0.0637  0.1318  0.0985
   62MOL0     C 8246   5.500   3.757   8.449  0.8355  0.0052 -0.2459
   62MOL0     C 8247   5.351   3.756   8.380 -1.0320  0.6524 -0.8803
   62MOL0     C 8248   5.277   3.880   8.416  0.1252  0.1787  0.4387
   62MOL0     C 8249   5.160   3.906   8.311  0.1726  0.0176 -0.0363
   62MOL0     C 8250   5.054   3.799   8.322 -0.0700  1.0024 -0.4694
   62MOL0     C 8251   4.921   3.822   8.258 -0.1135  0.4952  0.6839
   62MOL0     N 8252   4.838   3.704   8.290  0.4263 -0.6957 -0.4255
   62MOL0     C 8253   4.733   3.691   8.383 -0.5402  0.0174  0.1615
   62MOL0     C 8254   4.694   3.562   8.372  0.2607 -0.4641  0.0882
   62MOL0     C 8255   4.587   3.492   8.447 -0.0761 -0.2738 -1.1866
   62MOL0     C 8256   4.563   3.342   8.422  0.1450 -1.0894 -0.9302
   62MOL0     C 8257   4.460   3.279   8.520  0.8004 -0.0920 -0.0721
   62MOL0     C 8258   4.493   3.143   8.578  0.0365  0.3714 -0.0680
   62MOL0     O 8259   4.612   3.164   8.658  0.0552 -0.4448 -0.0647
   62MOL0     C 8260   4.719   3.083   8.623  0.4396  0.2570 -0.2008
   62MOL0     C 8261   4.706   2.941   8.606 -0.3487 -0.8836 -0.4231
   62MOL0     C 8262   4.819   2.869   8.554  0.0866 -0.5819 -0.1997
   62MOL0     C 8263   4.800   2.726   8.517 -0.0396  0.1063  0.8732
   62MOL0     C 8264   4.946   2.940   8.520 -0.5704 -0.2080 -0.8511
   62MOL0     C 8265   5.064   2.866   8.458  0.2643 -0.3399  0.3330
   62MOL0     O 8266   5.182   2.886   8.523 -0.2138  0.1211  0.5934
   62MOL0     C 8267   5.288   2.802   8.483 -1.1437  0.1583  0.0474
   62MOL0     C 8268   5.410   2.864   8.437 -0.0532 -0.2479  0.1469
   62MOL0     C 8269   5.526   2.789   8.419 -0.1244  0.1302 -0.0539
   62MOL0     C 8270   5.539   2.649   8.458 -0.6682  1.0255 -0.3655
   62MOL0     O 8271   5.655   2.571   8.478 -0.2322  0.9178 -0.4034
   62MOL0     C 8272   5.772   2.651   8.505 -0.3285  0.0985  0.2149
   62MOL0     C 8273   5.885   2.570   8.583  1.4263 -0.4629  0.4604
   62MOL0     C 8274   5.949   2.447   8.523  0.0054  0.4028  0.4797
   62MOL0     C 8275   6.044   2.377   8.632 -0.1667 -0.4403 -0.0936
   62MOL0     C 8276   6.122   2.259   8.562 -0.6369  0.5387 -0.6956
   62MOL0     C 8277   6.255   2.248   8.630  1.0662  0.0281  0.6201
   62MOL0     C 8278   6.339   2.124   8.594  0.2822  1.0419 -0.0302
   62MOL0     C 8279   6.361   2.108   8.445 -1.5571  0.0225 -0.5771
   62MOL0    Cl 8280   6.442   2.253   8.380  0.2981  0.0454  0.1522
   62MOL0     C 8281   5.421   2.590   8.502 -0.3119 -0.1182 -0.5835
   62MOL0     C 8282   5.301   2.662   8.516  0.6673 -0.9814 -0.0661
   62MOL0     O 8283   5.045   2.791   8.362  0.1511 -0.4490 -0.4839
   62MOL0     C 8284   4.959   3.077   8.559 -0.9012  0.5051 -0.8133
   62MOL0     C 8285   4.847   3.138   8.609 -0.4660 -0.0958  0.5634
   62MOL0     N 8286   4.781   3.507   8.283 -0.1589  0.5245  0.0278
   62MOL0     N 8287   4.865   3.588   8.228  0.1227  0.1675 -0.7691
   62MOL0     C 8288   5.951   3.375   8.487 -0.9452 -1.5037 -0.6582
   62MOL0     C 8289   6.088   3.359   8.517 -0.3531  0.8787  0.6464
   62MOL0     C 8290   6.543   3.410   8.435 -0.3704 -0.5101 -0.4409
   62MOL0     C 8291   6.648   3.393   8.341 -0.5976  0.2833 -0.0844
   62MOL0     C 8292   6.783   3.410   8.373 -0.3471  0.3420 -0.3417
   62MOL0     C 8293   6.818   3.431   8.504 -0.6185  0.5671 -0.9837
   62MOL0     O 8294   6.943   3.467   8.553  0.3770  0.3378  0.1239
   62MOL0     C 8295   7.058   3.468   8.468 -0.0095 -0.6105 -0.3492
   62MOL0     C 8296   7.196   3.472   8.541  0.4924  0.0647  0.1088
   62MOL0     C 8297   7.314   3.424   8.446  0.9213 -0.0492  0.5949
   62MOL0     C 8298   7.458   3.453   8.499 -0.2101  0.2425 -0.6296
   62MOL0     C 8299   7.556   3.441   8.390 -0.2001  0.6407 -0.6382
   62MOL0     C 8300   7.635   3.454   8.297 -0.0015 -0.1315 -0.1895
   62MOL0     C 8301   6.715   3.431   8.597  0.0247 -0.5014  0.8643
   62MOL0     C 8302   6.585   3.417   8.570 -1.0192  0.6214 -0.3498
   62MOL0     H 8303   6.209   3.629   8.355 -0.4790  1.4156 -0.7112
   62MOL0     H 8304   5.982   3.682   8.347 -1.5340 -0.2318 -2.6198
   62MOL0     H 8305   5.748   3.683   8.511 -1.2246  3.4573 -0.9693
   62MOL0     H 8306   5.761   3.701   8.339 -0.1792 -1.6301 -2.3654
   62MOL0     H 8307   5.547   3.598   8.305  2.2331 -3.0291  0.3365
   62MOL0     H 8308   5.524   3.549   8.472 -0.2458  0.7136  0.6012
   62MOL0     H 8309   5.500   3.769   8.558 -0.1813  2.0159 -0.4275
   62MOL0     H 8310   5.551   3.842   8.402  1.4392 -0.9163 -1.3028
   62MOL0     H 8311   5.365   3.754   8.272 -1.3836 -2.0444 -0.9270
   62MOL0     H 8312   5.294   3.666   8.402  1.3465 -0.3787  1.7388
   62MOL0     H 8313   5.238   3.878   8.519 -0.1637  2.3196  0.4164
   62MOL0     H 8314   5.339   3.970   8.412 -0.0256  0.4059  2.2170
   62MOL0     H 8315   5.111   4.002   8.331  0.0782  0.5125 -2.3879
   62MOL0     H 8316   5.203   3.917   8.211 -0.6677  2.0822 -0.2075
   62MOL0     H 8317   5.089   3.710   8.268 -5.5281 -0.6603 -1.8913
   62MOL0     H 8318   5.041   3.770   8.427 -3.1912  2.1571 -0.4231
   62MOL0     H 8319   4.903   3.846   8.153 -4.0447 -0.2620  1.0019
   62MOL0     H 8320   4.882   3.912   8.308  0.7017  1.9824 -1.2289
   62MOL0     H 8321   4.687   3.759   8.453  0.5096  0.8768  0.0515
   62MOL0     H 8322   4.626   3.489   8.549  1.0463 -1.3422 -1.6183
   62MOL0     H 8323   4.497   3.554   8.439 -0.5617 -0.7926  0.0964
   62MOL0     H 8324   4.657   3.287   8.428  0.1774 -0.9226  0.5586
   62MOL0     H 8325   4.531   3.325   8.319 -0.3147 -2.7121 -0.5615
   62MOL0     H 8326   4.357   3.279   8.481  0.3914  2.3611  0.8085
   62MOL0     H 8327   4.455   3.351   8.603  1.8315  0.0136 -0.0921
   62MOL0     H 8328   4.493   3.061   8.506 -2.0685 -1.4282  1.8369
   62MOL0     H 8329   4.421   3.108   8.653 -0.6950  0.2527 -0.8223
   62MOL0     H 8330   4.610   2.892   8.623 -2.8731  4.1308  2.0986
   62MOL0     H 8331   4.897   2.680   8.537  1.5156  2.0086 -1.7505
   62MOL0     H 8332   4.718   2.675   8.569  0.0931 -3.0542 -1.6773
   62MOL0     H 8333   4.780   2.708   8.411 -2.3611 -0.6660  1.3739
   62MOL0     H 8334   5.423   2.969   8.412 -0.8231 -0.1918 -0.0559
   62MOL0     H 8335   5.622   2.833   8.394  0.7128 -1.0439  0.9732
   62MOL0     H 8336   5.818   2.696   8.417  1.5078  1.2466  1.6756
   62MOL0     H 8337   5.732   2.729   8.571  0.1250 -1.1751  2.0647
   62MOL0     H 8338   5.961   2.642   8.614 -0.7449  1.6297  1.3346
   62MOL0     H 8339   5.829   2.536   8.670  1.2056 -0.3163  0.3774
   62MOL0     H 8340   6.001   2.482   8.434  0.3430  2.1982  1.3319
   62MOL0     H 8341   5.876   2.368   8.505 -0.3902  0.5112  1.5349
   62MOL0     H 8342   6.117   2.447   8.674 -1.4300  2.1053 -1.8898
   62MOL0     H 8343   5.997   2.336   8.722  0.1200  1.0669  0.7842
   62MOL0     H 8344   6.125   2.272   8.454 -0.4733 -1.1698 -0.9302
   62MOL0     H 8345   6.072   2.163   8.578  0.3763  0.2037  0.7301
   62MOL0     H 8346   6.310   2.340   8.608 -1.3690  1.1021 -1.6120
   62MOL0     H 8347   6.247   2.241   8.739 -0.4249 -3.1080  0.4052
   62MOL0     H 8348   6.306   2.035   8.648 -0.2932  0.5803 -1.1186
   62MOL0     H 8349   6.434   2.153   8.641 -0.4863  2.6067  0.6518
   62MOL0     H 8350   6.262   2.105   8.398 -1.6289 -2.7534 -0.4176
   62MOL0     H 8351   6.408   2.012   8.419  0.1374  0.5942  0.2213
   62MOL0     H 8352   5.429   2.485   8.530  2.2470 -0.3967 -2.0505
   62MOL0     H 8353   5.211   2.623   8.562  0.2940 -1.0482 -0.8308
   62MOL0     H 8354   5.059   3.114   8.540  0.9791 -3.6224  0.0777
   62MOL0     H 8355   4.848   3.242   8.639  0.1739  0.0217  0.1478
   62MOL0     H 8356   5.874   3.305   8.516 -0.8212 -1.1161  0.6671
   62MOL0     H 8357   6.116   3.268   8.569  2.5519  0.4527 -1.4189
   62MOL0     H 8358   6.640   3.380   8.234  1.5388 -0.2465 -0.2394
   62MOL0     H 8359   6.860   3.402   8.297  0.5907 -0.7445  0.6855
   62MOL0     H 8360   7.064   3.368   8.424  1.1723  0.1562 -2.0467
   62MOL0     H 8361   7.050   3.546   8.392 -0.0737  0.3544  0.6200
   62MOL0     H 8362   7.202   3.403   8.625  0.5277 -3.3426 -2.4763
   62MOL0     H 8363   7.216   3.574   8.576 -1.3429  0.4905 -0.0094
   62MOL0     H 8364   7.295   3.468   8.348  0.8778 -0.1534  0.5565
   62MOL0     H 8365   7.304   3.315   8.438 -1.5747  0.1993 -0.7335
   62MOL0     H 8366   7.472   3.377   8.576 -3.8441 -0.2059 -0.2411
   62MOL0     H 8367   7.448   3.552   8.544 -3.0725 -0.1453 -0.1880
   62MOL0     H 8368   7.708   3.479   8.223  0.1204 -0.6985 -0.2690
   62MOL0     H 8369   6.757   3.441   8.697 -2.4689  1.6329  1.8222
   62MOL0     H 8370   6.523   3.431   8.658  0.5412  2.0786  0.5843
   63MOL0     O 8371   0.801   4.883   9.149  0.6893 -0.0621  0.0540
   63MOL0     C 8372   0.715   4.893   9.238  0.2331  0.3875 -0.1872
   63MOL0     O 8373   0.576   4.877   9.227 -0.0791 -0.4523  0.0068
   63MOL0     C 8374   0.526   4.823   9.113  0.9651 -0.6762 -0.4704
   63MOL0     C 8375   0.441   4.904   9.033  0.0795  0.5300  0.4737
   63MOL0     C 8376   0.383   4.857   8.917  0.3121 -0.0425 -0.0602
   63MOL0     C 8377   0.412   4.733   8.869 -1.0146  0.1854 -0.4975
   63MOL0     O 8378   0.353   4.691   8.755 -0.7175  0.3284 -0.3319
   63MOL0     C 8379   0.428   4.720   8.638  0.3372  0.4634 -0.3147
   63MOL0     C 8380   0.394   4.604   8.542  1.1723 -0.2970  0.1137
   63MOL0     C 8381   0.253   4.640   8.468  1.4041  0.3729 -0.6022
   63MOL0     C 8382   0.231   4.539   8.363 -0.4952  0.9123  0.0705
   63MOL0     C 8383   0.109   4.564   8.275 -0.3401  0.7932 -1.3500
   63MOL0     C 8384  -0.017   4.607   8.360 -0.0944  1.0096  0.4729
   63MOL0     C 8385  -0.134   4.641   8.259 -0.0891 -0.5731 -0.2897
   63MOL0     C 8386  -0.233   4.529   8.234  0.0720  0.3826  0.2575
   63MOL0     N 8387  -0.336   4.560   8.131 -0.1972  0.3913 -0.0381
   63MOL0     C 8388  -0.328   4.500   8.005  0.3166 -0.9344 -0.1746
   63MOL0     C 8389  -0.450   4.541   7.945  0.0599 -0.2086 -0.6855
   63MOL0     C 8390  -0.500   4.498   7.805  0.7090  0.4632 -0.3603
   63MOL0     C 8391  -0.409   4.533   7.692 -0.6027 -0.7460  0.3625
   63MOL0     C 8392  -0.382   4.685   7.682  0.0852  0.3578 -0.2022
   63MOL0     C 8393  -0.507   4.772   7.645 -0.0766 -0.2194  0.2147
   63MOL0     O 8394  -0.535   4.747   7.508 -0.3402 -0.5275  0.7443
   63MOL0     C 8395  -0.658   4.793   7.448 -0.0057  0.1888 -0.6894
   63MOL0     C 8396  -0.740   4.891   7.509 -0.4329  0.1259 -0.6117
   63MOL0     C 8397  -0.857   4.938   7.455  0.1252  0.2406  0.2563
   63MOL0     C 8398  -0.922   5.050   7.532 -0.4693  0.0806 -0.2208
   63MOL0     C 8399  -0.906   4.880   7.330  0.7423 -0.1427  0.1738
   63MOL0     C 8400  -1.026   4.933   7.258  0.0042 -0.9464 -0.5432
   63MOL0     O 8401  -1.050   4.891   7.128  0.5528 -0.4045  0.4009
   63MOL0     C 8402  -1.165   4.941   7.067  0.3833  0.2096  0.1388
   63MOL0     C 8403  -1.138   5.002   6.938 -0.1736  0.2016 -0.2553
   63MOL0     C 8404  -1.248   5.058   6.877 -0.3584  0.0472 -0.7966
   63MOL0     C 8405  -1.377   5.053   6.931  1.0212 -0.0856 -0.2120
   63MOL0     O 8406  -1.483   5.123   6.872  0.3296  0.1311  0.1977
   63MOL0     C 8407  -1.510   5.083   6.736  0.4119 -0.2752 -0.5547
   63MOL0     C 8408  -1.640   5.179   6.697  0.0522 -0.7145 -0.0009
   63MOL0     C 8409  -1.775   5.112   6.732  0.1916  1.1162  0.1946
   63MOL0     C 8410  -1.888   5.215   6.701 -0.5089  0.2356 -0.1371
   63MOL0     C 8411  -2.010   5.168   6.777  0.3866  0.2992 -0.2176
   63MOL0     C 8412  -2.077   5.037   6.736 -0.4545  0.3370  0.4253
   63MOL0     C 8413  -2.118   5.041   6.581  0.1823 -0.5599  0.0783
   63MOL0     C 8414  -2.161   4.907   6.514 -0.0361  0.1414  0.3327
   63MOL0    Cl 8415  -2.141   4.916   6.333 -0.3201 -0.0170  0.3744
   63MOL0     C 8416  -1.409   4.991   7.056  0.8566  0.6057  0.3727
   63MOL0     C 8417  -1.298   4.940   7.124  0.2002 -0.0309 -0.3536
   63MOL0     O 8418  -1.102   5.003   7.322  0.1273  0.0076  0.5660
   63MOL0     C 8419  -0.825   4.779   7.273 -1.1031  0.1947 -0.8560
   63MOL0     C 8420  -0.703   4.735   7.333  0.1993 -0.4488  1.1677
   63MOL0     N 8421  -0.524   4.607   8.048 -0.6053  0.1488 -0.4865
   63MOL0     N 8422  -0.462   4.606   8.156 -0.3043 -0.3188 -0.3767
   63MOL0     C 8423   0.494   4.656   8.945 -0.5815  0.4405  0.7367
   63MOL0     C 8424   0.544   4.694   9.066  0.2916 -0.3452  0.3757
   63MOL0     C 8425   0.762   4.956   9.362  0.2617  0.0043  0.0367
   63MOL0     C 8426   0.683   4.956   9.481  0.2609  0.1187  0.2810
   63MOL0     C 8427   0.743   4.996   9.604 -0.2379  0.8538  0.4141
   63MOL0     C 8428   0.880   5.045   9.608 -0.5968  0.4386  0.1726
   63MOL0     O 8429   0.945   5.093   9.714 -0.7047 -0.4148  0.5960
   63MOL0     C 8430   0.873   5.109   9.840  0.0513  0.1293  0.6664
   63MOL0     C 8431   0.888   4.975   9.918  0.4118  0.4745  0.2049
   63MOL0     C 8432   0.790   4.974  10.037  0.2963  0.5165 -0.8974
   63MOL0     C 8433   0.795   4.836  10.118  0.4268 -1.3477 -0.1597
   63MOL0     C 8434   0.912   4.829  10.201 -0.1189  0.5380  0.9529
   63MOL0     C 8435   0.998   4.818  10.280 -0.7492  0.1771  0.3352
   63MOL0     C 8436   0.949   5.051   9.491 -0.4314  0.6982  0.8341
   63MOL0     C 8437   0.895   5.008   9.367  1.0778 -0.7403  0.4800
   63MOL0     H 8438   0.412   5.005   9.060 -0.1753  1.1543 -1.9017
   63MOL0     H 8439   0.311   4.915   8.859 -0.4838 -0.4671  0.4734
   63MOL0     H 8440   0.393   4.818   8.603 -0.2284  0.9974  1.6203
   63MOL0     H 8441   0.536   4.719   8.655  0.2197 -1.7395  0.6928
   63MOL0     H 8442   0.473   4.610   8.466  1.4225 -3.8883 -0.0561
   63MOL0     H 8443   0.402   4.507   8.591 -3.6336 -1.2608 -0.5107
   63MOL0     H 8444   0.175   4.636   8.544  3.3064  0.6706  1.4777
   63MOL0     H 8445   0.256   4.744   8.433 -1.0879  1.3877  1.8806
   63MOL0     H 8446   0.323   4.553   8.305  0.2946  1.9861  1.5166
   63MOL0     H 8447   0.227   4.434   8.395 -2.0872  1.1413  0.6575
   63MOL0     H 8448   0.125   4.644   8.204  1.0440 -1.2752 -3.5176
   63MOL0     H 8449   0.097   4.477   8.209  0.4994  1.1266 -1.9509
   63MOL0     H 8450  -0.048   4.522   8.420 -0.2578  0.0580 -0.9065
   63MOL0     H 8451  -0.000   4.686   8.433  1.9914  1.0910 -0.0208
   63MOL0     H 8452  -0.190   4.722   8.307  1.4218 -1.6534  3.7253
   63MOL0     H 8453  -0.081   4.678   8.171  2.0470 -2.4305  0.1362
   63MOL0     H 8454  -0.288   4.506   8.325 -0.6331 -2.7210 -0.8258
   63MOL0     H 8455  -0.180   4.440   8.196 -0.9123 -2.6452  5.0882
   63MOL0     H 8456  -0.246   4.445   7.961  0.9852  0.2968 -0.5196
   63MOL0     H 8457  -0.520   4.390   7.807  1.6030  0.2900 -0.4316
   63MOL0     H 8458  -0.601   4.535   7.786  0.7225  1.3304  1.1378
   63MOL0     H 8459  -0.466   4.505   7.604  0.7839  0.0353 -0.8246
   63MOL0     H 8460  -0.314   4.478   7.690  0.7257  1.4383 -1.8738
   63MOL0     H 8461  -0.299   4.704   7.614  1.6748  1.4218  1.9458
   63MOL0     H 8462  -0.354   4.732   7.776 -0.3205  0.9979 -0.3889
   63MOL0     H 8463  -0.475   4.875   7.663 -1.5797  0.6366 -1.6746
   63MOL0     H 8464  -0.594   4.755   7.709  0.7690 -0.4234  1.3352
   63MOL0     H 8465  -0.696   4.950   7.588 -0.0209  0.9780 -1.4531
   63MOL0     H 8466  -0.860   5.078   7.619  1.8774  0.1145 -1.8073
   63MOL0     H 8467  -0.920   5.139   7.469  1.3896  0.6518  0.5578
   63MOL0     H 8468  -1.024   5.024   7.560 -1.1552  0.4629 -2.2157
   63MOL0     H 8469  -1.037   4.997   6.897  0.1639  0.0460  0.5788
   63MOL0     H 8470  -1.223   5.114   6.787  0.6807 -0.9238 -1.1266
   63MOL0     H 8471  -1.422   5.118   6.681 -0.0325  0.7348 -0.6444
   63MOL0     H 8472  -1.529   4.978   6.710  0.5623 -0.6749  0.8743
   63MOL0     H 8473  -1.631   5.278   6.742 -1.4661  0.2143 -1.6215
   63MOL0     H 8474  -1.635   5.207   6.592 -1.2142 -0.2496  0.0365
   63MOL0     H 8475  -1.776   5.094   6.840  0.5470  1.4898  0.2608
   63MOL0     H 8476  -1.792   5.017   6.679  2.3578 -1.5051  3.7012
   63MOL0     H 8477  -1.855   5.315   6.732  0.2991  0.5498 -1.9308
   63MOL0     H 8478  -1.900   5.234   6.594 -1.8006  0.3378  0.0088
   63MOL0     H 8479  -2.083   5.247   6.760  0.1523  0.0796 -0.2458
   63MOL0     H 8480  -2.000   5.159   6.885  0.5312 -0.7399 -0.3016
   63MOL0     H 8481  -2.012   4.950   6.753  0.8763  0.4819 -3.1619
   63MOL0     H 8482  -2.166   5.030   6.799 -2.7592  1.1356 -2.5059
   63MOL0     H 8483  -2.023   5.066   6.533 -0.5451  0.1901 -1.0148
   63MOL0     H 8484  -2.189   5.125   6.571  0.3910 -0.4336 -0.3526
   63MOL0     H 8485  -2.261   4.872   6.542 -0.7237 -0.9966 -3.0381
   63MOL0     H 8486  -2.086   4.836   6.551  0.6590 -0.2500 -1.6990
   63MOL0     H 8487  -1.508   5.006   7.098  0.2511 -1.2536 -0.2801
   63MOL0     H 8488  -1.312   4.900   7.224 -1.1554  3.0361  0.8163
   63MOL0     H 8489  -0.866   4.730   7.185 -2.2669 -0.7216  0.1650
   63MOL0     H 8490  -0.651   4.657   7.278  0.5566 -0.0965  1.0025
   63MOL0     H 8491   0.518   4.552   8.926 -1.5059  0.1888  0.9165
   63MOL0     H 8492   0.613   4.622   9.109  1.3897  0.8232  0.6343
   63MOL0     H 8493   0.581   4.920   9.477  0.3886 -0.1371 -1.9448
   63MOL0     H 8494   0.690   4.998   9.699  0.8997  0.6464  1.0651
   63MOL0     H 8495   0.909   5.191   9.904 -1.7303  0.2693  1.5607
   63MOL0     H 8496   0.767   5.134   9.829 -0.0517 -0.1986  0.9093
   63MOL0     H 8497   0.985   4.967   9.968  0.1571 -1.6937  0.4427
   63MOL0     H 8498   0.863   4.895   9.848  1.8001 -0.3515  0.6139
   63MOL0     H 8499   0.685   4.979  10.004 -0.7139 -1.2118  1.7812
   63MOL0     H 8500   0.812   5.062  10.098  0.4686  0.4843 -0.9135
   63MOL0     H 8501   0.802   4.753  10.046  0.0036 -1.5052 -0.0217
   63MOL0     H 8502   0.709   4.837  10.185 -1.6881  0.9117 -2.6954
   63MOL0     H 8503   1.083   4.799  10.343 -1.2964  0.9425  1.3342
   63MOL0     H 8504   1.051   5.085   9.485  1.2660 -3.6135  1.3599
   63MOL0     H 8505   0.971   5.018   9.290  3.7999  0.6315  3.1106
   64MOL0     O 8506   1.082   6.645   9.114 -0.8087  0.6591 -0.1171
   64MOL0     C 8507   1.052   6.726   9.205  0.4979 -0.2664 -0.2506
   64MOL0     O 8508   0.928   6.771   9.228  0.0252 -0.1904 -0.2687
   64MOL0     C 8509   0.824   6.739   9.151  0.1431  0.4700  0.6348
   64MOL0     C 8510   0.808   6.784   9.021 -0.3165 -0.3345  0.3511
   64MOL0     C 8511   0.695   6.754   8.935  0.0991  0.6509 -0.1540
   64MOL0     C 8512   0.599   6.665   8.996 -0.2050 -0.3034 -0.1703
   64MOL0     O 8513   0.497   6.615   8.916  0.5454 -0.1442 -0.1812
   64MOL0     C 8514   0.545   6.530   8.807 -0.1342  0.0172 -0.3291
   64MOL0     C 8515   0.428   6.453   8.744  1.4467  0.3174 -0.5568
   64MOL0     C 8516   0.337   6.557   8.680 -0.9834 -0.4197 -0.6464
   64MOL0     C 8517   0.389   6.606   8.543 -0.1772  0.3331 -0.4607
   64MOL0     C 8518   0.276   6.686   8.486 -0.8216  0.7646 -0.0886
   64MOL0     C 8519   0.311   6.761   8.359  0.2306 -0.1276 -1.0745
   64MOL0     C 8520   0.411   6.686   8.267  0.1338  0.3801 -0.5652
   64MOL0     C 8521   0.411   6.740   8.126 -0.1018  0.4736 -0.0279
   64MOL0     N 8522   0.494   6.668   8.028 -0.1825  0.2373 -0.6355
   64MOL0     C 8523   0.459   6.659   7.900 -0.2953  0.9597  0.1410
   64MOL0     C 8524   0.574   6.646   7.816  0.2359 -1.2256 -0.2911
   64MOL0     C 8525   0.594   6.645   7.667 -0.3263 -0.5474  0.4351
   64MOL0     C 8526   0.467   6.610   7.582  0.0627  0.9801 -0.2690
   64MOL0     C 8527   0.491   6.593   7.435 -0.3007 -0.9829 -0.1012
   64MOL0     C 8528   0.533   6.728   7.374 -0.0169  0.5113  0.5971
   64MOL0     O 8529   0.409   6.801   7.356 -0.1230  0.4370 -0.4603
   64MOL0     C 8530   0.404   6.917   7.284 -0.0694  0.5604  0.3955
   64MOL0     C 8531   0.285   6.988   7.270  1.0367 -0.6455 -1.0252
   64MOL0     C 8532   0.277   7.112   7.217 -0.2131  0.1981  0.8015
   64MOL0     C 8533   0.135   7.164   7.223  0.1638 -0.3820  0.7118
   64MOL0     C 8534   0.383   7.174   7.148  1.0532 -0.5550  0.4029
   64MOL0     C 8535   0.373   7.314   7.087 -0.8171  0.0813 -0.1887
   64MOL0     O 8536   0.492   7.383   7.078 -0.0836  0.5311  0.0769
   64MOL0     C 8537   0.505   7.494   6.995  0.6168  0.7510 -0.9607
   64MOL0     C 8538   0.563   7.606   7.043 -0.4910 -0.4316  0.4839
   64MOL0     C 8539   0.575   7.721   6.955  0.4547  0.6107 -0.5346
   64MOL0     C 8540   0.524   7.719   6.821  0.0307  0.3836  0.3086
   64MOL0     O 8541   0.559   7.828   6.743 -0.6417  0.4211  0.2104
   64MOL0     C 8542   0.606   7.808   6.605  0.0924  0.1245 -0.4485
   64MOL0     C 8543   0.515   7.886   6.504 -0.9357  0.6049 -0.8614
   64MOL0     C 8544   0.518   8.033   6.537 -0.1593 -0.1982  0.2407
   64MOL0     C 8545   0.652   8.109   6.560  1.0376 -0.3986  0.0092
   64MOL0     C 8546   0.638   8.271   6.559  0.2079  0.3969 -0.2174
   64MOL0     C 8547   0.767   8.335   6.608 -0.2714  0.3439 -0.2159
   64MOL0     C 8548   0.749   8.489   6.598 -0.2869  0.2821 -0.7461
   64MOL0     C 8549   0.881   8.565   6.623 -0.2824  0.9967  0.0987
   64MOL0    Cl 8550   0.855   8.751   6.637 -0.2894 -0.2999  0.1393
   64MOL0     C 8551   0.464   7.599   6.771 -0.3856 -0.7394  0.3661
   64MOL0     C 8552   0.447   7.492   6.864  0.2161 -0.2322  0.0117
   64MOL0     O 8553   0.267   7.343   7.042  0.9664  0.0807  0.8842
   64MOL0     C 8554   0.509   7.107   7.168 -0.5895 -0.4333  0.9150
   64MOL0     C 8555   0.517   6.977   7.221 -0.5670  0.2721  0.0450
   64MOL0     N 8556   0.673   6.647   7.916  0.7091  0.0415  0.0366
   64MOL0     N 8557   0.626   6.657   8.034  0.1182  0.3504 -0.7100
   64MOL0     C 8558   0.609   6.624   9.129 -0.1035 -0.2331 -0.2049
   64MOL0     C 8559   0.722   6.657   9.214  0.2101 -1.0068 -0.1312
   64MOL0     C 8560   1.165   6.771   9.288  0.3184 -0.4807 -0.2458
   64MOL0     C 8561   1.142   6.843   9.401 -0.0061 -0.1984 -0.0187
   64MOL0     C 8562   1.245   6.873   9.497 -0.7818 -0.6114 -0.6391
   64MOL0     C 8563   1.369   6.819   9.486 -0.0911  0.3484  0.2732
   64MOL0     O 8564   1.449   6.833   9.592 -0.7670 -0.5704 -0.6825
   64MOL0     C 8565   1.592   6.795   9.582  0.9141 -1.0510  0.5166
   64MOL0     C 8566   1.672   6.860   9.693  0.8499 -0.4925 -1.0281
   64MOL0     C 8567   1.821   6.835   9.674 -0.8160 -0.2286 -0.2098
   64MOL0     C 8568   1.903   6.931   9.766  0.1562  0.1818  0.2303
   64MOL0     C 8569   2.045   6.909   9.737 -0.4316 -0.5249 -0.3125
   64MOL0     C 8570   2.162   6.896   9.705  0.0304  0.9661 -1.1411
   64MOL0     C 8571   1.399   6.751   9.361 -0.8065  0.0288 -1.1731
   64MOL0     C 8572   1.297   6.731   9.269  0.5104  0.2325  0.3245
   64MOL0     H 8573   0.890   6.846   8.987  1.7597 -2.0800  1.9382
   64MOL0     H 8574   0.685   6.773   8.829 -2.0164  1.5551  0.1681
   64MOL0     H 8575   0.594   6.574   8.720  1.4652  0.5262  0.7815
   64MOL0     H 8576   0.609   6.455   8.855 -0.2964  2.8444  5.1728
   64MOL0     H 8577   0.457   6.386   8.663 -1.0600  0.1730 -1.4400
   64MOL0     H 8578   0.368   6.393   8.814 -1.2370  3.4500  0.0857
   64MOL0     H 8579   0.246   6.498   8.662 -2.5496  1.1779  1.5607
   64MOL0     H 8580   0.305   6.639   8.744  1.7696 -0.3023  0.7124
   64MOL0     H 8581   0.480   6.666   8.553  0.7761 -0.8528 -1.7183
   64MOL0     H 8582   0.421   6.525   8.477 -0.6581  0.4559 -0.8488
   64MOL0     H 8583   0.188   6.621   8.475 -1.9586  2.5871 -2.9112
   64MOL0     H 8584   0.240   6.765   8.553  0.7028  2.0737 -0.7399
   64MOL0     H 8585   0.218   6.787   8.308 -0.1622 -0.4847 -0.5536
   64MOL0     H 8586   0.361   6.855   8.386  0.4463 -0.3404 -0.7313
   64MOL0     H 8587   0.515   6.696   8.298  0.7570 -1.9648 -1.7310
   64MOL0     H 8588   0.388   6.580   8.261 -0.7806  0.5418 -0.1250
   64MOL0     H 8589   0.446   6.843   8.143 -1.5181  0.7929  1.1619
   64MOL0     H 8590   0.308   6.758   8.095 -0.4844  1.1863  1.5754
   64MOL0     H 8591   0.361   6.681   7.860 -0.0692  0.1929 -0.8738
   64MOL0     H 8592   0.624   6.747   7.638  0.0318 -0.2822  1.6697
   64MOL0     H 8593   0.666   6.568   7.641  0.0655 -1.4093  3.6714
   64MOL0     H 8594   0.387   6.683   7.594 -1.5863 -0.6951 -0.6693
   64MOL0     H 8595   0.421   6.516   7.616  0.0969  0.9454 -0.3187
   64MOL0     H 8596   0.401   6.559   7.382 -1.1265  0.7775  0.0972
   64MOL0     H 8597   0.571   6.522   7.411  1.6621  1.8269 -2.6785
   64MOL0     H 8598   0.578   6.709   7.276 -1.2072 -0.0392  0.1232
   64MOL0     H 8599   0.607   6.776   7.438  2.7694 -2.6598  0.0660
   64MOL0     H 8600   0.206   6.942   7.328  1.1695  0.6387  0.2548
   64MOL0     H 8601   0.135   7.261   7.274 -3.0163  0.1676 -0.1320
   64MOL0     H 8602   0.088   7.178   7.125 -2.4775  0.5421  2.0204
   64MOL0     H 8603   0.065   7.098   7.275 -1.7099  1.4179  0.5606
   64MOL0     H 8604   0.589   7.624   7.146 -0.4439 -1.8771  0.7459
   64MOL0     H 8605   0.606   7.817   6.995  1.6252  0.5003 -1.1632
   64MOL0     H 8606   0.707   7.847   6.591  1.0787 -0.6671  3.2653
   64MOL0     H 8607   0.602   7.700   6.585 -1.0823 -0.2533  1.5123
   64MOL0     H 8608   0.548   7.868   6.401  0.2640  1.3219 -0.6319
   64MOL0     H 8609   0.415   7.846   6.518 -0.5538 -0.7654 -1.8072
   64MOL0     H 8610   0.452   8.035   6.624 -1.0848 -2.4749 -0.3292
   64MOL0     H 8611   0.474   8.067   6.444 -1.2281  0.5246  0.9933
   64MOL0     H 8612   0.684   8.087   6.662 -0.3123  3.6807  1.5401
   64MOL0     H 8613   0.722   8.069   6.487 -1.0181 -1.9210 -1.2338
   64MOL0     H 8614   0.559   8.302   6.628 -1.6714 -1.3441 -1.4490
   64MOL0     H 8615   0.616   8.313   6.461 -1.0060  1.3550  0.4366
   64MOL0     H 8616   0.779   8.315   6.715 -1.0932  3.2017  0.5100
   64MOL0     H 8617   0.856   8.300   6.556  0.1110  2.1557 -0.8455
   64MOL0     H 8618   0.676   8.505   6.679  1.5889  0.7434  0.9277
   64MOL0     H 8619   0.709   8.519   6.501  0.2279 -1.7982 -1.6409
   64MOL0     H 8620   0.953   8.545   6.543 -0.8074  2.1299 -0.6805
   64MOL0     H 8621   0.926   8.534   6.718  1.8389 -2.0731 -1.7454
   64MOL0     H 8622   0.426   7.591   6.670 -1.5255 -0.5895  0.7669
   64MOL0     H 8623   0.412   7.401   6.816 -0.5442 -0.2673  0.5996
   64MOL0     H 8624   0.600   7.155   7.133 -1.0705  1.0496  1.6106
   64MOL0     H 8625   0.611   6.922   7.221  0.5316  2.0229  1.3689
   64MOL0     H 8626   0.519   6.573   9.159 -1.6966  1.4833 -1.7686
   64MOL0     H 8627   0.724   6.624   9.317 -1.7424  0.3154  0.3877
   64MOL0     H 8628   1.042   6.881   9.419 -0.3029 -0.4933 -1.0201
   64MOL0     H 8629   1.217   6.934   9.583  0.5934  0.4058 -0.8847
   64MOL0     H 8630   1.612   6.688   9.578  2.6163 -0.8998  2.7954
   64MOL0     H 8631   1.619   6.833   9.482  0.2396 -0.1533  0.6598
   64MOL0     H 8632   1.641   6.814   9.787  0.1503 -1.8147 -1.8681
   64MOL0     H 8633   1.659   6.969   9.691 -0.6634 -0.6601 -1.4930
   64MOL0     H 8634   1.857   6.848   9.571  0.6314  3.8827  0.6420
   64MOL0     H 8635   1.844   6.732   9.704  0.2634  0.4596  1.4663
   64MOL0     H 8636   1.890   6.900   9.870 -0.8063 -0.0028  0.0629
   64MOL0     H 8637   1.884   7.039   9.771  3.9201  1.0173 -0.1019
   64MOL0     H 8638   2.265   6.869   9.687 -0.3525 -4.8328  2.4378
   64MOL0     H 8639   1.497   6.707   9.347 -1.0251 -0.4477 -1.2175
   64MOL0     H 8640   1.330   6.668   9.187  3.3484  0.3466  1.2476
   65MOL0     O 8641  10.267   6.851   0.923  0.7464  0.3774  0.0973
   65MOL0     C 8642  10.319   6.743   0.948 -0.4280 -0.7362 -0.6953
   65MOL0     O 8643  10.253   6.625   0.958 -0.2695  0.6956  0.1350
   65MOL0     C 8644  10.118   6.622   0.955 -0.1971  0.4876 -0.4456
   65MOL0     C 8645  10.052   6.641   1.074  0.4175 -0.9374 -0.1016
   65MOL0     C 8646   9.911   6.631   1.076 -0.1262  0.1471 -0.2485
   65MOL0     C 8647   9.834   6.607   0.957  0.2131 -0.2670  0.5119
   65MOL0     O 8648   9.699   6.600   0.967  0.3042  0.0935 -0.5586
   65MOL0     C 8649   9.640   6.487   0.895 -0.2716 -0.1233  0.5535
   65MOL0     C 8650   9.491   6.480   0.893  1.0330  0.3796  0.3414
   65MOL0     C 8651   9.441   6.465   1.038 -0.3767  0.3748 -0.1746
   65MOL0     C 8652   9.289   6.467   1.067 -0.0076  0.5955  0.4828
   65MOL0     C 8653   9.209   6.572   0.987 -0.6426  0.0338 -0.0347
   65MOL0     C 8654   9.065   6.584   1.045 -0.0654  0.5304  0.1340
   65MOL0     C 8655   8.982   6.692   0.972 -0.2872  0.2642 -0.4511
   65MOL0     C 8656   8.847   6.733   1.044  0.4886 -0.0378 -0.5665
   65MOL0     N 8657   8.751   6.630   1.076  0.0847 -0.4982  0.1157
   65MOL0     C 8658   8.698   6.612   1.198  0.2009  0.1796  0.0930
   65MOL0     C 8659   8.617   6.499   1.182  1.1008 -0.1145  0.3185
   65MOL0     C 8660   8.541   6.441   1.305 -0.0098 -0.5653 -0.3722
   65MOL0     C 8661   8.392   6.427   1.278 -0.2727 -0.5073 -0.5511
   65MOL0     C 8662   8.305   6.554   1.319  0.1872  0.6636  0.0271
   65MOL0     C 8663   8.169   6.560   1.269 -0.1746 -0.0095  0.4415
   65MOL0     O 8664   8.090   6.479   1.354  0.1332  0.5922  0.6945
   65MOL0     C 8665   7.949   6.477   1.339 -0.5874 -0.4666 -0.0206
   65MOL0     C 8666   7.881   6.388   1.427 -0.2838  0.0473  1.7676
   65MOL0     C 8667   7.744   6.374   1.424  0.2982  0.2347 -0.6121
   65MOL0     C 8668   7.681   6.263   1.509  0.0404 -0.6184 -0.1011
   65MOL0     C 8669   7.667   6.450   1.336 -0.5109  0.3725 -0.0496
   65MOL0     C 8670   7.527   6.441   1.324  0.1328  0.8684  0.6080
   65MOL0     O 8671   7.473   6.314   1.311  0.4458  0.0146 -0.6138
   65MOL0     C 8672   7.334   6.300   1.322  0.5867  0.0289 -0.0609
   65MOL0     C 8673   7.236   6.364   1.246 -0.0508 -0.4589  0.2761
   65MOL0     C 8674   7.101   6.350   1.266 -0.6335 -0.1032 -0.5896
   65MOL0     C 8675   7.052   6.263   1.359 -0.0838 -0.2061  0.3687
   65MOL0     O 8676   6.918   6.243   1.379 -0.1930  0.9314  0.9716
   65MOL0     C 8677   6.826   6.264   1.268  0.1600 -0.1743  0.0616
   65MOL0     C 8678   6.723   6.160   1.291 -0.1507  0.2871 -0.5120
   65MOL0     C 8679   6.627   6.151   1.177 -0.3973  0.2077 -0.4428
   65MOL0     C 8680   6.511   6.051   1.207 -0.4652 -0.2749 -0.4044
   65MOL0     C 8681   6.419   6.042   1.085 -0.1992 -1.2734 -0.6389
   65MOL0     C 8682   6.340   5.914   1.098  0.3770  0.3729 -0.2279
   65MOL0     C 8683   6.281   5.869   0.959  0.1671 -0.0881 -0.0694
   65MOL0     C 8684   6.236   5.726   0.956 -0.2803 -0.3352  0.7204
   65MOL0    Cl 8685   6.081   5.685   1.035  0.4582 -0.2763 -0.2132
   65MOL0     C 8686   7.144   6.197   1.438 -0.4091  0.0333  0.0977
   65MOL0     C 8687   7.280   6.217   1.421  0.2140 -0.6424 -0.3471
   65MOL0     O 8688   7.472   6.551   1.318 -0.3900  0.6416  0.4937
   65MOL0     C 8689   7.741   6.541   1.250  0.6661  0.5431  0.3609
   65MOL0     C 8690   7.874   6.562   1.253 -0.9426  0.9387  0.7556
   65MOL0     N 8691   8.639   6.449   1.053 -0.2446  0.8742  0.2040
   65MOL0     N 8692   8.724   6.525   0.997 -0.5539 -0.8785  0.1893
   65MOL0     C 8693   9.912   6.596   0.836 -0.4470 -0.5781  0.0255
   65MOL0     C 8694  10.055   6.594   0.836 -0.3545  0.6015 -0.3813
   65MOL0     C 8695  10.467   6.765   0.971  0.6329  1.0210  0.2289
   65MOL0     C 8696  10.531   6.892   0.965  0.0189 -0.7131  0.5207
   65MOL0     C 8697  10.674   6.881   0.984  0.0935  0.1050 -0.2706
   65MOL0     C 8698  10.749   6.760   1.001  0.2650 -0.2332 -0.4309
   65MOL0     O 8699  10.882   6.767   1.028 -0.2046 -0.2134  0.3473
   65MOL0     C 8700  10.944   6.896   1.047  0.6572 -0.1202  1.0060
   65MOL0     C 8701  11.074   6.857   1.107 -0.6439 -0.7435 -0.4974
   65MOL0     C 8702  11.162   6.761   1.020 -0.1623 -0.1099 -1.4025
   65MOL0     C 8703  11.313   6.749   1.059 -0.0869  0.1420 -0.5152
   65MOL0     C 8704  11.344   6.673   1.184  0.5133 -0.4076 -0.4220
   65MOL0     C 8705  11.389   6.599   1.269 -0.5380 -0.4954  0.1495
   65MOL0     C 8706  10.676   6.642   0.987 -0.8462 -0.4102 -0.8492
   65MOL0     C 8707  10.539   6.647   0.988  0.2044  0.0580  0.4962
   65MOL0     H 8708  10.122   6.658   1.156  0.4838 -2.6529  0.2280
   65MOL0     H 8709   9.857   6.625   1.169  1.7101 -1.3041  0.7966
   65MOL0     H 8710   9.674   6.487   0.791  0.1818  0.9577  0.6921
   65MOL0     H 8711   9.675   6.395   0.943 -1.1496 -1.3452 -1.0202
   65MOL0     H 8712   9.442   6.567   0.849 -0.2782 -0.9868 -1.0707
   65MOL0     H 8713   9.452   6.392   0.840  1.3186 -2.1225  3.8851
   65MOL0     H 8714   9.483   6.368   1.067  2.7139  2.2930  2.4890
   65MOL0     H 8715   9.484   6.544   1.100 -1.8871  1.0382  0.0696
   65MOL0     H 8716   9.253   6.367   1.043 -0.3055  0.9744 -0.7284
   65MOL0     H 8717   9.269   6.491   1.172 -1.4443  0.6007  0.2353
   65MOL0     H 8718   9.260   6.669   0.991 -0.6274  0.0596  4.0457
   65MOL0     H 8719   9.205   6.528   0.887  0.0503 -2.4404  0.9561
   65MOL0     H 8720   9.011   6.490   1.031 -0.3626  0.3863  2.0907
   65MOL0     H 8721   9.075   6.611   1.150 -1.7580  0.6084  0.2888
   65MOL0     H 8722   9.038   6.786   0.971 -0.0277  0.2664  2.7887
   65MOL0     H 8723   8.955   6.656   0.873 -2.4048  2.2821 -0.7026
   65MOL0     H 8724   8.798   6.802   0.974 -1.0621 -0.5894 -0.0462
   65MOL0     H 8725   8.878   6.787   1.134  0.3404 -3.5686  1.8036
   65MOL0     H 8726   8.717   6.662   1.292  0.2120  3.7011 -1.6321
   65MOL0     H 8727   8.584   6.341   1.322 -3.0060 -2.0282 -0.7918
   65MOL0     H 8728   8.544   6.491   1.402 -1.8760 -0.0123 -0.5642
   65MOL0     H 8729   8.363   6.334   1.326 -0.5103 -1.3139 -2.1922
   65MOL0     H 8730   8.378   6.413   1.170  1.5493  1.6340 -1.1428
   65MOL0     H 8731   8.354   6.646   1.284  1.2065  0.4427  0.8287
   65MOL0     H 8732   8.309   6.553   1.428 -1.6558 -0.5999  0.1136
   65MOL0     H 8733   8.166   6.532   1.164 -1.1432 -1.4220  0.8144
   65MOL0     H 8734   8.148   6.667   1.271 -3.0037 -0.4502 -0.8394
   65MOL0     H 8735   7.937   6.307   1.473 -0.6024 -2.6021 -2.0718
   65MOL0     H 8736   7.603   6.302   1.575  1.4601  1.6060  0.3593
   65MOL0     H 8737   7.636   6.185   1.445 -2.7534  0.1700  0.7516
   65MOL0     H 8738   7.754   6.225   1.580 -0.2168 -0.4773  0.2425
   65MOL0     H 8739   7.276   6.438   1.177  2.7417 -1.8503  0.2735
   65MOL0     H 8740   7.033   6.402   1.200 -1.4283 -1.9924 -1.3452
   65MOL0     H 8741   6.781   6.363   1.285 -0.2346 -0.5353  1.2803
   65MOL0     H 8742   6.861   6.249   1.166  1.4385 -4.0438  0.9010
   65MOL0     H 8743   6.772   6.064   1.308 -1.0070 -0.0827 -0.1322
   65MOL0     H 8744   6.660   6.194   1.373 -0.6725  0.3201 -0.9213
   65MOL0     H 8745   6.680   6.124   1.085  2.1885 -1.7057  1.4636
   65MOL0     H 8746   6.586   6.248   1.149 -0.8630 -0.5679 -2.6446
   65MOL0     H 8747   6.548   5.952   1.234 -1.6745 -0.2316  1.6824
   65MOL0     H 8748   6.464   6.087   1.300  1.7169  3.1997 -0.4375
   65MOL0     H 8749   6.480   6.026   0.996  1.6103 -2.9889  0.8094
   65MOL0     H 8750   6.357   6.130   1.066  2.1887  0.8758  0.8893
   65MOL0     H 8751   6.405   5.830   1.125 -0.7038 -0.3882  0.0581
   65MOL0     H 8752   6.259   5.912   1.172  0.7669 -3.4602  0.3094
   65MOL0     H 8753   6.359   5.882   0.882 -0.3859 -0.7700 -0.7630
   65MOL0     H 8754   6.196   5.933   0.935  1.1398  2.4304  2.5792
   65MOL0     H 8755   6.319   5.661   0.988  2.0165  0.5568 -2.8459
   65MOL0     H 8756   6.223   5.727   0.848 -1.9773  0.7574  0.8929
   65MOL0     H 8757   7.108   6.125   1.512 -0.5752  0.8422  0.8186
   65MOL0     H 8758   7.351   6.170   1.488  0.0924  1.0135  1.0149
   65MOL0     H 8759   7.694   6.608   1.178 -1.1028  0.7045  1.6269
   65MOL0     H 8760   7.921   6.640   1.194 -0.3407  0.8493  1.1096
   65MOL0     H 8761   9.865   6.593   0.739 -1.6971 -0.9605  0.6200
   65MOL0     H 8762  10.117   6.571   0.750 -0.9581  1.8049 -1.1718
   65MOL0     H 8763  10.482   6.988   0.956  1.1601 -0.1974 -0.3718
   65MOL0     H 8764  10.727   6.975   0.997 -1.2029  0.9199 -0.7294
   65MOL0     H 8765  10.952   6.947   0.950 -0.7494  0.9316  1.3932
   65MOL0     H 8766  10.894   6.969   1.112  0.0042  0.0516  0.3322
   65MOL0     H 8767  11.078   6.819   1.210 -1.4376  0.4496 -0.0103
   65MOL0     H 8768  11.126   6.953   1.114 -1.5198 -0.2441 -0.7435
   65MOL0     H 8769  11.156   6.794   0.916 -0.9260 -0.2070 -1.3903
   65MOL0     H 8770  11.116   6.663   1.032 -6.0170  2.3466 -0.6296
   65MOL0     H 8771  11.352   6.849   1.080 -0.9969  0.8301 -1.9044
   65MOL0     H 8772  11.376   6.710   0.978  1.2172 -1.0606  1.0088
   65MOL0     H 8773  11.418   6.543   1.355  2.5568  0.0660 -0.4314
   65MOL0     H 8774  10.729   6.548   1.000 -0.6230 -0.0830  0.8092
   65MOL0     H 8775  10.495   6.548   0.992  0.4856 -0.0938 -0.0636
   66MOL0     O 8776   6.298   6.822   1.644 -0.0376 -0.3472 -0.0192
   66MOL0     C 8777   6.385   6.779   1.565  0.2128  0.1007 -1.1331
   66MOL0     O 8778   6.502   6.841   1.534 -0.1260 -0.1827 -0.8192
   66MOL0     C 8779   6.517   6.974   1.574 -0.8853 -0.5753  0.1995
   66MOL0     C 8780   6.438   7.071   1.514  0.7939 -1.5924 -0.4044
   66MOL0     C 8781   6.466   7.206   1.540 -0.0291 -0.1193  0.8123
   66MOL0     C 8782   6.580   7.231   1.624 -0.4402 -0.7179  0.2575
   66MOL0     O 8783   6.628   7.357   1.651 -0.1500 -0.1355 -0.4196
   66MOL0     C 8784   6.546   7.475   1.640 -0.0033  0.9910  0.8998
   66MOL0     C 8785   6.650   7.584   1.674  0.4265  0.4945  0.6691
   66MOL0     C 8786   6.584   7.727   1.666  0.0675  1.1980  0.1599
   66MOL0     C 8787   6.525   7.743   1.526  0.7016 -0.4076  0.4836
   66MOL0     C 8788   6.525   7.895   1.481 -0.6236  0.4936  1.1647
   66MOL0     C 8789   6.454   7.900   1.345  0.3757  0.3428  0.7648
   66MOL0     C 8790   6.454   8.049   1.299  0.3811  0.1430 -0.1564
   66MOL0     C 8791   6.388   8.062   1.157 -1.2268  0.3325 -0.5030
   66MOL0     N 8792   6.246   8.106   1.173  0.0894 -0.1745 -0.0020
   66MOL0     C 8793   6.193   8.218   1.115  0.1048  1.0583 -0.6427
   66MOL0     C 8794   6.063   8.197   1.106  0.2267  0.1316 -0.2219
   66MOL0     C 8795   5.958   8.286   1.040 -0.0170 -0.2712  0.6504
   66MOL0     C 8796   5.909   8.389   1.147  0.8403  0.0376  0.2876
   66MOL0     C 8797   5.842   8.502   1.082  1.0149 -0.7642 -0.3064
   66MOL0     C 8798   5.917   8.594   0.982 -0.1338  0.2115  0.5821
   66MOL0     O 8799   6.034   8.659   1.031 -0.0824 -0.4482  0.3553
   66MOL0     C 8800   6.158   8.607   1.009  0.3147 -0.5997 -0.4906
   66MOL0     C 8801   6.243   8.573   1.118  0.4660  0.4330  0.3573
   66MOL0     C 8802   6.379   8.520   1.100 -0.4200 -0.6622 -0.3410
   66MOL0     C 8803   6.449   8.480   1.225  0.8856 -0.4672  0.0144
   66MOL0     C 8804   6.426   8.496   0.971  0.2126  0.5619  0.7526
   66MOL0     C 8805   6.565   8.427   0.949  0.2897 -0.3567 -0.0304
   66MOL0     O 8806   6.587   8.408   0.817  0.2198  0.0394  0.0588
   66MOL0     C 8807   6.711   8.357   0.790  0.3102  0.2350  0.2590
   66MOL0     C 8808   6.731   8.230   0.726 -0.7509 -0.1970  0.1746
   66MOL0     C 8809   6.859   8.201   0.677 -0.3471  0.2411 -0.1508
   66MOL0     C 8810   6.969   8.294   0.695  0.0410  1.1316 -0.0748
   66MOL0     O 8811   7.090   8.279   0.637 -0.4250  0.3714 -0.3450
   66MOL0     C 8812   7.137   8.147   0.593  0.9077  0.2109  0.7484
   66MOL0     C 8813   7.283   8.158   0.564  0.2904  0.3943  0.8934
   66MOL0     C 8814   7.339   8.014   0.576 -0.6695  1.1776  0.7734
   66MOL0     C 8815   7.489   8.019   0.535  0.1603 -0.4864  0.9788
   66MOL0     C 8816   7.499   8.020   0.383  0.2712 -0.0597 -0.7051
   66MOL0     C 8817   7.634   7.967   0.339  0.6193  0.6807  0.7390
   66MOL0     C 8818   7.751   8.036   0.412 -0.2566 -0.2844  0.6624
   66MOL0     C 8819   7.883   7.987   0.368 -1.1280  0.2035 -0.0079
   66MOL0    Cl 8820   8.004   8.090   0.443  0.2750 -0.1911 -0.3332
   66MOL0     C 8821   6.947   8.412   0.756  0.4357 -0.0730 -0.2490
   66MOL0     C 8822   6.821   8.441   0.804  0.2290 -1.0743  0.0857
   66MOL0     O 8823   6.637   8.394   1.043 -0.0110  0.1396  0.4436
   66MOL0     C 8824   6.334   8.523   0.866 -0.4770  0.0951 -0.1869
   66MOL0     C 8825   6.210   8.585   0.883 -0.7263 -0.6336 -0.6351
   66MOL0     N 8826   6.036   8.083   1.176 -0.8159  0.3631 -0.7487
   66MOL0     N 8827   6.143   8.027   1.219  0.0549 -0.2252  1.3004
   66MOL0     C 8828   6.651   7.132   1.693  0.3816 -0.2406  0.4000
   66MOL0     C 8829   6.626   7.000   1.660  0.3489  0.7346  0.9510
   66MOL0     C 8830   6.350   6.645   1.505 -0.3985  0.0615  0.4258
   66MOL0     C 8831   6.222   6.591   1.512  0.3955  0.6851 -0.0723
   66MOL0     C 8832   6.194   6.462   1.464  0.1327 -0.8094  1.1903
   66MOL0     C 8833   6.290   6.381   1.412 -0.5816  0.2194  0.5516
   66MOL0     O 8834   6.264   6.253   1.365 -0.0983  0.4058 -0.1932
   66MOL0     C 8835   6.130   6.193   1.362  0.5614  1.1695  0.2865
   66MOL0     C 8836   6.091   6.150   1.500 -0.4999 -0.6887 -0.3146
   66MOL0     C 8837   5.953   6.081   1.526  0.6872  0.2317 -0.3723
   66MOL0     C 8838   5.914   5.982   1.411  0.1693  0.4196 -0.2178
   66MOL0     C 8839   6.005   5.874   1.385 -0.1398 -0.1238 -0.3424
   66MOL0     C 8840   6.095   5.793   1.369  0.0629 -0.6356  0.6640
   66MOL0     C 8841   6.427   6.424   1.429  1.0594  0.8605  0.4199
   66MOL0     C 8842   6.450   6.554   1.470  0.1055 -0.2872  0.3684
   66MOL0     H 8843   6.357   7.037   1.450  1.8248 -0.3171 -2.5036
   66MOL0     H 8844   6.405   7.282   1.493  0.5192  1.2958  2.2691
   66MOL0     H 8845   6.494   7.485   1.544 -0.8182  1.5946  1.3972
   66MOL0     H 8846   6.459   7.458   1.704 -1.5994 -2.0793 -1.7693
   66MOL0     H 8847   6.681   7.558   1.776 -0.4034 -1.6271  0.4333
   66MOL0     H 8848   6.734   7.574   1.605  1.2299  1.1387  1.5244
   66MOL0     H 8849   6.506   7.723   1.743 -0.1174 -4.7938  0.0792
   66MOL0     H 8850   6.648   7.808   1.704  1.0555 -0.1574  1.5290
   66MOL0     H 8851   6.585   7.684   1.457 -1.0770 -2.0443  0.2553
   66MOL0     H 8852   6.429   7.691   1.514  0.5266  0.1687 -0.9105
   66MOL0     H 8853   6.475   7.964   1.550 -0.3981  3.2850 -1.2339
   66MOL0     H 8854   6.626   7.936   1.469 -0.2459 -0.5985  0.5390
   66MOL0     H 8855   6.508   7.840   1.272  0.8590  0.3416  1.1153
   66MOL0     H 8856   6.356   7.853   1.335 -0.7583  2.9763 -2.1676
   66MOL0     H 8857   6.394   8.104   1.372 -1.3216  2.4778 -3.0613
   66MOL0     H 8858   6.554   8.093   1.301  1.4394 -2.0411  2.5013
   66MOL0     H 8859   6.374   7.970   1.100  0.9761  1.3236 -2.8632
   66MOL0     H 8860   6.452   8.125   1.095  2.8870 -1.8730  1.1563
   66MOL0     H 8861   6.257   8.303   1.091 -0.0279  1.1612 -0.6320
   66MOL0     H 8862   6.003   8.342   0.957 -1.4232  1.8146  1.2123
   66MOL0     H 8863   5.867   8.230   1.017 -0.5683  0.1484  1.7394
   66MOL0     H 8864   5.992   8.425   1.209  2.6758  1.3994 -2.6889
   66MOL0     H 8865   5.838   8.336   1.211 -0.4793  0.4697 -0.7628
   66MOL0     H 8866   5.803   8.569   1.159  3.8924  3.8384 -2.4293
   66MOL0     H 8867   5.754   8.465   1.030 -0.9059  2.1551  0.5835
   66MOL0     H 8868   5.846   8.667   0.943 -0.6648 -1.5360 -1.8901
   66MOL0     H 8869   5.932   8.534   0.892 -0.2401  0.7496  0.2028
   66MOL0     H 8870   6.201   8.581   1.218  0.3467  1.2178  0.2523
   66MOL0     H 8871   6.465   8.372   1.223 -0.0999 -0.7221  2.5685
   66MOL0     H 8872   6.541   8.540   1.228  0.5201  0.2477 -1.8196
   66MOL0     H 8873   6.392   8.505   1.315  2.5624 -0.8577  1.2314
   66MOL0     H 8874   6.643   8.166   0.717  0.4198 -1.5680 -2.9965
   66MOL0     H 8875   6.879   8.119   0.609  2.0977  0.6857 -0.0521
   66MOL0     H 8876   7.117   8.077   0.675 -2.2277  1.7530  1.4610
   66MOL0     H 8877   7.092   8.117   0.498 -0.0135  3.6170 -0.0288
   66MOL0     H 8878   7.294   8.209   0.467 -0.5043  1.4880  1.3495
   66MOL0     H 8879   7.336   8.220   0.638  0.9497  2.0975 -0.8915
   66MOL0     H 8880   7.278   7.942   0.521  1.3992  0.0361 -0.1370
   66MOL0     H 8881   7.347   7.989   0.682  2.0757  3.6347  1.2776
   66MOL0     H 8882   7.533   8.110   0.576  0.6412 -1.2390  2.1757
   66MOL0     H 8883   7.548   7.935   0.572 -0.3212 -1.2729  0.0121
   66MOL0     H 8884   7.463   8.116   0.345 -1.2389 -1.0309 -1.8392
   66MOL0     H 8885   7.432   7.956   0.326  1.4217  0.4896 -2.7495
   66MOL0     H 8886   7.641   7.858   0.342  1.4865  0.6995 -0.0388
   66MOL0     H 8887   7.640   8.001   0.235  0.5003 -1.2800  0.0661
   66MOL0     H 8888   7.753   8.028   0.521  2.9048  0.8455  0.7850
   66MOL0     H 8889   7.748   8.141   0.379  2.8781 -0.3222 -0.0317
   66MOL0     H 8890   7.901   7.980   0.261 -4.2528 -1.3522 -0.5468
   66MOL0     H 8891   7.902   7.886   0.406 -1.1676 -0.0174 -0.5708
   66MOL0     H 8892   7.026   8.481   0.782 -1.0640  1.3292  0.7729
   66MOL0     H 8893   6.801   8.538   0.850 -1.3538 -2.0696  1.6159
   66MOL0     H 8894   6.366   8.514   0.762 -0.6590 -1.7589 -0.1168
   66MOL0     H 8895   6.146   8.604   0.798 -2.8775 -0.8519  0.8630
   66MOL0     H 8896   6.719   7.150   1.775 -1.2037 -1.9198  2.1831
   66MOL0     H 8897   6.680   6.914   1.698  2.3994  0.5690 -2.0141
   66MOL0     H 8898   6.136   6.647   1.546 -0.4000 -1.8273  2.4774
   66MOL0     H 8899   6.092   6.425   1.474 -1.0026  1.7885  0.1686
   66MOL0     H 8900   6.055   6.265   1.326  1.6739  1.2707 -1.9956
   66MOL0     H 8901   6.132   6.114   1.287 -0.0927  0.1972  1.2648
   66MOL0     H 8902   6.117   6.233   1.567 -0.2238  0.3216 -1.6420
   66MOL0     H 8903   6.163   6.076   1.535 -0.4142  0.9759  3.6564
   66MOL0     H 8904   5.885   6.164   1.546 -0.5219 -0.8435  0.0648
   66MOL0     H 8905   5.969   6.019   1.615 -2.2895  0.8836  0.7269
   66MOL0     H 8906   5.906   6.044   1.320 -0.2036  0.5984 -0.0640
   66MOL0     H 8907   5.815   5.938   1.426  0.1607  0.2294 -0.8082
   66MOL0     H 8908   6.177   5.728   1.347 -0.6238 -2.2068  2.3976
   66MOL0     H 8909   6.514   6.361   1.420  1.6363  1.5883  0.8337
   66MOL0     H 8910   6.548   6.596   1.485 -0.3730  0.6301  1.0074
   67MOL0     O 8911  10.100   4.803   2.964 -0.5191 -0.3376  0.0595
   67MOL0     C 8912  10.203   4.727   2.962 -0.2383  0.1896 -0.2280
   67MOL0     O 8913  10.205   4.597   2.996  0.6965 -0.7997 -0.0831
   67MOL0     C 8914  10.083   4.536   3.010 -0.1354  0.9517 -0.4858
   67MOL0     C 8915  10.072   4.412   2.950  0.1065  0.0967 -0.1431
   67MOL0     C 8916   9.961   4.330   2.968  0.1987 -0.0584  0.0865
   67MOL0     C 8917   9.849   4.375   3.041 -0.5117 -0.0654 -0.2620
   67MOL0     O 8918   9.730   4.298   3.042 -0.0582 -0.8362 -0.4212
   67MOL0     C 8919   9.613   4.341   3.124 -0.0804  0.1644 -0.7998
   67MOL0     C 8920   9.479   4.267   3.096  0.3847  0.3866 -0.4433
   67MOL0     C 8921   9.386   4.302   2.967  0.1209  1.0752 -0.6039
   67MOL0     C 8922   9.260   4.217   2.960  0.3087 -0.4840  0.7387
   67MOL0     C 8923   9.148   4.251   3.064 -0.2261  0.2131  0.2736
   67MOL0     C 8924   9.020   4.172   3.045 -0.4930  0.1061 -1.3325
   67MOL0     C 8925   9.035   4.024   3.067 -0.4955 -0.5336 -0.0743
   67MOL0     C 8926   9.105   3.984   3.204 -0.9454 -0.4425 -0.1148
   67MOL0     N 8927   9.073   3.841   3.221 -0.2071  0.0317 -0.4819
   67MOL0     C 8928   8.963   3.801   3.286 -0.1477  0.1417  0.1974
   67MOL0     C 8929   8.980   3.674   3.306 -0.2212 -0.1437  0.8265
   67MOL0     C 8930   8.873   3.602   3.381  0.2687  0.5496  0.4442
   67MOL0     C 8931   8.897   3.602   3.531  0.2953 -0.2363 -0.5291
   67MOL0     C 8932   8.782   3.537   3.603 -0.0747 -0.0021  0.6134
   67MOL0     C 8933   8.787   3.515   3.756  0.0377 -0.3178 -0.7901
   67MOL0     O 8934   8.778   3.647   3.830  0.0412  0.6721  0.2532
   67MOL0     C 8935   8.662   3.715   3.859  0.2267  1.3058  0.7195
   67MOL0     C 8936   8.534   3.677   3.815  0.0684 -0.2469 -0.2142
   67MOL0     C 8937   8.420   3.764   3.821 -0.2948  0.2376 -0.5318
   67MOL0     C 8938   8.279   3.720   3.786 -0.5768  0.1864  0.3437
   67MOL0     C 8939   8.440   3.887   3.897  0.0288  0.3493 -0.8893
   67MOL0     C 8940   8.327   3.976   3.939  0.0737  0.7253  0.8917
   67MOL0     O 8941   8.261   4.045   3.833 -0.0228 -0.2648  0.6236
   67MOL0     C 8942   8.127   4.070   3.848 -0.2850 -0.3490 -0.0214
   67MOL0     C 8943   8.077   4.187   3.792 -0.6242  0.0832 -0.1053
   67MOL0     C 8944   7.945   4.214   3.790  0.1634  0.4775  0.9584
   67MOL0     C 8945   7.841   4.130   3.834 -0.4187  0.3486  0.0573
   67MOL0     O 8946   7.713   4.166   3.828  0.4859 -0.3236  0.1700
   67MOL0     C 8947   7.653   4.180   3.964  0.3748  0.3372 -0.6521
   67MOL0     C 8948   7.555   4.294   3.962 -0.0835  0.1741 -0.2498
   67MOL0     C 8949   7.630   4.422   3.965 -0.7174  0.0440  0.0134
   67MOL0     C 8950   7.538   4.523   3.901 -0.1661 -0.5194 -0.2018
   67MOL0     C 8951   7.591   4.666   3.877  0.0012 -0.9416  0.2698
   67MOL0     C 8952   7.635   4.733   4.006 -0.2622 -0.3262 -0.2737
   67MOL0     C 8953   7.668   4.884   3.975 -0.4656  0.2765  0.6524
   67MOL0     C 8954   7.653   4.964   4.103  0.5389  0.0088  0.1525
   67MOL0    Cl 8955   7.482   5.010   4.135  0.5819  0.3134  0.0177
   67MOL0     C 8956   7.883   4.019   3.898  0.6881  0.2900  0.7341
   67MOL0     C 8957   8.028   3.984   3.899  0.9914  0.1178  0.3194
   67MOL0     O 8958   8.300   3.992   4.058 -0.0018  0.2057 -0.1503
   67MOL0     C 8959   8.567   3.921   3.939  0.8322  0.3248  0.1784
   67MOL0     C 8960   8.683   3.833   3.917  0.1832 -0.5490  0.8840
   67MOL0     N 8961   9.091   3.634   3.240  0.7492  0.7511 -0.3418
   67MOL0     N 8962   9.147   3.737   3.194 -0.8387  0.0748  0.0683
   67MOL0     C 8963   9.860   4.498   3.107  0.1229 -0.8444  0.5232
   67MOL0     C 8964   9.971   4.581   3.082  0.6275  0.3637  0.3134
   67MOL0     C 8965  10.328   4.783   2.924  0.2264  0.2376 -0.4824
   67MOL0     C 8966  10.338   4.889   2.837 -0.8634 -0.4005  0.0564
   67MOL0     C 8967  10.454   4.923   2.771 -0.3481  0.0893 -0.1736
   67MOL0     C 8968  10.572   4.856   2.797  0.5401  0.7398 -0.2943
   67MOL0     O 8969  10.696   4.850   2.723 -0.4846  0.9189 -0.8860
   67MOL0     C 8970  10.718   4.957   2.628 -0.2077  0.1012 -0.8591
   67MOL0     C 8971  10.645   4.930   2.492  1.1915 -0.2708  0.4955
   67MOL0     C 8972  10.744   4.895   2.377  0.2424 -0.7887  0.9190
   67MOL0     C 8973  10.806   5.018   2.312 -0.6670 -0.0799  0.2966
   67MOL0     C 8974  10.897   5.089   2.405 -0.2712  0.2661  0.9488
   67MOL0     C 8975  10.966   5.151   2.479 -0.4578 -0.2594 -0.5385
   67MOL0     C 8976  10.566   4.755   2.894 -0.7886  0.1473  0.3218
   67MOL0     C 8977  10.449   4.718   2.953  0.3618  0.6938 -1.2384
   67MOL0     H 8978  10.152   4.371   2.890  1.0487  2.3152 -0.4781
   67MOL0     H 8979   9.965   4.231   2.923  1.6163 -0.2294  0.5705
   67MOL0     H 8980   9.636   4.322   3.230 -1.7474  2.2575  0.0235
   67MOL0     H 8981   9.587   4.447   3.112 -0.6277  0.4900  2.2924
   67MOL0     H 8982   9.492   4.158   3.093 -3.6904 -0.3826  1.5965
   67MOL0     H 8983   9.419   4.296   3.183 -1.7058  0.2840 -1.7866
   67MOL0     H 8984   9.371   4.410   2.980  0.0467  0.7117  3.4122
   67MOL0     H 8985   9.452   4.279   2.882  1.4047 -1.3669  0.9452
   67MOL0     H 8986   9.213   4.227   2.862 -1.2861 -1.5370  1.3493
   67MOL0     H 8987   9.279   4.109   2.964 -0.0581 -0.6655 -1.2098
   67MOL0     H 8988   9.184   4.235   3.166  1.0146 -0.0910 -0.1906
   67MOL0     H 8989   9.137   4.359   3.053  4.4096  0.7614 -1.6714
   67MOL0     H 8990   8.950   4.217   3.116  1.5983  1.1759  0.1618
   67MOL0     H 8991   8.984   4.178   2.942 -1.8369 -0.5758 -0.9279
   67MOL0     H 8992   8.939   3.973   3.053 -3.4293  3.5687  2.8033
   67MOL0     H 8993   9.110   3.998   2.992 -0.3998  0.3146 -0.2832
   67MOL0     H 8994   9.068   4.036   3.294  0.3547 -1.3442  0.9874
   67MOL0     H 8995   9.212   3.986   3.186 -0.9047 -1.9106 -0.1619
   67MOL0     H 8996   8.880   3.862   3.322  0.0150 -0.2853  1.3334
   67MOL0     H 8997   8.775   3.646   3.359  0.7192  0.5418 -1.8091
   67MOL0     H 8998   8.867   3.498   3.348  1.6428  0.8842 -0.9550
   67MOL0     H 8999   8.911   3.706   3.563  1.1585  0.0462 -1.7469
   67MOL0     H 9000   8.986   3.538   3.543 -0.4461 -1.3097 -0.6135
   67MOL0     H 9001   8.773   3.441   3.551  1.2178  2.3031 -4.3980
   67MOL0     H 9002   8.686   3.588   3.594  0.0569  0.2026  0.3814
   67MOL0     H 9003   8.874   3.456   3.785 -1.4409 -0.7765  3.5037
   67MOL0     H 9004   8.700   3.458   3.790  0.3517  1.1753  2.9863
   67MOL0     H 9005   8.531   3.583   3.761 -1.8636  0.5071 -1.5626
   67MOL0     H 9006   8.222   3.695   3.876  1.3899  2.6917  2.4250
   67MOL0     H 9007   8.232   3.799   3.728  1.2464  1.0423 -0.0608
   67MOL0     H 9008   8.293   3.637   3.715  0.0344  0.4489  0.1475
   67MOL0     H 9009   8.142   4.254   3.738 -0.7108 -0.8037 -1.3723
   67MOL0     H 9010   7.904   4.306   3.748  1.5064  1.0800  0.9344
   67MOL0     H 9011   7.598   4.088   3.987 -1.4226  2.1435  3.2731
   67MOL0     H 9012   7.722   4.192   4.049  3.3813 -4.6592 -1.9693
   67MOL0     H 9013   7.498   4.288   3.869  1.8779 -1.8043 -1.4116
   67MOL0     H 9014   7.491   4.277   4.049 -0.3780 -0.5508 -0.6019
   67MOL0     H 9015   7.719   4.416   3.902 -1.0044 -1.0357 -0.2968
   67MOL0     H 9016   7.651   4.468   4.062  2.3244 -0.8716 -0.0922
   67MOL0     H 9017   7.505   4.488   3.803  2.9363  0.0967 -1.6093
   67MOL0     H 9018   7.450   4.529   3.965 -1.3382 -2.8484 -1.4947
   67MOL0     H 9019   7.511   4.734   3.845  0.4939  1.2917  3.2998
   67MOL0     H 9020   7.671   4.660   3.803 -0.1767 -1.2638  0.1028
   67MOL0     H 9021   7.543   4.736   4.065  1.4586  0.0064  2.5805
   67MOL0     H 9022   7.722   4.686   4.052  1.2791  1.2200 -1.4964
   67MOL0     H 9023   7.596   4.923   3.903 -0.6805 -1.3357 -0.0302
   67MOL0     H 9024   7.770   4.874   3.937 -1.7608 -3.2528 -2.4437
   67MOL0     H 9025   7.708   5.058   4.090 -0.9914  1.1779  1.5832
   67MOL0     H 9026   7.694   4.911   4.189 -4.5241 -0.8429  2.4602
   67MOL0     H 9027   7.816   3.944   3.939  1.3448 -0.4517  0.4883
   67MOL0     H 9028   8.067   3.894   3.946  1.9201  1.2936  1.8962
   67MOL0     H 9029   8.588   4.005   4.003  0.4465 -0.1118  0.8931
   67MOL0     H 9030   8.781   3.867   3.951  0.9627  1.7220 -2.9904
   67MOL0     H 9031   9.773   4.538   3.158 -0.4930 -3.0807  1.3322
   67MOL0     H 9032   9.963   4.676   3.133  1.5340 -0.5617  2.2862
   67MOL0     H 9033  10.248   4.945   2.811  0.8416  2.1065 -0.8843
   67MOL0     H 9034  10.450   5.006   2.700 -4.2363 -0.3648 -0.7340
   67MOL0     H 9035  10.689   5.049   2.680 -0.2592 -1.4244  2.0778
   67MOL0     H 9036  10.825   4.965   2.605  0.0668  3.3939  1.0068
   67MOL0     H 9037  10.588   5.019   2.462 -1.6843 -1.3278  2.3953
   67MOL0     H 9038  10.570   4.852   2.507 -1.3788  2.2294  1.6934
   67MOL0     H 9039  10.688   4.835   2.305 -0.2098 -0.0097  0.6065
   67MOL0     H 9040  10.827   4.835   2.415  2.2629  1.4887  0.2937
   67MOL0     H 9041  10.723   5.076   2.270 -1.2416  0.2627  1.8540
   67MOL0     H 9042  10.867   4.977   2.230 -0.1321 -0.6275  0.9594
   67MOL0     H 9043  11.004   5.218   2.553 -1.7992 -0.1368  0.0810
   67MOL0     H 9044  10.652   4.691   2.911  0.2070  1.3149 -0.2231
   67MOL0     H 9045  10.461   4.638   3.025 -0.0866 -0.6559 -2.5922
   68MOL0     O 9046   6.941   7.292   0.798 -0.5340  0.0666  0.3304
   68MOL0     C 9047   6.966   7.400   0.746  0.7089  0.1547  0.0927
   68MOL0     O 9048   6.869   7.496   0.711  0.2013  0.6165  0.6544
   68MOL0     C 9049   6.736   7.487   0.747 -0.6585  0.2995  0.9401
   68MOL0     C 9050   6.654   7.369   0.756  0.4114 -0.2695 -0.0835
   68MOL0     C 9051   6.524   7.395   0.790  0.5341 -0.7068 -0.5745
   68MOL0     C 9052   6.468   7.526   0.796  0.4573 -1.0506  0.3353
   68MOL0     O 9053   6.335   7.531   0.790  0.6279  0.7405 -0.2972
   68MOL0     C 9054   6.266   7.644   0.832 -0.6335 -0.2628 -0.3942
   68MOL0     C 9055   6.116   7.609   0.872 -0.6055 -0.0802  1.0547
   68MOL0     C 9056   6.052   7.738   0.935  0.3810 -0.0460  0.5242
   68MOL0     C 9057   5.904   7.727   0.965  0.5927 -0.0029 -0.8614
   68MOL0     C 9058   5.822   7.855   0.964 -0.4246  0.3891 -0.5277
   68MOL0     C 9059   5.681   7.828   1.023 -0.0311  0.6895 -0.7742
   68MOL0     C 9060   5.604   7.960   1.037  0.9005 -0.2775 -0.0878
   68MOL0     C 9061   5.646   8.029   1.167  0.5727  0.7360  0.8902
   68MOL0     N 9062   5.569   8.159   1.173 -0.4866 -0.7701  0.2448
   68MOL0     C 9063   5.465   8.197   1.255 -0.7161  0.0240 -0.4171
   68MOL0     C 9064   5.421   8.316   1.214 -0.7527  0.5214 -0.2756
   68MOL0     C 9065   5.293   8.383   1.273  0.8375 -0.1316  0.1196
   68MOL0     C 9066   5.159   8.348   1.206  0.6047  0.1141 -0.6594
   68MOL0     C 9067   5.043   8.430   1.269 -0.8482  0.5802 -1.2429
   68MOL0     C 9068   4.907   8.371   1.250 -0.2167  0.7419  0.8448
   68MOL0     O 9069   4.887   8.236   1.285 -0.2081 -0.3658 -0.0392
   68MOL0     C 9070   4.767   8.178   1.245 -0.5434 -0.0234 -1.0469
   68MOL0     C 9071   4.726   8.055   1.308  0.2710 -0.0771  0.2637
   68MOL0     C 9072   4.603   8.001   1.276  0.3788  1.0962 -0.0210
   68MOL0     C 9073   4.578   7.867   1.343 -0.3281 -0.1931  0.4802
   68MOL0     C 9074   4.518   8.065   1.179 -0.0762 -0.7406  0.1981
   68MOL0     C 9075   4.378   8.020   1.139  0.1373  0.3490 -0.1808
   68MOL0     O 9076   4.300   8.118   1.081 -0.3346  0.7943 -0.3193
   68MOL0     C 9077   4.176   8.089   1.038  0.4860  0.5438 -0.0846
   68MOL0     C 9078   4.156   8.072   0.905 -0.3342 -1.6708 -0.1099
   68MOL0     C 9079   4.026   8.059   0.861  0.0288  0.5265  0.0668
   68MOL0     C 9080   3.915   8.057   0.959  0.1654 -0.3523  0.1841
   68MOL0     O 9081   3.791   8.043   0.904  0.2484 -0.0981 -0.2787
   68MOL0     C 9082   3.753   7.902   0.907  0.0220 -0.7125  0.1211
   68MOL0     C 9083   3.596   7.890   0.930  0.3921 -0.0383  0.4408
   68MOL0     C 9084   3.516   7.776   0.862 -0.2394  0.3671  0.5942
   68MOL0     C 9085   3.584   7.640   0.902 -0.1565  0.0880  0.3623
   68MOL0     C 9086   3.530   7.530   0.803 -0.0523  0.1434  0.7901
   68MOL0     C 9087   3.396   7.455   0.849 -0.0989 -0.2335 -0.3033
   68MOL0     C 9088   3.349   7.349   0.750 -0.5621 -1.0309 -0.8737
   68MOL0     C 9089   3.211   7.301   0.785  0.5955  0.1792 -0.5317
   68MOL0    Cl 9090   3.087   7.431   0.786 -0.3653 -0.0338 -0.3414
   68MOL0     C 9091   3.933   8.077   1.091 -1.2542  0.5046 -0.4137
   68MOL0     C 9092   4.067   8.098   1.130 -0.4873  0.4427 -0.1786
   68MOL0     O 9093   4.338   7.905   1.165  0.5470  0.5488 -0.5644
   68MOL0     C 9094   4.559   8.180   1.117  0.3122 -0.5654  0.4832
   68MOL0     C 9095   4.678   8.233   1.151  0.1002 -0.4853  0.0989
   68MOL0     N 9096   5.504   8.361   1.116 -0.4055  0.7146 -0.6829
   68MOL0     N 9097   5.578   8.265   1.089 -0.7334 -0.4566  0.5390
   68MOL0     C 9098   6.550   7.636   0.785 -0.1548  0.1108  0.8905
   68MOL0     C 9099   6.684   7.610   0.754 -0.0933  0.4629 -0.6581
   68MOL0     C 9100   7.110   7.439   0.712 -0.0440  0.3566 -0.4659
   68MOL0     C 9101   7.214   7.357   0.726 -0.6262  1.4105 -0.7570
   68MOL0     C 9102   7.338   7.381   0.668  0.3592 -0.2644  0.0703
   68MOL0     C 9103   7.365   7.498   0.599 -0.0475 -0.3024 -0.0238
   68MOL0     O 9104   7.495   7.509   0.544  0.3639 -0.2070  0.1595
   68MOL0     C 9105   7.546   7.635   0.503  0.9126 -0.3700  0.1223
   68MOL0     C 9106   7.698   7.620   0.490  0.2271  0.4490  0.5418
   68MOL0     C 9107   7.720   7.550   0.358 -0.1425 -0.9377  0.5597
   68MOL0     C 9108   7.869   7.529   0.342  0.8384  0.7888  0.0871
   68MOL0     C 9109   7.911   7.435   0.451 -0.1470 -0.6003 -0.6238
   68MOL0     C 9110   7.958   7.363   0.532 -0.5105  0.0094  1.2338
   68MOL0     C 9111   7.266   7.593   0.588  0.2459  0.5702 -0.0195
   68MOL0     C 9112   7.133   7.554   0.635 -0.3130  0.7994 -0.2920
   68MOL0     H 9113   6.692   7.268   0.743 -1.4831 -0.8473 -1.5471
   68MOL0     H 9114   6.444   7.323   0.805  1.4692 -1.3630  1.6324
   68MOL0     H 9115   6.304   7.686   0.925  2.2288 -0.2419 -1.4642
   68MOL0     H 9116   6.263   7.714   0.747  1.2568 -1.8517 -1.8701
   68MOL0     H 9117   6.048   7.588   0.789  3.2255 -1.7822 -1.9895
   68MOL0     H 9118   6.123   7.522   0.939  1.5818 -0.9325 -0.1475
   68MOL0     H 9119   6.113   7.770   1.020  0.0104 -0.5905  1.0051
   68MOL0     H 9120   6.052   7.823   0.866  0.9528  0.7605  1.4849
   68MOL0     H 9121   5.866   7.674   0.877 -0.0296  0.8347 -1.1060
   68MOL0     H 9122   5.873   7.655   1.041 -1.1953 -1.1850 -2.6087
   68MOL0     H 9123   5.873   7.923   1.032 -0.3643 -2.1140  2.0962
   68MOL0     H 9124   5.831   7.897   0.863  0.7801 -3.0738 -2.0463
   68MOL0     H 9125   5.631   7.762   0.951  0.8593 -2.0638  0.9629
   68MOL0     H 9126   5.691   7.797   1.127  2.8697  0.6804 -0.9738
   68MOL0     H 9127   5.617   8.023   0.948 -2.8233  1.1465  0.1916
   68MOL0     H 9128   5.495   7.951   1.033  0.9013 -0.0745 -0.6109
   68MOL0     H 9129   5.753   8.051   1.176  0.4869  1.4338  0.2801
   68MOL0     H 9130   5.622   7.969   1.255  1.5319 -1.1856 -0.0810
   68MOL0     H 9131   5.436   8.143   1.345  0.3434 -0.8698 -0.5976
   68MOL0     H 9132   5.289   8.348   1.376  2.6116  1.7458  0.9100
   68MOL0     H 9133   5.297   8.493   1.278  0.4729 -0.1552  1.1429
   68MOL0     H 9134   5.136   8.242   1.215 -0.1034  0.3169  0.0082
   68MOL0     H 9135   5.169   8.376   1.100  3.0748  1.6339 -0.1067
   68MOL0     H 9136   5.046   8.528   1.220  0.2325 -0.0205 -2.4135
   68MOL0     H 9137   5.069   8.448   1.374  1.9861  0.1257 -1.8111
   68MOL0     H 9138   4.895   8.378   1.142  2.0267 -1.3883  0.3332
   68MOL0     H 9139   4.833   8.432   1.303  1.5588  1.3992  2.7195
   68MOL0     H 9140   4.780   8.003   1.386  0.4864 -1.6037 -0.8580
   68MOL0     H 9141   4.664   7.855   1.410  1.7213  0.8272 -1.8310
   68MOL0     H 9142   4.487   7.871   1.403 -2.3771 -0.5841 -2.4129
   68MOL0     H 9143   4.570   7.783   1.273  1.4528  0.5826 -0.7301
   68MOL0     H 9144   4.240   8.074   0.837 -0.3200  1.5061 -0.1209
   68MOL0     H 9145   3.996   8.055   0.757 -1.2177 -1.2417  0.4406
   68MOL0     H 9146   3.763   7.873   0.802  0.0584  4.0121 -1.4522
   68MOL0     H 9147   3.808   7.846   0.983 -0.6737 -1.4958  0.0609
   68MOL0     H 9148   3.577   7.881   1.037 -2.3391 -2.2900 -0.0926
   68MOL0     H 9149   3.550   7.983   0.894  0.2499  0.6326  2.2992
   68MOL0     H 9150   3.512   7.780   0.753  3.4911 -1.4379  0.2141
   68MOL0     H 9151   3.412   7.786   0.895  0.8450  3.3317  3.7517
   68MOL0     H 9152   3.690   7.656   0.881 -1.0886  2.4738 -3.6925
   68MOL0     H 9153   3.562   7.607   1.004 -2.7494 -1.9331 -0.7359
   68MOL0     H 9154   3.608   7.454   0.801  1.2494  1.4305  0.9590
   68MOL0     H 9155   3.505   7.572   0.705 -0.5241 -0.1731  0.7727
   68MOL0     H 9156   3.404   7.406   0.947 -3.2814  0.2080  0.2777
   68MOL0     H 9157   3.319   7.533   0.854  2.1729  2.0507  1.7443
   68MOL0     H 9158   3.421   7.267   0.760  0.5741 -0.1023 -1.1201
   68MOL0     H 9159   3.341   7.387   0.648  1.4840  0.7554 -0.4494
   68MOL0     H 9160   3.207   7.249   0.881 -2.9653  0.8951 -0.1695
   68MOL0     H 9161   3.173   7.238   0.704  1.3884  2.1044 -2.4920
   68MOL0     H 9162   3.858   8.068   1.169  1.9127  1.0422  2.9455
   68MOL0     H 9163   4.090   8.110   1.235  2.3527 -0.2307 -0.6532
   68MOL0     H 9164   4.500   8.221   1.036 -3.2691 -1.8060  2.2661
   68MOL0     H 9165   4.692   8.326   1.098 -0.5440 -2.0877 -3.1533
   68MOL0     H 9166   6.512   7.737   0.781 -2.0821 -0.5905 -3.0866
   68MOL0     H 9167   6.754   7.691   0.735  0.0722  0.3047 -0.7317
   68MOL0     H 9168   7.196   7.262   0.775  0.1634  2.5253  1.9008
   68MOL0     H 9169   7.407   7.299   0.684  2.6547  2.0719  3.5702
   68MOL0     H 9170   7.495   7.662   0.411  0.7196 -3.7496 -0.8775
   68MOL0     H 9171   7.515   7.702   0.584 -3.0147 -0.8064 -0.8314
   68MOL0     H 9172   7.729   7.559   0.575  3.0737 -0.5654 -1.0895
   68MOL0     H 9173   7.759   7.711   0.491  1.2351 -0.1451 -1.6739
   68MOL0     H 9174   7.685   7.611   0.274  0.2575 -1.4033  0.0500
   68MOL0     H 9175   7.673   7.451   0.358 -0.7675 -0.6534  0.0241
   68MOL0     H 9176   7.928   7.619   0.361  2.1889 -0.5333  2.6498
   68MOL0     H 9177   7.896   7.476   0.250 -1.3035 -2.1710  1.0288
   68MOL0     H 9178   8.021   7.311   0.602  1.6895 -0.9873 -1.3246
   68MOL0     H 9179   7.283   7.673   0.517 -0.4020 -1.6411 -2.8646
   68MOL0     H 9180   7.047   7.611   0.601  0.7113  0.7444 -3.2859
   69MOL0     O 9181   2.433   3.550   4.334 -0.1481  0.9768 -0.4133
   69MOL0     C 9182   2.495   3.582   4.437 -0.3780 -0.9744 -1.1121
   69MOL0     O 9183   2.437   3.598   4.557 -0.6920 -0.0977 -0.3655
   69MOL0     C 9184   2.298   3.600   4.565  0.7231 -0.1763 -0.4946
   69MOL0     C 9185   2.218   3.482   4.559 -0.7245  0.5971 -0.4874
   69MOL0     C 9186   2.084   3.476   4.595 -0.6851  0.6036  0.3687
   69MOL0     C 9187   2.021   3.587   4.642 -0.7453 -0.7877  0.1488
   69MOL0     O 9188   1.885   3.591   4.677 -0.3403 -0.4006 -0.2871
   69MOL0     C 9189   1.796   3.516   4.597  0.5208 -0.0653  0.3459
   69MOL0     C 9190   1.650   3.571   4.626  0.5703  0.5893  0.3705
   69MOL0     C 9191   1.600   3.680   4.537 -0.4189 -0.3846 -0.4582
   69MOL0     C 9192   1.705   3.787   4.525  0.1592 -0.0503 -0.0937
   69MOL0     C 9193   1.652   3.907   4.450 -0.0699  0.4619 -0.6499
   69MOL0     C 9194   1.700   4.040   4.499  0.9026 -0.1766 -0.0658
   69MOL0     C 9195   1.650   4.145   4.394 -0.0084 -0.4771 -0.2601
   69MOL0     C 9196   1.664   4.294   4.432 -0.3036  0.0939  0.0726
   69MOL0     N 9197   1.589   4.386   4.336 -0.4273  0.0822 -0.0780
   69MOL0     C 9198   1.512   4.490   4.375 -0.7784 -0.5549 -0.1743
   69MOL0     C 9199   1.465   4.553   4.263 -1.0879 -0.0990 -0.0679
   69MOL0     C 9200   1.376   4.670   4.249 -0.0255  0.5058 -0.0220
   69MOL0     C 9201   1.276   4.675   4.357  0.9908 -0.2441  0.0691
   69MOL0     C 9202   1.192   4.553   4.372 -0.0654  0.4711  0.0143
   69MOL0     C 9203   1.063   4.582   4.457  0.1356 -0.6128  0.1701
   69MOL0     O 9204   0.968   4.671   4.396 -0.1791 -0.0104  0.0545
   69MOL0     C 9205   0.869   4.714   4.482  0.0868 -0.6102 -0.4684
   69MOL0     C 9206   0.736   4.670   4.463  0.3008  0.0213 -0.4581
   69MOL0     C 9207   0.631   4.701   4.554 -0.9140 -0.4897  0.2447
   69MOL0     C 9208   0.496   4.639   4.536 -0.7860  0.1901 -0.0429
   69MOL0     C 9209   0.654   4.802   4.650  0.7595  0.0466  0.2022
   69MOL0     C 9210   0.552   4.856   4.752 -0.0105 -0.2265  0.1457
   69MOL0     O 9211   0.599   4.917   4.865  0.8470  0.9512 -0.0185
   69MOL0     C 9212   0.501   4.973   4.951 -0.4405 -0.7115  0.2249
   69MOL0     C 9213   0.480   4.908   5.070  0.4911  0.4840 -0.1826
   69MOL0     C 9214   0.375   4.952   5.149  0.2318  0.4812  0.4207
   69MOL0     C 9215   0.309   5.069   5.111 -0.0944  0.3716  0.0460
   69MOL0     O 9216   0.203   5.104   5.197  0.3551  0.0367  0.1375
   69MOL0     C 9217   0.083   5.057   5.133 -0.5711 -0.3235  0.1730
   69MOL0     C 9218  -0.030   5.025   5.237  0.5616 -0.4092  0.7553
   69MOL0     C 9219  -0.068   5.130   5.330 -0.2446  0.5363  0.1309
   69MOL0     C 9220  -0.126   5.250   5.261 -0.1903  0.3298  0.2960
   69MOL0     C 9221  -0.245   5.213   5.170 -0.4389 -0.1718  0.4649
   69MOL0     C 9222  -0.343   5.329   5.164 -0.9674 -0.7212  0.4491
   69MOL0     C 9223  -0.457   5.308   5.076  0.5570 -0.3001  0.0391
   69MOL0     C 9224  -0.544   5.444   5.063  0.1677  0.7477 -0.1098
   69MOL0    Cl 9225  -0.695   5.379   4.985 -0.5338  0.0403  0.0064
   69MOL0     C 9226   0.345   5.141   4.998  0.0770  0.1866  0.5897
   69MOL0     C 9227   0.440   5.091   4.918 -0.0871  0.8009  0.0085
   69MOL0     O 9228   0.434   4.860   4.718  0.1037  0.5863  0.4426
   69MOL0     C 9229   0.782   4.851   4.659 -0.4111  0.1692 -0.1444
   69MOL0     C 9230   0.890   4.811   4.575  0.6605  0.5373 -0.1054
   69MOL0     N 9231   1.504   4.471   4.153 -0.1385  0.5724 -0.1563
   69MOL0     N 9232   1.581   4.378   4.194 -0.7204 -0.5082  0.1322
   69MOL0     C 9233   2.097   3.708   4.648  0.0190  0.4855 -0.3042
   69MOL0     C 9234   2.236   3.710   4.610 -0.2718 -0.5407 -0.6168
   69MOL0     C 9235   2.633   3.625   4.423 -0.7612  0.1754 -0.0872
   69MOL0     C 9236   2.701   3.698   4.527 -0.7322  0.7295 -0.6313
   69MOL0     C 9237   2.839   3.732   4.517  0.6494 -0.2234  0.7327
   69MOL0     C 9238   2.903   3.704   4.391  0.5770  0.1712 -0.1488
   69MOL0     O 9239   3.030   3.728   4.362  0.3389  0.3864  0.0679
   69MOL0     C 9240   3.127   3.747   4.464  0.1654  0.0560  0.9868
   69MOL0     C 9241   3.175   3.613   4.518  0.4748 -0.5353  1.3186
   69MOL0     C 9242   3.248   3.524   4.423 -0.4074  0.3403 -0.0498
   69MOL0     C 9243   3.276   3.394   4.491 -0.5178 -0.5122 -0.4085
   69MOL0     C 9244   3.338   3.295   4.412 -0.2060  1.5353 -0.0108
   69MOL0     C 9245   3.391   3.217   4.337  0.7518 -0.0056 -0.2204
   69MOL0     C 9246   2.828   3.645   4.284  0.0844 -0.6779  0.3465
   69MOL0     C 9247   2.697   3.607   4.300  0.1655 -0.3247 -0.0212
   69MOL0     H 9248   2.273   3.397   4.519  0.1045  1.8004 -2.0030
   69MOL0     H 9249   2.045   3.375   4.584 -0.2052  0.6475 -2.3687
   69MOL0     H 9250   1.820   3.518   4.491 -0.4403  2.5691  0.0729
   69MOL0     H 9251   1.793   3.417   4.643  0.9235 -0.3758 -0.2872
   69MOL0     H 9252   1.580   3.487   4.627  1.9171 -0.5840 -0.1480
   69MOL0     H 9253   1.646   3.602   4.731 -0.9686  2.1666 -0.1141
   69MOL0     H 9254   1.578   3.657   4.432 -0.8257  1.1677 -0.7381
   69MOL0     H 9255   1.512   3.730   4.578  1.0001 -0.3633  2.8709
   69MOL0     H 9256   1.742   3.817   4.624  1.6382  3.8926 -1.6346
   69MOL0     H 9257   1.798   3.752   4.479 -0.3597 -0.4428 -0.8602
   69MOL0     H 9258   1.684   3.898   4.346  1.3750 -0.5915 -0.1558
   69MOL0     H 9259   1.544   3.913   4.468  0.1838 -0.1653  1.3925
   69MOL0     H 9260   1.657   4.058   4.598  1.3231 -2.5579  0.6222
   69MOL0     H 9261   1.809   4.040   4.506  0.7864 -0.7204  2.8123
   69MOL0     H 9262   1.711   4.130   4.305  3.3185 -1.0957  1.9561
   69MOL0     H 9263   1.550   4.115   4.362  0.3872 -1.3169 -0.7520
   69MOL0     H 9264   1.770   4.321   4.425 -0.7806  2.0586 -0.2648
   69MOL0     H 9265   1.621   4.308   4.531 -5.0358  0.9944 -1.8453
   69MOL0     H 9266   1.503   4.518   4.480  6.0469 -1.0401  0.9982
   69MOL0     H 9267   1.431   4.765   4.246  0.2031  0.3704 -2.8899
   69MOL0     H 9268   1.329   4.665   4.150 -0.6019 -1.3609  0.3010
   69MOL0     H 9269   1.206   4.755   4.330  0.2612  0.3274  3.2450
   69MOL0     H 9270   1.318   4.685   4.458  1.4975 -3.8221  0.3350
   69MOL0     H 9271   1.257   4.479   4.418 -0.4592 -0.0475 -0.2547
   69MOL0     H 9272   1.167   4.510   4.275  3.9320 -0.6301 -0.6996
   69MOL0     H 9273   1.100   4.632   4.546  3.7315  1.6608 -2.3210
   69MOL0     H 9274   0.998   4.494   4.466 -1.4180  0.5377  0.5946
   69MOL0     H 9275   0.726   4.599   4.382  4.6286  0.4239 -1.5814
   69MOL0     H 9276   0.423   4.694   4.477 -2.4537 -3.0723 -1.2536
   69MOL0     H 9277   0.504   4.545   4.480 -0.3519  1.4369 -2.2014
   69MOL0     H 9278   0.456   4.610   4.633  0.4002  1.9338  1.0216
   69MOL0     H 9279   0.540   4.828   5.112  0.2837  0.0668 -0.6814
   69MOL0     H 9280   0.358   4.886   5.233  0.9896 -1.7506 -1.1107
   69MOL0     H 9281   0.041   5.132   5.065  3.4213  3.7212  1.6546
   69MOL0     H 9282   0.100   4.962   5.082  0.6708 -0.0316  0.0156
   69MOL0     H 9283  -0.117   4.987   5.183 -1.5445  1.1757  2.8622
   69MOL0     H 9284  -0.000   4.939   5.298 -1.7515 -1.8420 -0.0116
   69MOL0     H 9285   0.016   5.145   5.398 -0.7348  1.9238  0.4574
   69MOL0     H 9286  -0.139   5.088   5.401 -0.8207 -2.0243 -1.8013
   69MOL0     H 9287  -0.162   5.318   5.339  3.5057  1.5950  1.0895
   69MOL0     H 9288  -0.042   5.294   5.206 -0.1325 -0.4476 -0.2488
   69MOL0     H 9289  -0.293   5.124   5.212  3.4656 -0.3693  5.4201
   69MOL0     H 9290  -0.200   5.195   5.072 -0.0127  1.7750  0.2571
   69MOL0     H 9291  -0.380   5.347   5.265 -0.7463 -0.9608  0.5728
   69MOL0     H 9292  -0.287   5.417   5.131  0.2194  0.0558  4.1303
   69MOL0     H 9293  -0.523   5.232   5.117  0.5175 -0.9072 -1.1171
   69MOL0     H 9294  -0.433   5.278   4.973  1.4749  1.4683 -0.3184
   69MOL0     H 9295  -0.501   5.522   4.999 -0.1943  2.3995  1.5825
   69MOL0     H 9296  -0.554   5.499   5.156 -2.1197  3.2882 -1.7186
   69MOL0     H 9297   0.290   5.234   4.984  1.8065  1.5162  2.1453
   69MOL0     H 9298   0.474   5.141   4.827  3.4753  0.0148  0.7306
   69MOL0     H 9299   0.816   4.926   4.729  0.9093 -0.0609 -0.5062
   69MOL0     H 9300   0.988   4.855   4.589  0.4782  0.8702  0.1172
   69MOL0     H 9301   2.045   3.798   4.680 -0.4106  0.5221 -1.0740
   69MOL0     H 9302   2.300   3.797   4.614 -1.4801  0.4065 -0.9783
   69MOL0     H 9303   2.649   3.719   4.620 -2.6021 -0.7992 -1.2634
   69MOL0     H 9304   2.895   3.785   4.593 -0.2276  0.8821  0.6236
   69MOL0     H 9305   3.204   3.803   4.411  0.3047 -2.2437 -1.4727
   69MOL0     H 9306   3.086   3.807   4.546 -2.0192  0.0068  0.0004
   69MOL0     H 9307   3.082   3.568   4.553 -1.8107  1.0259 -2.1862
   69MOL0     H 9308   3.234   3.646   4.604  1.1836  2.9743 -0.3559
   69MOL0     H 9309   3.345   3.558   4.387 -0.6019 -0.1714 -1.0979
   69MOL0     H 9310   3.181   3.507   4.338 -1.5815  0.7284  0.7666
   69MOL0     H 9311   3.179   3.355   4.523 -0.5020 -1.0011 -0.9375
   69MOL0     H 9312   3.344   3.432   4.568  0.7958 -2.4330 -0.5484
   69MOL0     H 9313   3.415   3.155   4.253  2.3021  0.8602 -0.4670
   69MOL0     H 9314   2.861   3.626   4.182 -0.7271 -1.5302  0.2248
   69MOL0     H 9315   2.635   3.572   4.218 -1.6893  3.5967 -0.5340
   70MOL0     O 9316   0.483   6.139   1.675 -0.2700  0.1800  0.5062
   70MOL0     C 9317   0.518   6.219   1.762 -0.6865  0.0501  0.7950
   70MOL0     O 9318   0.442   6.267   1.866  0.1473 -0.3674  0.3217
   70MOL0     C 9319   0.301   6.255   1.861 -0.1396  0.1271 -0.0779
   70MOL0     C 9320   0.242   6.198   1.963  0.0491 -0.0810 -0.4852
   70MOL0     C 9321   0.106   6.180   1.965 -0.0237  0.3024  0.0408
   70MOL0     C 9322   0.020   6.234   1.866 -0.4637  0.2569 -0.4269
   70MOL0     O 9323  -0.117   6.225   1.876  0.3495 -0.1279 -0.5437
   70MOL0     C 9324  -0.222   6.321   1.838 -0.3505 -0.5032  0.5203
   70MOL0     C 9325  -0.262   6.387   1.969 -0.3630 -0.0226 -0.3115
   70MOL0     C 9326  -0.386   6.481   1.938 -0.9428  0.8075 -0.2927
   70MOL0     C 9327  -0.448   6.550   2.048 -0.5307 -0.0854 -0.6500
   70MOL0     C 9328  -0.560   6.642   2.017 -0.6205 -0.4799  0.8021
   70MOL0     C 9329  -0.526   6.767   1.928 -0.4624 -0.0398  0.1846
   70MOL0     C 9330  -0.617   6.891   1.947 -0.4319  0.2109  0.4265
   70MOL0     C 9331  -0.753   6.861   1.875 -0.1225 -0.8790  0.2588
   70MOL0     N 9332  -0.839   6.974   1.891  0.1175 -0.7776 -0.3977
   70MOL0     C 9333  -0.921   7.008   1.995 -0.1179 -0.1597 -0.1786
   70MOL0     C 9334  -0.988   7.122   1.962 -0.0920  0.0678 -0.0039
   70MOL0     C 9335  -1.095   7.188   2.047 -1.0540  0.0268 -0.1983
   70MOL0     C 9336  -1.200   7.086   2.103 -0.5532 -0.2372 -1.0170
   70MOL0     C 9337  -1.168   7.058   2.257 -0.7087 -0.7361  0.5701
   70MOL0     C 9338  -1.284   6.976   2.315 -0.2484  0.1112 -0.2161
   70MOL0     O 9339  -1.405   7.043   2.288  0.4536 -0.1474  0.3625
   70MOL0     C 9340  -1.436   7.155   2.366  0.1089  0.5098  0.1976
   70MOL0     C 9341  -1.349   7.210   2.471  0.8046  0.6272 -0.0479
   70MOL0     C 9342  -1.403   7.313   2.551 -0.0780  0.2498  0.0209
   70MOL0     C 9343  -1.323   7.372   2.659  0.3087  0.0557 -0.0929
   70MOL0     C 9344  -1.539   7.359   2.529 -0.2385 -0.6789 -0.4943
   70MOL0     C 9345  -1.602   7.455   2.617 -0.0539 -0.3910 -0.2513
   70MOL0     O 9346  -1.681   7.552   2.550 -0.3801 -0.2467 -0.4519
   70MOL0     C 9347  -1.726   7.659   2.630 -0.7043 -0.3193 -0.7741
   70MOL0     C 9348  -1.653   7.726   2.738  0.9192 -0.3810  0.7262
   70MOL0     C 9349  -1.723   7.825   2.812 -0.0751  0.5099  0.3893
   70MOL0     C 9350  -1.848   7.876   2.770  0.7255  0.0386  0.2150
   70MOL0     O 9351  -1.915   7.977   2.838 -0.1469  0.0353  0.1819
   70MOL0     C 9352  -1.988   7.914   2.949  0.0730 -0.0552 -1.5685
   70MOL0     C 9353  -2.061   8.018   3.033 -0.3508 -0.2879  0.4622
   70MOL0     C 9354  -2.109   7.977   3.173  0.0994 -0.1995 -0.2195
   70MOL0     C 9355  -2.015   7.998   3.290 -0.3655 -0.1952  0.2467
   70MOL0     C 9356  -1.898   7.907   3.294 -0.4156 -0.2611  0.1523
   70MOL0     C 9357  -1.759   7.978   3.286 -0.0334  0.7458 -0.8500
   70MOL0     C 9358  -1.648   7.887   3.340  0.4067 -0.7694 -0.1642
   70MOL0     C 9359  -1.621   7.770   3.252 -0.6705  0.8579  0.0524
   70MOL0    Cl 9360  -1.473   7.680   3.307 -0.1144  0.4800 -0.5641
   70MOL0     C 9361  -1.912   7.812   2.666  0.5463  0.8355  0.4431
   70MOL0     C 9362  -1.856   7.701   2.594 -0.1523 -1.0527 -0.4921
   70MOL0     O 9363  -1.595   7.437   2.740 -0.0038 -0.2367 -0.0575
   70MOL0     C 9364  -1.617   7.308   2.425  1.0218  1.3454  0.2326
   70MOL0     C 9365  -1.565   7.210   2.345 -0.1120 -0.2191 -1.0153
   70MOL0     N 9366  -0.935   7.164   1.841  0.0304 -0.1856  1.0700
   70MOL0     N 9367  -0.851   7.075   1.804 -0.3014 -0.2391  0.3811
   70MOL0     C 9368   0.083   6.306   1.762  0.1499 -0.5849 -0.2255
   70MOL0     C 9369   0.220   6.310   1.753 -0.4424  0.0593  0.5093
   70MOL0     C 9370   0.660   6.244   1.774  0.6106 -0.4903 -0.0479
   70MOL0     C 9371   0.710   6.358   1.843  0.2825  0.4287  0.0964
   70MOL0     C 9372   0.849   6.387   1.850  0.6223 -0.1968  0.7236
   70MOL0     C 9373   0.937   6.290   1.807  0.0501  0.5453  0.5538
   70MOL0     O 9374   1.069   6.318   1.816 -0.5454  0.4460 -1.3902
   70MOL0     C 9375   1.143   6.216   1.878  0.2569  0.5354 -0.2964
   70MOL0     C 9376   1.280   6.277   1.920  0.5589 -0.2673  0.1841
   70MOL0     C 9377   1.378   6.168   1.969  0.1139  0.2732  0.4598
   70MOL0     C 9378   1.314   6.080   2.084  0.3571  0.0427  0.1085
   70MOL0     C 9379   1.284   6.157   2.204 -0.1792 -1.6217 -0.2080
   70MOL0     C 9380   1.265   6.239   2.296 -0.7239 -0.0158  0.2328
   70MOL0     C 9381   0.890   6.179   1.737 -0.6414  0.6835 -0.1954
   70MOL0     C 9382   0.752   6.154   1.723  0.1680 -0.1514  0.4019
   70MOL0     H 9383   0.293   6.138   2.038  1.5569  0.1105 -1.3189
   70MOL0     H 9384   0.070   6.121   2.049 -0.7195 -1.3491 -1.3530
   70MOL0     H 9385  -0.182   6.385   1.759 -0.3830 -1.4791 -0.3096
   70MOL0     H 9386  -0.313   6.271   1.801 -0.4601 -0.4570  0.7254
   70MOL0     H 9387  -0.288   6.312   2.045  1.6858 -0.4135  0.0601
   70MOL0     H 9388  -0.173   6.441   2.002 -1.0748 -0.7315  3.1829
   70MOL0     H 9389  -0.351   6.559   1.871 -0.9069  0.7546 -0.3365
   70MOL0     H 9390  -0.465   6.420   1.893  2.2362 -1.6596 -3.0304
   70MOL0     H 9391  -0.486   6.477   2.120  2.4122  0.8165  2.0294
   70MOL0     H 9392  -0.368   6.601   2.102  0.9731 -2.3194 -0.6478
   70MOL0     H 9393  -0.646   6.594   1.970  0.3882  0.1177 -1.8408
   70MOL0     H 9394  -0.586   6.685   2.114  0.9584 -1.7574  1.8322
   70MOL0     H 9395  -0.428   6.796   1.967  0.5039 -1.3324 -1.1944
   70MOL0     H 9396  -0.518   6.743   1.822  1.1193 -0.4647  0.3873
   70MOL0     H 9397  -0.637   6.906   2.053  1.3168 -2.1489  1.1750
   70MOL0     H 9398  -0.569   6.974   1.893 -0.3767 -0.0331  0.0955
   70MOL0     H 9399  -0.801   6.777   1.926 -1.4829  1.2908  2.8237
   70MOL0     H 9400  -0.740   6.835   1.769 -1.6662 -0.3327 -0.0845
   70MOL0     H 9401  -0.930   6.944   2.082  1.0432 -0.4247 -0.2403
   70MOL0     H 9402  -1.037   7.236   2.127 -2.9103 -0.5599  1.5706
   70MOL0     H 9403  -1.137   7.262   1.979 -0.1651  0.7505  0.0176
   70MOL0     H 9404  -1.182   6.989   2.055  2.0922 -0.8243  0.9254
   70MOL0     H 9405  -1.304   7.119   2.094 -1.4103 -1.4219  2.5143
   70MOL0     H 9406  -1.161   7.158   2.301 -2.2327 -0.1635 -0.4240
   70MOL0     H 9407  -1.068   7.016   2.274 -1.0053 -0.6728  2.7337
   70MOL0     H 9408  -1.265   6.972   2.423 -2.2824 -0.6407  0.1582
   70MOL0     H 9409  -1.280   6.874   2.275  1.7439  0.0869 -0.0479
   70MOL0     H 9410  -1.252   7.169   2.500  0.0942  0.7267  2.7992
   70MOL0     H 9411  -1.322   7.481   2.648  0.2492  0.1267  0.5873
   70MOL0     H 9412  -1.367   7.347   2.756  4.3128 -0.8659  1.6956
   70MOL0     H 9413  -1.225   7.322   2.664 -0.6703 -1.8469  1.5573
   70MOL0     H 9414  -1.555   7.685   2.759  2.4571  2.8937  0.5380
   70MOL0     H 9415  -1.685   7.871   2.903 -0.5519 -0.0497  0.8815
   70MOL0     H 9416  -2.056   7.840   2.906 -2.3439  3.6289 -4.8144
   70MOL0     H 9417  -1.918   7.863   3.016 -2.2274  0.8903  1.8154
   70MOL0     H 9418  -1.994   8.105   3.030 -1.2811  0.4136 -1.0170
   70MOL0     H 9419  -2.147   8.039   2.970  1.0430  1.6553 -0.9106
   70MOL0     H 9420  -2.151   7.877   3.164 -1.1132  0.3495 -0.9091
   70MOL0     H 9421  -2.194   8.041   3.197 -2.3119 -3.0025 -0.8390
   70MOL0     H 9422  -1.969   8.097   3.288  0.7952 -0.7266 -0.3631
   70MOL0     H 9423  -2.070   7.993   3.385 -0.5287  2.3964  0.3674
   70MOL0     H 9424  -1.904   7.841   3.207 -0.7649 -2.1929  1.5704
   70MOL0     H 9425  -1.900   7.847   3.386 -1.7509  1.9627  1.6593
   70MOL0     H 9426  -1.736   8.016   3.186  0.4625  0.8697 -0.6934
   70MOL0     H 9427  -1.755   8.066   3.350  1.6316 -0.7093  1.1802
   70MOL0     H 9428  -1.675   7.850   3.439 -1.4838 -2.7404 -1.3428
   70MOL0     H 9429  -1.563   7.956   3.351 -1.1396  1.6889 -2.3362
   70MOL0     H 9430  -1.605   7.805   3.150 -2.6347  0.0550 -0.5782
   70MOL0     H 9431  -1.711   7.708   3.246 -1.7535  2.3766  0.0743
   70MOL0     H 9432  -2.016   7.831   2.639  0.5951  0.1110 -0.3072
   70MOL0     H 9433  -1.903   7.660   2.505 -2.3047 -0.9234  0.5085
   70MOL0     H 9434  -1.718   7.343   2.405  0.7589  0.2474 -0.4242
   70MOL0     H 9435  -1.633   7.181   2.265 -0.8807  1.8560 -1.1924
   70MOL0     H 9436   0.025   6.357   1.685 -0.6283 -2.1963 -0.7492
   70MOL0     H 9437   0.269   6.346   1.664 -1.7040 -0.3159 -0.3553
   70MOL0     H 9438   0.644   6.425   1.897  1.3052 -2.0585  5.0247
   70MOL0     H 9439   0.882   6.479   1.897 -0.2550  1.6004 -1.9692
   70MOL0     H 9440   1.084   6.165   1.955  0.5360 -0.6814 -0.8661
   70MOL0     H 9441   1.167   6.138   1.805  3.1998  1.3901 -0.3716
   70MOL0     H 9442   1.258   6.355   1.994 -2.1952  0.7199 -1.5529
   70MOL0     H 9443   1.308   6.324   1.825  0.2861  3.0480  1.5806
   70MOL0     H 9444   1.476   6.210   1.994  0.4499 -0.3120  0.1388
   70MOL0     H 9445   1.395   6.103   1.883 -3.3137 -0.2732  0.0520
   70MOL0     H 9446   1.392   6.009   2.112  1.5944  1.8983  1.7037
   70MOL0     H 9447   1.223   6.035   2.043  2.1242 -1.7571 -2.0976
   70MOL0     H 9448   1.262   6.313   2.373 -0.6122  1.8761 -1.5032
   70MOL0     H 9449   0.951   6.106   1.686  0.6022  0.8291  1.0245
   70MOL0     H 9450   0.720   6.061   1.677 -0.8857  0.1763  0.4428
   71MOL0     O 9451   2.421   2.161   8.126  0.3770 -0.0607  0.2539
   71MOL0     C 9452   2.516   2.220   8.182  1.1193 -0.1257 -0.2451
   71MOL0     O 9453   2.513   2.277   8.311  0.1481 -0.4556  0.5196
   71MOL0     C 9454   2.395   2.281   8.377  0.0650 -0.4988 -0.1151
   71MOL0     C 9455   2.271   2.336   8.326 -0.3249  0.1688 -0.2771
   71MOL0     C 9456   2.157   2.305   8.394 -0.8054  0.0467  1.1887
   71MOL0     C 9457   2.159   2.233   8.519  0.4046  0.2422  0.3072
   71MOL0     O 9458   2.053   2.206   8.600  0.0411 -0.6250 -0.4250
   71MOL0     C 9459   1.933   2.260   8.560  0.0908 -0.3250  1.0126
   71MOL0     C 9460   1.841   2.224   8.685  0.1183  0.2530 -0.3214
   71MOL0     C 9461   1.701   2.253   8.640  0.3500  0.5024 -0.0160
   71MOL0     C 9462   1.606   2.273   8.757  0.8435  0.4645  0.9128
   71MOL0     C 9463   1.463   2.310   8.720  0.3851 -0.5049  0.0730
   71MOL0     C 9464   1.392   2.189   8.654  0.7420 -0.1044  1.0083
   71MOL0     C 9465   1.245   2.232   8.615 -0.4622  1.0473 -0.1833
   71MOL0     C 9466   1.175   2.108   8.539  0.6922  0.3185  0.1098
   71MOL0     N 9467   1.034   2.120   8.562 -0.7163 -0.1432 -0.3301
   71MOL0     C 9468   0.962   2.045   8.651  0.0018  0.0724 -0.0230
   71MOL0     C 9469   0.848   2.113   8.675 -0.7974 -1.2170  0.1954
   71MOL0     C 9470   0.729   2.069   8.769  0.2258  0.0051 -0.0232
   71MOL0     C 9471   0.718   2.159   8.888  0.1780 -0.6468 -0.0742
   71MOL0     C 9472   0.679   2.305   8.852 -0.6839 -0.1064  0.5729
   71MOL0     C 9473   0.538   2.324   8.789 -0.2304 -0.4677 -0.2804
   71MOL0     O 9474   0.455   2.213   8.817  0.1515 -0.2479  0.0048
   71MOL0     C 9475   0.319   2.219   8.786 -0.3491  0.9672  0.5238
   71MOL0     C 9476   0.256   2.333   8.740 -0.0713 -0.1259 -0.2563
   71MOL0     C 9477   0.122   2.334   8.710 -0.1837  1.7869 -0.3448
   71MOL0     C 9478   0.058   2.457   8.667  0.3120  0.7882 -0.3077
   71MOL0     C 9479   0.056   2.209   8.711 -0.2939 -0.1858  0.5706
   71MOL0     C 9480  -0.080   2.191   8.665  0.2318  0.1525  0.7399
   71MOL0     O 9481  -0.149   2.094   8.731  0.5654 -0.1940  0.6068
   71MOL0     C 9482  -0.274   2.076   8.700  0.8403 -0.2667 -0.4033
   71MOL0     C 9483  -0.373   2.135   8.787 -0.4565 -0.0009 -0.3869
   71MOL0     C 9484  -0.505   2.126   8.757 -0.4471  0.5081  0.5495
   71MOL0     C 9485  -0.556   2.047   8.649  0.4355  0.3255 -0.4302
   71MOL0     O 9486  -0.696   2.039   8.620 -0.1638  0.3944 -0.3563
   71MOL0     C 9487  -0.785   1.984   8.719  0.2031  0.4287  0.2899
   71MOL0     C 9488  -0.913   2.046   8.687 -0.4748 -0.4231  0.3307
   71MOL0     C 9489  -1.024   2.003   8.791 -0.2362  0.1658 -0.0364
   71MOL0     C 9490  -1.032   2.093   8.918  0.4316 -0.5610 -0.1636
   71MOL0     C 9491  -1.168   2.080   8.991 -0.6148 -0.2588 -0.0653
   71MOL0     C 9492  -1.176   2.176   9.104 -0.1589  0.1566 -0.1980
   71MOL0     C 9493  -1.325   2.180   9.146  0.4055  0.5524  0.0577
   71MOL0     C 9494  -1.355   2.141   9.293  0.0988 -0.8890  0.1059
   71MOL0    Cl 9495  -1.288   2.275   9.397  0.0682 -0.1249 -0.3531
   71MOL0     C 9496  -0.463   1.981   8.562 -0.0583 -0.1726  0.0611
   71MOL0     C 9497  -0.325   1.997   8.594 -0.3501 -0.5765  0.5485
   71MOL0     O 9498  -0.121   2.259   8.568  0.6734  0.0193 -0.0146
   71MOL0     C 9499   0.119   2.089   8.757  0.1773  0.1791 -0.3959
   71MOL0     C 9500   0.251   2.098   8.805 -0.7745 -0.4114  0.4619
   71MOL0     N 9501   0.860   2.233   8.608  0.9237  0.0868  0.3806
   71MOL0     N 9502   0.969   2.231   8.539  0.1120  0.1448  0.1853
   71MOL0     C 9503   2.281   2.189   8.569 -0.9435 -0.6438 -0.1208
   71MOL0     C 9504   2.405   2.207   8.499  0.4304  0.1275  0.6826
   71MOL0     C 9505   2.646   2.215   8.110  0.7455 -0.5319  0.1610
   71MOL0     C 9506   2.655   2.194   7.972 -0.1951 -0.8102  0.7988
   71MOL0     C 9507   2.775   2.185   7.906 -0.0803  0.6354 -0.1584
   71MOL0     C 9508   2.891   2.200   7.976 -0.2724  0.5435 -0.9831
   71MOL0     O 9509   3.006   2.219   7.905  0.0410 -0.2755  0.0292
   71MOL0     C 9510   3.095   2.107   7.887  1.0969 -0.6510 -0.5195
   71MOL0     C 9511   3.087   2.045   7.746  0.0865  0.6117  0.0032
   71MOL0     C 9512   3.223   1.970   7.715  0.2441  0.5176  0.0715
   71MOL0     C 9513   3.336   2.063   7.670  0.1121  0.0500  0.7188
   71MOL0     C 9514   3.459   1.985   7.654 -0.5180 -0.0610 -0.5547
   71MOL0     C 9515   3.549   1.905   7.645 -0.4518 -0.2596  0.3812
   71MOL0     C 9516   2.879   2.243   8.123  0.3402 -0.1444  1.4348
   71MOL0     C 9517   2.760   2.253   8.180 -0.3512  0.2737  0.1615
   71MOL0     H 9518   2.265   2.392   8.233  0.7457  1.4725  0.4076
   71MOL0     H 9519   2.068   2.340   8.342 -0.1694  1.8386  1.2393
   71MOL0     H 9520   1.929   2.369   8.547  2.1997 -0.3088  0.1595
   71MOL0     H 9521   1.902   2.221   8.462 -2.8470  0.1135  1.6559
   71MOL0     H 9522   1.840   2.117   8.710 -0.7334  0.4232  0.4150
   71MOL0     H 9523   1.876   2.289   8.765  0.0622  1.6299 -1.3894
   71MOL0     H 9524   1.703   2.344   8.580  0.1332 -0.3360 -1.3383
   71MOL0     H 9525   1.660   2.167   8.585  0.9251  0.9990 -1.2540
   71MOL0     H 9526   1.602   2.185   8.823  0.4700  1.3248  2.0768
   71MOL0     H 9527   1.652   2.353   8.815 -1.3581  1.1157  1.8878
   71MOL0     H 9528   1.417   2.343   8.813 -0.3601 -3.0093  0.6487
   71MOL0     H 9529   1.456   2.387   8.643  1.9292 -2.7539 -2.5090
   71MOL0     H 9530   1.444   2.145   8.568 -0.0497 -1.9996  1.4512
   71MOL0     H 9531   1.389   2.118   8.737 -1.4926 -0.8266  0.3881
   71MOL0     H 9532   1.184   2.261   8.700 -1.5308 -2.6719  0.5104
   71MOL0     H 9533   1.250   2.313   8.541  0.6672 -0.8485 -2.3424
   71MOL0     H 9534   1.212   2.014   8.581 -2.4772  0.2341  3.1858
   71MOL0     H 9535   1.195   2.125   8.433 -0.3711  1.2856  0.0451
   71MOL0     H 9536   0.992   1.947   8.688 -1.0563 -0.5032 -0.6410
   71MOL0     H 9537   0.641   2.069   8.704 -0.3736 -0.6689  0.7573
   71MOL0     H 9538   0.738   1.963   8.796 -2.9227 -0.9778 -2.2597
   71MOL0     H 9539   0.807   2.150   8.951  0.2462  1.9956  0.3345
   71MOL0     H 9540   0.639   2.126   8.956 -3.2509  0.9757 -2.9590
   71MOL0     H 9541   0.772   2.352   8.818 -2.1104  4.9251  2.6838
   71MOL0     H 9542   0.669   2.359   8.946  0.0505 -1.3692  1.4040
   71MOL0     H 9543   0.544   2.338   8.681 -1.9391 -0.8473 -0.4384
   71MOL0     H 9544   0.500   2.421   8.822  1.8378  1.3548 -2.8470
   71MOL0     H 9545   0.313   2.423   8.717 -1.7794  0.9477 -0.4613
   71MOL0     H 9546   0.043   2.462   8.559  2.0466  1.9910 -0.5239
   71MOL0     H 9547  -0.042   2.471   8.711  0.1621 -0.5597 -0.1808
   71MOL0     H 9548   0.130   2.534   8.697 -0.4391  0.8496  1.5127
   71MOL0     H 9549  -0.339   2.190   8.874 -0.0417 -1.4962  0.4448
   71MOL0     H 9550  -0.581   2.187   8.805 -0.4436  0.9368  0.0267
   71MOL0     H 9551  -0.788   1.875   8.710  2.2030  0.4222 -0.7285
   71MOL0     H 9552  -0.749   2.015   8.818 -0.5485 -1.1899  1.1162
   71MOL0     H 9553  -0.902   2.155   8.682 -1.2479 -0.3645 -0.5705
   71MOL0     H 9554  -0.945   2.022   8.585  0.8010  1.7144 -0.6568
   71MOL0     H 9555  -0.994   1.900   8.809  0.9110 -0.0168 -2.6047
   71MOL0     H 9556  -1.122   2.005   8.741  0.9029  2.0457 -2.3965
   71MOL0     H 9557  -0.958   2.056   8.989 -0.8269  1.6318  2.4889
   71MOL0     H 9558  -1.007   2.195   8.886 -1.6341 -0.8150 -3.0507
   71MOL0     H 9559  -1.182   1.974   9.014  2.5052 -1.3029 -2.3285
   71MOL0     H 9560  -1.244   2.103   8.916 -0.3790  2.4838  0.4182
   71MOL0     H 9561  -1.106   2.136   9.178  1.2804  1.4421 -0.8136
   71MOL0     H 9562  -1.144   2.275   9.070 -3.7763  1.4681 -0.2593
   71MOL0     H 9563  -1.389   2.123   9.079 -1.4889  2.1580  0.3791
   71MOL0     H 9564  -1.354   2.285   9.133  3.6678  1.1391 -4.8225
   71MOL0     H 9565  -1.316   2.041   9.313 -0.3143 -1.1677 -0.4444
   71MOL0     H 9566  -1.463   2.124   9.297 -0.4948  2.1947 -0.3555
   71MOL0     H 9567  -0.491   1.932   8.469  0.5079  0.1409 -0.2807
   71MOL0     H 9568  -0.254   1.945   8.531  2.4867  1.8795  1.5284
   71MOL0     H 9569   0.064   1.997   8.773 -1.5363  1.2487  0.1809
   71MOL0     H 9570   0.302   2.014   8.850  1.5637  1.1360  0.8896
   71MOL0     H 9571   2.283   2.140   8.666 -1.3757  0.0459  0.2413
   71MOL0     H 9572   2.498   2.163   8.532  0.7713  0.2250 -0.1229
   71MOL0     H 9573   2.569   2.200   7.906  0.1219  0.0599  0.4535
   71MOL0     H 9574   2.772   2.170   7.798 -3.1967  1.9089 -0.3571
   71MOL0     H 9575   3.196   2.148   7.900  1.9039 -1.7462 -2.9146
   71MOL0     H 9576   3.069   2.037   7.967 -2.5909  0.1097 -0.8838
   71MOL0     H 9577   3.061   2.120   7.671  1.4148  2.2560  1.0991
   71MOL0     H 9578   3.005   1.973   7.752  1.3396 -0.9829 -0.9227
   71MOL0     H 9579   3.196   1.889   7.648 -0.7533  0.9647 -0.0893
   71MOL0     H 9580   3.250   1.913   7.804 -1.3016 -1.2708 -0.5479
   71MOL0     H 9581   3.340   2.143   7.745  1.1268  0.2049  0.5193
   71MOL0     H 9582   3.315   2.101   7.570 -1.1584 -3.0677 -0.3186
   71MOL0     H 9583   3.626   1.832   7.636 -0.5297 -0.1458 -1.7086
   71MOL0     H 9584   2.976   2.265   8.166  0.8852 -0.9160  0.6237
   71MOL0     H 9585   2.769   2.273   8.287 -1.5785  0.9300  0.1576
   72MOL0     O 9586   6.125  10.037   2.242 -0.2292 -0.9010  0.7443
   72MOL0     C 9587   6.138   9.930   2.191  0.5649  0.3145  0.4753
   72MOL0     O 9588   6.037   9.846   2.148 -0.0146 -0.1323  0.6850
   72MOL0     C 9589   5.907   9.868   2.170 -0.5771  0.4265 -0.0709
   72MOL0     C 9590   5.824   9.775   2.111  0.6473  0.1168  0.4400
   72MOL0     C 9591   5.684   9.781   2.130 -0.2463 -0.3676  0.2245
   72MOL0     C 9592   5.625   9.895   2.178  0.7699 -0.8440  0.3773
   72MOL0     O 9593   5.491   9.911   2.205 -0.2739 -0.2288  0.7517
   72MOL0     C 9594   5.397   9.844   2.124  0.8252  0.1914  0.8918
   72MOL0     C 9595   5.240   9.868   2.165 -0.3607  0.1802 -0.0186
   72MOL0     C 9596   5.146   9.819   2.060  0.4758  0.4155  0.7838
   72MOL0     C 9597   5.020   9.772   2.127 -0.2754  0.6339 -0.0789
   72MOL0     C 9598   4.930   9.703   2.020  0.1671 -0.1573 -0.1972
   72MOL0     C 9599   4.789   9.664   2.067 -0.8797  0.5462  0.5710
   72MOL0     C 9600   4.794   9.565   2.179  0.3939  0.1100  0.1491
   72MOL0     C 9601   4.653   9.520   2.232 -0.0179  0.0944 -0.0460
   72MOL0     N 9602   4.593   9.420   2.143  0.4049  0.0185 -1.1809
   72MOL0     C 9603   4.610   9.287   2.130  0.4885 -0.3441  0.0994
   72MOL0     C 9604   4.525   9.253   2.032  0.8069 -0.1724  0.0366
   72MOL0     C 9605   4.502   9.110   1.969 -0.5885 -0.5661  0.1806
   72MOL0     C 9606   4.395   9.035   2.055  0.2569  0.1364  0.6463
   72MOL0     C 9607   4.252   9.062   1.992 -0.2441 -0.2681 -0.0449
   72MOL0     C 9608   4.143   9.002   2.071 -0.7399  0.3099 -0.0350
   72MOL0     O 9609   4.024   8.990   1.987 -0.5742 -0.7456  0.3047
   72MOL0     C 9610   3.912   8.919   2.037 -0.1422 -0.5336 -0.2439
   72MOL0     C 9611   3.795   8.888   1.954 -0.3853 -0.0292  0.5790
   72MOL0     C 9612   3.675   8.844   1.998 -0.7051 -0.2275  0.0432
   72MOL0     C 9613   3.569   8.820   1.897 -0.1947 -0.0063  0.1210
   72MOL0     C 9614   3.658   8.817   2.129 -0.1176 -0.5851  0.4151
   72MOL0     C 9615   3.533   8.775   2.191 -0.3586 -1.6701  0.2224
   72MOL0     O 9616   3.423   8.863   2.153  0.9043  0.7258  0.0853
   72MOL0     C 9617   3.299   8.836   2.212  0.6463 -0.7717 -0.7200
   72MOL0     C 9618   3.243   8.925   2.308  0.2225 -0.5725  0.0759
   72MOL0     C 9619   3.105   8.909   2.334 -0.3599  0.3509  0.5099
   72MOL0     C 9620   3.028   8.806   2.279 -0.7195  0.0720 -0.3929
   72MOL0     O 9621   2.896   8.791   2.313  0.6245  0.6349  0.1478
   72MOL0     C 9622   2.799   8.864   2.235 -0.8374 -0.4810  0.3439
   72MOL0     C 9623   2.689   8.919   2.320 -0.0372  0.3977 -0.5257
   72MOL0     C 9624   2.737   9.022   2.422  0.1706 -0.1148 -0.1414
   72MOL0     C 9625   2.629   9.053   2.528  0.6095  0.2644  0.2814
   72MOL0     C 9626   2.679   9.148   2.632  0.3809 -0.1264 -0.0557
   72MOL0     C 9627   2.684   9.297   2.587 -0.3609 -0.3782 -0.6809
   72MOL0     C 9628   2.708   9.380   2.714  0.3030 -0.0251 -0.0241
   72MOL0     C 9629   2.768   9.522   2.686 -0.9224 -0.0850 -0.5060
   72MOL0    Cl 9630   2.821   9.607   2.834  0.5284  0.1196 -0.2487
   72MOL0     C 9631   3.093   8.716   2.188 -0.0734  0.2624 -0.7767
   72MOL0     C 9632   3.218   8.740   2.146 -0.4023  0.1520  0.0796
   72MOL0     O 9633   3.526   8.686   2.269  0.1065  0.0760  0.0608
   72MOL0     C 9634   3.767   8.835   2.219 -0.2802  0.2018  0.2035
   72MOL0     C 9635   3.888   8.883   2.174 -0.3116  0.1901  0.8471
   72MOL0     N 9636   4.456   9.365   1.985  0.2477  0.2120  0.2679
   72MOL0     N 9637   4.495   9.456   2.055  1.2442 -0.5756 -0.9321
   72MOL0     C 9638   5.707   9.994   2.240  0.0693  0.4345 -0.1706
   72MOL0     C 9639   5.845   9.980   2.231 -0.6423 -0.6426  0.2939
   72MOL0     C 9640   6.269   9.865   2.207 -0.5788  0.2967 -0.1251
   72MOL0     C 9641   6.371   9.934   2.271  0.8950  0.4610  0.2849
   72MOL0     C 9642   6.485   9.870   2.312 -0.7062  0.7373 -0.5886
   72MOL0     C 9643   6.501   9.724   2.293  0.3144 -0.3542 -0.0071
   72MOL0     O 9644   6.606   9.646   2.330  0.2039  0.0586  0.1821
   72MOL0     C 9645   6.703   9.708   2.417 -0.0830  0.5676 -0.0092
   72MOL0     C 9646   6.807   9.602   2.441  0.1540 -0.1626  0.2966
   72MOL0     C 9647   6.938   9.650   2.516  0.8113 -0.3399  1.0463
   72MOL0     C 9648   7.044   9.722   2.434  0.3475 -0.1917  0.1631
   72MOL0     C 9649   7.143   9.620   2.401 -0.2160 -0.6964  0.1103
   72MOL0     C 9650   7.229   9.542   2.378  0.3455  0.8783  0.6198
   72MOL0     C 9651   6.397   9.668   2.219 -0.1448  0.4161 -0.2762
   72MOL0     C 9652   6.288   9.735   2.176 -0.1880  0.8477  0.0239
   72MOL0     H 9653   5.872   9.692   2.060 -3.1538 -0.4430 -2.7001
   72MOL0     H 9654   5.635   9.692   2.090  0.4455 -1.8895  2.5552
   72MOL0     H 9655   5.409   9.865   2.018 -1.9330 -2.5469 -0.1363
   72MOL0     H 9656   5.426   9.739   2.137 -1.5191 -0.6403  0.0315
   72MOL0     H 9657   5.222   9.821   2.262  0.2280 -1.1647 -0.5256
   72MOL0     H 9658   5.229   9.976   2.177 -1.3943  0.1459 -0.5712
   72MOL0     H 9659   5.124   9.896   1.985 -0.5956 -1.5552 -1.0400
   72MOL0     H 9660   5.189   9.735   2.004 -0.6588  1.2584 -1.5157
   72MOL0     H 9661   5.043   9.707   2.212 -1.4816 -0.8060 -0.7902
   72MOL0     H 9662   4.969   9.856   2.174  0.0160  0.0934  1.2311
   72MOL0     H 9663   4.917   9.785   1.948  2.9825  1.2773  0.7602
   72MOL0     H 9664   4.979   9.615   1.977 -0.3104 -0.5587  0.0755
   72MOL0     H 9665   4.729   9.751   2.096 -1.3339  0.0595  1.1407
   72MOL0     H 9666   4.731   9.625   1.982 -3.0146  2.0853  1.2261
   72MOL0     H 9667   4.841   9.471   2.147 -1.2787 -0.2796 -1.3214
   72MOL0     H 9668   4.847   9.598   2.269  0.4545 -2.6694  1.2525
   72MOL0     H 9669   4.587   9.607   2.227 -0.6828 -0.4534 -0.9080
   72MOL0     H 9670   4.661   9.495   2.339 -2.4762 -1.1763 -0.0882
   72MOL0     H 9671   4.674   9.221   2.187  1.6701  0.2697 -0.4652
   72MOL0     H 9672   4.468   9.124   1.866  2.8484 -2.0513 -1.3107
   72MOL0     H 9673   4.601   9.064   1.968  1.5515  3.5027  1.3784
   72MOL0     H 9674   4.392   9.077   2.155 -1.1253 -0.2835  0.8076
   72MOL0     H 9675   4.411   8.927   2.052  0.8179  0.2358 -0.4005
   72MOL0     H 9676   4.247   9.028   1.888 -0.7195  0.4732 -0.2752
   72MOL0     H 9677   4.250   9.172   1.989  0.4845 -0.2552 -0.1154
   72MOL0     H 9678   4.130   9.055   2.166  1.6142  2.4135 -0.7673
   72MOL0     H 9679   4.184   8.907   2.106  1.6410  2.2911  3.1419
   72MOL0     H 9680   3.820   8.911   1.851  0.4571  2.5580  1.2940
   72MOL0     H 9681   3.520   8.724   1.915  3.0470 -2.1619 -1.6268
   72MOL0     H 9682   3.491   8.897   1.893  1.1412  1.4173  0.5442
   72MOL0     H 9683   3.605   8.823   1.794 -2.7375  2.0424 -0.8406
   72MOL0     H 9684   3.298   9.014   2.336 -0.0222 -0.7226  1.0842
   72MOL0     H 9685   3.047   8.970   2.403 -2.4939  0.7091 -1.5084
   72MOL0     H 9686   2.850   8.939   2.173 -0.5849  0.5731  1.7705
   72MOL0     H 9687   2.754   8.798   2.161 -1.1104  0.8045 -0.6825
   72MOL0     H 9688   2.608   8.968   2.264 -0.1188 -0.3868 -1.1098
   72MOL0     H 9689   2.642   8.834   2.371  2.4798 -0.0082  1.3193
   72MOL0     H 9690   2.763   9.113   2.367  1.0721  0.2363  0.8292
   72MOL0     H 9691   2.818   8.985   2.486  2.6467  1.2149 -2.3004
   72MOL0     H 9692   2.533   9.071   2.478  2.2258 -1.4599 -3.9013
   72MOL0     H 9693   2.610   8.958   2.579  0.2000 -0.1599 -0.6461
   72MOL0     H 9694   2.775   9.114   2.672  1.2427 -0.1936 -2.0652
   72MOL0     H 9695   2.612   9.141   2.719  1.1497 -0.5353  0.5194
   72MOL0     H 9696   2.767   9.316   2.518  0.5626  1.1044  0.7739
   72MOL0     H 9697   2.591   9.331   2.540 -0.8484  1.9586  1.7420
   72MOL0     H 9698   2.765   9.320   2.786 -2.4775 -1.6882  0.9148
   72MOL0     H 9699   2.611   9.401   2.761  0.8951  1.0269  0.8053
   72MOL0     H 9700   2.696   9.587   2.635 -1.8991 -1.6016 -1.1333
   72MOL0     H 9701   2.842   9.505   2.608 -0.8212 -4.2954  0.2649
   72MOL0     H 9702   3.020   8.643   2.154 -0.9311 -0.3349  2.0399
   72MOL0     H 9703   3.249   8.702   2.049  1.7496  2.9398 -0.4525
   72MOL0     H 9704   3.759   8.806   2.323 -0.3982 -0.5490 -0.0074
   72MOL0     H 9705   3.976   8.899   2.235  2.3601 -0.1275 -2.5746
   72MOL0     H 9706   5.667  10.075   2.300 -0.8286  0.2534 -0.5006
   72MOL0     H 9707   5.903  10.055   2.282  0.4038 -0.4889 -1.0776
   72MOL0     H 9708   6.368  10.040   2.294  3.1768  1.3571 -2.8825
   72MOL0     H 9709   6.565   9.923   2.361 -1.2602 -0.3413  1.6087
   72MOL0     H 9710   6.748   9.797   2.371 -0.9243  1.5080  0.9138
   72MOL0     H 9711   6.664   9.737   2.515  0.6495  1.2523  0.0882
   72MOL0     H 9712   6.838   9.570   2.341 -0.5139 -0.5287  0.1994
   72MOL0     H 9713   6.764   9.519   2.499  1.9728 -0.1575  1.7384
   72MOL0     H 9714   6.981   9.564   2.568  0.6780 -2.2252 -1.7254
   72MOL0     H 9715   6.906   9.719   2.594  1.0774  0.2097  0.6774
   72MOL0     H 9716   7.097   9.803   2.485  1.3927  1.5044 -3.2970
   72MOL0     H 9717   7.019   9.756   2.333  1.9347 -0.8207 -0.4732
   72MOL0     H 9718   7.303   9.465   2.388 -0.5088  0.0273  0.5593
   72MOL0     H 9719   6.395   9.561   2.201 -2.2828 -0.3281  3.4071
   72MOL0     H 9720   6.204   9.689   2.125 -1.8273 -1.0766  4.0060
   73MOL0     O 9721   3.486   5.591   1.129 -0.3567 -0.4291  0.2613
   73MOL0     C 9722   3.551   5.486   1.123 -0.8753 -0.8881 -0.1528
   73MOL0     O 9723   3.510   5.360   1.172  0.2812 -0.0710  0.2290
   73MOL0     C 9724   3.393   5.319   1.221  0.1514 -0.0916 -0.6714
   73MOL0     C 9725   3.380   5.196   1.287 -1.6866 -0.4203  0.8513
   73MOL0     C 9726   3.257   5.140   1.322  0.3657  0.0992 -0.0869
   73MOL0     C 9727   3.140   5.219   1.295  0.1115  0.0329  0.4629
   73MOL0     O 9728   3.013   5.173   1.313  0.1092  0.5374 -0.6767
   73MOL0     C 9729   3.003   5.031   1.352 -0.6335 -0.8140 -0.5445
   73MOL0     C 9730   2.851   4.997   1.354  0.5464  0.3358 -0.4687
   73MOL0     C 9731   2.759   5.086   1.437  0.0209  0.2694 -0.7237
   73MOL0     C 9732   2.621   5.032   1.424 -0.2057 -0.3813 -0.0495
   73MOL0     C 9733   2.519   5.079   1.528 -0.8320  0.7144  0.2340
   73MOL0     C 9734   2.378   5.047   1.490  0.9115 -1.1793 -1.0477
   73MOL0     C 9735   2.272   5.070   1.609  0.3951  0.1531 -0.3740
   73MOL0     C 9736   2.260   5.223   1.637 -0.9820 -0.6250  0.3158
   73MOL0     N 9737   2.154   5.267   1.724 -0.2445 -0.2149 -0.7268
   73MOL0     C 9738   2.169   5.319   1.854 -0.2931 -0.0492  0.3233
   73MOL0     C 9739   2.035   5.350   1.883 -0.3598 -0.4598  0.0222
   73MOL0     C 9740   1.994   5.414   2.009  0.5964  0.1043  0.1202
   73MOL0     C 9741   1.892   5.523   1.975 -1.3559 -1.2271 -0.5380
   73MOL0     C 9742   1.892   5.649   2.062  0.6908  1.4278  0.1709
   73MOL0     C 9743   1.748   5.697   2.089  0.1048  0.0508  0.6673
   73MOL0     O 9744   1.681   5.726   1.961  0.0413  0.1908 -0.4206
   73MOL0     C 9745   1.543   5.730   1.960 -0.7587 -0.2614  0.4405
   73MOL0     C 9746   1.495   5.755   1.832  0.2906 -0.2888  0.2879
   73MOL0     C 9747   1.359   5.766   1.811  0.0077  0.5172 -0.4534
   73MOL0     C 9748   1.314   5.784   1.671  0.7604  0.0326  0.0724
   73MOL0     C 9749   1.264   5.763   1.918 -0.2060 -0.0046 -0.6416
   73MOL0     C 9750   1.119   5.789   1.899  0.2073  0.2408  0.8562
   73MOL0     O 9751   1.030   5.737   1.991 -0.3015  0.4278 -0.8121
   73MOL0     C 9752   0.897   5.755   1.983  0.4773  0.0691 -0.4476
   73MOL0     C 9753   0.840   5.872   1.948 -0.5757 -0.1267  0.2863
   73MOL0     C 9754   0.698   5.880   1.955 -0.2664  0.2939  0.1739
   73MOL0     C 9755   0.622   5.772   1.988 -0.0946 -0.4787  0.2608
   73MOL0     O 9756   0.490   5.775   1.975 -0.0029  0.3086  0.0327
   73MOL0     C 9757   0.443   5.822   1.848 -0.2337  0.1466  0.2180
   73MOL0     C 9758   0.286   5.830   1.862 -0.3350  0.5267  0.0841
   73MOL0     C 9759   0.223   5.864   1.719 -0.2987  0.4344  0.0021
   73MOL0     C 9760   0.068   5.860   1.718  0.4874  0.3335  0.4412
   73MOL0     C 9761   0.019   5.916   1.586 -0.6535  0.6542  0.4485
   73MOL0     C 9762  -0.133   5.895   1.582  0.0178  0.4951  0.0564
   73MOL0     C 9763  -0.215   5.998   1.672 -0.4736  0.2635  0.1314
   73MOL0     C 9764  -0.370   5.972   1.672  0.6993 -0.6740  0.3605
   73MOL0    Cl 9765  -0.403   5.821   1.776  0.1983 -0.2392 -0.1421
   73MOL0     C 9766   0.692   5.657   2.043 -0.3938 -0.0041 -0.6229
   73MOL0     C 9767   0.827   5.651   2.045  0.0435 -0.0513  0.1900
   73MOL0     O 9768   1.087   5.865   1.802 -0.4440  0.4526  0.1790
   73MOL0     C 9769   1.315   5.733   2.049 -0.2061 -0.1114  0.4494
   73MOL0     C 9770   1.455   5.722   2.068 -0.5759 -0.6298  0.7186
   73MOL0     N 9771   1.949   5.303   1.791  0.0217 -0.2529  0.3939
   73MOL0     N 9772   2.019   5.260   1.696  0.6726 -0.5656  0.3707
   73MOL0     C 9773   3.155   5.350   1.246 -0.3414  0.2258  0.4859
   73MOL0     C 9774   3.273   5.394   1.203 -0.5626  0.3089  0.9552
   73MOL0     C 9775   3.677   5.482   1.036  0.0287  0.0100 -0.1797
   73MOL0     C 9776   3.731   5.591   0.970 -0.3325  0.0368  0.9431
   73MOL0     C 9777   3.848   5.579   0.894 -0.3231  0.0537  0.4663
   73MOL0     C 9778   3.923   5.464   0.891  0.2641 -0.3613  0.1671
   73MOL0     O 9779   4.032   5.483   0.813 -0.0756  0.2200 -0.0768
   73MOL0     C 9780   4.154   5.418   0.861 -0.3559 -0.1747 -0.2062
   73MOL0     C 9781   4.273   5.476   0.776 -0.0556 -0.2865 -0.1005
   73MOL0     C 9782   4.308   5.383   0.659  0.3059 -0.8638  0.2539
   73MOL0     C 9783   4.448   5.399   0.598  0.4059  0.0219 -1.4337
   73MOL0     C 9784   4.477   5.533   0.555  0.0043  1.1017  1.0377
   73MOL0     C 9785   4.516   5.642   0.530  0.2651 -0.1406  0.4900
   73MOL0     C 9786   3.886   5.356   0.960 -0.2984 -0.1845  0.2705
   73MOL0     C 9787   3.763   5.367   1.033  0.2123 -0.2733 -0.6457
   73MOL0     H 9788   3.472   5.145   1.314 -0.1916  1.7798  0.1393
   73MOL0     H 9789   3.258   5.040   1.366 -2.7189 -0.5261 -1.1788
   73MOL0     H 9790   3.050   4.964   1.279 -2.8821 -0.4915 -2.4094
   73MOL0     H 9791   3.043   5.024   1.454 -4.6717 -0.6066  1.2263
   73MOL0     H 9792   2.813   5.006   1.251  0.0117  0.2216 -0.2870
   73MOL0     H 9793   2.831   4.891   1.374 -1.5024 -0.2637 -4.5717
   73MOL0     H 9794   2.779   5.084   1.545 -0.0381 -2.1022 -0.7108
   73MOL0     H 9795   2.762   5.186   1.393 -0.3487  0.3101 -0.6563
   73MOL0     H 9796   2.586   5.075   1.330  0.1206 -0.3624 -0.1633
   73MOL0     H 9797   2.608   4.924   1.413 -1.0446 -0.2220 -0.7552
   73MOL0     H 9798   2.558   5.022   1.613 -0.6886 -1.6192 -1.3029
   73MOL0     H 9799   2.529   5.185   1.553  0.5740  1.0873 -1.7025
   73MOL0     H 9800   2.345   5.116   1.412  1.3979 -0.2717 -0.4644
   73MOL0     H 9801   2.359   4.944   1.457 -0.1298 -1.3672  0.0353
   73MOL0     H 9802   2.171   5.033   1.591  0.6437 -0.0054 -1.5296
   73MOL0     H 9803   2.301   5.030   1.706 -2.8826  0.2551  0.7501
   73MOL0     H 9804   2.253   5.288   1.550  1.9989  0.7768  0.9915
   73MOL0     H 9805   2.360   5.244   1.677  0.6886 -5.0980 -0.8764
   73MOL0     H 9806   2.250   5.330   1.925 -0.2616  0.0356  0.2755
   73MOL0     H 9807   1.944   5.338   2.070  0.4841 -2.4686 -2.9129
   73MOL0     H 9808   2.085   5.452   2.056 -0.5158  2.0299  0.8150
   73MOL0     H 9809   1.794   5.474   1.977 -3.2300  2.1147 -1.6350
   73MOL0     H 9810   1.900   5.566   1.875 -2.9138 -1.8174 -0.9501
   73MOL0     H 9811   1.961   5.723   2.021 -0.7191  1.5253 -2.2027
   73MOL0     H 9812   1.935   5.616   2.157  2.8118  0.3133 -1.0965
   73MOL0     H 9813   1.748   5.781   2.160 -2.3964 -1.7735  3.0154
   73MOL0     H 9814   1.696   5.622   2.149 -1.1724 -0.4847 -1.0218
   73MOL0     H 9815   1.558   5.739   1.745  0.3934 -2.0375  0.6384
   73MOL0     H 9816   1.281   5.887   1.656 -1.6508 -0.7024  0.0151
   73MOL0     H 9817   1.399   5.765   1.605  0.3833  0.5025 -0.5574
   73MOL0     H 9818   1.240   5.709   1.644  0.9571 -1.8904  4.0732
   73MOL0     H 9819   0.915   5.949   1.941  1.0607 -1.7407 -1.2133
   73MOL0     H 9820   0.654   5.977   1.936  3.6892  1.8788 -2.3072
   73MOL0     H 9821   0.488   5.921   1.835 -0.6712  0.1633 -1.3150
   73MOL0     H 9822   0.466   5.742   1.778  0.1738  0.6296 -0.2102
   73MOL0     H 9823   0.243   5.737   1.899 -1.1728 -0.2143 -2.4951
   73MOL0     H 9824   0.253   5.907   1.933 -1.3011  0.0931  0.1184
   73MOL0     H 9825   0.267   5.807   1.637  3.0149 -1.3767  2.7937
   73MOL0     H 9826   0.247   5.969   1.705  0.3396  0.0886 -1.7708
   73MOL0     H 9827   0.022   5.764   1.744 -1.4546  1.0498 -0.1884
   73MOL0     H 9828   0.029   5.929   1.792 -1.8307 -0.8080  0.3669
   73MOL0     H 9829   0.059   5.867   1.497 -2.3190  0.7858 -0.4180
   73MOL0     H 9830   0.051   6.020   1.574  1.4690 -0.0894 -0.7679
   73MOL0     H 9831  -0.159   5.894   1.476  1.2439 -2.4929 -0.3222
   73MOL0     H 9832  -0.152   5.793   1.618  2.0107 -0.8660 -2.4423
   73MOL0     H 9833  -0.191   6.092   1.620 -0.3321  0.3793  0.4030
   73MOL0     H 9834  -0.178   5.995   1.775 -1.0753 -0.8031  0.3257
   73MOL0     H 9835  -0.397   5.958   1.567 -2.2175  1.9815  0.5922
   73MOL0     H 9836  -0.418   6.062   1.713  2.5110 -0.5665  2.4396
   73MOL0     H 9837   0.639   5.568   2.074 -0.1257  0.6810  2.0749
   73MOL0     H 9838   0.891   5.570   2.079  2.3491  1.9580  0.9563
   73MOL0     H 9839   1.237   5.723   2.123 -0.4631  1.0304  0.3521
   73MOL0     H 9840   1.494   5.706   2.168  1.9206 -1.5972 -0.3259
   73MOL0     H 9841   3.064   5.409   1.238 -0.9073 -0.1945  3.1388
   73MOL0     H 9842   3.280   5.489   1.151 -2.9157 -0.1703 -0.4265
   73MOL0     H 9843   3.673   5.683   0.964 -3.7370 -1.9866 -0.5408
   73MOL0     H 9844   3.872   5.660   0.825  4.6026 -0.6200  0.9818
   73MOL0     H 9845   4.161   5.444   0.967 -0.5337 -1.4265  0.1324
   73MOL0     H 9846   4.136   5.310   0.856 -1.6570 -0.3682  3.9769
   73MOL0     H 9847   4.364   5.479   0.837  1.5202 -0.8775 -2.2482
   73MOL0     H 9848   4.249   5.580   0.754  0.1288  1.0962  5.1104
   73MOL0     H 9849   4.240   5.405   0.577 -2.0015  0.9448  2.4800
   73MOL0     H 9850   4.300   5.275   0.673  2.9137 -1.1408  0.0598
   73MOL0     H 9851   4.462   5.337   0.510  0.2859 -0.5087 -1.0854
   73MOL0     H 9852   4.523   5.368   0.672  1.3534 -0.4131 -2.5602
   73MOL0     H 9853   4.547   5.740   0.500 -2.5737 -0.1235 -2.9023
   73MOL0     H 9854   3.942   5.263   0.966 -0.7418 -0.3546  3.5016
   73MOL0     H 9855   3.758   5.281   1.099  4.5440 -0.2805 -0.0856
   74MOL0     O 9856   9.042   0.157   1.653 -0.2793  0.5206 -0.3185
   74MOL0     C 9857   9.070   0.177   1.770 -0.1748  0.5203 -0.6066
   74MOL0     O 9858   8.986   0.189   1.877 -0.2616  1.2326  0.1598
   74MOL0     C 9859   8.850   0.195   1.867  0.6141 -0.2448 -0.4030
   74MOL0     C 9860   8.786   0.290   1.955  0.3701  0.2916  0.7695
   74MOL0     C 9861   8.647   0.306   1.950 -0.5528  0.7446  0.4266
   74MOL0     C 9862   8.569   0.239   1.851 -0.1285 -0.3967 -0.0772
   74MOL0     O 9863   8.439   0.266   1.858 -0.0810  0.1925 -0.0836
   74MOL0     C 9864   8.349   0.164   1.818  0.0978 -0.0753 -0.5030
   74MOL0     C 9865   8.208   0.207   1.848 -0.2078 -0.6313  0.5753
   74MOL0     C 9866   8.108   0.120   1.775 -0.2979 -0.2006  0.4153
   74MOL0     C 9867   7.968   0.166   1.818  0.1822  0.4969 -0.7010
   74MOL0     C 9868   7.871   0.074   1.752  0.7200 -0.0498 -0.2883
   74MOL0     C 9869   7.824  -0.049   1.824  0.1620  0.4413 -0.7064
   74MOL0     C 9870   7.673  -0.088   1.818 -0.1442  1.2283  1.2927
   74MOL0     C 9871   7.619  -0.091   1.668 -0.4590  0.7828 -0.3727
   74MOL0     N 9872   7.485  -0.146   1.663 -0.2252  0.7755  0.1016
   74MOL0     C 9873   7.373  -0.099   1.731 -0.7652  0.1856  0.7602
   74MOL0     C 9874   7.280  -0.195   1.718  0.2843  0.2059 -0.8227
   74MOL0     C 9875   7.143  -0.186   1.776  0.7269  0.4187  0.1616
   74MOL0     C 9876   7.038  -0.227   1.664 -0.2624  0.5459  0.7520
   74MOL0     C 9877   6.995  -0.110   1.580 -0.6671 -0.1988 -0.2733
   74MOL0     C 9878   6.873  -0.164   1.484  0.0400 -0.2468  0.5566
   74MOL0     O 9879   6.825  -0.072   1.380 -0.5139  0.3120  0.2918
   74MOL0     C 9880   6.699  -0.079   1.320  0.2179  0.3634 -0.6474
   74MOL0     C 9881   6.683   0.016   1.217 -0.2726  0.4100  0.1354
   74MOL0     C 9882   6.566   0.027   1.149  0.2292 -0.8817  1.1933
   74MOL0     C 9883   6.574   0.130   1.027  0.0398  0.4278 -0.5396
   74MOL0     C 9884   6.451  -0.050   1.190 -0.3897  0.0015 -1.2338
   74MOL0     C 9885   6.315  -0.041   1.124 -0.4050  0.4469 -1.1146
   74MOL0     O 9886   6.299   0.052   1.024 -0.3826  0.4118  0.0979
   74MOL0     C 9887   6.185   0.041   0.947  0.1079 -0.5771 -0.0271
   74MOL0     C 9888   6.145  -0.082   0.900 -0.0879 -0.6282  0.0397
   74MOL0     C 9889   6.023  -0.087   0.845  0.5952 -0.2201  0.2078
   74MOL0     C 9890   5.935   0.023   0.825  0.3429  0.0647  1.3446
   74MOL0     O 9891   5.818   0.000   0.755 -0.1019 -0.5817 -0.2469
   74MOL0     C 9892   5.701   0.063   0.816 -0.0190  1.6105 -0.5906
   74MOL0     C 9893   5.572   0.002   0.752  0.0872 -0.6674 -0.2392
   74MOL0     C 9894   5.559   0.035   0.604  0.6474  0.3821  0.5240
   74MOL0     C 9895   5.422  -0.023   0.551 -0.0359 -0.1908 -1.2118
   74MOL0     C 9896   5.411   0.022   0.408 -0.1402 -0.2687  0.5867
   74MOL0     C 9897   5.316  -0.061   0.319 -0.0385 -0.6859 -0.7173
   74MOL0     C 9898   5.193  -0.124   0.391  0.4354 -0.6939  0.4045
   74MOL0     C 9899   5.097  -0.196   0.304  0.4162 -0.5762  0.2854
   74MOL0    Cl 9900   5.185  -0.338   0.231  0.1706  0.0056  0.0122
   74MOL0     C 9901   5.972   0.141   0.880  0.2537 -0.9500 -0.0478
   74MOL0     C 9902   6.099   0.156   0.940  1.1437  0.5857 -0.5441
   74MOL0     O 9903   6.226  -0.112   1.172 -0.0294 -0.2199  0.1545
   74MOL0     C 9904   6.463  -0.135   1.306 -0.1153 -0.1435 -0.5038
   74MOL0     C 9905   6.591  -0.153   1.364 -0.2924 -0.8153 -0.4852
   74MOL0     N 9906   7.343  -0.296   1.645  0.2521  0.5780  0.4849
   74MOL0     N 9907   7.465  -0.277   1.628  0.1606  0.4332  0.3511
   74MOL0     C 9908   8.632   0.144   1.763 -0.4019 -0.3785  0.4324
   74MOL0     C 9909   8.772   0.127   1.775  0.8526  0.3538  0.2191
   74MOL0     C 9910   9.216   0.182   1.794  0.3249 -1.6828 -0.5628
   74MOL0     C 9911   9.310   0.176   1.693 -0.6563 -0.1256  0.0595
   74MOL0     C 9912   9.442   0.197   1.720 -0.2329  0.0549  0.6191
   74MOL0     C 9913   9.489   0.242   1.841  0.1431  0.6022 -0.4949
   74MOL0     O 9914   9.623   0.259   1.867  0.4447 -0.3472  0.1168
   74MOL0     C 9915   9.717   0.201   1.784 -0.3710  0.0525  0.3571
   74MOL0     C 9916   9.848   0.185   1.858  0.8354 -0.0513  0.4818
   74MOL0     C 9917   9.855   0.103   1.974  0.2698  1.2372 -0.4478
   74MOL0     C 9918   9.980   0.120   2.057  0.6101 -0.0526  0.5027
   74MOL0     C 9919  10.100   0.062   1.987  0.3891 -0.5016 -0.3179
   74MOL0     C 9920  10.209   0.030   1.945 -0.0198  0.1446  0.2752
   74MOL0     C 9921   9.397   0.268   1.947 -0.4613  0.4169 -0.4555
   74MOL0     C 9922   9.262   0.230   1.920  1.0446 -0.3634 -0.3897
   74MOL0     H 9923   8.842   0.335   2.037  0.0897  0.4162  0.8915
   74MOL0     H 9924   8.601   0.361   2.031 -0.0718  1.2654  0.3618
   74MOL0     H 9925   8.348   0.143   1.711 -0.7207  1.4821 -0.8307
   74MOL0     H 9926   8.372   0.068   1.866  0.0233  0.5820  0.8876
   74MOL0     H 9927   8.190   0.220   1.955  2.0253  0.6518  0.8691
   74MOL0     H 9928   8.181   0.305   1.807 -0.5541  0.6155  3.5824
   74MOL0     H 9929   8.114   0.131   1.666 -1.9134 -0.7256  0.2420
   74MOL0     H 9930   8.123   0.018   1.810  4.5813 -0.8441 -2.6334
   74MOL0     H 9931   7.959   0.185   1.925  2.2372 -0.1563 -0.3700
   74MOL0     H 9932   7.953   0.266   1.778  0.2975  1.5712  1.7816
   74MOL0     H 9933   7.786   0.143   1.743  0.8387 -0.0663 -1.7884
   74MOL0     H 9934   7.882   0.039   1.649 -2.7923  0.4425 -0.9561
   74MOL0     H 9935   7.888  -0.135   1.803 -0.7031 -0.0522 -1.3628
   74MOL0     H 9936   7.849  -0.035   1.930  1.1980  0.0730 -0.8889
   74MOL0     H 9937   7.660  -0.186   1.865 -0.5428  0.0152 -1.2062
   74MOL0     H 9938   7.618  -0.009   1.870  0.8476  3.7388 -1.2192
   74MOL0     H 9939   7.688  -0.158   1.616 -0.4338 -0.0437  0.7060
   74MOL0     H 9940   7.615   0.008   1.620  1.1096  0.4296 -1.3082
   74MOL0     H 9941   7.361  -0.009   1.791  0.3560  0.7010  0.2342
   74MOL0     H 9942   7.127  -0.261   1.854  0.7426 -2.0103 -2.0399
   74MOL0     H 9943   7.120  -0.085   1.813 -0.1690  0.3104 -0.0749
   74MOL0     H 9944   6.957  -0.284   1.711  2.3000 -1.9466  2.5724
   74MOL0     H 9945   7.082  -0.305   1.601  1.6062  0.2938  2.2613
   74MOL0     H 9946   7.080  -0.073   1.521  0.8440  1.5337  2.7592
   74MOL0     H 9947   6.958  -0.022   1.633 -1.0127 -1.7603  2.2072
   74MOL0     H 9948   6.793  -0.196   1.551  0.9225 -3.0475  0.4064
   74MOL0     H 9949   6.900  -0.255   1.430 -0.3563 -0.7707  1.2251
   74MOL0     H 9950   6.774   0.070   1.191  1.7084 -2.9343 -0.5550
   74MOL0     H 9951   6.491   0.202   1.032  0.8229  1.2644  0.8205
   74MOL0     H 9952   6.664   0.191   1.035 -0.1283  0.8459 -1.7071
   74MOL0     H 9953   6.591   0.074   0.934  0.5537  0.4171 -0.4376
   74MOL0     H 9954   6.205  -0.171   0.920 -1.4891 -1.2007  1.9425
   74MOL0     H 9955   5.997  -0.183   0.801  0.7944 -0.2742  0.2106
   74MOL0     H 9956   5.693   0.039   0.923 -2.3316 -0.7573 -1.1811
   74MOL0     H 9957   5.695   0.170   0.798  0.5660  1.6251 -0.7145
   74MOL0     H 9958   5.571  -0.107   0.761  0.8185 -0.6832 -0.2718
   74MOL0     H 9959   5.488   0.052   0.800 -2.3086 -3.1074 -1.6303
   74MOL0     H 9960   5.637  -0.012   0.544 -0.5828 -0.7902 -0.2150
   74MOL0     H 9961   5.577   0.142   0.589  1.5578 -0.0509 -1.7545
   74MOL0     H 9962   5.414  -0.132   0.556 -1.7204 -0.0466  1.8242
   74MOL0     H 9963   5.341   0.021   0.610 -0.5136 -0.0139 -1.9806
   74MOL0     H 9964   5.505   0.013   0.353 -0.5507 -2.1695  0.1237
   74MOL0     H 9965   5.390   0.130   0.402 -0.6537 -0.3120  1.4721
   74MOL0     H 9966   5.270   0.003   0.244 -0.4090 -0.0837  0.0163
   74MOL0     H 9967   5.372  -0.131   0.256  0.6851  1.4497 -2.5489
   74MOL0     H 9968   5.137  -0.043   0.438  0.1905 -1.5090  1.5637
   74MOL0     H 9969   5.220  -0.185   0.478 -1.3265  0.5625  1.9091
   74MOL0     H 9970   5.073  -0.115   0.235 -1.5354  1.2650  2.9248
   74MOL0     H 9971   5.008  -0.236   0.354  0.9453 -2.3787 -0.1436
   74MOL0     H 9972   5.909   0.229   0.888  2.0515  0.2992  1.2898
   74MOL0     H 9973   6.128   0.248   0.990 -1.4759  1.5494 -0.6220
   74MOL0     H 9974   6.385  -0.203   1.338  2.1114 -2.5443  0.2621
   74MOL0     H 9975   6.604  -0.217   1.451  1.6761  0.1531 -0.0024
   74MOL0     H 9976   8.586   0.083   1.685 -2.6801  3.2283 -1.3258
   74MOL0     H 9977   8.822   0.049   1.719 -0.7329 -0.9180  0.4850
   74MOL0     H 9978   9.281   0.146   1.593 -2.4176  0.9961  0.1914
   74MOL0     H 9979   9.507   0.180   1.635 -0.1404  1.1047  0.4638
   74MOL0     H 9980   9.686   0.106   1.739  1.2505  0.9433 -2.9610
   74MOL0     H 9981   9.731   0.281   1.711  1.7073  0.0880  0.7246
   74MOL0     H 9982   9.891   0.282   1.885  2.7455 -0.5992 -0.3894
   74MOL0     H 9983   9.913   0.145   1.779 -1.1340  0.4050 -1.4682
   74MOL0     H 9984   9.835  -0.002   1.950  1.6801  1.2813 -1.9905
   74MOL0     H 9985   9.776   0.129   2.045  1.2765  1.3907  0.6522
   74MOL0     H 9986   9.956   0.065   2.149 -2.0338 -0.7629 -0.5013
   74MOL0     H 9987   9.999   0.227   2.070 -0.7718  0.5574 -1.9876
   74MOL0     H 9988  10.300   0.008   1.893  0.2973  1.0727  0.4120
   74MOL0     H 9989   9.427   0.323   2.035 -3.3200 -1.4167  1.8516
   74MOL0     H 9990   9.200   0.243   2.008  3.6525 -0.4279  1.5667
   75MOL0     O 9991   0.069   3.346   2.478 -0.1095 -0.7649 -0.1029
   75MOL0     C 9992   0.106   3.399   2.376  0.5446 -0.0510  0.6520
   75MOL0     O 9993   0.025   3.449   2.283  0.7077 -0.4334  0.0800
   75MOL0     C 9994  -0.107   3.396   2.285 -0.5293 -0.5367  0.2028
   75MOL0     C 9995  -0.165   3.276   2.332 -0.4075  0.7510 -0.2574
   75MOL0     C 9996  -0.306   3.253   2.332 -0.6747  0.2263 -0.1584
   75MOL0     C 9997  -0.400   3.341   2.283 -0.6908 -0.2007  0.2201
   75MOL0     O 9998  -0.534   3.313   2.260 -0.1885  0.6948  0.2776
   75MOL0     C 9999  -0.598   3.181   2.267  0.0765  0.2393 -1.0926
   75MOL0     C10000  -0.642   3.142   2.412  1.0124 -0.1296  0.5796
   75MOL0     C10001  -0.605   3.256   2.519  0.1688  1.3087  0.0936
   75MOL0     C10002  -0.629   3.205   2.668 -0.5855 -0.4148  0.1502
   75MOL0     C10003  -0.599   3.314   2.771  0.3169 -0.4796  0.0572
   75MOL0     C10004  -0.472   3.404   2.749  0.6264 -0.3977 -0.0964
   75MOL0     C10005  -0.329   3.339   2.753 -0.4348  0.5262 -0.1041
   75MOL0     C10006  -0.230   3.423   2.681  0.0189 -0.2838  1.0798
   75MOL0     N10007  -0.189   3.547   2.748 -0.4031  0.1978 -0.7136
   75MOL0     C10008  -0.091   3.563   2.849  0.2346 -0.3601  0.0946
   75MOL0     C10009  -0.099   3.695   2.880  0.5866 -0.2947  0.8481
   75MOL0     C10010  -0.017   3.776   2.983  0.1183  0.0881 -0.2151
   75MOL0     C10011   0.061   3.693   3.070  0.1728 -0.2792 -0.0577
   75MOL0     C10012   0.184   3.752   3.145  0.6734 -0.2121  0.9754
   75MOL0     C10013   0.306   3.801   3.069  0.4963 -0.5987 -0.3907
   75MOL0     O10014   0.296   3.942   3.051 -0.1806  0.2934  0.5927
   75MOL0     C10015   0.385   4.010   2.963 -0.3557  0.3154 -0.4258
   75MOL0     C10016   0.356   4.143   2.955 -0.1828 -0.2522 -1.1644
   75MOL0     C10017   0.443   4.229   2.900 -0.6212  0.2052 -0.0642
   75MOL0     C10018   0.421   4.378   2.902  0.0434  0.4922  0.8404
   75MOL0     C10019   0.565   4.183   2.836  1.0200 -0.1729 -0.3751
   75MOL0     C10020   0.646   4.266   2.738  0.0553  0.1763  0.5644
   75MOL0     O10021   0.776   4.254   2.762 -0.8228  0.1622 -0.7456
   75MOL0     C10022   0.869   4.304   2.674 -0.2490  0.0033  0.2761
   75MOL0     C10023   0.984   4.233   2.647 -0.2492 -0.2012  0.2321
   75MOL0     C10024   1.082   4.296   2.568  0.1273  0.2838 -0.1325
   75MOL0     C10025   1.080   4.430   2.522 -0.1512  0.0119 -0.1161
   75MOL0     O10026   1.186   4.493   2.465  0.8334  0.3269  0.2228
   75MOL0     C10027   1.305   4.487   2.544 -0.6121  0.4255  0.5474
   75MOL0     C10028   1.356   4.634   2.544  0.1997 -0.8601 -0.2543
   75MOL0     C10029   1.366   4.700   2.400 -0.3971  0.3735 -0.3248
   75MOL0     C10030   1.390   4.850   2.404  0.0855 -0.1743 -0.2916
   75MOL0     C10031   1.415   4.913   2.264 -0.8485 -0.3485  0.0241
   75MOL0     C10032   1.420   5.069   2.283 -0.5441  0.5734  0.1773
   75MOL0     C10033   1.477   5.146   2.161 -0.9589  0.0003 -0.9563
   75MOL0     C10034   1.512   5.293   2.217 -0.6198  1.4146  0.3619
   75MOL0    Cl10035   1.370   5.369   2.291  0.0914 -0.0142  0.2260
   75MOL0     C10036   0.967   4.499   2.555 -0.7436  0.2144  0.0569
   75MOL0     C10037   0.863   4.436   2.625 -0.3347 -0.2346  0.0367
   75MOL0     O10038   0.594   4.319   2.643  0.4516 -0.2418  1.4631
   75MOL0     C10039   0.595   4.049   2.848  0.3168  0.1186  0.9167
   75MOL0     C10040   0.498   3.961   2.906 -0.5088 -0.0327  0.6954
   75MOL0     N10041  -0.197   3.754   2.795  0.0523  0.9696 -0.7132
   75MOL0     N10042  -0.250   3.665   2.728  0.0190 -0.2436 -0.3663
   75MOL0     C10043  -0.344   3.458   2.229  0.1274 -0.6754 -0.3739
   75MOL0     C10044  -0.204   3.492   2.228  0.7100 -0.1113 -0.1509
   75MOL0     C10045   0.257   3.409   2.351  0.8552 -0.2627 -0.8029
   75MOL0     C10046   0.299   3.480   2.235  0.0631  0.9770  0.0161
   75MOL0     C10047   0.442   3.476   2.205  1.3303  0.9410 -0.3048
   75MOL0     C10048   0.536   3.409   2.285 -0.2445  0.0208  0.2432
   75MOL0     O10049   0.670   3.403   2.258  0.2847  0.4744 -0.4133
   75MOL0     C10050   0.725   3.442   2.136 -0.0369 -0.4476 -0.0130
   75MOL0     C10051   0.841   3.530   2.174 -0.5314 -0.3871  0.7171
   75MOL0     C10052   0.942   3.550   2.064  0.0264  0.1005  0.2661
   75MOL0     C10053   1.079   3.594   2.113 -0.2916 -0.3802  0.3043
   75MOL0     C10054   1.159   3.482   2.155 -0.0349 -0.5567  0.3599
   75MOL0     C10055   1.243   3.415   2.191  0.0447 -0.3790  0.0162
   75MOL0     C10056   0.493   3.333   2.393  0.3253  0.1126 -0.3390
   75MOL0     C10057   0.355   3.339   2.425  0.0671  0.7471  0.6089
   75MOL0     H10058  -0.102   3.198   2.373 -1.9957 -0.3619  0.1629
   75MOL0     H10059  -0.343   3.156   2.365 -0.5845  0.2862  0.1166
   75MOL0     H10060  -0.688   3.182   2.205 -0.6378 -2.7090 -0.2700
   75MOL0     H10061  -0.530   3.108   2.223 -1.1421 -0.9232 -1.0785
   75MOL0     H10062  -0.751   3.128   2.407  1.2869 -2.0462 -2.2601
   75MOL0     H10063  -0.586   3.055   2.448  0.4760  0.1241  2.1032
   75MOL0     H10064  -0.497   3.271   2.510  0.2883  0.3520 -0.1286
   75MOL0     H10065  -0.661   3.345   2.488  1.4441  2.1336  0.0972
   75MOL0     H10066  -0.734   3.175   2.678 -0.9032  0.4768 -0.3590
   75MOL0     H10067  -0.568   3.116   2.682  0.3941 -0.0855 -1.6857
   75MOL0     H10068  -0.690   3.373   2.780 -0.2911 -1.1753 -1.1708
   75MOL0     H10069  -0.590   3.273   2.872  0.0489 -2.0691 -0.5344
   75MOL0     H10070  -0.478   3.450   2.650  1.4333 -0.7276 -0.3053
   75MOL0     H10071  -0.484   3.485   2.822  1.2777  1.0281 -1.4958
   75MOL0     H10072  -0.305   3.322   2.858 -0.2249  0.3683 -0.1763
   75MOL0     H10073  -0.338   3.238   2.712 -0.0942  0.4135  0.0909
   75MOL0     H10074  -0.278   3.458   2.589  0.1082  2.0783  1.8629
   75MOL0     H10075  -0.143   3.361   2.658  0.2445 -0.9672  3.5095
   75MOL0     H10076  -0.035   3.483   2.895 -0.8181 -2.2936 -1.8097
   75MOL0     H10077   0.052   3.842   2.930 -0.8607  2.0329  0.8065
   75MOL0     H10078  -0.083   3.845   3.036 -0.2909 -2.1974  2.4949
   75MOL0     H10079   0.105   3.608   3.018 -0.4566 -0.1202 -0.8767
   75MOL0     H10080  -0.006   3.652   3.147 -1.1219  0.6808 -0.6376
   75MOL0     H10081   0.220   3.676   3.215 -0.6987 -1.4171  0.4252
   75MOL0     H10082   0.157   3.838   3.207  0.5891  0.3508  0.1791
   75MOL0     H10083   0.328   3.741   2.980 -2.7213 -0.1212 -1.6467
   75MOL0     H10084   0.387   3.783   3.140  1.5350  1.3311 -1.0349
   75MOL0     H10085   0.275   4.176   3.019 -0.1262 -0.1163 -1.1633
   75MOL0     H10086   0.342   4.409   2.834 -0.1944 -2.7164 -0.5098
   75MOL0     H10087   0.405   4.402   3.008  2.7335 -0.1470  1.4722
   75MOL0     H10088   0.506   4.429   2.856 -2.8932  2.5196 -2.8413
   75MOL0     H10089   1.008   4.137   2.691 -0.8241 -1.1739 -1.5010
   75MOL0     H10090   1.171   4.239   2.543  0.4161  0.2716  0.8750
   75MOL0     H10091   1.293   4.459   2.649 -1.2638  1.8172  0.8616
   75MOL0     H10092   1.372   4.407   2.512  0.0466  1.2124 -0.0711
   75MOL0     H10093   1.285   4.696   2.599  1.9769  2.8398 -1.7794
   75MOL0     H10094   1.453   4.641   2.594 -0.7033  1.3622  1.3486
   75MOL0     H10095   1.269   4.704   2.350 -0.8192  2.6095  0.5708
   75MOL0     H10096   1.441   4.641   2.346 -2.9141 -3.8387  0.2690
   75MOL0     H10097   1.301   4.902   2.442  1.6493  2.6018 -0.2310
   75MOL0     H10098   1.474   4.872   2.470 -1.0934  2.0439  0.5774
   75MOL0     H10099   1.347   4.883   2.184  0.5986 -1.5498 -0.8078
   75MOL0     H10100   1.509   4.874   2.224 -2.5568 -2.2377 -2.4133
   75MOL0     H10101   1.319   5.104   2.307 -1.1842 -1.0849  0.0498
   75MOL0     H10102   1.485   5.090   2.368 -0.8191 -0.4432  0.6580
   75MOL0     H10103   1.400   5.153   2.084 -2.5275  0.2333  0.5589
   75MOL0     H10104   1.573   5.107   2.125  0.6641  0.8043  2.0983
   75MOL0     H10105   1.547   5.355   2.134  0.1840  0.0659 -0.3470
   75MOL0     H10106   1.593   5.284   2.290 -1.1010  0.7374  0.8266
   75MOL0     H10107   0.968   4.602   2.522 -1.4162 -0.1746 -1.2694
   75MOL0     H10108   0.776   4.492   2.659 -2.9760 -3.5664 -0.7056
   75MOL0     H10109   0.681   4.022   2.788 -1.0370  2.0124 -2.0966
   75MOL0     H10110   0.522   3.855   2.914  1.2273  0.2395 -0.4295
   75MOL0     H10111  -0.413   3.520   2.173 -0.8869 -1.5225 -0.1084
   75MOL0     H10112  -0.164   3.588   2.198  0.2458 -0.1161 -0.8101
   75MOL0     H10113   0.234   3.543   2.176  0.2355  1.5006  0.3798
   75MOL0     H10114   0.467   3.513   2.106  2.6574  3.2266  0.7946
   75MOL0     H10115   0.760   3.357   2.077  1.2084  0.2075 -0.2717
   75MOL0     H10116   0.657   3.500   2.074  0.7725  0.3137 -0.2153
   75MOL0     H10117   0.897   3.484   2.256  0.6962  0.6709  0.4932
   75MOL0     H10118   0.803   3.625   2.214 -2.5761 -0.0604 -1.7834
   75MOL0     H10119   0.900   3.617   1.989  2.0613 -2.6077 -3.5886
   75MOL0     H10120   0.958   3.455   2.013  2.5116 -0.3140  1.6518
   75MOL0     H10121   1.070   3.665   2.195 -2.0531  0.2075 -0.3602
   75MOL0     H10122   1.138   3.639   2.033 -0.0296  2.4511  1.9621
   75MOL0     H10123   1.321   3.348   2.221 -2.4121 -3.0053  1.0334
   75MOL0     H10124   0.553   3.280   2.465  2.4332  0.5201 -1.7137
   75MOL0     H10125   0.322   3.287   2.515 -1.7439  0.7061 -0.0363
   76MOL0     O10126   4.814  10.913   3.940  0.0488  1.3331 -0.4695
   76MOL0     C10127   4.836  11.019   3.885 -0.7129  0.1176 -0.0275
   76MOL0     O10128   4.743  11.108   3.857  0.2435 -0.1307  0.5467
   76MOL0     C10129   4.605  11.081   3.866  0.0952  0.0357  0.9134
   76MOL0     C10130   4.526  11.039   3.756  0.4867  0.5404 -0.4998
   76MOL0     C10131   4.381  11.042   3.781 -1.1986 -0.0213 -0.7255
   76MOL0     C10132   4.325  11.067   3.906  0.3399 -0.5361  0.4578
   76MOL0     O10133   4.191  11.042   3.908 -0.0589  0.3715 -0.4325
   76MOL0     C10134   4.128  11.022   4.039 -0.2821 -0.6555  0.2161
   76MOL0     C10135   3.979  10.991   4.010 -0.6034 -0.2708 -0.3744
   76MOL0     C10136   3.905  11.007   4.139  0.3283 -0.3120 -0.2634
   76MOL0     C10137   3.762  10.959   4.110 -0.3684  0.6521 -0.7565
   76MOL0     C10138   3.668  10.969   4.233  0.3916  0.5544  0.2044
   76MOL0     C10139   3.550  10.875   4.219 -0.0982 -0.5132 -1.0224
   76MOL0     C10140   3.433  10.943   4.146 -0.3630 -0.4212  0.5769
   76MOL0     C10141   3.291  10.877   4.135 -0.7207 -0.5795  0.1458
   76MOL0     N10142   3.209  10.891   4.256 -0.6038  0.3328 -0.3592
   76MOL0     C10143   3.230  10.941   4.386  0.7946 -1.0246  0.3464
   76MOL0     C10144   3.104  10.944   4.445 -0.0289  0.2292  1.1572
   76MOL0     C10145   3.082  10.997   4.577  0.1703  0.5028  0.3312
   76MOL0     C10146   3.025  10.897   4.677  0.0055  0.4819 -0.7218
   76MOL0     C10147   2.884  10.846   4.627  0.2041  0.8552 -0.1334
   76MOL0     C10148   2.794  10.794   4.740 -1.2365 -0.1022 -0.4420
   76MOL0     O10149   2.853  10.679   4.806  0.4318  0.8860 -1.4713
   76MOL0     C10150   2.764  10.627   4.894  0.3353  0.7475 -0.1851
   76MOL0     C10151   2.775  10.488   4.925 -0.4064  0.7657  0.2908
   76MOL0     C10152   2.698  10.418   5.015 -0.2295  0.3384 -0.4622
   76MOL0     C10153   2.756  10.276   5.049  0.1810  0.1066  0.7707
   76MOL0     C10154   2.591  10.484   5.075  0.6409 -0.7926 -0.3040
   76MOL0     C10155   2.501  10.413   5.169 -0.3188 -0.7368  0.4845
   76MOL0     O10156   2.494  10.288   5.132  0.0194  0.2454  1.1379
   76MOL0     C10157   2.396  10.198   5.168  0.0539 -0.4371  0.5604
   76MOL0     C10158   2.440  10.065   5.155  0.5179 -0.2414  0.6624
   76MOL0     C10159   2.354   9.968   5.204  0.1315  0.9359 -0.2521
   76MOL0     C10160   2.218   9.991   5.241 -0.6275  0.4075  0.6564
   76MOL0     O10161   2.150   9.884   5.276 -0.2145  0.1248  0.6598
   76MOL0     C10162   2.008   9.889   5.269 -0.3096 -0.0093 -0.4106
   76MOL0     C10163   1.967   9.897   5.126 -0.1334  0.9324  0.8198
   76MOL0     C10164   1.817   9.876   5.121 -0.2911  0.7842 -0.4641
   76MOL0     C10165   1.739   9.993   5.185  0.1181 -0.2361  0.9180
   76MOL0     C10166   1.777  10.129   5.116 -0.3379  0.5236  0.4961
   76MOL0     C10167   1.704  10.249   5.172 -0.7463 -0.0083 -1.1576
   76MOL0     C10168   1.554  10.250   5.137  0.2859 -0.3731  0.7397
   76MOL0     C10169   1.463  10.233   5.256 -0.1939  0.5536  0.6626
   76MOL0    Cl10170   1.289  10.257   5.192  0.2975  0.4275 -0.5042
   76MOL0     C10171   2.176  10.125   5.250  0.3039  0.5443  0.2480
   76MOL0     C10172   2.262  10.227   5.210 -0.2646 -0.6594 -0.5951
   76MOL0     O10173   2.433  10.465   5.254 -0.3047  0.2812  0.2564
   76MOL0     C10174   2.569  10.615   5.048 -0.2173 -0.3367 -0.2893
   76MOL0     C10175   2.657  10.690   4.962 -0.2592  0.0886 -0.2069
   76MOL0     N10176   3.018  10.904   4.347  0.1875 -0.3696 -0.0651
   76MOL0     N10177   3.076  10.879   4.238  0.1726  1.0069  0.1097
   76MOL0     C10178   4.406  11.117   4.008  0.1013 -0.3702  0.1314
   76MOL0     C10179   4.542  11.125   3.984  0.9119 -0.2280 -0.0998
   76MOL0     C10180   4.978  11.058   3.857  0.2167 -0.6551  0.4547
   76MOL0     C10181   5.091  10.981   3.895  0.2677 -0.2909 -0.3066
   76MOL0     C10182   5.221  11.026   3.875 -0.0665  0.3022  0.0705
   76MOL0     C10183   5.240  11.144   3.795  0.2096 -0.4095 -0.6249
   76MOL0     O10184   5.367  11.186   3.765  0.2592 -0.2396 -0.2957
   76MOL0     C10185   5.390  11.269   3.653 -0.3129 -0.6659  0.4635
   76MOL0     C10186   5.356  11.193   3.517  0.5078  0.2522  1.4249
   76MOL0     C10187   5.442  11.064   3.520 -0.2807 -0.1236  0.9200
   76MOL0     C10188   5.565  11.065   3.425 -0.3298  0.5020 -0.6824
   76MOL0     C10189   5.679  11.135   3.480  0.4714  0.7114 -0.1930
   76MOL0     C10190   5.757  11.217   3.524 -0.0490 -0.1118 -0.7961
   76MOL0     C10191   5.127  11.219   3.776  0.1229  0.3482 -0.2016
   76MOL0     C10192   4.995  11.178   3.800  0.4688 -0.1761  0.1110
   76MOL0     H10193   4.575  11.028   3.660  2.9996 -1.2702  0.8892
   76MOL0     H10194   4.317  11.000   3.705 -0.3964 -3.0876  0.1262
   76MOL0     H10195   4.181  10.942   4.092 -1.5637  0.9150  4.3334
   76MOL0     H10196   4.133  11.114   4.097  1.1608 -0.3408 -0.3831
   76MOL0     H10197   3.935  11.063   3.941 -4.0374 -1.2764  0.5668
   76MOL0     H10198   3.967  10.886   3.980 -0.2233 -0.2571 -0.5822
   76MOL0     H10199   3.951  10.955   4.224  0.5876  0.8304  0.3070
   76MOL0     H10200   3.899  11.112   4.168 -0.4513  0.2735 -2.4002
   76MOL0     H10201   3.713  11.009   4.026 -0.7652 -0.8586 -1.4793
   76MOL0     H10202   3.780  10.852   4.093 -1.3714  0.3625 -0.0775
   76MOL0     H10203   3.730  10.942   4.319 -1.9419 -1.9257  1.2444
   76MOL0     H10204   3.641  11.074   4.248  0.8180  0.9252 -1.4626
   76MOL0     H10205   3.580  10.778   4.179 -0.1450 -0.5738 -0.9119
   76MOL0     H10206   3.520  10.864   4.323  1.2132  1.5092 -0.3695
   76MOL0     H10207   3.417  11.038   4.198  2.9991  1.5530 -1.6903
   76MOL0     H10208   3.486  10.967   4.054  2.4445  2.9281  2.8401
   76MOL0     H10209   3.301  10.769   4.130  0.4625 -0.5340  1.0317
   76MOL0     H10210   3.236  10.923   4.053 -1.2770 -0.0642  0.7925
   76MOL0     H10211   3.315  10.983   4.440  0.5286 -1.4788  1.1191
   76MOL0     H10212   3.176  11.043   4.611 -0.2457  0.6268  1.3613
   76MOL0     H10213   3.002  11.071   4.577 -2.2920 -1.9251 -2.1453
   76MOL0     H10214   2.999  10.945   4.771 -3.0561  0.3400 -1.4125
   76MOL0     H10215   3.098  10.816   4.694 -1.8144 -0.9758  0.5439
   76MOL0     H10216   2.895  10.757   4.563  0.6162 -0.1073  1.2125
   76MOL0     H10217   2.820  10.917   4.574 -0.2778 -0.4752 -1.4015
   76MOL0     H10218   2.716  10.747   4.681  1.8788 -2.6464 -2.9197
   76MOL0     H10219   2.761  10.881   4.798  1.5781  1.9748 -1.6516
   76MOL0     H10220   2.858  10.433   4.882 -0.6635  2.1820 -2.2006
   76MOL0     H10221   2.702  10.205   4.986 -1.1374 -0.6945  2.7159
   76MOL0     H10222   2.861  10.266   5.019  0.0654 -1.2113  0.7396
   76MOL0     H10223   2.751  10.244   5.153  1.5520 -0.0000  0.8156
   76MOL0     H10224   2.535  10.029   5.115 -0.4739 -2.3883  0.0801
   76MOL0     H10225   2.377   9.862   5.202 -2.3438  0.2897 -3.7336
   76MOL0     H10226   1.974   9.796   5.314  3.2688 -1.0294  0.5172
   76MOL0     H10227   1.965   9.967   5.333  2.1573  0.4592  0.7904
   76MOL0     H10228   1.998   9.990   5.077  1.3661  1.6848  3.0259
   76MOL0     H10229   2.001   9.812   5.065  1.0432  0.4280  2.1200
   76MOL0     H10230   1.806   9.782   5.177  3.7271 -1.0928 -2.3797
   76MOL0     H10231   1.780   9.867   5.019 -1.4555  0.3690 -0.0156
   76MOL0     H10232   1.633   9.975   5.167 -0.0861  1.2148  0.5472
   76MOL0     H10233   1.767  10.003   5.290  3.4014  0.6852  0.0820
   76MOL0     H10234   1.750  10.129   5.009  2.5901 -0.6725 -0.3402
   76MOL0     H10235   1.884  10.153   5.112 -0.4104  0.7413 -2.5831
   76MOL0     H10236   1.732  10.257   5.277  1.2434  0.2966 -1.6684
   76MOL0     H10237   1.745  10.342   5.131 -1.4926 -0.4884 -3.0980
   76MOL0     H10238   1.534  10.172   5.064  1.2575 -0.8073  0.9249
   76MOL0     H10239   1.528  10.348   5.094 -1.8965 -2.6663 -3.8803
   76MOL0     H10240   1.492  10.298   5.339 -0.0962  0.2768  0.8478
   76MOL0     H10241   1.461  10.129   5.292  0.6231  0.9352  1.8656
   76MOL0     H10242   2.083  10.146   5.302 -0.7674 -1.0390 -0.9431
   76MOL0     H10243   2.225  10.328   5.215 -1.4546 -1.1346  1.4402
   76MOL0     H10244   2.503  10.677   5.107  2.1780  2.2997 -0.1624
   76MOL0     H10245   2.625  10.792   4.946  0.0148  0.2527  0.2620
   76MOL0     H10246   4.373  11.126   4.111 -1.2228  1.0653 -0.3820
   76MOL0     H10247   4.605  11.144   4.070  0.1500  2.3638 -0.0184
   76MOL0     H10248   5.075  10.880   3.933  1.3539 -0.3018  0.1443
   76MOL0     H10249   5.306  10.959   3.882  0.9064  1.5916  1.0499
   76MOL0     H10250   5.340  11.366   3.661  4.8508  2.4958 -0.6669
   76MOL0     H10251   5.498  11.284   3.652 -0.3937 -0.0300 -0.9315
   76MOL0     H10252   5.377  11.251   3.427 -2.4202 -1.9429 -0.8268
   76MOL0     H10253   5.253  11.156   3.520 -0.2012  2.1402  3.0423
   76MOL0     H10254   5.380  10.981   3.485  2.3460 -1.4672 -0.8743
   76MOL0     H10255   5.481  11.043   3.620  0.3716 -0.7560  0.5427
   76MOL0     H10256   5.532  11.119   3.336 -0.3764  1.7955  0.1040
   76MOL0     H10257   5.601  10.963   3.405  0.4803  0.9285 -1.4356
   76MOL0     H10258   5.814  11.286   3.584 -2.0132  1.0232 -0.1296
   76MOL0     H10259   5.121  11.321   3.740 -1.3058  0.4380  0.2441
   76MOL0     H10260   4.913  11.243   3.772 -0.5164 -1.9785 -1.3825
   77MOL0     O10261   7.547  10.662   6.504 -0.6813  0.0885 -0.1661
   77MOL0     C10262   7.639  10.711   6.577 -0.3644  0.9715  0.0709
   77MOL0     O10263   7.624  10.815   6.664 -0.7063 -0.2550 -0.2302
   77MOL0     C10264   7.505  10.868   6.709  0.1414 -0.7645  0.6269
   77MOL0     C10265   7.510  10.977   6.790 -0.0142 -0.0505 -1.2925
   77MOL0     C10266   7.388  11.056   6.813  0.2079  0.0809 -1.0472
   77MOL0     C10267   7.262  10.996   6.783  0.8820 -0.1901 -0.1976
   77MOL0     O10268   7.152  11.059   6.822 -0.7836  0.1587 -0.2386
   77MOL0     C10269   7.052  11.076   6.718 -0.7304  0.4448  0.0197
   77MOL0     C10270   6.952  11.177   6.774  0.1556  0.3710 -0.1206
   77MOL0     C10271   6.850  11.199   6.659 -0.4723  0.3869 -0.3267
   77MOL0     C10272   6.756  11.309   6.688 -0.6337  0.8513  0.6926
   77MOL0     C10273   6.647  11.259   6.787 -0.0660 -0.6207 -0.6491
   77MOL0     C10274   6.521  11.341   6.772  0.4431  0.3091  0.3188
   77MOL0     C10275   6.527  11.491   6.802  0.2933 -0.1754  0.2353
   77MOL0     C10276   6.569  11.526   6.948  0.3711  0.0808  0.0991
   77MOL0     N10277   6.467  11.507   7.045  0.5371 -0.0319 -0.3942
   77MOL0     C10278   6.334  11.535   7.025  0.2973 -0.0587  0.5246
   77MOL0     C10279   6.271  11.489   7.136  0.2684  0.6141  0.5405
   77MOL0     C10280   6.124  11.458   7.156  0.0366  0.4247  0.0569
   77MOL0     C10281   6.105  11.338   7.253  0.7497 -0.2435 -0.6967
   77MOL0     C10282   5.971  11.268   7.228 -0.1299 -0.3146  0.4342
   77MOL0     C10283   5.859  11.371   7.237 -0.0392 -0.2274  0.9527
   77MOL0     O10284   5.736  11.302   7.221 -0.2382 -0.3472  0.7558
   77MOL0     C10285   5.614  11.371   7.218 -0.1745  0.1347  1.0015
   77MOL0     C10286   5.503  11.294   7.192  0.0508 -0.0117 -0.1368
   77MOL0     C10287   5.368  11.342   7.205 -0.0825 -0.1194  0.5452
   77MOL0     C10288   5.258  11.239   7.165 -0.8375 -0.2772  0.1688
   77MOL0     C10289   5.356  11.479   7.234 -0.3317 -0.2486 -0.0322
   77MOL0     C10290   5.226  11.540   7.239 -0.2046 -0.6730 -0.5248
   77MOL0     O10291   5.113  11.470   7.273 -0.2630  0.2444 -0.3185
   77MOL0     C10292   4.989  11.532   7.268  0.6981  0.8641  0.3097
   77MOL0     C10293   4.929  11.576   7.384  0.5987 -0.3338  0.0127
   77MOL0     C10294   4.810  11.654   7.379 -0.5847 -0.0112 -0.5200
   77MOL0     C10295   4.738  11.666   7.264  0.0619 -0.0803  0.4763
   77MOL0     O10296   4.601  11.719   7.263 -0.2068  0.1779 -0.0246
   77MOL0     C10297   4.537  11.733   7.134  0.1316  0.4670 -0.1429
   77MOL0     C10298   4.387  11.769   7.148 -0.4972 -0.6985 -0.1313
   77MOL0     C10299   4.316  11.686   7.249  0.4245 -0.4553 -0.0009
   77MOL0     C10300   4.170  11.719   7.266  0.9099 -0.5777 -0.4852
   77MOL0     C10301   4.101  11.610   7.341 -0.5932 -0.4305  0.0206
   77MOL0     C10302   4.057  11.495   7.252 -0.5576 -0.2314  0.0525
   77MOL0     C10303   4.012  11.362   7.321  0.7063 -0.4488  0.1383
   77MOL0     C10304   3.911  11.390   7.433 -0.8278 -0.2111  0.7339
   77MOL0    Cl10305   3.758  11.454   7.364  0.3895 -0.3868 -0.2455
   77MOL0     C10306   4.798  11.610   7.147  0.1211 -1.0126 -0.1276
   77MOL0     C10307   4.922  11.545   7.144  0.4224  0.0323 -0.0905
   77MOL0     O10308   5.225  11.655   7.190  0.0065  0.5093 -0.1538
   77MOL0     C10309   5.472  11.558   7.257  0.6780 -0.0446 -0.3407
   77MOL0     C10310   5.595  11.498   7.251 -0.0237 -0.1249  0.2279
   77MOL0     N10311   6.371  11.434   7.219  0.0363 -1.1361  0.2073
   77MOL0     N10312   6.486  11.442   7.164 -0.3980  0.3407 -0.9054
   77MOL0     C10313   7.261  10.872   6.717  0.6059 -0.6940  0.0706
   77MOL0     C10314   7.379  10.814   6.677  0.2042  0.5812  0.3911
   77MOL0     C10315   7.773  10.650   6.554 -0.5659 -0.4054 -1.1074
   77MOL0     C10316   7.885  10.717   6.614  0.4575 -0.1519 -0.4059
   77MOL0     C10317   8.009  10.658   6.596 -0.0856  0.5643  0.2007
   77MOL0     C10318   8.041  10.556   6.512  0.2800 -0.2988  0.8181
   77MOL0     O10319   8.168  10.505   6.485  0.2570 -0.5865 -0.9671
   77MOL0     C10320   8.207  10.464   6.353 -0.1847  0.7285  0.5543
   77MOL0     C10321   8.181  10.310   6.338 -0.2323 -0.9896  0.0937
   77MOL0     C10322   8.225  10.245   6.474  0.6668 -0.2638  0.5205
   77MOL0     C10323   8.223  10.091   6.443  0.7849 -0.0253 -0.0736
   77MOL0     C10324   8.334  10.036   6.361 -0.8388  0.1749 -0.3728
   77MOL0     C10325   8.432  10.012   6.293 -0.5408 -0.4122  0.4964
   77MOL0     C10326   7.932  10.509   6.434 -0.0833  0.0569 -0.4246
   77MOL0     C10327   7.799  10.546   6.459  0.6342  0.0753  0.2447
   77MOL0     H10328   7.608  11.005   6.827 -0.5017 -0.7730  0.6668
   77MOL0     H10329   7.392  11.146   6.874  0.8968  0.0362 -1.0156
   77MOL0     H10330   7.108  11.113   6.632 -1.3232  0.3864 -0.4034
   77MOL0     H10331   7.003  10.979   6.703 -1.8003  0.6078  2.0134
   77MOL0     H10332   6.904  11.142   6.866 -0.0299 -4.1380 -1.6530
   77MOL0     H10333   7.006  11.271   6.784 -0.0330  0.8365 -2.6844
   77MOL0     H10334   6.909  11.227   6.571  1.3211 -0.6867  0.4652
   77MOL0     H10335   6.800  11.104   6.634 -0.3485  0.1800  0.2072
   77MOL0     H10336   6.806  11.400   6.720 -3.1706  3.3166 -1.7670
   77MOL0     H10337   6.710  11.337   6.593  1.2183  2.5253  0.2348
   77MOL0     H10338   6.622  11.152   6.781  0.1123 -0.8467  1.7848
   77MOL0     H10339   6.689  11.267   6.888 -1.0785 -0.5040 -0.2348
   77MOL0     H10340   6.489  11.332   6.668  2.0714  3.6791 -0.6148
   77MOL0     H10341   6.433  11.305   6.827 -1.7689  0.8327 -2.6365
   77MOL0     H10342   6.598  11.541   6.736 -0.8946  0.6561 -0.4433
   77MOL0     H10343   6.426  11.523   6.778  1.0710  1.1284 -1.5146
   77MOL0     H10344   6.596  11.631   6.943  0.8499 -0.0870 -1.1058
   77MOL0     H10345   6.659  11.470   6.973 -0.6617 -1.8631 -0.3137
   77MOL0     H10346   6.278  11.584   6.946  0.4189 -1.7969 -0.6841
   77MOL0     H10347   6.074  11.542   7.204 -0.8445  2.1420 -3.5211
   77MOL0     H10348   6.093  11.440   7.053  5.0029  1.2910 -1.8494
   77MOL0     H10349   6.093  11.385   7.351  0.3040 -0.4483 -0.6531
   77MOL0     H10350   6.185  11.263   7.259  3.4589  2.4522 -0.3623
   77MOL0     H10351   5.952  11.189   7.301  3.1241 -1.1302  0.5376
   77MOL0     H10352   5.987  11.223   7.130  1.9389  2.8136 -0.8259
   77MOL0     H10353   5.871  11.450   7.163 -0.0064  0.9691  2.1844
   77MOL0     H10354   5.855  11.417   7.337 -0.1022 -2.1725  1.8967
   77MOL0     H10355   5.519  11.190   7.165 -1.7573 -0.2662 -0.3392
   77MOL0     H10356   5.199  11.285   7.086 -0.5293 -1.4304 -0.7622
   77MOL0     H10357   5.299  11.152   7.113  0.4037  0.1934  0.3431
   77MOL0     H10358   5.181  11.222   7.241 -2.6567  0.9715 -1.3136
   77MOL0     H10359   4.989  11.562   7.473  2.4918 -1.3861 -1.3441
   77MOL0     H10360   4.783  11.704   7.471  0.8316 -2.3869  1.3214
   77MOL0     H10361   4.578  11.804   7.062 -3.1031  3.0024  0.2353
   77MOL0     H10362   4.540  11.630   7.099  0.8015  0.4011  0.1083
   77MOL0     H10363   4.379  11.874   7.176  2.2695  0.4849 -3.1378
   77MOL0     H10364   4.343  11.767   7.048  0.8759 -0.9472 -0.7478
   77MOL0     H10365   4.364  11.701   7.347 -1.1840 -2.7260  1.2220
   77MOL0     H10366   4.335  11.582   7.222  1.9854 -0.2391  0.1452
   77MOL0     H10367   4.166  11.813   7.323  1.5773 -0.2163 -1.0222
   77MOL0     H10368   4.112  11.722   7.174 -0.1118  2.2795  0.1417
   77MOL0     H10369   4.014  11.658   7.388 -0.2588 -1.2673  1.5497
   77MOL0     H10370   4.158  11.573   7.427  2.1903  2.7141 -0.2419
   77MOL0     H10371   3.968  11.517   7.192 -1.7352 -2.1110  1.0102
   77MOL0     H10372   4.138  11.467   7.184 -1.4778 -0.7905 -0.8459
   77MOL0     H10373   4.099  11.306   7.357  0.0489 -0.6361  1.5181
   77MOL0     H10374   3.952  11.300   7.253 -1.2510 -0.3585  1.6827
   77MOL0     H10375   3.958  11.465   7.498  1.8045  0.0002 -1.2377
   77MOL0     H10376   3.890  11.296   7.484 -1.4192 -1.6909 -2.0441
   77MOL0     H10377   4.740  11.615   7.056 -1.4640 -2.2746  0.7720
   77MOL0     H10378   4.954  11.516   7.045 -2.5849  3.2423 -2.2313
   77MOL0     H10379   5.486  11.664   7.275  3.5387 -0.3926 -0.0708
   77MOL0     H10380   5.677  11.561   7.283 -0.7284  3.4365 -4.1219
   77MOL0     H10381   7.172  10.819   6.684  1.2599 -1.5619 -0.3576
   77MOL0     H10382   7.358  10.726   6.618  1.7755 -0.1269  0.8364
   77MOL0     H10383   7.867  10.801   6.680 -0.2544  0.5996 -1.5180
   77MOL0     H10384   8.090  10.699   6.656  0.7290  1.5076 -1.4678
   77MOL0     H10385   8.157  10.525   6.277 -0.0327 -0.6821 -0.7164
   77MOL0     H10386   8.315  10.482   6.350  0.4817 -2.7014 -1.6145
   77MOL0     H10387   8.242  10.266   6.259 -0.7723 -4.2033  1.3170
   77MOL0     H10388   8.077  10.287   6.316 -0.8922 -1.7123  3.3517
   77MOL0     H10389   8.143  10.267   6.543 -0.0648  1.6766 -0.8866
   77MOL0     H10390   8.322  10.282   6.510 -0.3642  1.7807  1.3797
   77MOL0     H10391   8.142  10.062   6.375  3.2438  0.7602 -3.6793
   77MOL0     H10392   8.216  10.027   6.532  0.6810  2.0294  1.4561
   77MOL0     H10393   8.520   9.986   6.238 -0.3098  2.2824 -0.5398
   77MOL0     H10394   7.940  10.429   6.360  0.8866  1.9693 -2.5307
   77MOL0     H10395   7.719  10.499   6.402  0.9468 -0.2278  0.0531
   78MOL0     O10396   7.071   9.237   2.331  0.1179  0.4336 -1.3460
   78MOL0     C10397   7.054   9.114   2.312  0.6272 -0.6356 -0.2080
   78MOL0     O10398   6.944   9.051   2.240 -0.7025 -0.2461 -0.8400
   78MOL0     C10399   6.844   9.135   2.186 -0.4002 -0.5693  0.1429
   78MOL0     C10400   6.796   9.096   2.065  0.0239  0.2465 -0.6892
   78MOL0     C10401   6.699   9.171   2.004  0.9167 -0.4642  0.1448
   78MOL0     C10402   6.634   9.275   2.076 -0.2852  0.4021 -0.5291
   78MOL0     O10403   6.528   9.347   2.012  0.2130  0.6059 -0.1279
   78MOL0     C10404   6.469   9.303   1.893  0.0838  0.2662  0.4980
   78MOL0     C10405   6.340   9.377   1.853  0.3581  0.1897  0.5899
   78MOL0     C10406   6.239   9.401   1.958 -0.2461  0.1558 -0.0127
   78MOL0     C10407   6.133   9.506   1.924  0.7493 -0.2554 -0.1320
   78MOL0     C10408   6.047   9.462   1.804 -0.1533 -0.1387 -0.3728
   78MOL0     C10409   5.955   9.581   1.759 -0.7167  0.0074  0.5343
   78MOL0     C10410   5.874   9.558   1.629  0.1272  0.3858 -0.6180
   78MOL0     C10411   5.769   9.462   1.674 -0.3267 -0.0982  0.9524
   78MOL0     N10412   5.667   9.440   1.565  0.1466 -0.8021  0.4120
   78MOL0     C10413   5.584   9.529   1.501 -0.3905 -0.0187 -0.4309
   78MOL0     C10414   5.514   9.467   1.410 -0.4437  0.3802 -0.5181
   78MOL0     C10415   5.422   9.536   1.319  0.9140 -0.4863 -0.6016
   78MOL0     C10416   5.290   9.541   1.400  0.1144  0.6744  0.3993
   78MOL0     C10417   5.186   9.609   1.316 -0.9784  0.3056 -0.2906
   78MOL0     C10418   5.053   9.565   1.361 -0.5548  0.4148 -0.1565
   78MOL0     O10419   4.956   9.623   1.267 -0.5165 -0.0479 -1.0682
   78MOL0     C10420   4.818   9.623   1.286 -1.3733  0.5727  0.4359
   78MOL0     C10421   4.757   9.735   1.234 -0.0775 -0.6653  0.1912
   78MOL0     C10422   4.619   9.746   1.211 -0.7220 -0.1296 -0.3578
   78MOL0     C10423   4.569   9.880   1.169  0.0070 -0.2559 -0.0302
   78MOL0     C10424   4.539   9.640   1.251  0.0629 -0.7704  0.2014
   78MOL0     C10425   4.388   9.640   1.251  0.4603 -0.6550  0.5607
   78MOL0     O10426   4.330   9.518   1.271  0.4067 -0.0543  0.5835
   78MOL0     C10427   4.190   9.513   1.281 -0.7036  0.4423  0.3953
   78MOL0     C10428   4.125   9.436   1.180  0.4493 -0.0039 -0.5898
   78MOL0     C10429   3.988   9.420   1.189 -1.0928  0.4506  0.0813
   78MOL0     C10430   3.918   9.470   1.302  0.1960 -0.6906  0.6564
   78MOL0     O10431   3.782   9.469   1.299  0.9154  0.5275  1.1949
   78MOL0     C10432   3.707   9.400   1.193  0.2847  1.2120  0.3695
   78MOL0     C10433   3.563   9.418   1.227 -0.0468 -0.6167 -0.2900
   78MOL0     C10434   3.507   9.542   1.156  0.6233 -0.0564  0.2133
   78MOL0     C10435   3.352   9.564   1.165 -0.3858 -0.0738  0.0409
   78MOL0     C10436   3.274   9.642   1.058  0.3658 -0.5080  0.2467
   78MOL0     C10437   3.340   9.780   1.028 -0.3677  0.2158 -0.0982
   78MOL0     C10438   3.276   9.865   0.922  0.7428 -0.0739  0.3192
   78MOL0     C10439   3.285   9.816   0.775  0.0914 -0.2906 -0.4667
   78MOL0    Cl10440   3.220   9.921   0.652 -0.4017  0.3763 -0.1217
   78MOL0     C10441   3.980   9.542   1.402  0.8412  0.7331  0.3706
   78MOL0     C10442   4.117   9.567   1.395 -0.7418 -0.2608 -0.3379
   78MOL0     O10443   4.326   9.755   1.249  0.1440  0.6594  0.4820
   78MOL0     C10444   4.604   9.531   1.314  0.3744 -0.1870  0.4048
   78MOL0     C10445   4.742   9.515   1.327  0.3419  0.5656  0.1254
   78MOL0     N10446   5.554   9.339   1.403 -0.2436 -0.3564 -0.7039
   78MOL0     N10447   5.641   9.327   1.498  0.5153 -0.2045 -0.8150
   78MOL0     C10448   6.684   9.317   2.203 -0.1624  0.8661 -0.1662
   78MOL0     C10449   6.792   9.253   2.259 -0.0273  0.4320  0.2090
   78MOL0     C10450   7.163   9.029   2.368 -0.1592  0.2526  0.0088
   78MOL0     C10451   7.171   8.893   2.343  0.8456  0.0713  0.0372
   78MOL0     C10452   7.257   8.804   2.393  0.6139 -0.6945 -0.8099
   78MOL0     C10453   7.360   8.853   2.479  0.4933  0.2704 -0.1638
   78MOL0     O10454   7.451   8.770   2.544 -0.0953  0.1458 -0.6467
   78MOL0     C10455   7.448   8.630   2.499 -0.0928  0.3215  0.3230
   78MOL0     C10456   7.564   8.553   2.569 -0.8475  0.3189 -0.1414
   78MOL0     C10457   7.699   8.608   2.514 -0.4004 -0.3435  0.0299
   78MOL0     C10458   7.816   8.620   2.616  0.1441  0.0527 -0.0084
   78MOL0     C10459   7.819   8.738   2.702  0.4672  0.0606 -1.0673
   78MOL0     C10460   7.815   8.834   2.786  0.4498  0.2452 -1.0779
   78MOL0     C10461   7.358   8.989   2.517 -0.3713 -0.5810 -0.0187
   78MOL0     C10462   7.263   9.074   2.462  0.5938 -0.2679 -0.7579
   78MOL0     H10463   6.847   9.014   2.016  0.7065  0.7399 -0.8227
   78MOL0     H10464   6.668   9.146   1.903 -0.1256  1.7197 -0.1257
   78MOL0     H10465   6.551   9.312   1.821  0.5059 -0.3720  0.8856
   78MOL0     H10466   6.440   9.198   1.906 -1.5237  0.5499 -0.5709
   78MOL0     H10467   6.373   9.468   1.802  2.3386  0.9917  3.0870
   78MOL0     H10468   6.287   9.318   1.777  1.5101  0.9318 -0.8469
   78MOL0     H10469   6.182   9.315   1.993 -1.2748  1.7700  2.5930
   78MOL0     H10470   6.292   9.427   2.050 -1.1274  0.1218  0.5191
   78MOL0     H10471   6.069   9.529   2.010 -0.8047 -3.6261 -0.2448
   78MOL0     H10472   6.191   9.599   1.918 -1.4067  1.1248 -0.4374
   78MOL0     H10473   6.105   9.426   1.718  1.1030  0.7933  0.0535
   78MOL0     H10474   5.984   9.375   1.825  0.4515 -0.7298 -0.9204
   78MOL0     H10475   5.884   9.604   1.840 -0.4672  1.3127  0.4110
   78MOL0     H10476   6.018   9.669   1.741 -0.1162 -0.9582 -2.9105
   78MOL0     H10477   5.820   9.647   1.597 -0.0307  0.2451 -0.7450
   78MOL0     H10478   5.938   9.511   1.554 -1.6370 -0.2312 -1.8103
   78MOL0     H10479   5.720   9.509   1.760  1.0643  0.6853  1.3505
   78MOL0     H10480   5.818   9.370   1.709  0.6554  0.4218  0.9758
   78MOL0     H10481   5.587   9.637   1.515 -0.6569  0.5307 -3.7820
   78MOL0     H10482   5.457   9.637   1.296  1.6913 -1.1705 -2.5614
   78MOL0     H10483   5.404   9.479   1.228 -2.5789  1.1878 -1.1263
   78MOL0     H10484   5.310   9.604   1.487  1.2387  3.3777 -1.6620
   78MOL0     H10485   5.262   9.440   1.434  0.1390  0.0725 -1.2607
   78MOL0     H10486   5.200   9.575   1.213 -0.8129 -1.2990  0.2442
   78MOL0     H10487   5.197   9.718   1.323  2.8787 -0.0496  1.7257
   78MOL0     H10488   5.038   9.593   1.466 -1.0268 -1.1297  0.2051
   78MOL0     H10489   5.037   9.458   1.347 -4.8127  0.9936 -0.8881
   78MOL0     H10490   4.829   9.809   1.202 -1.4692 -0.5836 -3.1053
   78MOL0     H10491   4.536   9.933   1.258 -0.1625 -1.2028  0.4759
   78MOL0     H10492   4.643   9.945   1.120  0.3235 -0.4622  0.1703
   78MOL0     H10493   4.486   9.871   1.098  1.3620 -2.8674 -1.4223
   78MOL0     H10494   4.179   9.406   1.090  2.0403 -1.3339  0.7400
   78MOL0     H10495   3.943   9.374   1.102  0.7711  1.4427 -1.4656
   78MOL0     H10496   3.719   9.437   1.091  0.4851  1.6127  0.5338
   78MOL0     H10497   3.729   9.294   1.186 -0.5838  1.1294 -2.8043
   78MOL0     H10498   3.505   9.332   1.193 -0.7454 -0.7417  1.1476
   78MOL0     H10499   3.549   9.433   1.334 -0.0928  2.7582 -0.6671
   78MOL0     H10500   3.528   9.534   1.049 -0.2831 -0.6883  0.0676
   78MOL0     H10501   3.548   9.637   1.189 -1.8845  1.0999  0.2250
   78MOL0     H10502   3.305   9.467   1.180  0.8188 -0.9790 -1.6145
   78MOL0     H10503   3.336   9.625   1.254  1.8034 -0.8270  1.0317
   78MOL0     H10504   3.169   9.657   1.087 -0.2336 -2.0310 -1.0002
   78MOL0     H10505   3.261   9.585   0.966  1.2873 -3.8454  2.0296
   78MOL0     H10506   3.355   9.835   1.122 -1.4091  2.3231 -1.1098
   78MOL0     H10507   3.437   9.754   0.985 -1.1151  0.5229 -2.0699
   78MOL0     H10508   3.312   9.968   0.928 -0.0759  0.2567 -0.3551
   78MOL0     H10509   3.172   9.871   0.955 -0.2324 -1.0493 -2.3237
   78MOL0     H10510   3.231   9.721   0.771 -2.2877  0.6413  3.5342
   78MOL0     H10511   3.392   9.795   0.765  0.3324  1.0661 -0.9211
   78MOL0     H10512   3.904   9.583   1.467 -0.3017 -0.6160 -0.0683
   78MOL0     H10513   4.161   9.639   1.462 -2.4057  1.3978 -0.9579
   78MOL0     H10514   4.533   9.455   1.345 -1.8880  0.9025 -1.7652
   78MOL0     H10515   4.788   9.420   1.349 -1.3159  0.0503  1.6551
   78MOL0     H10516   6.627   9.386   2.266 -2.5281 -1.2165  0.1234
   78MOL0     H10517   6.820   9.276   2.361 -1.1455  0.7700  0.4531
   78MOL0     H10518   7.095   8.849   2.279  0.7767  0.1417  0.0708
   78MOL0     H10519   7.227   8.701   2.374 -1.4615  0.0612 -2.0003
   78MOL0     H10520   7.352   8.585   2.526 -0.2216 -1.1172 -2.1839
   78MOL0     H10521   7.462   8.604   2.394  0.2636  0.3375  0.3670
   78MOL0     H10522   7.547   8.446   2.558  0.6131  0.2768 -2.9157
   78MOL0     H10523   7.540   8.580   2.673 -0.9274  3.5937 -0.8881
   78MOL0     H10524   7.680   8.705   2.468 -1.1933 -1.5638 -2.3988
   78MOL0     H10525   7.725   8.535   2.436 -0.3865  0.0983 -0.3818
   78MOL0     H10526   7.908   8.613   2.557 -0.1735 -0.2420 -0.4794
   78MOL0     H10527   7.816   8.527   2.674 -2.6247 -0.2869 -0.4106
   78MOL0     H10528   7.820   8.906   2.865  0.9348 -1.6518  0.7095
   78MOL0     H10529   7.441   9.017   2.581 -1.7564 -2.1568  2.6798
   78MOL0     H10530   7.253   9.180   2.483 -0.7232 -0.8966  2.3555
   79MOL0     O10531   9.157   2.834  10.751 -0.0874 -0.0281  0.6935
   79MOL0     C10532   9.187   2.790  10.640 -0.0402  0.8122  0.3133
   79MOL0     O10533   9.142   2.838  10.525  0.0830 -0.8086  0.2093
   79MOL0     C10534   9.048   2.944  10.523  0.1557  0.0116 -0.4282
   79MOL0     C10535   8.947   2.964  10.618 -0.0118 -0.4699  0.4141
   79MOL0     C10536   8.849   3.066  10.596  0.2441  0.4062 -0.4008
   79MOL0     C10537   8.839   3.138  10.477 -0.4176  0.2734 -1.1338
   79MOL0     O10538   8.761   3.247  10.457 -0.0478 -0.0979 -0.0122
   79MOL0     C10539   8.650   3.269  10.547  0.5554 -0.3696 -0.4598
   79MOL0     C10540   8.539   3.158  10.518 -0.7351  1.1155  1.1528
   79MOL0     C10541   8.417   3.184  10.598  0.2448  0.6075  0.6473
   79MOL0     C10542   8.282   3.129  10.544  0.2746  0.0951  0.2740
   79MOL0     C10543   8.170   3.123  10.650  0.3256 -0.6566  0.0140
   79MOL0     C10544   8.041   3.053  10.610 -1.3955 -0.7615  0.4637
   79MOL0     C10545   7.937   3.053  10.712 -0.4447 -0.2517  0.0568
   79MOL0     C10546   7.961   2.964  10.836  0.6156  0.0785 -0.0188
   79MOL0     N10547   7.875   2.849  10.836 -0.0744  0.6872  0.5432
   79MOL0     C10548   7.900   2.733  10.772 -0.2270  0.3987 -0.2605
   79MOL0     C10549   7.803   2.639  10.811 -0.2167 -0.2090 -0.3696
   79MOL0     C10550   7.796   2.493  10.769 -0.3257  1.1379  0.1290
   79MOL0     C10551   7.711   2.478  10.645  0.5893  0.4029  0.4165
   79MOL0     C10552   7.561   2.480  10.677  0.2653  0.2793 -0.0601
   79MOL0     C10553   7.503   2.338  10.687  0.2098 -0.2116 -0.5777
   79MOL0     O10554   7.473   2.289  10.552 -1.0734  0.1798 -0.2787
   79MOL0     C10555   7.363   2.342  10.489 -0.4038 -0.1661  0.7309
   79MOL0     C10556   7.383   2.400  10.366  0.1158 -0.6361  0.3553
   79MOL0     C10557   7.269   2.439  10.291 -0.2706 -0.0553 -0.1726
   79MOL0     C10558   7.293   2.507  10.154  0.0574  0.4353 -0.1196
   79MOL0     C10559   7.144   2.400  10.337  0.5311  0.8406  0.6222
   79MOL0     C10560   7.018   2.433  10.273 -0.1066  1.0423  0.3201
   79MOL0     O10561   6.903   2.413  10.353 -0.3916  0.1097 -0.1617
   79MOL0     C10562   6.783   2.410  10.286  0.1237  0.4268  0.7114
   79MOL0     C10563   6.740   2.502  10.194  0.0652  0.3106 -0.8166
   79MOL0     C10564   6.614   2.508  10.139  0.3257  0.2085 -0.7703
   79MOL0     C10565   6.516   2.422  10.187 -1.2041  0.1989 -0.2084
   79MOL0     O10566   6.391   2.428  10.117 -0.7721 -0.3050 -0.3702
   79MOL0     C10567   6.279   2.349  10.160 -0.0934  0.3545  0.0909
   79MOL0     C10568   6.151   2.392  10.075 -0.2264  1.1203 -0.6426
   79MOL0     C10569   6.095   2.537  10.100 -0.7850  0.4200  1.1427
   79MOL0     C10570   5.966   2.549  10.034  0.0840  0.4210  0.0132
   79MOL0     C10571   5.913   2.695  10.046  0.2041 -0.5696  0.0298
   79MOL0     C10572   5.875   2.763   9.909 -0.2940  1.2304  0.1750
   79MOL0     C10573   5.811   2.891   9.924  0.5824  0.1749 -0.4932
   79MOL0     C10574   5.657   2.893   9.966  0.0016  0.3487  0.4282
   79MOL0    Cl10575   5.565   2.782   9.864  0.1914  0.2864  0.0531
   79MOL0     C10576   6.554   2.329  10.292  0.5244 -0.6011 -0.0238
   79MOL0     C10577   6.679   2.332  10.337  0.0045 -0.1272  0.2866
   79MOL0     O10578   7.014   2.468  10.154 -0.5170 -0.0547 -0.7375
   79MOL0     C10579   7.131   2.319  10.453 -0.5795 -0.4910 -0.0131
   79MOL0     C10580   7.244   2.285  10.523  0.3452 -0.4815  0.2325
   79MOL0     N10581   7.718   2.716  10.889 -0.4817  0.3103 -0.6724
   79MOL0     N10582   7.763   2.835  10.908 -0.4656  0.7676  0.1286
   79MOL0     C10583   8.943   3.112  10.385 -0.0426 -0.1664 -0.4034
   79MOL0     C10584   9.039   3.013  10.406  0.2135 -0.5744  0.2759
   79MOL0     C10585   9.272   2.668  10.637 -0.1787  0.0031 -0.1056
   79MOL0     C10586   9.361   2.650  10.741  0.7206 -0.2166  0.6406
   79MOL0     C10587   9.436   2.533  10.750  0.0744 -0.0071  0.3504
   79MOL0     C10588   9.425   2.430  10.654 -0.3589  0.0065  1.0269
   79MOL0     O10589   9.495   2.310  10.661 -0.4964  0.4485 -0.3204
   79MOL0     C10590   9.595   2.278  10.747 -0.4328 -1.0143 -0.9827
   79MOL0     C10591   9.721   2.364  10.712 -0.8890  0.6803  0.4084
   79MOL0     C10592   9.834   2.309  10.778 -0.3580 -0.5653 -0.1439
   79MOL0     C10593   9.958   2.396  10.759  0.1445 -0.1862 -0.2662
   79MOL0     C10594  10.078   2.341  10.813 -0.3106 -0.1458 -0.2960
   79MOL0     C10595  10.186   2.302  10.851 -0.0827  0.4070  0.4704
   79MOL0     C10596   9.341   2.452  10.542 -0.1437 -0.2687  0.2510
   79MOL0     C10597   9.256   2.568  10.540 -0.1309  0.2210  0.2652
   79MOL0     H10598   8.951   2.927  10.720 -0.1456  1.9016  1.3468
   79MOL0     H10599   8.794   3.100  10.683 -0.7587  0.5972 -1.0985
   79MOL0     H10600   8.680   3.261  10.652  0.0467 -0.2442 -0.3040
   79MOL0     H10601   8.605   3.366  10.525  1.2250 -0.4835 -2.6031
   79MOL0     H10602   8.515   3.175  10.413  0.4893  1.8246  0.9713
   79MOL0     H10603   8.586   3.060  10.529 -1.1760  0.7764  0.1177
   79MOL0     H10604   8.432   3.144  10.699 -1.4169  0.1324  0.7374
   79MOL0     H10605   8.393   3.291  10.595 -2.2161  0.1080 -1.1325
   79MOL0     H10606   8.254   3.194  10.461 -0.6613  1.2448  1.4643
   79MOL0     H10607   8.293   3.028  10.503  1.4898  0.1974  0.3219
   79MOL0     H10608   8.216   3.062  10.729  1.8959  0.8371  0.3037
   79MOL0     H10609   8.140   3.223  10.681 -2.4904 -1.2565 -0.4801
   79MOL0     H10610   8.006   3.100  10.518  0.4134 -1.3383 -0.5759
   79MOL0     H10611   8.071   2.955  10.572  2.9878  0.0413  1.3259
   79MOL0     H10612   7.908   3.153  10.743 -2.6612 -1.5939  2.7629
   79MOL0     H10613   7.860   3.011  10.647  0.1428 -0.7221 -0.3494
   79MOL0     H10614   7.935   3.026  10.922  2.7463 -0.1555  0.8618
   79MOL0     H10615   8.067   2.946  10.855  0.0560  0.9603  5.4014
   79MOL0     H10616   7.982   2.709  10.705  0.5960  2.5830 -0.1144
   79MOL0     H10617   7.897   2.456  10.749 -0.1679  2.0164 -0.8258
   79MOL0     H10618   7.753   2.432  10.848 -1.0751  2.1980  0.5552
   79MOL0     H10619   7.731   2.379  10.604 -0.6207  0.3820 -0.1550
   79MOL0     H10620   7.733   2.554  10.569 -3.8120 -0.3511 -1.9272
   79MOL0     H10621   7.505   2.534  10.600 -0.8055  2.6065  2.1900
   79MOL0     H10622   7.544   2.533  10.771  0.7248  2.1690 -0.9923
   79MOL0     H10623   7.405   2.339  10.736  0.3877  0.0508 -0.2225
   79MOL0     H10624   7.566   2.271  10.746  1.3929 -0.0048 -1.5500
   79MOL0     H10625   7.484   2.409  10.327 -0.1397 -2.7322 -0.9145
   79MOL0     H10626   7.229   2.596  10.149  3.1012  2.7766 -0.4170
   79MOL0     H10627   7.396   2.543  10.145  0.1044  0.2639 -0.2684
   79MOL0     H10628   7.274   2.440  10.069  0.6540  2.5482 -2.0394
   79MOL0     H10629   6.814   2.580  10.179 -0.3808  0.8582 -0.2181
   79MOL0     H10630   6.577   2.580  10.067  1.2945  3.2613  1.5551
   79MOL0     H10631   6.291   2.242  10.142 -1.2600  0.5067 -2.0123
   79MOL0     H10632   6.250   2.374  10.262  1.3716  1.6164  0.2402
   79MOL0     H10633   6.182   2.378   9.970  2.2468  2.8243 -0.2347
   79MOL0     H10634   6.075   2.318  10.101  1.6145 -0.5391  0.3521
   79MOL0     H10635   6.173   2.603  10.060  1.5640 -1.7275  1.9468
   79MOL0     H10636   6.088   2.551  10.209  1.3475  1.1306  1.2448
   79MOL0     H10637   5.978   2.519   9.929  0.0856  2.7080 -0.6930
   79MOL0     H10638   5.894   2.476  10.073  0.8941  0.3196  1.3634
   79MOL0     H10639   5.977   2.769  10.094 -1.3245  3.3623 -3.4004
   79MOL0     H10640   5.822   2.681  10.106 -0.2766  0.8376 -0.3293
   79MOL0     H10641   5.972   2.782   9.861 -0.5793  2.5193  0.0913
   79MOL0     H10642   5.820   2.689   9.849  0.1135  2.0706 -1.2815
   79MOL0     H10643   5.820   2.944   9.829  0.8102  0.8212 -0.1194
   79MOL0     H10644   5.869   2.950   9.996  3.8139  3.0016 -4.8806
   79MOL0     H10645   5.614   2.994   9.959 -3.1712 -0.9471 -0.9809
   79MOL0     H10646   5.657   2.863  10.071 -0.5174 -1.3669 -0.0373
   79MOL0     H10647   6.485   2.261  10.341 -0.3053 -0.0215 -0.3474
   79MOL0     H10648   6.701   2.264  10.419  1.1338 -0.9148 -0.6271
   79MOL0     H10649   7.033   2.286  10.488 -1.9436  1.1199 -2.0344
   79MOL0     H10650   7.227   2.210  10.600 -0.2426  0.5476  1.1288
   79MOL0     H10651   8.947   3.160  10.288 -3.3136 -0.9005 -1.0350
   79MOL0     H10652   9.115   2.981  10.336  0.5754  1.0989 -0.1352
   79MOL0     H10653   9.375   2.712  10.829 -0.6900 -0.8994  1.3647
   79MOL0     H10654   9.496   2.514  10.838  0.7622 -0.4632 -0.2048
   79MOL0     H10655   9.567   2.308  10.848 -2.0133  0.7244 -1.8732
   79MOL0     H10656   9.616   2.170  10.752  0.6043 -0.7650  2.9981
   79MOL0     H10657   9.709   2.469  10.741  1.1473  0.4960  2.2190
   79MOL0     H10658   9.744   2.360  10.605  0.4802 -2.4276  0.6967
   79MOL0     H10659   9.844   2.209  10.735 -2.6199 -0.6827 -0.5106
   79MOL0     H10660   9.823   2.310  10.887 -1.5692  0.7086 -0.2513
   79MOL0     H10661   9.940   2.497  10.798 -2.5537  0.1167 -1.9950
   79MOL0     H10662   9.983   2.439  10.661  0.4092  1.8660  0.6439
   79MOL0     H10663  10.274   2.257  10.893  0.0860 -0.3879 -0.6953
   79MOL0     H10664   9.337   2.379  10.462 -1.7411  3.2637 -3.2665
   79MOL0     H10665   9.183   2.580  10.460  0.9988 -1.2658 -1.0621
   80MOL0     O10666   5.818   2.966   8.460 -0.5651  0.6130 -1.0708
   80MOL0     C10667   5.890   2.988   8.365  0.7247 -0.3791 -0.5564
   80MOL0     O10668   5.842   3.031   8.242 -0.2301  0.3747 -0.3501
   80MOL0     C10669   5.722   3.094   8.229 -0.4803 -0.8396  0.4049
   80MOL0     C10670   5.662   3.098   8.103 -0.3925  0.3101  0.5075
   80MOL0     C10671   5.538   3.156   8.095 -0.2145 -0.5288  0.3702
   80MOL0     C10672   5.482   3.245   8.192 -0.1164 -1.0516  0.0437
   80MOL0     O10673   5.370   3.325   8.172  0.0231  0.6721  0.0638
   80MOL0     C10674   5.282   3.303   8.056  0.0563 -0.2612 -0.0821
   80MOL0     C10675   5.129   3.349   8.092 -0.8090  0.1522  0.4991
   80MOL0     C10676   5.059   3.262   8.197 -0.0628  0.7951  0.4158
   80MOL0     C10677   5.031   3.123   8.127  0.3165 -0.8778 -0.3704
   80MOL0     C10678   4.914   3.054   8.186  0.6420  0.0274  0.4466
   80MOL0     C10679   4.786   3.105   8.118 -1.0316  0.1277  0.4335
   80MOL0     C10680   4.667   3.030   8.167  0.6351  0.2511 -0.6210
   80MOL0     C10681   4.528   3.081   8.113  0.9775  0.0774 -1.0095
   80MOL0     N10682   4.420   3.054   8.211  0.5969  0.8684 -0.1566
   80MOL0     C10683   4.384   2.934   8.258  0.2901  0.2713  0.6055
   80MOL0     C10684   4.265   2.946   8.317  0.3280 -0.3899 -0.3061
   80MOL0     C10685   4.177   2.838   8.379  0.6259 -0.4154 -0.2359
   80MOL0     C10686   4.151   2.841   8.529 -1.0892 -0.6096 -1.1099
   80MOL0     C10687   4.275   2.837   8.623  0.0518  0.4112  0.2371
   80MOL0     C10688   4.306   2.692   8.664 -0.1086  0.4977  0.0252
   80MOL0     O10689   4.349   2.622   8.545  0.5779  0.2219  0.3229
   80MOL0     C10690   4.406   2.499   8.571 -1.2692 -1.2149 -0.4731
   80MOL0     C10691   4.487   2.449   8.465 -0.4762  0.3779 -0.5695
   80MOL0     C10692   4.554   2.327   8.476 -0.2205  0.5963  0.7035
   80MOL0     C10693   4.618   2.277   8.354  0.7434 -0.2767  0.7930
   80MOL0     C10694   4.549   2.249   8.595 -0.0228 -0.4337 -0.0934
   80MOL0     C10695   4.622   2.125   8.616 -0.2644 -1.0720 -0.9298
   80MOL0     O10696   4.755   2.129   8.606  0.2143 -0.6194 -0.2997
   80MOL0     C10697   4.817   2.008   8.617 -0.0515  0.0683 -0.1026
   80MOL0     C10698   4.810   1.914   8.522  0.0111  0.0591  0.2238
   80MOL0     C10699   4.902   1.808   8.528  0.1155  0.6523  0.3003
   80MOL0     C10700   4.990   1.787   8.637 -0.3010 -0.5793  0.4312
   80MOL0     O10701   5.079   1.687   8.641  0.2258 -0.0678  0.2625
   80MOL0     C10702   5.148   1.663   8.511  0.2269 -0.3747 -0.2661
   80MOL0     C10703   5.300   1.666   8.533  0.8775  0.3948  0.6186
   80MOL0     C10704   5.378   1.622   8.410  0.3931 -0.5688 -1.8193
   80MOL0     C10705   5.534   1.664   8.417 -0.9438 -0.5721  0.2781
   80MOL0     C10706   5.620   1.605   8.301  0.0569 -0.3148 -0.1898
   80MOL0     C10707   5.742   1.701   8.273 -0.1743  0.3589 -0.3373
   80MOL0     C10708   5.821   1.645   8.155 -0.6253  0.0942 -0.0713
   80MOL0     C10709   5.773   1.707   8.018  0.4200  0.1069 -0.1266
   80MOL0    Cl10710   5.759   1.886   8.010 -0.0512  0.1157  0.7113
   80MOL0     C10711   4.980   1.881   8.739  0.1307  0.1741  0.4446
   80MOL0     C10712   4.887   1.985   8.734 -0.1449  0.4020 -0.4375
   80MOL0     O10713   4.560   2.028   8.661 -0.1327  0.0441 -0.1867
   80MOL0     C10714   4.473   2.302   8.697  0.4427 -0.0563 -0.9599
   80MOL0     C10715   4.394   2.417   8.682  0.1587  0.2707 -1.0105
   80MOL0     N10716   4.227   3.077   8.320 -0.5244 -1.1407  0.2014
   80MOL0     N10717   4.315   3.139   8.245 -0.2482  0.1334  0.2465
   80MOL0     C10718   5.554   3.242   8.314  0.5044 -0.7195 -0.1693
   80MOL0     C10719   5.670   3.175   8.334 -0.5062  0.4834 -0.2684
   80MOL0     C10720   6.042   2.966   8.398  0.0584  0.8532  0.0265
   80MOL0     C10721   6.130   3.012   8.303  0.5194 -0.3413 -0.7681
   80MOL0     C10722   6.265   3.006   8.316 -0.0053 -0.0260 -0.2209
   80MOL0     C10723   6.323   2.960   8.435 -0.1021 -0.2018 -0.0622
   80MOL0     O10724   6.451   2.980   8.479  0.2067 -0.3294  0.6677
   80MOL0     C10725   6.543   3.009   8.375 -0.4715 -0.0903 -0.1804
   80MOL0     C10726   6.680   3.046   8.428  0.2559  0.5611 -0.0159
   80MOL0     C10727   6.790   3.045   8.314  0.3791 -0.5263 -0.2822
   80MOL0     C10728   6.924   3.062   8.381  1.5117  0.8527 -0.3570
   80MOL0     C10729   7.030   3.058   8.276  0.2541 -0.0328  0.4018
   80MOL0     C10730   7.119   3.075   8.199 -0.1631 -0.2153 -0.5011
   80MOL0     C10731   6.234   2.916   8.529  0.1858  0.5197 -0.2965
   80MOL0     C10732   6.091   2.913   8.520  1.5333 -0.6533  0.2688
   80MOL0     H10733   5.702   3.050   8.014 -2.1578 -1.2816  0.5062
   80MOL0     H10734   5.478   3.140   8.006 -0.2585 -0.1464  0.3263
   80MOL0     H10735   5.316   3.373   7.979  1.2850  1.1630  1.6503
   80MOL0     H10736   5.264   3.204   8.012 -0.4325 -0.1362 -0.1622
   80MOL0     H10737   5.140   3.448   8.136 -1.0293  0.3202  0.1809
   80MOL0     H10738   5.070   3.353   8.000 -0.0636 -2.1958 -0.1544
   80MOL0     H10739   5.128   3.252   8.280  0.8976  0.8859 -0.3517
   80MOL0     H10740   4.962   3.307   8.223 -1.6814 -0.6991 -2.4882
   80MOL0     H10741   5.020   3.147   8.021  1.3323  2.2956  0.1628
   80MOL0     H10742   5.118   3.058   8.136  0.3526 -0.5551  2.4138
   80MOL0     H10743   4.918   2.945   8.177 -0.0347 -0.1559  1.9857
   80MOL0     H10744   4.919   3.081   8.292  0.1315  1.5918  0.0968
   80MOL0     H10745   4.798   3.211   8.142  2.8701 -0.0806  0.0426
   80MOL0     H10746   4.793   3.098   8.009 -0.2039  0.5048  0.4532
   80MOL0     H10747   4.672   2.926   8.132 -1.0048  0.0964 -0.4876
   80MOL0     H10748   4.679   3.026   8.276  3.2876  1.7751 -0.7779
   80MOL0     H10749   4.517   3.028   8.018 -0.6156  0.3643 -1.0227
   80MOL0     H10750   4.535   3.187   8.086  3.8366  0.1773 -0.2133
   80MOL0     H10751   4.440   2.841   8.250 -2.8731 -1.7112 -0.4605
   80MOL0     H10752   4.077   2.834   8.334  1.8486  1.9912 -3.5894
   80MOL0     H10753   4.226   2.745   8.349  1.1344 -0.1123 -0.3693
   80MOL0     H10754   4.082   2.758   8.549 -1.0856 -0.4872 -0.5847
   80MOL0     H10755   4.102   2.938   8.543  0.5830  0.1252 -0.2240
   80MOL0     H10756   4.264   2.899   8.712  2.0694  0.4622  0.4920
   80MOL0     H10757   4.363   2.879   8.575 -2.1223  2.1467 -2.5422
   80MOL0     H10758   4.219   2.642   8.707 -1.2740  0.9809 -1.6491
   80MOL0     H10759   4.383   2.700   8.741  0.0884  1.8945 -0.2833
   80MOL0     H10760   4.495   2.503   8.371 -0.2101  1.5733  0.1190
   80MOL0     H10761   4.560   2.190   8.322 -1.8835  0.5232  2.9744
   80MOL0     H10762   4.616   2.355   8.277 -0.5470 -2.3569 -1.4104
   80MOL0     H10763   4.722   2.249   8.371  1.3962  2.2723  1.4799
   80MOL0     H10764   4.737   1.934   8.444 -2.7211  0.8938  2.7842
   80MOL0     H10765   4.897   1.732   8.450  0.1112  0.5453  0.4053
   80MOL0     H10766   5.123   1.563   8.474  0.6323 -0.5702 -0.0136
   80MOL0     H10767   5.123   1.743   8.440  2.1395  0.3550 -0.1700
   80MOL0     H10768   5.323   1.772   8.540 -0.1442  0.7912 -1.2166
   80MOL0     H10769   5.331   1.607   8.619  1.8899  0.0147  0.0088
   80MOL0     H10770   5.330   1.674   8.326 -0.4074  0.5042 -0.7258
   80MOL0     H10771   5.380   1.514   8.389  3.6949 -1.0341  0.3271
   80MOL0     H10772   5.540   1.773   8.408 -4.3620 -0.1829  1.3886
   80MOL0     H10773   5.578   1.657   8.517  1.0150  2.6843 -0.1948
   80MOL0     H10774   5.556   1.584   8.215  1.3827 -0.8553 -1.0665
   80MOL0     H10775   5.658   1.509   8.335  0.6850  0.0334  0.1056
   80MOL0     H10776   5.700   1.798   8.244 -0.9947 -0.5998 -2.5221
   80MOL0     H10777   5.814   1.709   8.356  1.2157 -3.9313 -0.8792
   80MOL0     H10778   5.808   1.536   8.157 -0.0527  0.0188 -0.3238
   80MOL0     H10779   5.929   1.664   8.162 -0.8117  1.0298  0.3945
   80MOL0     H10780   5.675   1.664   7.995  1.5923 -2.8683 -0.0037
   80MOL0     H10781   5.839   1.679   7.935 -0.6868  3.7399 -2.4411
   80MOL0     H10782   5.044   1.875   8.827  1.6418  0.8363 -0.5627
   80MOL0     H10783   4.892   2.039   8.828 -2.4633  0.1852 -0.1416
   80MOL0     H10784   4.461   2.253   8.793  5.4415  0.2806  0.0873
   80MOL0     H10785   4.332   2.437   8.769 -1.4757 -3.6444 -1.0398
   80MOL0     H10786   5.513   3.296   8.399  0.0173 -1.5556  0.1358
   80MOL0     H10787   5.720   3.163   8.430  1.0786 -0.6098 -1.1943
   80MOL0     H10788   6.094   3.043   8.205  0.9154  0.7730 -0.5742
   80MOL0     H10789   6.318   3.040   8.228 -0.4688 -0.5807 -0.7244
   80MOL0     H10790   6.549   2.929   8.300 -0.6599  0.9849 -1.3730
   80MOL0     H10791   6.503   3.096   8.322 -2.9174 -1.5281 -0.8707
   80MOL0     H10792   6.706   2.974   8.506 -2.9555 -0.4944  0.2188
   80MOL0     H10793   6.678   3.138   8.488  1.2670  0.7603 -0.2618
   80MOL0     H10794   6.764   3.123   8.242 -0.4394 -0.1174  0.4335
   80MOL0     H10795   6.781   2.944   8.275  0.6939 -0.8563  0.4870
   80MOL0     H10796   6.939   2.978   8.450 -1.6320  0.8891  0.5430
   80MOL0     H10797   6.933   3.160   8.428  1.8663  1.2077 -1.1653
   80MOL0     H10798   7.192   3.111   8.129  0.8764  2.2436  1.7020
   80MOL0     H10799   6.276   2.888   8.625  0.1446 -0.8573 -0.6675
   80MOL0     H10800   6.020   2.884   8.597 -0.8211 -0.4681 -1.6896
   81MOL0     O10801   3.702   7.686   1.710  0.3218  0.1992  0.9161
   81MOL0     C10802   3.800   7.699   1.776  0.1604 -0.0524 -0.1272
   81MOL0     O10803   3.824   7.639   1.900 -0.3657  0.0965  0.3928
   81MOL0     C10804   3.712   7.596   1.972  0.4420 -0.3915  0.2538
   81MOL0     C10805   3.647   7.477   1.950  0.4800  0.6522 -0.6075
   81MOL0     C10806   3.529   7.435   2.017 -0.6200  0.1972  0.1453
   81MOL0     C10807   3.496   7.499   2.134 -0.7594 -0.9839 -0.5258
   81MOL0     O10808   3.401   7.438   2.215 -0.3722  0.1704 -0.3585
   81MOL0     C10809   3.342   7.509   2.327 -0.2030  0.7279 -0.3644
   81MOL0     C10810   3.236   7.422   2.389 -0.1644  0.2950  0.0528
   81MOL0     C10811   3.303   7.292   2.433  1.1887  0.3528 -0.1061
   81MOL0     C10812   3.210   7.206   2.512  0.8148  0.6565  0.3690
   81MOL0     C10813   3.263   7.065   2.546 -0.1747 -0.4775 -0.3264
   81MOL0     C10814   3.392   7.069   2.634 -0.2067 -0.2889 -0.5246
   81MOL0     C10815   3.453   6.929   2.661 -0.0302  0.2053 -0.3508
   81MOL0     C10816   3.604   6.941   2.679  0.1881  0.0006  0.0091
   81MOL0     N10817   3.644   6.993   2.803 -0.1529 -0.2356 -0.5243
   81MOL0     C10818   3.724   6.932   2.889 -0.4449 -0.1579 -0.5842
   81MOL0     C10819   3.738   7.021   2.989 -0.2544  0.0248 -0.6392
   81MOL0     C10820   3.800   7.011   3.129  0.6357  0.3947  0.0155
   81MOL0     C10821   3.675   7.001   3.221  0.8981 -0.5846 -0.1537
   81MOL0     C10822   3.607   7.132   3.258  0.0803 -0.0966  0.0137
   81MOL0     C10823   3.514   7.107   3.372 -0.4025 -0.1948 -0.5995
   81MOL0     O10824   3.449   7.230   3.415  0.4153 -0.0049  0.8216
   81MOL0     C10825   3.320   7.220   3.468  0.5851  0.0520 -0.2629
   81MOL0     C10826   3.268   7.114   3.541  0.8843  0.1760 -0.1782
   81MOL0     C10827   3.144   7.121   3.610  0.4529 -0.6315  0.2757
   81MOL0     C10828   3.100   6.995   3.679 -0.8598  0.0303  0.0485
   81MOL0     C10829   3.061   7.235   3.582  0.1367  1.0170 -0.7621
   81MOL0     C10830   2.914   7.252   3.634 -0.4350  0.2057  0.0978
   81MOL0     O10831   2.860   7.371   3.606  0.6892  0.5183 -0.0542
   81MOL0     C10832   2.741   7.400   3.684  0.1731  0.4517 -0.2688
   81MOL0     C10833   2.615   7.402   3.625  0.1535 -0.1565 -0.3376
   81MOL0     C10834   2.505   7.447   3.695  0.4781  0.1371  0.1343
   81MOL0     C10835   2.507   7.475   3.831  0.3633  0.0410 -0.3148
   81MOL0     O10836   2.389   7.507   3.898 -0.6671  0.9327  0.1438
   81MOL0     C10837   2.386   7.599   4.008  0.0482  0.2381  0.4978
   81MOL0     C10838   2.241   7.585   4.043 -0.1620  0.3814  0.1808
   81MOL0     C10839   2.208   7.683   4.151  0.2178 -0.0903 -0.4420
   81MOL0     C10840   2.164   7.818   4.090  0.2766 -0.0002  0.1565
   81MOL0     C10841   2.144   7.926   4.196 -1.0078  0.7323  0.3303
   81MOL0     C10842   2.061   8.045   4.141  0.0861  1.0738  0.4442
   81MOL0     C10843   2.012   8.116   4.266  0.2717  0.3067 -0.1048
   81MOL0     C10844   1.894   8.204   4.226 -0.7020 -0.4285 -0.2639
   81MOL0    Cl10845   1.951   8.342   4.129  0.1476  0.3149  0.0891
   81MOL0     C10846   2.637   7.471   3.886  0.1915  0.1314  0.0834
   81MOL0     C10847   2.750   7.439   3.817  0.2186 -0.0670 -0.1029
   81MOL0     O10848   2.861   7.157   3.696  0.1867  0.5554 -0.1954
   81MOL0     C10849   3.117   7.347   3.524 -0.1665 -0.0473 -0.0086
   81MOL0     C10850   3.244   7.340   3.469 -0.8246  0.3245  0.7956
   81MOL0     N10851   3.685   7.145   2.942 -0.7628 -0.8013  0.6556
   81MOL0     N10852   3.623   7.120   2.835  0.4284 -1.1835  0.1261
   81MOL0     C10853   3.573   7.609   2.171 -0.2053  0.7100 -0.0236
   81MOL0     C10854   3.679   7.653   2.095  0.1766  0.7123  0.1562
   81MOL0     C10855   3.907   7.783   1.717  0.4663 -0.1332  0.1030
   81MOL0     C10856   3.882   7.876   1.610 -0.6021  0.1142 -0.8535
   81MOL0     C10857   3.985   7.956   1.559 -0.0743 -0.5914  0.2554
   81MOL0     C10858   4.112   7.951   1.615  0.3026  1.1531  0.5354
   81MOL0     O10859   4.211   8.034   1.578 -0.0249 -0.2993  0.1700
   81MOL0     C10860   4.171   8.169   1.547 -0.8192  1.1155  0.4385
   81MOL0     C10861   4.277   8.254   1.479 -0.1960 -0.2647 -0.2092
   81MOL0     C10862   4.404   8.286   1.562 -0.7531 -0.1602  0.3762
   81MOL0     C10863   4.508   8.361   1.472  0.8678  0.7675 -0.2095
   81MOL0     C10864   4.631   8.372   1.542 -0.2728 -0.8650  1.0125
   81MOL0     C10865   4.745   8.369   1.588 -0.0851 -0.3156 -0.4417
   81MOL0     C10866   4.137   7.859   1.724 -0.6635  0.2508 -0.2482
   81MOL0     C10867   4.035   7.782   1.783  0.3539 -0.5119  0.4305
   81MOL0     H10868   3.684   7.398   1.885 -0.5718 -2.4381  2.2797
   81MOL0     H10869   3.475   7.348   1.982  0.7013  0.1402 -1.9412
   81MOL0     H10870   3.423   7.533   2.397 -0.8415 -1.5727  1.2891
   81MOL0     H10871   3.294   7.603   2.297  1.9520  1.5086 -1.5325
   81MOL0     H10872   3.204   7.480   2.476 -1.0901  1.6825 -1.1516
   81MOL0     H10873   3.150   7.411   2.321 -0.6464 -2.2695  0.9934
   81MOL0     H10874   3.318   7.232   2.343 -0.9532  0.6115 -0.6721
   81MOL0     H10875   3.402   7.310   2.477  0.0299  0.2461  2.7666
   81MOL0     H10876   3.183   7.258   2.604 -0.2166  0.0269  0.4314
   81MOL0     H10877   3.119   7.189   2.454  1.6007 -0.2800 -0.6406
   81MOL0     H10878   3.187   7.009   2.600 -0.6927  1.7663  1.4478
   81MOL0     H10879   3.279   7.014   2.450 -1.5564 -0.9244 -0.3383
   81MOL0     H10880   3.471   7.134   2.594  0.5352 -2.9768 -3.7997
   81MOL0     H10881   3.366   7.114   2.731 -0.9248 -0.4680 -0.6272
   81MOL0     H10882   3.417   6.886   2.755  2.8350 -1.3581  0.1507
   81MOL0     H10883   3.426   6.856   2.583  0.4920  0.0583 -0.3938
   81MOL0     H10884   3.637   6.997   2.592 -2.5451 -0.7009 -1.5902
   81MOL0     H10885   3.639   6.839   2.662 -2.9440 -1.3077  0.6149
   81MOL0     H10886   3.759   6.830   2.894 -1.8955 -0.7161 -1.3298
   81MOL0     H10887   3.864   6.922   3.128  1.6087  1.0697 -0.4280
   81MOL0     H10888   3.849   7.107   3.151 -0.9493  1.1872  0.2412
   81MOL0     H10889   3.702   6.953   3.315 -1.5549  0.0533  0.9809
   81MOL0     H10890   3.600   6.935   3.178 -1.0005  0.2372  1.6868
   81MOL0     H10891   3.556   7.179   3.173  0.3780  0.5506  0.1813
   81MOL0     H10892   3.688   7.201   3.284  0.7953 -1.1882  0.7375
   81MOL0     H10893   3.565   7.046   3.447 -0.0593 -1.9031 -2.1383
   81MOL0     H10894   3.439   7.035   3.340  0.0201 -1.3684  0.9772
   81MOL0     H10895   3.337   7.032   3.561 -0.5019 -1.4290 -1.7173
   81MOL0     H10896   3.182   6.925   3.697  1.0437  1.0173 -3.6013
   81MOL0     H10897   3.065   7.016   3.780 -0.6383  0.4589  0.0400
   81MOL0     H10898   3.025   6.948   3.615 -1.3349  2.5785 -1.4014
   81MOL0     H10899   2.612   7.359   3.525  2.6379  0.4234 -0.7310
   81MOL0     H10900   2.410   7.428   3.646 -0.4692  0.1842  1.8842
   81MOL0     H10901   2.454   7.581   4.091 -1.1753  2.4023  2.0650
   81MOL0     H10902   2.413   7.699   3.971  0.6186 -0.3167 -0.6354
   81MOL0     H10903   2.175   7.599   3.957  0.0805 -1.4970 -0.3687
   81MOL0     H10904   2.216   7.487   4.084 -2.7881  0.1174 -1.7838
   81MOL0     H10905   2.278   7.690   4.235 -3.7830  2.4162  3.0634
   81MOL0     H10906   2.119   7.639   4.195  1.2394 -0.8777  0.9127
   81MOL0     H10907   2.247   7.848   4.024 -0.1394 -0.4786 -0.5998
   81MOL0     H10908   2.075   7.789   4.034  1.3085 -1.4886 -0.7693
   81MOL0     H10909   2.245   7.954   4.228 -0.1741  0.7486 -2.0484
   81MOL0     H10910   2.084   7.873   4.270 -1.5003 -2.1442 -1.9601
   81MOL0     H10911   2.113   8.107   4.068  0.4491 -1.6013 -1.7341
   81MOL0     H10912   1.979   8.005   4.081  1.2306 -0.9334  0.1267
   81MOL0     H10913   2.096   8.171   4.309  1.5185 -1.5864 -0.0036
   81MOL0     H10914   1.976   8.046   4.341  1.6469 -2.4271 -1.8350
   81MOL0     H10915   1.858   8.240   4.323 -1.0000 -1.9557  0.2132
   81MOL0     H10916   1.814   8.159   4.167 -2.2436  1.3496  0.3663
   81MOL0     H10917   2.643   7.511   3.987  2.2779  2.5961 -0.9010
   81MOL0     H10918   2.849   7.439   3.862  0.3697 -3.7880 -0.0934
   81MOL0     H10919   3.063   7.435   3.490  1.4049  0.5997 -0.9805
   81MOL0     H10920   3.268   7.430   3.413  0.7990 -1.0919 -0.9412
   81MOL0     H10921   3.564   7.664   2.264  1.7824 -0.9609  1.2603
   81MOL0     H10922   3.733   7.743   2.123 -3.1669  2.2131  2.5488
   81MOL0     H10923   3.785   7.882   1.561  0.6076 -2.9578 -4.0278
   81MOL0     H10924   3.974   8.012   1.466  1.7860 -1.1697 -0.3589
   81MOL0     H10925   4.083   8.181   1.483  0.9933  1.7519 -2.1186
   81MOL0     H10926   4.139   8.216   1.640  0.7149  0.0407  1.5546
   81MOL0     H10927   4.236   8.353   1.458  2.4762  1.1767  0.9441
   81MOL0     H10928   4.300   8.214   1.380 -1.5188  0.0592 -0.6739
   81MOL0     H10929   4.448   8.190   1.587 -1.3397 -0.7321 -0.7046
   81MOL0     H10930   4.387   8.345   1.653 -1.2616 -1.0131  0.8455
   81MOL0     H10931   4.473   8.461   1.444  1.5464  0.4700 -2.3040
   81MOL0     H10932   4.523   8.298   1.384 -2.8924 -2.5656  1.2478
   81MOL0     H10933   4.835   8.349   1.644  0.1426 -3.0853 -1.6319
   81MOL0     H10934   4.235   7.876   1.770 -0.7266  0.4814 -0.1967
   81MOL0     H10935   4.064   7.709   1.858 -0.6804  1.3243  2.7136
   82MOL0     O10936   6.653   1.363   7.296  0.7380  0.2808  0.6865
   82MOL0     C10937   6.649   1.361   7.173 -0.1941 -0.6382  0.3086
   82MOL0     O10938   6.538   1.343   7.093 -0.6840  0.2393  0.1017
   82MOL0     C10939   6.417   1.339   7.149  0.1886 -1.0314  1.2818
   82MOL0     C10940   6.328   1.242   7.099  1.1191 -0.7642  0.0092
   82MOL0     C10941   6.195   1.240   7.154  0.2203 -0.2645  0.0751
   82MOL0     C10942   6.154   1.339   7.247 -0.6272  0.2791  0.6818
   82MOL0     O10943   6.038   1.346   7.320 -0.1197  0.4648  0.4083
   82MOL0     C10944   6.009   1.208   7.365 -0.1183 -0.0803  0.1671
   82MOL0     C10945   5.882   1.225   7.456  0.2836 -0.2297  0.0789
   82MOL0     C10946   5.768   1.323   7.423 -0.0412  0.3872  0.0111
   82MOL0     C10947   5.668   1.265   7.315  0.2886 -0.9675  0.4521
   82MOL0     C10948   5.547   1.355   7.305 -0.1797  0.4142  0.1062
   82MOL0     C10949   5.436   1.303   7.210 -0.0377 -0.1620 -0.1189
   82MOL0     C10950   5.370   1.180   7.259 -0.0269 -0.0986  0.0911
   82MOL0     C10951   5.298   1.177   7.387 -0.0116  0.4887  0.2453
   82MOL0     N10952   5.151   1.213   7.372 -0.3355  0.1937  0.5049
   82MOL0     C10953   5.070   1.143   7.283  0.6120  0.5849  1.2745
   82MOL0     C10954   4.940   1.194   7.286 -0.9107 -0.5572  0.1707
   82MOL0     C10955   4.814   1.144   7.225 -0.0943 -0.2476  0.0152
   82MOL0     C10956   4.724   1.072   7.327 -0.1779 -0.6394  0.2241
   82MOL0     C10957   4.589   1.138   7.346  0.0424 -0.3837  0.2916
   82MOL0     C10958   4.591   1.270   7.425 -0.5930  0.7947  0.0263
   82MOL0     O10959   4.464   1.346   7.413  0.5755 -0.0320  0.2066
   82MOL0     C10960   4.446   1.419   7.300 -0.3717  0.5038 -0.4086
   82MOL0     C10961   4.322   1.428   7.234 -0.0964  1.1325 -0.2142
   82MOL0     C10962   4.302   1.511   7.125  0.9595  0.0625  0.0158
   82MOL0     C10963   4.166   1.500   7.057  1.3093 -0.8216 -1.0421
   82MOL0     C10964   4.403   1.593   7.082  0.1179 -0.1198 -0.2582
   82MOL0     C10965   4.392   1.683   6.968  0.7042  0.6851 -0.1912
   82MOL0     O10966   4.325   1.807   6.986  0.9218 -0.4387 -0.7158
   82MOL0     C10967   4.241   1.857   6.887  0.1455 -1.0264  0.2450
   82MOL0     C10968   4.233   1.995   6.883 -1.1804  0.3470  0.3158
   82MOL0     C10969   4.135   2.055   6.800  0.2892  0.5297  0.4577
   82MOL0     C10970   4.055   1.963   6.725 -0.5571 -0.5526  0.1416
   82MOL0     O10971   3.948   2.022   6.665  0.9143  0.4786  1.3552
   82MOL0     C10972   3.851   1.934   6.601 -0.1926 -1.4461 -0.0184
   82MOL0     C10973   3.745   2.026   6.546 -0.5283  0.6839  0.6428
   82MOL0     C10974   3.652   1.943   6.456 -0.3886 -0.1541 -0.5466
   82MOL0     C10975   3.537   2.039   6.404  1.4935  0.2741  0.2242
   82MOL0     C10976   3.424   1.972   6.336  0.6840  0.2356 -0.4907
   82MOL0     C10977   3.307   2.071   6.311  0.4947  0.2554 -0.0411
   82MOL0     C10978   3.181   1.990   6.255  0.5583 -0.4875  0.2669
   82MOL0     C10979   3.043   2.058   6.238 -0.1696  0.4642  0.6799
   82MOL0    Cl10980   3.027   2.152   6.078  0.6138 -0.0842 -0.2270
   82MOL0     C10981   4.074   1.828   6.719 -0.1774 -0.7236  0.4589
   82MOL0     C10982   4.166   1.777   6.803  0.9916  0.6487 -0.4571
   82MOL0     O10983   4.416   1.626   6.862  0.6111  0.6081  0.0639
   82MOL0     C10984   4.529   1.580   7.148  0.0183  0.0754  1.8122
   82MOL0     C10985   4.557   1.491   7.253  0.1971  0.1679  0.6782
   82MOL0     N10986   4.960   1.309   7.360 -0.6089 -0.1127 -0.2477
   82MOL0     N10987   5.082   1.317   7.409  0.4407 -0.5601  0.5539
   82MOL0     C10988   6.246   1.441   7.286 -0.3836  0.2611 -0.0152
   82MOL0     C10989   6.375   1.433   7.242  0.1945 -0.3786 -0.1135
   82MOL0     C10990   6.775   1.392   7.089  0.9725 -1.0253 -0.6631
   82MOL0     C10991   6.890   1.438   7.150 -0.0896  0.4277 -0.1896
   82MOL0     C10992   7.001   1.471   7.081  0.0567  0.2103 -0.1851
   82MOL0     C10993   7.000   1.475   6.945 -0.3300  0.3058 -0.1139
   82MOL0     O10994   7.112   1.523   6.886 -0.0507  0.2962 -0.0550
   82MOL0     C10995   7.189   1.439   6.801  0.3068 -1.0743  0.3043
   82MOL0     C10996   7.167   1.457   6.650  0.7932 -0.0387 -0.5372
   82MOL0     C10997   7.232   1.576   6.592 -0.1521  0.4696  0.8726
   82MOL0     C10998   7.386   1.588   6.581  0.1432 -0.0891 -0.4869
   82MOL0     C10999   7.426   1.728   6.543  0.4281 -0.4266  0.2808
   82MOL0     C11000   7.461   1.835   6.502  0.6276 -0.9513 -0.1379
   82MOL0     C11001   6.884   1.442   6.876  0.2216 -0.5907  0.7195
   82MOL0     C11002   6.773   1.403   6.948  0.1032 -0.8399  0.7617
   82MOL0     H11003   6.372   1.161   7.042  1.5865 -1.2152  0.9739
   82MOL0     H11004   6.132   1.157   7.123 -1.3057  0.5489  0.8599
   82MOL0     H11005   5.991   1.152   7.272  0.8486  1.5831 -1.0756
   82MOL0     H11006   6.091   1.165   7.423  1.1696 -2.1489 -2.8783
   82MOL0     H11007   5.838   1.126   7.468  1.3477 -1.0636 -2.3008
   82MOL0     H11008   5.933   1.255   7.549 -0.8060 -1.7025  1.1924
   82MOL0     H11009   5.724   1.351   7.519 -0.3145  1.5459 -0.4337
   82MOL0     H11010   5.797   1.418   7.376  0.0021 -0.0987 -0.9713
   82MOL0     H11011   5.723   1.253   7.222 -1.1754  3.3059 -1.1894
   82MOL0     H11012   5.638   1.166   7.352  0.8380 -0.8742  1.1670
   82MOL0     H11013   5.514   1.374   7.407 -1.4487  0.4649 -0.2875
   82MOL0     H11014   5.594   1.448   7.273  0.5958 -0.4560 -1.4109
   82MOL0     H11015   5.367   1.384   7.186  0.3762 -0.1830 -1.4709
   82MOL0     H11016   5.484   1.289   7.112 -0.4283  1.5895 -0.6000
   82MOL0     H11017   5.297   1.163   7.179 -1.3191  2.5387  0.6053
   82MOL0     H11018   5.443   1.099   7.265  0.2650  0.1100 -0.6426
   82MOL0     H11019   5.351   1.242   7.457 -0.5713  1.0244  0.1822
   82MOL0     H11020   5.300   1.078   7.434  1.7670  0.3799  0.0014
   82MOL0     H11021   5.101   1.053   7.230 -1.5318  0.4786  0.0718
   82MOL0     H11022   4.762   1.231   7.183 -0.4625  1.7818  4.1414
   82MOL0     H11023   4.841   1.080   7.141  1.5886  1.1605 -0.5900
   82MOL0     H11024   4.778   1.070   7.422  1.7017 -0.7267 -0.8058
   82MOL0     H11025   4.717   0.967   7.299 -2.2541 -0.0924 -1.5436
   82MOL0     H11026   4.525   1.070   7.403  0.1472  1.7305  3.1255
   82MOL0     H11027   4.548   1.157   7.246 -1.0924 -1.4172  0.5438
   82MOL0     H11028   4.678   1.333   7.403 -0.3363  1.3503  2.3866
   82MOL0     H11029   4.590   1.252   7.533  1.2799  1.6931  0.2298
   82MOL0     H11030   4.253   1.347   7.258 -0.4333  1.6937  0.7726
   82MOL0     H11031   4.164   1.460   6.955  0.5736 -1.3158 -0.8394
   82MOL0     H11032   4.099   1.433   7.110 -0.4798  0.1046 -2.0355
   82MOL0     H11033   4.137   1.605   7.052  2.6600 -0.4776 -2.8810
   82MOL0     H11034   4.298   2.064   6.935 -0.6883  2.4457 -2.8035
   82MOL0     H11035   4.118   2.162   6.806  2.7039  0.9203  1.0381
   82MOL0     H11036   3.906   1.891   6.517  0.5746  1.0193 -0.8778
   82MOL0     H11037   3.802   1.863   6.668 -0.8777 -3.7233 -2.7406
   82MOL0     H11038   3.686   2.067   6.628 -0.6596 -3.8234  3.0844
   82MOL0     H11039   3.799   2.102   6.488 -0.2111  0.1033  0.1552
   82MOL0     H11040   3.604   1.871   6.523  0.5147 -0.5983 -0.3639
   82MOL0     H11041   3.713   1.894   6.380  0.3704  0.0239 -0.0620
   82MOL0     H11042   3.497   2.102   6.484 -0.6717 -0.8296  0.0917
   82MOL0     H11043   3.575   2.112   6.331 -1.6735 -0.8716 -2.8641
   82MOL0     H11044   3.387   1.881   6.384 -0.5772  0.3559 -1.1933
   82MOL0     H11045   3.452   1.942   6.235 -0.3489  0.7253 -0.9381
   82MOL0     H11046   3.280   2.113   6.408  3.1918 -1.0283  1.3524
   82MOL0     H11047   3.337   2.145   6.236  3.0467 -1.1340 -0.4970
   82MOL0     H11048   3.166   1.905   6.322 -1.3337 -0.4120 -0.0250
   82MOL0     H11049   3.211   1.952   6.157 -0.1496 -1.6707  0.4918
   82MOL0     H11050   3.019   2.119   6.325  1.9663  1.5683  0.5703
   82MOL0     H11051   2.973   1.974   6.246  1.6288 -1.0007  2.2254
   82MOL0     H11052   4.023   1.756   6.655 -0.3129  0.8841 -1.3556
   82MOL0     H11053   4.180   1.670   6.807  2.3934  0.5714 -3.7770
   82MOL0     H11054   4.607   1.643   7.106 -0.2615  1.5629  3.4098
   82MOL0     H11055   4.657   1.492   7.295  0.9630 -0.0857 -1.0511
   82MOL0     H11056   6.206   1.515   7.354 -0.9349 -0.6369  0.6641
   82MOL0     H11057   6.449   1.496   7.292 -0.0818 -0.4917  0.4456
   82MOL0     H11058   6.903   1.428   7.258  2.5972 -2.7170 -0.6354
   82MOL0     H11059   7.086   1.502   7.141 -0.5478  4.1856 -1.0991
   82MOL0     H11060   7.292   1.461   6.831  0.2611 -0.2910 -0.0947
   82MOL0     H11061   7.178   1.335   6.831  0.0487 -1.4555 -1.0717
   82MOL0     H11062   7.059   1.453   6.628  0.7573  0.2488 -0.4053
   82MOL0     H11063   7.202   1.364   6.604 -1.3701 -0.0430 -2.3652
   82MOL0     H11064   7.184   1.665   6.634 -1.6934 -0.0091  0.1941
   82MOL0     H11065   7.187   1.576   6.492  3.9636 -0.5174 -1.2042
   82MOL0     H11066   7.410   1.513   6.505 -0.5141 -2.4181  1.4396
   82MOL0     H11067   7.431   1.553   6.674  1.5830  0.0615 -1.1027
   82MOL0     H11068   7.507   1.929   6.478 -0.1237 -0.4042  0.5464
   82MOL0     H11069   6.884   1.471   6.771 -0.3956 -2.1885  0.2561
   82MOL0     H11070   6.681   1.374   6.898 -0.3327  0.2410  0.9106
   83MOL0     O11071  10.797   2.680  10.601  0.1192  0.5299 -1.0488
   83MOL0     C11072  10.765   2.713  10.484 -0.0316 -0.3577 -0.3491
   83MOL0     O11073  10.846   2.693  10.376 -0.1494  0.6484  0.4358
   83MOL0     C11074  10.946   2.599  10.401  0.6423 -0.1720  0.5825
   83MOL0     C11075  10.912   2.460  10.410  0.1692 -0.9007 -0.2847
   83MOL0     C11076  11.020   2.367  10.419 -0.0398  0.4691  0.1291
   83MOL0     C11077  11.150   2.409  10.428  0.7569 -0.5013 -0.1723
   83MOL0     O11078  11.242   2.310  10.432  0.1626 -0.4638  0.1565
   83MOL0     C11079  11.353   2.312  10.338 -1.4164 -0.0053 -0.3084
   83MOL0     C11080  11.317   2.294  10.191  0.5113  0.5703 -0.0377
   83MOL0     C11081  11.246   2.168  10.152  1.3100  0.3178  0.5063
   83MOL0     C11082  11.309   2.033  10.192  0.1003  0.1278  0.2725
   83MOL0     C11083  11.259   1.920  10.103  0.0205  0.9404  0.6983
   83MOL0     C11084  11.319   1.778  10.142  0.5332 -0.4272  0.0960
   83MOL0     C11085  11.314   1.680  10.026  0.8804  0.5187 -0.6002
   83MOL0     C11086  11.372   1.550  10.055  0.2755  0.1945 -1.1416
   83MOL0     N11087  11.431   1.485   9.936 -0.4265 -0.1513 -0.2308
   83MOL0     C11088  11.358   1.459   9.825 -0.9110 -1.0854 -0.5111
   83MOL0     C11089  11.448   1.439   9.725 -0.1227  0.1513 -0.1449
   83MOL0     C11090  11.419   1.385   9.585  0.1672  0.2905  0.1657
   83MOL0     C11091  11.268   1.352   9.555  0.1387 -0.0973 -0.2762
   83MOL0     C11092  11.254   1.306   9.412  0.4611  0.4330 -0.0521
   83MOL0     C11093  11.109   1.309   9.371 -0.5898  0.1276  0.5891
   83MOL0     O11094  11.025   1.218   9.432 -0.4909 -0.4186 -0.4922
   83MOL0     C11095  10.902   1.257   9.448  0.5513 -0.1105 -0.8140
   83MOL0     C11096  10.830   1.326   9.354 -0.3313 -0.0427 -0.5032
   83MOL0     C11097  10.703   1.377   9.371 -0.4665  0.6779  0.6566
   83MOL0     C11098  10.645   1.447   9.246  0.1119  0.7686  0.1584
   83MOL0     C11099  10.627   1.351   9.491 -0.1399 -0.0885  0.0147
   83MOL0     C11100  10.493   1.404   9.511 -0.6384 -0.8285  1.1314
   83MOL0     O11101  10.416   1.348   9.609 -0.0232 -0.2934  0.0281
   83MOL0     C11102  10.293   1.391   9.612 -0.2976 -0.0172  0.0839
   83MOL0     C11103  10.241   1.418   9.735  0.8730 -0.5778 -1.1215
   83MOL0     C11104  10.103   1.454   9.746 -0.1579  0.3687  0.0966
   83MOL0     C11105  10.027   1.465   9.633 -0.0551  0.2102  0.4442
   83MOL0     O11106   9.895   1.494   9.622  0.0964  0.6033 -0.1621
   83MOL0     C11107   9.805   1.500   9.734 -0.1128  1.0204  0.1626
   83MOL0     C11108   9.667   1.506   9.667  0.3409 -0.5809  0.2767
   83MOL0     C11109   9.560   1.502   9.783 -0.3256 -0.0429  0.6016
   83MOL0     C11110   9.425   1.535   9.728 -0.3314  0.3084 -0.0376
   83MOL0     C11111   9.332   1.529   9.833  0.9518  0.2415 -0.0533
   83MOL0     C11112   9.188   1.549   9.778  0.9906 -0.6195  0.6200
   83MOL0     C11113   9.099   1.544   9.898 -0.1499 -0.6657 -0.1449
   83MOL0     C11114   8.956   1.532   9.867 -0.5112  0.1630 -0.3502
   83MOL0    Cl11115   8.857   1.531  10.015  0.4868  0.5295 -0.3720
   83MOL0     C11116  10.087   1.439   9.507  0.1209 -0.4001 -0.1129
   83MOL0     C11117  10.217   1.395   9.495  0.3884  0.6352  0.0654
   83MOL0     O11118  10.473   1.518   9.459 -0.6807  0.9250 -0.2673
   83MOL0     C11119  10.691   1.269   9.586  0.0145  1.4489 -0.0737
   83MOL0     C11120  10.829   1.216   9.557  0.1849 -0.0186 -0.2147
   83MOL0     N11121  11.573   1.455   9.781 -0.0267 -0.9155  0.0546
   83MOL0     N11122  11.559   1.486   9.901  0.0630 -0.0116 -0.4437
   83MOL0     C11123  11.182   2.541  10.414 -0.5724  0.1737 -1.0196
   83MOL0     C11124  11.084   2.638  10.397 -0.1477 -0.5716 -0.0283
   83MOL0     C11125  10.640   2.798  10.470  0.8099  0.6487  0.0671
   83MOL0     C11126  10.580   2.859  10.580 -0.7800 -1.0331  0.5341
   83MOL0     C11127  10.453   2.917  10.555 -0.1103  0.2102 -0.0970
   83MOL0     C11128  10.391   2.917  10.429 -0.1949 -0.2009  0.7299
   83MOL0     O11129  10.275   2.984  10.419 -0.1261 -0.0997 -0.0333
   83MOL0     C11130  10.171   2.894  10.372  0.1363 -0.3083  0.4059
   83MOL0     C11131  10.077   2.982  10.296 -0.4572  0.2909  0.3986
   83MOL0     C11132  10.138   3.033  10.168  0.8699 -0.3779 -0.3912
   83MOL0     C11133  10.034   3.044  10.049 -0.5068  0.3212 -0.1699
   83MOL0     C11134   9.981   2.919  10.002  0.6116 -0.0210 -0.6023
   83MOL0     C11135   9.939   2.818   9.947  0.3651 -0.9091  0.4819
   83MOL0     C11136  10.465   2.871  10.316 -0.0791  0.1549  0.5579
   83MOL0     C11137  10.590   2.806  10.339  1.4029  0.6972 -0.3821
   83MOL0     H11138  10.810   2.422  10.407 -1.3654  2.6385  1.7161
   83MOL0     H11139  11.001   2.261  10.426  0.9725  0.3051  0.5375
   83MOL0     H11140  11.400   2.405  10.370 -2.0536 -0.5722  2.5433
   83MOL0     H11141  11.422   2.230  10.359 -1.3724  0.1847  0.3056
   83MOL0     H11142  11.265   2.381  10.148  0.5819  0.9784  0.6972
   83MOL0     H11143  11.407   2.285  10.130  0.1782 -4.3557 -0.2451
   83MOL0     H11144  11.141   2.173  10.180 -0.1703 -2.3633 -3.6344
   83MOL0     H11145  11.238   2.175  10.043 -0.8572  1.0937  0.6669
   83MOL0     H11146  11.418   2.035  10.185 -0.0204  0.8848 -3.9272
   83MOL0     H11147  11.273   2.012  10.294 -0.7487  1.2433  0.2244
   83MOL0     H11148  11.152   1.907  10.123 -0.2477 -1.1819 -1.6086
   83MOL0     H11149  11.272   1.936   9.996 -1.9173  0.9426  0.4396
   83MOL0     H11150  11.425   1.794  10.167 -0.0651  3.4648  0.6535
   83MOL0     H11151  11.271   1.744  10.235  1.0498 -2.6490 -0.3767
   83MOL0     H11152  11.212   1.655   9.994  0.8231  0.0040 -0.0311
   83MOL0     H11153  11.372   1.717   9.941 -0.7425  1.3458 -1.4085
   83MOL0     H11154  11.307   1.480  10.107 -2.5756  0.0315 -4.5575
   83MOL0     H11155  11.457   1.563  10.123 -0.8211 -0.7934  0.4892
   83MOL0     H11156  11.251   1.442   9.834 -0.9848  0.1846  1.7944
   83MOL0     H11157  11.461   1.447   9.505 -2.1577  1.9696  0.1335
   83MOL0     H11158  11.469   1.289   9.571 -0.6078 -0.5718  2.6905
   83MOL0     H11159  11.227   1.453   9.569  2.3584  1.6199 -4.4263
   83MOL0     H11160  11.243   1.278   9.632 -1.6917  0.0452 -0.6819
   83MOL0     H11161  11.300   1.208   9.395  3.9664  1.9082  0.1781
   83MOL0     H11162  11.310   1.379   9.353  1.5266 -1.0585 -0.9506
   83MOL0     H11163  11.098   1.277   9.267 -0.7999  3.0663 -0.3987
   83MOL0     H11164  11.071   1.411   9.379  0.0955  0.6858 -2.1698
   83MOL0     H11165  10.875   1.347   9.258 -0.3877  2.6000 -0.0220
   83MOL0     H11166  10.670   1.553   9.258  2.3986  0.2507  0.4185
   83MOL0     H11167  10.691   1.406   9.155 -0.7959 -1.3424  0.6039
   83MOL0     H11168  10.539   1.420   9.241  0.3932 -0.1488 -1.8949
   83MOL0     H11169  10.299   1.412   9.826  0.3048 -1.1851 -0.7852
   83MOL0     H11170  10.055   1.471   9.842  1.3649  1.1884  0.7468
   83MOL0     H11171   9.815   1.406   9.790  4.6690  0.4403 -1.1756
   83MOL0     H11172   9.839   1.581   9.799  1.0974  0.1529  0.6621
   83MOL0     H11173   9.659   1.601   9.613 -2.9690 -0.0827  1.4355
   83MOL0     H11174   9.666   1.426   9.593  1.8036 -0.2102 -0.1809
   83MOL0     H11175   9.586   1.570   9.865 -2.9999  2.3827 -0.4037
   83MOL0     H11176   9.552   1.401   9.826 -2.1456  0.6610  2.0345
   83MOL0     H11177   9.422   1.632   9.678  0.0451  0.3707  0.0559
   83MOL0     H11178   9.401   1.460   9.652  2.1543 -0.6107 -0.0109
   83MOL0     H11179   9.350   1.614   9.900  4.2719 -0.5338  0.2262
   83MOL0     H11180   9.332   1.431   9.882  1.9622 -0.3959 -1.2908
   83MOL0     H11181   9.183   1.644   9.724 -1.5851  1.0235  3.4540
   83MOL0     H11182   9.149   1.473   9.710 -0.2779  0.0622  0.5574
   83MOL0     H11183   9.123   1.634   9.955 -0.1953  1.4145 -3.1464
   83MOL0     H11184   9.131   1.454   9.950  0.7008 -0.1747  0.1934
   83MOL0     H11185   8.956   1.438   9.811  1.5696  0.4117 -0.8324
   83MOL0     H11186   8.920   1.612   9.802 -4.2003  0.4454  1.7580
   83MOL0     H11187  10.012   1.444   9.429 -1.3644 -0.3309  1.2727
   83MOL0     H11188  10.270   1.367   9.404  2.6353 -3.2247  2.2623
   83MOL0     H11189  10.631   1.227   9.666  0.3501 -0.8424 -0.9459
   83MOL0     H11190  10.870   1.131   9.611  0.7188 -0.1493 -0.8164
   83MOL0     H11191  11.282   2.583  10.417 -0.4166 -0.2780  0.8827
   83MOL0     H11192  11.105   2.743  10.379  0.8464 -0.4987  1.3730
   83MOL0     H11193  10.636   2.873  10.672  1.2095  1.2476 -0.8923
   83MOL0     H11194  10.393   2.953  10.638 -1.2841 -1.4361 -0.1777
   83MOL0     H11195  10.205   2.814  10.305 -0.1834  0.5361 -0.7968
   83MOL0     H11196  10.116   2.847  10.455  0.8846 -0.6136  0.7372
   83MOL0     H11197  10.034   3.056  10.364  1.9526  1.3198  0.8861
   83MOL0     H11198   9.991   2.924  10.261 -0.7225  2.8886 -3.8531
   83MOL0     H11199  10.213   2.959  10.136 -0.0250 -1.1991 -0.6296
   83MOL0     H11200  10.192   3.128  10.176  0.8341 -0.2829 -1.2760
   83MOL0     H11201  10.088   3.087   9.964  1.9150 -3.7436 -0.9426
   83MOL0     H11202   9.955   3.113  10.080  1.3642  1.0453  3.7288
   83MOL0     H11203   9.909   2.727   9.900  1.9240 -1.6628  0.8789
   83MOL0     H11204  10.426   2.874  10.215  1.1315  1.1267  0.0924
   83MOL0     H11205  10.626   2.749  10.254  0.3629 -0.5224 -0.0274
   84MOL0     O11206   1.732   2.587  11.311  0.9449  0.2130 -0.0797
   84MOL0     C11207   1.781   2.495  11.242 -0.6194 -0.1408  0.0694
   84MOL0     O11208   1.708   2.395  11.187 -0.1855  0.8761  0.0263
   84MOL0     C11209   1.577   2.384  11.230 -0.0658 -0.4717  0.6552
   84MOL0     C11210   1.479   2.489  11.219  0.3260  0.4452 -0.9902
   84MOL0     C11211   1.346   2.475  11.259  0.0542 -0.4485 -0.1277
   84MOL0     C11212   1.304   2.351  11.306  0.2978 -0.5359  0.2483
   84MOL0     O11213   1.176   2.332  11.347  0.0819 -0.2139 -0.5543
   84MOL0     C11214   1.083   2.427  11.292 -0.3467 -0.7182  0.2251
   84MOL0     C11215   0.947   2.367  11.299 -0.0210  0.0184 -0.2336
   84MOL0     C11216   0.943   2.224  11.234  0.2109  0.3682 -0.6895
   84MOL0     C11217   0.797   2.194  11.195 -0.1884 -0.6447  0.7883
   84MOL0     C11218   0.795   2.080  11.104  1.0028 -0.1040 -0.1685
   84MOL0     C11219   0.663   2.064  11.036  0.9180 -0.6844 -0.1541
   84MOL0     C11220   0.657   1.958  10.925  0.4478  0.4633  0.5265
   84MOL0     C11221   0.641   1.815  10.968  0.5826 -0.5163  0.0131
   84MOL0     N11222   0.517   1.796  11.049 -0.1942 -0.1278  0.8145
   84MOL0     C11223   0.406   1.734  10.992  0.3794  0.1343  0.2835
   84MOL0     C11224   0.308   1.732  11.086  0.6551  0.5553  0.4656
   84MOL0     C11225   0.166   1.700  11.048 -0.3399  0.2149 -0.4737
   84MOL0     C11226   0.077   1.742  11.163 -0.9828  0.0467  0.8858
   84MOL0     C11227  -0.068   1.707  11.126  0.2340  0.0732  0.7795
   84MOL0     C11228  -0.119   1.793  11.009 -0.5680 -0.1216  0.4765
   84MOL0     O11229  -0.245   1.747  10.985  0.3062  0.0406  0.3078
   84MOL0     C11230  -0.314   1.792  10.873  0.7565  0.2731 -0.1924
   84MOL0     C11231  -0.269   1.896  10.791 -0.1108  0.1320  0.8579
   84MOL0     C11232  -0.328   1.934  10.676 -0.8682 -0.3086 -0.0350
   84MOL0     C11233  -0.269   2.055  10.600  0.7887  0.3078  0.0776
   84MOL0     C11234  -0.442   1.865  10.636  0.3014  0.0080 -0.2582
   84MOL0     C11235  -0.533   1.922  10.530  0.3686 -0.4977  0.7568
   84MOL0     O11236  -0.526   2.048  10.497  0.5581 -0.5768 -0.2980
   84MOL0     C11237  -0.600   2.082  10.393  0.5294  0.1090  0.2333
   84MOL0     C11238  -0.543   2.107  10.272 -1.6947  0.5448  0.5316
   84MOL0     C11239  -0.610   2.153  10.152 -0.2055 -0.5414 -0.4181
   84MOL0     C11240  -0.744   2.186  10.166  0.4986  0.3023 -0.8657
   84MOL0     O11241  -0.830   2.241  10.082 -1.1215 -0.2160  0.6077
   84MOL0     C11242  -0.936   2.161  10.026  0.0814  0.2983  0.6199
   84MOL0     C11243  -0.897   2.035   9.949  0.9645 -0.4037  0.2402
   84MOL0     C11244  -0.816   2.083   9.828  0.8931 -0.2010 -0.1855
   84MOL0     C11245  -0.785   1.967   9.739 -0.1172  0.7449  0.1799
   84MOL0     C11246  -0.727   2.007   9.606 -0.1894 -0.2533 -0.4083
   84MOL0     C11247  -0.703   1.882   9.522  0.2844  0.7128  0.4451
   84MOL0     C11248  -0.552   1.834   9.540  0.0051 -0.2286  0.1407
   84MOL0     C11249  -0.544   1.713   9.442 -1.1301  0.2743 -0.3622
   84MOL0    Cl11250  -0.377   1.636   9.439  0.3489  0.0460  0.0751
   84MOL0     C11251  -0.809   2.166  10.291 -0.5929 -0.2433  0.7084
   84MOL0     C11252  -0.731   2.117  10.404  1.1252  0.5719 -0.2314
   84MOL0     O11253  -0.613   1.842  10.483 -0.3047  0.1055  0.7057
   84MOL0     C11254  -0.478   1.743  10.709  0.3237  0.2067 -0.0365
   84MOL0     C11255  -0.419   1.710  10.827 -0.1163  0.2407  1.0732
   84MOL0     N11256   0.368   1.772  11.208 -0.0246  0.5597 -0.0198
   84MOL0     N11257   0.492   1.803  11.187  0.6203 -0.0841  0.1032
   84MOL0     C11258   1.391   2.241  11.296  1.2027  0.3952 -0.8542
   84MOL0     C11259   1.523   2.260  11.267 -0.5664 -0.2207 -0.2302
   84MOL0     C11260   1.934   2.490  11.222  0.3589 -0.0333  0.2645
   84MOL0     C11261   1.992   2.375  11.168  0.2883 -0.8705  0.3165
   84MOL0     C11262   2.119   2.370  11.111  0.8906 -0.7104 -0.0066
   84MOL0     C11263   2.209   2.476  11.127  0.1783 -0.4694 -0.1460
   84MOL0     O11264   2.345   2.465  11.108 -0.3945 -0.3522 -0.9330
   84MOL0     C11265   2.425   2.588  11.087  0.5921  0.1980  0.5342
   84MOL0     C11266   2.570   2.545  11.076 -0.1335  0.5184 -0.4946
   84MOL0     C11267   2.654   2.669  11.052 -0.2671 -0.1980  0.6016
   84MOL0     C11268   2.801   2.640  11.101  0.2123 -0.3503 -0.0802
   84MOL0     C11269   2.879   2.745  11.054 -0.3617 -0.5872  0.2755
   84MOL0     C11270   2.964   2.822  11.021 -0.4417  0.3548  0.1302
   84MOL0     C11271   2.153   2.592  11.187  0.9708  0.0205  0.3573
   84MOL0     C11272   2.016   2.610  11.229  1.0490  0.1238  1.0140
   84MOL0     H11273   1.496   2.588  11.177 -1.8527  1.2755 -0.0727
   84MOL0     H11274   1.301   2.574  11.262 -0.5721 -0.7459  0.7673
   84MOL0     H11275   1.071   2.523  11.343 -2.7904 -1.9842  2.3097
   84MOL0     H11276   1.116   2.440  11.189  3.0395 -1.4083  1.0921
   84MOL0     H11277   0.920   2.368  11.405  1.3156 -1.8564  0.1734
   84MOL0     H11278   0.883   2.435  11.242 -1.0437  1.7502  2.7631
   84MOL0     H11279   1.014   2.232  11.151  1.5023 -0.3983  0.2903
   84MOL0     H11280   0.994   2.158  11.305 -0.9991  0.4857  0.3162
   84MOL0     H11281   0.732   2.190  11.283  1.8914 -0.2592  2.4207
   84MOL0     H11282   0.756   2.278  11.139  2.8369  0.5419  0.1642
   84MOL0     H11283   0.874   2.088  11.029  1.5111 -2.7866 -0.0209
   84MOL0     H11284   0.822   1.987  11.155  0.6414 -0.7662 -1.1571
   84MOL0     H11285   0.584   2.034  11.106 -0.1306 -0.4219 -1.1976
   84MOL0     H11286   0.626   2.157  10.992  0.1179 -1.6781 -1.6936
   84MOL0     H11287   0.570   1.977  10.861  0.6732  0.4785  0.2246
   84MOL0     H11288   0.748   1.959  10.865  1.7313 -2.1737  2.1934
   84MOL0     H11289   0.729   1.780  11.023  0.7195 -1.3170 -0.6926
   84MOL0     H11290   0.633   1.763  10.872 -1.1148  4.2811 -2.7979
   84MOL0     H11291   0.397   1.705  10.887  3.4320 -0.2978  0.0380
   84MOL0     H11292   0.136   1.752  10.957  0.1989  1.6030  0.1090
   84MOL0     H11293   0.150   1.592  11.038 -0.3396  0.0461  1.0470
   84MOL0     H11294   0.091   1.845  11.197 -1.7053 -0.1537  1.8051
   84MOL0     H11295   0.105   1.689  11.254  2.7142  0.7602  0.3600
   84MOL0     H11296  -0.143   1.713  11.205 -1.5433 -1.5325 -0.6730
   84MOL0     H11297  -0.070   1.602  11.097  1.3585  0.4049 -0.6028
   84MOL0     H11298  -0.063   1.781  10.916  2.2175 -0.0353  2.0277
   84MOL0     H11299  -0.116   1.898  11.039 -1.7144  0.1595 -0.3359
   84MOL0     H11300  -0.179   1.947  10.822 -0.4084  1.6582 -0.5900
   84MOL0     H11301  -0.321   2.150  10.612 -1.8874 -0.8843 -1.1947
   84MOL0     H11302  -0.170   2.072  10.643 -0.1066  1.7215  1.7286
   84MOL0     H11303  -0.248   2.029  10.496  1.5376 -2.4786  0.8345
   84MOL0     H11304  -0.440   2.075  10.265 -2.7656 -3.2915  0.2414
   84MOL0     H11305  -0.559   2.173  10.058  2.5894 -1.0198  0.9180
   84MOL0     H11306  -1.003   2.130  10.106  0.9816 -0.9046  0.9375
   84MOL0     H11307  -1.000   2.226   9.967 -2.6057  2.3166  5.1672
   84MOL0     H11308  -0.844   1.971  10.020 -1.3243 -0.1797  2.2940
   84MOL0     H11309  -0.988   1.980   9.925 -0.2867  0.7251  2.0986
   84MOL0     H11310  -0.731   2.145   9.857  1.3097  0.1266 -1.9612
   84MOL0     H11311  -0.875   2.154   9.769  0.3861  2.3704  3.1566
   84MOL0     H11312  -0.713   1.906   9.795 -0.3862  0.9032  0.7042
   84MOL0     H11313  -0.876   1.911   9.720 -0.4336  0.7688  1.5064
   84MOL0     H11314  -0.631   2.056   9.622 -1.0338  0.3474  4.5231
   84MOL0     H11315  -0.799   2.072   9.554  0.6922  0.1336 -1.1625
   84MOL0     H11316  -0.774   1.802   9.543  1.8138 -0.9346 -0.3566
   84MOL0     H11317  -0.717   1.911   9.417  0.6320  1.4500  0.5932
   84MOL0     H11318  -0.530   1.804   9.643 -1.7348 -0.9682  0.3454
   84MOL0     H11319  -0.470   1.899   9.511  1.4404 -1.8420  0.4099
   84MOL0     H11320  -0.571   1.734   9.338 -2.0836 -2.6169 -0.7859
   84MOL0     H11321  -0.610   1.630   9.468 -0.8719 -0.0207 -0.6467
   84MOL0     H11322  -0.913   2.194  10.303 -0.5270  0.2662  0.1474
   84MOL0     H11323  -0.765   2.100  10.506  1.9086  3.8450  0.6578
   84MOL0     H11324  -0.569   1.695  10.672  0.3591  2.1965 -3.0804
   84MOL0     H11325  -0.455   1.631  10.892 -0.4999 -0.0367  0.5311
   84MOL0     H11326   1.356   2.146  11.333  1.5038  1.6526  3.0773
   84MOL0     H11327   1.589   2.174  11.262 -2.4732 -1.8200  0.9400
   84MOL0     H11328   1.932   2.285  11.158  0.9390 -1.6267  2.6331
   84MOL0     H11329   2.137   2.276  11.061 -1.4463 -0.0578 -2.2891
   84MOL0     H11330   2.390   2.633  10.993  0.5936  0.1187  0.4949
   84MOL0     H11331   2.420   2.669  11.160  0.9082  1.7562 -1.1097
   84MOL0     H11332   2.581   2.460  11.007 -1.5786 -0.9548  0.9806
   84MOL0     H11333   2.596   2.498  11.172  3.6379 -1.3062 -2.2081
   84MOL0     H11334   2.618   2.755  11.108  0.5466 -1.0238  2.4704
   84MOL0     H11335   2.660   2.698  10.947  1.5692 -1.0662  0.4170
   84MOL0     H11336   2.844   2.546  11.067  0.8927 -0.0626 -0.0282
   84MOL0     H11337   2.805   2.629  11.210 -0.5957 -0.3442 -0.0385
   84MOL0     H11338   3.044   2.880  10.980  0.3380  0.3175  1.5572
   84MOL0     H11339   2.223   2.674  11.197 -0.1788  0.9448  1.0588
   84MOL0     H11340   1.986   2.714  11.242 -3.5773 -0.9636  0.7164
   85MOL0     O11341   1.489   4.158   0.291 -0.5241 -0.7279 -0.1495
   85MOL0     C11342   1.452   4.082   0.376 -0.7271 -0.4988  0.1123
   85MOL0     O11343   1.532   4.008   0.459 -0.0856 -0.3728  0.1859
   85MOL0     C11344   1.667   4.007   0.419  0.2487 -0.2854  0.5928
   85MOL0     C11345   1.721   3.901   0.341 -0.6426 -0.9226  0.6017
   85MOL0     C11346   1.857   3.903   0.312  0.2127  0.1473 -0.0011
   85MOL0     C11347   1.941   4.015   0.345 -0.2020 -0.8821  0.3609
   85MOL0     O11348   2.081   4.021   0.340  0.6989 -0.4534  0.6705
   85MOL0     C11349   2.148   3.906   0.281  0.6834 -0.5671 -0.7057
   85MOL0     C11350   2.300   3.919   0.299  0.1715 -0.1760  0.3839
   85MOL0     C11351   2.371   4.011   0.207  0.5184 -1.4641 -0.2866
   85MOL0     C11352   2.528   3.994   0.198 -0.0681 -0.5055  0.1304
   85MOL0     C11353   2.564   4.084   0.075 -0.4651 -0.2842 -0.3992
   85MOL0     C11354   2.709   4.061   0.021  0.6974 -0.3257 -0.3203
   85MOL0     C11355   2.820   4.091   0.118  0.4312 -0.2003 -0.1332
   85MOL0     C11356   2.851   4.239   0.147 -0.6922 -0.2269 -0.6983
   85MOL0     N11357   2.755   4.298   0.236 -0.0486  0.6166  0.6385
   85MOL0     C11358   2.719   4.262   0.368  0.1361  0.4294  0.1059
   85MOL0     C11359   2.617   4.348   0.404 -0.0494 -0.2058  0.4885
   85MOL0     C11360   2.544   4.360   0.532  0.4237 -0.2015 -0.4502
   85MOL0     C11361   2.399   4.313   0.522  0.2939  0.7818  0.3437
   85MOL0     C11362   2.332   4.334   0.656  0.3162 -0.5733 -0.5040
   85MOL0     C11363   2.196   4.258   0.654 -0.1335 -0.3410 -1.2400
   85MOL0     O11364   2.139   4.283   0.778 -0.6570  0.0701 -0.6664
   85MOL0     C11365   2.018   4.230   0.805  0.2787 -0.7528  0.7525
   85MOL0     C11366   1.939   4.291   0.900 -0.3019  0.2643 -0.2975
   85MOL0     C11367   1.815   4.240   0.939 -0.7873 -1.3557  0.5703
   85MOL0     C11368   1.737   4.318   1.056 -0.6669  0.3478  0.0556
   85MOL0     C11369   1.768   4.122   0.877 -0.4166  0.5660 -0.2447
   85MOL0     C11370   1.635   4.057   0.907 -0.3201 -0.0957  0.0091
   85MOL0     O11371   1.616   3.930   0.844 -0.0611  0.1001 -0.0216
   85MOL0     C11372   1.487   3.878   0.858 -0.1538 -0.1553 -0.5662
   85MOL0     C11373   1.380   3.955   0.814  0.4863 -0.7435  0.4210
   85MOL0     C11374   1.243   3.915   0.817  0.1816  0.2290 -0.3484
   85MOL0     C11375   1.220   3.794   0.882 -0.1501  0.3987  0.4114
   85MOL0     O11376   1.083   3.759   0.910 -1.1803  0.2583  0.2963
   85MOL0     C11377   1.017   3.711   0.791 -0.4568 -0.1555 -0.4589
   85MOL0     C11378   0.865   3.678   0.817 -0.0455  0.1663  0.5185
   85MOL0     C11379   0.810   3.639   0.685 -0.3502 -0.5339  0.0750
   85MOL0     C11380   0.664   3.592   0.708 -0.0783 -0.0853 -0.4726
   85MOL0     C11381   0.596   3.585   0.574 -0.9388 -0.1043  0.0840
   85MOL0     C11382   0.445   3.560   0.576  0.5706  0.0618 -0.5929
   85MOL0     C11383   0.412   3.423   0.650 -0.3064 -0.0381  1.1635
   85MOL0     C11384   0.268   3.378   0.611 -0.6643 -0.5091 -1.2728
   85MOL0    Cl11385   0.255   3.342   0.432 -0.4071 -0.0444  0.0841
   85MOL0     C11386   1.322   3.721   0.943 -0.0246 -0.3261 -0.0100
   85MOL0     C11387   1.455   3.761   0.929 -1.1346  0.6619 -0.5716
   85MOL0     O11388   1.561   4.105   1.003  0.0912 -0.0550  0.0096
   85MOL0     C11389   1.851   4.053   0.787 -0.6794 -0.3706  0.8643
   85MOL0     C11390   1.976   4.110   0.755 -0.2018  0.4870  0.6377
   85MOL0     N11391   2.594   4.430   0.296 -0.8108 -0.0695  0.2429
   85MOL0     N11392   2.679   4.408   0.201  0.5942  0.3489 -0.3291
   85MOL0     C11393   1.882   4.129   0.403 -0.0658 -0.4956 -1.0042
   85MOL0     C11394   1.744   4.124   0.446  0.2532  0.4628  0.6828
   85MOL0     C11395   1.304   4.058   0.384 -0.1144 -0.4921 -0.2754
   85MOL0     C11396   1.204   4.146   0.336  1.1787 -0.4287 -0.0006
   85MOL0     C11397   1.072   4.102   0.327  0.1469 -0.6823  0.2587
   85MOL0     C11398   1.025   3.978   0.377 -0.1137 -0.9755 -0.7542
   85MOL0     O11399   0.896   3.935   0.381 -0.0314  0.1571  0.7345
   85MOL0     C11400   0.790   4.032   0.384 -0.3401  0.3840  0.2014
   85MOL0     C11401   0.813   4.125   0.512  1.0539  0.6143  0.7404
   85MOL0     C11402   0.826   4.047   0.640  0.3290 -0.2174 -0.8060
   85MOL0     C11403   0.809   4.143   0.760  0.1983 -0.3271 -0.8279
   85MOL0     C11404   0.838   4.068   0.884 -0.6503  0.0944 -0.8079
   85MOL0     C11405   0.872   4.004   0.980 -0.2375  0.1077 -0.2530
   85MOL0     C11406   1.122   3.896   0.433 -0.7323  0.0315  0.6732
   85MOL0     C11407   1.261   3.936   0.432  0.5509 -0.2030  0.6412
   85MOL0     H11408   1.654   3.818   0.320 -1.8488  0.0847  0.3725
   85MOL0     H11409   1.894   3.805   0.283 -0.0471  0.5373 -1.7591
   85MOL0     H11410   2.117   3.814   0.331  0.2294  0.7240  1.5266
   85MOL0     H11411   2.114   3.897   0.178 -1.2326 -0.6324 -0.1062
   85MOL0     H11412   2.310   3.940   0.406 -2.8578 -0.8575  0.9028
   85MOL0     H11413   2.344   3.819   0.288 -0.4186 -0.4888  0.7731
   85MOL0     H11414   2.323   4.011   0.109 -0.4602  0.1126  0.1556
   85MOL0     H11415   2.365   4.119   0.227 -0.6058 -1.0926 -2.3828
   85MOL0     H11416   2.583   4.025   0.287 -1.5226 -0.3551  1.0092
   85MOL0     H11417   2.551   3.889   0.178  0.6814 -0.6827  1.7529
   85MOL0     H11418   2.500   4.056  -0.010 -0.6262  1.4767 -0.9094
   85MOL0     H11419   2.532   4.188   0.085 -5.9134 -1.6682 -0.3843
   85MOL0     H11420   2.734   3.958  -0.004  1.8153 -0.9388  2.7617
   85MOL0     H11421   2.726   4.122  -0.068  1.7329 -0.4581 -0.2273
   85MOL0     H11422   2.813   4.034   0.212  0.7857 -0.3778 -0.2149
   85MOL0     H11423   2.905   4.048   0.066 -0.0747  0.0513 -1.1854
   85MOL0     H11424   2.866   4.300   0.057  0.5090  0.4737 -0.0529
   85MOL0     H11425   2.948   4.226   0.196 -0.8818 -0.2163 -0.3148
   85MOL0     H11426   2.762   4.185   0.431  0.3018 -0.3449 -0.9205
   85MOL0     H11427   2.604   4.301   0.602  3.6811  0.6998 -2.2780
   85MOL0     H11428   2.550   4.465   0.564 -1.4848  0.1551 -1.1389
   85MOL0     H11429   2.415   4.205   0.513 -1.8708  0.1062  3.0838
   85MOL0     H11430   2.346   4.361   0.439  0.7533 -1.2923 -1.2466
   85MOL0     H11431   2.307   4.440   0.668  1.4230 -0.2511 -0.9529
   85MOL0     H11432   2.386   4.288   0.739 -1.8097  0.3463  1.4968
   85MOL0     H11433   2.214   4.151   0.640  0.6586 -0.4236  0.1766
   85MOL0     H11434   2.145   4.311   0.573 -0.6555  1.1900  0.0355
   85MOL0     H11435   1.975   4.381   0.950 -1.3182  0.3252  0.3554
   85MOL0     H11436   1.723   4.253   1.143 -1.6198  2.1302  1.3122
   85MOL0     H11437   1.805   4.395   1.094 -0.1244  0.0477 -0.2925
   85MOL0     H11438   1.639   4.357   1.026 -1.6923 -2.6385 -0.7513
   85MOL0     H11439   1.400   4.056   0.780 -0.8584 -0.5303  0.2325
   85MOL0     H11440   1.154   3.974   0.799 -1.5093 -0.3567  4.6762
   85MOL0     H11441   1.030   3.788   0.714  0.7931 -1.5338 -1.7031
   85MOL0     H11442   1.069   3.630   0.740  2.3860  2.0752 -1.4266
   85MOL0     H11443   0.850   3.588   0.876 -0.5282 -0.6480 -0.8129
   85MOL0     H11444   0.808   3.765   0.853 -2.1020 -1.4969  1.5091
   85MOL0     H11445   0.869   3.558   0.641 -2.1559 -1.9791  0.2327
   85MOL0     H11446   0.800   3.727   0.621 -0.8013  2.9572  4.5060
   85MOL0     H11447   0.651   3.503   0.769 -0.8295 -1.3814 -2.4226
   85MOL0     H11448   0.622   3.679   0.760  1.7390  0.9500 -0.6432
   85MOL0     H11449   0.644   3.500   0.526 -0.3884  0.4942 -0.4382
   85MOL0     H11450   0.613   3.664   0.500 -1.5241 -2.4934 -2.7785
   85MOL0     H11451   0.399   3.647   0.624  0.5527 -0.5763  0.6018
   85MOL0     H11452   0.416   3.566   0.471  0.2155  1.8032 -0.4221
   85MOL0     H11453   0.419   3.437   0.758 -1.6484  1.4627  1.0960
   85MOL0     H11454   0.486   3.353   0.609  1.2425  0.7198  2.5521
   85MOL0     H11455   0.200   3.462   0.632  0.2869  0.0337 -0.2711
   85MOL0     H11456   0.238   3.294   0.675 -0.4720  0.6024  0.3510
   85MOL0     H11457   1.287   3.631   0.993 -1.5110  0.4562  0.4142
   85MOL0     H11458   1.535   3.704   0.976 -1.9220 -0.0348 -0.0591
   85MOL0     H11459   1.824   3.966   0.728  1.2948 -0.2718 -0.2566
   85MOL0     H11460   2.037   4.054   0.685  1.5229 -1.2800  3.3698
   85MOL0     H11461   1.938   4.220   0.422  0.1196 -0.4522 -1.7193
   85MOL0     H11462   1.686   4.201   0.495 -1.3007 -0.8171  0.9366
   85MOL0     H11463   1.229   4.250   0.319  0.4503 -0.0859  0.9178
   85MOL0     H11464   1.004   4.178   0.289  2.3020  0.2329 -2.0453
   85MOL0     H11465   0.790   4.085   0.288  2.3774  2.1874  1.0462
   85MOL0     H11466   0.693   3.983   0.394 -0.4031  0.0427 -1.7473
   85MOL0     H11467   0.733   4.198   0.525  0.7083 -0.0170  2.3423
   85MOL0     H11468   0.902   4.184   0.487  0.3292  0.7035 -1.9466
   85MOL0     H11469   0.930   4.014   0.642  0.3867 -0.0169  0.0665
   85MOL0     H11470   0.754   3.965   0.649  1.9608 -1.5398  0.9202
   85MOL0     H11471   0.706   4.178   0.776  1.3582  1.8714  3.5933
   85MOL0     H11472   0.865   4.235   0.740  1.9403 -1.7344 -2.7949
   85MOL0     H11473   0.888   3.951   1.072  1.1420  2.6925  1.0981
   85MOL0     H11474   1.098   3.796   0.468  2.5747 -0.3065  2.3554
   85MOL0     H11475   1.335   3.865   0.468  1.0207 -0.5491 -0.9486
   86MOL0     O11476   9.378  10.775   8.993 -0.1184 -0.3996 -0.7893
   86MOL0     C11477   9.438  10.865   9.057  1.1154  0.2444  0.1550
   86MOL0     O11478   9.382  10.956   9.141 -0.6291 -0.2549  0.4128
   86MOL0     C11479   9.257  10.936   9.190  0.1579  0.7891 -0.0011
   86MOL0     C11480   9.233  10.997   9.311  0.6021 -0.2501 -0.4844
   86MOL0     C11481   9.098  11.003   9.364 -0.4920  0.4343  0.2228
   86MOL0     C11482   8.994  10.931   9.302 -0.5161 -1.4464 -0.3594
   86MOL0     O11483   8.856  10.927   9.336 -0.3461 -0.5616 -0.2327
   86MOL0     C11484   8.837  10.942   9.472 -0.1840 -1.2083  0.1591
   86MOL0     C11485   8.686  10.928   9.489 -0.2452 -0.2523 -0.7957
   86MOL0     C11486   8.601  11.058   9.475 -0.3567  0.1239 -0.7441
   86MOL0     C11487   8.448  11.044   9.445 -0.5438 -0.6024 -0.3523
   86MOL0     C11488   8.371  11.016   9.575  0.0379 -0.4151 -1.1040
   86MOL0     C11489   8.216  10.972   9.565  0.5100  0.3161  0.3280
   86MOL0     C11490   8.199  10.846   9.469 -0.1174  0.2284 -0.6522
   86MOL0     C11491   8.070  10.777   9.513  0.3206  0.4006 -0.4610
   86MOL0     N11492   7.952  10.855   9.497 -0.4099  0.5053 -0.7653
   86MOL0     C11493   7.860  10.839   9.392  1.1904  0.6299  0.0997
   86MOL0     C11494   7.750  10.917   9.429  0.5181  0.0922  0.0230
   86MOL0     C11495   7.625  10.950   9.348 -0.8123  0.1792  0.1785
   86MOL0     C11496   7.524  10.841   9.372 -0.1072  0.1405  0.4344
   86MOL0     C11497   7.391  10.909   9.330 -0.7861  0.2123  0.0611
   86MOL0     C11498   7.270  10.819   9.328  0.2944  0.3488  0.3402
   86MOL0     O11499   7.242  10.769   9.464 -0.1442  0.1358 -0.2220
   86MOL0     C11500   7.138  10.683   9.465 -0.0864  0.5623  0.5677
   86MOL0     C11501   7.147  10.582   9.566  0.0904  0.7431  0.9424
   86MOL0     C11502   7.043  10.494   9.581  0.3148 -1.0850  0.3127
   86MOL0     C11503   7.073  10.402   9.695  0.3135  0.5163  0.3043
   86MOL0     C11504   6.927  10.506   9.502 -0.5992 -0.7381 -0.1848
   86MOL0     C11505   6.826  10.407   9.514  0.2363 -0.1906 -0.3251
   86MOL0     O11506   6.850  10.286   9.574  0.0288  0.3203 -0.3033
   86MOL0     C11507   6.755  10.212   9.642 -0.4640 -0.5994 -1.3103
   86MOL0     C11508   6.627  10.266   9.664  0.7587  0.0683 -0.2235
   86MOL0     C11509   6.529  10.184   9.728 -0.6603  0.6756  0.4947
   86MOL0     C11510   6.555  10.052   9.769 -0.1221 -0.6358 -0.1331
   86MOL0     O11511   6.452   9.977   9.816  0.7971  0.1874  0.1865
   86MOL0     C11512   6.399   9.895   9.716 -0.6911 -0.3253  0.2954
   86MOL0     C11513   6.279   9.827   9.748  0.2670  0.3917  0.4294
   86MOL0     C11514   6.165   9.921   9.725  0.4309  0.3132  0.5332
   86MOL0     C11515   6.036   9.854   9.783 -0.9749 -0.2514 -0.1706
   86MOL0     C11516   5.900   9.925   9.768 -0.3251 -0.1669 -0.6628
   86MOL0     C11517   5.783   9.846   9.829  0.7223 -0.5829  0.7164
   86MOL0     C11518   5.653   9.898   9.762  1.3044  0.9016 -0.1125
   86MOL0     C11519   5.610  10.034   9.809 -0.5702  1.2965  0.5677
   86MOL0    Cl11520   5.437  10.044   9.845 -0.2617 -0.0869  0.2219
   86MOL0     C11521   6.682  10.001   9.751  0.0482  0.6002  0.5398
   86MOL0     C11522   6.775  10.076   9.687  0.4012 -0.1364  0.0786
   86MOL0     O11523   6.724  10.428   9.446 -0.1395 -0.3354 -0.1736
   86MOL0     C11524   6.924  10.604   9.395 -0.2354 -0.0921  0.5556
   86MOL0     C11525   7.025  10.694   9.381 -0.4860 -0.0950  0.2507
   86MOL0     N11526   7.780  10.978   9.554  0.1043  1.0212  0.8763
   86MOL0     N11527   7.899  10.935   9.587  0.8463  0.1879 -0.0341
   86MOL0     C11528   9.024  10.869   9.182  0.2113  0.4983 -0.2869
   86MOL0     C11529   9.147  10.883   9.123 -0.8321 -0.4391 -0.7633
   86MOL0     C11530   9.582  10.880   9.020 -0.3675  0.8897  0.0186
   86MOL0     C11531   9.647  10.783   8.935 -0.8046  0.7964  0.0915
   86MOL0     C11532   9.783  10.797   8.903  0.2320  0.0955 -1.2327
   86MOL0     C11533   9.853  10.899   8.958  0.9498 -0.6423 -0.3785
   86MOL0     O11534   9.985  10.909   8.930 -0.2970 -0.2111 -0.1453
   86MOL0     C11535  10.074  11.010   8.972  0.0652 -0.4077 -1.0461
   86MOL0     C11536  10.110  10.951   9.115 -0.1160  0.1241 -0.1360
   86MOL0     C11537  10.187  10.818   9.108 -0.3004 -0.3747  0.1356
   86MOL0     C11538  10.253  10.780   9.236 -0.2675 -0.9170  0.6590
   86MOL0     C11539  10.143  10.775   9.338  0.3733 -0.4227 -0.1387
   86MOL0     C11540  10.045  10.754   9.403 -1.4602 -0.1156 -0.2409
   86MOL0     C11541   9.788  10.993   9.048 -0.3587 -0.1437 -0.5800
   86MOL0     C11542   9.654  10.976   9.083 -0.4608  0.5749  0.0996
   86MOL0     H11543   9.307  11.066   9.350 -1.9079  1.1015  2.2656
   86MOL0     H11544   9.080  11.072   9.446 -2.8278  0.2197 -0.0436
   86MOL0     H11545   8.887  10.859   9.524 -0.1731 -1.5971 -0.4599
   86MOL0     H11546   8.862  11.040   9.513 -3.6744 -0.1392  0.0453
   86MOL0     H11547   8.656  10.848   9.421 -0.9749  0.6145 -1.5230
   86MOL0     H11548   8.667  10.895   9.591  0.1982 -2.1526 -1.2950
   86MOL0     H11549   8.620  11.115   9.567 -0.6747 -0.0052 -0.5949
   86MOL0     H11550   8.636  11.123   9.395  1.2464 -0.7122 -0.7490
   86MOL0     H11551   8.403  11.139   9.415 -0.2584  0.0997  1.3347
   86MOL0     H11552   8.434  10.974   9.361  0.0231  0.7607 -1.6355
   86MOL0     H11553   8.422  10.931   9.623  3.0507  1.3125 -0.9767
   86MOL0     H11554   8.373  11.101   9.644  0.3447 -1.5713  0.3565
   86MOL0     H11555   8.191  10.947   9.668  0.4330 -1.5064 -0.1089
   86MOL0     H11556   8.164  11.061   9.528  1.8434  1.1839  0.4563
   86MOL0     H11557   8.180  10.876   9.366 -0.1193 -2.2110 -1.4110
   86MOL0     H11558   8.290  10.786   9.477 -1.0668 -1.4346 -1.8417
   86MOL0     H11559   8.081  10.757   9.620 -0.5869 -1.4946 -0.6874
   86MOL0     H11560   8.055  10.684   9.458 -0.5383 -0.3697  0.9979
   86MOL0     H11561   7.876  10.784   9.300  0.8944 -2.3269  1.7143
   86MOL0     H11562   7.598  11.053   9.373 -0.5649  1.2898 -3.5217
   86MOL0     H11563   7.657  10.950   9.244 -1.0457 -1.6490  0.0716
   86MOL0     H11564   7.533  10.815   9.478  2.5661  0.2992  0.3317
   86MOL0     H11565   7.544  10.755   9.307 -3.0003 -0.3084  0.0041
   86MOL0     H11566   7.402  10.948   9.229  0.3819 -0.2670 -0.0212
   86MOL0     H11567   7.374  10.983   9.409 -2.2682 -1.5803  1.5254
   86MOL0     H11568   7.279  10.735   9.259  2.2205  1.1894 -0.4894
   86MOL0     H11569   7.198  10.888   9.282  0.2840 -0.3273 -0.6790
   86MOL0     H11570   7.239  10.578   9.623 -1.5270  0.7741  3.6843
   86MOL0     H11571   7.114  10.307   9.658 -2.5883 -1.8939  2.6608
   86MOL0     H11572   7.146  10.441   9.766  1.3928  0.8812 -0.9717
   86MOL0     H11573   6.983  10.379   9.753  0.4070 -0.5504  0.0563
   86MOL0     H11574   6.596  10.358   9.617 -0.7113 -2.0921 -3.9102
   86MOL0     H11575   6.429  10.223   9.741 -0.5118  1.1895  0.1598
   86MOL0     H11576   6.379   9.959   9.630 -2.5509 -0.8668  0.2703
   86MOL0     H11577   6.473   9.818   9.692  0.9774  1.4221 -0.4148
   86MOL0     H11578   6.275   9.733   9.692  0.1667 -1.4561  3.3391
   86MOL0     H11579   6.281   9.799   9.854 -0.4264  1.2403  0.6827
   86MOL0     H11580   6.144   9.954   9.622 -2.4751 -1.3253  0.4787
   86MOL0     H11581   6.175  10.016   9.777  1.8130 -0.1318  1.1196
   86MOL0     H11582   6.024   9.758   9.731 -0.6384  0.0087 -0.7401
   86MOL0     H11583   6.048   9.830   9.889 -0.9108  5.2454  1.3727
   86MOL0     H11584   5.875   9.940   9.662  1.7973  2.2878 -0.9348
   86MOL0     H11585   5.896  10.027   9.809 -1.1985 -0.3338 -0.3284
   86MOL0     H11586   5.807   9.741   9.812  0.8681 -0.4174 -0.1213
   86MOL0     H11587   5.782   9.871   9.936  1.3236  1.4862  0.2797
   86MOL0     H11588   5.569   9.830   9.775 -0.6239  2.9314 -1.2525
   86MOL0     H11589   5.665   9.907   9.654  0.0766  2.2548 -0.1754
   86MOL0     H11590   5.637  10.112   9.738 -1.5045  1.8082  0.7535
   86MOL0     H11591   5.652  10.046   9.909 -1.7582 -3.6513  1.9571
   86MOL0     H11592   6.699   9.901   9.788 -0.6762  0.0805 -0.4938
   86MOL0     H11593   6.871  10.028   9.668  0.6849  0.2760  0.4715
   86MOL0     H11594   6.847  10.596   9.319 -0.4427  1.1432  0.6157
   86MOL0     H11595   7.012  10.769   9.304  1.6732  0.2707  0.1983
   86MOL0     H11596   8.959  10.806   9.122  1.7423  0.5484 -2.0516
   86MOL0     H11597   9.161  10.836   9.026  2.2332  0.8193 -1.0656
   86MOL0     H11598   9.586  10.709   8.884 -1.5887  1.3908  0.1623
   86MOL0     H11599   9.831  10.731   8.831  0.9730 -1.9331  0.9662
   86MOL0     H11600  10.170  11.018   8.919  0.1624 -0.2034 -0.8403
   86MOL0     H11601  10.027  11.108   8.969 -0.5381 -0.7009 -1.5279
   86MOL0     H11602  10.029  10.947   9.189  2.6117 -0.4343  3.0501
   86MOL0     H11603  10.186  11.024   9.147  1.1150  0.0372 -2.6067
   86MOL0     H11604  10.263  10.832   9.031 -1.2354 -0.7488 -0.8884
   86MOL0     H11605  10.123  10.735   9.076 -0.7554  0.5629 -1.4981
   86MOL0     H11606  10.329  10.858   9.244 -1.4769  0.2425  1.0308
   86MOL0     H11607  10.306  10.684   9.227 -0.2632 -0.8092 -0.6766
   86MOL0     H11608   9.961  10.733   9.466  0.3893 -1.4755  1.9371
   86MOL0     H11609   9.851  11.069   9.093  0.9567 -2.6897  2.2444
   86MOL0     H11610   9.615  11.055   9.147  0.6219  0.1312  1.3499
   87MOL0     O11611   6.141   9.474   5.471 -0.6989 -0.2164  0.6193
   87MOL0     C11612   6.102   9.363   5.434  0.1267  0.0493 -0.0581
   87MOL0     O11613   6.182   9.265   5.392 -0.5855  0.0915 -0.4288
   87MOL0     C11614   6.316   9.296   5.377  0.6424  0.2173  0.4033
   87MOL0     C11615   6.361   9.361   5.262 -0.0188 -0.9359  0.9450
   87MOL0     C11616   6.493   9.385   5.249 -0.4577  0.4452 -0.2950
   87MOL0     C11617   6.588   9.344   5.337 -1.0717 -0.1474  0.0511
   87MOL0     O11618   6.722   9.368   5.313 -0.0762  0.2577  0.1139
   87MOL0     C11619   6.794   9.429   5.417 -0.1437 -0.6451 -0.1163
   87MOL0     C11620   6.915   9.507   5.360 -0.0980 -0.2001 -0.8902
   87MOL0     C11621   6.968   9.593   5.472  0.8146  0.7852 -1.0368
   87MOL0     C11622   6.994   9.738   5.422  0.2303  0.5418  0.3775
   87MOL0     C11623   7.088   9.816   5.518 -0.4371 -0.4278  0.2934
   87MOL0     C11624   7.015   9.829   5.650  0.0915 -0.6591 -1.0407
   87MOL0     C11625   7.067   9.946   5.725  0.5687 -0.7925  0.1456
   87MOL0     C11626   7.015   9.967   5.871 -0.0219  0.1447  0.5260
   87MOL0     N11627   6.871   9.975   5.883  0.1554 -0.6998 -0.6869
   87MOL0     C11628   6.775  10.020   5.797 -0.7759 -0.7335  0.5337
   87MOL0     C11629   6.666   9.962   5.839  0.2786 -0.2477  0.2485
   87MOL0     C11630   6.539   9.973   5.755 -0.1694 -0.3743 -0.0690
   87MOL0     C11631   6.555   9.893   5.629 -0.3573  0.5262  0.4214
   87MOL0     C11632   6.607   9.745   5.647  0.2118 -0.3650  0.2770
   87MOL0     C11633   6.494   9.656   5.689  0.3654  0.6269 -0.7926
   87MOL0     O11634   6.555   9.525   5.722  0.3652 -0.2620 -0.3130
   87MOL0     C11635   6.478   9.421   5.763 -0.4479 -0.5909 -1.1466
   87MOL0     C11636   6.521   9.291   5.793  0.6005  0.4299 -0.3246
   87MOL0     C11637   6.441   9.190   5.852  0.6299 -0.6597  0.2134
   87MOL0     C11638   6.505   9.061   5.880 -1.0573  0.9221 -0.1178
   87MOL0     C11639   6.304   9.215   5.866  1.0271  0.2991 -0.2363
   87MOL0     C11640   6.208   9.124   5.937 -0.1782 -0.2485  0.1035
   87MOL0     O11641   6.263   9.001   5.986 -0.1094 -0.1930  0.1171
   87MOL0     C11642   6.174   8.909   6.021 -0.1294 -0.0617  1.0565
   87MOL0     C11643   6.150   8.805   5.930  0.1834 -0.4969  0.2366
   87MOL0     C11644   6.057   8.710   5.959 -0.2900  0.1282 -0.1406
   87MOL0     C11645   5.989   8.726   6.082 -0.7589 -0.2408  0.1229
   87MOL0     O11646   5.884   8.649   6.112  0.2677 -0.7261  0.3680
   87MOL0     C11647   5.832   8.574   6.010  0.9088 -0.7718  0.0932
   87MOL0     C11648   5.696   8.514   6.052 -0.3565 -0.4220  0.5107
   87MOL0     C11649   5.591   8.619   6.062  0.2910  0.5438 -0.1011
   87MOL0     C11650   5.453   8.552   6.084 -0.7316 -1.1142 -1.5203
   87MOL0     C11651   5.389   8.511   5.954 -0.4113  0.5471  0.4774
   87MOL0     C11652   5.241   8.463   5.979 -0.4431 -0.8012  0.7858
   87MOL0     C11653   5.169   8.453   5.842  0.9248 -0.2590 -0.4173
   87MOL0     C11654   5.037   8.385   5.866 -0.3119  0.0232 -0.0546
   87MOL0    Cl11655   4.931   8.487   5.963 -0.7438 -0.6011 -0.4042
   87MOL0     C11656   6.018   8.825   6.172  0.1011 -0.0560  0.7840
   87MOL0     C11657   6.106   8.927   6.144 -0.0052  0.2941 -0.6342
   87MOL0     O11658   6.098   9.167   5.967 -0.1713  0.2793  0.2654
   87MOL0     C11659   6.256   9.341   5.825  0.6125  0.0603 -0.0904
   87MOL0     C11660   6.338   9.436   5.780  0.5021 -0.5773  0.3471
   87MOL0     N11661   6.686   9.890   5.958  0.0674  0.4078 -0.6393
   87MOL0     N11662   6.802   9.919   5.991 -0.6349 -0.2909  0.6293
   87MOL0     C11663   6.547   9.278   5.452  0.1378 -0.3824 -0.8995
   87MOL0     C11664   6.408   9.251   5.477 -0.0904 -0.7355  0.1529
   87MOL0     C11665   5.962   9.327   5.451 -0.8983  0.0415  0.2297
   87MOL0     C11666   5.872   9.422   5.500  0.4163  0.2825 -0.4488
   87MOL0     C11667   5.734   9.404   5.513 -0.8197  1.2714 -0.5861
   87MOL0     C11668   5.685   9.283   5.463 -0.3301  0.3058 -0.5130
   87MOL0     O11669   5.550   9.271   5.444  0.6736  0.7014 -0.1278
   87MOL0     C11670   5.492   9.138   5.424  0.3272  0.0891 -0.1271
   87MOL0     C11671   5.358   9.151   5.480 -0.3785  0.5011 -0.2861
   87MOL0     C11672   5.277   9.252   5.402 -0.1518 -0.0270 -0.3430
   87MOL0     C11673   5.127   9.221   5.417  0.5132 -0.2366  0.0459
   87MOL0     C11674   5.049   9.310   5.331  0.1545  0.5315 -0.4386
   87MOL0     C11675   4.982   9.389   5.268  0.1740  0.1644  0.8207
   87MOL0     C11676   5.775   9.185   5.421 -0.4752 -0.1106  0.2742
   87MOL0     C11677   5.909   9.210   5.408  0.4943  0.2671  0.0535
   87MOL0     H11678   6.300   9.403   5.183 -1.3608  0.9960  2.8920
   87MOL0     H11679   6.519   9.444   5.162 -0.2298  4.5720  2.2923
   87MOL0     H11680   6.733   9.512   5.452 -1.5471 -1.2323 -1.0967
   87MOL0     H11681   6.819   9.359   5.498 -2.2468  0.0325  1.1937
   87MOL0     H11682   6.986   9.436   5.316 -0.1466 -0.0791 -1.1619
   87MOL0     H11683   6.869   9.573   5.286 -1.7294  2.3359  2.1426
   87MOL0     H11684   6.898   9.587   5.555  0.7512 -1.5417 -1.1901
   87MOL0     H11685   7.062   9.548   5.506  1.6549  1.0696 -2.8386
   87MOL0     H11686   7.044   9.732   5.325 -0.3560  0.0874  0.0989
   87MOL0     H11687   6.899   9.791   5.410  0.3910  0.5076 -1.1477
   87MOL0     H11688   7.182   9.763   5.537 -0.9927 -1.7919 -0.6036
   87MOL0     H11689   7.112   9.916   5.480 -1.6317  0.3249  1.4608
   87MOL0     H11690   6.908   9.839   5.631  0.0658  0.7856 -0.2741
   87MOL0     H11691   7.024   9.741   5.714  2.0891 -0.4317 -0.9401
   87MOL0     H11692   7.175   9.951   5.742  0.8613 -1.3414 -1.3657
   87MOL0     H11693   7.041  10.034   5.665  0.9859 -1.7904 -1.5769
   87MOL0     H11694   7.067  10.054   5.913 -1.6845  2.2154 -1.4276
   87MOL0     H11695   7.063   9.886   5.926 -0.8988  0.5251  1.8871
   87MOL0     H11696   6.791  10.076   5.705  1.2912 -1.2780  0.5090
   87MOL0     H11697   6.451   9.940   5.811 -1.7249  1.2480 -1.4394
   87MOL0     H11698   6.522  10.079   5.733  2.6435  0.8605  2.7704
   87MOL0     H11699   6.631   9.938   5.565  1.1864  1.2883  2.6391
   87MOL0     H11700   6.466   9.890   5.565 -0.3319  0.9645  0.3629
   87MOL0     H11701   6.693   9.740   5.714 -1.5196  1.3362  2.7984
   87MOL0     H11702   6.637   9.709   5.548 -1.4691 -3.7073  0.8221
   87MOL0     H11703   6.412   9.639   5.619 -2.0231  0.2687  1.9352
   87MOL0     H11704   6.452   9.706   5.777 -1.6323 -1.6437 -0.3669
   87MOL0     H11705   6.624   9.263   5.774  0.1341 -1.1748 -0.6328
   87MOL0     H11706   6.515   9.046   5.988 -1.1303 -0.5783 -0.2942
   87MOL0     H11707   6.453   8.974   5.838  1.4320 -1.5658  1.5414
   87MOL0     H11708   6.606   9.063   5.838 -1.1360 -1.3278 -0.5680
   87MOL0     H11709   6.216   8.785   5.845  0.4030 -2.2208  0.7685
   87MOL0     H11710   6.045   8.629   5.888 -1.5194 -1.4825  1.8008
   87MOL0     H11711   5.812   8.622   5.914 -1.6036  1.8619  1.7538
   87MOL0     H11712   5.896   8.489   5.986  0.7137 -0.5541 -1.2416
   87MOL0     H11713   5.666   8.437   5.980 -0.7899 -0.0900  0.3371
   87MOL0     H11714   5.695   8.463   6.149 -1.7483 -0.5012  0.4731
   87MOL0     H11715   5.592   8.696   5.984  0.1309  1.4661  0.7850
   87MOL0     H11716   5.614   8.666   6.157  2.4979  1.4938 -1.0481
   87MOL0     H11717   5.457   8.472   6.159 -2.7864 -0.2568 -0.4025
   87MOL0     H11718   5.385   8.624   6.130  0.4952 -0.6852 -0.3152
   87MOL0     H11719   5.450   8.436   5.902  1.8610  1.5595  1.5642
   87MOL0     H11720   5.387   8.602   5.894  3.1367  0.9884  0.8574
   87MOL0     H11721   5.251   8.381   6.051  2.9555 -1.3613 -0.1368
   87MOL0     H11722   5.191   8.536   6.043 -1.8089 -0.1287 -0.9780
   87MOL0     H11723   5.225   8.391   5.771  3.3899  0.8221  0.4510
   87MOL0     H11724   5.158   8.550   5.793 -2.0322 -0.3264 -0.0770
   87MOL0     H11725   5.038   8.292   5.924 -0.8956  0.1525  0.1755
   87MOL0     H11726   4.977   8.356   5.780 -1.7095  2.1886  0.1038
   87MOL0     H11727   5.951   8.822   6.257 -0.8897 -2.9338 -0.0065
   87MOL0     H11728   6.120   9.007   6.216  0.4216  1.9906 -2.5098
   87MOL0     H11729   6.150   9.365   5.835  0.7328 -0.0012  1.7803
   87MOL0     H11730   6.301   9.537   5.765 -0.4597 -0.9568  0.0420
   87MOL0     H11731   6.625   9.239   5.518  0.5639 -0.2654 -1.3287
   87MOL0     H11732   6.368   9.192   5.559 -0.8109 -0.3738  0.0705
   87MOL0     H11733   5.909   9.519   5.531 -0.3724  0.7292 -0.8537
   87MOL0     H11734   5.666   9.480   5.551 -0.9361  1.4348 -1.1091
   87MOL0     H11735   5.496   9.122   5.316 -0.5650  0.6076 -0.2501
   87MOL0     H11736   5.544   9.055   5.473 -0.9634 -1.9074 -1.9882
   87MOL0     H11737   5.365   9.185   5.584 -1.1568 -0.6286  0.1474
   87MOL0     H11738   5.313   9.052   5.481 -1.4470  0.9349 -1.9343
   87MOL0     H11739   5.311   9.257   5.298 -1.8844  3.3036 -0.8835
   87MOL0     H11740   5.287   9.355   5.436  0.3344 -0.0897 -0.2946
   87MOL0     H11741   5.098   9.225   5.523 -2.1415 -0.4279 -0.5993
   87MOL0     H11742   5.108   9.116   5.392  0.6931 -0.1794 -0.3340
   87MOL0     H11743   4.917   9.453   5.212 -0.1734  0.8728  2.0059
   87MOL0     H11744   5.727   9.095   5.383 -1.1335  0.9366 -1.4654
   87MOL0     H11745   5.979   9.145   5.357  0.7028  0.5282  0.0049
   88MOL0     O11746  10.446   0.285   8.501 -0.3131 -0.3011  0.1624
   88MOL0     C11747  10.441   0.182   8.431  0.6768 -0.0593  0.6160
   88MOL0     O11748  10.326   0.121   8.389 -0.0064  0.1447  0.0796
   88MOL0     C11749  10.210   0.188   8.422 -0.2795 -0.0483  0.8475
   88MOL0     C11750  10.132   0.142   8.527  0.2701  0.2822  0.0099
   88MOL0     C11751  10.004   0.192   8.544 -0.1064 -0.1655 -0.9324
   88MOL0     C11752   9.962   0.306   8.477 -0.5869 -0.1607 -0.0860
   88MOL0     O11753   9.836   0.353   8.507 -0.7108 -0.5901 -0.2093
   88MOL0     C11754   9.761   0.413   8.396 -0.1140  0.0567 -0.1096
   88MOL0     C11755   9.610   0.448   8.420 -0.9224 -0.3209 -0.3571
   88MOL0     C11756   9.536   0.315   8.428  0.7804 -0.8020  0.1524
   88MOL0     C11757   9.395   0.334   8.481 -0.0671 -0.4397  0.1184
   88MOL0     C11758   9.314   0.203   8.483  0.4587 -0.4140  0.2990
   88MOL0     C11759   9.161   0.219   8.473 -0.9089 -0.0544  0.5984
   88MOL0     C11760   9.094   0.082   8.494  0.1467 -0.3177 -0.1604
   88MOL0     C11761   8.938   0.109   8.526  0.4189  0.2592  0.4777
   88MOL0     N11762   8.883  -0.028   8.527  1.1222  0.6373 -0.0836
   88MOL0     C11763   8.914  -0.141   8.602 -0.0109 -0.5443 -0.1742
   88MOL0     C11764   8.818  -0.229   8.568 -0.1202 -0.2715  0.0589
   88MOL0     C11765   8.761  -0.357   8.619  0.5097  0.8264  0.6208
   88MOL0     C11766   8.685  -0.327   8.748  0.2812  0.6034  0.6282
   88MOL0     C11767   8.703  -0.445   8.850  0.1565  0.2950  0.7890
   88MOL0     C11768   8.664  -0.584   8.797 -0.1321  0.9235 -0.6113
   88MOL0     O11769   8.550  -0.585   8.711  0.4590  0.1044 -0.9423
   88MOL0     C11770   8.426  -0.569   8.770 -0.3744  0.6217  0.0296
   88MOL0     C11771   8.326  -0.535   8.675  0.0724  0.8015  0.5270
   88MOL0     C11772   8.190  -0.501   8.712  0.0513  0.9831  0.1837
   88MOL0     C11773   8.090  -0.463   8.605  0.3357  0.6670  0.7512
   88MOL0     C11774   8.153  -0.527   8.848  0.1033 -0.4968 -0.1213
   88MOL0     C11775   8.017  -0.525   8.901  0.0720  0.5358  0.1341
   88MOL0     O11776   7.908  -0.537   8.818  0.2732  0.1244 -0.3305
   88MOL0     C11777   7.786  -0.478   8.846 -0.5685 -0.2154 -0.4520
   88MOL0     C11778   7.717  -0.513   8.961  0.3198 -0.6665 -0.1401
   88MOL0     C11779   7.576  -0.470   8.969  1.0565 -0.3030 -0.3247
   88MOL0     C11780   7.521  -0.380   8.880 -0.3427  0.6671 -0.3350
   88MOL0     O11781   7.393  -0.343   8.898 -0.3917  0.1393 -0.7053
   88MOL0     C11782   7.340  -0.250   8.806 -0.7084  0.6160 -0.8952
   88MOL0     C11783   7.204  -0.203   8.867 -0.2615 -0.8846 -0.1972
   88MOL0     C11784   7.104  -0.319   8.852  0.3573 -0.4643 -0.3945
   88MOL0     C11785   7.099  -0.421   8.967  0.6826  1.2202  0.3991
   88MOL0     C11786   6.962  -0.492   8.971 -0.5851  0.4423 -0.2095
   88MOL0     C11787   6.854  -0.407   9.034  0.0815 -0.3959  0.7787
   88MOL0     C11788   6.718  -0.452   8.974  0.0743 -0.1305 -0.1390
   88MOL0     C11789   6.612  -0.426   9.075  0.0677 -1.2106  0.4333
   88MOL0    Cl11790   6.652  -0.507   9.238 -0.0792  0.0422 -0.2110
   88MOL0     C11791   7.603  -0.347   8.771  0.1199 -0.0969  0.6789
   88MOL0     C11792   7.729  -0.397   8.753  0.5760  0.4027  0.5615
   88MOL0     O11793   8.003  -0.519   9.024  0.7892  0.1334  0.1520
   88MOL0     C11794   8.254  -0.564   8.945  0.5715 -0.1741 -0.6284
   88MOL0     C11795   8.390  -0.582   8.904  0.0615  0.2353 -0.6666
   88MOL0     N11796   8.735  -0.173   8.477 -0.0063  0.1395 -0.2520
   88MOL0     N11797   8.782  -0.061   8.439  0.5818 -0.8599  0.0159
   88MOL0     C11798  10.045   0.360   8.376  0.2833  0.1113 -0.0809
   88MOL0     C11799  10.165   0.301   8.339 -0.3871  0.0097 -0.9767
   88MOL0     C11800  10.567   0.122   8.393  0.5209 -0.7617 -0.2088
   88MOL0     C11801  10.574   0.035   8.282 -0.3918  0.2087 -1.0254
   88MOL0     C11802  10.701  -0.014   8.231 -0.4190  0.3225 -0.2757
   88MOL0     C11803  10.820   0.023   8.301  0.1031 -0.6619  0.7321
   88MOL0     O11804  10.935  -0.039   8.252  0.3370 -0.7236 -0.0667
   88MOL0     C11805  11.057  -0.043   8.329  0.9068 -0.3606 -0.2250
   88MOL0     C11806  11.060  -0.118   8.461 -0.7287 -0.1693  0.0578
   88MOL0     C11807  11.192  -0.100   8.535  0.9432 -0.6566  0.2209
   88MOL0     C11808  11.314  -0.152   8.469 -0.3599  0.7070  0.0577
   88MOL0     C11809  11.310  -0.304   8.447  0.7790 -0.5365 -0.3314
   88MOL0     C11810  11.315  -0.423   8.443 -0.9860  0.1313  1.0112
   88MOL0     C11811  10.802   0.107   8.417 -0.3426  0.5445 -0.2741
   88MOL0     C11812  10.679   0.150   8.459  0.5765 -0.5507  0.1202
   88MOL0     H11813  10.171   0.055   8.579  1.3651 -0.5399 -2.0687
   88MOL0     H11814   9.938   0.151   8.620  0.0914 -0.5469 -0.9666
   88MOL0     H11815   9.808   0.508   8.370 -0.8930  1.1378  2.1275
   88MOL0     H11816   9.768   0.341   8.315  2.1099  0.6734 -0.5437
   88MOL0     H11817   9.596   0.506   8.512  0.9900  0.0730 -0.2691
   88MOL0     H11818   9.563   0.509   8.343 -2.2623  1.0347  1.4290
   88MOL0     H11819   9.526   0.262   8.332 -0.8904 -0.3351  0.0270
   88MOL0     H11820   9.592   0.256   8.501  1.9581 -0.5619 -0.5422
   88MOL0     H11821   9.394   0.380   8.581 -0.6310 -0.8309  0.2982
   88MOL0     H11822   9.346   0.403   8.413 -0.6530 -0.0888  0.8828
   88MOL0     H11823   9.347   0.145   8.396 -2.3508  2.5668 -3.0931
   88MOL0     H11824   9.344   0.146   8.571  1.3278 -2.0110 -0.9703
   88MOL0     H11825   9.122   0.282   8.555  0.1235 -0.6041  1.5439
   88MOL0     H11826   9.133   0.270   8.381 -0.0785  1.3579  1.0861
   88MOL0     H11827   9.110   0.024   8.402 -0.0979 -0.8494  0.1304
   88MOL0     H11828   9.132   0.033   8.583 -4.4987 -0.3834  2.0998
   88MOL0     H11829   8.884   0.175   8.457  1.8934  0.2684 -0.7334
   88MOL0     H11830   8.918   0.141   8.628 -0.8499 -0.4795  0.4835
   88MOL0     H11831   8.989  -0.149   8.680 -0.3477  0.3223  0.2498
   88MOL0     H11832   8.687  -0.394   8.548  0.1247  1.2331  0.8041
   88MOL0     H11833   8.833  -0.438   8.633  0.3360 -0.0305 -2.7139
   88MOL0     H11834   8.578  -0.311   8.727  0.5169 -0.8401 -2.0190
   88MOL0     H11835   8.724  -0.236   8.796  0.6258  1.4416 -1.1543
   88MOL0     H11836   8.634  -0.425   8.933 -2.2566  2.0282 -1.4765
   88MOL0     H11837   8.809  -0.456   8.877  0.4183 -1.9381 -0.8317
   88MOL0     H11838   8.661  -0.655   8.880 -1.4992  2.7214  0.9850
   88MOL0     H11839   8.735  -0.613   8.719  0.0196 -1.1035  0.2356
   88MOL0     H11840   8.354  -0.534   8.570  0.5201 -1.3321  0.5939
   88MOL0     H11841   8.038  -0.386   8.662  0.1186  2.1324 -1.3317
   88MOL0     H11842   8.135  -0.429   8.512  0.6729 -0.6520  0.4059
   88MOL0     H11843   8.028  -0.545   8.566 -0.3200  2.9290 -3.4897
   88MOL0     H11844   7.764  -0.583   9.029 -1.6716 -0.8464  1.1500
   88MOL0     H11845   7.517  -0.486   9.059  2.8683  2.0704  1.4342
   88MOL0     H11846   7.391  -0.155   8.791  0.3612  1.1678  4.3731
   88MOL0     H11847   7.328  -0.307   8.713  0.5491 -0.8133 -0.2264
   88MOL0     H11848   7.213  -0.186   8.975 -0.1784 -2.6301  0.1039
   88MOL0     H11849   7.168  -0.111   8.820  0.3126  0.1147  1.2309
   88MOL0     H11850   7.112  -0.374   8.758  2.1224 -1.0688  0.0706
   88MOL0     H11851   7.004  -0.273   8.854  0.5203 -0.1024  0.7874
   88MOL0     H11852   7.179  -0.496   8.963 -0.8101 -0.4275  0.1159
   88MOL0     H11853   7.115  -0.369   9.061 -2.1425  0.0663  1.6223
   88MOL0     H11854   6.977  -0.569   9.048  3.5736  1.0377 -0.1673
   88MOL0     H11855   6.936  -0.535   8.873 -1.0336 -1.3152  0.6450
   88MOL0     H11856   6.861  -0.411   9.143 -0.7559  1.1227  0.9213
   88MOL0     H11857   6.869  -0.300   9.018  2.9030 -0.4451  2.4737
   88MOL0     H11858   6.711  -0.561   8.965  0.6539 -0.3580  1.7324
   88MOL0     H11859   6.702  -0.404   8.877  1.2827 -0.3744 -0.4821
   88MOL0     H11860   6.511  -0.455   9.046  0.1180  0.1189 -1.2360
   88MOL0     H11861   6.598  -0.318   9.083 -3.5189 -1.6582  1.6662
   88MOL0     H11862   7.568  -0.286   8.688 -1.2793 -1.4908  0.1930
   88MOL0     H11863   7.786  -0.371   8.664 -0.4654 -1.9695 -0.9056
   88MOL0     H11864   8.222  -0.578   9.048 -0.2404  2.7314 -0.3977
   88MOL0     H11865   8.464  -0.604   8.981  1.4848 -1.1097 -2.3085
   88MOL0     H11866  10.015   0.452   8.326 -2.7514 -0.0344  1.2708
   88MOL0     H11867  10.219   0.348   8.258 -3.5227  2.2773 -1.8900
   88MOL0     H11868  10.491  -0.006   8.225 -1.7362 -1.8208  2.0771
   88MOL0     H11869  10.686  -0.070   8.140 -2.3963 -0.3426  0.4003
   88MOL0     H11870  11.121  -0.104   8.265  0.4410  0.5102 -1.5443
   88MOL0     H11871  11.115   0.049   8.337  1.0867 -0.3115 -1.8046
   88MOL0     H11872  11.043  -0.226   8.467  2.0054 -0.5809  2.8589
   88MOL0     H11873  10.991  -0.067   8.529 -1.9957  0.1530 -1.3952
   88MOL0     H11874  11.194  -0.134   8.639  2.7049  3.0279  1.5777
   88MOL0     H11875  11.204   0.009   8.534 -1.5357 -0.2098 -3.2135
   88MOL0     H11876  11.399  -0.126   8.533  0.2024  0.0726 -0.4077
   88MOL0     H11877  11.316  -0.111   8.368  1.8959 -2.8780 -1.5631
   88MOL0     H11878  11.317  -0.528   8.462 -0.6473 -0.2966 -1.1017
   88MOL0     H11879  10.887   0.136   8.478 -0.2222 -0.2541 -0.0509
   88MOL0     H11880  10.679   0.208   8.551 -1.4684  0.8185 -0.6770
   89MOL0     O11881   2.499   3.434   3.784  0.4670 -0.4130 -0.2791
   89MOL0     C11882   2.449   3.327   3.756  0.8788  0.1337  0.3988
   89MOL0     O11883   2.495   3.236   3.662 -0.1754 -0.3056  0.4696
   89MOL0     C11884   2.607   3.268   3.588 -0.7450 -0.6850  0.6695
   89MOL0     C11885   2.723   3.329   3.632  1.0032  0.1677 -0.8775
   89MOL0     C11886   2.831   3.350   3.543 -0.0069 -0.7148 -0.1243
   89MOL0     C11887   2.818   3.319   3.408 -0.2379  0.2401 -0.0320
   89MOL0     O11888   2.932   3.331   3.336  0.2866 -0.5565  0.3713
   89MOL0     C11889   2.929   3.317   3.194 -0.9821 -0.2904  0.8983
   89MOL0     C11890   2.993   3.189   3.135 -0.1173  0.7623 -0.2292
   89MOL0     C11891   3.111   3.225   3.046  0.7341  0.6049  0.0115
   89MOL0     C11892   3.177   3.094   2.992 -0.6400 -1.0118  0.6492
   89MOL0     C11893   3.321   3.125   2.926 -0.2691  0.7488  1.0810
   89MOL0     C11894   3.382   3.001   2.853 -0.6372  0.2354 -0.1472
   89MOL0     C11895   3.298   2.951   2.739 -0.4209  1.5756  0.1517
   89MOL0     C11896   3.270   3.048   2.624 -1.2547 -0.3071  0.1012
   89MOL0     N11897   3.176   2.979   2.530 -0.0180 -0.4303 -0.2643
   89MOL0     C11898   3.212   2.925   2.411  1.0173  0.7667  0.4356
   89MOL0     C11899   3.090   2.894   2.351 -1.1034 -0.1291  0.8268
   89MOL0     C11900   3.061   2.835   2.213  0.4655  0.8198  0.1777
   89MOL0     C11901   3.032   2.689   2.214 -0.4612  0.4101 -0.2091
   89MOL0     C11902   2.923   2.640   2.309 -0.1913 -0.1221 -0.0830
   89MOL0     C11903   2.781   2.696   2.298  0.4322  0.0122  0.6627
   89MOL0     O11904   2.716   2.641   2.185 -0.1142  0.3053  0.6938
   89MOL0     C11905   2.584   2.681   2.163 -1.0219  0.2246 -0.3234
   89MOL0     C11906   2.516   2.607   2.066  0.4323 -0.8533  0.1142
   89MOL0     C11907   2.382   2.630   2.044  0.3644  0.1237 -0.2332
   89MOL0     C11908   2.321   2.569   1.918  0.6548  0.6045 -0.8617
   89MOL0     C11909   2.318   2.711   2.138  1.0439  0.7429 -0.1359
   89MOL0     C11910   2.168   2.717   2.137  0.5393 -0.0941 -0.4127
   89MOL0     O11911   2.119   2.835   2.178 -0.0833  0.2441  0.3234
   89MOL0     C11912   1.982   2.849   2.178 -0.2169  0.6237  0.3629
   89MOL0     C11913   1.918   2.905   2.066  0.1973 -0.9949  0.0914
   89MOL0     C11914   1.785   2.941   2.069 -0.7691  0.8220  0.5148
   89MOL0     C11915   1.699   2.893   2.174  0.2117 -0.5798 -0.2775
   89MOL0     O11916   1.567   2.901   2.134  0.1194  0.1576 -0.1600
   89MOL0     C11917   1.466   2.837   2.215 -1.0905 -0.0259 -0.2083
   89MOL0     C11918   1.342   2.813   2.131 -0.1714  0.4592 -0.5736
   89MOL0     C11919   1.288   2.948   2.086  0.3762 -0.1877 -0.3981
   89MOL0     C11920   1.137   2.958   2.086 -0.0601 -0.2743  0.4072
   89MOL0     C11921   1.079   3.097   2.030  0.2071  0.4008 -0.9980
   89MOL0     C11922   0.927   3.086   2.031 -0.8228 -0.6672  0.3147
   89MOL0     C11923   0.862   3.060   2.163  0.5582  0.9015 -0.7137
   89MOL0     C11924   0.710   3.042   2.154  0.7581  0.4239  0.4152
   89MOL0    Cl11925   0.646   2.987   2.313  0.3857  0.0586 -0.2626
   89MOL0     C11926   1.756   2.820   2.285  0.1768 -0.0207  0.7640
   89MOL0     C11927   1.903   2.797   2.283  1.3605  0.4382 -0.9147
   89MOL0     O11928   2.096   2.620   2.105 -0.4954  0.5396  0.2971
   89MOL0     C11929   2.380   2.797   2.227  0.1783 -0.6170 -0.2048
   89MOL0     C11930   2.517   2.785   2.235 -0.3916 -0.0958 -0.2412
   89MOL0     N11931   2.984   2.945   2.431  0.8691 -0.7026  0.5282
   89MOL0     N11932   3.041   2.995   2.541 -0.3509  0.6994  0.1334
   89MOL0     C11933   2.696   3.262   3.364  0.0616  0.0510  0.0607
   89MOL0     C11934   2.592   3.245   3.448  0.3906  1.3695 -0.1387
   89MOL0     C11935   2.333   3.276   3.833 -1.0944 -0.4594  0.8815
   89MOL0     C11936   2.272   3.146   3.807  0.7640 -0.9557 -0.5885
   89MOL0     C11937   2.153   3.111   3.871 -0.2942  0.3371  0.3865
   89MOL0     C11938   2.093   3.192   3.969  0.0871  0.0835  0.7533
   89MOL0     O11939   1.970   3.162   4.027 -0.0318 -0.6966  0.8070
   89MOL0     C11940   1.897   3.050   3.972  0.2103  1.2862 -0.8146
   89MOL0     C11941   1.822   3.081   3.849  0.2305 -0.3005 -0.1318
   89MOL0     C11942   1.739   3.212   3.866  0.0895  0.1333  0.3654
   89MOL0     C11943   1.666   3.219   3.726 -0.0320 -0.8029  0.0161
   89MOL0     C11944   1.542   3.290   3.736 -0.2715  0.4540 -0.0484
   89MOL0     C11945   1.446   3.355   3.760 -0.3079 -0.6364  0.4376
   89MOL0     C11946   2.154   3.315   4.005  0.5164  0.4713 -0.2907
   89MOL0     C11947   2.272   3.352   3.934 -0.4953  0.5006 -0.7336
   89MOL0     H11948   2.729   3.355   3.737  0.0938 -1.8104 -0.2885
   89MOL0     H11949   2.921   3.396   3.582  1.6203 -2.5309 -1.5174
   89MOL0     H11950   2.827   3.334   3.156 -0.8034  3.0564  1.6422
   89MOL0     H11951   2.970   3.408   3.149 -0.3520 -0.0747  1.8718
   89MOL0     H11952   3.027   3.128   3.220 -0.6942  2.1732  1.0755
   89MOL0     H11953   2.915   3.127   3.091 -0.6902 -0.2246  2.0340
   89MOL0     H11954   3.081   3.284   2.959  2.6034 -0.1346 -1.1984
   89MOL0     H11955   3.184   3.289   3.097  0.2434  0.2232  1.2409
   89MOL0     H11956   3.188   3.024   3.075 -3.1307 -0.4983  1.5105
   89MOL0     H11957   3.107   3.060   2.915  0.7011  1.2901 -1.7443
   89MOL0     H11958   3.309   3.206   2.854 -2.5717 -1.3872 -1.1301
   89MOL0     H11959   3.399   3.156   2.996  1.0039 -3.0476  1.6082
   89MOL0     H11960   3.483   3.023   2.819  0.2726 -1.9643  0.9318
   89MOL0     H11961   3.401   2.916   2.920  1.6816 -0.9687 -2.1965
   89MOL0     H11962   3.343   2.858   2.703 -1.7282  1.0760 -0.2435
   89MOL0     H11963   3.203   2.912   2.777  0.9516 -0.7738  1.3825
   89MOL0     H11964   3.366   3.072   2.578 -1.3619 -2.7678 -1.6328
   89MOL0     H11965   3.234   3.138   2.674  4.6975  2.6122 -0.0035
   89MOL0     H11966   3.312   2.918   2.369  0.1191  0.7772 -1.8610
   89MOL0     H11967   2.980   2.891   2.165  0.1070 -0.7163 -1.0784
   89MOL0     H11968   3.156   2.858   2.164  1.2070 -0.1869  1.1015
   89MOL0     H11969   3.121   2.627   2.232 -2.0356 -1.1089  3.1528
   89MOL0     H11970   2.985   2.659   2.120 -1.8249  1.8272 -0.0202
   89MOL0     H11971   2.954   2.658   2.412  0.2886 -0.5698 -0.1440
   89MOL0     H11972   2.921   2.536   2.276  0.2523  0.1974 -1.1554
   89MOL0     H11973   2.789   2.805   2.289  0.3705  0.0789  1.3824
   89MOL0     H11974   2.723   2.676   2.388 -0.3471  1.0686  0.4111
   89MOL0     H11975   2.572   2.533   2.009  2.2819  0.4613  0.1166
   89MOL0     H11976   2.354   2.465   1.910 -1.5288 -0.5956  3.1595
   89MOL0     H11977   2.211   2.572   1.918  0.6203  2.8529 -3.2538
   89MOL0     H11978   2.350   2.630   1.832  3.0143  1.9978  0.8137
   89MOL0     H11979   1.973   2.926   1.975  0.4543 -0.2866  0.4016
   89MOL0     H11980   1.740   2.978   1.977 -3.0633 -2.2628  0.2399
   89MOL0     H11981   1.496   2.740   2.257  1.8485  1.4935  1.5395
   89MOL0     H11982   1.450   2.891   2.309  1.3438  0.8117 -0.2181
   89MOL0     H11983   1.371   2.752   2.046  0.6257  0.5702 -0.3945
   89MOL0     H11984   1.272   2.749   2.186 -0.7160  0.9740 -0.6592
   89MOL0     H11985   1.331   2.960   1.985  1.1100  1.1525  0.0475
   89MOL0     H11986   1.334   3.027   2.146  0.1316  1.3284 -2.1165
   89MOL0     H11987   1.091   2.870   2.039  0.7624 -0.4425 -0.0919
   89MOL0     H11988   1.109   2.942   2.191  4.1581  1.0359  1.9112
   89MOL0     H11989   1.112   3.123   1.929  0.2777  0.0492 -1.0687
   89MOL0     H11990   1.127   3.182   2.079 -1.6811  1.9885 -1.7771
   89MOL0     H11991   0.882   3.178   1.993  2.0390  1.1174  0.9784
   89MOL0     H11992   0.906   3.005   1.961  2.6976 -1.6397  0.1940
   89MOL0     H11993   0.890   3.143   2.229  2.1717  0.2850 -0.5788
   89MOL0     H11994   0.900   2.964   2.198 -0.5509  0.7098  0.0151
   89MOL0     H11995   0.690   2.964   2.081 -3.2631  2.2809 -0.7656
   89MOL0     H11996   0.657   3.127   2.110  1.5890 -0.2096 -1.9272
   89MOL0     H11997   1.691   2.783   2.364 -1.9028 -2.0604 -1.6756
   89MOL0     H11998   1.954   2.757   2.370 -1.0265 -1.9293 -0.4958
   89MOL0     H11999   2.335   2.878   2.284  0.3256  1.3003 -2.6435
   89MOL0     H12000   2.560   2.849   2.312  1.0153  1.0448 -1.9001
   89MOL0     H12001   2.672   3.237   3.260  1.1288 -0.5853 -0.0470
   89MOL0     H12002   2.506   3.185   3.420  0.6743 -0.2182  2.0952
   89MOL0     H12003   2.317   3.090   3.725  2.8866 -0.2893  0.0595
   89MOL0     H12004   2.122   3.012   3.840  1.8581 -1.3956  3.1873
   89MOL0     H12005   1.970   2.969   3.971 -1.3923 -0.3896  2.0555
   89MOL0     H12006   1.830   3.017   4.053  3.4392 -2.2710  0.7568
   89MOL0     H12007   1.751   3.002   3.822  0.7188 -1.2197  1.2161
   89MOL0     H12008   1.897   3.079   3.769  1.3622 -3.2337  0.8604
   89MOL0     H12009   1.808   3.297   3.870 -0.0148  0.4758 -2.7884
   89MOL0     H12010   1.687   3.201   3.961  1.7742  2.8025  1.7125
   89MOL0     H12011   1.647   3.118   3.690  0.1607 -2.0022  3.0188
   89MOL0     H12012   1.750   3.258   3.667  2.4951 -0.9825  3.1859
   89MOL0     H12013   1.357   3.416   3.766 -0.4179 -0.7052 -0.4109
   89MOL0     H12014   2.118   3.391   4.074  0.8990 -0.2429  0.7124
   89MOL0     H12015   2.321   3.446   3.961  1.2525 -0.3555 -0.7402
   90MOL0     O12016   4.225   0.173   9.408 -0.0030  0.0824 -0.9078
   90MOL0     C12017   4.128   0.250   9.416 -0.1574  0.1075  0.8344
   90MOL0     O12018   4.025   0.249   9.510  0.5549  0.3607 -0.7654
   90MOL0     C12019   4.007   0.142   9.595 -0.0547  0.7231 -0.6970
   90MOL0     C12020   3.984   0.165   9.731  1.5567 -0.6450  0.7701
   90MOL0     C12021   3.953   0.056   9.819  0.3396 -0.3001 -0.0616
   90MOL0     C12022   3.952  -0.075   9.769  0.1933  0.9756  0.2191
   90MOL0     O12023   3.933  -0.178   9.862 -0.5247  0.2153  0.0807
   90MOL0     C12024   3.924  -0.312   9.805 -0.3403  0.1855 -0.4150
   90MOL0     C12025   3.896  -0.424   9.914 -0.1811  0.0477 -0.2054
   90MOL0     C12026   3.762  -0.415   9.979 -0.1201  0.7094 -0.0085
   90MOL0     C12027   3.655  -0.474   9.889 -0.3828  0.0343  0.9705
   90MOL0     C12028   3.519  -0.458   9.942  0.9040  0.3247 -0.3743
   90MOL0     C12029   3.403  -0.507   9.861  0.3556  0.0073 -0.1617
   90MOL0     C12030   3.259  -0.470   9.914 -0.3258  0.3464  0.2070
   90MOL0     C12031   3.143  -0.509   9.817 -0.3902 -0.2983  0.3605
   90MOL0     N12032   3.078  -0.637   9.851 -0.0562  0.0151 -0.1098
   90MOL0     C12033   2.971  -0.643   9.935  0.7653  0.0790 -0.7984
   90MOL0     C12034   2.929  -0.774   9.937 -0.8159 -0.4680 -0.8061
   90MOL0     C12035   2.829  -0.830  10.031  0.2436 -0.8861 -0.0380
   90MOL0     C12036   2.692  -0.766  10.009 -1.0591  0.8816  0.6065
   90MOL0     C12037   2.623  -0.736  10.141  0.2712 -0.0183 -1.1810
   90MOL0     C12038   2.522  -0.842  10.190  0.4733  0.1250  1.2428
   90MOL0     O12039   2.457  -0.780  10.304  0.6459  0.2993  0.1441
   90MOL0     C12040   2.319  -0.743  10.299  0.0314 -0.2506  0.5355
   90MOL0     C12041   2.251  -0.747  10.413  0.0000  0.3833  0.0679
   90MOL0     C12042   2.112  -0.730  10.419  0.9100  0.8819 -1.0556
   90MOL0     C12043   2.050  -0.757  10.550 -0.1003 -0.4354  0.2257
   90MOL0     C12044   2.042  -0.687  10.305 -0.5486  0.5959  0.0777
   90MOL0     C12045   1.893  -0.682  10.302  0.0301  0.5563  0.5373
   90MOL0     O12046   1.843  -0.587  10.214  0.1632  0.8262  0.5448
   90MOL0     C12047   1.710  -0.577  10.179  0.2208 -0.1315  0.2831
   90MOL0     C12048   1.674  -0.485  10.084  0.9744 -0.5478  0.4124
   90MOL0     C12049   1.544  -0.475  10.035  0.2023 -0.6296 -0.0600
   90MOL0     C12050   1.443  -0.552  10.084  0.1679  0.9214 -0.2056
   90MOL0     O12051   1.313  -0.535  10.056  0.2495  0.1307  0.3941
   90MOL0     C12052   1.260  -0.423   9.985 -0.4554  0.3947 -0.1537
   90MOL0     C12053   1.121  -0.450   9.934 -0.2900  0.2271 -1.0398
   90MOL0     C12054   1.081  -0.340   9.836 -0.2607  0.2981  0.6521
   90MOL0     C12055   0.951  -0.374   9.768  0.7251 -0.4546 -0.5047
   90MOL0     C12056   0.845  -0.312   9.857  0.3064 -0.2302  0.5351
   90MOL0     C12057   0.707  -0.366   9.824  0.3506  0.6174 -0.1295
   90MOL0     C12058   0.594  -0.299   9.914 -0.0976 -0.3227 -0.3785
   90MOL0     C12059   0.467  -0.302   9.828  0.0511  0.1075  0.5897
   90MOL0    Cl12060   0.324  -0.255   9.925  0.3048 -0.3153 -0.5703
   90MOL0     C12061   1.480  -0.650  10.173 -0.5502  0.8255 -0.1566
   90MOL0     C12062   1.608  -0.662  10.224 -0.0829  0.2014  0.3789
   90MOL0     O12063   1.832  -0.762  10.373  0.0684  0.4130 -0.1890
   90MOL0     C12064   2.117  -0.680  10.188  0.0850  0.1186  0.4313
   90MOL0     C12065   2.256  -0.698  10.181  0.4879  0.1562  0.6390
   90MOL0     N12066   3.016  -0.838   9.851 -0.4497  0.0611 -0.4480
   90MOL0     N12067   3.114  -0.757   9.822 -0.7720 -0.5978 -0.3196
   90MOL0     C12068   3.974  -0.096   9.634  0.4765  0.6903 -0.2664
   90MOL0     C12069   4.013   0.006   9.548  0.9034 -0.1261 -0.2385
   90MOL0     C12070   4.125   0.360   9.319 -0.6802  0.3155  0.4438
   90MOL0     C12071   4.013   0.458   9.307 -0.7470 -0.2830 -2.2585
   90MOL0     C12072   4.019   0.561   9.219 -1.4264  0.5025  0.3879
   90MOL0     C12073   4.137   0.587   9.149  0.4192 -0.0281  0.9001
   90MOL0     O12074   4.132   0.700   9.077 -0.1451 -0.3793  0.1090
   90MOL0     C12075   4.198   0.710   8.944  0.2214 -0.1081 -0.0920
   90MOL0     C12076   4.237   0.857   8.928  0.0079  0.1718  0.3355
   90MOL0     C12077   4.309   0.920   9.057  0.9979 -0.1067 -0.1214
   90MOL0     C12078   4.400   1.033   9.019 -0.9072 -0.0396  0.1923
   90MOL0     C12079   4.339   1.172   9.017  0.0609  0.5617 -0.0277
   90MOL0     C12080   4.301   1.286   9.010 -0.7340  0.0662 -0.6228
   90MOL0     C12081   4.243   0.501   9.158 -0.4435 -1.5738 -0.0186
   90MOL0     C12082   4.237   0.387   9.238  0.0925  0.4307 -0.0866
   90MOL0     H12083   3.995   0.266   9.769  2.7272 -0.2937 -0.4257
   90MOL0     H12084   3.933   0.079   9.924  1.1579  3.4783 -0.5823
   90MOL0     H12085   3.841  -0.305   9.734 -1.4532 -1.2497  0.6729
   90MOL0     H12086   4.015  -0.337   9.750  0.5574 -0.0107  1.0991
   90MOL0     H12087   3.901  -0.523   9.869  1.0806  0.2255 -0.4959
   90MOL0     H12088   3.972  -0.428   9.992 -1.1426 -1.9931  0.6944
   90MOL0     H12089   3.768  -0.472  10.072  2.6430  2.8372  1.2805
   90MOL0     H12090   3.752  -0.309  10.006  0.8889  0.3548  1.9570
   90MOL0     H12091   3.653  -0.422   9.793 -2.1870  0.7198  1.3548
   90MOL0     H12092   3.679  -0.579   9.869 -0.2083  0.6762 -3.1820
   90MOL0     H12093   3.512  -0.509  10.038  0.6482 -1.4527 -1.2933
   90MOL0     H12094   3.503  -0.351   9.961 -0.9515 -0.1963  1.2417
   90MOL0     H12095   3.411  -0.468   9.759 -3.6834 -0.3391 -0.7493
   90MOL0     H12096   3.420  -0.614   9.847 -0.1722 -0.0783 -0.1655
   90MOL0     H12097   3.239  -0.515  10.012  3.1704  0.7645  1.2429
   90MOL0     H12098   3.247  -0.363   9.934  1.1096  0.6555 -0.4378
   90MOL0     H12099   3.173  -0.516   9.712  1.0082 -0.9574  0.7832
   90MOL0     H12100   3.065  -0.432   9.820 -1.2875 -1.1277  3.6963
   90MOL0     H12101   2.925  -0.572  10.002  1.1199 -1.0261  0.6572
   90MOL0     H12102   2.816  -0.935  10.004 -1.3763 -0.3200 -1.7448
   90MOL0     H12103   2.866  -0.824  10.133 -0.1369 -1.8858  0.1667
   90MOL0     H12104   2.635  -0.832   9.943  1.9320  0.5914 -1.8850
   90MOL0     H12105   2.710  -0.669   9.962  0.3251  0.8241  0.9643
   90MOL0     H12106   2.566  -0.644  10.124 -0.7434 -0.5764 -0.8896
   90MOL0     H12107   2.689  -0.705  10.222 -2.4101  1.4022  0.6007
   90MOL0     H12108   2.567  -0.937  10.221 -2.5379 -0.9099  2.7816
   90MOL0     H12109   2.453  -0.875  10.112  0.5267  0.5046  1.0327
   90MOL0     H12110   2.303  -0.782  10.501 -1.3229  1.5921  1.3899
   90MOL0     H12111   2.126  -0.747  10.628  0.9390 -1.4890 -0.6119
   90MOL0     H12112   1.964  -0.696  10.580 -2.1975 -2.1268 -1.9847
   90MOL0     H12113   2.017  -0.862  10.552 -1.1537 -0.1145  0.6816
   90MOL0     H12114   1.749  -0.424  10.034  1.9354 -1.6628  0.4659
   90MOL0     H12115   1.519  -0.399   9.962 -0.4716 -1.6941 -0.9691
   90MOL0     H12116   1.253  -0.341  10.057  1.0258 -1.5450  2.3708
   90MOL0     H12117   1.332  -0.408   9.903  1.4701 -2.1939  0.9228
   90MOL0     H12118   1.105  -0.551   9.896 -1.2155  0.1919 -0.5982
   90MOL0     H12119   1.062  -0.455  10.026 -0.9432 -3.3808 -1.5051
   90MOL0     H12120   1.152  -0.335   9.753 -1.7829  1.1865 -0.6417
   90MOL0     H12121   1.086  -0.244   9.887  0.6531  0.6962 -0.1566
   90MOL0     H12122   0.947  -0.326   9.670 -1.4042 -1.8224 -1.1553
   90MOL0     H12123   0.927  -0.479   9.749 -0.8262 -0.3081  0.4747
   90MOL0     H12124   0.846  -0.205   9.834  2.0345 -0.9078 -3.3398
   90MOL0     H12125   0.853  -0.334   9.964 -1.8919  0.1380  0.8235
   90MOL0     H12126   0.681  -0.342   9.721  1.1662  0.0933 -0.4653
   90MOL0     H12127   0.695  -0.474   9.832 -0.0005  0.5517 -1.4050
   90MOL0     H12128   0.608  -0.192   9.933 -1.0171 -0.2297 -0.1816
   90MOL0     H12129   0.573  -0.345  10.011 -2.2730  0.3385 -0.4884
   90MOL0     H12130   0.457  -0.398   9.776  0.5950  1.5608 -2.4023
   90MOL0     H12131   0.478  -0.229   9.747  1.4454 -0.7422 -0.0208
   90MOL0     H12132   1.407  -0.726  10.199 -1.8024  0.9426 -2.9536
   90MOL0     H12133   1.616  -0.740  10.299  1.7254  0.0805  0.0957
   90MOL0     H12134   2.051  -0.667  10.103 -1.6931 -0.0961  1.7254
   90MOL0     H12135   2.314  -0.696  10.089  2.3665  1.2786  1.8068
   90MOL0     H12136   3.954  -0.189   9.581 -0.8962  0.6690  0.2377
   90MOL0     H12137   4.041  -0.017   9.446  0.3648 -2.0185  0.0033
   90MOL0     H12138   3.925   0.441   9.367  1.3427  0.5687  1.3594
   90MOL0     H12139   3.934   0.626   9.198 -1.9110  0.4008  1.9272
   90MOL0     H12140   4.287   0.647   8.954  1.8836  1.9098 -1.3072
   90MOL0     H12141   4.131   0.676   8.865 -0.6296 -1.1325  1.0149
   90MOL0     H12142   4.152   0.919   8.900  2.2836  3.7674  0.7611
   90MOL0     H12143   4.302   0.862   8.840 -0.2591 -0.1622  0.1225
   90MOL0     H12144   4.366   0.840   9.105  2.2662  2.1515  2.3668
   90MOL0     H12145   4.223   0.956   9.114  2.4575  1.4652  1.1983
   90MOL0     H12146   4.453   1.016   8.925 -2.7926 -1.4650 -0.6956
   90MOL0     H12147   4.479   1.026   9.094 -0.4316 -0.1422 -0.3087
   90MOL0     H12148   4.259   1.384   9.015 -1.3471 -0.1845 -0.7636
   90MOL0     H12149   4.332   0.520   9.099 -0.9384  0.5943 -0.1450
   90MOL0     H12150   4.314   0.311   9.233 -0.8621 -0.5985  0.2739
   91MOL0     O12151   5.408  10.035   1.550 -0.5345 -0.3032 -0.7051
   91MOL0     C12152   5.456   9.990   1.652 -0.3727  0.5331 -1.4099
   91MOL0     O12153   5.407   9.888   1.727  0.3670 -0.7851  0.7399
   91MOL0     C12154   5.281   9.844   1.712  0.1904  0.5365 -0.6444
   91MOL0     C12155   5.170   9.922   1.684 -0.4651 -0.1754  0.0843
   91MOL0     C12156   5.040   9.872   1.687 -0.7738 -0.2106  0.3826
   91MOL0     C12157   5.024   9.734   1.700  0.2793  0.0041  0.5098
   91MOL0     O12158   4.902   9.677   1.686  0.8033  0.5365 -1.1221
   91MOL0     C12159   4.783   9.755   1.657  0.1878 -0.1182 -0.0714
   91MOL0     C12160   4.657   9.677   1.674  0.5345  0.0755 -0.1987
   91MOL0     C12161   4.528   9.751   1.632 -0.3291 -0.0599  0.5931
   91MOL0     C12162   4.407   9.653   1.623  0.3872  0.5954  0.1257
   91MOL0     C12163   4.351   9.631   1.758  0.3148  0.3809 -0.8890
   91MOL0     C12164   4.252   9.519   1.758 -0.2494  0.3686  0.1530
   91MOL0     C12165   4.165   9.508   1.890 -0.0888 -0.2118 -0.2246
   91MOL0     C12166   4.056   9.403   1.895 -0.5281  0.9422  0.0020
   91MOL0     N12167   3.974   9.415   2.017  0.4726  0.6715 -0.4445
   91MOL0     C12168   3.865   9.501   2.034 -0.2678 -0.5738  0.7471
   91MOL0     C12169   3.822   9.473   2.157  1.0827  0.1767  0.1774
   91MOL0     C12170   3.698   9.534   2.225  0.3809  0.4512 -0.4862
   91MOL0     C12171   3.556   9.490   2.178 -0.4959  0.3726  0.8697
   91MOL0     C12172   3.529   9.338   2.209  0.1831  0.1266 -0.0205
   91MOL0     C12173   3.387   9.297   2.160 -0.5685  0.1440  0.3823
   91MOL0     O12174   3.276   9.334   2.251 -0.2578  0.2867  0.3270
   91MOL0     C12175   3.153   9.289   2.221 -0.5089 -0.1595 -0.0012
   91MOL0     C12176   3.117   9.193   2.118 -0.3824  0.5223 -1.2263
   91MOL0     C12177   2.983   9.181   2.078 -0.4549  0.0142 -0.6763
   91MOL0     C12178   2.952   9.107   1.949  0.2801 -0.3419 -0.8635
   91MOL0     C12179   2.885   9.247   2.155 -0.4268  0.2712  0.2690
   91MOL0     C12180   2.739   9.244   2.125  0.0908 -0.0952 -0.0806
   91MOL0     O12181   2.657   9.311   2.216 -0.1781 -0.7830  0.0642
   91MOL0     C12182   2.522   9.312   2.224 -0.4128 -0.9578  0.3502
   91MOL0     C12183   2.469   9.409   2.307 -0.3423  0.6813  0.0066
   91MOL0     C12184   2.332   9.426   2.338  0.0294  1.3607 -0.7447
   91MOL0     C12185   2.239   9.331   2.293 -0.1105 -0.9585  0.8492
   91MOL0     O12186   2.104   9.346   2.328  0.0303  0.6475  0.1907
   91MOL0     C12187   1.999   9.275   2.254 -0.3875  0.0087  0.5868
   91MOL0     C12188   1.864   9.315   2.305  0.8035  0.2245 -0.5780
   91MOL0     C12189   1.745   9.230   2.240 -0.5250 -0.5863 -0.2238
   91MOL0     C12190   1.598   9.279   2.273 -0.2348 -0.7239 -0.1577
   91MOL0     C12191   1.489   9.198   2.200 -0.2242  0.5513 -0.2165
   91MOL0     C12192   1.346   9.239   2.252 -0.0920  0.4722  0.9440
   91MOL0     C12193   1.245   9.139   2.203 -0.3310  0.6651  0.3262
   91MOL0     C12194   1.111   9.200   2.204 -0.7597 -0.0653 -0.5001
   91MOL0    Cl12195   0.987   9.095   2.115  0.1111  0.0901 -0.0644
   91MOL0     C12196   2.289   9.230   2.197 -0.0433 -0.6620 -0.2849
   91MOL0     C12197   2.430   9.220   2.166  0.9413 -0.0233 -0.4414
   91MOL0     O12198   2.693   9.171   2.037 -0.3608  0.2222 -0.2653
   91MOL0     C12199   2.921   9.334   2.266  0.5822  0.4314 -0.6123
   91MOL0     C12200   3.057   9.349   2.299  0.0095 -0.4345  0.1245
   91MOL0     N12201   3.910   9.385   2.226  0.3253 -0.1428  1.0949
   91MOL0     N12202   4.005   9.363   2.141  0.0447  0.5026 -0.0570
   91MOL0     C12203   5.132   9.646   1.718  0.1790  0.1476  0.0764
   91MOL0     C12204   5.257   9.703   1.722 -0.1252  0.0972 -0.9351
   91MOL0     C12205   5.585  10.050   1.710  0.2767 -0.3107  0.0033
   91MOL0     C12206   5.640  10.023   1.838  0.4007 -0.8657  0.5659
   91MOL0     C12207   5.759  10.082   1.879 -0.0938 -0.8671 -0.8522
   91MOL0     C12208   5.823  10.176   1.796  0.0592 -0.0427 -0.6375
   91MOL0     O12209   5.931  10.251   1.828  0.4087 -0.0782  0.0817
   91MOL0     C12210   6.039  10.195   1.912  1.6166 -0.3043  0.3249
   91MOL0     C12211   6.139  10.309   1.927 -0.0145  0.1493 -0.7431
   91MOL0     C12212   6.258  10.265   2.010  0.2886 -0.4589 -0.2343
   91MOL0     C12213   6.357  10.187   1.929 -0.4755 -0.1399 -0.3924
   91MOL0     C12214   6.487  10.212   1.993  0.1796  0.1295 -0.0018
   91MOL0     C12215   6.599  10.225   2.039  0.0045 -0.1015 -0.7024
   91MOL0     C12216   5.755  10.219   1.686 -0.0617 -0.2239  0.4214
   91MOL0     C12217   5.638  10.159   1.640 -0.3737 -0.3222  0.3548
   91MOL0     H12218   5.183  10.028   1.667 -0.1658 -0.0967  0.7998
   91MOL0     H12219   4.971   9.956   1.681  0.4497  0.7441 -1.0603
   91MOL0     H12220   4.783   9.842   1.724  1.9358  1.0006 -1.4406
   91MOL0     H12221   4.801   9.799   1.559  1.2301  0.5619  0.4031
   91MOL0     H12222   4.665   9.589   1.609  0.8175 -0.4875  0.5804
   91MOL0     H12223   4.648   9.632   1.773  1.4990  1.8675  0.7484
   91MOL0     H12224   4.508   9.836   1.697  0.6208 -1.0237  2.2260
   91MOL0     H12225   4.542   9.791   1.531 -1.7287  0.4085  0.5711
   91MOL0     H12226   4.319   9.690   1.570 -1.3934 -1.6602  1.3222
   91MOL0     H12227   4.439   9.555   1.586 -0.4067 -0.7802  2.8103
   91MOL0     H12228   4.435   9.598   1.820 -0.6766 -1.6490 -0.5641
   91MOL0     H12229   4.300   9.720   1.795  0.9790  0.8038 -0.9753
   91MOL0     H12230   4.183   9.517   1.673 -0.7977 -1.4968  0.6000
   91MOL0     H12231   4.307   9.425   1.747 -1.2029 -0.1795 -0.0901
   91MOL0     H12232   4.230   9.517   1.977  2.4842  0.6078 -2.1346
   91MOL0     H12233   4.103   9.597   1.905  0.6924  0.3220 -0.1227
   91MOL0     H12234   4.114   9.310   1.895  0.7583  1.7190 -0.4162
   91MOL0     H12235   3.994   9.408   1.805  1.0169  0.9720 -1.0915
   91MOL0     H12236   3.828   9.573   1.962  0.3550 -0.8113  0.1729
   91MOL0     H12237   3.702   9.509   2.331 -1.0695 -0.7769 -0.6924
   91MOL0     H12238   3.689   9.643   2.217  0.9896  0.4356 -1.6264
   91MOL0     H12239   3.548   9.488   2.069  1.8544 -2.3218  0.6423
   91MOL0     H12240   3.479   9.550   2.228  1.1140  1.6766  1.9257
   91MOL0     H12241   3.527   9.301   2.312 -1.2080 -1.5572 -0.5976
   91MOL0     H12242   3.590   9.272   2.146 -0.4659 -1.2200  0.7043
   91MOL0     H12243   3.402   9.189   2.157  2.0277  0.4661 -0.1257
   91MOL0     H12244   3.375   9.333   2.058 -0.6306  0.6399  0.5627
   91MOL0     H12245   3.201   9.156   2.060  0.8324 -0.6055  1.1064
   91MOL0     H12246   3.043   9.098   1.888  0.0228 -0.1579 -1.2852
   91MOL0     H12247   2.920   9.009   1.984 -2.3317  0.9840  0.8163
   91MOL0     H12248   2.881   9.161   1.885 -0.8326 -0.9483 -0.1642
   91MOL0     H12249   2.545   9.477   2.345  0.2668  0.3973 -0.6969
   91MOL0     H12250   2.304   9.506   2.406 -0.7462  0.8552 -0.4480
   91MOL0     H12251   2.008   9.293   2.147 -1.5837  0.9808  0.6204
   91MOL0     H12252   2.010   9.169   2.278  0.6579  0.4012  2.0063
   91MOL0     H12253   1.855   9.298   2.413 -1.2400 -2.7538 -1.0994
   91MOL0     H12254   1.846   9.420   2.280 -4.4615 -0.8484 -2.4791
   91MOL0     H12255   1.760   9.127   2.271 -2.5726 -0.1875  2.4267
   91MOL0     H12256   1.757   9.244   2.132 -2.6086 -1.5461 -0.6283
   91MOL0     H12257   1.582   9.277   2.381  1.7887  0.0994  0.2027
   91MOL0     H12258   1.587   9.387   2.256 -1.5059 -1.0141 -1.3380
   91MOL0     H12259   1.505   9.093   2.228  0.2101  0.6550 -0.0747
   91MOL0     H12260   1.489   9.200   2.090 -0.3441 -0.2258 -0.2365
   91MOL0     H12261   1.341   9.240   2.361 -3.2629 -0.3771  0.9046
   91MOL0     H12262   1.339   9.340   2.211  0.1085 -0.2245 -0.9050
   91MOL0     H12263   1.244   9.046   2.261 -1.8314 -0.1995 -0.9791
   91MOL0     H12264   1.260   9.109   2.099 -0.5651 -0.0109  0.4775
   91MOL0     H12265   1.121   9.304   2.171  0.3469 -0.7291 -2.3802
   91MOL0     H12266   1.076   9.189   2.307 -0.2553  0.5183 -0.2564
   91MOL0     H12267   2.224   9.158   2.149  1.9265 -2.3032 -0.6705
   91MOL0     H12268   2.451   9.134   2.103 -2.2606 -0.8194 -0.5755
   91MOL0     H12269   2.847   9.387   2.324 -0.3658 -2.6208  1.1832
   91MOL0     H12270   3.080   9.431   2.366 -3.9868  0.7914  0.2928
   91MOL0     H12271   5.126   9.538   1.717  1.5689  0.0087  1.6998
   91MOL0     H12272   5.343   9.640   1.744  0.9876  1.1750 -2.0606
   91MOL0     H12273   5.599   9.964   1.919  0.9870 -1.0669  0.7183
   91MOL0     H12274   5.801  10.042   1.971 -1.9079  0.5179  0.6704
   91MOL0     H12275   5.998  10.160   2.007 -4.0786 -0.0932 -1.6558
   91MOL0     H12276   6.082  10.108   1.860  0.8567 -0.1323 -0.6136
   91MOL0     H12277   6.084  10.380   1.990  0.9784  1.3756 -1.2152
   91MOL0     H12278   6.171  10.363   1.837  4.5797 -0.1326  0.4917
   91MOL0     H12279   6.241  10.209   2.102  1.6394  0.2303  0.4630
   91MOL0     H12280   6.285  10.362   2.053 -0.3494 -1.0124  1.5127
   91MOL0     H12281   6.348  10.223   1.826  2.1496  0.6775 -0.4185
   91MOL0     H12282   6.325  10.082   1.933  0.6567 -0.5508  4.2949
   91MOL0     H12283   6.694  10.250   2.081  0.3256  3.0605 -2.9512
   91MOL0     H12284   5.802  10.303   1.637 -2.0934  2.0019  2.0446
   91MOL0     H12285   5.594  10.204   1.552  0.8495  0.6230  0.1865
   92MOL0     O12286  10.402   1.725   6.217 -0.0307  0.1327 -0.7748
   92MOL0     C12287  10.413   1.629   6.147  0.0527  0.2222  0.9068
   92MOL0     O12288  10.306   1.555   6.103 -0.0785 -0.6107  0.2691
   92MOL0     C12289  10.176   1.584   6.139 -0.3885  0.4085  0.4008
   92MOL0     C12290  10.119   1.710   6.155 -0.0190 -1.5223  0.3938
   92MOL0     C12291   9.987   1.729   6.196  0.2520  0.2480 -0.8269
   92MOL0     C12292   9.906   1.614   6.205 -0.0682  0.0962 -0.3106
   92MOL0     O12293   9.774   1.620   6.238  0.1786  0.1269  0.3634
   92MOL0     C12294   9.748   1.679   6.370 -0.4208 -0.1537  0.5239
   92MOL0     C12295   9.611   1.640   6.411  0.1054 -1.0600 -0.3858
   92MOL0     C12296   9.495   1.709   6.335  0.3698 -0.4430  0.1549
   92MOL0     C12297   9.358   1.658   6.380  0.4113 -0.7567 -0.3249
   92MOL0     C12298   9.259   1.747   6.318 -0.1849  0.3844 -0.6683
   92MOL0     C12299   9.124   1.683   6.352  0.1213  0.0130 -0.0361
   92MOL0     C12300   9.080   1.706   6.498 -0.5302 -0.2009 -0.5828
   92MOL0     C12301   8.933   1.659   6.510  0.3791 -0.0034  0.4353
   92MOL0     N12302   8.831   1.739   6.431  0.4743  0.9434  0.0952
   92MOL0     C12303   8.757   1.841   6.484  0.0682 -0.4694 -0.8926
   92MOL0     C12304   8.680   1.880   6.383  0.1263  1.2154 -0.8546
   92MOL0     C12305   8.569   1.982   6.378 -0.4962  0.6055  0.1701
   92MOL0     C12306   8.436   1.917   6.430 -0.0164  0.7680  0.1598
   92MOL0     C12307   8.340   2.040   6.427 -0.6293  0.3561  0.7314
   92MOL0     C12308   8.205   2.018   6.498 -0.2910  0.5573 -0.4220
   92MOL0     O12309   8.227   2.001   6.641 -0.4898 -0.5806  0.4768
   92MOL0     C12310   8.116   2.001   6.718 -0.4324 -0.4079  0.0097
   92MOL0     C12311   8.137   2.009   6.855  0.0994 -0.2735 -0.8699
   92MOL0     C12312   8.033   1.994   6.952 -0.2150  0.2364 -0.2066
   92MOL0     C12313   8.078   2.015   7.093 -0.3346  0.3512 -0.2959
   92MOL0     C12314   7.905   1.972   6.908  0.2275  0.4561  0.2830
   92MOL0     C12315   7.781   1.956   6.996  0.4879 -0.0551 -0.1306
   92MOL0     O12316   7.656   1.942   6.934  0.6628 -0.7933 -0.3631
   92MOL0     C12317   7.540   1.905   7.012  0.6826 -0.3412  0.3234
   92MOL0     C12318   7.506   1.956   7.139 -0.2246  0.4127 -0.0081
   92MOL0     C12319   7.377   1.927   7.197 -0.1770 -0.5322  0.3921
   92MOL0     C12320   7.279   1.855   7.125 -0.2615 -0.5371  0.1475
   92MOL0     O12321   7.151   1.818   7.171 -0.3490 -0.3910  0.4030
   92MOL0     C12322   7.088   1.894   7.279  0.1848  0.3069  0.1485
   92MOL0     C12323   6.945   1.842   7.310  0.6369 -1.1320 -0.5461
   92MOL0     C12324   6.858   1.807   7.186  0.8163  0.8201 -0.7209
   92MOL0     C12325   6.708   1.812   7.211 -0.5389  0.0546 -0.4113
   92MOL0     C12326   6.625   1.754   7.102  0.0693  0.0124  0.3079
   92MOL0     C12327   6.483   1.817   7.101  0.4548  0.7362  0.2757
   92MOL0     C12328   6.403   1.779   6.975 -0.0568  0.2166  0.2951
   92MOL0     C12329   6.354   1.635   6.973 -0.4965  0.2681  0.6363
   92MOL0    Cl12330   6.281   1.610   6.815 -0.1862  0.3663  0.3682
   92MOL0     C12331   7.308   1.815   6.994  0.5716 -0.7933 -0.2361
   92MOL0     C12332   7.437   1.840   6.942  0.1003 -0.6164  0.7558
   92MOL0     O12333   7.797   1.972   7.120 -0.1428 -0.0770  0.1447
   92MOL0     C12334   7.884   1.961   6.770  0.0169 -0.7166  0.4591
   92MOL0     C12335   7.985   1.981   6.671 -0.7120 -0.0735 -0.4539
   92MOL0     N12336   8.702   1.797   6.281  0.7045  0.0983  0.2053
   92MOL0     N12337   8.792   1.714   6.306 -0.8535  0.6431 -0.6189
   92MOL0     C12338   9.951   1.486   6.184 -0.4506 -0.6936  0.5513
   92MOL0     C12339  10.089   1.473   6.156 -0.2866  0.9108  0.9307
   92MOL0     C12340  10.542   1.582   6.102 -0.5637 -0.2353  1.0571
   92MOL0     C12341  10.657   1.655   6.132 -0.1594  0.4601  0.8260
   92MOL0     C12342  10.776   1.609   6.073 -0.9569 -0.0194  0.6057
   92MOL0     C12343  10.785   1.507   5.976  0.6917 -0.3563  0.5010
   92MOL0     O12344  10.897   1.463   5.905 -0.0296 -0.1185 -0.4327
   92MOL0     C12345  11.006   1.560   5.899 -0.1316  0.6525  0.8755
   92MOL0     C12346  11.091   1.530   5.778  0.1135  0.1766  0.8176
   92MOL0     C12347  11.028   1.559   5.637  0.0630 -0.0474 -0.5947
   92MOL0     C12348  11.130   1.553   5.525 -0.7890 -0.4554  0.3355
   92MOL0     C12349  11.174   1.418   5.476  0.2109 -0.3080  0.7762
   92MOL0     C12350  11.219   1.310   5.437  0.4573  0.1699  0.6620
   92MOL0     C12351  10.663   1.444   5.948 -0.5156 -0.2260  0.6289
   92MOL0     C12352  10.548   1.469   6.014  0.4063  0.2490  0.1796
   92MOL0     H12353  10.181   1.795   6.129 -1.0379 -1.8095 -3.6647
   92MOL0     H12354   9.948   1.830   6.197  1.3486  0.7508 -3.0733
   92MOL0     H12355   9.818   1.645   6.447 -1.9896  2.4650  3.3398
   92MOL0     H12356   9.763   1.787   6.358  1.4749 -0.5809 -2.0073
   92MOL0     H12357   9.612   1.532   6.394  0.0324 -1.1305  0.0302
   92MOL0     H12358   9.594   1.658   6.518  1.3014 -1.2559 -0.1427
   92MOL0     H12359   9.500   1.817   6.348 -1.4508 -0.2163 -0.6749
   92MOL0     H12360   9.504   1.687   6.228  0.1554 -1.8832  0.4156
   92MOL0     H12361   9.329   1.559   6.346 -1.3132 -0.7837  1.0276
   92MOL0     H12362   9.347   1.666   6.489 -3.0549 -0.3121 -0.5851
   92MOL0     H12363   9.269   1.848   6.359  0.9308 -0.0047  0.0918
   92MOL0     H12364   9.273   1.739   6.210  2.1540  0.3743 -0.4109
   92MOL0     H12365   9.051   1.732   6.285  2.1569 -0.8092 -3.0912
   92MOL0     H12366   9.119   1.579   6.318 -0.0687  0.3394 -1.0727
   92MOL0     H12367   9.143   1.638   6.557  0.1900  1.8785  1.2118
   92MOL0     H12368   9.097   1.806   6.539  3.0556 -1.2929  1.0431
   92MOL0     H12369   8.897   1.657   6.614 -1.4726 -1.1658 -0.1713
   92MOL0     H12370   8.923   1.555   6.479  2.4686 -0.4646  1.1603
   92MOL0     H12371   8.765   1.875   6.587  1.8725  0.0247 -1.1700
   92MOL0     H12372   8.594   2.067   6.442 -1.2431  0.9630 -0.0057
   92MOL0     H12373   8.572   2.023   6.276  0.3551  0.4498  0.1277
   92MOL0     H12374   8.448   1.885   6.534  2.9468 -0.7499 -0.5181
   92MOL0     H12375   8.401   1.825   6.382 -1.1013  0.9588  0.5644
   92MOL0     H12376   8.320   2.072   6.324 -0.5677  4.3009  1.7815
   92MOL0     H12377   8.373   2.129   6.480  0.4448  0.5775 -0.2695
   92MOL0     H12378   8.145   1.934   6.463 -1.3459  0.5396  1.2922
   92MOL0     H12379   8.137   2.101   6.477 -0.4829  0.4545 -0.2101
   92MOL0     H12380   8.234   2.031   6.897 -0.9130  1.6347  0.6240
   92MOL0     H12381   8.059   1.928   7.156  0.6125 -1.0295 -1.8371
   92MOL0     H12382   8.184   2.040   7.107 -0.9052  2.4813  0.7369
   92MOL0     H12383   8.027   2.102   7.136  0.8191 -0.3202  2.6337
   92MOL0     H12384   7.586   2.005   7.194 -0.0213  0.2908 -0.1955
   92MOL0     H12385   7.347   1.944   7.300 -0.0139 -0.8522  0.4956
   92MOL0     H12386   7.136   1.872   7.375 -1.3579 -2.4688  0.3669
   92MOL0     H12387   7.073   1.996   7.242  1.6627 -0.3383 -2.5483
   92MOL0     H12388   6.946   1.749   7.367 -2.0135 -0.6634  0.3891
   92MOL0     H12389   6.896   1.920   7.369  1.4739 -1.3247  0.4362
   92MOL0     H12390   6.884   1.707   7.150  3.3358  1.1200  0.0517
   92MOL0     H12391   6.878   1.874   7.102  2.4913  1.2432 -0.0207
   92MOL0     H12392   6.688   1.765   7.307  4.0974  0.9391  1.2392
   92MOL0     H12393   6.684   1.918   7.211  0.3540  0.2727 -1.0065
   92MOL0     H12394   6.600   1.651   7.132 -3.0461  0.6498  0.2244
   92MOL0     H12395   6.678   1.764   7.008 -3.2772  3.9659 -1.4540
   92MOL0     H12396   6.430   1.779   7.189  1.2256 -2.9618 -0.6904
   92MOL0     H12397   6.491   1.926   7.095  0.4378  0.6572 -2.8792
   92MOL0     H12398   6.482   1.768   6.900 -1.7458  0.1149 -1.5673
   92MOL0     H12399   6.335   1.859   6.943  2.3635  2.4860  0.4885
   92MOL0     H12400   6.286   1.601   7.052 -1.5049 -1.4072 -0.8624
   92MOL0     H12401   6.445   1.576   6.990 -0.0744  1.6247  3.6724
   92MOL0     H12402   7.231   1.769   6.933 -1.3564  2.1881 -0.2610
   92MOL0     H12403   7.462   1.801   6.843 -0.8004  0.6609 -0.0039
   92MOL0     H12404   7.783   1.930   6.743  0.5400 -0.5407 -1.9550
   92MOL0     H12405   7.951   1.955   6.572 -2.0905  1.0346 -0.2998
   92MOL0     H12406   9.878   1.405   6.188  0.0566 -1.1867  0.1037
   92MOL0     H12407  10.138   1.379   6.132 -2.6877  0.1584 -1.5392
   92MOL0     H12408  10.662   1.736   6.204  0.2002  0.0197  1.3051
   92MOL0     H12409  10.864   1.669   6.090 -2.2620  2.8570 -1.8190
   92MOL0     H12410  10.970   1.663   5.900  1.8846  1.3840  0.9294
   92MOL0     H12411  11.067   1.545   5.988  1.0064  1.0337  0.1717
   92MOL0     H12412  11.121   1.425   5.778  1.3789  0.4932  2.1677
   92MOL0     H12413  11.184   1.587   5.784  1.7605 -2.1962 -0.7249
   92MOL0     H12414  10.988   1.660   5.639  0.0796 -0.0536  0.7059
   92MOL0     H12415  10.939   1.500   5.614  0.8877 -1.6756  0.2036
   92MOL0     H12416  11.217   1.615   5.548 -2.2930  0.9699  2.6557
   92MOL0     H12417  11.081   1.608   5.444 -2.4647  0.8498  2.1370
   92MOL0     H12418  11.264   1.216   5.415 -0.7663 -0.4457  0.6548
   92MOL0     H12419  10.668   1.363   5.876  1.0589  2.7539 -2.9028
   92MOL0     H12420  10.459   1.417   5.979  1.2890 -2.1253  1.2178
   93MOL0     O12421  10.956  10.865  10.514 -0.5471 -0.4223 -0.2461
   93MOL0     C12422  10.943  10.806  10.619  0.0011 -0.4791 -0.5910
   93MOL0     O12423  10.826  10.758  10.663 -0.1413  0.1023  0.6732
   93MOL0     C12424  10.714  10.789  10.587 -0.0301  0.2299  0.3427
   93MOL0     C12425  10.698  10.736  10.460  0.4459 -0.1831  0.6374
   93MOL0     C12426  10.568  10.764  10.398  0.3998  0.4705  0.0243
   93MOL0     C12427  10.470  10.847  10.458  0.3106  0.4048 -0.9917
   93MOL0     O12428  10.345  10.855  10.394 -0.1724 -0.4174 -0.3152
   93MOL0     C12429  10.242  10.940  10.448  0.1213  0.1631 -0.1299
   93MOL0     C12430  10.112  10.876  10.397  0.4325 -0.4223 -0.6417
   93MOL0     C12431  10.004  10.978  10.406 -0.3577  0.0234 -0.9298
   93MOL0     C12432   9.885  10.940  10.322  0.1695  0.5775 -0.5320
   93MOL0     C12433   9.832  10.794  10.344  1.5409  0.4567 -0.6121
   93MOL0     C12434   9.686  10.782  10.314 -0.5546  0.5684  0.2791
   93MOL0     C12435   9.656  10.818  10.168  1.2172  0.1877 -1.1167
   93MOL0     C12436   9.508  10.808  10.119  0.4760  0.3358 -0.4853
   93MOL0     N12437   9.441  10.678  10.136  0.3724  0.5205  0.3931
   93MOL0     C12438   9.403  10.626  10.259 -0.0171  0.8641 -0.1566
   93MOL0     C12439   9.334  10.509  10.232  0.1926 -1.6452 -0.1738
   93MOL0     C12440   9.263  10.438  10.342  0.2542  1.3028  0.0750
   93MOL0     C12441   9.186  10.305  10.286  0.5001  0.9030 -0.9792
   93MOL0     C12442   9.063  10.320  10.194  0.7475 -0.0277  0.4784
   93MOL0     C12443   8.987  10.458  10.211 -0.0166  0.4496 -0.6913
   93MOL0     O12444   8.949  10.487  10.351  0.9318 -0.4293 -0.3963
   93MOL0     C12445   8.813  10.462  10.373 -0.3595 -0.0607  0.4204
   93MOL0     C12446   8.776  10.333  10.389  0.9227  0.4762 -0.0511
   93MOL0     C12447   8.647  10.295  10.418  0.1229  0.5757 -0.2907
   93MOL0     C12448   8.618  10.144  10.436 -0.7524  0.1828 -0.5290
   93MOL0     C12449   8.550  10.400  10.432  0.7741  0.6505  0.5894
   93MOL0     C12450   8.402  10.380  10.454 -0.4312  0.3414 -0.4897
   93MOL0     O12451   8.314  10.468  10.386  0.0636  0.3990 -0.0640
   93MOL0     C12452   8.185  10.442  10.390  0.5771 -0.2452 -1.1111
   93MOL0     C12453   8.123  10.321  10.371 -0.6946  0.1563  0.0713
   93MOL0     C12454   7.988  10.308  10.392  0.1044 -0.7573 -0.0826
   93MOL0     C12455   7.906  10.417  10.437 -0.9298  0.7620 -0.2082
   93MOL0     O12456   7.772  10.404  10.464 -0.8608 -0.0659  0.5805
   93MOL0     C12457   7.701  10.281  10.445  0.3762  0.4851  0.5957
   93MOL0     C12458   7.542  10.309  10.450  0.9349  0.4129  0.3227
   93MOL0     C12459   7.500  10.419  10.349 -0.1364  0.6483 -1.1407
   93MOL0     C12460   7.346  10.446  10.360 -0.5152 -0.1178  0.2157
   93MOL0     C12461   7.293  10.539  10.253  0.5210 -0.7584  0.0606
   93MOL0     C12462   7.146  10.577  10.290 -0.0329 -0.5196  0.4201
   93MOL0     C12463   7.079  10.684  10.195 -0.7299  0.1752  0.6850
   93MOL0     C12464   7.048  10.625  10.059  0.9083 -0.2271  0.4256
   93MOL0    Cl12465   6.957  10.477  10.092 -0.1944  0.3391  0.2586
   93MOL0     C12466   7.971  10.540  10.464  0.5211 -0.1941  0.0982
   93MOL0     C12467   8.111  10.551  10.434  0.9657  0.6936 -0.2668
   93MOL0     O12468   8.365  10.278  10.517  0.0355  0.4936 -0.3428
   93MOL0     C12469   8.586  10.532  10.410 -0.4907 -0.7358 -0.1808
   93MOL0     C12470   8.725  10.563  10.381  0.5893 -0.3540  0.3229
   93MOL0     N12471   9.318  10.497  10.093 -0.4477  0.0249 -0.2552
   93MOL0     N12472   9.378  10.598  10.039 -0.6177 -0.9506  0.1559
   93MOL0     C12473  10.504  10.908  10.579 -0.7360  0.1081 -0.4838
   93MOL0     C12474  10.621  10.874  10.644 -0.7352  0.3364 -0.1908
   93MOL0     C12475  11.061  10.784  10.702  0.1932 -0.2981 -0.7704
   93MOL0     C12476  11.185  10.794  10.638 -0.1084  0.4023 -0.7147
   93MOL0     C12477  11.298  10.744  10.709  0.7638 -0.1157 -0.0423
   93MOL0     C12478  11.287  10.691  10.837 -0.1472  0.7514  0.2215
   93MOL0     O12479  11.393  10.652  10.910 -0.3672 -0.0884 -0.5513
   93MOL0     C12480  11.530  10.636  10.855 -0.0362 -0.6002 -0.8269
   93MOL0     C12481  11.605  10.541  10.945  0.4985  0.5063 -1.0868
   93MOL0     C12482  11.751  10.486  10.903  0.6697 -0.4189 -0.4321
   93MOL0     C12483  11.863  10.593  10.886 -0.3237  0.0824 -0.9135
   93MOL0     C12484  11.995  10.544  10.848  0.4734  0.3279  0.3047
   93MOL0     C12485  12.102  10.516  10.798  0.3240 -0.5144 -0.2526
   93MOL0     C12486  11.161  10.679  10.892  0.4836 -0.3162  0.3549
   93MOL0     C12487  11.054  10.728  10.824  0.1367  0.5068 -0.2167
   93MOL0     H12488  10.771  10.674  10.410 -0.0455 -0.8618  0.7466
   93MOL0     H12489  10.560  10.720  10.300  0.2507  3.3066 -1.3484
   93MOL0     H12490  10.241  10.929  10.557 -0.1210 -2.1105 -0.3144
   93MOL0     H12491  10.255  11.039  10.403  0.6544 -0.0322 -0.4044
   93MOL0     H12492  10.123  10.852  10.291 -0.0053  4.4827 -2.0360
   93MOL0     H12493  10.085  10.793  10.463  2.7451  0.4436  1.5814
   93MOL0     H12494   9.964  10.990  10.507 -0.9275  1.0910 -1.2613
   93MOL0     H12495  10.051  11.072  10.379  3.6209 -1.6960 -0.6246
   93MOL0     H12496   9.803  11.011  10.331  0.1191  0.3233  1.5417
   93MOL0     H12497   9.917  10.946  10.218  1.0854  3.5335 -0.1672
   93MOL0     H12498   9.892  10.728  10.280 -0.0312  0.1984 -1.8701
   93MOL0     H12499   9.840  10.759  10.447  2.4295 -0.1974 -0.8877
   93MOL0     H12500   9.647  10.681  10.325 -0.0080  0.4372  1.1132
   93MOL0     H12501   9.636  10.836  10.394  3.9762  1.9479  2.5534
   93MOL0     H12502   9.687  10.920  10.141  0.1390  0.8024 -0.1752
   93MOL0     H12503   9.719  10.754  10.106 -0.6547 -2.5246 -0.3917
   93MOL0     H12504   9.518  10.819  10.011 -2.2345 -1.1531 -0.9709
   93MOL0     H12505   9.442  10.883  10.165  0.2693 -0.2272  0.1498
   93MOL0     H12506   9.436  10.656  10.358 -0.4598  2.9363 -0.6029
   93MOL0     H12507   9.326  10.407  10.426  0.4238 -0.9623 -0.8116
   93MOL0     H12508   9.189  10.505  10.386 -1.2682 -0.7950  0.9078
   93MOL0     H12509   9.146  10.252  10.373  0.6286  1.4421 -0.5847
   93MOL0     H12510   9.259  10.233  10.248 -1.0338 -0.8566 -0.7136
   93MOL0     H12511   8.997  10.234  10.210  0.8613  0.0006  1.1281
   93MOL0     H12512   9.094  10.314  10.089  2.0757 -2.2472  0.9246
   93MOL0     H12513   8.895  10.450  10.152 -0.2504 -3.0700 -0.0790
   93MOL0     H12514   9.046  10.540  10.170  0.0622 -0.2906 -2.1311
   93MOL0     H12515   8.851  10.254  10.394  1.8601  1.3427  0.0912
   93MOL0     H12516   8.701  10.080  10.405  2.1645  1.5335  3.5861
   93MOL0     H12517   8.593  10.109  10.537 -0.6498 -2.7354 -1.4452
   93MOL0     H12518   8.536  10.119  10.368 -1.1135 -0.2066  0.0347
   93MOL0     H12519   8.177  10.234  10.336  0.7060  1.4099 -1.0399
   93MOL0     H12520   7.951  10.209  10.367 -2.5043  0.2876 -0.6906
   93MOL0     H12521   7.722  10.236  10.348  0.4379 -0.6941  1.1329
   93MOL0     H12522   7.739  10.212  10.521  0.7594 -0.6082 -0.5544
   93MOL0     H12523   7.496  10.218  10.412 -0.3584  1.5007 -0.8076
   93MOL0     H12524   7.519  10.343  10.551 -2.9550  0.2887 -0.3844
   93MOL0     H12525   7.537  10.392  10.250  3.7864  0.7753  0.0900
   93MOL0     H12526   7.557  10.510  10.370  0.0466  0.7933 -2.2269
   93MOL0     H12527   7.290  10.355  10.339 -1.3873  0.3584  0.4635
   93MOL0     H12528   7.310  10.486  10.455 -4.8198 -1.4698 -0.6362
   93MOL0     H12529   7.282  10.496  10.153 -0.2142  2.0337 -1.1518
   93MOL0     H12530   7.349  10.633  10.248 -1.8883  0.7347 -0.8435
   93MOL0     H12531   7.079  10.490  10.299 -1.4444  0.5625  0.8168
   93MOL0     H12532   7.156  10.624  10.388  2.5145 -2.5156  1.2308
   93MOL0     H12533   7.152  10.763  10.176  3.3684 -3.4837 -0.2529
   93MOL0     H12534   6.986  10.723  10.240  0.2186 -0.4224  3.3542
   93MOL0     H12535   7.141  10.603  10.005  1.3560 -1.4055  1.6254
   93MOL0     H12536   6.984  10.697  10.008 -1.5090 -1.2284  1.9029
   93MOL0     H12537   7.908  10.620  10.500 -0.7128 -1.0039 -0.2003
   93MOL0     H12538   8.146  10.651  10.456 -0.8129  0.8584  2.2907
   93MOL0     H12539   8.524  10.621  10.419 -2.2083 -1.4206 -3.6922
   93MOL0     H12540   8.763  10.663  10.365 -1.2935  0.5669  1.2573
   93MOL0     H12541  10.439  10.973  10.637 -0.2472  3.3341 -3.2306
   93MOL0     H12542  10.639  10.918  10.741  1.9032  0.7453 -0.7971
   93MOL0     H12543  11.184  10.827  10.535 -3.2187 -1.1834 -1.3242
   93MOL0     H12544  11.394  10.739  10.659  1.8818  1.9394  1.7309
   93MOL0     H12545  11.538  10.602  10.751  2.4925 -0.0651 -0.8862
   93MOL0     H12546  11.582  10.731  10.867 -1.1944  0.0621 -0.9727
   93MOL0     H12547  11.538  10.456  10.958 -0.0505  1.0459 -0.2957
   93MOL0     H12548  11.622  10.582  11.045 -2.3288 -0.6674 -0.0482
   93MOL0     H12549  11.726  10.429  10.813 -1.4662 -0.2825  0.0051
   93MOL0     H12550  11.791  10.420  10.980  1.0170 -1.6731 -1.6553
   93MOL0     H12551  11.884  10.635  10.986  0.7538 -0.4503 -0.9020
   93MOL0     H12552  11.834  10.672  10.816 -1.4180 -1.3841 -2.1602
   93MOL0     H12553  12.194  10.519  10.743  2.2154  0.7324  2.7008
   93MOL0     H12554  11.147  10.634  10.990 -1.4986  1.8326  1.1327
   93MOL0     H12555  10.954  10.706  10.858  0.0089 -1.6741 -1.7732
   94MOL0     O12556   5.711   6.164   3.233  1.0535  0.7514 -0.3332
   94MOL0     C12557   5.755   6.107   3.329  0.3031  1.0114  0.1561
   94MOL0     O12558   5.882   6.118   3.375  0.0470 -0.0319  0.8409
   94MOL0     C12559   5.968   6.179   3.286  0.7392  0.4537  0.5461
   94MOL0     C12560   6.001   6.311   3.310 -0.4698 -0.0722  0.8058
   94MOL0     C12561   6.074   6.387   3.217  0.5240  0.2582 -1.0560
   94MOL0     C12562   6.124   6.319   3.101  0.1012  0.2417  0.2310
   94MOL0     O12563   6.205   6.385   3.011 -0.1429  0.0142 -0.1418
   94MOL0     C12564   6.309   6.479   3.045  0.8559  0.1722  0.6659
   94MOL0     C12565   6.427   6.481   2.946  0.3824  0.4167  0.2047
   94MOL0     C12566   6.537   6.590   2.991  0.3689  0.0473  0.4279
   94MOL0     C12567   6.490   6.741   3.007 -0.3807  0.3089  0.3488
   94MOL0     C12568   6.593   6.849   3.044  0.1123  0.5178 -0.4642
   94MOL0     C12569   6.678   6.796   3.169  0.3278 -0.1091  0.2234
   94MOL0     C12570   6.770   6.907   3.220 -0.3372  0.4576  0.3052
   94MOL0     C12571   6.850   6.882   3.348  0.5741 -0.8881  0.5062
   94MOL0     N12572   6.759   6.942   3.456  0.3639  0.0654 -0.0890
   94MOL0     C12573   6.657   6.881   3.521  0.3052 -0.0905 -0.2277
   94MOL0     C12574   6.613   6.976   3.602  0.3659  0.2307 -0.4267
   94MOL0     C12575   6.490   6.960   3.681 -0.6337  0.2402  0.4272
   94MOL0     C12576   6.389   7.064   3.657  0.0647 -0.5235  0.4295
   94MOL0     C12577   6.264   7.039   3.742 -0.0136 -0.1888 -0.1901
   94MOL0     C12578   6.190   7.165   3.768  0.0589 -0.4404  0.5289
   94MOL0     O12579   6.088   7.155   3.870 -0.3669  0.0265 -0.0373
   94MOL0     C12580   5.973   7.089   3.843  0.5284 -0.3312 -0.3149
   94MOL0     C12581   5.893   7.106   3.733 -0.2755 -0.1796  0.5113
   94MOL0     C12582   5.769   7.041   3.706 -0.3956 -0.7635  0.3577
   94MOL0     C12583   5.709   7.063   3.570  0.2814 -0.0301 -0.5880
   94MOL0     C12584   5.712   6.967   3.814 -0.1045 -0.4345 -0.4054
   94MOL0     C12585   5.578   6.916   3.813 -0.2778  0.8554  0.3539
   94MOL0     O12586   5.498   6.947   3.707  0.5556 -0.2918 -0.0035
   94MOL0     C12587   5.376   6.885   3.694  0.1885 -0.0465 -0.0997
   94MOL0     C12588   5.362   6.756   3.642  0.5744 -0.5123 -0.4462
   94MOL0     C12589   5.235   6.693   3.636  0.2839 -0.9274 -0.0459
   94MOL0     C12590   5.122   6.761   3.687 -0.5586 -0.4224  0.2367
   94MOL0     O12591   5.008   6.684   3.678 -0.2101 -0.5656 -0.4552
   94MOL0     C12592   4.888   6.756   3.706 -0.5900  0.5161 -0.1522
   94MOL0     C12593   4.763   6.708   3.623 -0.1097 -0.7474 -0.0768
   94MOL0     C12594   4.774   6.765   3.480  0.2387  0.5840 -0.3653
   94MOL0     C12595   4.670   6.701   3.393 -0.2079 -0.1948  0.8233
   94MOL0     C12596   4.669   6.769   3.256  1.1346 -0.3997  0.1363
   94MOL0     C12597   4.796   6.776   3.172 -0.2199  0.0562  0.2004
   94MOL0     C12598   4.843   6.646   3.106 -0.1736 -0.8089 -0.6234
   94MOL0     C12599   4.745   6.576   3.017  0.2955  0.4964 -0.0542
   94MOL0    Cl12600   4.622   6.476   3.111 -0.3424 -0.1646 -0.0623
   94MOL0     C12601   5.144   6.892   3.735  0.8233  0.0004 -0.3280
   94MOL0     C12602   5.264   6.946   3.739  0.0349 -0.1120  0.1519
   94MOL0     O12603   5.547   6.847   3.913 -0.5172 -0.1066 -0.1014
   94MOL0     C12604   5.795   6.942   3.929  0.3651 -0.0299  0.0630
   94MOL0     C12605   5.921   7.005   3.941  0.7715  0.3655 -0.0269
   94MOL0     N12606   6.689   7.093   3.591 -0.0513 -0.1585 -0.4247
   94MOL0     N12607   6.786   7.062   3.511  0.4421 -0.2544  0.1288
   94MOL0     C12608   6.081   6.195   3.072 -0.4320 -0.8375 -1.3185
   94MOL0     C12609   6.004   6.122   3.166 -0.2797 -0.0918  0.1814
   94MOL0     C12610   5.670   6.020   3.410 -0.1532 -0.8152  1.1112
   94MOL0     C12611   5.526   6.025   3.379 -0.3923 -0.7934 -0.2725
   94MOL0     C12612   5.440   5.960   3.469  0.7671  0.6335  0.3155
   94MOL0     C12613   5.489   5.858   3.554  0.0750  0.6750 -0.2398
   94MOL0     O12614   5.396   5.788   3.621  0.0905  0.2593 -0.1364
   94MOL0     C12615   5.422   5.645   3.641 -0.4221  0.5915  0.3444
   94MOL0     C12616   5.308   5.554   3.681 -0.2441 -0.5043  0.4406
   94MOL0     C12617   5.205   5.548   3.562  0.2788  0.0658  0.1022
   94MOL0     C12618   5.076   5.477   3.571  0.6410  0.1256  0.5934
   94MOL0     C12619   4.999   5.516   3.688  0.6314  0.0679 -0.2085
   94MOL0     C12620   4.941   5.557   3.788 -0.3303  0.1101 -0.8755
   94MOL0     C12621   5.626   5.849   3.583  0.9072 -0.1138  0.8351
   94MOL0     C12622   5.714   5.933   3.509  0.2182  0.0815  0.0427
   94MOL0     H12623   5.964   6.366   3.396 -0.3666  0.7602  0.3291
   94MOL0     H12624   6.078   6.493   3.238 -4.7991  0.2323  1.8673
   94MOL0     H12625   6.265   6.579   3.055  0.4452  0.0205  0.3772
   94MOL0     H12626   6.349   6.460   3.145  0.6433 -0.9720  0.5384
   94MOL0     H12627   6.463   6.378   2.946  1.4475  0.7761  1.1344
   94MOL0     H12628   6.388   6.494   2.844  1.2138 -1.5367 -0.4025
   94MOL0     H12629   6.562   6.559   3.093  0.8270 -0.2672  0.2253
   94MOL0     H12630   6.627   6.586   2.928 -0.9820 -2.2072 -1.5446
   94MOL0     H12631   6.433   6.768   2.917 -0.5484  0.0021  0.3637
   94MOL0     H12632   6.415   6.738   3.086 -0.1221 -1.6465  0.5503
   94MOL0     H12633   6.653   6.872   2.955 -0.3556 -2.4495 -1.6642
   94MOL0     H12634   6.541   6.943   3.060  1.2212  1.4143 -1.8675
   94MOL0     H12635   6.616   6.776   3.257 -1.1384 -2.8121 -1.2961
   94MOL0     H12636   6.743   6.714   3.138  1.5204  0.3757  1.3204
   94MOL0     H12637   6.835   6.935   3.136 -0.3228 -0.9546 -0.1865
   94MOL0     H12638   6.709   6.997   3.232 -0.4165  0.9216 -2.7292
   94MOL0     H12639   6.943   6.939   3.343  0.1306 -0.1866  0.1346
   94MOL0     H12640   6.873   6.778   3.372  1.3534 -0.9744 -0.5380
   94MOL0     H12641   6.635   6.778   3.498 -0.7241  0.1922 -0.5500
   94MOL0     H12642   6.454   6.859   3.659  2.9902 -0.5923 -2.7861
   94MOL0     H12643   6.519   6.973   3.786 -1.2303 -0.6615  0.7123
   94MOL0     H12644   6.363   7.069   3.551  1.0708 -2.0861  0.0734
   94MOL0     H12645   6.436   7.160   3.679 -1.9848  0.8824 -1.0376
   94MOL0     H12646   6.282   6.979   3.832 -0.1866 -0.4956 -0.3591
   94MOL0     H12647   6.197   6.969   3.691 -0.2235  0.2854 -0.5684
   94MOL0     H12648   6.147   7.199   3.673 -2.7840 -0.0422  1.8530
   94MOL0     H12649   6.265   7.239   3.799 -0.9419  0.9320 -0.2074
   94MOL0     H12650   5.927   7.172   3.654 -1.0189 -2.2087 -1.6160
   94MOL0     H12651   5.668   6.973   3.523  1.0607 -1.4156  1.2756
   94MOL0     H12652   5.631   7.140   3.575  2.2775  2.0240  0.4921
   94MOL0     H12653   5.788   7.094   3.501  1.9214 -2.8400 -0.1251
   94MOL0     H12654   5.436   6.701   3.585 -0.1265 -1.1616 -0.7415
   94MOL0     H12655   5.226   6.594   3.592  0.6561 -0.9254 -0.1255
   94MOL0     H12656   4.868   6.752   3.814 -0.2968  1.8565 -0.0307
   94MOL0     H12657   4.901   6.862   3.681 -1.0486  0.8416  0.9359
   94MOL0     H12658   4.770   6.599   3.612  1.0610 -0.5658 -1.3774
   94MOL0     H12659   4.666   6.730   3.668  1.4224 -0.5744  3.5187
   94MOL0     H12660   4.874   6.743   3.439  0.6897  0.8468  0.5642
   94MOL0     H12661   4.766   6.874   3.474  2.0607  0.6960 -4.0035
   94MOL0     H12662   4.680   6.593   3.381 -1.7521 -0.3824  1.0159
   94MOL0     H12663   4.568   6.712   3.431 -1.3641 -1.3031 -1.7294
   94MOL0     H12664   4.625   6.868   3.270  2.1521  0.3947 -1.8570
   94MOL0     H12665   4.598   6.710   3.197 -0.5474 -0.1067  1.7724
   94MOL0     H12666   4.768   6.828   3.080  1.2956 -1.3896 -1.1421
   94MOL0     H12667   4.869   6.832   3.231 -0.4401 -1.0558  1.5671
   94MOL0     H12668   4.876   6.576   3.184 -2.4852 -2.4099 -0.9835
   94MOL0     H12669   4.933   6.679   3.055 -0.0198  1.0312  0.7287
   94MOL0     H12670   4.813   6.514   2.957  0.3155 -0.9176  1.3859
   94MOL0     H12671   4.692   6.628   2.937  3.1094  2.0024 -1.1073
   94MOL0     H12672   5.058   6.953   3.759 -0.9083 -1.3732 -2.6321
   94MOL0     H12673   5.277   7.045   3.782 -0.9391 -0.4641  1.3105
   94MOL0     H12674   5.759   6.872   4.004  1.8032  0.1419  0.9625
   94MOL0     H12675   5.976   6.984   4.032  0.7361 -1.2408 -0.3442
   94MOL0     H12676   6.088   6.164   2.968  0.4059 -1.0614 -1.2016
   94MOL0     H12677   5.970   6.026   3.128  1.0666  0.1408 -1.7794
   94MOL0     H12678   5.493   6.091   3.299  0.6882  1.9451  1.3953
   94MOL0     H12679   5.333   5.976   3.458  0.6254 -0.8508 -0.7590
   94MOL0     H12680   5.465   5.604   3.549 -0.2545 -0.4841  0.8840
   94MOL0     H12681   5.501   5.642   3.717 -1.0118  1.0183  0.9865
   94MOL0     H12682   5.259   5.588   3.773 -3.2380 -0.2196 -1.1434
   94MOL0     H12683   5.350   5.454   3.694 -0.6583 -0.5979  1.0911
   94MOL0     H12684   5.259   5.510   3.474 -0.5014  0.8858 -0.7418
   94MOL0     H12685   5.180   5.653   3.549  1.2692  0.3769  0.5853
   94MOL0     H12686   5.076   5.367   3.569  1.9559  0.1053  1.0087
   94MOL0     H12687   5.013   5.504   3.486 -3.5283 -2.4629  2.4885
   94MOL0     H12688   4.892   5.604   3.871 -1.5847  0.6824 -1.9065
   94MOL0     H12689   5.660   5.770   3.648 -0.7933 -1.4777  0.1447
   94MOL0     H12690   5.818   5.909   3.531  0.1233 -1.0806 -0.6979
   95MOL0     O12691   8.647   2.220   3.859 -0.2469  0.6030 -0.2744
   95MOL0     C12692   8.613   2.230   3.980 -0.4265  0.7009  0.5702
   95MOL0     O12693   8.686   2.200   4.093 -0.5644 -0.1287 -0.0799
   95MOL0     C12694   8.823   2.193   4.099 -0.6161 -1.3534 -0.1923
   95MOL0     C12695   8.914   2.189   3.989 -0.5064  0.0039 -0.6767
   95MOL0     C12696   9.052   2.156   4.014 -0.4844 -0.4844 -0.6627
   95MOL0     C12697   9.102   2.135   4.137 -0.0062  0.1105 -0.7835
   95MOL0     O12698   9.237   2.126   4.145  0.1087  0.2699 -0.1870
   95MOL0     C12699   9.292   2.072   4.269 -0.3266 -0.1542 -0.6828
   95MOL0     C12700   9.254   1.928   4.300 -0.0951 -0.3120  0.1640
   95MOL0     C12701   9.305   1.827   4.212  0.0730  0.8807  0.0189
   95MOL0     C12702   9.438   1.765   4.245 -0.1471 -0.2617 -0.3183
   95MOL0     C12703   9.463   1.633   4.167  0.7880 -0.6455 -0.2269
   95MOL0     C12704   9.606   1.573   4.171 -0.0872  0.0192  0.0837
   95MOL0     C12705   9.717   1.672   4.117 -0.0954 -0.4913 -0.5198
   95MOL0     C12706   9.867   1.625   4.116  0.4325  0.1115  1.1157
   95MOL0     N12707   9.966   1.725   4.073 -0.3470 -0.8870  0.4085
   95MOL0     C12708  10.097   1.741   4.119  0.3683 -0.1928  0.1318
   95MOL0     C12709  10.136   1.842   4.043 -0.2162 -0.6142  0.5665
   95MOL0     C12710  10.261   1.915   4.071 -0.1812  0.4021  0.3079
   95MOL0     C12711  10.384   1.822   4.118 -0.0712  0.0482  0.1384
   95MOL0     C12712  10.450   1.729   4.003 -0.3167  0.0797 -0.0513
   95MOL0     C12713  10.346   1.635   3.939 -0.0331  0.6647  1.0030
   95MOL0     O12714  10.400   1.546   3.831 -0.2533  0.4045  0.0629
   95MOL0     C12715  10.321   1.428   3.806  0.0010 -0.1904 -0.3017
   95MOL0     C12716  10.179   1.434   3.795  0.5387  0.8358  0.0770
   95MOL0     C12717  10.103   1.327   3.755 -0.5522 -0.9351 -0.7714
   95MOL0     C12718   9.952   1.352   3.772 -0.5200  0.1037 -0.4637
   95MOL0     C12719  10.165   1.205   3.728 -0.7355  0.7013 -0.2496
   95MOL0     C12720  10.097   1.079   3.686 -0.3533 -0.4034  0.4315
   95MOL0     O12721   9.965   1.071   3.721 -0.2687  0.6461  0.2142
   95MOL0     C12722   9.879   0.993   3.649  0.3754  0.7561  0.1632
   95MOL0     C12723   9.833   0.881   3.719  0.0293  0.6764  0.0143
   95MOL0     C12724   9.736   0.791   3.664 -0.1255 -0.2072  0.5045
   95MOL0     C12725   9.689   0.816   3.531  1.0762  0.6732  0.0673
   95MOL0     O12726   9.603   0.731   3.476  0.0569  0.2070  0.2326
   95MOL0     C12727   9.508   0.664   3.564 -0.9428  0.0107  0.6466
   95MOL0     C12728   9.386   0.752   3.580 -0.5043  0.0371 -0.6330
   95MOL0     C12729   9.281   0.677   3.662 -0.9722 -0.0931  0.5590
   95MOL0     C12730   9.155   0.771   3.666 -0.6299  0.2808 -0.5491
   95MOL0     C12731   9.033   0.717   3.735  0.4342 -0.8017  0.3943
   95MOL0     C12732   8.958   0.625   3.637  0.1768 -0.4868 -0.2738
   95MOL0     C12733   8.830   0.571   3.696  0.0498 -0.5100  0.7059
   95MOL0     C12734   8.763   0.485   3.593  0.5370  0.4523  0.5483
   95MOL0    Cl12735   8.854   0.326   3.578  0.1904 -0.2000  0.1365
   95MOL0     C12736   9.739   0.926   3.460 -0.2042  0.8800 -0.0055
   95MOL0     C12737   9.834   1.013   3.517 -0.3826 -0.1809 -0.2961
   95MOL0     O12738  10.163   0.998   3.623  0.0720  0.6787  0.2273
   95MOL0     C12739  10.303   1.210   3.713 -0.1924 -0.3425  0.0344
   95MOL0     C12740  10.382   1.314   3.757 -0.5975  0.6365  0.8362
   95MOL0     N12741  10.050   1.884   3.943 -0.0240  0.9910  0.1712
   95MOL0     N12742   9.941   1.813   3.968 -0.8886 -0.2480  0.0065
   95MOL0     C12743   9.011   2.144   4.247  0.4795  0.8343  0.1888
   95MOL0     C12744   8.878   2.170   4.229 -0.3328  0.2420  0.0858
   95MOL0     C12745   8.482   2.272   4.009  0.1956  0.4840 -0.2853
   95MOL0     C12746   8.435   2.302   4.139 -0.5429  0.3911  0.2756
   95MOL0     C12747   8.301   2.327   4.164 -0.1132 -0.8917  0.0412
   95MOL0     C12748   8.211   2.317   4.063  0.6920  0.5105 -0.4043
   95MOL0     O12749   8.080   2.343   4.089 -0.5619  0.3317 -0.1272
   95MOL0     C12750   8.050   2.485   4.083 -0.4838  0.1702  0.8691
   95MOL0     C12751   7.919   2.514   4.160 -0.6922  0.0031  0.5734
   95MOL0     C12752   7.910   2.452   4.298 -0.6631 -0.6509  0.1973
   95MOL0     C12753   7.767   2.463   4.361 -0.8589  0.5158 -0.8673
   95MOL0     C12754   7.657   2.396   4.280 -0.0572  0.1609 -0.2763
   95MOL0     C12755   7.590   2.341   4.193  0.3140 -0.8931 -0.6539
   95MOL0     C12756   8.253   2.303   3.935 -1.0409 -0.3019 -0.3378
   95MOL0     C12757   8.386   2.281   3.903 -0.2486 -0.1932 -0.0573
   95MOL0     H12758   8.885   2.201   3.885 -0.3509  1.0114 -0.6101
   95MOL0     H12759   9.120   2.141   3.931  2.2502 -3.0901  1.8117
   95MOL0     H12760   9.400   2.091   4.262 -0.1969  0.4723  2.0343
   95MOL0     H12761   9.260   2.137   4.351 -1.4350 -1.2621 -0.2166
   95MOL0     H12762   9.310   1.913   4.393  0.8463  1.1731 -0.1125
   95MOL0     H12763   9.146   1.917   4.315 -0.1067 -0.4660 -0.0344
   95MOL0     H12764   9.227   1.751   4.203 -0.5867  1.2905  1.8646
   95MOL0     H12765   9.310   1.884   4.118  2.2180  0.6538 -0.0381
   95MOL0     H12766   9.520   1.834   4.223 -0.5141  0.4058  0.3522
   95MOL0     H12767   9.443   1.742   4.352 -1.1169 -1.2732 -0.4687
   95MOL0     H12768   9.399   1.554   4.209  1.2749 -1.4282 -0.9396
   95MOL0     H12769   9.419   1.647   4.068 -3.0116 -0.4368  1.3035
   95MOL0     H12770   9.631   1.558   4.276  3.0095 -0.8582 -0.6504
   95MOL0     H12771   9.604   1.480   4.112  1.1631 -1.3070  2.0264
   95MOL0     H12772   9.699   1.722   4.021 -1.1775 -0.8130 -0.4968
   95MOL0     H12773   9.728   1.755   4.188  2.3440  0.6500 -2.1057
   95MOL0     H12774   9.880   1.533   4.058 -0.6990  0.4709  0.2528
   95MOL0     H12775   9.907   1.598   4.214  0.5850  0.0454  1.0354
   95MOL0     H12776  10.150   1.693   4.201  2.3512  1.9708  0.2467
   95MOL0     H12777  10.281   1.978   3.984 -2.9492  1.7291  0.5097
   95MOL0     H12778  10.235   1.988   4.148 -1.6135  1.8512 -1.4455
   95MOL0     H12779  10.356   1.759   4.203  1.7860 -0.1514  0.6443
   95MOL0     H12780  10.467   1.887   4.147  0.9701 -0.8852 -0.6549
   95MOL0     H12781  10.532   1.664   4.032 -0.2199 -0.4202 -1.3794
   95MOL0     H12782  10.485   1.798   3.925 -2.6626  0.9643 -0.4014
   95MOL0     H12783  10.279   1.700   3.882 -0.5937 -1.4563 -0.8957
   95MOL0     H12784  10.301   1.577   4.020 -0.1610  0.5098  0.8208
   95MOL0     H12785  10.128   1.528   3.816  0.0293  0.7696 -0.8093
   95MOL0     H12786   9.891   1.288   3.708  0.7546 -0.6012 -1.0075
   95MOL0     H12787   9.934   1.342   3.880 -1.4044 -0.4410 -0.6580
   95MOL0     H12788   9.924   1.454   3.744  0.3602  0.9685  1.6050
   95MOL0     H12789   9.866   0.862   3.820  1.8963 -2.7917 -1.1176
   95MOL0     H12790   9.718   0.706   3.730 -1.0007 -0.6960 -0.3479
   95MOL0     H12791   9.476   0.580   3.502  1.1207 -0.3887  0.0557
   95MOL0     H12792   9.548   0.620   3.656  1.6339 -0.0382 -0.4166
   95MOL0     H12793   9.412   0.848   3.626  0.5671 -0.5122 -0.0435
   95MOL0     H12794   9.347   0.785   3.483  0.6244  0.2515 -1.0302
   95MOL0     H12795   9.315   0.650   3.762  3.2738  2.0917 -0.0474
   95MOL0     H12796   9.247   0.588   3.608  1.4847  1.1519 -3.5401
   95MOL0     H12797   9.188   0.859   3.723 -3.3215  0.7333  0.4281
   95MOL0     H12798   9.138   0.813   3.567 -0.0748  0.7522 -0.4563
   95MOL0     H12799   8.968   0.797   3.770  1.5286  0.5764 -0.6203
   95MOL0     H12800   9.069   0.662   3.823  3.1389  1.6687  0.9909
   95MOL0     H12801   8.934   0.680   3.546  2.3824  0.2820 -0.4561
   95MOL0     H12802   9.024   0.546   3.599  0.5684  0.1256 -0.8897
   95MOL0     H12803   8.759   0.650   3.719 -0.0176 -0.7300  1.2770
   95MOL0     H12804   8.846   0.506   3.783  2.0638 -0.9278  0.0771
   95MOL0     H12805   8.774   0.527   3.492  2.5979 -2.2746 -0.4873
   95MOL0     H12806   8.664   0.461   3.632  0.4454  0.7580  0.5027
   95MOL0     H12807   9.711   0.966   3.363 -1.2102  1.3245  0.4549
   95MOL0     H12808   9.869   1.100   3.464  0.2977 -1.5357 -2.1817
   95MOL0     H12809  10.349   1.122   3.669 -2.9080 -0.6420 -2.5098
   95MOL0     H12810  10.488   1.305   3.735 -0.4442  0.5350  1.5838
   95MOL0     H12811   9.053   2.139   4.347  1.6828  1.6984 -0.2591
   95MOL0     H12812   8.802   2.172   4.307 -0.6766 -3.4009 -0.0122
   95MOL0     H12813   8.511   2.293   4.216  1.8295 -0.0533 -1.9814
   95MOL0     H12814   8.257   2.366   4.255  1.2113 -1.9685  1.1728
   95MOL0     H12815   8.120   2.549   4.136 -1.1689  1.2884  0.4586
   95MOL0     H12816   8.043   2.520   3.980  2.9010 -0.6035  0.2614
   95MOL0     H12817   7.837   2.480   4.097 -0.7510 -0.4293  0.8792
   95MOL0     H12818   7.919   2.623   4.170  0.8007  0.1223 -0.4197
   95MOL0     H12819   7.977   2.500   4.370 -0.0807  2.0793 -1.9819
   95MOL0     H12820   7.941   2.347   4.308 -3.4452 -1.5066  0.7708
   95MOL0     H12821   7.747   2.569   4.381 -0.8052 -0.0504  2.6655
   95MOL0     H12822   7.767   2.416   4.459  1.7703  1.3325 -0.4002
   95MOL0     H12823   7.527   2.300   4.117  1.4281 -1.6748 -1.1921
   95MOL0     H12824   8.191   2.316   3.846 -0.3097 -1.0048 -0.9694
   95MOL0     H12825   8.415   2.265   3.800  0.3794 -0.3833  0.1470
   96MOL0     O12826   7.303   9.689   9.983 -0.2856  0.5402 -0.3681
   96MOL0     C12827   7.400   9.757  10.028  0.1551  0.1911 -0.0166
   96MOL0     O12828   7.413   9.795  10.155 -0.2591 -0.2849  0.1805
   96MOL0     C12829   7.297   9.790  10.222  0.4741 -0.0394  0.5070
   96MOL0     C12830   7.245   9.677  10.284  0.3199  0.8402 -0.0768
   96MOL0     C12831   7.137   9.689  10.381 -0.4173  0.4899  0.0264
   96MOL0     C12832   7.082   9.805  10.397  0.8234 -0.2420 -0.5622
   96MOL0     O12833   6.980   9.792  10.495 -0.5603  0.6544 -0.6626
   96MOL0     C12834   6.957   9.887  10.595  0.5032 -0.1164  0.5634
   96MOL0     C12835   6.822   9.846  10.664 -0.4526  0.1995 -0.1711
   96MOL0     C12836   6.697   9.852  10.576 -0.6503 -0.6082  0.0683
   96MOL0     C12837   6.573   9.798  10.647  0.4606  0.3717  0.6133
   96MOL0     C12838   6.442   9.815  10.564  0.1766  0.3074 -0.1206
   96MOL0     C12839   6.315   9.743  10.600  0.8987 -0.6790  0.1732
   96MOL0     C12840   6.264   9.797  10.727  0.0094  0.4045  0.8119
   96MOL0     C12841   6.155   9.712  10.787  0.3973  0.8505  0.4673
   96MOL0     N12842   6.037   9.735  10.710  0.5589 -0.1759 -0.5238
   96MOL0     C12843   5.993   9.676  10.597  0.1435  0.6410  0.0422
   96MOL0     C12844   5.862   9.701  10.584  0.3380  0.7077  0.1361
   96MOL0     C12845   5.777   9.646  10.470  0.2573 -0.1745  0.0624
   96MOL0     C12846   5.734   9.759  10.375  0.0342  0.4574  0.0530
   96MOL0     C12847   5.640   9.710  10.258  0.6008 -0.0486 -0.1100
   96MOL0     C12848   5.558   9.813  10.189  0.4036  0.0282  0.1605
   96MOL0     O12849   5.454   9.745  10.114  0.2656  0.2104 -0.5445
   96MOL0     C12850   5.334   9.813  10.110 -0.2094 -0.6066  0.2096
   96MOL0     C12851   5.242   9.748  10.034 -0.0074 -0.7802  0.5942
   96MOL0     C12852   5.112   9.786  10.021  1.0765 -0.6940 -0.7977
   96MOL0     C12853   5.022   9.713   9.924 -0.7515 -1.2824  0.7660
   96MOL0     C12854   5.073   9.905  10.093 -0.0068  0.2403 -0.1448
   96MOL0     C12855   4.929   9.955  10.101  0.4526 -0.2929 -0.1867
   96MOL0     O12856   4.925  10.091  10.124  0.2048  0.3060  0.3842
   96MOL0     C12857   4.815  10.173  10.148  1.1662 -0.4214 -0.4347
   96MOL0     C12858   4.698  10.122  10.202  0.5093 -0.1270  0.3903
   96MOL0     C12859   4.577  10.197  10.226  0.4541  0.4426  0.7969
   96MOL0     C12860   4.580  10.330  10.185  0.7471 -0.7887 -1.3470
   96MOL0     O12861   4.458  10.396  10.200 -0.3996 -0.3745  0.7153
   96MOL0     C12862   4.428  10.513  10.130  0.8908  0.2346  0.1416
   96MOL0     C12863   4.278  10.557  10.152 -0.2993 -0.4404  0.6553
   96MOL0     C12864   4.247  10.593  10.299 -1.0627  0.1645  0.3867
   96MOL0     C12865   4.120  10.675  10.310 -0.6986  0.0539  0.2905
   96MOL0     C12866   4.077  10.702  10.453  0.2723  0.2267 -0.3454
   96MOL0     C12867   3.933  10.752  10.462  0.8501  0.1623 -0.6515
   96MOL0     C12868   3.815  10.645  10.469  0.0378 -1.1010  0.5983
   96MOL0     C12869   3.682  10.712  10.500 -0.4101 -0.7401  0.0657
   96MOL0    Cl12870   3.633  10.820  10.364 -0.3445 -0.4223 -0.0054
   96MOL0     C12871   4.691  10.384  10.128 -0.2058  0.1062 -0.0036
   96MOL0     C12872   4.810  10.305  10.106  0.7253 -0.0780  0.1023
   96MOL0     O12873   4.825   9.888  10.084  0.6367  0.5293 -0.1229
   96MOL0     C12874   5.171   9.977  10.167  0.8070  0.2072  1.0997
   96MOL0     C12875   5.297   9.934  10.174 -1.2494 -0.0667  0.5697
   96MOL0     N12876   5.833   9.788  10.684  0.6157 -0.1182  0.5372
   96MOL0     N12877   5.930   9.812  10.756  0.4251  0.8968 -0.0018
   96MOL0     C12878   7.121   9.922  10.328  0.1134  0.9325  0.4993
   96MOL0     C12879   7.225   9.905  10.250 -0.7414 -0.1110 -0.5082
   96MOL0     C12880   7.496   9.796   9.922 -0.1437 -0.6133 -1.0997
   96MOL0     C12881   7.474   9.783   9.786 -0.4788 -0.9208  0.1310
   96MOL0     C12882   7.572   9.804   9.688 -0.8615  0.2033  0.2005
   96MOL0     C12883   7.703   9.820   9.724 -0.8507 -0.0637  0.0814
   96MOL0     O12884   7.807   9.845   9.640 -0.5290 -0.4298 -0.0126
   96MOL0     C12885   7.776   9.855   9.500  0.5359  0.7543  0.4424
   96MOL0     C12886   7.888   9.924   9.412 -0.2075  0.7934  0.5838
   96MOL0     C12887   7.864   9.898   9.260  0.0720 -0.7241 -0.0552
   96MOL0     C12888   7.827  10.030   9.184  0.2542  0.0753  0.2041
   96MOL0     C12889   7.947  10.111   9.182 -0.2303  0.5318  0.1384
   96MOL0     C12890   8.066  10.161   9.183  0.8195  0.0948  0.4283
   96MOL0     C12891   7.730   9.832   9.864  0.4464 -0.0151  0.1843
   96MOL0     C12892   7.631   9.827   9.957 -0.0360  0.2808 -0.5541
   96MOL0     H12893   7.289   9.584  10.251  2.3217  2.3963 -2.1711
   96MOL0     H12894   7.101   9.600  10.432  0.4313  0.0637 -0.0990
   96MOL0     H12895   7.044   9.881  10.661  0.4185  0.2970  0.7151
   96MOL0     H12896   6.946   9.984  10.545  1.4429 -0.1867  0.1871
   96MOL0     H12897   6.843   9.745  10.699  1.3641  0.6868  0.2612
   96MOL0     H12898   6.801   9.903  10.755  2.0684  0.8437  0.0656
   96MOL0     H12899   6.675   9.957  10.553 -3.4757 -1.0524  0.4870
   96MOL0     H12900   6.716   9.804  10.479  0.2912  1.7528 -1.0045
   96MOL0     H12901   6.583   9.691  10.668 -0.8354  0.4610  1.8820
   96MOL0     H12902   6.557   9.839  10.747 -0.8877 -0.2324  0.6649
   96MOL0     H12903   6.415   9.921  10.561  1.6385  0.8621  2.5866
   96MOL0     H12904   6.458   9.776  10.463  0.6174 -0.0585  0.0877
   96MOL0     H12905   6.237   9.761  10.525  0.7712  1.1864  0.7247
   96MOL0     H12906   6.330   9.634  10.601 -0.2887 -0.8587  0.7755
   96MOL0     H12907   6.348   9.802  10.797 -0.8433  2.6529  1.7565
   96MOL0     H12908   6.219   9.896  10.718 -1.3123 -0.0578  1.9383
   96MOL0     H12909   6.135   9.734  10.893 -0.2875  6.0058 -0.4406
   96MOL0     H12910   6.190   9.610  10.772  1.2401  1.3790 -1.5013
   96MOL0     H12911   6.047   9.615  10.525 -0.2368  2.1325 -1.5663
   96MOL0     H12912   5.824   9.563  10.416  0.9125 -0.8995  1.6928
   96MOL0     H12913   5.680   9.614  10.511  0.6630 -1.2456  0.2204
   96MOL0     H12914   5.819   9.811  10.329  0.2880  1.5972  1.7082
   96MOL0     H12915   5.682   9.835  10.434  0.7314 -1.2060  3.0363
   96MOL0     H12916   5.570   9.634  10.296 -0.2368  1.9579  2.6942
   96MOL0     H12917   5.698   9.660  10.179 -0.5590 -1.0319 -0.3758
   96MOL0     H12918   5.622   9.878  10.128 -0.0386  2.0130  1.7237
   96MOL0     H12919   5.509   9.872  10.267  0.1397  0.5331 -0.3737
   96MOL0     H12920   5.295   9.667   9.985 -0.6997 -0.6763 -0.3663
   96MOL0     H12921   4.941   9.654   9.969 -0.6428 -2.6776 -0.7915
   96MOL0     H12922   4.968   9.786   9.863  2.2047  1.1007  0.8081
   96MOL0     H12923   5.085   9.654   9.857  2.3409  1.5801  0.9037
   96MOL0     H12924   4.699  10.021  10.242  1.1107 -0.1573  0.3007
   96MOL0     H12925   4.478  10.164  10.259 -0.3218 -0.6615 -2.2692
   96MOL0     H12926   4.491  10.592  10.172  0.7696  1.1735 -1.3610
   96MOL0     H12927   4.448  10.509  10.023  1.7344  0.7132  0.2709
   96MOL0     H12928   4.272  10.647  10.090 -1.9597 -0.2313  1.0551
   96MOL0     H12929   4.214  10.476  10.116 -4.1699  2.2379  0.7753
   96MOL0     H12930   4.337  10.632  10.348 -0.1751 -1.3771  0.0445
   96MOL0     H12931   4.226  10.496  10.344 -0.1804 -1.4864 -2.4640
   96MOL0     H12932   4.130  10.769  10.255 -1.0799 -0.4314 -0.6259
   96MOL0     H12933   4.038  10.618  10.266  0.3601 -0.6344 -0.8540
   96MOL0     H12934   4.146  10.770  10.504  0.1978 -0.6233  0.9499
   96MOL0     H12935   4.078  10.615  10.521 -0.3804  0.8746  0.5211
   96MOL0     H12936   3.917  10.826  10.541 -4.4296  0.9414 -2.0479
   96MOL0     H12937   3.926  10.824  10.380  1.0394  3.0262  1.6890
   96MOL0     H12938   3.829  10.559  10.536 -1.8825 -3.3784 -1.7067
   96MOL0     H12939   3.804  10.601  10.369  1.1689  1.2019 -0.6164
   96MOL0     H12940   3.680  10.771  10.592 -0.4670  1.3927 -1.2555
   96MOL0     H12941   3.598  10.642  10.511 -2.2437  0.7019 -3.4190
   96MOL0     H12942   4.704  10.490  10.110  1.0144  0.3955  2.2508
   96MOL0     H12943   4.895  10.345  10.051  0.2857 -0.4172 -0.8400
   96MOL0     H12944   5.139  10.070  10.214 -0.6091  0.2849  0.0558
   96MOL0     H12945   5.357   9.998  10.238  1.7838 -1.1082 -1.0353
   96MOL0     H12946   7.064  10.014  10.337  0.1730  0.9882  0.2868
   96MOL0     H12947   7.249   9.990  10.187  1.6300 -1.5322 -1.6414
   96MOL0     H12948   7.375   9.757   9.750 -0.0392 -1.4583 -0.7609
   96MOL0     H12949   7.540   9.799   9.584 -0.8814  1.2088  0.1483
   96MOL0     H12950   7.752   9.756   9.459 -0.1574  1.9834 -2.3543
   96MOL0     H12951   7.683   9.907   9.474  0.1064 -0.0204  0.4087
   96MOL0     H12952   7.989   9.888   9.434  1.1910  2.9852 -1.7361
   96MOL0     H12953   7.888  10.030   9.437 -1.1862  0.8811  0.2796
   96MOL0     H12954   7.773   9.836   9.253  0.6562 -1.5779 -0.2055
   96MOL0     H12955   7.949   9.850   9.212 -0.3200 -0.5399 -0.9536
   96MOL0     H12956   7.745  10.076   9.241  1.0002 -0.2177  1.5417
   96MOL0     H12957   7.806  10.009   9.079  1.8477  0.8333 -0.2924
   96MOL0     H12958   8.161  10.208   9.198 -0.0785  1.7232  1.3467
   96MOL0     H12959   7.831   9.859   9.892  1.1227 -1.3641 -0.7991
   96MOL0     H12960   7.668   9.845  10.057  0.2139 -0.3150 -0.5371
   97MOL0     O12961   6.954   3.787   4.284  0.3814  0.7424  0.6077
   97MOL0     C12962   7.006   3.821   4.385  0.4924 -0.1766  0.6844
   97MOL0     O12963   6.947   3.885   4.494  0.9996 -0.0282 -0.7968
   97MOL0     C12964   6.819   3.900   4.494  0.1867  0.2384  0.1266
   97MOL0     C12965   6.771   4.011   4.557  0.7364 -0.3950 -0.8231
   97MOL0     C12966   6.637   4.042   4.564  0.0790  0.8764  0.2749
   97MOL0     C12967   6.541   3.932   4.525 -0.2090 -0.8300 -0.3541
   97MOL0     O12968   6.404   3.961   4.554 -0.3552  0.0006 -0.6959
   97MOL0     C12969   6.311   3.853   4.533 -0.3954  0.2949 -0.2248
   97MOL0     C12970   6.181   3.894   4.592 -0.0716  0.6252  0.1146
   97MOL0     C12971   6.066   3.830   4.516  0.3094 -0.8892 -0.3238
   97MOL0     C12972   5.937   3.918   4.515 -0.1349  0.3994 -0.3711
   97MOL0     C12973   5.817   3.843   4.458  0.1651 -0.7653 -0.7684
   97MOL0     C12974   5.696   3.911   4.517 -0.2435  0.4217 -0.3474
   97MOL0     C12975   5.565   3.838   4.490 -0.2166 -0.3038  0.1603
   97MOL0     C12976   5.449   3.911   4.550  0.7382 -0.8039 -1.0053
   97MOL0     N12977   5.312   3.860   4.526  0.8484 -0.8896  0.3700
   97MOL0     C12978   5.238   3.888   4.412 -1.1942  1.3862 -0.4081
   97MOL0     C12979   5.119   3.822   4.427 -0.5968 -0.2947 -0.0403
   97MOL0     C12980   5.018   3.803   4.331 -0.5664 -0.0865  0.4117
   97MOL0     C12981   4.887   3.752   4.399 -0.5280  0.0114 -0.4816
   97MOL0     C12982   4.771   3.746   4.299 -0.4333  0.2296 -0.7377
   97MOL0     C12983   4.678   3.632   4.337 -0.3030 -0.0087 -0.1216
   97MOL0     O12984   4.565   3.619   4.243 -0.0690  0.1121  0.5517
   97MOL0     C12985   4.452   3.546   4.282 -0.7423 -0.1122 -1.0825
   97MOL0     C12986   4.431   3.480   4.411 -0.0182 -0.7046 -0.1197
   97MOL0     C12987   4.339   3.384   4.434  0.1083 -0.0077 -0.1784
   97MOL0     C12988   4.352   3.322   4.573 -0.7518  0.6150  0.3784
   97MOL0     C12989   4.241   3.358   4.339 -0.2049  0.4086  0.6378
   97MOL0     C12990   4.131   3.259   4.360 -0.7296 -0.2550  1.0960
   97MOL0     O12991   4.022   3.271   4.285 -0.0293  0.4012  0.3835
   97MOL0     C12992   3.931   3.168   4.286 -0.7853  0.4344  0.0866
   97MOL0     C12993   3.959   3.049   4.219  0.5169  0.5198  0.7605
   97MOL0     C12994   3.873   2.945   4.221 -1.0129 -0.0891 -0.6020
   97MOL0     C12995   3.747   2.947   4.284  0.3415 -0.7464 -0.5916
   97MOL0     O12996   3.673   2.832   4.283  0.5434  0.1183  1.1702
   97MOL0     C12997   3.558   2.827   4.380 -0.5834 -0.3112  0.8556
   97MOL0     C12998   3.495   2.685   4.371 -1.0098  0.4558 -0.4980
   97MOL0     C12999   3.373   2.659   4.468  0.1875  0.3960  0.0189
   97MOL0     C13000   3.271   2.777   4.462 -0.0357 -0.1279 -0.6901
   97MOL0     C13001   3.143   2.731   4.525  0.9028 -0.4763 -0.2799
   97MOL0     C13002   3.065   2.855   4.571 -0.7753 -0.4564 -0.4036
   97MOL0     C13003   2.935   2.828   4.641  0.2988  0.4233  0.0351
   97MOL0     C13004   2.827   2.925   4.606 -0.1034 -0.3600 -0.5311
   97MOL0    Cl13005   2.687   2.889   4.689  0.1860  0.6497 -0.3816
   97MOL0     C13006   3.711   3.071   4.348  0.3354  0.0696  0.4657
   97MOL0     C13007   3.800   3.175   4.343 -0.3360 -0.0495  0.6423
   97MOL0     O13008   4.154   3.161   4.432 -0.0044 -0.4987  0.2483
   97MOL0     C13009   4.243   3.428   4.215 -0.2656 -0.1286 -0.5635
   97MOL0     C13010   4.349   3.517   4.192  0.2736 -0.2479  0.0209
   97MOL0     N13011   5.116   3.758   4.550  0.4159 -0.1144  0.0946
   97MOL0     N13012   5.229   3.793   4.607 -1.0205 -0.2877 -0.6234
   97MOL0     C13013   6.586   3.813   4.475 -0.3166  0.0194  0.2659
   97MOL0     C13014   6.724   3.797   4.457 -0.7134 -0.9520 -0.2439
   97MOL0     C13015   7.152   3.820   4.388 -0.1533 -0.5133  0.3085
   97MOL0     C13016   7.221   3.849   4.508 -0.4138  0.0077  0.1495
   97MOL0     C13017   7.361   3.838   4.514 -0.2622  1.0084 -0.7525
   97MOL0     C13018   7.437   3.797   4.404  0.0288  0.1734 -0.0137
   97MOL0     O13019   7.580   3.805   4.420 -0.5197 -0.0435  0.7575
   97MOL0     C13020   7.665   3.833   4.311  0.4037 -0.4360 -0.0413
   97MOL0     C13021   7.655   3.976   4.248 -0.1731 -0.0227  0.7334
   97MOL0     C13022   7.688   4.072   4.357  0.0965 -0.4578  0.7473
   97MOL0     C13023   7.833   4.064   4.427  0.5292 -0.2496  0.5166
   97MOL0     C13024   7.939   4.060   4.327  0.5228  0.4522 -0.2654
   97MOL0     C13025   8.016   4.051   4.235 -0.5547 -0.7356  0.3940
   97MOL0     C13026   7.366   3.764   4.287 -0.0165  0.5390  0.1134
   97MOL0     C13027   7.227   3.777   4.274 -0.3010 -0.0011 -0.5928
   97MOL0     H13028   6.837   4.085   4.601  1.6742 -0.7521 -1.6042
   97MOL0     H13029   6.599   4.139   4.595  4.1126  2.0962  2.1027
   97MOL0     H13030   6.299   3.837   4.425 -1.7787  0.4076 -0.1062
   97MOL0     H13031   6.353   3.761   4.573 -0.2178 -0.1811 -1.4480
   97MOL0     H13032   6.180   3.855   4.694  0.0867  2.2808  0.7715
   97MOL0     H13033   6.184   4.003   4.589 -1.3226  0.6643 -1.2182
   97MOL0     H13034   6.087   3.811   4.410 -0.2607 -0.4837 -0.5147
   97MOL0     H13035   6.034   3.735   4.561  1.3380 -1.5162 -0.8817
   97MOL0     H13036   5.923   3.942   4.621  0.8985  0.4981 -0.2506
   97MOL0     H13037   5.937   4.013   4.462 -3.1107 -0.2317 -1.7316
   97MOL0     H13038   5.836   3.846   4.351 -1.2440 -1.7528 -1.0714
   97MOL0     H13039   5.814   3.739   4.492  0.3409  0.2877  2.9401
   97MOL0     H13040   5.702   3.921   4.626  4.4541 -4.1365  0.2003
   97MOL0     H13041   5.691   4.011   4.473 -1.6493  1.8012  2.6360
   97MOL0     H13042   5.560   3.808   4.385  0.3981  0.3800 -0.0749
   97MOL0     H13043   5.575   3.744   4.545  0.3366 -0.7157 -0.6156
   97MOL0     H13044   5.461   4.011   4.508  0.1132 -1.4289 -2.7714
   97MOL0     H13045   5.468   3.908   4.657 -0.0034 -1.4320 -0.8829
   97MOL0     H13046   5.275   3.947   4.328  0.4444  1.9101  0.6340
   97MOL0     H13047   5.001   3.904   4.292  1.7305  0.5814  0.9741
   97MOL0     H13048   5.062   3.738   4.255  1.6670  3.3345 -1.5080
   97MOL0     H13049   4.851   3.827   4.470 -3.0278 -1.7754  0.2619
   97MOL0     H13050   4.905   3.660   4.455 -0.3634 -0.5594 -1.4539
   97MOL0     H13051   4.804   3.734   4.195  0.3493  1.8103 -0.6985
   97MOL0     H13052   4.715   3.839   4.314  2.8663  2.3011 -0.1889
   97MOL0     H13053   4.647   3.643   4.442  0.6826 -0.8817  0.2838
   97MOL0     H13054   4.735   3.539   4.333  0.2005  0.2509  0.6584
   97MOL0     H13055   4.495   3.508   4.494 -1.2414 -2.9169  1.6649
   97MOL0     H13056   4.405   3.226   4.575 -5.3962 -2.4558 -3.0101
   97MOL0     H13057   4.401   3.396   4.637 -1.1379  1.3035 -0.1031
   97MOL0     H13058   4.252   3.309   4.614 -0.2800  1.1917  1.7459
   97MOL0     H13059   4.050   3.025   4.164 -0.3735  1.3128 -1.1427
   97MOL0     H13060   3.909   2.855   4.173 -0.0069  1.8064 -3.7111
   97MOL0     H13061   3.590   2.842   4.483 -0.0540  2.0086  0.4213
   97MOL0     H13062   3.476   2.897   4.363  0.3915  0.7128  0.1638
   97MOL0     H13063   3.483   2.659   4.266  1.0172  2.2826 -1.2677
   97MOL0     H13064   3.560   2.604   4.405 -1.6180 -0.3234 -1.1603
   97MOL0     H13065   3.399   2.642   4.573 -1.8607  1.8293  0.8160
   97MOL0     H13066   3.327   2.567   4.430 -1.8137  0.8348  1.2097
   97MOL0     H13067   3.316   2.865   4.509  2.1675 -1.7373  0.4306
   97MOL0     H13068   3.257   2.793   4.355 -0.0881 -0.2711 -0.7043
   97MOL0     H13069   3.158   2.672   4.617 -1.0509  0.7900  0.9357
   97MOL0     H13070   3.076   2.675   4.460 -0.3234  2.6151 -1.8794
   97MOL0     H13071   3.131   2.919   4.631 -0.4325  1.8371 -2.9748
   97MOL0     H13072   3.054   2.914   4.479 -0.8094 -0.7801 -0.6094
   97MOL0     H13073   2.949   2.830   4.750  0.3356  0.1475  0.0367
   97MOL0     H13074   2.895   2.729   4.619 -0.0448  0.6122 -0.2079
   97MOL0     H13075   2.805   2.918   4.499 -0.6224 -1.4390 -0.3632
   97MOL0     H13076   2.865   3.027   4.621 -0.1512  0.2032 -3.6245
   97MOL0     H13077   3.614   3.081   4.396 -1.5200 -1.0334 -2.7775
   97MOL0     H13078   3.765   3.266   4.389 -1.8420  0.4249 -1.3202
   97MOL0     H13079   4.171   3.410   4.137  0.3999  1.6362 -1.6610
   97MOL0     H13080   4.359   3.571   4.098  0.3681  0.7177  0.5775
   97MOL0     H13081   6.525   3.725   4.455 -1.3281  0.9899 -1.0318
   97MOL0     H13082   6.772   3.709   4.416 -0.0859 -0.3634 -0.8052
   97MOL0     H13083   7.169   3.867   4.602 -0.6476  0.6206 -0.0925
   97MOL0     H13084   7.416   3.871   4.602 -0.1308  0.8953 -0.7909
   97MOL0     H13085   7.765   3.807   4.347  0.4580  1.9224  1.7573
   97MOL0     H13086   7.642   3.764   4.229 -2.4795 -0.6198  0.8141
   97MOL0     H13087   7.561   4.008   4.203 -0.6153 -1.9017  0.2561
   97MOL0     H13088   7.732   3.996   4.172  1.4519 -1.2635  1.9744
   97MOL0     H13089   7.607   4.052   4.428 -2.1576 -0.8541 -1.7855
   97MOL0     H13090   7.669   4.170   4.314  1.5445  0.4568  2.1075
   97MOL0     H13091   7.842   3.972   4.487 -1.1674  0.7333  2.4185
   97MOL0     H13092   7.851   4.149   4.493  0.6423 -0.0771  0.2612
   97MOL0     H13093   8.086   4.069   4.156  1.2592 -1.8206  1.6461
   97MOL0     H13094   7.413   3.715   4.202 -0.5337  0.0414  0.1131
   97MOL0     H13095   7.178   3.738   4.186  0.5485 -2.0000 -0.2416
   98MOL0     O13096   0.834   3.044   7.438  0.4419 -0.6312  0.1002
   98MOL0     C13097   0.854   2.925   7.447  0.8247  0.1319 -0.8384
   98MOL0     O13098   0.760   2.827   7.468 -0.6402  0.0463  0.4315
   98MOL0     C13099   0.634   2.854   7.507  1.3712  0.2675  0.3050
   98MOL0     C13100   0.546   2.936   7.429 -0.1443 -0.6982  0.2632
   98MOL0     C13101   0.415   2.959   7.466  0.6599  0.4311  0.5925
   98MOL0     C13102   0.371   2.910   7.584  0.4159 -0.3302  0.3048
   98MOL0     O13103   0.246   2.917   7.640 -0.7140 -0.4948  0.4663
   98MOL0     C13104   0.154   2.871   7.542  1.0521  0.3889 -0.6484
   98MOL0     C13105   0.011   2.904   7.600 -0.9003  0.5575  0.1133
   98MOL0     C13106  -0.101   2.898   7.495 -0.3288  0.4020  0.7620
   98MOL0     C13107  -0.103   3.039   7.426  0.6864 -0.5480  0.1345
   98MOL0     C13108  -0.215   3.055   7.320 -0.2931  0.1585  0.2903
   98MOL0     C13109  -0.360   3.053   7.378 -0.3949  0.1424  1.0618
   98MOL0     C13110  -0.470   3.024   7.277 -0.2084 -0.9572 -0.5154
   98MOL0     C13111  -0.604   3.037   7.340 -0.0681  0.4803 -0.5774
   98MOL0     N13112  -0.719   2.986   7.267  0.1639 -0.3351  0.6183
   98MOL0     C13113  -0.768   3.060   7.163  0.9572  0.5974 -0.0124
   98MOL0     C13114  -0.868   2.999   7.120  0.4289 -0.4527 -0.0433
   98MOL0     C13115  -0.960   3.061   7.021 -0.6089  0.5539 -0.6695
   98MOL0     C13116  -1.098   2.997   7.046 -0.0732  0.4426 -0.8192
   98MOL0     C13117  -1.213   3.076   6.974 -0.3043 -0.0899  0.2645
   98MOL0     C13118  -1.354   3.001   6.972  0.0668 -0.7442  0.8011
   98MOL0     O13119  -1.415   3.020   7.098  0.8791 -0.6267  0.0747
   98MOL0     C13120  -1.548   2.986   7.118 -0.3618  0.6635 -0.3818
   98MOL0     C13121  -1.626   2.908   7.025  0.0023 -0.9231  1.0749
   98MOL0     C13122  -1.762   2.905   7.031 -0.3537 -0.1332 -0.6749
   98MOL0     C13123  -1.835   2.834   6.915 -0.1522  0.1886 -0.2914
   98MOL0     C13124  -1.833   2.959   7.140  0.6381  0.1887  1.2203
   98MOL0     C13125  -1.982   2.943   7.155 -0.3287 -0.4077 -0.7476
   98MOL0     O13126  -2.027   2.927   7.279 -0.4754  0.0278 -0.1532
   98MOL0     C13127  -2.156   2.937   7.314  0.5918  0.2668  0.8411
   98MOL0     C13128  -2.191   2.871   7.435 -0.2684  0.2074 -0.4069
   98MOL0     C13129  -2.318   2.880   7.486 -0.3917  0.2050 -1.3495
   98MOL0     C13130  -2.417   2.947   7.421 -0.3434  0.2662  0.6214
   98MOL0     O13131  -2.553   2.941   7.465 -0.7530  0.4543 -0.1079
   98MOL0     C13132  -2.585   2.937   7.605 -1.0397 -0.4272  0.8945
   98MOL0     C13133  -2.726   2.983   7.635 -0.1802 -0.0788  0.7350
   98MOL0     C13134  -2.767   2.977   7.773 -0.3012 -0.6881 -1.2172
   98MOL0     C13135  -2.899   3.044   7.798 -0.6715 -0.6112  0.3340
   98MOL0     C13136  -2.941   3.028   7.946  0.6827 -0.2849  0.1538
   98MOL0     C13137  -3.089   3.088   7.949 -0.8531 -0.0432  0.1395
   98MOL0     C13138  -3.152   3.077   8.082  0.0744  0.0350  0.1395
   98MOL0     C13139  -3.301   3.072   8.062 -0.5793  1.0045 -0.7302
   98MOL0    Cl13140  -3.372   3.130   8.219 -0.1350 -0.4021  0.0249
   98MOL0     C13141  -2.383   3.018   7.303  0.0801  0.0354 -0.7762
   98MOL0     C13142  -2.252   3.019   7.251  0.3655 -0.0642  0.2200
   98MOL0     O13143  -2.053   2.945   7.055  0.4441 -0.1217  0.1425
   98MOL0     C13144  -1.760   3.025   7.242  0.0862  0.5521 -0.2738
   98MOL0     C13145  -1.623   3.040   7.226  0.2555  0.0510  0.0525
   98MOL0     N13146  -0.869   2.871   7.176 -0.5736 -0.2964  0.5380
   98MOL0     N13147  -0.786   2.876   7.277  0.2222 -0.0379 -0.0400
   98MOL0     C13148   0.452   2.828   7.664  0.3949  0.1673 -0.3883
   98MOL0     C13149   0.584   2.792   7.622  0.0891 -0.5992  0.1894
   98MOL0     C13150   0.981   2.876   7.399 -0.1543  0.6325 -0.1100
   98MOL0     C13151   1.072   2.951   7.324  0.1706 -0.8808 -0.3141
   98MOL0     C13152   1.182   2.892   7.269 -0.5204 -0.1605  0.2856
   98MOL0     C13153   1.211   2.758   7.291  0.0631  0.4417 -0.0428
   98MOL0     O13154   1.313   2.688   7.233 -0.0648  0.3494  0.0801
   98MOL0     C13155   1.434   2.750   7.187  0.2996  0.1295 -0.3623
   98MOL0     C13156   1.433   2.814   7.050  0.6922 -0.2736  0.4424
   98MOL0     C13157   1.573   2.798   6.992 -0.0317 -1.1556  0.3194
   98MOL0     C13158   1.569   2.825   6.840  0.0446 -0.0541 -0.1479
   98MOL0     C13159   1.709   2.828   6.793 -0.7818  0.0666 -0.1096
   98MOL0     C13160   1.824   2.835   6.742 -0.2239  0.5900 -0.1143
   98MOL0     C13161   1.127   2.680   7.367  0.7594 -0.2537 -0.4534
   98MOL0     C13162   1.011   2.735   7.415  0.3016 -0.4628  0.8668
   98MOL0     H13163   0.577   2.982   7.336  2.2465 -0.7830  0.9509
   98MOL0     H13164   0.350   3.030   7.415  0.3125 -1.4804 -1.8202
   98MOL0     H13165   0.167   2.913   7.442  1.3414  1.2416 -0.2609
   98MOL0     H13166   0.178   2.765   7.532  2.8235  0.9248 -2.8576
   98MOL0     H13167  -0.007   2.854   7.695  2.0305  1.5679  1.3006
   98MOL0     H13168   0.023   3.011   7.619 -4.9703  1.7864 -2.7388
   98MOL0     H13169  -0.088   2.814   7.425 -1.8370  0.7572  0.0204
   98MOL0     H13170  -0.201   2.877   7.534 -1.0933  0.6852 -0.9549
   98MOL0     H13171  -0.134   3.123   7.490  2.7906  0.6585 -0.3306
   98MOL0     H13172  -0.004   3.070   7.390  0.8067 -3.0139 -1.9163
   98MOL0     H13173  -0.194   3.146   7.262  0.1819  0.1289  0.4059
   98MOL0     H13174  -0.203   2.969   7.254  1.0333  0.2893  0.3255
   98MOL0     H13175  -0.370   2.975   7.454  0.8787 -0.3487  0.7448
   98MOL0     H13176  -0.377   3.151   7.422  2.0169  1.1007  0.0418
   98MOL0     H13177  -0.452   3.102   7.202  1.0070 -1.1066 -0.3971
   98MOL0     H13178  -0.462   2.928   7.225 -1.6239  0.0596 -2.7957
   98MOL0     H13179  -0.618   3.144   7.359  1.1955  1.1836 -3.1205
   98MOL0     H13180  -0.601   2.985   7.437  1.6494 -0.9110 -1.3271
   98MOL0     H13181  -0.735   3.158   7.131  1.4318  1.1816  2.1254
   98MOL0     H13182  -0.963   3.170   7.030  1.4392  0.4928  1.9851
   98MOL0     H13183  -0.912   3.030   6.928  2.7278 -0.5359  1.2473
   98MOL0     H13184  -1.121   2.993   7.153  0.6946 -1.6809 -0.6814
   98MOL0     H13185  -1.093   2.893   7.010  0.3996  0.5687 -1.1249
   98MOL0     H13186  -1.169   3.087   6.874 -1.5520 -0.1907 -0.3127
   98MOL0     H13187  -1.218   3.178   7.015  1.4049 -0.8897  2.6820
   98MOL0     H13188  -1.354   2.896   6.942 -3.4521 -0.2186 -1.6103
   98MOL0     H13189  -1.402   3.049   6.887  1.0922 -0.1232  0.5579
   98MOL0     H13190  -1.562   2.857   6.953  3.8904  1.3973  2.5442
   98MOL0     H13191  -1.880   2.744   6.958  2.6442 -1.1408  0.0973
   98MOL0     H13192  -1.913   2.890   6.864 -0.8444  0.4999  1.0500
   98MOL0     H13193  -1.764   2.807   6.836  0.5850  0.0140  0.4079
   98MOL0     H13194  -2.122   2.828   7.507 -1.0044 -1.0498 -0.4165
   98MOL0     H13195  -2.336   2.846   7.588 -0.1715 -0.9716 -1.6792
   98MOL0     H13196  -2.578   2.837   7.649 -3.3358 -0.2820  1.7413
   98MOL0     H13197  -2.514   2.999   7.661  0.4294  0.3358 -1.6610
   98MOL0     H13198  -2.733   3.090   7.611 -2.6691 -0.8873 -3.0768
   98MOL0     H13199  -2.788   2.919   7.571 -0.3367 -0.4627  1.2695
   98MOL0     H13200  -2.680   3.010   7.831 -0.9533 -0.4062 -0.3741
   98MOL0     H13201  -2.788   2.878   7.816  0.2219  0.1466  1.1279
   98MOL0     H13202  -2.885   3.148   7.768  1.0337 -1.0330 -0.4843
   98MOL0     H13203  -2.966   2.986   7.734 -0.1906 -1.0406  0.2127
   98MOL0     H13204  -2.875   3.091   8.005 -0.6966 -0.1953  1.6723
   98MOL0     H13205  -2.943   2.928   7.992  1.1459  0.8784  2.9031
   98MOL0     H13206  -3.081   3.193   7.921 -0.3274 -0.3739 -1.0436
   98MOL0     H13207  -3.152   3.032   7.879  0.8167 -3.5212  1.1753
   98MOL0     H13208  -3.126   3.163   8.144 -1.0822  0.0507  0.6287
   98MOL0     H13209  -3.132   2.986   8.139  2.7209  1.2202  1.2513
   98MOL0     H13210  -3.329   2.968   8.043  1.2953  0.6263 -1.5931
   98MOL0     H13211  -3.334   3.141   7.984 -1.3605  1.2382 -0.2102
   98MOL0     H13212  -2.459   3.074   7.250 -3.7222 -3.2399  0.6705
   98MOL0     H13213  -2.242   3.073   7.157 -3.6029 -1.8574 -1.4560
   98MOL0     H13214  -1.799   3.076   7.330  0.0202  1.7297 -0.9646
   98MOL0     H13215  -1.554   3.098   7.287  0.1859 -1.8812  2.0826
   98MOL0     H13216   0.415   2.780   7.754 -0.7859 -1.3385 -1.6253
   98MOL0     H13217   0.649   2.720   7.670 -0.1718 -0.3711  0.8925
   98MOL0     H13218   1.047   3.054   7.298 -1.0736 -1.4687 -1.6273
   98MOL0     H13219   1.254   2.934   7.200  3.0272 -7.0923 -1.1694
   98MOL0     H13220   1.477   2.822   7.258  1.0930  0.1793 -0.8816
   98MOL0     H13221   1.512   2.673   7.182 -0.6713 -1.1407  2.1606
   98MOL0     H13222   1.406   2.920   7.041 -0.6894 -0.6541 -0.2760
   98MOL0     H13223   1.357   2.763   6.989 -0.4536  0.0614  1.5274
   98MOL0     H13224   1.620   2.702   7.013 -0.1629 -1.1709  0.5422
   98MOL0     H13225   1.626   2.878   7.045 -2.5316  0.0080  1.2045
   98MOL0     H13226   1.517   2.916   6.808  2.4696  0.9255 -1.5797
   98MOL0     H13227   1.511   2.744   6.796 -0.3948  1.1693 -1.9299
   98MOL0     H13228   1.923   2.856   6.706  0.2860  1.1031  1.5017
   98MOL0     H13229   1.153   2.575   7.377 -1.5959 -0.8232  0.2932
   98MOL0     H13230   0.934   2.673   7.460 -0.2697 -0.6666 -0.3431
   99MOL0     O13231  11.346   9.609  10.048  0.3101 -0.0814 -0.0996
   99MOL0     C13232  11.339   9.560  10.154  0.1446  0.9789 -0.5283
   99MOL0     O13233  11.227   9.521  10.222  0.2736  0.0789 -0.1797
   99MOL0     C13234  11.111   9.544  10.150  0.6737 -0.7570  0.3501
   99MOL0     C13235  11.049   9.432  10.102  0.9232 -0.4869  0.4076
   99MOL0     C13236  10.922   9.430  10.049 -0.3610  0.3952 -0.4458
   99MOL0     C13237  10.858   9.556  10.050  0.6080 -0.5113 -0.5708
   99MOL0     O13238  10.723   9.560  10.010  0.0006  0.5462  0.5130
   99MOL0     C13239  10.676   9.669   9.928  0.1445  0.3751 -0.4160
   99MOL0     C13240  10.547   9.638   9.860 -0.4112  0.2078 -0.0591
   99MOL0     C13241  10.433   9.635   9.963 -0.8347 -0.7526  0.2043
   99MOL0     C13242  10.297   9.606   9.888 -0.8461 -0.2223 -1.3156
   99MOL0     C13243  10.168   9.629   9.960 -0.3775 -0.3618 -0.2417
   99MOL0     C13244  10.042   9.612   9.872 -0.0766  1.1465 -0.1955
   99MOL0     C13245   9.998   9.472   9.824 -0.1595  0.1042 -0.0439
   99MOL0     C13246   9.956   9.375   9.938  0.4888  0.1843  1.1748
   99MOL0     N13247   9.825   9.410   9.979 -0.1587 -0.3471 -0.5270
   99MOL0     C13248   9.715   9.339   9.934  0.3566  0.5843  0.0817
   99MOL0     C13249   9.614   9.382  10.004  0.1955 -0.7424 -0.3564
   99MOL0     C13250   9.479   9.329   9.999 -0.2423  0.4475  0.7657
   99MOL0     C13251   9.452   9.220  10.103  0.3186  0.1870 -0.0835
   99MOL0     C13252   9.452   9.275  10.249 -0.3166 -0.2371  0.3111
   99MOL0     C13253   9.315   9.264  10.322 -0.0162 -0.4365  0.1565
   99MOL0     O13254   9.213   9.347  10.254  0.0040 -0.2438  0.0012
   99MOL0     C13255   9.104   9.388  10.327 -0.2033 -0.1247 -0.4132
   99MOL0     C13256   9.070   9.342  10.454 -0.4860  0.0182 -0.1986
   99MOL0     C13257   8.961   9.386  10.520  0.7126  0.5032 -0.6322
   99MOL0     C13258   8.933   9.322  10.662  0.2426 -0.2738  0.0718
   99MOL0     C13259   8.865   9.475  10.451 -0.3103  0.9590  0.4178
   99MOL0     C13260   8.740   9.510  10.507  0.5536  0.2782  0.3250
   99MOL0     O13261   8.632   9.527  10.411 -0.2533 -0.7673 -0.2966
   99MOL0     C13262   8.524   9.605  10.433  0.1582 -0.0992  0.7163
   99MOL0     C13263   8.412   9.570  10.361  0.4106  0.6153  0.8132
   99MOL0     C13264   8.286   9.637  10.374 -0.0765 -0.2322 -0.1639
   99MOL0     C13265   8.287   9.748  10.459 -0.6610  0.0905  0.8514
   99MOL0     O13266   8.178   9.827  10.450  0.1721  0.5046  1.1275
   99MOL0     C13267   8.190   9.964  10.460  0.1431  0.2589 -0.4678
   99MOL0     C13268   8.163  10.025  10.598  0.1875 -0.6994 -0.1506
   99MOL0     C13269   8.048   9.967  10.686  0.0542  0.7807  0.6996
   99MOL0     C13270   7.907   9.991  10.616 -0.0627  0.1466 -0.4829
   99MOL0     C13271   7.789   9.924  10.699  0.2903  0.7534 -0.4257
   99MOL0     C13272   7.652   9.939  10.622  0.5179 -0.0612 -1.0615
   99MOL0     C13273   7.549   9.849  10.694 -1.1001 -0.7316  0.6225
   99MOL0     C13274   7.423   9.816  10.607 -0.0908  0.5464 -0.3605
   99MOL0    Cl13275   7.347   9.962  10.540 -0.4147  0.0865  0.3539
   99MOL0     C13276   8.403   9.795  10.527  0.5818 -0.6556  0.0983
   99MOL0     C13277   8.514   9.721  10.514 -0.5813 -0.2817  0.7789
   99MOL0     O13278   8.730   9.530  10.630 -0.4299 -0.1799 -0.1880
   99MOL0     C13279   8.893   9.519  10.321 -0.3001  0.3040  0.4499
   99MOL0     C13280   9.008   9.465  10.257 -0.5421  0.5213 -0.0199
   99MOL0     N13281   9.657   9.482  10.094 -0.1439  0.0054 -0.1702
   99MOL0     N13282   9.789   9.493  10.079 -0.7764 -0.0558 -0.2279
   99MOL0     C13283  10.919   9.672  10.085 -0.0849 -0.5360 -0.3042
   99MOL0     C13284  11.044   9.668  10.136 -0.2629 -0.1435  0.8238
   99MOL0     C13285  11.469   9.522  10.216 -0.0091 -0.0849 -0.2006
   99MOL0     C13286  11.588   9.578  10.174 -0.3858 -1.4381 -1.1549
   99MOL0     C13287  11.713   9.546  10.235 -0.1074 -0.6211 -1.0562
   99MOL0     C13288  11.725   9.444  10.335 -0.1775 -1.3138  0.2668
   99MOL0     O13289  11.847   9.410  10.388  0.1921  0.2357 -0.5464
   99MOL0     C13290  11.969   9.473  10.340  0.9741  0.7010 -0.0843
   99MOL0     C13291  12.092   9.435  10.425  0.9721  0.0172  0.4464
   99MOL0     C13292  12.228   9.482  10.358  0.3240 -1.2773  0.4139
   99MOL0     C13293  12.338   9.395  10.422  0.6521 -0.6123  0.2370
   99MOL0     C13294  12.460   9.452  10.356  0.5831  0.0313  0.5561
   99MOL0     C13295  12.561   9.497  10.302  0.1671 -0.0537 -0.7349
   99MOL0     C13296  11.606   9.376  10.362  0.0042  0.7853  1.2407
   99MOL0     C13297  11.483   9.416  10.311 -0.0790 -0.0135  0.4200
   99MOL0     H13298  11.116   9.347  10.105  0.1833 -1.0767  0.6899
   99MOL0     H13299  10.878   9.338  10.013  1.2359 -0.3381 -0.5904
   99MOL0     H13300  10.661   9.753   9.996  0.4619 -0.6696  0.9984
   99MOL0     H13301  10.751   9.691   9.851 -0.2140  5.6826  0.3681
   99MOL0     H13302  10.516   9.718   9.792  0.4159  1.6838  1.2366
   99MOL0     H13303  10.561   9.539   9.815 -1.1280 -0.3272  0.8599
   99MOL0     H13304  10.451   9.554  10.034  1.0285 -2.1146 -1.6830
   99MOL0     H13305  10.418   9.733  10.009  1.6053 -0.5935  0.7971
   99MOL0     H13306  10.294   9.681   9.808 -0.8465  1.2642  0.0339
   99MOL0     H13307  10.306   9.507   9.842  4.2760 -0.4823 -0.3334
   99MOL0     H13308  10.159   9.558  10.042 -0.8577  0.5599  0.5298
   99MOL0     H13309  10.153   9.725  10.011 -4.4444 -0.9166 -0.0166
   99MOL0     H13310   9.955   9.646   9.928 -2.3314 -2.1607 -1.3789
   99MOL0     H13311  10.036   9.678   9.785 -0.1810  3.2014  1.3069
   99MOL0     H13312   9.915   9.468   9.754 -1.3868 -1.5872  1.4177
   99MOL0     H13313  10.084   9.421   9.779 -0.1829 -2.1069  2.2150
   99MOL0     H13314  10.034   9.377  10.014 -1.4895 -0.0323  3.3190
   99MOL0     H13315   9.952   9.275   9.893  0.5025  0.1961  1.1476
   99MOL0     H13316   9.721   9.259   9.860  0.6606 -1.0326  1.7871
   99MOL0     H13317   9.404   9.408  10.006 -3.3756 -2.3263  1.0952
   99MOL0     H13318   9.461   9.280   9.903 -1.9429 -2.3269  2.3455
   99MOL0     H13319   9.528   9.141  10.095  1.2605  1.0198  0.3230
   99MOL0     H13320   9.355   9.173  10.086  1.4861 -1.6206 -2.3529
   99MOL0     H13321   9.482   9.381  10.251 -0.6210 -0.1637  1.1037
   99MOL0     H13322   9.527   9.219  10.306  1.9939 -0.1531 -2.4159
   99MOL0     H13323   9.339   9.300  10.422 -1.0434 -0.3094  0.3684
   99MOL0     H13324   9.279   9.160  10.322 -2.0347  0.2244 -0.0345
   99MOL0     H13325   9.140   9.285  10.513  0.5173  0.6889 -0.7174
   99MOL0     H13326   8.852   9.249  10.652  1.2214 -1.6413  1.6068
   99MOL0     H13327   9.017   9.266  10.703  0.9016  1.3325  0.9535
   99MOL0     H13328   8.903   9.392  10.740 -2.7300 -2.6364  1.2640
   99MOL0     H13329   8.415   9.475  10.309  2.5526  0.7408  0.6217
   99MOL0     H13330   8.193   9.605  10.329  0.5571 -2.3095 -0.0879
   99MOL0     H13331   8.284  10.010  10.426 -1.3302  3.0074 -1.1332
   99MOL0     H13332   8.123  10.009  10.385  2.1701  2.7775 -0.9380
   99MOL0     H13333   8.257  10.013  10.654 -0.7307  0.4840  1.7308
   99MOL0     H13334   8.135  10.130  10.587  0.5156 -0.5395  0.4832
   99MOL0     H13335   8.024  10.005  10.786 -2.1277  0.5300  0.3107
   99MOL0     H13336   8.067   9.860  10.693 -1.0188  0.5004 -0.3951
   99MOL0     H13337   7.883  10.095  10.593 -0.9803  0.4082  1.4654
   99MOL0     H13338   7.909   9.941  10.519  1.5353 -0.0372 -0.3863
   99MOL0     H13339   7.777   9.975  10.795  0.8034 -1.4449  0.8808
   99MOL0     H13340   7.814   9.818  10.703 -0.5374  0.5404 -0.6184
   99MOL0     H13341   7.625  10.040  10.592  1.6725 -0.0593 -2.2186
   99MOL0     H13342   7.670   9.892  10.525 -0.6709  0.0918 -1.3675
   99MOL0     H13343   7.520   9.904  10.783 -0.4300  1.4466 -0.4180
   99MOL0     H13344   7.595   9.754  10.722 -0.6898 -0.9373 -0.6699
   99MOL0     H13345   7.348   9.769  10.672  1.2741  0.8138  1.5041
   99MOL0     H13346   7.447   9.750  10.523 -1.4047 -1.4982  0.7641
   99MOL0     H13347   8.409   9.891  10.578  1.1492 -0.9947  0.6780
   99MOL0     H13348   8.600   9.741  10.577 -0.4373 -3.3288  1.6870
   99MOL0     H13349   8.833   9.575  10.249 -0.4412 -1.9626 -1.2980
   99MOL0     H13350   9.021   9.493  10.153 -1.3586 -1.4105 -0.6891
   99MOL0     H13351  10.866   9.767  10.085  0.0440 -0.3758  2.5917
   99MOL0     H13352  11.104   9.755  10.161  0.7809 -0.6240  0.0589
   99MOL0     H13353  11.581   9.658  10.101  1.3277  1.6846  1.7813
   99MOL0     H13354  11.796   9.607  10.199  0.1748 -1.4949 -1.9411
   99MOL0     H13355  11.991   9.452  10.235  1.2328  3.3308 -0.6084
   99MOL0     H13356  11.956   9.581  10.341 -2.2706  0.4106  0.9057
   99MOL0     H13357  12.093   9.326  10.423  2.4113  0.0326 -0.3786
   99MOL0     H13358  12.095   9.464  10.530  0.2356  2.0338 -0.0311
   99MOL0     H13359  12.248   9.589  10.368  0.2652 -0.9962 -1.9937
   99MOL0     H13360  12.224   9.468  10.250 -1.3240  1.8371 -0.0544
   99MOL0     H13361  12.315   9.296  10.381  1.6456  0.0876 -2.1666
   99MOL0     H13362  12.355   9.389  10.530 -1.1827  0.6504  0.6497
   99MOL0     H13363  12.654   9.545  10.277  0.9991  0.0130  2.1174
   99MOL0     H13364  11.610   9.291  10.430  0.8458  0.3860  0.7053
   99MOL0     H13365  11.394   9.368  10.349  0.1282  0.7380  1.9416
  100MOL0     O13366   5.321   4.145  11.002 -0.2525 -0.4561  0.5187
  100MOL0     C13367   5.269   4.045  11.051 -0.3340  0.7018  0.8534
  100MOL0     O13368   5.307   3.986  11.174  0.0333  0.3430 -0.2047
  100MOL0     C13369   5.422   4.014  11.239 -0.3399 -0.5634  0.3889
  100MOL0     C13370   5.495   3.913  11.297 -0.1163 -0.0939  0.2238
  100MOL0     C13371   5.614   3.933  11.371  0.7747 -0.7280 -0.1816
  100MOL0     C13372   5.663   4.061  11.404 -0.8938  0.0697  0.2272
  100MOL0     O13373   5.765   4.084  11.496 -0.1052 -0.3497  0.2718
  100MOL0     C13374   5.861   3.990  11.510 -0.2988  0.0220 -0.2425
  100MOL0     C13375   5.826   3.886  11.623  0.1320 -0.4242  0.5425
  100MOL0     C13376   5.928   3.771  11.613  0.4265 -0.1530  0.0249
  100MOL0     C13377   6.073   3.803  11.654  0.0372  0.1016 -0.8988
  100MOL0     C13378   6.175   3.707  11.588  0.9002  0.0122 -0.2499
  100MOL0     C13379   6.139   3.553  11.613 -0.5078 -0.4309 -0.5743
  100MOL0     C13380   6.241   3.475  11.536  0.7893 -1.1195 -0.6738
  100MOL0     C13381   6.241   3.326  11.569 -0.4057  0.2157 -0.5531
  100MOL0     N13382   6.104   3.259  11.565 -0.7886  0.2078 -0.3009
  100MOL0     C13383   6.044   3.209  11.459  0.3906 -0.3430  0.5174
  100MOL0     C13384   5.915   3.176  11.495 -1.0224  0.4689  0.6522
  100MOL0     C13385   5.807   3.123  11.408 -0.0244  0.0392  0.2161
  100MOL0     C13386   5.678   3.204  11.443  0.3551 -0.0463 -0.3893
  100MOL0     C13387   5.597   3.156  11.565 -0.4491 -0.9362  0.6511
  100MOL0     C13388   5.563   3.002  11.563 -0.6316  0.4129  0.9031
  100MOL0     O13389   5.489   2.973  11.441 -0.3890 -0.0814 -0.1391
  100MOL0     C13390   5.368   3.026  11.396 -0.1040  1.0707  0.4793
  100MOL0     C13391   5.355   3.027  11.256  0.2532  0.0668 -0.5279
  100MOL0     C13392   5.250   3.094  11.185 -0.2586  0.4694 -0.3128
  100MOL0     C13393   5.269   3.091  11.034  0.4159  0.0919 -0.9957
  100MOL0     C13394   5.153   3.169  11.259  1.0402  0.6987 -0.0142
  100MOL0     C13395   5.039   3.240  11.198  1.1660  0.2258  0.1001
  100MOL0     O13396   4.941   3.283  11.287  0.1940  0.7772 -0.0758
  100MOL0     C13397   4.814   3.330  11.252 -1.1834  0.3651 -0.0796
  100MOL0     C13398   4.773   3.392  11.130  0.5718  0.6110  0.2656
  100MOL0     C13399   4.650   3.451  11.121  0.7178 -0.5376  0.0281
  100MOL0     C13400   4.554   3.441  11.228  0.6545 -0.2593 -0.8216
  100MOL0     O13401   4.437   3.516  11.234 -0.9395  0.4031 -0.6212
  100MOL0     C13402   4.381   3.532  11.106 -0.2224  0.1741  0.2758
  100MOL0     C13403   4.238   3.580  11.137  0.0820  0.6567 -0.4328
  100MOL0     C13404   4.183   3.611  10.999  0.9023 -0.0332 -0.6514
  100MOL0     C13405   4.025   3.644  10.998 -0.4613  0.0140  0.5829
  100MOL0     C13406   3.977   3.766  10.916 -0.5446  0.5593  0.7503
  100MOL0     C13407   3.824   3.782  10.932 -0.7472 -0.8319  0.1585
  100MOL0     C13408   3.756   3.885  10.848  0.7975 -1.0089  0.0461
  100MOL0     C13409   3.602   3.893  10.857 -0.9077  0.2932  0.6325
  100MOL0    Cl13410   3.551   3.992  10.706  0.3847 -0.2085  0.0621
  100MOL0     C13411   4.592   3.374  11.340 -1.0171  0.2376 -0.5447
  100MOL0     C13412   4.724   3.328  11.356  0.1694  0.8479 -0.3180
  100MOL0     O13413   5.039   3.251  11.081 -0.1389  0.2026 -0.0986
  100MOL0     C13414   5.159   3.167  11.406  0.1634  1.3670  0.4872
  100MOL0     C13415   5.264   3.091  11.466 -0.3071 -0.2552  0.2845
  100MOL0     N13416   5.913   3.192  11.633  0.4499  0.1427 -0.3781
  100MOL0     N13417   6.022   3.246  11.673 -0.4684  0.9162 -0.1904
  100MOL0     C13418   5.588   4.161  11.351  0.5181 -0.1783  0.2890
  100MOL0     C13419   5.480   4.143  11.257 -0.0789  0.4105 -0.4019
  100MOL0     C13420   5.157   3.984  10.974  0.0656  0.0555 -0.0233
  100MOL0     C13421   5.110   4.054  10.860 -0.2016  0.8102 -0.4084
  100MOL0     C13422   4.996   4.004  10.794 -0.1925 -1.1531 -0.3904
  100MOL0     C13423   4.937   3.882  10.822  0.4311 -0.4250 -0.0630
  100MOL0     O13424   4.836   3.848  10.745  0.3835  1.0992  0.3338
  100MOL0     C13425   4.779   3.715  10.728  0.1765  0.0689 -0.5577
  100MOL0     C13426   4.875   3.620  10.665  0.0961 -0.4426  0.2394
  100MOL0     C13427   4.930   3.652  10.528 -0.4255 -0.1402 -0.4513
  100MOL0     C13428   4.811   3.655  10.422  1.1986  0.2220 -0.3175
  100MOL0     C13429   4.848   3.674  10.285  0.1909 -0.0745  0.7486
  100MOL0     C13430   4.868   3.721  10.178 -0.1199  0.1432  0.2065
  100MOL0     C13431   4.989   3.808  10.935 -0.3265 -0.0428  0.5303
  100MOL0     C13432   5.091   3.867  11.012 -0.7269 -0.6198  0.7016
  100MOL0     H13433   5.457   3.812  11.284 -2.9279  0.7050  1.5119
  100MOL0     H13434   5.675   3.849  11.403  2.6757  0.7383  0.2437
  100MOL0     H13435   5.891   3.951  11.413 -0.5510  0.2917 -0.4299
  100MOL0     H13436   5.947   4.048  11.546 -0.9368  0.8738 -0.0623
  100MOL0     H13437   5.838   3.932  11.722 -1.0639 -2.7419  1.8647
  100MOL0     H13438   5.723   3.849  11.615 -0.4338  0.8984  1.2736
  100MOL0     H13439   5.884   3.685  11.664 -0.8221  1.3069  1.5501
  100MOL0     H13440   5.930   3.750  11.506  0.0505 -1.8327  0.3194
  100MOL0     H13441   6.116   3.902  11.634  1.0539  0.1458  1.1274
  100MOL0     H13442   6.081   3.790  11.762 -2.1458 -4.5052 -1.0869
  100MOL0     H13443   6.163   3.744  11.485 -1.2499  3.4430  1.0545
  100MOL0     H13444   6.277   3.722  11.624  1.0615  1.8752 -1.3323
  100MOL0     H13445   6.150   3.543  11.722 -0.9889  2.4182 -0.1841
  100MOL0     H13446   6.036   3.526  11.588 -0.8404  0.3387 -0.1114
  100MOL0     H13447   6.213   3.489  11.431 -2.0076  0.3232  0.1513
  100MOL0     H13448   6.342   3.515  11.551  0.4913 -1.0520  1.5354
  100MOL0     H13449   6.271   3.316  11.674 -0.1289  1.0550 -0.5419
  100MOL0     H13450   6.317   3.284  11.503  0.4789  1.1952 -0.2007
  100MOL0     H13451   6.081   3.221  11.358 -1.8134 -1.6364 -0.5111
  100MOL0     H13452   5.839   3.125  11.303  1.8009 -0.4705  0.7379
  100MOL0     H13453   5.795   3.017  11.430  0.6241 -0.0291  0.2378
  100MOL0     H13454   5.606   3.212  11.361 -0.6107  4.6669  0.6144
  100MOL0     H13455   5.696   3.310  11.460 -0.5998  0.0844 -0.1203
  100MOL0     H13456   5.514   3.222  11.591  1.7235  2.8802 -1.3075
  100MOL0     H13457   5.664   3.170  11.650  0.9117 -1.1134 -0.3581
  100MOL0     H13458   5.503   2.967  11.647  1.8080 -0.2196  2.4591
  100MOL0     H13459   5.656   2.946  11.574 -1.5662 -1.3399  0.2014
  100MOL0     H13460   5.438   2.995  11.193 -0.2814 -2.0149 -0.2576
  100MOL0     H13461   5.318   3.002  10.995  0.9921  0.3302 -0.8259
  100MOL0     H13462   5.173   3.092  10.981 -0.3188 -1.5775  0.1892
  100MOL0     H13463   5.319   3.180  10.996 -0.5220  0.6972 -0.8692
  100MOL0     H13464   4.838   3.395  11.042 -1.8981 -1.4574 -1.7879
  100MOL0     H13465   4.626   3.509  11.032  1.9201  1.1450  0.7520
  100MOL0     H13466   4.419   3.617  11.048 -1.9167  1.5569  1.1070
  100MOL0     H13467   4.373   3.440  11.047  0.1693 -0.2047  0.8075
  100MOL0     H13468   4.185   3.502  11.192 -1.2404  0.4725 -1.9027
  100MOL0     H13469   4.236   3.673  11.194 -0.5979 -0.1367  0.8801
  100MOL0     H13470   4.188   3.524  10.934 -3.7139 -0.7163 -0.4302
  100MOL0     H13471   4.240   3.688  10.945  1.2363  0.3435  0.2174
  100MOL0     H13472   3.976   3.563  10.945  0.9753  0.1519 -1.0498
  100MOL0     H13473   3.980   3.655  11.097 -1.4716  2.0190 -0.0412
  100MOL0     H13474   4.002   3.748  10.811  1.8893  0.7060  1.2618
  100MOL0     H13475   4.027   3.856  10.953 -0.3613  0.2589  1.2322
  100MOL0     H13476   3.782   3.689  10.894  0.5164 -0.4191 -2.4643
  100MOL0     H13477   3.808   3.807  11.037 -0.8188 -0.2588  0.0186
  100MOL0     H13478   3.782   3.852  10.747  3.1141 -1.1298  0.6126
  100MOL0     H13479   3.801   3.985  10.852 -1.3258  0.0495 -1.0905
  100MOL0     H13480   3.572   3.941  10.950 -1.6703  0.5463  0.2573
  100MOL0     H13481   3.565   3.790  10.860 -1.7157  0.4630 -1.6377
  100MOL0     H13482   4.514   3.360  11.414 -1.4181 -0.4022 -1.0799
  100MOL0     H13483   4.747   3.268  11.444 -1.1862 -0.6677 -0.9619
  100MOL0     H13484   5.082   3.208  11.471 -0.9338  1.7813 -1.0005
  100MOL0     H13485   5.262   3.095  11.575 -0.1182  0.7609  0.2591
  100MOL0     H13486   5.615   4.260  11.385  1.7100 -0.7602  1.0963
  100MOL0     H13487   5.428   4.232  11.223  0.1441  1.1899  1.2186
  100MOL0     H13488   5.142   4.153  10.829  1.7827  0.3511  0.0340
  100MOL0     H13489   4.958   4.068  10.715 -0.8662  0.5490  1.2360
  100MOL0     H13490   4.736   3.672  10.819  1.6076  0.9269  0.5675
  100MOL0     H13491   4.693   3.719  10.660  0.6325  0.7707 -1.1034
  100MOL0     H13492   4.815   3.530  10.652  1.2692 -1.2530  0.2751
  100MOL0     H13493   4.957   3.598  10.734 -0.7767  0.6915  1.7061
  100MOL0     H13494   4.995   3.567  10.505  0.6339  0.4948  0.1472
  100MOL0     H13495   4.983   3.747  10.523  2.4002 -1.4995  1.2029
  100MOL0     H13496   4.740   3.733  10.448 -1.1997 -1.5199 -1.2036
  100MOL0     H13497   4.755   3.561  10.424 -2.4726  2.2459 -0.9336
  100MOL0     H13498   4.887   3.755  10.078  4.0810 -4.7360 -1.1092
  100MOL0     H13499   4.950   3.710  10.962  0.8989 -0.9172 -0.7422
  100MOL0     H13500   5.119   3.843  11.114  0.1544 -1.3286  0.3027
  101MOL0     O13501   5.418   2.076   0.864  0.5015 -0.4466  0.2327
  101MOL0     C13502   5.453   2.048   0.755  0.1289  0.6625  0.7565
  101MOL0     O13503   5.371   1.973   0.667 -0.1510 -0.6239  0.0173
  101MOL0     C13504   5.266   1.909   0.726 -0.5283  0.2416  0.6551
  101MOL0     C13505   5.148   1.916   0.654 -0.2826 -0.5110  0.1951
  101MOL0     C13506   5.036   1.840   0.684  0.1915 -0.7080 -0.0591
  101MOL0     C13507   5.050   1.761   0.796  0.4675 -0.6901  0.0561
  101MOL0     O13508   4.936   1.686   0.830 -0.3163 -0.0532 -0.1935
  101MOL0     C13509   4.901   1.670   0.970  0.0537  0.5754 -0.6925
  101MOL0     C13510   4.792   1.555   0.981  0.3237  0.6577  0.1005
  101MOL0     C13511   4.649   1.602   0.951  1.1046 -0.4638  1.2786
  101MOL0     C13512   4.549   1.480   0.951 -0.0406  0.2339 -0.5668
  101MOL0     C13513   4.402   1.518   0.924 -0.4573 -0.3879 -0.3604
  101MOL0     C13514   4.305   1.403   0.905  0.3943 -0.0676 -0.4571
  101MOL0     C13515   4.158   1.443   0.912  0.0900 -0.0891 -0.0396
  101MOL0     C13516   4.121   1.547   0.805  0.3820  0.2407 -0.0563
  101MOL0     N13517   3.975   1.538   0.771  0.4231 -1.1231 -0.2461
  101MOL0     C13518   3.870   1.567   0.849 -0.3332  0.5200  0.3285
  101MOL0     C13519   3.761   1.554   0.769 -0.0167  0.8013 -0.2056
  101MOL0     C13520   3.618   1.569   0.814 -0.1749 -0.9227  0.0913
  101MOL0     C13521   3.533   1.451   0.760  0.1415  0.2408 -0.1771
  101MOL0     C13522   3.380   1.452   0.807 -0.0636 -0.4150 -0.1176
  101MOL0     C13523   3.365   1.382   0.942  0.1714  0.6394 -0.4010
  101MOL0     O13524   3.230   1.361   0.990 -0.4234 -0.2338 -0.3866
  101MOL0     C13525   3.139   1.274   0.934 -0.1162 -0.9933 -0.0524
  101MOL0     C13526   3.172   1.180   0.835  0.1000  0.0593  0.2917
  101MOL0     C13527   3.080   1.091   0.779  0.4064  0.4152 -0.3653
  101MOL0     C13528   3.137   0.974   0.691 -0.5091 -0.7826 -0.8756
  101MOL0     C13529   2.945   1.101   0.812  1.1177  0.2395 -0.4454
  101MOL0     C13530   2.835   1.033   0.739  0.4787  0.0719 -0.6652
  101MOL0     O13531   2.710   1.038   0.800  0.3601  1.0283 -0.2754
  101MOL0     C13532   2.613   0.998   0.715 -0.3964 -1.2662  0.7289
  101MOL0     C13533   2.580   0.864   0.704  0.7161 -0.6678  0.5016
  101MOL0     C13534   2.483   0.819   0.608 -0.1416 -0.1336  0.4935
  101MOL0     C13535   2.416   0.910   0.523  0.8647 -0.5271  0.3389
  101MOL0     O13536   2.299   0.887   0.454 -0.4068  0.3651 -1.2839
  101MOL0     C13537   2.205   0.787   0.499 -0.1128 -0.1456  0.5287
  101MOL0     C13538   2.061   0.852   0.492 -0.6770 -0.6166 -0.4958
  101MOL0     C13539   2.017   0.856   0.345 -0.1719 -0.1117 -0.1257
  101MOL0     C13540   1.899   0.936   0.320 -0.6946  0.2011 -0.4955
  101MOL0     C13541   1.772   0.873   0.373  0.3103 -0.4622 -1.4617
  101MOL0     C13542   1.732   0.747   0.295  0.5079  0.6377 -0.7403
  101MOL0     C13543   1.585   0.721   0.318  0.9321 -0.2048 -0.0082
  101MOL0     C13544   1.549   0.720   0.472 -0.1723 -0.1252  0.6281
  101MOL0    Cl13545   1.373   0.701   0.482  0.1394 -0.1817  0.6180
  101MOL0     C13546   2.451   1.048   0.539 -0.4822 -0.2497  0.4557
  101MOL0     C13547   2.549   1.096   0.633  0.1623 -0.4994  0.5312
  101MOL0     O13548   2.862   0.997   0.628  0.5376 -0.1685 -0.7414
  101MOL0     C13549   2.920   1.185   0.921 -0.0310  0.0461  0.4266
  101MOL0     C13550   3.010   1.272   0.977  0.5280 -0.7309  1.2397
  101MOL0     N13551   3.808   1.511   0.647  0.0218 -0.3429 -0.2215
  101MOL0     N13552   3.931   1.487   0.651  0.2328 -0.2351 -0.6649
  101MOL0     C13553   5.166   1.746   0.869  0.4759 -0.5614  0.7627
  101MOL0     C13554   5.268   1.829   0.839  0.7852 -0.1320  0.1764
  101MOL0     C13555   5.576   2.107   0.706 -0.5463  0.2149  0.2806
  101MOL0     C13556   5.649   2.212   0.776 -0.1858 -0.7210 -0.4357
  101MOL0     C13557   5.774   2.266   0.725 -0.1387  0.2979 -0.2070
  101MOL0     C13558   5.830   2.221   0.604  0.4120 -0.1473 -0.5530
  101MOL0     O13559   5.946   2.281   0.561 -0.2966 -0.3796  0.0757
  101MOL0     C13560   6.010   2.228   0.443 -0.3976  0.1255  0.3184
  101MOL0     C13561   6.152   2.287   0.410  0.1116  0.1054 -0.6405
  101MOL0     C13562   6.156   2.442   0.413 -0.4219  1.4266  0.5590
  101MOL0     C13563   6.306   2.484   0.400  0.2082 -0.2516  0.6157
  101MOL0     C13564   6.384   2.434   0.287 -0.3140  0.4387  0.3064
  101MOL0     C13565   6.461   2.388   0.197 -0.5936 -0.9550  0.2588
  101MOL0     C13566   5.761   2.119   0.533 -0.0716 -0.2521  0.0603
  101MOL0     C13567   5.640   2.063   0.582 -0.6412  0.0598 -0.1765
  101MOL0     H13568   5.151   1.980   0.566 -1.1789 -2.2329 -1.1605
  101MOL0     H13569   4.949   1.852   0.621  0.9199  2.9040 -0.6318
  101MOL0     H13570   4.977   1.623   1.034 -0.0457  1.8243  0.3848
  101MOL0     H13571   4.882   1.772   1.005  3.3224  0.8473  0.7158
  101MOL0     H13572   4.817   1.478   0.908  1.7208  2.4428 -1.4077
  101MOL0     H13573   4.791   1.514   1.083 -0.5802  0.1624 -0.1023
  101MOL0     H13574   4.611   1.678   1.020 -2.4323  1.2777 -2.1631
  101MOL0     H13575   4.645   1.651   0.853  1.1901  0.9927  1.9913
  101MOL0     H13576   4.588   1.403   0.884  2.8835  1.8443 -0.8927
  101MOL0     H13577   4.554   1.446   1.055 -2.6983 -0.3375 -0.5599
  101MOL0     H13578   4.361   1.590   0.995 -0.7347  1.0451 -1.9136
  101MOL0     H13579   4.412   1.570   0.829  1.5423 -3.0053 -1.7438
  101MOL0     H13580   4.322   1.350   0.811 -0.8424  0.4354 -0.9792
  101MOL0     H13581   4.322   1.334   0.988  2.4009 -0.0057 -0.7720
  101MOL0     H13582   4.110   1.345   0.899  0.6315 -0.5078  1.0129
  101MOL0     H13583   4.137   1.491   1.007 -0.0304 -1.7991  0.8469
  101MOL0     H13584   4.180   1.512   0.719 -0.7440 -1.8900 -0.0298
  101MOL0     H13585   4.144   1.651   0.831  1.9349 -0.3972  1.2738
  101MOL0     H13586   3.872   1.592   0.954 -0.2210  2.9919 -0.1980
  101MOL0     H13587   3.606   1.606   0.916  2.9389  1.5415 -0.2674
  101MOL0     H13588   3.572   1.656   0.768 -1.7238 -0.5476  2.1944
  101MOL0     H13589   3.575   1.360   0.805  0.1347 -0.6578 -1.9096
  101MOL0     H13590   3.536   1.432   0.652 -2.1842  4.3629 -1.1951
  101MOL0     H13591   3.319   1.400   0.732 -1.7617  0.8031  0.3509
  101MOL0     H13592   3.339   1.554   0.811  1.1148  0.1025 -0.7471
  101MOL0     H13593   3.423   1.445   1.011 -3.5729 -0.0978  3.8567
  101MOL0     H13594   3.427   1.292   0.940 -1.4939 -0.5814  0.7967
  101MOL0     H13595   3.278   1.169   0.814  0.8659  0.5854  3.4873
  101MOL0     H13596   3.125   1.011   0.589 -0.2687  1.8478 -0.0099
  101MOL0     H13597   3.241   0.957   0.718 -0.5877  0.4488  0.2685
  101MOL0     H13598   3.083   0.878   0.698 -0.4955 -0.6996  0.6431
  101MOL0     H13599   2.616   0.784   0.769  1.5281 -1.0231 -0.3621
  101MOL0     H13600   2.461   0.713   0.614 -0.4176 -0.0127  1.9301
  101MOL0     H13601   2.210   0.690   0.450  0.2043  0.4690 -0.7001
  101MOL0     H13602   2.225   0.771   0.606  1.1327 -0.0095  0.3350
  101MOL0     H13603   1.995   0.780   0.542 -0.8760 -1.7369 -2.2924
  101MOL0     H13604   2.064   0.946   0.547  3.1300 -1.5855  1.2892
  101MOL0     H13605   1.981   0.753   0.331  1.0309 -0.7490  1.2100
  101MOL0     H13606   2.098   0.870   0.272 -1.0341 -0.9925 -1.2968
  101MOL0     H13607   1.916   1.036   0.362 -0.0869 -0.3581  0.6305
  101MOL0     H13608   1.893   0.941   0.211 -3.2237  0.9106 -0.3771
  101MOL0     H13609   1.683   0.937   0.371 -0.4240 -1.4616 -3.7166
  101MOL0     H13610   1.787   0.850   0.478 -1.0851  4.3106  0.0478
  101MOL0     H13611   1.745   0.767   0.188  1.1480  2.8546 -0.2924
  101MOL0     H13612   1.785   0.659   0.331 -1.2742 -0.7915 -1.4198
  101MOL0     H13613   1.566   0.622   0.275 -1.3883  1.2931 -2.8381
  101MOL0     H13614   1.541   0.806   0.265 -2.3372 -0.5878  1.8621
  101MOL0     H13615   1.563   0.805   0.539 -0.4238 -0.8384  1.6203
  101MOL0     H13616   1.597   0.630   0.514  3.0569  2.0680  2.0636
  101MOL0     H13617   2.399   1.119   0.475 -1.7595 -2.1422 -0.7162
  101MOL0     H13618   2.580   1.198   0.652  1.5678 -1.0259  1.1482
  101MOL0     H13619   2.819   1.199   0.960 -0.9003 -1.6188 -1.1257
  101MOL0     H13620   2.972   1.326   1.063 -0.3843 -2.3419  1.8880
  101MOL0     H13621   5.169   1.664   0.940 -0.9664 -2.4306 -1.1973
  101MOL0     H13622   5.356   1.796   0.895  0.6759  0.4798  0.7212
  101MOL0     H13623   5.594   2.246   0.863 -1.9084 -2.1020 -0.9291
  101MOL0     H13624   5.835   2.339   0.779  1.0827 -0.1510 -0.9270
  101MOL0     H13625   6.020   2.119   0.453 -0.5928  0.2932  2.9856
  101MOL0     H13626   5.938   2.242   0.361  0.4581 -1.7547 -0.8130
  101MOL0     H13627   6.178   2.261   0.307  0.0017 -1.0948 -0.3822
  101MOL0     H13628   6.234   2.246   0.469 -1.9117 -3.3314  0.0408
  101MOL0     H13629   6.117   2.491   0.503 -2.2908  1.1047 -0.0501
  101MOL0     H13630   6.093   2.497   0.342 -2.0795  3.3509  3.2912
  101MOL0     H13631   6.360   2.456   0.491  0.3262  1.1494  0.9871
  101MOL0     H13632   6.298   2.592   0.388 -5.5634 -0.6566 -3.9367
  101MOL0     H13633   6.538   2.376   0.123  0.3561  3.6712  0.1986
  101MOL0     H13634   5.815   2.074   0.450  1.6708  1.0667  0.4276
  101MOL0     H13635   5.598   1.981   0.524 -1.0510  0.4862 -0.4867
  102MOL0     O13636   6.255   7.500   4.670 -0.6931  0.4948 -0.1667
  102MOL0     C13637   6.238   7.617   4.667 -0.8446 -0.0486  0.0163
  102MOL0     O13638   6.152   7.680   4.586  0.2015  0.1853  0.0661
  102MOL0     C13639   6.084   7.600   4.499 -0.5655 -0.0701  0.7795
  102MOL0     C13640   6.009   7.483   4.535  0.1764 -0.1039  0.1807
  102MOL0     C13641   5.935   7.410   4.437  0.3373 -0.2199  1.1355
  102MOL0     C13642   5.927   7.436   4.299  0.3510  0.0104  0.1726
  102MOL0     O13643   5.844   7.368   4.217  0.2576 -0.1797 -0.3994
  102MOL0     C13644   5.794   7.428   4.095 -0.4199  0.3288  0.8596
  102MOL0     C13645   5.704   7.339   4.025 -0.2149  0.7927 -0.8117
  102MOL0     C13646   5.668   7.395   3.883  0.0550  0.0202 -0.2465
  102MOL0     C13647   5.555   7.315   3.815 -0.5393  0.6926  0.8875
  102MOL0     C13648   5.508   7.403   3.709 -0.6578 -0.1933  0.1154
  102MOL0     C13649   5.392   7.338   3.632 -0.5331  0.5724 -0.3449
  102MOL0     C13650   5.332   7.434   3.528  0.2077 -0.1114 -0.4904
  102MOL0     C13651   5.232   7.368   3.436 -1.0118  0.4956  0.5794
  102MOL0     N13652   5.096   7.368   3.495  0.2298 -0.3691 -0.9602
  102MOL0     C13653   5.062   7.271   3.585 -0.5296  0.1574  0.7883
  102MOL0     C13654   4.962   7.313   3.654  1.0823 -0.4759 -0.1743
  102MOL0     C13655   4.888   7.228   3.749  0.8998  0.5869 -0.2861
  102MOL0     C13656   4.737   7.209   3.706 -0.0465 -0.0468  0.7098
  102MOL0     C13657   4.660   7.135   3.812 -1.0770 -0.7002 -0.0426
  102MOL0     C13658   4.512   7.168   3.819 -0.5956  0.0664 -0.2643
  102MOL0     O13659   4.461   7.157   3.692  0.6832  0.0316 -0.4905
  102MOL0     C13660   4.333   7.190   3.682  0.7960  0.0027 -0.0822
  102MOL0     C13661   4.286   7.186   3.551  0.2813 -0.5325 -0.6064
  102MOL0     C13662   4.152   7.215   3.516 -0.2656  0.1717 -0.5232
  102MOL0     C13663   4.107   7.194   3.369  0.3731  0.0461 -0.6342
  102MOL0     C13664   4.060   7.244   3.622 -0.1343 -0.1596 -1.3741
  102MOL0     C13665   3.914   7.279   3.603  0.6338  0.6304  0.4388
  102MOL0     O13666   3.862   7.359   3.709 -0.0181 -0.5114  0.3800
  102MOL0     C13667   3.730   7.407   3.722  0.2660  0.7074 -0.0949
  102MOL0     C13668   3.705   7.470   3.847 -0.0117 -0.3784  0.8128
  102MOL0     C13669   3.581   7.532   3.867 -0.3066  0.9116  0.2618
  102MOL0     C13670   3.486   7.551   3.765 -0.0541  0.4242  0.7393
  102MOL0     O13671   3.383   7.630   3.790 -0.0208  0.3712 -0.7166
  102MOL0     C13672   3.264   7.609   3.715  0.8223  0.0009 -0.9704
  102MOL0     C13673   3.149   7.697   3.776 -0.0083 -0.2814  0.5990
  102MOL0     C13674   3.012   7.685   3.692  0.7624 -0.6886  1.1336
  102MOL0     C13675   2.895   7.756   3.766 -0.3002  0.1272 -0.4092
  102MOL0     C13676   2.768   7.766   3.668  0.2130  0.2204  0.1385
  102MOL0     C13677   2.642   7.824   3.726  0.8110  0.7160 -0.0682
  102MOL0     C13678   2.536   7.843   3.612  0.1969 -0.5534 -0.1010
  102MOL0     C13679   2.425   7.948   3.653 -0.3178  0.5705  0.2450
  102MOL0    Cl13680   2.330   7.879   3.799  0.4853 -0.1224 -0.1527
  102MOL0     C13681   3.519   7.481   3.638  0.2591 -0.5359 -0.3256
  102MOL0     C13682   3.636   7.410   3.616  0.5261 -0.8329  0.4774
  102MOL0     O13683   3.845   7.212   3.527 -0.1444 -0.5956  0.3674
  102MOL0     C13684   4.116   7.262   3.751  0.2511 -0.6301  0.3699
  102MOL0     C13685   4.252   7.242   3.788  0.5925  0.2981  0.5237
  102MOL0     N13686   4.934   7.440   3.606  0.0080 -0.6908 -0.4173
  102MOL0     N13687   5.016   7.477   3.516 -0.5991  0.4108 -0.1352
  102MOL0     C13688   5.997   7.555   4.265  0.6065 -0.4259 -0.1801
  102MOL0     C13689   6.076   7.631   4.359  0.4458  0.1187 -0.2181
  102MOL0     C13690   6.320   7.705   4.762 -0.6033 -0.9254 -0.1381
  102MOL0     C13691   6.410   7.652   4.857 -0.1861  0.3468  0.2173
  102MOL0     C13692   6.466   7.743   4.948  0.5447  0.9709  0.3148
  102MOL0     C13693   6.431   7.877   4.956  0.7718 -0.7322 -0.0646
  102MOL0     O13694   6.486   7.967   5.040 -0.8272  0.3165  0.1911
  102MOL0     C13695   6.413   8.041   5.139  0.5257  0.6956  0.0380
  102MOL0     C13696   6.510   8.071   5.251 -0.6972  0.9811  0.3529
  102MOL0     C13697   6.624   8.176   5.240  0.8432  0.2830 -0.8796
  102MOL0     C13698   6.689   8.225   5.374 -0.6465  0.3635  0.4129
  102MOL0     C13699   6.703   8.128   5.479 -0.0273  0.7397 -0.4128
  102MOL0     C13700   6.716   8.034   5.561  0.0646  0.2140  0.7301
  102MOL0     C13701   6.330   7.924   4.870 -0.1555  0.1495 -0.6199
  102MOL0     C13702   6.273   7.842   4.771  0.9856 -0.2177 -0.2028
  102MOL0     H13703   5.999   7.445   4.636  3.0675 -4.0021 -0.7841
  102MOL0     H13704   5.875   7.326   4.469 -0.4473 -0.4423 -0.8017
  102MOL0     H13705   5.756   7.530   4.100  1.2367  1.3063 -2.8682
  102MOL0     H13706   5.881   7.441   4.030 -1.2860  0.5801 -0.2924
  102MOL0     H13707   5.739   7.237   4.004 -0.6206 -0.4485  3.5935
  102MOL0     H13708   5.617   7.331   4.092  0.6295 -0.5980  0.1789
  102MOL0     H13709   5.649   7.502   3.898  3.2372  0.2091  5.0579
  102MOL0     H13710   5.756   7.390   3.817 -0.4159 -0.5189 -0.8518
  102MOL0     H13711   5.607   7.226   3.780  1.6159  1.3812  2.1343
  102MOL0     H13712   5.475   7.280   3.879 -1.9959  1.2918 -0.5248
  102MOL0     H13713   5.469   7.498   3.748  0.7931  1.2292 -1.7054
  102MOL0     H13714   5.587   7.443   3.645 -0.1726  0.1565  0.9244
  102MOL0     H13715   5.422   7.246   3.583  1.9125  1.0259  0.1927
  102MOL0     H13716   5.316   7.309   3.706 -0.2944  1.0921  0.1180
  102MOL0     H13717   5.291   7.521   3.579  0.4589 -0.9409  1.2016
  102MOL0     H13718   5.414   7.472   3.466  0.3307 -0.3359 -0.4674
  102MOL0     H13719   5.255   7.262   3.420 -2.0495 -0.1194  2.7834
  102MOL0     H13720   5.240   7.428   3.345  2.5436  0.5493  0.7765
  102MOL0     H13721   5.107   7.172   3.596 -0.4520 -0.1044 -1.4217
  102MOL0     H13722   4.920   7.124   3.748 -0.2855  0.1932 -2.5126
  102MOL0     H13723   4.905   7.268   3.850 -1.5900 -2.0024  1.2972
  102MOL0     H13724   4.745   7.154   3.612 -3.3340 -0.1436  0.3440
  102MOL0     H13725   4.692   7.308   3.693 -0.5288 -0.5406 -2.1369
  102MOL0     H13726   4.702   7.150   3.912  2.8709 -1.4624 -1.3766
  102MOL0     H13727   4.676   7.029   3.794 -1.5503 -0.4672 -2.0393
  102MOL0     H13728   4.499   7.269   3.859 -0.5606 -0.2674  0.6162
  102MOL0     H13729   4.471   7.104   3.897 -0.2043  2.3635  1.9491
  102MOL0     H13730   4.353   7.148   3.475 -1.1217 -0.8631 -1.7162
  102MOL0     H13731   4.069   7.092   3.357  1.2205 -0.4550  0.7127
  102MOL0     H13732   4.032   7.265   3.333  0.0269 -0.1624 -0.3232
  102MOL0     H13733   4.189   7.215   3.299  1.0004  0.3918  0.1851
  102MOL0     H13734   3.776   7.474   3.928  2.1763 -0.7363 -0.9941
  102MOL0     H13735   3.563   7.576   3.965 -1.3811  1.9604 -0.3795
  102MOL0     H13736   3.285   7.638   3.612 -0.4490 -2.8048 -2.1379
  102MOL0     H13737   3.240   7.502   3.715  1.5143 -0.2955  2.7587
  102MOL0     H13738   3.126   7.668   3.879 -0.6761 -3.9802 -0.4540
  102MOL0     H13739   3.195   7.796   3.775  2.7425 -1.3907  2.9964
  102MOL0     H13740   2.986   7.580   3.674  0.5139 -0.3597 -0.6312
  102MOL0     H13741   3.021   7.734   3.594 -0.4298  0.0804  1.3791
  102MOL0     H13742   2.878   7.699   3.858 -1.0627  0.3593 -0.4013
  102MOL0     H13743   2.915   7.860   3.793  0.1148 -0.3294  1.1360
  102MOL0     H13744   2.748   7.667   3.628  0.4934 -0.2162  1.0448
  102MOL0     H13745   2.783   7.829   3.580 -1.8471 -1.2242 -1.3276
  102MOL0     H13746   2.617   7.746   3.798  0.6282  0.3055 -0.5674
  102MOL0     H13747   2.659   7.911   3.790 -1.3269 -0.3240  2.0695
  102MOL0     H13748   2.497   7.742   3.597  0.6529 -1.2073  2.6253
  102MOL0     H13749   2.582   7.883   3.522 -1.1459 -1.6145 -1.3103
  102MOL0     H13750   2.353   7.959   3.572  0.2518 -2.4294 -0.8081
  102MOL0     H13751   2.470   8.045   3.676  4.3760 -1.4157  0.7125
  102MOL0     H13752   3.445   7.497   3.560  0.7265  0.5465 -0.5530
  102MOL0     H13753   3.650   7.356   3.523 -1.6595  2.1509 -1.7796
  102MOL0     H13754   4.063   7.301   3.837  1.5479 -1.2673  1.4966
  102MOL0     H13755   4.272   7.268   3.892 -1.3003 -1.2959  1.3441
  102MOL0     H13756   5.988   7.602   4.168  0.4050  2.0075  0.9625
  102MOL0     H13757   6.117   7.717   4.306 -2.0162  1.9057  0.5573
  102MOL0     H13758   6.434   7.546   4.866 -2.7668 -0.5672 -2.2033
  102MOL0     H13759   6.539   7.704   5.018 -0.4870 -1.9221 -0.0698
  102MOL0     H13760   6.375   8.130   5.089  3.3561  1.5019 -0.8771
  102MOL0     H13761   6.336   7.975   5.180  1.0337 -1.7759 -2.6844
  102MOL0     H13762   6.560   7.979   5.282 -3.0376 -0.6934 -0.6390
  102MOL0     H13763   6.438   8.109   5.324 -2.3178  0.4164 -0.9095
  102MOL0     H13764   6.570   8.263   5.201 -0.1594 -0.6458 -1.5975
  102MOL0     H13765   6.698   8.138   5.170 -1.2237 -1.8328 -2.0211
  102MOL0     H13766   6.652   8.322   5.407 -3.0872 -0.1622 -0.5145
  102MOL0     H13767   6.782   8.261   5.331 -1.8651  2.0134 -0.9644
  102MOL0     H13768   6.710   7.945   5.620 -1.7764 -1.1531 -1.3491
  102MOL0     H13769   6.303   8.029   4.871  0.2500  0.2740  1.5869
  102MOL0     H13770   6.198   7.879   4.702  0.5145 -0.9247 -0.0757
  103MOL0     O13771   2.891   6.450   8.786  0.1791  0.4242 -0.3231
  103MOL0     C13772   2.909   6.517   8.683 -0.7307 -0.4158 -0.5507
  103MOL0     O13773   2.814   6.548   8.583 -0.0367 -0.3226  1.0241
  103MOL0     C13774   2.685   6.523   8.618 -1.1691 -0.4453  0.1884
  103MOL0     C13775   2.600   6.619   8.672  0.5010 -0.3592  0.1008
  103MOL0     C13776   2.468   6.589   8.709 -0.3900 -0.8045 -0.2459
  103MOL0     C13777   2.423   6.456   8.693 -0.0224  0.6781  0.4744
  103MOL0     O13778   2.304   6.413   8.745 -0.2126  0.0613  0.2517
  103MOL0     C13779   2.194   6.493   8.707  0.5095 -0.1174 -0.6390
  103MOL0     C13780   2.075   6.475   8.801 -0.0752 -0.1133  0.9231
  103MOL0     C13781   2.108   6.499   8.948  0.2265 -0.9113  0.3926
  103MOL0     C13782   2.123   6.648   8.983  0.0864  0.5704  0.4819
  103MOL0     C13783   2.128   6.676   9.126 -0.0993  0.4899  0.2966
  103MOL0     C13784   2.174   6.812   9.167  0.0401 -0.1245  0.9129
  103MOL0     C13785   2.162   6.845   9.315 -0.3305 -0.1847 -0.6615
  103MOL0     C13786   2.047   6.932   9.342  0.3632 -0.7582 -1.1533
  103MOL0     N13787   1.917   6.906   9.285  0.7147 -0.1147  0.5904
  103MOL0     C13788   1.843   6.987   9.208  0.2731 -0.0943 -0.6869
  103MOL0     C13789   1.734   6.916   9.187  0.2642 -0.3892 -0.0996
  103MOL0     C13790   1.616   6.980   9.128  0.7744  0.8551  0.3209
  103MOL0     C13791   1.560   6.902   9.007 -1.0004 -0.3765 -0.1245
  103MOL0     C13792   1.421   6.956   8.981 -0.2609 -0.1551  0.4416
  103MOL0     C13793   1.349   6.854   8.896 -1.1765 -0.0367 -0.4338
  103MOL0     O13794   1.224   6.910   8.855 -0.3108 -0.3842 -0.5867
  103MOL0     C13795   1.133   6.841   8.791  0.0716  0.0307  0.4241
  103MOL0     C13796   1.045   6.913   8.711  0.4782  1.3667 -0.2623
  103MOL0     C13797   0.940   6.851   8.645  0.3360  0.7600  0.1129
  103MOL0     C13798   0.853   6.933   8.551 -2.0833  0.6997 -0.1219
  103MOL0     C13799   0.926   6.704   8.649 -0.0345  0.4928 -0.2217
  103MOL0     C13800   0.835   6.623   8.568  0.8772  0.2506  1.1455
  103MOL0     O13801   0.862   6.485   8.561  0.0937 -0.2232  0.7005
  103MOL0     C13802   0.773   6.402   8.490 -0.0993  0.2803  0.0643
  103MOL0     C13803   0.729   6.439   8.359 -0.1726 -0.7040 -0.9239
  103MOL0     C13804   0.644   6.354   8.280 -0.7836  0.2206 -0.4014
  103MOL0     C13805   0.617   6.231   8.324  0.4996  1.1142 -0.2025
  103MOL0     O13806   0.532   6.144   8.251 -0.3963 -0.4700  0.5857
  103MOL0     C13807   0.509   6.014   8.290 -0.0047  0.3709 -1.8112
  103MOL0     C13808   0.422   5.928   8.203 -0.3480  0.3682  0.3491
  103MOL0     C13809   0.455   5.775   8.213  0.3543  0.0002 -0.2322
  103MOL0     C13810   0.450   5.710   8.352  0.1761 -0.5807 -0.2770
  103MOL0     C13811   0.472   5.565   8.344  0.5162 -0.5989  0.5083
  103MOL0     C13812   0.611   5.518   8.296 -0.0578  0.6491  0.2679
  103MOL0     C13813   0.622   5.367   8.324  0.1867 -0.3722  1.2428
  103MOL0     C13814   0.759   5.313   8.287  0.4155 -0.1978  0.2184
  103MOL0    Cl13815   0.867   5.377   8.412 -0.5390 -0.2500 -0.2838
  103MOL0     C13816   0.660   6.195   8.454  0.4769 -0.0859 -0.2088
  103MOL0     C13817   0.736   6.274   8.534 -0.3652  0.2491  0.6314
  103MOL0     O13818   0.733   6.672   8.523  0.9417 -0.6021 -0.0415
  103MOL0     C13819   1.025   6.635   8.727 -0.3746 -0.7106 -0.0762
  103MOL0     C13820   1.119   6.698   8.803  0.0276 -0.0852 -0.3096
  103MOL0     N13821   1.746   6.785   9.238 -0.1356  1.0200 -0.3742
  103MOL0     N13822   1.866   6.783   9.286 -0.1953  0.0667 -0.2097
  103MOL0     C13823   2.508   6.366   8.627 -0.1601 -0.6648 -0.8417
  103MOL0     C13824   2.634   6.404   8.582 -0.1643  0.7922 -0.9970
  103MOL0     C13825   3.045   6.580   8.673  0.1111 -0.0773  0.6594
  103MOL0     C13826   3.156   6.517   8.732  0.2538 -0.3600  0.3389
  103MOL0     C13827   3.288   6.559   8.717  0.2168 -1.0483  0.5503
  103MOL0     C13828   3.309   6.675   8.640 -0.5441  0.3904 -0.4570
  103MOL0     O13829   3.438   6.725   8.632  0.3999 -0.6906  0.9183
  103MOL0     C13830   3.555   6.647   8.678  0.8008 -0.5796  0.5219
  103MOL0     C13831   3.602   6.722   8.810  0.6171 -0.1847 -0.0791
  103MOL0     C13832   3.746   6.709   8.863 -0.2199  0.6467 -0.3287
  103MOL0     C13833   3.843   6.786   8.774  0.6669 -0.0504 -0.3450
  103MOL0     C13834   3.980   6.737   8.802  0.2864  0.6490 -0.5268
  103MOL0     C13835   4.095   6.694   8.802  0.5474  0.8277 -0.6470
  103MOL0     C13836   3.205   6.736   8.570 -0.3903 -0.0406 -0.0594
  103MOL0     C13837   3.074   6.683   8.585 -0.2731 -0.5015  0.0401
  103MOL0     H13838   2.647   6.711   8.704  4.0497 -2.3876  1.1772
  103MOL0     H13839   2.411   6.660   8.768  0.9980 -1.3899  1.9383
  103MOL0     H13840   2.212   6.601   8.702 -2.5425  0.5151  0.2054
  103MOL0     H13841   2.151   6.467   8.610  1.0349 -1.7677 -0.4527
  103MOL0     H13842   1.992   6.537   8.767  1.5415  1.6051 -0.0771
  103MOL0     H13843   2.035   6.373   8.789 -1.3266  0.6269 -2.5098
  103MOL0     H13844   2.023   6.467   9.009  0.5143 -2.6210 -0.0623
  103MOL0     H13845   2.196   6.448   8.987 -0.9557 -0.0230  4.7546
  103MOL0     H13846   2.219   6.676   8.939  1.0125 -0.5048  1.7442
  103MOL0     H13847   2.041   6.706   8.940  0.3486  0.4802 -0.1514
  103MOL0     H13848   2.026   6.658   9.164 -1.0139 -1.0975 -2.6071
  103MOL0     H13849   2.197   6.607   9.175  1.4525 -0.7670 -3.3312
  103MOL0     H13850   2.283   6.806   9.154  0.1020 -3.9102  2.0153
  103MOL0     H13851   2.128   6.888   9.103  0.6563 -0.6333 -0.1786
  103MOL0     H13852   2.151   6.753   9.374 -3.2525  0.7508  0.4370
  103MOL0     H13853   2.250   6.893   9.357 -3.4042  1.6127  4.6310
  103MOL0     H13854   2.080   7.032   9.313  1.2476 -0.2162  1.4156
  103MOL0     H13855   2.032   6.939   9.451 -0.1156 -0.1382 -1.2525
  103MOL0     H13856   1.862   7.093   9.196  1.2388  0.5659  4.3886
  103MOL0     H13857   1.547   6.983   9.213 -0.3588  0.4851 -0.5597
  103MOL0     H13858   1.624   7.087   9.107 -3.7319  1.9474  2.7847
  103MOL0     H13859   1.565   6.792   9.006 -0.7105 -0.3829  1.1275
  103MOL0     H13860   1.632   6.933   8.931  2.6440 -2.6753  2.0734
  103MOL0     H13861   1.422   7.047   8.922 -3.4804  0.3760  1.0425
  103MOL0     H13862   1.375   6.964   9.080  1.8770  1.1572  1.4017
  103MOL0     H13863   1.338   6.766   8.960  2.8464  0.6410  1.4402
  103MOL0     H13864   1.398   6.815   8.807 -0.7171 -1.1689  0.3043
  103MOL0     H13865   1.053   7.020   8.691 -1.9607  1.4909 -0.9244
  103MOL0     H13866   0.747   6.928   8.576 -2.1897 -0.2898 -0.7472
  103MOL0     H13867   0.883   7.038   8.558  3.1907 -0.5856  2.4338
  103MOL0     H13868   0.863   6.909   8.445 -1.3619  1.9929 -0.3693
  103MOL0     H13869   0.747   6.540   8.326 -3.6711  0.8534  1.2963
  103MOL0     H13870   0.594   6.372   8.185 -2.3968  0.1724  0.3900
  103MOL0     H13871   0.606   5.966   8.310 -0.6389  0.4211  2.4415
  103MOL0     H13872   0.457   6.022   8.386  1.0406 -1.9338 -0.9542
  103MOL0     H13873   0.326   5.946   8.252  0.1646 -0.3590  1.6670
  103MOL0     H13874   0.428   5.961   8.099 -0.7174  1.4631  0.6683
  103MOL0     H13875   0.555   5.765   8.170  1.0644  1.5157  0.9791
  103MOL0     H13876   0.385   5.716   8.153  0.8069  0.0925 -0.8578
  103MOL0     H13877   0.532   5.755   8.409 -0.3785 -1.9928  1.7421
  103MOL0     H13878   0.360   5.744   8.404  0.9658  0.3187  0.5468
  103MOL0     H13879   0.396   5.533   8.273 -0.4352  2.4959 -0.0107
  103MOL0     H13880   0.453   5.517   8.441  0.6552  0.9089  1.3263
  103MOL0     H13881   0.637   5.538   8.191  2.6275 -2.0046  0.2783
  103MOL0     H13882   0.689   5.558   8.361  0.9507 -0.8494  0.0449
  103MOL0     H13883   0.552   5.321   8.254  1.1300  1.6867 -1.1800
  103MOL0     H13884   0.590   5.342   8.426  1.4676  3.7927  2.8722
  103MOL0     H13885   0.794   5.352   8.191  1.4221  2.2725  1.4881
  103MOL0     H13886   0.744   5.205   8.287  1.1288 -0.3240  1.9345
  103MOL0     H13887   0.627   6.101   8.499 -0.5431  0.4304  0.1533
  103MOL0     H13888   0.767   6.255   8.637 -1.1690 -0.7799  0.6937
  103MOL0     H13889   1.031   6.527   8.733  0.0631 -0.6400  0.9149
  103MOL0     H13890   1.172   6.633   8.872  0.4972  2.4140  1.8581
  103MOL0     H13891   2.486   6.260   8.621  1.1044 -0.8711 -2.4845
  103MOL0     H13892   2.697   6.328   8.537 -1.1522 -0.4756 -0.3087
  103MOL0     H13893   3.136   6.434   8.799 -1.8123 -0.5686 -0.4545
  103MOL0     H13894   3.366   6.512   8.775  3.5544  3.0138 -0.2211
  103MOL0     H13895   3.524   6.547   8.711 -2.2131  0.9503  2.8916
  103MOL0     H13896   3.634   6.653   8.602  1.5659 -0.8132  1.2763
  103MOL0     H13897   3.531   6.679   8.882 -2.5030 -0.2050 -2.9331
  103MOL0     H13898   3.590   6.830   8.802  2.1206 -0.1079 -2.0274
  103MOL0     H13899   3.772   6.603   8.858 -0.8420  0.5422 -2.2693
  103MOL0     H13900   3.753   6.744   8.967  0.8794 -0.3556 -0.0470
  103MOL0     H13901   3.839   6.891   8.803 -1.5220 -0.3008  0.4632
  103MOL0     H13902   3.806   6.775   8.672 -0.2705  2.8430 -0.4012
  103MOL0     H13903   4.194   6.663   8.774  0.6821 -1.0897  1.6431
  103MOL0     H13904   3.236   6.824   8.513 -1.0368 -0.2281 -0.7268
  103MOL0     H13905   2.987   6.724   8.533 -2.1654 -1.1395  2.5190
  104MOL0     O13906   7.337   2.245   7.434 -0.2282 -0.7710 -0.7448
  104MOL0     C13907   7.421   2.319   7.483  0.1763  0.8440  0.3352
  104MOL0     O13908   7.413   2.371   7.607 -0.4022  0.3201  0.1240
  104MOL0     C13909   7.308   2.341   7.684 -0.5835 -0.6506  1.4255
  104MOL0     C13910   7.335   2.307   7.812 -0.0435  0.0070  0.6382
  104MOL0     C13911   7.238   2.284   7.900  0.0149  0.8918  0.3234
  104MOL0     C13912   7.102   2.294   7.859  0.4931 -0.6567 -1.7661
  104MOL0     O13913   6.997   2.255   7.936  0.2417  0.5137 -0.3124
  104MOL0     C13914   7.014   2.167   8.056  0.0037  0.1928  0.7401
  104MOL0     C13915   6.880   2.151   8.135 -0.2563 -0.3226  0.9352
  104MOL0     C13916   6.790   2.058   8.063 -0.9329 -0.2509 -0.2196
  104MOL0     C13917   6.657   2.030   8.128 -0.2251  0.2390 -1.0902
  104MOL0     C13918   6.565   1.975   8.025  0.3178  0.3597 -0.9187
  104MOL0     C13919   6.433   1.935   8.086 -0.2044 -0.3139 -0.6420
  104MOL0     C13920   6.332   1.886   7.980 -0.0819  0.2644  0.6949
  104MOL0     C13921   6.207   1.828   8.040  0.0342 -0.0395 -0.3904
  104MOL0     N13922   6.111   1.922   8.105 -0.9810 -0.2739  0.4033
  104MOL0     C13923   6.090   2.056   8.065  0.0764  0.0839 -0.2828
  104MOL0     C13924   6.024   2.106   8.167 -0.6253 -0.4662 -0.0970
  104MOL0     C13925   5.987   2.246   8.192  0.8984 -0.8239  0.3644
  104MOL0     C13926   5.854   2.271   8.126 -0.5515 -0.2863  0.3908
  104MOL0     C13927   5.795   2.408   8.152  0.1234 -1.1471 -0.7908
  104MOL0     C13928   5.643   2.396   8.166  0.8179 -0.0420  0.0678
  104MOL0     O13929   5.581   2.352   8.041  0.5016 -0.0970 -0.0938
  104MOL0     C13930   5.464   2.289   8.059  0.0482  0.4499  0.2799
  104MOL0     C13931   5.466   2.152   8.075 -0.3241 -0.0503  0.1644
  104MOL0     C13932   5.346   2.077   8.102 -0.5492  0.9836 -1.8524
  104MOL0     C13933   5.365   1.934   8.101 -0.5210 -0.0073  0.2031
  104MOL0     C13934   5.226   2.151   8.109 -0.3840  0.4486  0.0873
  104MOL0     C13935   5.094   2.082   8.120  0.0332  0.4501 -0.4962
  104MOL0     O13936   4.994   2.154   8.068 -0.6337  0.0902 -0.0008
  104MOL0     C13937   4.863   2.116   8.058  0.4214 -0.9409  0.7337
  104MOL0     C13938   4.802   2.038   8.151 -0.1452 -0.5409 -0.6961
  104MOL0     C13939   4.666   1.986   8.131 -0.1968  0.0877 -0.0337
  104MOL0     C13940   4.600   2.029   8.018  0.0386  0.1087 -0.3946
  104MOL0     O13941   4.480   1.966   8.010 -0.7953  0.1039  1.0524
  104MOL0     C13942   4.435   1.951   7.877  0.3916 -0.2345 -0.3400
  104MOL0     C13943   4.313   1.859   7.890  0.0392  1.1204  0.3265
  104MOL0     C13944   4.255   1.829   7.748 -0.1124  0.8237 -0.8573
  104MOL0     C13945   4.273   1.688   7.692 -0.0189 -0.5861  0.5119
  104MOL0     C13946   4.206   1.644   7.558 -0.4510 -0.1195  0.0647
  104MOL0     C13947   4.053   1.648   7.554  0.0796 -0.5801  1.0618
  104MOL0     C13948   4.005   1.586   7.416  0.2156  0.5710  0.1282
  104MOL0     C13949   3.853   1.627   7.411  0.2085  0.4451  0.0380
  104MOL0    Cl13950   3.770   1.601   7.256 -0.6325 -0.4488 -0.2581
  104MOL0     C13951   4.657   2.134   7.941  1.2700 -0.7087  0.5436
  104MOL0     C13952   4.784   2.169   7.952 -0.9256 -0.1587 -0.8473
  104MOL0     O13953   5.086   1.969   8.164  0.6373 -0.1370 -0.0375
  104MOL0     C13954   5.232   2.288   8.107 -0.7428 -0.1203  0.1308
  104MOL0     C13955   5.345   2.358   8.075  0.0934  0.2046 -0.0865
  104MOL0     N13956   6.007   2.008   8.272 -0.1603  0.0242  0.0935
  104MOL0     N13957   6.061   1.903   8.233  0.9057 -0.3964 -0.3186
  104MOL0     C13958   7.065   2.335   7.737  0.1142 -0.3505 -0.2435
  104MOL0     C13959   7.171   2.353   7.641 -0.4407 -0.8202 -0.8075
  104MOL0     C13960   7.541   2.357   7.401  0.3416 -0.0639 -0.5117
  104MOL0     C13961   7.555   2.311   7.268  0.8176 -0.0453 -0.1375
  104MOL0     C13962   7.672   2.345   7.197 -0.1173 -0.5212  0.3650
  104MOL0     C13963   7.774   2.404   7.262 -0.1227 -0.2043 -0.9683
  104MOL0     O13964   7.896   2.424   7.210 -0.5153 -0.7033  0.4367
  104MOL0     C13965   7.916   2.401   7.069  0.0702  0.0092  0.1916
  104MOL0     C13966   8.044   2.460   7.009 -0.3923  0.5860  0.5992
  104MOL0     C13967   8.103   2.576   7.095 -0.5870 -0.6132 -0.9526
  104MOL0     C13968   8.200   2.667   7.019  0.0859  0.7672 -0.6731
  104MOL0     C13969   8.125   2.741   6.914  0.5191 -0.0816 -0.1517
  104MOL0     C13970   8.054   2.805   6.842  0.0361  0.5797 -0.1448
  104MOL0     C13971   7.756   2.449   7.392  0.3609  0.4115 -0.8072
  104MOL0     C13972   7.637   2.422   7.468  1.0971 -0.8922 -0.6397
  104MOL0     H13973   7.435   2.317   7.853  0.6249  1.3070 -1.1854
  104MOL0     H13974   7.263   2.254   8.001  1.7035 -1.9549 -0.8177
  104MOL0     H13975   7.059   2.070   8.035 -0.5021 -0.0386  0.7143
  104MOL0     H13976   7.081   2.231   8.114  1.9072  1.2254 -2.3388
  104MOL0     H13977   6.905   2.110   8.233  0.5447 -0.5210  0.6609
  104MOL0     H13978   6.837   2.250   8.151 -1.9742 -1.1413  1.5521
  104MOL0     H13979   6.767   2.101   7.965 -1.5673 -0.0064  0.0357
  104MOL0     H13980   6.847   1.965   8.065  0.5176  0.6015  2.4764
  104MOL0     H13981   6.668   1.961   8.212 -0.5495  1.3536 -0.1157
  104MOL0     H13982   6.616   2.125   8.164  1.4499  0.1347  1.2714
  104MOL0     H13983   6.545   2.044   7.943  1.9329  2.3532  0.2700
  104MOL0     H13984   6.614   1.891   7.975  3.8403  3.0839 -2.5015
  104MOL0     H13985   6.439   1.866   8.171 -2.7604  0.8680  0.5996
  104MOL0     H13986   6.390   2.024   8.133  2.1697  1.7110 -2.0465
  104MOL0     H13987   6.310   1.957   7.900  1.5362 -1.9103 -1.8532
  104MOL0     H13988   6.374   1.809   7.915 -2.2498  1.2032 -2.0454
  104MOL0     H13989   6.217   1.741   8.106  0.0058  0.4674  0.3014
  104MOL0     H13990   6.140   1.794   7.961 -2.1744 -0.0455  1.3715
  104MOL0     H13991   6.134   2.119   7.989  3.9218  2.5451  3.5198
  104MOL0     H13992   5.984   2.262   8.301  1.3755 -3.5947  0.8568
  104MOL0     H13993   6.064   2.309   8.147  2.0908 -2.5584 -0.1284
  104MOL0     H13994   5.773   2.205   8.158 -2.8785  1.7461 -0.9028
  104MOL0     H13995   5.870   2.266   8.018 -0.5005 -1.7706  0.4506
  104MOL0     H13996   5.813   2.468   8.062 -2.0743 -1.2742 -1.3870
  104MOL0     H13997   5.837   2.457   8.240  0.0402  0.1906 -1.4581
  104MOL0     H13998   5.601   2.496   8.182 -1.0090 -1.1260  2.9012
  104MOL0     H13999   5.612   2.337   8.253  2.7064 -2.6949 -0.9312
  104MOL0     H14000   5.562   2.101   8.068 -0.4808 -0.2056 -1.2319
  104MOL0     H14001   5.463   1.902   8.066 -0.4537  1.4524 -1.0213
  104MOL0     H14002   5.355   1.893   8.202  2.3203  1.4570  1.1759
  104MOL0     H14003   5.295   1.882   8.035 -0.4911  2.7955 -2.2546
  104MOL0     H14004   4.853   1.989   8.233 -2.2167  0.3486  1.2375
  104MOL0     H14005   4.625   1.924   8.211 -1.3687  2.3126  1.2052
  104MOL0     H14006   4.406   2.047   7.833 -0.7770 -0.3950  0.0458
  104MOL0     H14007   4.512   1.908   7.813  1.3148 -0.5238  0.9242
  104MOL0     H14008   4.344   1.765   7.935  0.2610 -0.8335 -3.5399
  104MOL0     H14009   4.240   1.907   7.957  1.6450  0.3476  2.7408
  104MOL0     H14010   4.282   1.910   7.680 -1.7200  2.7975  0.7504
  104MOL0     H14011   4.148   1.849   7.755 -0.2836 -0.0817 -0.7680
  104MOL0     H14012   4.382   1.685   7.679 -0.0039 -2.0527  0.7758
  104MOL0     H14013   4.252   1.625   7.779 -1.1168 -1.9392 -0.6991
  104MOL0     H14014   4.236   1.540   7.541  0.4912  0.5941 -3.3468
  104MOL0     H14015   4.245   1.713   7.483  0.7364  0.4912  1.1935
  104MOL0     H14016   4.002   1.605   7.641 -0.5165 -0.0347  0.9901
  104MOL0     H14017   4.035   1.755   7.567  4.7455  0.5913 -0.1640
  104MOL0     H14018   4.017   1.478   7.408 -1.7821  0.3414 -0.3385
  104MOL0     H14019   4.069   1.619   7.334  1.7265 -2.3765 -0.0138
  104MOL0     H14020   3.842   1.735   7.422 -3.1710  0.1738  0.3389
  104MOL0     H14021   3.794   1.582   7.491  1.4178  0.5306  1.0215
  104MOL0     H14022   4.604   2.173   7.855  1.0475  0.1458  1.0538
  104MOL0     H14023   4.837   2.239   7.888  2.1862 -3.4881 -2.3667
  104MOL0     H14024   5.141   2.347   8.103 -2.0073 -2.0334 -0.5506
  104MOL0     H14025   5.345   2.465   8.057 -0.6534  0.0771 -0.9220
  104MOL0     H14026   6.961   2.357   7.715 -0.0455 -0.0549  0.7575
  104MOL0     H14027   7.153   2.386   7.539  0.3698  0.9893 -0.3983
  104MOL0     H14028   7.475   2.254   7.221 -1.1785  0.9071  1.8919
  104MOL0     H14029   7.683   2.306   7.096  4.1225 -1.5866  1.0737
  104MOL0     H14030   7.918   2.292   7.058  0.5043 -0.0727  1.0034
  104MOL0     H14031   7.842   2.437   6.996  2.0488  1.3193 -1.2536
  104MOL0     H14032   8.016   2.511   6.917 -3.2918 -1.0385  0.4770
  104MOL0     H14033   8.118   2.382   6.988 -0.2982  0.6509  0.6880
  104MOL0     H14034   8.164   2.531   7.174 -0.9835  2.3072  1.2186
  104MOL0     H14035   8.032   2.630   7.159  0.2049 -0.4958 -0.1502
  104MOL0     H14036   8.297   2.625   6.995 -0.1100 -0.9496  1.2097
  104MOL0     H14037   8.224   2.744   7.093 -2.3898 -0.5927  1.7580
  104MOL0     H14038   8.003   2.876   6.780  0.7943  1.1125 -0.1736
  104MOL0     H14039   7.836   2.507   7.438  1.9015 -0.8805 -1.7240
  104MOL0     H14040   7.627   2.449   7.573  1.1191  3.6082 -1.5949
  105MOL0     O14041   5.059   2.443   9.852  0.1637  0.4053  0.5131
  105MOL0     C14042   5.069   2.367   9.955 -0.2485  0.0167 -0.2583
  105MOL0     O14043   4.985   2.269   9.983  0.5462  0.3411  0.2150
  105MOL0     C14044   4.861   2.251   9.931 -0.0700  0.1145 -0.1206
  105MOL0     C14045   4.788   2.345   9.851 -0.6703 -0.2692  0.1860
  105MOL0     C14046   4.657   2.313   9.808  0.1834  0.8515 -0.9561
  105MOL0     C14047   4.597   2.189   9.830 -0.3639 -0.7934  0.2284
  105MOL0     O14048   4.466   2.172   9.783  1.0763  0.4798 -0.0145
  105MOL0     C14049   4.381   2.071   9.833  0.3563  0.0305  0.0878
  105MOL0     C14050   4.304   2.121   9.957  0.3337 -0.3604  0.2024
  105MOL0     C14051   4.209   2.013  10.013  0.0813 -0.4005 -0.1475
  105MOL0     C14052   4.079   1.996   9.931 -0.2527  0.5647  0.3227
  105MOL0     C14053   3.979   2.106   9.959  0.0217 -1.6463 -0.2750
  105MOL0     C14054   3.836   2.090   9.895 -1.1775  0.1067  0.5110
  105MOL0     C14055   3.800   1.945   9.891  0.3265  0.1352  0.7377
  105MOL0     C14056   3.657   1.923   9.842  0.5676 -0.4597  0.3079
  105MOL0     N14057   3.561   1.966   9.951  0.9201 -0.0097  0.0766
  105MOL0     C14058   3.559   1.933  10.082 -0.2936 -0.0931 -0.0461
  105MOL0     C14059   3.453   1.988  10.140  0.2656  0.4116  0.4262
  105MOL0     C14060   3.396   1.972  10.273 -0.2436 -0.4042  0.1824
  105MOL0     C14061   3.430   1.841  10.343 -0.2339  0.0565  0.6587
  105MOL0     C14062   3.374   1.806  10.476 -0.5303  0.1506 -0.1551
  105MOL0     C14063   3.220   1.804  10.487  0.0632  0.0002 -0.0457
  105MOL0     O14064   3.175   1.935  10.528 -0.3216 -0.8709  0.1426
  105MOL0     C14065   3.040   1.939  10.571  0.1757  0.6952 -0.2512
  105MOL0     C14066   2.950   1.832  10.555 -0.4558  0.8004 -1.0659
  105MOL0     C14067   2.818   1.832  10.595  0.3881  0.1309  0.4694
  105MOL0     C14068   2.718   1.720  10.569 -0.4459  0.7224 -0.5798
  105MOL0     C14069   2.773   1.948  10.663 -0.6145 -0.3311 -0.2953
  105MOL0     C14070   2.641   1.973  10.722  1.0416  0.8223  0.2708
  105MOL0     O14071   2.540   1.880  10.707  0.3019  0.1899  0.9390
  105MOL0     C14072   2.432   1.886  10.791 -0.4274  0.7759  0.0931
  105MOL0     C14073   2.310   1.941  10.749 -0.3790  0.8512  0.0560
  105MOL0     C14074   2.190   1.937  10.823 -0.5862 -0.4722 -0.5184
  105MOL0     C14075   2.203   1.891  10.959 -0.5161 -0.9119 -0.5440
  105MOL0     O14076   2.091   1.881  11.036 -0.1541  0.7018 -0.5193
  105MOL0     C14077   1.964   1.934  10.994  0.1722  0.5562  0.3150
  105MOL0     C14078   1.896   1.902  11.132  0.2013  0.1248 -0.7172
  105MOL0     C14079   1.756   1.965  11.143  0.1006 -0.2959 -0.3389
  105MOL0     C14080   1.652   1.869  11.078 -0.4448 -1.3045 -0.3242
  105MOL0     C14081   1.510   1.922  11.111  0.6880  0.6242  0.2356
  105MOL0     C14082   1.407   1.814  11.113 -0.0201 -0.4521  0.3452
  105MOL0     C14083   1.266   1.870  11.144  0.2185 -0.0336 -0.1686
  105MOL0     C14084   1.151   1.774  11.152  0.9103  0.4874 -0.0094
  105MOL0    Cl14085   1.131   1.716  10.976 -0.0059 -0.4660 -0.4425
  105MOL0     C14086   2.330   1.846  11.003  0.7220  0.0387 -0.2332
  105MOL0     C14087   2.440   1.850  10.919  0.1342  0.5803 -0.3756
  105MOL0     O14088   2.615   2.086  10.774 -0.3674 -0.3346 -0.1487
  105MOL0     C14089   2.865   2.052  10.689 -0.3431  0.2319 -0.2977
  105MOL0     C14090   2.993   2.048  10.640  0.3331  0.2858 -0.2870
  105MOL0     N14091   3.387   2.060  10.038 -0.0891 -0.8964 -0.2053
  105MOL0     N14092   3.452   2.051   9.930 -0.2078 -0.1565  0.1102
  105MOL0     C14093   4.669   2.105   9.919 -0.4383 -0.5359  0.9565
  105MOL0     C14094   4.796   2.129   9.970  0.2965 -0.1578  0.4584
  105MOL0     C14095   5.190   2.389  10.048 -0.1479 -0.1626  0.5804
  105MOL0     C14096   5.223   2.299  10.146  0.4694  0.6843  0.2083
  105MOL0     C14097   5.351   2.301  10.206  0.3290  0.1964  0.7751
  105MOL0     C14098   5.446   2.396  10.166  0.5151 -1.0892 -0.7582
  105MOL0     O14099   5.566   2.413  10.219 -0.7617 -1.1252 -0.0041
  105MOL0     C14100   5.623   2.288  10.276 -0.3319 -0.6083  0.5054
  105MOL0     C14101   5.774   2.276  10.282 -0.8676  0.0720 -0.3751
  105MOL0     C14102   5.836   2.166  10.368  0.2631  0.3155 -0.7536
  105MOL0     C14103   5.982   2.189  10.379  0.1018  0.7730 -0.3566
  105MOL0     C14104   6.024   2.311  10.443  0.8582 -0.4325 -0.1931
  105MOL0     C14105   6.058   2.416  10.486 -0.8699 -0.5636  0.7739
  105MOL0     C14106   5.414   2.493  10.071  0.3076  0.1608 -0.3508
  105MOL0     C14107   5.284   2.490  10.016  0.5015 -0.7348  0.9221
  105MOL0     H14108   4.822   2.448   9.844 -1.9740  0.3080  1.7400
  105MOL0     H14109   4.600   2.390   9.758 -1.1070  1.8954  1.8700
  105MOL0     H14110   4.309   2.052   9.753  1.2744 -2.0009 -0.3203
  105MOL0     H14111   4.431   1.975   9.848  0.4960 -0.0253 -0.7267
  105MOL0     H14112   4.376   2.150  10.034 -1.0628 -1.6358  2.0415
  105MOL0     H14113   4.242   2.208   9.931 -1.0661 -1.6304 -0.9086
  105MOL0     H14114   4.261   1.917  10.021 -1.0826 -1.1019 -0.6945
  105MOL0     H14115   4.192   2.037  10.118  0.3971 -0.2854 -0.1208
  105MOL0     H14116   4.110   1.987   9.827  0.1728  1.2199  0.3858
  105MOL0     H14117   4.034   1.902   9.966 -0.5089  0.4228 -0.3820
  105MOL0     H14118   3.971   2.118  10.067  1.3597  1.4000 -0.4198
  105MOL0     H14119   4.018   2.202   9.924 -0.4777 -1.7258 -1.0659
  105MOL0     H14120   3.773   2.128   9.975  1.2524  0.4139  2.4294
  105MOL0     H14121   3.839   2.129   9.793  0.9374 -1.7018 -0.2229
  105MOL0     H14122   3.859   1.892   9.815  0.1355  0.5502  0.2950
  105MOL0     H14123   3.808   1.896   9.989 -0.4874 -0.5810  0.4680
  105MOL0     H14124   3.635   1.817   9.826 -1.9937 -0.1573  1.2859
  105MOL0     H14125   3.626   1.975   9.751  1.1635 -1.1933 -0.3358
  105MOL0     H14126   3.630   1.864  10.127  0.3783  1.4179  1.3129
  105MOL0     H14127   3.430   2.047  10.344 -0.3182 -0.0678 -0.1319
  105MOL0     H14128   3.290   1.999  10.265  0.7189  4.1672 -0.2257
  105MOL0     H14129   3.539   1.854  10.345 -0.0552 -1.3385  2.8413
  105MOL0     H14130   3.404   1.761  10.272  0.1657 -0.2396  0.8406
  105MOL0     H14131   3.417   1.871  10.553 -0.2166  2.2662 -2.0188
  105MOL0     H14132   3.409   1.709  10.514 -1.0871 -0.1883 -0.4946
  105MOL0     H14133   3.202   1.735  10.569  1.7754  2.0127  2.1569
  105MOL0     H14134   3.174   1.769  10.394  0.9687 -1.0615 -0.1165
  105MOL0     H14135   2.981   1.733  10.523 -3.1285 -0.2201 -0.7761
  105MOL0     H14136   2.772   1.648  10.507 -1.2882 -1.3538  0.9724
  105MOL0     H14137   2.690   1.672  10.664 -2.8184  3.1798  0.1074
  105MOL0     H14138   2.632   1.748  10.508 -0.7326  0.0286 -0.4991
  105MOL0     H14139   2.299   1.969  10.645 -2.1415 -0.0997 -0.0613
  105MOL0     H14140   2.093   1.974  10.791 -0.6367 -0.5793 -0.4919
  105MOL0     H14141   1.974   2.042  10.985  0.6051  0.4913 -0.0371
  105MOL0     H14142   1.918   1.886  10.907 -0.5278  4.2159 -1.5431
  105MOL0     H14143   1.891   1.795  11.153  0.0829  0.1929 -0.3895
  105MOL0     H14144   1.953   1.950  11.212  0.6138 -0.8175 -0.4415
  105MOL0     H14145   1.765   2.064  11.098  1.0125 -1.1554 -2.1755
  105MOL0     H14146   1.734   1.970  11.250  0.8116  2.3854 -0.2512
  105MOL0     H14147   1.671   1.858  10.970  0.2062  0.6511 -0.4517
  105MOL0     H14148   1.664   1.778  11.136 -1.1340  0.1439  2.2165
  105MOL0     H14149   1.474   1.986  11.030 -0.4122 -3.1369 -2.5007
  105MOL0     H14150   1.509   1.977  11.206 -2.3031 -2.6314  2.3319
  105MOL0     H14151   1.407   1.761  11.018 -0.3289 -1.8521  1.0995
  105MOL0     H14152   1.417   1.736  11.189 -1.8236 -1.5120 -0.4229
  105MOL0     H14153   1.240   1.937  11.062 -2.6874  0.0060  0.6900
  105MOL0     H14154   1.267   1.925  11.239  1.2457  2.1809 -1.3723
  105MOL0     H14155   1.064   1.836  11.175  1.7837  1.2781  1.2994
  105MOL0     H14156   1.155   1.690  11.222 -0.9286  0.5870  0.2665
  105MOL0     H14157   2.328   1.809  11.105  0.8219  0.2563 -0.1518
  105MOL0     H14158   2.539   1.829  10.957 -1.2888  0.0749  3.4791
  105MOL0     H14159   2.850   2.133  10.760  4.5356  1.0853  0.0955
  105MOL0     H14160   3.052   2.138  10.657  2.1816 -0.2936 -3.1275
  105MOL0     H14161   4.619   2.014   9.949  1.0351 -1.9794 -0.7939
  105MOL0     H14162   4.842   2.054  10.033 -1.2190  0.8632  2.9562
  105MOL0     H14163   5.149   2.225  10.176  0.2708  1.0702  0.6880
  105MOL0     H14164   5.374   2.235  10.289  3.4887  1.8625  1.3791
  105MOL0     H14165   5.573   2.280  10.373 -0.0237  0.0400  0.7315
  105MOL0     H14166   5.595   2.207  10.209  3.2726 -1.8934  0.3183
  105MOL0     H14167   5.807   2.372  10.322 -2.3235  0.2997  0.3546
  105MOL0     H14168   5.807   2.265  10.178 -1.7397  1.8514 -0.8805
  105MOL0     H14169   5.814   2.074  10.313 -1.1853  0.5690 -0.6307
  105MOL0     H14170   5.799   2.169  10.471  1.8053 -1.5374 -0.0916
  105MOL0     H14171   6.027   2.198  10.279  1.3423 -0.7406  0.0207
  105MOL0     H14172   6.020   2.107  10.441 -1.7472  2.0518  2.6908
  105MOL0     H14173   6.099   2.501  10.536  1.0754 -1.2142  0.3703
  105MOL0     H14174   5.483   2.576  10.053  0.1766  0.9823  2.5211
  105MOL0     H14175   5.262   2.566   9.941  1.8100 -1.2357 -0.0035
  106MOL0     O14176   4.842   8.582   0.124  0.1174  0.4109  0.2100
  106MOL0     C14177   4.909   8.478   0.128 -0.1219 -0.2427  0.4090
  106MOL0     O14178   4.873   8.355   0.087  0.5660 -0.6917  0.1558
  106MOL0     C14179   4.750   8.336   0.023  0.1385 -0.7996  0.7011
  106MOL0     C14180   4.667   8.231   0.060  0.3394 -0.2022  0.0583
  106MOL0     C14181   4.554   8.201  -0.011 -0.1913 -0.1905 -0.3851
  106MOL0     C14182   4.511   8.286  -0.112  0.2655  0.1973  0.1437
  106MOL0     O14183   4.382   8.260  -0.164  0.4335 -0.5907 -0.0992
  106MOL0     C14184   4.296   8.377  -0.153  0.4315  1.5295  0.2131
  106MOL0     C14185   4.155   8.312  -0.165  0.0210 -0.3341 -1.2844
  106MOL0     C14186   4.103   8.301  -0.310 -0.1396 -0.2742  0.1195
  106MOL0     C14187   3.958   8.262  -0.310 -1.2554  0.1115  0.3986
  106MOL0     C14188   3.894   8.226  -0.447  0.1734  0.5149 -0.5532
  106MOL0     C14189   3.741   8.210  -0.424  0.6320  0.0030  0.2241
  106MOL0     C14190   3.669   8.195  -0.559  0.3570 -0.1563 -0.5906
  106MOL0     C14191   3.517   8.146  -0.539  0.0578 -0.2739  0.3166
  106MOL0     N14192   3.424   8.256  -0.513  0.1719  1.2407  0.0374
  106MOL0     C14193   3.419   8.340  -0.399 -0.4067 -0.1662 -0.3747
  106MOL0     C14194   3.296   8.393  -0.398  0.0546 -0.2431 -0.4847
  106MOL0     C14195   3.252   8.503  -0.299 -0.1003  0.2306 -0.5538
  106MOL0     C14196   3.122   8.565  -0.346  1.1700 -1.0594 -0.1160
  106MOL0     C14197   3.091   8.684  -0.256 -0.1245  0.4223  0.3933
  106MOL0     C14198   3.080   8.637  -0.110  0.5215  0.6224 -0.3481
  106MOL0     O14199   2.966   8.549  -0.085  0.0192  0.1585  0.3410
  106MOL0     C14200   2.837   8.599  -0.068  0.2655  0.1204 -0.7476
  106MOL0     C14201   2.740   8.502  -0.044  0.2618  0.3106  0.5589
  106MOL0     C14202   2.604   8.526  -0.030  0.3499  0.3584 -1.1558
  106MOL0     C14203   2.519   8.411  -0.005  0.1201  0.2945 -0.2622
  106MOL0     C14204   2.559   8.660  -0.031  0.2510 -0.3806 -0.0544
  106MOL0     C14205   2.421   8.695   0.004 -0.0964  0.3989 -0.3509
  106MOL0     O14206   2.376   8.819  -0.032  0.2174  0.6082 -0.0703
  106MOL0     C14207   2.244   8.812  -0.070  0.5976  0.0371 -0.6127
  106MOL0     C14208   2.218   8.782  -0.199  0.4447 -0.5221  0.2808
  106MOL0     C14209   2.085   8.771  -0.247 -0.3200  0.5836  0.0349
  106MOL0     C14210   1.980   8.793  -0.163 -0.7072 -0.3998 -0.3929
  106MOL0     O14211   1.855   8.775  -0.205  0.8427 -0.6619  0.2380
  106MOL0     C14212   1.744   8.753  -0.122  0.4439  0.2967  0.1700
  106MOL0     C14213   1.629   8.720  -0.209  0.0247  0.1497  0.2037
  106MOL0     C14214   1.582   8.821  -0.310  0.5603 -0.2790  0.3600
  106MOL0     C14215   1.469   8.754  -0.403 -0.1298 -0.3391  0.5936
  106MOL0     C14216   1.340   8.748  -0.326 -0.2605  0.5820 -0.2547
  106MOL0     C14217   1.218   8.736  -0.421  0.2527  0.2386  0.0489
  106MOL0     C14218   1.220   8.611  -0.509 -0.2928  0.5774  0.0766
  106MOL0     C14219   1.080   8.580  -0.554  0.6309 -0.4302 -0.0639
  106MOL0    Cl14220   0.992   8.529  -0.402  0.1077  0.0275  0.1097
  106MOL0     C14221   2.010   8.835  -0.029  0.5108 -0.0493  0.4150
  106MOL0     C14222   2.137   8.837   0.018 -0.4286  0.7397  0.2040
  106MOL0     O14223   2.357   8.617   0.079  0.0011 -0.0475 -0.0680
  106MOL0     C14224   2.653   8.764  -0.064 -0.6583 -0.3043  0.8774
  106MOL0     C14225   2.794   8.731  -0.073 -0.0771  0.3256  0.4707
  106MOL0     N14226   3.239   8.347  -0.511 -0.1214  0.3650  0.5433
  106MOL0     N14227   3.312   8.268  -0.584 -0.1923 -1.1390 -0.2689
  106MOL0     C14228   4.588   8.392  -0.154 -0.0603  0.1582 -1.2361
  106MOL0     C14229   4.713   8.412  -0.091  0.4879  0.0048 -0.5812
  106MOL0     C14230   5.049   8.473   0.177 -0.1739  0.3736  0.0657
  106MOL0     C14231   5.119   8.353   0.209  0.7409  0.0310  0.9937
  106MOL0     C14232   5.248   8.360   0.238  0.2058  0.2234 -0.2074
  106MOL0     C14233   5.312   8.489   0.257 -0.9362  2.0142 -0.3786
  106MOL0     O14234   5.450   8.489   0.294 -0.3157 -0.3024 -0.2674
  106MOL0     C14235   5.518   8.376   0.348 -0.2413  1.1978 -0.0405
  106MOL0     C14236   5.668   8.416   0.378  0.0734  0.0228 -0.9492
  106MOL0     C14237   5.687   8.530   0.476 -0.4516  0.4526  0.1586
  106MOL0     C14238   5.831   8.531   0.517 -0.7178  0.0712 -0.2213
  106MOL0     C14239   5.854   8.649   0.589 -0.5764 -0.1300  0.5299
  106MOL0     C14240   5.863   8.749   0.662 -0.3101 -0.1658  0.7019
  106MOL0     C14241   5.249   8.611   0.235  0.3068 -0.3558 -0.6471
  106MOL0     C14242   5.114   8.596   0.187  0.4950  0.1212 -0.2613
  106MOL0     H14243   4.703   8.166   0.139 -1.2506 -0.7019  0.3892
  106MOL0     H14244   4.505   8.108   0.017 -0.1507 -0.6109 -1.6505
  106MOL0     H14245   4.303   8.423  -0.054  0.0940  1.8045  0.1073
  106MOL0     H14246   4.293   8.448  -0.235  1.4372  1.4698  0.1116
  106MOL0     H14247   4.145   8.222  -0.104 -2.4831  1.6695  1.5975
  106MOL0     H14248   4.081   8.384  -0.128  2.4736  2.3610 -1.2775
  106MOL0     H14249   4.109   8.400  -0.357  1.3187 -0.6854 -0.6143
  106MOL0     H14250   4.172   8.237  -0.365  0.9248 -0.3733  1.5167
  106MOL0     H14251   3.938   8.177  -0.245 -1.5493  0.4262  0.7217
  106MOL0     H14252   3.904   8.351  -0.277  1.5652  2.4588 -0.9077
  106MOL0     H14253   3.928   8.303  -0.516  1.4584  1.5190  1.1130
  106MOL0     H14254   3.929   8.129  -0.483 -0.2727 -0.4215  1.3802
  106MOL0     H14255   3.730   8.120  -0.364 -1.6042  0.1759  0.1619
  106MOL0     H14256   3.713   8.298  -0.365 -1.8668  0.1308 -1.0104
  106MOL0     H14257   3.680   8.292  -0.609 -1.2747  0.7611  0.7043
  106MOL0     H14258   3.728   8.124  -0.618  2.6207 -0.9173  2.3666
  106MOL0     H14259   3.516   8.074  -0.456  2.1069 -1.9027 -0.9893
  106MOL0     H14260   3.482   8.091  -0.627  1.6247 -0.9407  0.0757
  106MOL0     H14261   3.492   8.353  -0.320 -0.6709  0.4656 -0.2231
  106MOL0     H14262   3.235   8.454  -0.202 -3.6015  2.2395  0.0119
  106MOL0     H14263   3.322   8.585  -0.279  0.2265  0.5795 -2.8885
  106MOL0     H14264   3.048   8.483  -0.341 -0.7331  0.4264 -2.0188
  106MOL0     H14265   3.121   8.604  -0.448 -1.5758 -1.1381 -0.2131
  106MOL0     H14266   2.999   8.726  -0.296 -0.1656 -0.2804 -0.2780
  106MOL0     H14267   3.169   8.761  -0.264  2.2013 -1.9148 -1.8864
  106MOL0     H14268   3.060   8.723  -0.046 -1.6026 -1.4366  1.9721
  106MOL0     H14269   3.171   8.589  -0.073  0.8244  0.2430 -1.5349
  106MOL0     H14270   2.776   8.403  -0.020 -0.2930  0.0976  0.5179
  106MOL0     H14271   2.478   8.423   0.096 -1.0048  0.8907 -0.7814
  106MOL0     H14272   2.448   8.395  -0.086 -0.3946 -6.0845  0.9790
  106MOL0     H14273   2.584   8.323  -0.004 -1.3394 -0.8200  0.6686
  106MOL0     H14274   2.301   8.748  -0.260 -0.7937 -0.2293 -1.6489
  106MOL0     H14275   2.068   8.730  -0.346 -1.8378 -2.4882  1.4310
  106MOL0     H14276   1.764   8.670  -0.054  1.1347  0.2939 -0.0366
  106MOL0     H14277   1.721   8.844  -0.065  0.0782 -0.2467  0.9118
  106MOL0     H14278   1.660   8.630  -0.263  0.0080  1.6240 -2.4468
  106MOL0     H14279   1.548   8.682  -0.146  0.5193 -0.5754  0.4170
  106MOL0     H14280   1.662   8.859  -0.375 -0.1798 -1.9360 -1.6431
  106MOL0     H14281   1.532   8.901  -0.255  0.3088  0.3862 -0.7939
  106MOL0     H14282   1.458   8.817  -0.492  0.6584  1.6594  1.8477
  106MOL0     H14283   1.504   8.657  -0.439  2.3081  0.2804  1.1254
  106MOL0     H14284   1.334   8.848  -0.282  2.8635 -0.5662  3.2734
  106MOL0     H14285   1.347   8.666  -0.254  0.0898 -0.3826 -1.3522
  106MOL0     H14286   1.138   8.739  -0.346 -0.6044 -0.8257 -0.7893
  106MOL0     H14287   1.223   8.824  -0.485  2.3585 -0.5952 -1.0439
  106MOL0     H14288   1.264   8.534  -0.445  0.6237  0.5348 -0.5830
  106MOL0     H14289   1.289   8.640  -0.589 -1.3816  1.7945 -0.4595
  106MOL0     H14290   1.087   8.487  -0.611 -1.5184 -1.0767  0.6365
  106MOL0     H14291   1.031   8.662  -0.607 -2.3685 -1.8520  0.3155
  106MOL0     H14292   1.926   8.856   0.036 -0.1689  2.3941 -1.1381
  106MOL0     H14293   2.145   8.858   0.124 -0.2245 -1.9478  0.7950
  106MOL0     H14294   2.612   8.864  -0.076  0.3475  0.0104 -0.1824
  106MOL0     H14295   2.864   8.814  -0.085  0.8594 -0.2730  1.5498
  106MOL0     H14296   4.546   8.454  -0.233  1.2384  1.4105 -0.9896
  106MOL0     H14297   4.791   8.473  -0.136  3.0648 -0.8029  2.4785
  106MOL0     H14298   5.058   8.263   0.212 -1.0905  1.1340 -0.5393
  106MOL0     H14299   5.297   8.265   0.256 -0.8583 -0.8092 -2.3792
  106MOL0     H14300   5.466   8.344   0.439  0.8973 -2.0910 -0.4014
  106MOL0     H14301   5.516   8.291   0.279 -2.7439  0.4559  0.8316
  106MOL0     H14302   5.727   8.431   0.288  0.8685  0.1108 -0.4234
  106MOL0     H14303   5.707   8.323   0.420  1.1834  0.1881 -1.5853
  106MOL0     H14304   5.618   8.512   0.560  0.6292  1.4362  1.2825
  106MOL0     H14305   5.656   8.622   0.426  1.7956  0.7573 -0.7648
  106MOL0     H14306   5.898   8.521   0.431 -0.9628 -3.0354 -0.1708
  106MOL0     H14307   5.852   8.444   0.580 -0.4211 -2.0474 -3.0186
  106MOL0     H14308   5.877   8.840   0.717  3.7323  0.0093 -0.2525
  106MOL0     H14309   5.289   8.712   0.244 -0.1236 -0.2881  0.7283
  106MOL0     H14310   5.065   8.692   0.179  0.9407  0.4736  0.9506
  107MOL0     O14311   1.576   7.881   7.675 -0.6081  0.2552  0.4177
  107MOL0     C14312   1.622   7.989   7.718 -0.4584  0.1152  0.3464
  107MOL0     O14313   1.542   8.099   7.750 -0.4014 -0.0912 -0.0686
  107MOL0     C14314   1.405   8.088   7.736 -0.2271  0.3503  0.3743
  107MOL0     C14315   1.339   8.080   7.856 -0.6081  0.3719  0.3293
  107MOL0     C14316   1.201   8.056   7.852 -0.1908  0.2094 -0.7558
  107MOL0     C14317   1.131   8.051   7.732 -0.5650 -0.0730  1.3119
  107MOL0     O14318   0.994   8.041   7.716 -0.6452 -0.7493 -0.4112
  107MOL0     C14319   0.911   8.022   7.832 -0.1586 -0.5425  0.8059
  107MOL0     C14320   0.769   7.994   7.781 -0.1983 -1.2223  0.2628
  107MOL0     C14321   0.705   8.118   7.721 -0.2049  0.0412  0.3810
  107MOL0     C14322   0.559   8.084   7.689  0.0995 -0.1007  0.8109
  107MOL0     C14323   0.465   8.063   7.809  0.2955 -0.4343  0.9387
  107MOL0     C14324   0.320   8.076   7.752 -0.9788 -1.2996 -0.1249
  107MOL0     C14325   0.212   8.068   7.862  0.7888  0.3445 -0.0289
  107MOL0     C14326   0.210   7.930   7.933  0.0513 -0.5252  0.3215
  107MOL0     N14327   0.100   7.923   8.030 -0.5550  0.0591  0.3174
  107MOL0     C14328   0.027   7.811   8.040 -0.5054  0.6034 -0.3077
  107MOL0     C14329  -0.051   7.838   8.146 -0.0401 -0.2766  0.5814
  107MOL0     C14330  -0.168   7.770   8.204 -0.8590  0.9640 -0.0540
  107MOL0     C14331  -0.293   7.776   8.115  0.0768  0.6583 -0.3856
  107MOL0     C14332  -0.347   7.916   8.103 -0.5718  0.6449 -0.2367
  107MOL0     C14333  -0.380   7.993   8.229 -0.0160  0.2329  0.1830
  107MOL0     O14334  -0.483   7.906   8.292  0.4123 -0.5930  0.5243
  107MOL0     C14335  -0.540   7.944   8.409 -0.4154  1.0547 -0.0996
  107MOL0     C14336  -0.612   8.058   8.417  0.3824  0.0173  0.4434
  107MOL0     C14337  -0.680   8.100   8.530  0.4515 -0.0897 -0.0407
  107MOL0     C14338  -0.753   8.231   8.513  0.8790 -0.5397  0.6467
  107MOL0     C14339  -0.677   8.022   8.648 -0.2974 -0.1829  0.8005
  107MOL0     C14340  -0.737   8.057   8.775  0.5431  0.5866  0.1341
  107MOL0     O14341  -0.767   7.947   8.853 -0.6132  0.2661 -0.3111
  107MOL0     C14342  -0.800   7.985   8.984  0.1824  1.2101  0.6861
  107MOL0     C14343  -0.934   8.014   9.014 -1.0854  0.0853  0.1658
  107MOL0     C14344  -0.966   8.043   9.148 -0.5907  0.3718  0.7168
  107MOL0     C14345  -0.869   8.033   9.248 -0.3053 -0.5170 -0.0499
  107MOL0     O14346  -0.912   8.048   9.374 -0.7131  0.5330 -0.0527
  107MOL0     C14347  -0.852   7.942   9.458  0.5139 -1.0014 -0.2267
  107MOL0     C14348  -0.942   7.917   9.582 -0.8551 -0.5164 -0.4732
  107MOL0     C14349  -0.898   8.002   9.702  0.8031 -0.0199 -0.5073
  107MOL0     C14350  -1.001   7.976   9.816 -0.1025 -0.7530  0.0208
  107MOL0     C14351  -0.978   8.075   9.938  0.9137 -0.3837 -0.5617
  107MOL0     C14352  -1.055   8.013  10.054  0.7903  0.8080  0.3583
  107MOL0     C14353  -1.044   8.087  10.184  0.0933  0.7870 -0.1519
  107MOL0     C14354  -1.162   8.080  10.274  0.4939  1.2311  0.3149
  107MOL0    Cl14355  -1.207   7.917  10.324 -0.1127 -0.1472  0.1872
  107MOL0     C14356  -0.738   8.000   9.210 -0.6353  0.3754 -0.0575
  107MOL0     C14357  -0.706   7.970   9.082  0.4648  0.2284 -0.7349
  107MOL0     O14358  -0.778   8.169   8.798 -0.0242 -0.1283 -0.1637
  107MOL0     C14359  -0.604   7.902   8.639 -0.0605  0.3771 -0.4027
  107MOL0     C14360  -0.537   7.866   8.523 -0.4851 -1.4503 -0.4375
  107MOL0     N14361  -0.023   7.969   8.191 -0.5511  0.3391  1.0428
  107MOL0     N14362   0.072   8.025   8.119 -0.1596  0.4325  0.0844
  107MOL0     C14363   1.199   8.085   7.614 -0.6588  0.0451 -0.2867
  107MOL0     C14364   1.341   8.096   7.617 -0.3102 -0.2255  0.4689
  107MOL0     C14365   1.763   8.002   7.710 -0.5094  0.9950  0.2437
  107MOL0     C14366   1.818   8.126   7.740  0.7283 -0.5231 -0.6880
  107MOL0     C14367   1.955   8.151   7.718  0.3161  0.0968 -0.6197
  107MOL0     C14368   2.042   8.046   7.687  0.0066  0.6591 -0.0525
  107MOL0     O14369   2.176   8.072   7.672 -0.9547  0.8501  1.0835
  107MOL0     C14370   2.259   8.009   7.568  0.7845  0.0723 -0.0288
  107MOL0     C14371   2.384   7.941   7.620  0.0529 -0.7464 -0.1344
  107MOL0     C14372   2.350   7.825   7.721 -0.3565 -0.2022 -0.0235
  107MOL0     C14373   2.479   7.787   7.789  0.1248 -0.2790  0.4476
  107MOL0     C14374   2.581   7.745   7.694 -0.4804 -0.2567  0.1163
  107MOL0     C14375   2.667   7.708   7.616  0.6761 -0.0390  0.1052
  107MOL0     C14376   1.993   7.921   7.667 -0.2378 -0.8494 -0.9231
  107MOL0     C14377   1.856   7.900   7.678  0.3410 -0.1270 -0.1922
  107MOL0     H14378   1.387   8.081   7.954 -1.1187  2.9505  0.6415
  107MOL0     H14379   1.164   8.046   7.953 -1.1922  1.0503 -1.0141
  107MOL0     H14380   0.951   7.936   7.888  1.0592 -1.7794 -1.7863
  107MOL0     H14381   0.903   8.111   7.895 -1.5247  0.4528 -0.7002
  107MOL0     H14382   0.771   7.911   7.710 -1.6338 -1.1863  0.1529
  107MOL0     H14383   0.714   7.977   7.874  1.5328 -2.1319  1.1756
  107MOL0     H14384   0.721   8.198   7.794  0.8652  0.2834 -0.0940
  107MOL0     H14385   0.762   8.143   7.631 -2.1963 -1.8522 -1.5193
  107MOL0     H14386   0.513   8.164   7.629  0.7390  0.1758  0.6871
  107MOL0     H14387   0.555   8.000   7.619  4.1450 -0.0827  0.3725
  107MOL0     H14388   0.478   7.964   7.854  1.4319 -1.3744 -1.2710
  107MOL0     H14389   0.482   8.128   7.895  1.3836 -1.2557  1.3654
  107MOL0     H14390   0.306   8.175   7.709 -1.1691 -1.6572 -0.9015
  107MOL0     H14391   0.294   8.004   7.674  0.3002  0.3705 -2.2029
  107MOL0     H14392   0.224   8.144   7.940 -0.1047 -0.3553  0.8180
  107MOL0     H14393   0.123   8.091   7.803  0.0860 -0.0557  0.8511
  107MOL0     H14394   0.308   7.920   7.981  0.3485 -1.1955 -0.3980
  107MOL0     H14395   0.195   7.855   7.855  0.4450 -0.7108  0.4230
  107MOL0     H14396   0.027   7.718   7.985 -3.6912 -1.8600  3.3133
  107MOL0     H14397  -0.130   7.670   8.227  1.7584  2.0033  0.5071
  107MOL0     H14398  -0.174   7.810   8.306 -1.2098  2.2305 -0.5412
  107MOL0     H14399  -0.368   7.718   8.170  0.7542  0.6147  0.5215
  107MOL0     H14400  -0.271   7.723   8.022 -0.8191  2.4396 -1.6865
  107MOL0     H14401  -0.439   7.906   8.044  0.2899  1.6985 -1.8262
  107MOL0     H14402  -0.274   7.971   8.043 -0.3907 -0.5171 -1.1144
  107MOL0     H14403  -0.424   8.087   8.195 -1.2437 -1.0138 -1.8784
  107MOL0     H14404  -0.296   8.001   8.298  0.4580  1.1639 -0.4965
  107MOL0     H14405  -0.617   8.113   8.324  1.1269 -0.4176  0.1312
  107MOL0     H14406  -0.720   8.297   8.594  0.7680  3.1555 -2.0316
  107MOL0     H14407  -0.741   8.276   8.414  1.4847  0.5029  1.1750
  107MOL0     H14408  -0.860   8.215   8.532 -0.1008 -0.0948 -3.5637
  107MOL0     H14409  -1.002   8.015   8.930 -0.3797  0.2463 -0.4189
  107MOL0     H14410  -1.072   8.060   9.164 -0.9051 -0.9316  0.1856
  107MOL0     H14411  -0.854   7.850   9.400 -0.2826 -1.7944  1.0057
  107MOL0     H14412  -0.750   7.973   9.484 -0.2077  1.3185  0.1229
  107MOL0     H14413  -1.043   7.955   9.562  0.9239  3.1954 -3.8799
  107MOL0     H14414  -0.944   7.815   9.619 -0.6939 -0.3978 -0.1319
  107MOL0     H14415  -0.902   8.107   9.671  1.0742  0.5319  1.2658
  107MOL0     H14416  -0.794   7.975   9.722  1.6529  1.4136 -2.5717
  107MOL0     H14417  -1.104   7.984   9.781  0.9086  1.7099 -2.9095
  107MOL0     H14418  -0.975   7.877   9.853  2.7319  0.4695  1.6325
  107MOL0     H14419  -1.016   8.172   9.907  1.3716  0.1959  0.6228
  107MOL0     H14420  -0.874   8.087   9.969  0.3993  1.3693  0.6227
  107MOL0     H14421  -1.163   8.003  10.036  0.6584  1.6964  0.6267
  107MOL0     H14422  -1.025   7.908  10.068  0.6084  0.7224  0.1294
  107MOL0     H14423  -1.029   8.194  10.172  1.5082  0.4399 -1.7779
  107MOL0     H14424  -0.951   8.047  10.226  2.0389  1.4513 -3.5077
  107MOL0     H14425  -1.246   8.123  10.218  1.3756 -0.6156 -2.6575
  107MOL0     H14426  -1.148   8.144  10.362  0.8263  1.2183  0.2744
  107MOL0     H14427  -0.659   7.990   9.283 -1.0206  0.3640  0.3642
  107MOL0     H14428  -0.603   7.943   9.060  0.3754 -2.6190  1.7487
  107MOL0     H14429  -0.595   7.833   8.722 -1.0915  1.0330  0.2711
  107MOL0     H14430  -0.479   7.778   8.548 -0.0901  0.0813  5.4648
  107MOL0     H14431   1.141   8.099   7.523 -1.4328 -0.2866  0.1528
  107MOL0     H14432   1.399   8.138   7.536 -2.6745 -1.6978 -2.1408
  107MOL0     H14433   1.763   8.217   7.762 -0.0327 -0.1350 -3.7228
  107MOL0     H14434   1.994   8.252   7.718  1.2847 -0.2565  0.4856
  107MOL0     H14435   2.201   7.935   7.512 -3.4225  1.9114  1.5169
  107MOL0     H14436   2.287   8.084   7.494 -1.9396  1.5908  0.3613
  107MOL0     H14437   2.438   8.024   7.665 -1.8853  1.1533 -1.1539
  107MOL0     H14438   2.440   7.909   7.532  0.7869  0.6906 -0.2177
  107MOL0     H14439   2.317   7.733   7.673  0.8082 -1.9285  2.2876
  107MOL0     H14440   2.270   7.849   7.792 -0.1134  0.5343  0.0125
  107MOL0     H14441   2.457   7.699   7.851 -0.7138 -0.8754 -0.6552
  107MOL0     H14442   2.520   7.868   7.849  0.4156  0.5382 -0.8119
  107MOL0     H14443   2.748   7.697   7.548  0.2950  3.0848 -1.0195
  107MOL0     H14444   2.060   7.835   7.670  0.0873 -0.6026  2.4938
  107MOL0     H14445   1.823   7.800   7.653 -1.7198  0.8316 -1.5715
  108MOL0     O14446   3.208   5.769   8.140 -0.4668 -0.3643 -0.6722
  108MOL0     C14447   3.198   5.853   8.233 -0.0704  0.0597  0.4674
  108MOL0     O14448   3.293   5.910   8.309 -0.4803 -0.2415  0.2014
  108MOL0     C14449   3.420   5.866   8.307 -0.4705  0.3231  1.0179
  108MOL0     C14450   3.462   5.733   8.285 -0.5606 -0.0247  0.1833
  108MOL0     C14451   3.592   5.694   8.318 -0.6432 -0.1465 -0.1321
  108MOL0     C14452   3.686   5.792   8.363  0.4954  0.5983 -0.2757
  108MOL0     O14453   3.814   5.747   8.396  0.3108  0.2591  0.6507
  108MOL0     C14454   3.911   5.847   8.443  0.0996  0.6718 -0.5663
  108MOL0     C14455   4.049   5.779   8.450 -0.6430  0.0320  0.3420
  108MOL0     C14456   4.161   5.869   8.405  0.3608  0.4326 -0.1628
  108MOL0     C14457   4.301   5.811   8.430 -0.0254  0.0207  0.1130
  108MOL0     C14458   4.411   5.917   8.447 -0.2824  0.6311 -0.4426
  108MOL0     C14459   4.404   6.049   8.369 -1.0935 -0.6855  0.6156
  108MOL0     C14460   4.543   6.112   8.344 -0.6088 -0.1356  1.1934
  108MOL0     C14461   4.634   6.133   8.460  0.7730  0.2547 -0.2871
  108MOL0     N14462   4.768   6.177   8.416  0.1933 -0.1013  0.0934
  108MOL0     C14463   4.843   6.296   8.447  1.1064  0.6177 -0.8672
  108MOL0     C14464   4.962   6.275   8.401  0.4573 -0.5212  0.4926
  108MOL0     C14465   5.090   6.369   8.425  0.1851  0.1812 -0.4411
  108MOL0     C14466   5.060   6.497   8.505  0.0136 -0.3979 -0.3458
  108MOL0     C14467   5.039   6.472   8.666  0.6423  0.1052  0.4824
  108MOL0     C14468   5.103   6.573   8.757 -0.3043  0.1535  0.3986
  108MOL0     O14469   5.018   6.693   8.750 -0.9815 -0.2266  0.4874
  108MOL0     C14470   5.078   6.806   8.806  1.2256 -0.1729 -0.1207
  108MOL0     C14471   5.205   6.816   8.865  0.1836 -0.4314 -0.0194
  108MOL0     C14472   5.253   6.934   8.917  0.1216 -0.1560  0.6021
  108MOL0     C14473   5.391   6.932   8.980 -0.3415  0.6884 -0.7020
  108MOL0     C14474   5.168   7.050   8.904 -0.5492  0.1478  0.0117
  108MOL0     C14475   5.201   7.191   8.954  0.4666  0.0535  0.5234
  108MOL0     O14476   5.284   7.208   9.063  0.6172  0.0617  1.0381
  108MOL0     C14477   5.314   7.337   9.099  0.2716  0.3385 -0.5222
  108MOL0     C14478   5.215   7.425   9.145  0.2003 -0.4956 -1.0513
  108MOL0     C14479   5.250   7.552   9.190  0.3793 -0.5338  0.0510
  108MOL0     C14480   5.383   7.602   9.174  0.6077 -0.4603 -0.3555
  108MOL0     O14481   5.419   7.725   9.221 -0.0472  0.5752 -0.6629
  108MOL0     C14482   5.359   7.829   9.150  0.4378 -0.0231  0.6684
  108MOL0     C14483   5.467   7.934   9.120  0.0689 -0.3049 -0.4990
  108MOL0     C14484   5.574   7.897   9.020 -0.2256  0.6605 -0.3457
  108MOL0     C14485   5.668   8.017   8.989  0.0280  0.5413 -0.9629
  108MOL0     C14486   5.796   7.983   8.913 -0.1354 -0.0930  0.3453
  108MOL0     C14487   5.874   7.867   8.976  0.5976 -0.0235 -0.1407
  108MOL0     C14488   6.014   7.864   8.924 -0.8974  0.4337 -0.1648
  108MOL0     C14489   6.094   7.732   8.956 -0.5045  0.4865 -0.0473
  108MOL0    Cl14490   6.280   7.742   8.941 -0.1828  0.0526  0.1359
  108MOL0     C14491   5.481   7.518   9.114  0.0579 -0.8637  0.4606
  108MOL0     C14492   5.451   7.383   9.084  0.5667 -0.4410  1.1702
  108MOL0     O14493   5.158   7.284   8.878  0.6376  0.2282 -0.3002
  108MOL0     C14494   5.045   7.034   8.846  0.2617 -1.6302  0.8472
  108MOL0     C14495   5.004   6.915   8.793  1.2049  0.2475  0.6120
  108MOL0     N14496   4.969   6.151   8.339  0.3154  0.1305  0.6538
  108MOL0     N14497   4.857   6.096   8.355 -0.0679  0.0228  0.6080
  108MOL0     C14498   3.645   5.922   8.369  0.1409 -0.4772 -0.2740
  108MOL0     C14499   3.518   5.952   8.339  0.2802  0.2301 -0.0528
  108MOL0     C14500   3.061   5.904   8.253 -0.2671 -0.4947  0.4169
  108MOL0     C14501   3.033   6.017   8.319  0.9288 -0.9324 -0.4083
  108MOL0     C14502   2.894   6.054   8.331 -0.8296  0.7077 -0.3067
  108MOL0     C14503   2.791   5.990   8.278 -0.9804 -0.2800  0.5390
  108MOL0     O14504   2.664   6.024   8.317  0.0580  0.4259 -0.1156
  108MOL0     C14505   2.579   6.101   8.230  0.2837 -0.6140 -0.5167
  108MOL0     C14506   2.467   6.184   8.303  0.1145  0.0671  0.4750
  108MOL0     C14507   2.380   6.245   8.186  0.1921 -0.3672  0.5474
  108MOL0     C14508   2.275   6.347   8.231 -0.1567  0.7904 -0.4636
  108MOL0     C14509   2.344   6.472   8.279 -0.1097 -0.6629 -0.0131
  108MOL0     C14510   2.400   6.571   8.329  0.4126  0.1959  0.5925
  108MOL0     C14511   2.818   5.865   8.211  0.5651 -0.4188 -0.3484
  108MOL0     C14512   2.948   5.823   8.205 -0.7746 -0.8720  0.1480
  108MOL0     H14513   3.399   5.648   8.258  2.1073 -2.9686  2.3887
  108MOL0     H14514   3.635   5.595   8.324 -0.2284  0.0587  0.3397
  108MOL0     H14515   3.919   5.923   8.364  0.5222 -0.4162 -1.6094
  108MOL0     H14516   3.880   5.895   8.536  1.6715 -0.0406  0.3487
  108MOL0     H14517   4.082   5.747   8.549  3.0334 -3.5747 -1.7111
  108MOL0     H14518   4.057   5.696   8.379  0.5462  1.4212 -1.2552
  108MOL0     H14519   4.159   5.909   8.303  3.1114 -0.0706 -0.4983
  108MOL0     H14520   4.164   5.959   8.467 -1.6958  1.2766 -1.1920
  108MOL0     H14521   4.301   5.742   8.515 -1.8833  0.8706  0.8582
  108MOL0     H14522   4.313   5.752   8.339 -3.0940 -1.1203  0.3447
  108MOL0     H14523   4.416   5.956   8.549  0.7410 -1.2231  0.2592
  108MOL0     H14524   4.504   5.864   8.426 -1.7975 -2.5416  0.1774
  108MOL0     H14525   4.347   6.032   8.277 -2.0693  0.8461  0.9041
  108MOL0     H14526   4.337   6.120   8.418  0.4190  3.5525 -2.8624
  108MOL0     H14527   4.603   6.055   8.271 -0.9483  1.5520 -0.4698
  108MOL0     H14528   4.521   6.204   8.290 -0.8822 -1.3359 -0.8555
  108MOL0     H14529   4.633   6.044   8.523  1.4013  1.2925  1.2644
  108MOL0     H14530   4.595   6.206   8.532  2.5385  0.4698  0.4892
  108MOL0     H14531   4.814   6.381   8.508 -1.0275  0.2077 -1.2096
  108MOL0     H14532   5.171   6.319   8.479  1.8331  2.2387 -0.8976
  108MOL0     H14533   5.124   6.397   8.325  2.0883 -0.1488  0.0700
  108MOL0     H14534   4.967   6.538   8.463  0.2982 -0.3024 -0.8882
  108MOL0     H14535   5.137   6.572   8.484 -0.1682  1.1991  3.6925
  108MOL0     H14536   5.058   6.368   8.697 -2.4416 -1.0375 -1.0649
  108MOL0     H14537   4.934   6.484   8.694  0.4519 -2.0816  0.9445
  108MOL0     H14538   5.208   6.590   8.732  0.2867  0.8347  3.0652
  108MOL0     H14539   5.112   6.535   8.859  2.3328 -1.0801 -0.2021
  108MOL0     H14540   5.261   6.725   8.884  0.4851 -0.3563 -0.5462
  108MOL0     H14541   5.396   6.854   9.056  1.5799  0.6077 -0.8668
  108MOL0     H14542   5.463   6.925   8.898  0.7844 -2.0366  0.4220
  108MOL0     H14543   5.408   7.032   9.021 -1.3684  1.5533 -2.2710
  108MOL0     H14544   5.110   7.399   9.154 -0.3791  2.3435  4.2322
  108MOL0     H14545   5.173   7.602   9.249  0.0144  1.7717 -2.2163
  108MOL0     H14546   5.306   7.806   9.058  0.2840  1.3002  0.4061
  108MOL0     H14547   5.290   7.875   9.221  2.0694  0.7768  1.8135
  108MOL0     H14548   5.416   8.022   9.079  0.5217  0.8252  1.2582
  108MOL0     H14549   5.509   7.966   9.215 -0.3791 -1.3178  0.0526
  108MOL0     H14550   5.531   7.855   8.929 -0.3159 -3.6740  1.4916
  108MOL0     H14551   5.632   7.816   9.063 -1.9114 -0.3482  0.1072
  108MOL0     H14552   5.605   8.091   8.939 -1.9954  0.9214  1.8881
  108MOL0     H14553   5.698   8.040   9.092 -1.1545 -3.6518  0.5407
  108MOL0     H14554   5.860   8.071   8.917 -1.8301  1.2164 -0.0582
  108MOL0     H14555   5.781   7.958   8.807  1.8198 -1.1899  0.2887
  108MOL0     H14556   5.866   7.864   9.085 -1.4333 -0.5596 -0.2558
  108MOL0     H14557   5.823   7.775   8.943 -2.8798 -0.3561  5.0191
  108MOL0     H14558   6.079   7.947   8.953  0.7766  0.1741 -2.8668
  108MOL0     H14559   6.014   7.868   8.815  0.4837  1.1082 -0.1554
  108MOL0     H14560   6.050   7.648   8.901 -2.6319  0.4259  1.5944
  108MOL0     H14561   6.079   7.707   9.061 -0.0376 -3.1624 -0.7002
  108MOL0     H14562   5.577   7.568   9.104 -0.1926 -0.6155 -0.9202
  108MOL0     H14563   5.526   7.313   9.048  1.9742  1.1990  0.8022
  108MOL0     H14564   4.982   7.118   8.817 -0.1589 -1.4762  2.1177
  108MOL0     H14565   4.906   6.907   8.747  0.7537  1.7209  1.2685
  108MOL0     H14566   3.718   6.000   8.389  1.3644 -1.5279 -0.5118
  108MOL0     H14567   3.493   6.057   8.354 -0.4521  0.0321  0.1467
  108MOL0     H14568   3.111   6.075   8.368 -0.0697 -0.3008  0.4905
  108MOL0     H14569   2.870   6.141   8.392 -1.7704  0.4568 -0.3031
  108MOL0     H14570   2.643   6.172   8.178 -2.8638  2.5037 -0.5286
  108MOL0     H14571   2.542   6.020   8.167  0.3920 -1.4881  0.5075
  108MOL0     H14572   2.520   6.260   8.362  1.0823 -0.4865  0.3406
  108MOL0     H14573   2.401   6.129   8.371  0.5255 -1.6613 -0.4647
  108MOL0     H14574   2.327   6.163   8.138 -0.9191  0.1062  0.9390
  108MOL0     H14575   2.447   6.288   8.112  2.1194  0.4616  2.6469
  108MOL0     H14576   2.211   6.310   8.311  0.3796  1.6377  0.3909
  108MOL0     H14577   2.211   6.363   8.144 -1.0776 -1.2365 -0.2133
  108MOL0     H14578   2.441   6.659   8.374 -1.8529  0.1626  2.9578
  108MOL0     H14579   2.730   5.813   8.174 -1.2021  1.7798  0.5374
  108MOL0     H14580   2.966   5.728   8.154 -0.3393  0.7504 -2.9469
  109MOL0     O14581   7.392  10.443   2.482  1.2211  0.6246 -0.3399
  109MOL0     C14582   7.478  10.385   2.416 -0.4997  0.3345 -0.3746
  109MOL0     O14583   7.454  10.331   2.289  0.2172 -0.7475 -0.5359
  109MOL0     C14584   7.322  10.356   2.256 -0.2006  1.0184 -0.0985
  109MOL0     C14585   7.292  10.477   2.200  0.9120  0.3597  1.4833
  109MOL0     C14586   7.170  10.501   2.143 -0.7640 -0.4802 -0.7083
  109MOL0     C14587   7.074  10.404   2.132 -0.1142  0.4050 -0.0995
  109MOL0     O14588   6.943  10.422   2.094 -0.4652  0.4631 -0.0112
  109MOL0     C14589   6.914  10.542   2.023 -0.3309 -0.3626 -0.7435
  109MOL0     C14590   6.785  10.538   1.948 -0.3321  0.2896  0.4717
  109MOL0     C14591   6.767  10.448   1.823  0.1876 -0.0928  0.0412
  109MOL0     C14592   6.634  10.477   1.755 -0.1344 -0.7308  0.0777
  109MOL0     C14593   6.599  10.382   1.648  0.4663  0.4063  0.5518
  109MOL0     C14594   6.695  10.413   1.526  0.5443  1.0944 -0.9795
  109MOL0     C14595   6.644  10.355   1.393 -0.8243 -0.2601  0.0077
  109MOL0     C14596   6.519  10.431   1.352  0.2084 -0.4406 -0.2439
  109MOL0     N14597   6.485  10.387   1.221  0.3018  0.3875  0.3977
  109MOL0     C14598   6.418  10.471   1.132 -0.6865  0.2875  0.5702
  109MOL0     C14599   6.343  10.384   1.052  0.4600 -0.5328  0.4523
  109MOL0     C14600   6.285  10.409   0.912 -0.2335 -0.4839 -0.3348
  109MOL0     C14601   6.183  10.521   0.912 -0.5906 -0.5129  0.6899
  109MOL0     C14602   6.131  10.558   0.768 -0.1106  0.5394 -0.2245
  109MOL0     C14603   6.046  10.450   0.701  0.1692  0.2907  0.6536
  109MOL0     O14604   5.990  10.492   0.573  0.4299  0.0791  0.1231
  109MOL0     C14605   5.886  10.422   0.520 -0.0663 -0.5090 -0.2192
  109MOL0     C14606   5.886  10.286   0.498 -0.4243 -0.5624  0.6210
  109MOL0     C14607   5.770  10.221   0.466  0.7011 -0.0246  0.7386
  109MOL0     C14608   5.777  10.080   0.431  0.1590 -0.4097 -0.1431
  109MOL0     C14609   5.650  10.294   0.443 -0.1318 -0.2815  0.5410
  109MOL0     C14610   5.512  10.244   0.403  0.1856  0.5228  1.1101
  109MOL0     O14611   5.415  10.336   0.350  0.0498  0.4896  0.5198
  109MOL0     C14612   5.287  10.299   0.318 -0.2903 -0.1045  0.1885
  109MOL0     C14613   5.219  10.336   0.199 -0.5951 -0.1723  0.2742
  109MOL0     C14614   5.091  10.299   0.168 -0.0764  0.0054  0.1122
  109MOL0     C14615   5.017  10.229   0.257  0.3466 -0.1734  0.2873
  109MOL0     O14616   4.889  10.193   0.223  0.4082 -0.2701 -0.3513
  109MOL0     C14617   4.788  10.150   0.318  0.3720  0.3833 -0.4333
  109MOL0     C14618   4.641  10.158   0.261 -0.2570 -0.8085  0.0628
  109MOL0     C14619   4.556  10.215   0.375 -0.5732  0.2274  1.2597
  109MOL0     C14620   4.411  10.202   0.331 -0.4052  1.1242  0.3186
  109MOL0     C14621   4.317  10.244   0.439 -0.1809  0.1731  0.0315
  109MOL0     C14622   4.174  10.192   0.415 -0.1406  0.0427 -0.1443
  109MOL0     C14623   4.071  10.237   0.511  0.3545  0.1414 -0.6426
  109MOL0     C14624   3.938  10.177   0.457  0.0506 -0.7652  0.7622
  109MOL0    Cl14625   3.899  10.219   0.292  0.0239 -0.1315  0.3359
  109MOL0     C14626   5.073  10.200   0.381  0.1731 -0.5203 -0.7081
  109MOL0     C14627   5.211  10.232   0.414  0.7182  0.3124  0.0025
  109MOL0     O14628   5.488  10.124   0.425 -0.4706 -0.4190  0.4394
  109MOL0     C14629   5.653  10.429   0.476 -0.4567 -0.4140 -0.3511
  109MOL0     C14630   5.772  10.490   0.514 -0.3712  0.0782  0.1204
  109MOL0     N14631   6.363  10.252   1.094  0.7340  0.8473  0.9565
  109MOL0     N14632   6.450  10.255   1.194 -0.2524 -0.0681 -0.2486
  109MOL0     C14633   7.105  10.283   2.196 -0.3449  0.1500 -0.0225
  109MOL0     C14634   7.226  10.248   2.249  0.6568 -0.6938  0.4381
  109MOL0     C14635   7.606  10.361   2.490 -0.4549  1.2454 -0.2657
  109MOL0     C14636   7.612  10.363   2.627  1.5266 -0.4085  0.3108
  109MOL0     C14637   7.732  10.330   2.688 -0.8603 -0.7826  0.0345
  109MOL0     C14638   7.849  10.293   2.621  0.5378 -1.2276 -0.8591
  109MOL0     O14639   7.947  10.246   2.702 -0.3592  0.0178 -0.3641
  109MOL0     C14640   7.974  10.106   2.694  0.2076 -0.4550  0.2183
  109MOL0     C14641   7.905  10.044   2.809 -0.3404  0.0542  0.2094
  109MOL0     C14642   7.962   9.901   2.839  0.4437 -0.9352  0.2004
  109MOL0     C14643   7.935   9.797   2.730 -0.1887  0.3596  0.6906
  109MOL0     C14644   8.028   9.694   2.726 -0.3693  0.4940 -0.5221
  109MOL0     C14645   8.101   9.597   2.703 -0.0673 -1.1610  0.1038
  109MOL0     C14646   7.844  10.296   2.489 -0.2717  0.3233 -0.2770
  109MOL0     C14647   7.726  10.316   2.422  0.9500 -0.5027 -0.1847
  109MOL0     H14648   7.373  10.547   2.180  1.3796 -0.5842 -0.0158
  109MOL0     H14649   7.153  10.604   2.113 -0.1828 -0.4130 -0.8153
  109MOL0     H14650   6.914  10.623   2.097  0.5826 -2.0475  1.1989
  109MOL0     H14651   6.997  10.566   1.956 -1.5163 -0.7207 -2.4333
  109MOL0     H14652   6.711  10.523   2.027  1.5854 -0.8319  2.1563
  109MOL0     H14653   6.773  10.638   1.906 -2.8517 -0.4972 -0.8868
  109MOL0     H14654   6.861  10.466   1.769  0.4446 -0.6719  0.2890
  109MOL0     H14655   6.763  10.341   1.843 -0.0872 -0.0061  0.4659
  109MOL0     H14656   6.569  10.464   1.842  1.7807  0.3080  1.7364
  109MOL0     H14657   6.617  10.575   1.710 -2.0737 -1.0482  0.0203
  109MOL0     H14658   6.592  10.278   1.683  3.0018 -0.4775 -1.2341
  109MOL0     H14659   6.500  10.407   1.609  1.3750  0.9351 -1.5434
  109MOL0     H14660   6.701  10.519   1.501  0.9667  0.3733 -4.3279
  109MOL0     H14661   6.794  10.370   1.547  0.2439  0.3175 -1.1245
  109MOL0     H14662   6.721  10.354   1.315 -1.7116 -1.9320 -0.9094
  109MOL0     H14663   6.619  10.252   1.421  0.9226 -0.4679  0.8963
  109MOL0     H14664   6.537  10.538   1.364 -0.0611 -0.4632  0.3678
  109MOL0     H14665   6.429  10.414   1.412 -1.6534  0.4088 -2.6495
  109MOL0     H14666   6.420  10.579   1.119  0.0452  0.2915  0.6521
  109MOL0     H14667   6.360  10.435   0.837 -0.2550 -1.3920 -0.6819
  109MOL0     H14668   6.248  10.316   0.868 -3.0805 -0.3016  1.4126
  109MOL0     H14669   6.226  10.611   0.956  2.2947 -0.2396 -2.3450
  109MOL0     H14670   6.097  10.495   0.975  0.9800 -1.1588  2.6628
  109MOL0     H14671   6.214  10.581   0.701  1.0284  0.7375  1.2075
  109MOL0     H14672   6.069  10.648   0.782 -0.2198  0.8128 -2.2036
  109MOL0     H14673   5.962  10.426   0.766  0.0155  1.1316  0.7715
  109MOL0     H14674   6.103  10.357   0.688 -3.8694 -2.3919  0.4746
  109MOL0     H14675   5.988  10.250   0.496 -0.6448 -1.1630 -0.2412
  109MOL0     H14676   5.730  10.017   0.507  2.3889  0.7632  2.3712
  109MOL0     H14677   5.721  10.054   0.341 -0.0667 -0.6458  0.0634
  109MOL0     H14678   5.879  10.041   0.422 -0.3824 -1.9004 -0.1514
  109MOL0     H14679   5.271  10.396   0.124 -4.6583 -0.1597 -2.8933
  109MOL0     H14680   5.038  10.337   0.081 -3.8257  0.7190  2.4734
  109MOL0     H14681   4.811  10.045   0.339 -0.3564  0.3591  0.2722
  109MOL0     H14682   4.794  10.201   0.415  0.4650 -1.5536  0.6234
  109MOL0     H14683   4.637  10.224   0.174  1.6114 -1.1620 -0.3223
  109MOL0     H14684   4.604  10.060   0.229 -0.7720 -0.1823 -1.4106
  109MOL0     H14685   4.569  10.323   0.386  2.6128 -0.0187  0.9095
  109MOL0     H14686   4.560  10.165   0.472 -0.7699  1.4281  1.9078
  109MOL0     H14687   4.387  10.262   0.242  0.5599 -1.4220 -1.7789
  109MOL0     H14688   4.391  10.096   0.314  0.4403  0.7240  1.6919
  109MOL0     H14689   4.322  10.353   0.446  2.6057  0.0322  1.5541
  109MOL0     H14690   4.354  10.203   0.534 -0.9423  1.1316  0.7684
  109MOL0     H14691   4.139  10.202   0.312 -0.9093 -1.1889 -0.0354
  109MOL0     H14692   4.177  10.083   0.430  1.5381 -0.0777 -1.0775
  109MOL0     H14693   4.057  10.345   0.523 -2.5929 -0.3763  1.9646
  109MOL0     H14694   4.100  10.201   0.611 -0.2713 -0.6976 -0.7513
  109MOL0     H14695   3.862  10.217   0.525  0.3624 -2.8018  2.4068
  109MOL0     H14696   3.930  10.070   0.476 -1.9370 -1.1005 -1.5584
  109MOL0     H14697   5.016  10.137   0.448 -1.8643  1.4862 -0.4403
  109MOL0     H14698   5.254  10.212   0.512  2.0931  1.1865 -0.4064
  109MOL0     H14699   5.566  10.494   0.477  0.5395  0.9533 -0.6353
  109MOL0     H14700   5.771  10.597   0.532 -3.3651  0.0991  0.3486
  109MOL0     H14701   7.024  10.212   2.215  1.6764 -1.8806  1.5166
  109MOL0     H14702   7.235  10.163   2.316  1.5347 -0.6531  0.3836
  109MOL0     H14703   7.520  10.392   2.676  0.3953 -0.2035 -1.8103
  109MOL0     H14704   7.725  10.319   2.796  0.4168 -1.0895  0.1026
  109MOL0     H14705   7.946  10.077   2.593  0.0680  2.2661 -0.6068
  109MOL0     H14706   8.082  10.089   2.705  0.5581 -1.2049 -3.3266
  109MOL0     H14707   7.800  10.034   2.781 -0.0735 -1.5023 -0.3594
  109MOL0     H14708   7.910  10.106   2.899  3.5205  2.0311 -1.1242
  109MOL0     H14709   7.912   9.872   2.932 -1.4645  0.2558 -0.3954
  109MOL0     H14710   8.068   9.911   2.865  1.5828 -4.5644 -2.3098
  109MOL0     H14711   7.961   9.850   2.638  0.1185 -0.3909  0.3347
  109MOL0     H14712   7.829   9.781   2.710 -0.2721  1.2964  0.3510
  109MOL0     H14713   8.172   9.516   2.693  1.3980 -0.0643  1.1527
  109MOL0     H14714   7.928  10.254   2.435 -0.4889  1.4075 -1.5178
  109MOL0     H14715   7.727  10.311   2.313 -0.9807 -0.6738 -0.2288
  110MOL0     O14716   8.874   9.265   7.562 -0.0967  0.1454 -0.2213
  110MOL0     C14717   8.947   9.320   7.644  0.1810  0.0206 -0.0194
  110MOL0     O14718   8.911   9.360   7.769  1.2253 -0.0618 -0.2990
  110MOL0     C14719   8.777   9.335   7.803  0.0803 -0.0736 -0.3934
  110MOL0     C14720   8.675   9.408   7.749  0.9203  0.5115 -0.0785
  110MOL0     C14721   8.540   9.386   7.778 -0.1510 -0.3493 -0.1569
  110MOL0     C14722   8.514   9.276   7.869  0.4311  0.0382 -0.5037
  110MOL0     O14723   8.387   9.244   7.904  0.2187  0.7151 -0.2812
  110MOL0     C14724   8.270   9.312   7.842 -0.2367 -0.1188  1.0429
  110MOL0     C14725   8.140   9.259   7.917  0.1226 -0.2343  0.3866
  110MOL0     C14726   8.023   9.349   7.877  0.1426  0.0921 -0.6349
  110MOL0     C14727   7.988   9.325   7.735 -1.4615  0.7825  0.0144
  110MOL0     C14728   7.852   9.367   7.691  0.9456 -0.1780 -0.2225
  110MOL0     C14729   7.842   9.516   7.700  0.0533 -0.0216  0.2328
  110MOL0     C14730   7.708   9.576   7.651 -0.4990  0.1750 -0.0560
  110MOL0     C14731   7.577   9.509   7.688  0.8358  0.2848 -0.0882
  110MOL0     N14732   7.518   9.550   7.815 -0.3091 -0.0946 -0.1196
  110MOL0     C14733   7.445   9.663   7.828  0.0504 -0.0948 -0.6518
  110MOL0     C14734   7.363   9.640   7.929  0.4743 -0.1661 -0.4271
  110MOL0     C14735   7.244   9.720   7.966  1.1612  0.1274 -0.3526
  110MOL0     C14736   7.116   9.658   7.900 -0.7896  0.1692 -0.4087
  110MOL0     C14737   6.992   9.748   7.934 -0.2351 -0.0289  0.3887
  110MOL0     C14738   6.979   9.852   7.824  0.4961 -0.0919  0.5467
  110MOL0     O14739   6.877   9.948   7.864 -0.1567  0.0994 -0.1602
  110MOL0     C14740   6.746   9.917   7.858 -0.4710 -0.0495 -0.3962
  110MOL0     C14741   6.689   9.802   7.784  0.5293 -0.2348  0.1040
  110MOL0     C14742   6.555   9.783   7.780 -0.2511  0.3853  0.6400
  110MOL0     C14743   6.505   9.652   7.722  0.5901  0.0251  0.4790
  110MOL0     C14744   6.467   9.880   7.835  0.5536 -0.3079 -0.3175
  110MOL0     C14745   6.322   9.860   7.818  0.1611  0.3387  0.3592
  110MOL0     O14746   6.249   9.906   7.926 -0.7487 -0.1537  0.0737
  110MOL0     C14747   6.115   9.904   7.924  0.4721  0.2381  0.9051
  110MOL0     C14748   6.044   9.971   7.827  0.8285 -0.8726 -0.2991
  110MOL0     C14749   5.911   9.946   7.823  0.6666  0.3477 -0.6497
  110MOL0     C14750   5.848   9.877   7.924  0.5817  1.0412 -0.0734
  110MOL0     O14751   5.707   9.858   7.920  0.0758  0.4495  0.3807
  110MOL0     C14752   5.630   9.771   8.008 -0.3345 -1.1642 -0.6128
  110MOL0     C14753   5.498   9.747   7.937  0.2594  0.0258  0.0765
  110MOL0     C14754   5.413   9.873   7.909  0.4433  0.9803 -0.5121
  110MOL0     C14755   5.283   9.825   7.835 -0.3262 -0.1471  0.0316
  110MOL0     C14756   5.180   9.938   7.808 -0.9105  0.9134  0.1498
  110MOL0     C14757   5.202  10.015   7.678 -0.8649 -0.9044 -0.4921
  110MOL0     C14758   5.314  10.116   7.700  0.2872 -0.5659  0.1202
  110MOL0     C14759   5.329  10.222   7.589  0.0524  0.1448  0.8664
  110MOL0    Cl14760   5.401  10.151   7.434 -0.4208  0.4352 -0.9425
  110MOL0     C14761   5.921   9.836   8.037  0.7637 -0.5740 -0.1239
  110MOL0     C14762   6.055   9.845   8.040 -0.0305 -1.1073 -0.8168
  110MOL0     O14763   6.275   9.813   7.707  0.5630 -0.3385  0.0314
  110MOL0     C14764   6.521   9.983   7.925 -0.0642 -0.7415  0.4007
  110MOL0     C14765   6.660   9.995   7.930 -0.1034 -0.1710 -0.7009
  110MOL0     N14766   7.408   9.527   7.996  0.1372  0.5793 -0.5856
  110MOL0     N14767   7.495   9.470   7.923  0.0305  0.4022  0.4704
  110MOL0     C14768   8.617   9.200   7.917 -0.3516  0.1461 -0.0814
  110MOL0     C14769   8.750   9.227   7.886 -0.6169  0.4080 -0.2212
  110MOL0     C14770   9.085   9.366   7.604  0.1740 -0.2744 -0.2549
  110MOL0     C14771   9.137   9.358   7.472  0.4183  0.3066 -0.0808
  110MOL0     C14772   9.271   9.399   7.432  0.2636  0.1464 -0.1808
  110MOL0     C14773   9.349   9.452   7.537  0.1126 -0.0096 -0.0010
  110MOL0     O14774   9.486   9.490   7.529 -0.3744  0.0092  0.0217
  110MOL0     C14775   9.555   9.449   7.410  0.5715 -1.0514 -0.0753
  110MOL0     C14776   9.709   9.447   7.438 -0.0522 -0.1025 -0.6216
  110MOL0     C14777   9.786   9.438   7.309 -0.1799  0.2338 -1.3932
  110MOL0     C14778   9.771   9.573   7.224  0.8905  0.0035 -0.3327
  110MOL0     C14779   9.857   9.578   7.102  0.5860  0.0405 -0.0013
  110MOL0     C14780   9.923   9.576   7.006  0.5030 -0.1391  0.1609
  110MOL0     C14781   9.284   9.469   7.668 -0.5027  0.3451  0.7458
  110MOL0     C14782   9.163   9.419   7.701 -0.0562  1.0497  0.0106
  110MOL0     H14783   8.692   9.496   7.687 -0.2131  0.1559 -0.9386
  110MOL0     H14784   8.459   9.435   7.727 -0.3679  0.1959  0.6922
  110MOL0     H14785   8.284   9.420   7.847  1.2521 -0.0211 -2.4180
  110MOL0     H14786   8.261   9.269   7.742  1.8219 -0.9190  1.1549
  110MOL0     H14787   8.129   9.152   7.900 -1.2109  0.1944 -1.8543
  110MOL0     H14788   8.150   9.276   8.025 -1.1301  2.5406  0.1529
  110MOL0     H14789   7.937   9.322   7.939  1.6750 -3.6313  0.1359
  110MOL0     H14790   8.049   9.455   7.883 -0.0014  0.1522 -1.0265
  110MOL0     H14791   8.064   9.377   7.676 -1.4953 -0.7538 -1.4695
  110MOL0     H14792   7.996   9.217   7.720 -0.8195  0.3156  3.1787
  110MOL0     H14793   7.832   9.342   7.587 -1.7280  3.6909 -0.8095
  110MOL0     H14794   7.782   9.320   7.762  0.1954  1.5762  0.2404
  110MOL0     H14795   7.866   9.558   7.798 -0.5440  1.7668 -0.3484
  110MOL0     H14796   7.922   9.557   7.638 -0.1889  0.3534  0.1709
  110MOL0     H14797   7.715   9.676   7.695  1.8994  0.0741 -0.0795
  110MOL0     H14798   7.710   9.585   7.542  2.6626  1.2391 -0.0228
  110MOL0     H14799   7.589   9.400   7.697 -0.8372  0.1738  1.2295
  110MOL0     H14800   7.500   9.518   7.611  0.4210 -2.6296 -0.1288
  110MOL0     H14801   7.433   9.747   7.760  1.1381 -1.4409 -2.6060
  110MOL0     H14802   7.215   9.722   8.071 -1.3382 -0.1861 -0.9902
  110MOL0     H14803   7.249   9.825   7.933  1.6072  0.6539  1.3135
  110MOL0     H14804   7.095   9.559   7.942 -0.9290  0.6599  0.7281
  110MOL0     H14805   7.133   9.644   7.793  0.7784  0.9005 -0.2992
  110MOL0     H14806   6.992   9.801   8.030 -0.2358 -1.9133  1.4838
  110MOL0     H14807   6.901   9.687   7.931 -0.9874  1.0068 -4.0499
  110MOL0     H14808   6.957   9.798   7.732  0.6160 -1.4653  1.2993
  110MOL0     H14809   7.071   9.911   7.813  1.4403 -1.4970  0.5877
  110MOL0     H14810   6.741   9.723   7.731  2.0368  1.1430 -0.5340
  110MOL0     H14811   6.474   9.674   7.620  2.1964  2.6501  0.4480
  110MOL0     H14812   6.580   9.573   7.711  0.4630 -0.3222  1.8697
  110MOL0     H14813   6.429   9.610   7.790  0.3979 -2.1431 -0.9803
  110MOL0     H14814   6.093  10.031   7.751 -0.4982 -0.4528 -0.8636
  110MOL0     H14815   5.847   9.997   7.751  0.4421  0.4895 -0.3527
  110MOL0     H14816   5.695   9.687   8.034  0.0459 -0.2240  1.7193
  110MOL0     H14817   5.612   9.827   8.100 -0.3009 -2.1233 -0.0108
  110MOL0     H14818   5.505   9.687   7.846  1.8301 -0.3413  0.4050
  110MOL0     H14819   5.442   9.681   8.003 -2.3209  1.7011 -0.2870
  110MOL0     H14820   5.472   9.944   7.851  1.0550  1.9367  1.2155
  110MOL0     H14821   5.395   9.916   8.008  1.0288 -0.3580  0.2067
  110MOL0     H14822   5.316   9.780   7.740 -0.6820 -0.9313  0.2672
  110MOL0     H14823   5.234   9.750   7.897 -1.6923  0.7869  0.1242
  110MOL0     H14824   5.169   9.989   7.904 -0.4428 -0.9383  1.2440
  110MOL0     H14825   5.085   9.889   7.786 -0.3310 -0.2621  0.2099
  110MOL0     H14826   5.223   9.946   7.596  1.3185 -1.2953  0.3293
  110MOL0     H14827   5.106  10.062   7.656 -0.0411  1.2736  0.3003
  110MOL0     H14828   5.413  10.068   7.698  1.6846  2.1108  0.0978
  110MOL0     H14829   5.301  10.157   7.801 -0.9284 -0.5256 -0.0380
  110MOL0     H14830   5.401  10.296   7.624 -0.9960  0.5876  2.1833
  110MOL0     H14831   5.234  10.270   7.562 -0.9379  1.0669  5.3328
  110MOL0     H14832   5.877   9.774   8.115  1.2724  0.8136  1.3207
  110MOL0     H14833   6.114   9.792   8.115 -3.9170 -1.1031  2.5702
  110MOL0     H14834   6.449  10.048   7.975 -2.3038  0.1059 -3.4876
  110MOL0     H14835   6.697  10.074   7.993 -0.9936  0.7382 -1.2890
  110MOL0     H14836   8.602   9.118   7.987 -0.4715 -2.3229 -2.8354
  110MOL0     H14837   8.832   9.162   7.915 -0.7516  0.1560 -0.3996
  110MOL0     H14838   9.074   9.314   7.395 -0.5123  1.5558 -0.0524
  110MOL0     H14839   9.317   9.379   7.336 -2.9065 -1.3657 -1.5386
  110MOL0     H14840   9.518   9.350   7.382 -1.1292 -0.5512  0.2638
  110MOL0     H14841   9.528   9.505   7.321  0.2996 -0.1208  0.5786
  110MOL0     H14842   9.736   9.357   7.493  5.4715  0.9923 -0.9714
  110MOL0     H14843   9.733   9.533   7.500  2.4667  0.4853 -2.2669
  110MOL0     H14844   9.745   9.350   7.259 -2.7917  0.3878  0.3204
  110MOL0     H14845   9.892   9.420   7.329 -0.4313  0.2116 -0.0092
  110MOL0     H14846   9.812   9.650   7.291  0.5692 -1.8661  2.1471
  110MOL0     H14847   9.666   9.601   7.209  0.8287  0.0676  0.1761
  110MOL0     H14848   9.992   9.584   6.924  1.4548 -1.6413  0.7763
  110MOL0     H14849   9.351   9.512   7.742 -1.5640  0.9911  1.3505
  110MOL0     H14850   9.120   9.428   7.800  0.4503  1.9128  0.1642
  111MOL0     O14851   1.093   4.915  11.314  0.0065 -0.3333 -0.0344
  111MOL0     C14852   1.087   4.823  11.237  0.0028 -0.5148  0.1823
  111MOL0     O14853   0.988   4.735  11.225  0.1878  0.3512 -0.7175
  111MOL0     C14854   0.878   4.741  11.310 -0.2064 -0.2946  0.2758
  111MOL0     C14855   0.874   4.677  11.436 -0.5954 -0.9007  0.3702
  111MOL0     C14856   0.766   4.701  11.527  0.1603  0.3511  1.0564
  111MOL0     C14857   0.654   4.769  11.482  0.1009 -0.8647  0.4518
  111MOL0     O14858   0.548   4.776  11.570 -0.1080  0.3657  0.4416
  111MOL0     C14859   0.422   4.834  11.530 -0.1627 -1.2684  0.8001
  111MOL0     C14860   0.310   4.836  11.632 -0.2547  0.2547 -1.2457
  111MOL0     C14861   0.185   4.747  11.592 -0.7056  0.9521  0.2057
  111MOL0     C14862   0.083   4.724  11.712 -0.4637 -0.6080 -0.1702
  111MOL0     C14863  -0.057   4.665  11.666  0.6316  0.0534 -0.4060
  111MOL0     C14864  -0.148   4.630  11.779 -0.5449  0.2692  0.6689
  111MOL0     C14865  -0.264   4.533  11.725  0.4417  0.1619 -0.7947
  111MOL0     C14866  -0.397   4.600  11.682 -0.0284  0.2900 -0.1866
  111MOL0     N14867  -0.459   4.691  11.779 -0.5488 -0.3074 -0.4580
  111MOL0     C14868  -0.539   4.651  11.879  0.2434 -0.4736 -0.5752
  111MOL0     C14869  -0.566   4.766  11.940  0.4599  0.1011 -1.0069
  111MOL0     C14870  -0.658   4.766  12.062 -0.2338 -0.7232  0.2778
  111MOL0     C14871  -0.802   4.742  12.031 -0.6405  0.7368  0.4826
  111MOL0     C14872  -0.876   4.732  12.162 -0.2886 -0.0683  0.5497
  111MOL0     C14873  -0.892   4.866  12.232  0.2368 -0.3631 -0.5793
  111MOL0     O14874  -1.014   4.877  12.301 -0.1494 -1.3261 -0.4192
  111MOL0     C14875  -1.050   4.789  12.398  0.1000  0.5257  0.1787
  111MOL0     C14876  -1.187   4.800  12.425  0.2139  0.2389 -0.4150
  111MOL0     C14877  -1.236   4.736  12.542 -0.1368 -0.4498 -0.3806
  111MOL0     C14878  -1.383   4.766  12.569  0.5112  0.4844 -0.4914
  111MOL0     C14879  -1.147   4.659  12.621  0.3829 -0.7951  0.0795
  111MOL0     C14880  -1.198   4.588  12.737  0.4584  0.6588 -0.3188
  111MOL0     O14881  -1.102   4.509  12.806  0.3653  0.3997 -0.3539
  111MOL0     C14882  -1.148   4.439  12.907 -0.5612  1.1881 -0.2236
  111MOL0     C14883  -1.131   4.473  13.042 -0.1961 -0.2325  0.5632
  111MOL0     C14884  -1.156   4.381  13.143  0.6622  0.0474 -0.3464
  111MOL0     C14885  -1.211   4.251  13.112  0.2418  0.4256 -0.2722
  111MOL0     O14886  -1.229   4.147  13.210 -0.6905 -0.1201  0.6483
  111MOL0     C14887  -1.244   4.184  13.348  0.6734 -0.6174 -0.1495
  111MOL0     C14888  -1.382   4.251  13.376  0.2141  0.2403  0.4321
  111MOL0     C14889  -1.489   4.147  13.394  0.1781  0.0922  0.1872
  111MOL0     C14890  -1.621   4.214  13.438  0.2705 -0.6299  0.0404
  111MOL0     C14891  -1.742   4.126  13.441 -0.0663 -0.0974 -0.1522
  111MOL0     C14892  -1.868   4.193  13.479 -0.8067  0.2066  1.1116
  111MOL0     C14893  -1.984   4.088  13.455 -0.1002  0.1713 -0.1299
  111MOL0     C14894  -2.105   4.139  13.530 -0.1216 -0.0621 -1.1053
  111MOL0    Cl14895  -2.243   4.037  13.492 -0.7056 -0.3186  0.3853
  111MOL0     C14896  -1.246   4.228  12.978 -0.5374  0.5135  0.6009
  111MOL0     C14897  -1.217   4.322  12.877 -0.4158  0.0676 -0.5324
  111MOL0     O14898  -1.319   4.593  12.768  0.4660  0.5291 -0.1034
  111MOL0     C14899  -1.016   4.639  12.576  0.4320 -0.2054 -0.1414
  111MOL0     C14900  -0.965   4.707  12.467  0.1653 -0.8445  0.9670
  111MOL0     N14901  -0.522   4.873  11.862 -0.1050 -0.7601 -0.8715
  111MOL0     N14902  -0.456   4.826  11.759  0.7838  0.3417 -0.5015
  111MOL0     C14903   0.647   4.811  11.352 -0.6985  0.5764 -0.0123
  111MOL0     C14904   0.759   4.801  11.266 -0.3789 -0.0282 -0.1309
  111MOL0     C14905   1.209   4.796  11.163 -0.3437 -0.1284 -0.1309
  111MOL0     C14906   1.232   4.673  11.109  0.4459 -0.4996  0.4522
  111MOL0     C14907   1.346   4.646  11.032  0.2336 -0.1526  0.6768
  111MOL0     C14908   1.452   4.740  11.036 -0.2335 -0.5405  0.5214
  111MOL0     O14909   1.568   4.701  10.970  0.1524  0.5235  0.3152
  111MOL0     C14910   1.676   4.794  10.960  0.2270 -0.0781 -0.6158
  111MOL0     C14911   1.766   4.733  10.850  0.1701 -0.2599  0.2889
  111MOL0     C14912   1.831   4.600  10.897  0.8074 -0.0721 -0.3806
  111MOL0     C14913   1.946   4.606  10.996 -0.2200 -0.1633 -1.0316
  111MOL0     C14914   2.041   4.492  10.978  1.0429  1.4365 -0.2464
  111MOL0     C14915   2.102   4.390  10.964  0.2929 -1.2100 -0.0763
  111MOL0     C14916   1.433   4.859  11.106  0.9552 -0.4098  0.6749
  111MOL0     C14917   1.314   4.891  11.162 -0.9205  0.1499 -0.4853
  111MOL0     H14918   0.958   4.619  11.473 -2.6378 -4.8504 -0.6439
  111MOL0     H14919   0.777   4.680  11.633 -2.0913  0.2527  1.3216
  111MOL0     H14920   0.446   4.940  11.517 -2.4701 -0.1533  4.3137
  111MOL0     H14921   0.386   4.786  11.439 -0.9874  1.2384 -0.2769
  111MOL0     H14922   0.342   4.795  11.728 -3.6844  1.8036  0.7684
  111MOL0     H14923   0.280   4.939  11.652 -0.4346 -0.2289  1.2188
  111MOL0     H14924   0.153   4.789  11.497  1.5832 -1.7985 -1.9422
  111MOL0     H14925   0.222   4.646  11.575  0.4787  1.7857 -2.9371
  111MOL0     H14926   0.134   4.652  11.778  1.5144  0.5872 -0.3180
  111MOL0     H14927   0.064   4.821  11.758 -1.1718 -0.3346 -1.0083
  111MOL0     H14928  -0.111   4.732  11.599  0.6534 -0.0057 -0.4815
  111MOL0     H14929  -0.045   4.572  11.611 -2.0288  0.2728 -1.5031
  111MOL0     H14930  -0.083   4.585  11.855 -0.0413 -0.9404 -0.4480
  111MOL0     H14931  -0.191   4.721  11.822 -0.1642  0.7739  0.0158
  111MOL0     H14932  -0.231   4.471  11.641  0.1036 -1.1683  0.0328
  111MOL0     H14933  -0.293   4.469  11.808 -1.2585  0.5676 -1.0409
  111MOL0     H14934  -0.469   4.522  11.654 -1.2593  1.3915 -0.2334
  111MOL0     H14935  -0.373   4.660  11.593 -1.6413 -1.5238 -1.9583
  111MOL0     H14936  -0.561   4.550  11.912  0.0654  0.2524  1.6264
  111MOL0     H14937  -0.618   4.691  12.130 -2.8699 -2.4284  0.1143
  111MOL0     H14938  -0.644   4.862  12.113  2.2330 -0.8177 -0.1040
  111MOL0     H14939  -0.811   4.655  11.965 -2.1624  1.8600 -0.8694
  111MOL0     H14940  -0.848   4.823  11.974 -1.1704 -1.0045 -1.7125
  111MOL0     H14941  -0.827   4.659  12.226  1.1867  1.8306  1.6959
  111MOL0     H14942  -0.978   4.694  12.148 -0.7215  0.6887  1.5223
  111MOL0     H14943  -0.893   4.948  12.160  2.4972  1.0586  0.9192
  111MOL0     H14944  -0.815   4.901  12.301 -0.4744 -0.9241  0.5480
  111MOL0     H14945  -1.246   4.860  12.356 -0.5047 -0.3172 -0.2988
  111MOL0     H14946  -1.443   4.674  12.569 -0.6626  1.2232 -1.4141
  111MOL0     H14947  -1.395   4.808  12.669  1.0246  0.8639 -0.5855
  111MOL0     H14948  -1.440   4.830  12.501  1.2569  0.4442 -1.1647
  111MOL0     H14949  -1.082   4.565  13.073  1.9862 -1.3906  0.6933
  111MOL0     H14950  -1.145   4.417  13.245 -3.0511  1.5196 -0.3239
  111MOL0     H14951  -1.244   4.094  13.410  0.6967  1.1372  2.5432
  111MOL0     H14952  -1.159   4.248  13.373 -0.7384  1.3828 -0.2667
  111MOL0     H14953  -1.394   4.309  13.468 -0.7006  1.1983 -0.2630
  111MOL0     H14954  -1.411   4.321  13.296 -0.9132 -0.0040  0.6043
  111MOL0     H14955  -1.458   4.073  13.468  0.7689  0.9468  0.8160
  111MOL0     H14956  -1.499   4.091  13.301  0.2940 -0.7369  0.6668
  111MOL0     H14957  -1.607   4.254  13.539 -0.8372  0.9796 -0.4002
  111MOL0     H14958  -1.630   4.302  13.374  1.0832 -0.0102  0.7422
  111MOL0     H14959  -1.724   4.044  13.511  1.7702 -0.6725 -1.2256
  111MOL0     H14960  -1.761   4.090  13.339 -3.4674  1.7647 -0.3302
  111MOL0     H14961  -1.871   4.222  13.584 -2.9846  1.1869  0.8482
  111MOL0     H14962  -1.879   4.283  13.418  3.4284  0.1215 -0.0991
  111MOL0     H14963  -1.966   3.991  13.502 -0.7578 -0.2626 -0.7400
  111MOL0     H14964  -2.015   4.061  13.353 -1.2922 -2.4345  0.8465
  111MOL0     H14965  -2.122   4.239  13.489 -3.1648  1.7240  3.6280
  111MOL0     H14966  -2.079   4.154  13.635 -1.3345  2.8036 -1.1248
  111MOL0     H14967  -1.298   4.137  12.950  1.3354 -0.4258  0.0059
  111MOL0     H14968  -1.244   4.304  12.773  0.8408 -1.1136 -0.6812
  111MOL0     H14969  -0.961   4.557  12.621 -2.0653 -2.2927 -0.6680
  111MOL0     H14970  -0.870   4.674  12.426 -1.3879 -1.8307 -2.1146
  111MOL0     H14971   0.555   4.857  11.317  0.6225  1.6060 -2.4040
  111MOL0     H14972   0.768   4.850  11.170  3.5336 -1.7990 -0.8343
  111MOL0     H14973   1.154   4.598  11.115  0.5569 -0.7443 -0.7421
  111MOL0     H14974   1.367   4.556  10.976  0.6116 -1.5481  2.9081
  111MOL0     H14975   1.645   4.892  10.922  1.4661  0.5826 -0.0156
  111MOL0     H14976   1.719   4.802  11.060 -2.0648 -1.2538  0.5460
  111MOL0     H14977   1.845   4.804  10.825  0.4375 -1.3827 -2.3821
  111MOL0     H14978   1.712   4.712  10.757  2.2698 -0.1982 -0.9985
  111MOL0     H14979   1.859   4.535  10.813  2.2039  1.0131 -0.7848
  111MOL0     H14980   1.752   4.539  10.944 -0.6120  2.9584  1.4775
  111MOL0     H14981   1.918   4.622  11.101  1.5653  0.4380 -0.6233
  111MOL0     H14982   2.007   4.695  10.978  0.0173  0.3752  1.9226
  111MOL0     H14983   2.171   4.308  10.966  1.6596 -0.1248  2.9483
  111MOL0     H14984   1.509   4.933  11.125 -0.1999  0.2606  3.1520
  111MOL0     H14985   1.311   4.984  11.218  2.3527  1.8258 -2.8229
  112MOL0     O14986   5.072   3.251   4.940  0.0656 -0.6370 -0.0696
  112MOL0     C14987   5.098   3.356   4.889 -0.0053  0.1771  0.3703
  112MOL0     O14988   5.006   3.450   4.845  0.6257 -0.7557  0.1440
  112MOL0     C14989   4.870   3.416   4.856 -0.3774  0.4248 -0.4629
  112MOL0     C14990   4.803   3.365   4.738  0.0232 -0.9537 -0.6019
  112MOL0     C14991   4.677   3.307   4.751 -0.0221  0.4599  0.1981
  112MOL0     C14992   4.613   3.282   4.877  0.3283 -0.5906 -0.6014
  112MOL0     O14993   4.490   3.223   4.890 -0.8107  1.0128  0.0323
  112MOL0     C14994   4.455   3.172   5.018  0.1355 -0.1525 -0.2215
  112MOL0     C14995   4.315   3.120   5.001  0.3685 -0.4510  0.0034
  112MOL0     C14996   4.260   3.057   5.132 -0.7157  0.1379 -0.0172
  112MOL0     C14997   4.157   3.154   5.189 -1.1498 -0.7392 -0.1308
  112MOL0     C14998   4.076   3.102   5.303 -0.5244  0.0287  0.3549
  112MOL0     C14999   3.958   3.195   5.341  0.4274 -0.5269  1.1487
  112MOL0     C15000   3.896   3.141   5.471 -0.4993 -0.8466 -0.3177
  112MOL0     C15001   3.787   3.236   5.531  0.6639 -1.0456 -0.6728
  112MOL0     N15002   3.666   3.231   5.449  0.8806 -0.3729  0.1307
  112MOL0     C15003   3.574   3.124   5.439 -0.7045 -0.2919  0.2191
  112MOL0     C15004   3.456   3.187   5.405  0.2931  0.1814  0.6420
  112MOL0     C15005   3.330   3.105   5.384 -0.3092 -0.2157  0.4393
  112MOL0     C15006   3.279   3.041   5.513  0.0619 -0.9341  0.1160
  112MOL0     C15007   3.132   2.978   5.502 -0.5241 -0.3232 -0.1350
  112MOL0     C15008   3.013   3.049   5.431 -0.3823 -0.1765 -0.2028
  112MOL0     O15009   2.893   2.978   5.463  0.4049  0.5668 -0.3098
  112MOL0     C15010   2.813   2.938   5.359  0.6224  0.3767  0.3659
  112MOL0     C15011   2.767   3.022   5.262  0.7599 -0.6347 -0.0591
  112MOL0     C15012   2.668   2.979   5.166  0.4437  0.4732  0.2697
  112MOL0     C15013   2.603   3.083   5.077  0.2643  0.0082  0.5228
  112MOL0     C15014   2.621   2.849   5.169  0.5752 -0.6058 -0.4937
  112MOL0     C15015   2.518   2.786   5.080  0.7635 -0.0361 -0.3189
  112MOL0     O15016   2.492   2.659   5.098  0.0662  0.7429  0.1269
  112MOL0     C15017   2.394   2.594   5.021 -0.2018  0.3153  0.0728
  112MOL0     C15018   2.418   2.524   4.901  0.1611  0.3972  0.3255
  112MOL0     C15019   2.313   2.479   4.823  0.7344  0.5560  0.4405
  112MOL0     C15020   2.174   2.496   4.864 -0.1636  0.0391 -0.0354
  112MOL0     O15021   2.066   2.452   4.786 -0.2899  0.5031  0.1194
  112MOL0     C15022   2.073   2.494   4.647 -0.5748  0.3392 -0.6077
  112MOL0     C15023   1.952   2.448   4.562  0.1044  0.2905  0.8179
  112MOL0     C15024   1.827   2.535   4.582  0.3283 -1.4602 -0.4027
  112MOL0     C15025   1.837   2.657   4.489  0.8208  0.0469  0.1853
  112MOL0     C15026   1.716   2.750   4.502  0.2954 -0.6988 -0.7921
  112MOL0     C15027   1.728   2.889   4.429 -0.1170  0.0283  0.5463
  112MOL0     C15028   1.614   2.980   4.468 -0.3634  0.3932 -0.2033
  112MOL0     C15029   1.628   3.122   4.409  0.2084  0.0172  0.0448
  112MOL0    Cl15030   1.632   3.128   4.227  0.0295  0.2017  0.0309
  112MOL0     C15031   2.148   2.554   4.989  0.3692 -0.3106 -0.1577
  112MOL0     C15032   2.261   2.604   5.059  0.4520  0.3811 -1.2994
  112MOL0     O15033   2.456   2.860   5.000 -0.3346  0.4302  0.6520
  112MOL0     C15034   2.669   2.762   5.274 -0.8100 -0.4188  1.3400
  112MOL0     C15035   2.766   2.810   5.365  0.5874 -0.5101  0.1403
  112MOL0     N15036   3.479   3.324   5.402 -0.6118 -0.3392 -0.7849
  112MOL0     N15037   3.597   3.351   5.438  0.3691 -0.9029  0.1572
  112MOL0     C15038   4.687   3.335   4.989  0.5271 -0.0028  0.1267
  112MOL0     C15039   4.812   3.396   4.979 -0.2816 -0.5314  0.8135
  112MOL0     C15040   5.242   3.390   4.861 -0.4581  0.8440  0.7889
  112MOL0     C15041   5.351   3.301   4.885  0.0040  0.1560  0.4128
  112MOL0     C15042   5.478   3.334   4.854  0.0827  0.1880  0.3835
  112MOL0     C15043   5.511   3.444   4.778 -0.3697  0.1557  0.0779
  112MOL0     O15044   5.637   3.477   4.748 -0.2169 -0.4113  0.6995
  112MOL0     C15045   5.721   3.511   4.859  0.5964  0.2947  0.1103
  112MOL0     C15046   5.855   3.566   4.807  0.4894 -0.0860  0.3225
  112MOL0     C15047   5.941   3.457   4.734 -0.9024  0.1482 -0.9428
  112MOL0     C15048   6.011   3.363   4.842  0.2899  0.2425 -0.1554
  112MOL0     C15049   6.110   3.430   4.918  0.1830 -0.4039  0.9031
  112MOL0     C15050   6.187   3.476   5.001 -0.1204  0.4476  0.1330
  112MOL0     C15051   5.407   3.540   4.761 -0.1073  0.0175  0.3086
  112MOL0     C15052   5.275   3.519   4.798  0.0885  0.0235  0.6088
  112MOL0     H15053   4.855   3.369   4.643 -2.4927  0.3411 -2.0383
  112MOL0     H15054   4.623   3.273   4.663  2.1774  1.0751 -1.4865
  112MOL0     H15055   4.536   3.107   5.053  1.4651  0.5332 -1.8740
  112MOL0     H15056   4.443   3.263   5.079  1.5062 -1.7261  2.6358
  112MOL0     H15057   4.251   3.198   4.958 -0.1424 -0.0484  1.4426
  112MOL0     H15058   4.323   3.038   4.929  0.0718 -0.7431  0.2990
  112MOL0     H15059   4.208   2.961   5.126 -3.1993  1.2497  1.9980
  112MOL0     H15060   4.337   3.035   5.206 -0.8610 -1.8434 -0.3939
  112MOL0     H15061   4.208   3.244   5.225 -0.5184 -1.5096  0.9211
  112MOL0     H15062   4.080   3.188   5.118  0.4312  1.7275 -0.8149
  112MOL0     H15063   4.036   3.005   5.272 -1.0025  0.6873 -1.2043
  112MOL0     H15064   4.143   3.100   5.389 -0.1097  0.0207  0.0376
  112MOL0     H15065   4.010   3.291   5.355  0.7553 -0.7360  1.3576
  112MOL0     H15066   3.880   3.204   5.264  2.3738 -0.4938 -0.9291
  112MOL0     H15067   3.858   3.040   5.449 -2.1823 -0.2733 -0.2209
  112MOL0     H15068   3.968   3.132   5.553  0.0494 -0.6272 -0.7674
  112MOL0     H15069   3.829   3.337   5.528  2.0001 -1.5987 -1.7701
  112MOL0     H15070   3.767   3.198   5.632  2.4231 -1.5024 -0.4536
  112MOL0     H15071   3.591   3.018   5.456  0.5441 -0.0755  0.4433
  112MOL0     H15072   3.252   3.166   5.337 -0.1248  0.4636  0.9961
  112MOL0     H15073   3.354   3.033   5.306  1.5323  2.3011 -1.4820
  112MOL0     H15074   3.280   3.122   5.586 -1.1654  0.7932 -1.6909
  112MOL0     H15075   3.357   2.973   5.550  0.5760 -1.1554 -1.3245
  112MOL0     H15076   3.100   2.960   5.605 -0.2475 -0.0516 -0.0016
  112MOL0     H15077   3.141   2.882   5.450 -0.2344  0.0291 -0.7401
  112MOL0     H15078   3.035   3.057   5.324  1.9612 -0.3230  0.2318
  112MOL0     H15079   2.997   3.155   5.454 -0.1479  0.1519 -1.4604
  112MOL0     H15080   2.796   3.126   5.267  0.5535 -0.5674 -0.2698
  112MOL0     H15081   2.662   3.175   5.072  1.6358 -0.8797  0.0545
  112MOL0     H15082   2.584   3.053   4.974 -1.8285 -2.7798  1.5766
  112MOL0     H15083   2.510   3.118   5.124 -0.0638  2.1613 -1.5597
  112MOL0     H15084   2.519   2.515   4.863 -0.0809 -1.2771  0.0320
  112MOL0     H15085   2.333   2.439   4.724 -5.0217 -2.3646  0.0776
  112MOL0     H15086   2.089   2.603   4.651 -1.2920  0.5514  5.7880
  112MOL0     H15087   2.150   2.431   4.602 -0.5606 -0.0620 -0.0268
  112MOL0     H15088   1.972   2.445   4.455 -2.9857  2.1056  0.0761
  112MOL0     H15089   1.920   2.348   4.591 -1.1137  0.0709 -1.1512
  112MOL0     H15090   1.815   2.564   4.687  2.5309 -1.2253 -0.1728
  112MOL0     H15091   1.746   2.472   4.543 -0.8348  0.7377 -1.7260
  112MOL0     H15092   1.929   2.712   4.511  1.1451 -1.0659  1.8029
  112MOL0     H15093   1.848   2.624   4.385  2.4951 -0.3731  0.4634
  112MOL0     H15094   1.698   2.774   4.607  0.4261  1.7952 -1.2994
  112MOL0     H15095   1.638   2.682   4.466  1.3633 -3.0146  0.9690
  112MOL0     H15096   1.814   2.948   4.461  0.7083 -1.7084  1.6790
  112MOL0     H15097   1.729   2.873   4.321 -0.6533  0.1174  0.5271
  112MOL0     H15098   1.619   2.994   4.576 -0.8216 -0.5015 -0.0560
  112MOL0     H15099   1.516   2.935   4.450  0.1961 -0.6016 -0.8555
  112MOL0     H15100   1.718   3.170   4.450 -2.2583  0.8876  5.2767
  112MOL0     H15101   1.547   3.180   4.455 -0.3499 -0.7241  0.0144
  112MOL0     H15102   2.046   2.548   5.025  0.4384 -0.8495 -0.0372
  112MOL0     H15103   2.245   2.646   5.158  1.4418 -1.6210 -0.2346
  112MOL0     H15104   2.648   2.656   5.267  5.8545 -2.0472 -0.6336
  112MOL0     H15105   2.805   2.743   5.441 -1.6094  0.8687  2.6608
  112MOL0     H15106   4.632   3.346   5.083 -0.3115  1.7676 -0.5250
  112MOL0     H15107   4.861   3.449   5.060 -0.4134 -0.2147  0.6840
  112MOL0     H15108   5.337   3.202   4.926  1.6440 -0.4356 -0.3897
  112MOL0     H15109   5.555   3.261   4.874  1.4070  0.9099 -1.7055
  112MOL0     H15110   5.677   3.590   4.922 -0.9956  1.9402 -2.8310
  112MOL0     H15111   5.753   3.429   4.923  3.1676  1.2824  0.2157
  112MOL0     H15112   5.909   3.626   4.880 -1.1637  1.1921  0.5754
  112MOL0     H15113   5.830   3.641   4.731 -0.9581 -0.0848  0.7586
  112MOL0     H15114   6.025   3.502   4.681 -0.3679 -0.0912 -0.3137
  112MOL0     H15115   5.880   3.418   4.653 -2.8168 -1.3791  1.1018
  112MOL0     H15116   6.065   3.284   4.790  2.1247  0.2341  1.6120
  112MOL0     H15117   5.931   3.321   4.905  0.5342  2.3392  1.6878
  112MOL0     H15118   6.247   3.515   5.081  1.8722  0.1902 -1.1484
  112MOL0     H15119   5.431   3.635   4.715  0.4402  0.1380  0.8368
  112MOL0     H15120   5.200   3.595   4.777 -0.9219 -0.6752  1.5660
  113MOL0     O15121   0.638   1.839   4.286  0.0084  0.7400 -0.1290
  113MOL0     C15122   0.559   1.828   4.188 -0.7169  0.1843  0.2062
  113MOL0     O15123   0.430   1.789   4.195  0.6602 -0.4697  0.2511
  113MOL0     C15124   0.368   1.770   4.319  0.3360  0.3906 -0.4369
  113MOL0     C15125   0.385   1.837   4.439  0.4415  0.4323 -0.5059
  113MOL0     C15126   0.315   1.800   4.559  0.4529 -0.2437 -0.3303
  113MOL0     C15127   0.224   1.695   4.558 -0.1525 -0.2952  0.4873
  113MOL0     O15128   0.149   1.662   4.666  0.4642 -0.0792 -0.2253
  113MOL0     C15129   0.222   1.643   4.782 -0.1094  0.3623 -0.1089
  113MOL0     C15130   0.133   1.553   4.877  0.4713  0.3445  0.1111
  113MOL0     C15131   0.228   1.497   4.988  0.5787 -0.3718  0.4037
  113MOL0     C15132   0.156   1.478   5.116  0.1021  0.4863 -0.0714
  113MOL0     C15133   0.255   1.425   5.220 -0.2823 -0.6733 -0.6424
  113MOL0     C15134   0.185   1.393   5.348 -0.9306  0.7674 -0.6516
  113MOL0     C15135   0.128   1.508   5.432  0.7744 -0.0143  0.2170
  113MOL0     C15136   0.223   1.615   5.489 -0.9250 -0.1449 -0.0362
  113MOL0     N15137   0.140   1.712   5.553 -0.5165  1.0258 -0.7121
  113MOL0     C15138   0.064   1.821   5.503 -0.4166 -0.4460  0.4327
  113MOL0     C15139  -0.005   1.857   5.611 -0.2661  0.0900  0.1886
  113MOL0     C15140  -0.090   1.979   5.640 -0.4839  0.1978 -0.1394
  113MOL0     C15141  -0.206   1.945   5.731  1.0560 -0.0124 -0.8760
  113MOL0     C15142  -0.280   2.074   5.776 -0.0995  0.5534 -0.6883
  113MOL0     C15143  -0.405   2.041   5.857 -0.7517  1.4207  0.4182
  113MOL0     O15144  -0.475   1.929   5.808  0.2716 -0.7290  0.7062
  113MOL0     C15145  -0.612   1.927   5.825  0.0386  0.7611  0.0362
  113MOL0     C15146  -0.672   1.814   5.773  0.0299  0.0157  0.5420
  113MOL0     C15147  -0.807   1.783   5.793  0.7023 -0.1216  0.1971
  113MOL0     C15148  -0.857   1.652   5.740  0.1465 -0.4379 -0.6663
  113MOL0     C15149  -0.892   1.881   5.851  0.2209  1.0633 -0.3491
  113MOL0     C15150  -1.048   1.868   5.874 -0.4586 -0.6948  0.0487
  113MOL0     O15151  -1.109   1.982   5.913  1.3851 -0.5325  0.2172
  113MOL0     C15152  -1.248   2.000   5.921 -0.3135 -0.4502 -0.4763
  113MOL0     C15153  -1.346   1.907   5.889  0.0724 -0.0508 -1.1087
  113MOL0     C15154  -1.479   1.942   5.893  0.7267  0.4832  1.0880
  113MOL0     C15155  -1.519   2.067   5.945 -0.5647  0.1321  0.1228
  113MOL0     O15156  -1.648   2.118   5.962  0.6210  0.0869  0.1241
  113MOL0     C15157  -1.687   2.222   6.059  0.1656  0.7447 -0.2272
  113MOL0     C15158  -1.841   2.236   6.067 -0.6011 -0.3105 -0.4018
  113MOL0     C15159  -1.906   2.126   6.140 -0.6540  0.9172 -0.6044
  113MOL0     C15160  -2.056   2.126   6.166  0.5359  0.3725  0.3650
  113MOL0     C15161  -2.107   2.243   6.248 -0.2695  0.4770  0.9183
  113MOL0     C15162  -2.253   2.270   6.245  0.1830  0.2266 -0.3015
  113MOL0     C15163  -2.329   2.161   6.331  0.2349 -0.1847 -0.5767
  113MOL0     C15164  -2.475   2.195   6.361 -0.1236  0.2265  0.1661
  113MOL0    Cl15165  -2.496   2.339   6.466 -0.0482 -0.1057 -0.2731
  113MOL0     C15166  -1.418   2.154   5.976 -0.7397 -0.1264  0.1244
  113MOL0     C15167  -1.284   2.123   5.969 -0.0567  0.2185  0.7920
  113MOL0     O15168  -1.094   1.756   5.855  0.5030 -0.1256 -0.6263
  113MOL0     C15169  -0.826   1.996   5.894  0.7396 -0.1826  0.7778
  113MOL0     C15170  -0.694   2.014   5.887 -0.3282 -0.4339  0.4937
  113MOL0     N15171   0.015   1.763   5.719  0.7006 -0.0924  0.1992
  113MOL0     N15172   0.102   1.675   5.679  0.8858 -0.5520  0.1696
  113MOL0     C15173   0.192   1.635   4.438  0.6994 -0.3537 -0.5117
  113MOL0     C15174   0.273   1.662   4.321 -0.0374 -0.0623 -0.1581
  113MOL0     C15175   0.628   1.804   4.058  0.9400 -0.0568 -0.2432
  113MOL0     C15176   0.757   1.855   4.037  0.3364  0.0948  0.2569
  113MOL0     C15177   0.827   1.827   3.916 -0.0149 -0.6913 -0.4836
  113MOL0     C15178   0.762   1.740   3.822  0.6213  0.5791 -0.2855
  113MOL0     O15179   0.838   1.722   3.714  0.3457  0.2708 -0.3801
  113MOL0     C15180   0.771   1.665   3.596 -0.7689  0.3663 -0.0017
  113MOL0     C15181   0.880   1.661   3.487  0.3401 -0.2634 -0.8889
  113MOL0     C15182   0.930   1.795   3.433 -0.1133 -0.3717 -0.0723
  113MOL0     C15183   0.824   1.893   3.390 -0.1069  0.0683  0.0686
  113MOL0     C15184   0.756   1.833   3.278 -0.4551  0.1747 -0.1100
  113MOL0     C15185   0.704   1.763   3.189 -0.4929 -0.6493  0.5882
  113MOL0     C15186   0.636   1.685   3.846 -0.1602 -0.4965 -0.2445
  113MOL0     C15187   0.569   1.718   3.962 -0.2990 -0.5290 -1.5694
  113MOL0     H15188   0.461   1.914   4.448 -0.4781  1.0859  2.7433
  113MOL0     H15189   0.328   1.847   4.656  0.4947  0.6949 -0.7782
  113MOL0     H15190   0.322   1.606   4.757  0.3729  0.1944  1.8850
  113MOL0     H15191   0.234   1.738   4.836  0.2322  1.2039 -1.6120
  113MOL0     H15192   0.051   1.608   4.923  4.4088  3.3430  4.4382
  113MOL0     H15193   0.086   1.472   4.821 -1.0879 -2.0364  4.4583
  113MOL0     H15194   0.266   1.403   4.947 -0.0802 -0.2979 -0.4334
  113MOL0     H15195   0.314   1.562   5.003 -2.7537  4.3852  1.1833
  113MOL0     H15196   0.121   1.577   5.147  0.7930  0.3753  1.1316
  113MOL0     H15197   0.077   1.407   5.089  0.7274  0.9998 -3.8554
  113MOL0     H15198   0.315   1.344   5.176 -1.2857 -2.1847  0.6698
  113MOL0     H15199   0.329   1.502   5.242 -1.9243  1.1046 -1.0921
  113MOL0     H15200   0.111   1.316   5.326 -0.8739  0.4464  0.2417
  113MOL0     H15201   0.264   1.349   5.409 -0.1173 -1.3411 -3.0425
  113MOL0     H15202   0.052   1.561   5.373 -0.4389  1.1625  2.6581
  113MOL0     H15203   0.068   1.464   5.512  0.5166 -1.4537 -0.7340
  113MOL0     H15204   0.284   1.669   5.416 -0.1285 -2.1394 -0.8965
  113MOL0     H15205   0.287   1.558   5.558 -3.6659  1.6243  4.4717
  113MOL0     H15206   0.051   1.867   5.405 -4.0651 -0.4963  0.7556
  113MOL0     H15207  -0.025   2.053   5.688  1.4834 -1.9530  0.7023
  113MOL0     H15208  -0.122   2.015   5.542  0.4302  2.0896  0.2101
  113MOL0     H15209  -0.164   1.903   5.823 -2.1687  1.8276  1.6870
  113MOL0     H15210  -0.274   1.871   5.688  0.7827 -0.9937  1.1136
  113MOL0     H15211  -0.314   2.122   5.684  0.1806 -0.9866 -1.6257
  113MOL0     H15212  -0.205   2.136   5.826  0.4789 -2.1893  2.1990
  113MOL0     H15213  -0.469   2.129   5.856  0.9897  2.7282 -0.1733
  113MOL0     H15214  -0.383   2.008   5.959 -0.6001  0.0586 -0.0300
  113MOL0     H15215  -0.619   1.740   5.715 -1.3025 -0.7074  0.1851
  113MOL0     H15216  -0.941   1.673   5.673 -0.3010 -1.1147 -0.3190
  113MOL0     H15217  -0.775   1.600   5.690  1.5732 -0.3381  1.4495
  113MOL0     H15218  -0.880   1.585   5.823  2.2060 -0.1737  0.1682
  113MOL0     H15219  -1.309   1.810   5.856  2.7012  0.7386 -0.7522
  113MOL0     H15220  -1.544   1.862   5.860  5.0556 -2.9236 -0.2249
  113MOL0     H15221  -1.639   2.211   6.157 -0.0178 -0.9735 -0.3040
  113MOL0     H15222  -1.648   2.321   6.033  1.5443  1.4511  3.7487
  113MOL0     H15223  -1.870   2.333   6.110  1.0227  0.3364 -0.6778
  113MOL0     H15224  -1.880   2.221   5.966  2.3521 -1.9724 -1.4406
  113MOL0     H15225  -1.868   2.126   6.243  1.4165 -0.9815 -1.2761
  113MOL0     H15226  -1.879   2.030   6.095  0.5224  1.0552 -0.2238
  113MOL0     H15227  -2.087   2.136   6.061  4.3171 -0.3538 -1.0113
  113MOL0     H15228  -2.085   2.031   6.212 -0.0833  0.7727  0.7932
  113MOL0     H15229  -2.079   2.345   6.221 -0.0346 -0.1367 -1.3210
  113MOL0     H15230  -2.068   2.217   6.347  2.4162  0.2636 -0.1159
  113MOL0     H15231  -2.271   2.365   6.296  0.5236 -0.2519  0.7305
  113MOL0     H15232  -2.293   2.282   6.144 -1.9301 -1.1774  0.2920
  113MOL0     H15233  -2.270   2.136   6.420  0.9110 -0.3540 -1.0635
  113MOL0     H15234  -2.331   2.076   6.262 -2.6783 -0.5602 -0.1174
  113MOL0     H15235  -2.503   2.104   6.416  3.2859 -2.1382 -1.6282
  113MOL0     H15236  -2.528   2.210   6.267 -0.5828 -1.5534  0.1091
  113MOL0     H15237  -1.432   2.258   6.003 -1.3412 -0.1573 -0.0459
  113MOL0     H15238  -1.207   2.196   5.994 -0.5512  1.2959 -0.6565
  113MOL0     H15239  -0.881   2.078   5.939  0.4802 -0.0909  0.3043
  113MOL0     H15240  -0.659   2.103   5.938 -0.4922  0.2660 -0.5822
  113MOL0     H15241   0.115   1.559   4.436  2.1947 -1.9538 -0.1438
  113MOL0     H15242   0.250   1.607   4.230  2.4058  4.1456 -3.6645
  113MOL0     H15243   0.815   1.902   4.116  1.0946 -1.2585  0.5440
  113MOL0     H15244   0.924   1.869   3.897 -0.2350  0.1739  0.2288
  113MOL0     H15245   0.742   1.562   3.620  1.7762 -0.8373 -1.5788
  113MOL0     H15246   0.681   1.719   3.566 -0.0077  1.0233 -1.1945
  113MOL0     H15247   0.847   1.602   3.401 -1.2903 -0.4486 -0.1683
  113MOL0     H15248   0.972   1.617   3.526  1.1512  1.8599 -0.2573
  113MOL0     H15249   0.990   1.764   3.347  1.3150  0.2806  0.6710
  113MOL0     H15250   0.994   1.826   3.516  1.0750 -3.4746  0.2929
  113MOL0     H15251   0.851   1.998   3.376  1.3297 -0.3926 -0.7966
  113MOL0     H15252   0.757   1.897   3.476 -0.9559  1.7148 -0.6323
  113MOL0     H15253   0.670   1.690   3.119 -1.8450 -1.6731  2.2391
  113MOL0     H15254   0.603   1.601   3.786  1.1765 -0.0000 -1.7722
  113MOL0     H15255   0.480   1.663   3.988  1.0176 -1.2687  1.7670
  114MOL0     O15256   5.587   7.357   2.614 -0.7264 -0.7102 -0.3920
  114MOL0     C15257   5.579   7.260   2.684  0.0466  0.3122  0.0265
  114MOL0     O15258   5.508   7.140   2.647 -0.4361 -1.2613  0.0295
  114MOL0     C15259   5.419   7.148   2.537  0.1948  0.8239  0.5915
  114MOL0     C15260   5.431   7.036   2.457 -0.0141 -0.0819  0.6744
  114MOL0     C15261   5.358   7.012   2.336 -0.1044 -0.4390 -0.7240
  114MOL0     C15262   5.255   7.100   2.311  0.4293 -0.9141 -0.6325
  114MOL0     O15263   5.180   7.077   2.202 -0.2977  1.1379 -0.1320
  114MOL0     C15264   5.078   7.167   2.147  0.8935  0.4053  0.3148
  114MOL0     C15265   4.943   7.125   2.199  0.1824 -0.7049 -0.4432
  114MOL0     C15266   4.822   7.197   2.139  1.2174 -0.6630 -0.1112
  114MOL0     C15267   4.699   7.170   2.231 -0.3443 -0.5197 -0.7718
  114MOL0     C15268   4.577   7.242   2.175 -0.7779 -0.6093  0.0814
  114MOL0     C15269   4.579   7.402   2.196 -0.1004  1.3498  0.1295
  114MOL0     C15270   4.444   7.465   2.169 -0.6750  0.4143 -0.0356
  114MOL0     C15271   4.478   7.613   2.155  0.2520 -0.0128  0.0792
  114MOL0     N15272   4.356   7.700   2.159  0.3015  0.0967 -0.4699
  114MOL0     C15273   4.289   7.745   2.275 -0.1991  0.0371 -0.3574
  114MOL0     C15274   4.162   7.774   2.230 -0.8570  0.3119  0.0793
  114MOL0     C15275   4.048   7.799   2.321  0.1652  0.0310 -1.4575
  114MOL0     C15276   4.077   7.928   2.405  0.3028 -0.0110  0.4430
  114MOL0     C15277   3.953   7.961   2.495  0.4385  0.1962 -0.1365
  114MOL0     C15278   3.989   8.089   2.574 -0.0667  0.5921  0.6554
  114MOL0     O15279   3.871   8.136   2.641 -0.9355 -0.3684  0.7298
  114MOL0     C15280   3.855   8.266   2.640  0.0824 -0.2506 -0.0020
  114MOL0     C15281   3.734   8.323   2.624 -0.1682  0.1278  0.4607
  114MOL0     C15282   3.709   8.458   2.617  0.7768  1.7425 -0.0353
  114MOL0     C15283   3.562   8.499   2.576 -0.7027 -0.3244  0.4870
  114MOL0     C15284   3.811   8.553   2.630 -0.0492 -0.3818 -0.3221
  114MOL0     C15285   3.803   8.700   2.629  0.0628  0.7349  0.9862
  114MOL0     O15286   3.924   8.770   2.615  0.0781  0.4817 -0.2137
  114MOL0     C15287   3.908   8.906   2.618  0.0267 -0.3310 -0.4881
  114MOL0     C15288   3.919   8.999   2.509 -0.7267  0.0545 -0.2487
  114MOL0     C15289   3.923   9.140   2.519 -0.1161 -0.7804 -0.0707
  114MOL0     C15290   3.918   9.193   2.647 -0.3153  0.0521 -0.3294
  114MOL0     O15291   3.901   9.330   2.670 -0.0897 -0.1225 -0.0961
  114MOL0     C15292   3.807   9.402   2.584 -0.3462  0.6760  0.6527
  114MOL0     C15293   3.682   9.436   2.662 -0.1285  0.0178  0.5674
  114MOL0     C15294   3.548   9.424   2.577 -0.5216  0.0499  0.1197
  114MOL0     C15295   3.429   9.448   2.678 -0.1288  0.8430 -0.4687
  114MOL0     C15296   3.287   9.418   2.618  0.3722  0.0121  0.9140
  114MOL0     C15297   3.182   9.424   2.733 -0.0652  0.1914  0.2419
  114MOL0     C15298   3.135   9.280   2.775 -0.0195 -0.7737  0.5429
  114MOL0     C15299   3.136   9.272   2.924  0.2922  0.3098 -0.3616
  114MOL0    Cl15300   3.039   9.402   2.996  0.2283  0.0655  0.2406
  114MOL0     C15301   3.904   9.109   2.761 -0.8516  1.0001 -0.4186
  114MOL0     C15302   3.906   8.971   2.744  0.0637  0.3062 -0.3849
  114MOL0     O15303   3.694   8.749   2.622  0.2242 -0.3059  0.0835
  114MOL0     C15304   3.938   8.493   2.654 -1.1647  0.8738  0.1585
  114MOL0     C15305   3.959   8.354   2.651  0.1330 -0.6586  0.3820
  114MOL0     N15306   4.145   7.754   2.095 -0.5077 -0.3203  0.0408
  114MOL0     N15307   4.263   7.706   2.056  0.4667 -0.3349  0.2147
  114MOL0     C15308   5.234   7.212   2.390  0.1803  0.7665 -0.7997
  114MOL0     C15309   5.326   7.243   2.494 -0.3148 -0.3620 -0.4693
  114MOL0     C15310   5.672   7.259   2.808 -0.1685  0.8206 -0.2993
  114MOL0     C15311   5.746   7.368   2.851 -0.0342  0.3932  0.7893
  114MOL0     C15312   5.817   7.358   2.975  0.5249  0.2090  0.2422
  114MOL0     C15313   5.801   7.247   3.057 -0.7183 -0.7138 -0.3513
  114MOL0     O15314   5.876   7.245   3.170 -0.5056  0.1146  0.8822
  114MOL0     C15315   5.937   7.114   3.205  0.3919  0.3022  0.6950
  114MOL0     C15316   6.060   7.130   3.302  0.5567  0.1190 -0.0228
  114MOL0     C15317   6.123   6.998   3.321  0.2270 -0.3419  0.6940
  114MOL0     C15318   6.250   6.971   3.230 -0.1937 -0.1645  0.0213
  114MOL0     C15319   6.363   7.048   3.282  0.7479  0.6486 -0.4709
  114MOL0     C15320   6.451   7.115   3.316  0.7026 -0.1273 -0.1988
  114MOL0     C15321   5.715   7.142   3.016  0.8530  0.2883 -0.1656
  114MOL0     C15322   5.664   7.141   2.892 -0.8235  0.2116 -0.0298
  114MOL0     H15323   5.521   6.985   2.492 -0.1226  0.3927  1.6776
  114MOL0     H15324   5.378   6.917   2.289  1.9777 -2.0393  2.9818
  114MOL0     H15325   5.089   7.273   2.173  2.2095  0.5389 -0.7159
  114MOL0     H15326   5.072   7.171   2.038  2.5568 -0.2337  0.1695
  114MOL0     H15327   4.927   7.019   2.174 -0.2458 -0.7560  0.0255
  114MOL0     H15328   4.951   7.139   2.308 -2.5737 -3.2823  0.2346
  114MOL0     H15329   4.832   7.306   2.135  1.1642 -0.6429  0.2631
  114MOL0     H15330   4.792   7.150   2.045 -3.1250  0.2560  0.5828
  114MOL0     H15331   4.670   7.066   2.247 -1.6711  0.3303  3.6678
  114MOL0     H15332   4.716   7.202   2.335  0.0622 -2.1430 -0.3060
  114MOL0     H15333   4.563   7.214   2.070  0.4011 -2.7539  0.4307
  114MOL0     H15334   4.485   7.197   2.214 -0.5028 -0.6603  0.6675
  114MOL0     H15335   4.592   7.425   2.303  1.4459 -1.5615  0.6781
  114MOL0     H15336   4.664   7.439   2.139  0.0307  1.0353  0.1181
  114MOL0     H15337   4.389   7.427   2.082 -1.7458  2.0445 -0.1179
  114MOL0     H15338   4.375   7.468   2.254  0.5248 -0.3292  0.9882
  114MOL0     H15339   4.539   7.630   2.066  2.0408  1.4286  1.4885
  114MOL0     H15340   4.545   7.639   2.237 -0.7149 -2.0236  1.5755
  114MOL0     H15341   4.327   7.757   2.376 -0.3373  1.6898 -0.4779
  114MOL0     H15342   3.962   7.802   2.253 -1.4402 -1.4618  0.3630
  114MOL0     H15343   4.027   7.712   2.384  0.0474  2.1776  1.6730
  114MOL0     H15344   4.090   8.016   2.342  1.1713 -0.1677  0.3975
  114MOL0     H15345   4.164   7.929   2.471  1.7309  1.3884 -1.3827
  114MOL0     H15346   3.951   7.877   2.565  0.3881 -1.4095 -1.9866
  114MOL0     H15347   3.860   7.981   2.441 -0.3545 -1.7084  0.4310
  114MOL0     H15348   4.031   8.163   2.505 -1.2631  0.4900 -0.2216
  114MOL0     H15349   4.060   8.078   2.657 -0.0298  5.4303  1.5525
  114MOL0     H15350   3.640   8.270   2.615 -0.5319  0.2521  2.8720
  114MOL0     H15351   3.524   8.533   2.672  0.1325 -1.5392  1.2863
  114MOL0     H15352   3.556   8.581   2.504  0.2462 -0.3180  0.4007
  114MOL0     H15353   3.502   8.414   2.540 -1.5019 -0.5625  2.2689
  114MOL0     H15354   3.927   8.966   2.406 -0.0264  0.9649 -0.4986
  114MOL0     H15355   3.929   9.199   2.428  0.6796  0.8230  0.9731
  114MOL0     H15356   3.851   9.494   2.545  1.5605 -0.2473  0.5083
  114MOL0     H15357   3.777   9.344   2.496 -0.5445  1.7659 -0.0209
  114MOL0     H15358   3.667   9.365   2.744 -0.2944 -2.1060 -1.2225
  114MOL0     H15359   3.686   9.541   2.695 -0.7767 -0.1734  1.2850
  114MOL0     H15360   3.536   9.329   2.523  1.7301  1.0702 -2.4389
  114MOL0     H15361   3.544   9.499   2.498  4.1081 -0.1861 -0.5906
  114MOL0     H15362   3.445   9.395   2.773 -1.5164  0.8546 -0.2057
  114MOL0     H15363   3.440   9.549   2.718  2.4193  0.1876  0.7021
  114MOL0     H15364   3.275   9.320   2.571 -0.8563  0.6949 -0.2675
  114MOL0     H15365   3.266   9.492   2.540  0.4054 -0.1395  0.7617
  114MOL0     H15366   3.223   9.482   2.817 -2.4341  0.8499  1.0224
  114MOL0     H15367   3.093   9.483   2.710 -0.4571  0.3020  1.9097
  114MOL0     H15368   3.194   9.198   2.734  1.5028 -0.5635  2.2162
  114MOL0     H15369   3.035   9.250   2.740  1.7039 -3.7195 -2.4461
  114MOL0     H15370   3.239   9.277   2.960 -0.1591 -1.9361  1.4581
  114MOL0     H15371   3.092   9.178   2.957 -1.9143  1.7126  0.9834
  114MOL0     H15372   3.887   9.152   2.860  2.3379  2.0880 -0.1972
  114MOL0     H15373   3.901   8.904   2.829  1.6551  0.0325 -0.4886
  114MOL0     H15374   4.025   8.553   2.679 -0.4018  0.0867 -0.5939
  114MOL0     H15375   4.059   8.313   2.665  0.1722 -2.0147 -2.9551
  114MOL0     H15376   5.155   7.283   2.371 -2.8713 -2.4494 -1.0422
  114MOL0     H15377   5.309   7.335   2.549  1.5283  1.1702 -2.3017
  114MOL0     H15378   5.761   7.463   2.800  1.1978  0.8035  1.8704
  114MOL0     H15379   5.892   7.430   3.005  2.7449 -0.3293 -3.4266
  114MOL0     H15380   5.863   7.044   3.244  1.1941 -2.4381 -2.2611
  114MOL0     H15381   5.966   7.070   3.109 -3.2932  0.5908 -0.7113
  114MOL0     H15382   6.026   7.178   3.394 -2.5562 -1.7197 -0.0574
  114MOL0     H15383   6.128   7.197   3.249  0.8463 -0.3089 -0.2052
  114MOL0     H15384   6.054   6.917   3.297  1.2726 -1.5127  1.4823
  114MOL0     H15385   6.156   6.985   3.424  0.4156  1.4669  0.9002
  114MOL0     H15386   6.227   7.003   3.128  1.5073 -2.2265 -1.1130
  114MOL0     H15387   6.279   6.865   3.228  0.4080 -0.0250  0.8421
  114MOL0     H15388   6.511   7.190   3.363 -1.7471  1.0866  1.1856
  114MOL0     H15389   5.705   7.056   3.081  0.3725 -0.1562 -0.8132
  114MOL0     H15390   5.607   7.055   2.859 -2.5603  0.4163  2.2013
  115MOL0     O15391   6.896   8.752   4.202 -0.1900 -0.5734  0.1477
  115MOL0     C15392   6.997   8.760   4.131  0.5186  0.1927 -0.2740
  115MOL0     O15393   7.007   8.816   4.010 -0.5474 -0.1725 -0.4372
  115MOL0     C15394   6.891   8.819   3.933 -0.1254 -0.0249  0.5322
  115MOL0     C15395   6.846   8.930   3.871  0.4805 -0.6045  0.1445
  115MOL0     C15396   6.734   8.935   3.787  0.2436 -0.5838 -0.3802
  115MOL0     C15397   6.671   8.819   3.769  1.4954 -0.1824  0.5431
  115MOL0     O15398   6.547   8.838   3.723  0.2640  0.8256 -0.1160
  115MOL0     C15399   6.481   8.746   3.633 -0.9037  0.1224  0.0410
  115MOL0     C15400   6.336   8.783   3.626 -0.1948  0.9506  0.0326
  115MOL0     C15401   6.238   8.677   3.574 -0.6124  0.3018 -0.0806
  115MOL0     C15402   6.094   8.731   3.563 -0.5646  0.3265 -0.2726
  115MOL0     C15403   5.984   8.621   3.536  0.3655  0.4332  0.3722
  115MOL0     C15404   5.843   8.689   3.515 -0.1006 -0.3682  0.2499
  115MOL0     C15405   5.732   8.600   3.462 -0.7842 -0.7094 -0.1055
  115MOL0     C15406   5.675   8.518   3.588 -0.0298  0.0215 -0.3808
  115MOL0     N15407   5.555   8.441   3.552  0.2946 -0.6894  0.7338
  115MOL0     C15408   5.440   8.494   3.489 -0.2392  0.2967  0.4182
  115MOL0     C15409   5.352   8.396   3.488  0.3865 -0.1801  0.3615
  115MOL0     C15410   5.208   8.404   3.443  0.4277  0.5074 -0.6955
  115MOL0     C15411   5.114   8.424   3.566 -0.3724  0.3934  0.7482
  115MOL0     C15412   5.135   8.554   3.637 -0.4567 -0.4632 -1.1189
  115MOL0     C15413   5.038   8.567   3.747 -0.0017 -0.9573 -0.7770
  115MOL0     O15414   5.058   8.689   3.816 -0.0817 -0.0633  0.3854
  115MOL0     C15415   4.963   8.729   3.896 -0.7944  0.6112  0.5700
  115MOL0     C15416   4.983   8.844   3.964 -0.6103 -0.2356  0.4860
  115MOL0     C15417   4.879   8.911   4.042  0.1689  0.7258 -0.0395
  115MOL0     C15418   4.913   9.052   4.101  0.3251  0.1221  0.7041
  115MOL0     C15419   4.755   8.845   4.057  0.8805 -0.2832 -0.4292
  115MOL0     C15420   4.636   8.901   4.126 -0.6485 -0.3985  0.8807
  115MOL0     O15421   4.564   8.811   4.190 -0.2855 -0.9556  0.1968
  115MOL0     C15422   4.446   8.834   4.263 -0.3936  0.7598 -0.2372
  115MOL0     C15423   4.373   8.950   4.271 -0.0944  0.7140 -0.2665
  115MOL0     C15424   4.251   8.960   4.347  0.2997 -0.2922  0.5680
  115MOL0     C15425   4.192   8.838   4.395 -0.6302 -0.2754  0.2263
  115MOL0     O15426   4.066   8.838   4.438 -0.5258 -0.6147  0.2140
  115MOL0     C15427   3.981   8.754   4.359 -0.4575  0.3602  0.8196
  115MOL0     C15428   3.833   8.804   4.373  0.2544  0.5945 -0.2701
  115MOL0     C15429   3.730   8.715   4.313  0.6911 -0.7408 -0.2639
  115MOL0     C15430   3.602   8.797   4.302  0.5635  1.1749  0.2178
  115MOL0     C15431   3.466   8.711   4.289 -0.4666 -0.1827  0.2823
  115MOL0     C15432   3.359   8.800   4.235  0.3065  0.1118  0.0683
  115MOL0     C15433   3.214   8.769   4.274 -0.8355  0.2492 -0.2497
  115MOL0     C15434   3.199   8.777   4.428  0.3200  0.3058  0.2168
  115MOL0    Cl15435   3.245   8.628   4.527 -0.4626  0.0296 -0.0443
  115MOL0     C15436   4.265   8.716   4.376 -0.0334 -0.4364  0.1797
  115MOL0     C15437   4.394   8.724   4.317 -1.0926 -0.0937 -0.4016
  115MOL0     O15438   4.628   9.021   4.129  0.2364  0.4630 -0.3094
  115MOL0     C15439   4.738   8.718   3.993  0.5803 -0.8439 -0.0632
  115MOL0     C15440   4.838   8.665   3.917  0.7372 -0.0470  0.3305
  115MOL0     N15441   5.423   8.277   3.529  0.2036 -0.5592  0.7550
  115MOL0     N15442   5.541   8.313   3.586  0.4719 -0.1265  0.6760
  115MOL0     C15443   6.715   8.696   3.827  0.4928 -0.1859  0.4608
  115MOL0     C15444   6.832   8.695   3.897  0.1079 -0.6801 -0.7411
  115MOL0     C15445   7.118   8.700   4.172 -0.3725  0.0345  0.1677
  115MOL0     C15446   7.198   8.623   4.079  0.3800 -0.3967 -0.5355
  115MOL0     C15447   7.302   8.554   4.138  0.4377  0.2591 -0.2790
  115MOL0     C15448   7.342   8.558   4.274  0.0118 -0.1818 -0.5025
  115MOL0     O15449   7.456   8.492   4.308  0.0171  0.7338  0.2180
  115MOL0     C15450   7.520   8.520   4.435  0.1837 -0.3120  0.1729
  115MOL0     C15451   7.673   8.490   4.426  0.5628  0.4523  0.0672
  115MOL0     C15452   7.759   8.511   4.550 -1.5418  0.0910 -0.4943
  115MOL0     C15453   7.729   8.642   4.622  0.2668  0.2694  0.5713
  115MOL0     C15454   7.825   8.685   4.722 -0.7496 -0.9852 -0.2800
  115MOL0     C15455   7.911   8.729   4.795 -0.5647 -1.4280  0.0928
  115MOL0     C15456   7.266   8.639   4.361 -1.1029 -0.3606  0.8608
  115MOL0     C15457   7.158   8.707   4.309  0.5622  0.0742  0.1542
  115MOL0     H15458   6.908   9.018   3.889  0.1559 -0.8604  3.0275
  115MOL0     H15459   6.704   9.034   3.754  2.3821  0.5614  0.8400
  115MOL0     H15460   6.530   8.740   3.536 -3.4012 -0.9579 -1.2461
  115MOL0     H15461   6.487   8.651   3.687 -0.5062  0.0239 -0.1723
  115MOL0     H15462   6.307   8.806   3.729  0.7272 -1.8373  1.0079
  115MOL0     H15463   6.323   8.873   3.565 -0.2346  0.8369 -0.1281
  115MOL0     H15464   6.276   8.659   3.473 -0.9595 -2.0811  0.1640
  115MOL0     H15465   6.250   8.579   3.621  3.2347  0.6978  0.1547
  115MOL0     H15466   6.070   8.788   3.654  1.1976  1.8641 -0.7140
  115MOL0     H15467   6.097   8.805   3.482 -2.1224 -2.4300 -3.0705
  115MOL0     H15468   6.025   8.559   3.455 -1.6656  0.4078 -0.7017
  115MOL0     H15469   5.976   8.547   3.616 -0.2366 -1.6907 -1.5388
  115MOL0     H15470   5.805   8.741   3.604 -2.3506  1.7334 -1.8169
  115MOL0     H15471   5.864   8.763   3.437 -3.5630  1.2922  0.7298
  115MOL0     H15472   5.668   8.680   3.421  0.0105  2.7657  4.6194
  115MOL0     H15473   5.771   8.530   3.388  1.7886 -1.8144  2.1352
  115MOL0     H15474   5.636   8.580   3.670  1.1749 -1.1163  1.1060
  115MOL0     H15475   5.752   8.454   3.632  2.5020  3.1572  0.1554
  115MOL0     H15476   5.415   8.593   3.452  3.7051 -0.1942 -4.7326
  115MOL0     H15477   5.207   8.485   3.370  1.0865 -0.0301 -1.3090
  115MOL0     H15478   5.177   8.317   3.385 -0.3781 -0.5115  1.1663
  115MOL0     H15479   5.119   8.342   3.638 -2.8043  2.4822  3.5138
  115MOL0     H15480   5.010   8.420   3.533 -0.7796  2.3740  1.6576
  115MOL0     H15481   5.132   8.644   3.575 -1.9618  0.0807 -0.3065
  115MOL0     H15482   5.239   8.557   3.670 -0.4530  4.5068 -0.9521
  115MOL0     H15483   5.045   8.480   3.812  2.8431 -0.5777 -0.4107
  115MOL0     H15484   4.941   8.576   3.697  0.9321  1.4742 -2.3397
  115MOL0     H15485   5.082   8.889   3.968 -0.5106 -0.4169  0.0980
  115MOL0     H15486   4.862   9.119   4.032  0.2715 -0.7998 -0.1684
  115MOL0     H15487   4.878   9.062   4.205 -0.0019  2.9716  0.3812
  115MOL0     H15488   5.019   9.077   4.104  0.1440  1.7591 -2.4440
  115MOL0     H15489   4.418   9.036   4.222  1.9126 -1.4458 -2.5481
  115MOL0     H15490   4.201   9.055   4.364  1.7166  0.7421 -0.7279
  115MOL0     H15491   4.011   8.750   4.254 -0.9583 -1.2060  0.7092
  115MOL0     H15492   3.995   8.651   4.395 -2.9495 -0.5697 -0.6147
  115MOL0     H15493   3.806   8.815   4.479 -0.3435  1.2744 -0.4879
  115MOL0     H15494   3.827   8.900   4.321  1.4257  0.3962 -0.8127
  115MOL0     H15495   3.723   8.623   4.372  1.2728  0.3273  1.5512
  115MOL0     H15496   3.755   8.690   4.209 -1.0499  1.2996 -1.2567
  115MOL0     H15497   3.586   8.852   4.396 -1.7222 -0.9602  1.1812
  115MOL0     H15498   3.616   8.868   4.219 -1.0507  1.1782 -0.0831
  115MOL0     H15499   3.448   8.691   4.396 -0.9493  1.7736  0.6070
  115MOL0     H15500   3.472   8.618   4.232  1.2368 -1.3090  2.1426
  115MOL0     H15501   3.366   8.905   4.264 -1.6610  0.8490 -1.8763
  115MOL0     H15502   3.364   8.788   4.126  1.0407 -0.5544  0.1686
  115MOL0     H15503   3.190   8.668   4.240  2.3314 -1.0780  1.0249
  115MOL0     H15504   3.137   8.842   4.250 -0.9717  0.8858  1.9503
  115MOL0     H15505   3.092   8.784   4.447  0.0197 -2.1838 -0.1935
  115MOL0     H15506   3.232   8.872   4.470 -0.4638  0.9503 -0.5683
  115MOL0     H15507   4.223   8.617   4.397 -0.0542 -0.9872 -2.1899
  115MOL0     H15508   4.445   8.629   4.308 -2.0721 -0.5096 -2.0094
  115MOL0     H15509   4.650   8.658   4.012  1.9652 -2.1009  3.2176
  115MOL0     H15510   4.821   8.561   3.890 -0.7058 -0.1682  1.5125
  115MOL0     H15511   6.672   8.597   3.813 -0.3841  0.2737 -0.1653
  115MOL0     H15512   6.871   8.601   3.936  0.8122  0.9615  3.0115
  115MOL0     H15513   7.159   8.606   3.979  0.5724 -0.0632 -0.6657
  115MOL0     H15514   7.359   8.481   4.081 -4.1963 -1.6330 -3.0572
  115MOL0     H15515   7.505   8.622   4.470 -0.6669 -0.9330  1.6748
  115MOL0     H15516   7.477   8.454   4.510 -0.9426  0.6930  0.4425
  115MOL0     H15517   7.714   8.550   4.344 -0.8512  0.5198 -0.6258
  115MOL0     H15518   7.687   8.389   4.386 -0.0652  0.2907  0.2488
  115MOL0     H15519   7.866   8.504   4.531 -1.5062  0.2133 -0.3384
  115MOL0     H15520   7.720   8.434   4.618  0.6076 -4.0685 -3.5416
  115MOL0     H15521   7.629   8.624   4.663  0.5924 -1.7841  0.5562
  115MOL0     H15522   7.714   8.719   4.546  1.7669  1.8423  1.7932
  115MOL0     H15523   7.973   8.773   4.870 -0.0905 -0.8127 -0.6358
  115MOL0     H15524   7.281   8.642   4.469 -1.1941  1.9198  0.8650
  115MOL0     H15525   7.087   8.772   4.360 -0.3473  0.5005 -1.5973
  116MOL0     O15526  10.904   7.542   1.916  0.1307 -0.4274 -0.4097
  116MOL0     C15527  10.910   7.437   1.984  0.5731 -0.7977  0.1349
  116MOL0     O15528  10.803   7.403   2.076  0.0457 -0.2642 -0.3480
  116MOL0     C15529  10.690   7.482   2.069 -0.1909  0.7724  0.0943
  116MOL0     C15530  10.675   7.590   2.162  0.4162 -0.0095  1.0149
  116MOL0     C15531  10.564   7.673   2.133 -0.8276 -0.0174 -0.4147
  116MOL0     C15532  10.468   7.644   2.043 -0.5805 -0.1005 -0.9182
  116MOL0     O15533  10.349   7.719   2.033 -0.1545 -0.0792 -0.5631
  116MOL0     C15534  10.348   7.797   1.905 -0.5929  0.6926 -0.2653
  116MOL0     C15535  10.235   7.892   1.930 -0.4415 -0.2077  0.5718
  116MOL0     C15536  10.203   7.982   1.813 -0.5561 -0.7228  0.0856
  116MOL0     C15537  10.121   8.106   1.842  0.5388 -0.2034 -0.1075
  116MOL0     C15538  10.086   8.186   1.716  0.6804  0.0587 -0.8838
  116MOL0     C15539   9.976   8.133   1.622  0.0254  0.9937 -1.0868
  116MOL0     C15540   9.957   8.215   1.505 -0.1140 -0.4851  0.0132
  116MOL0     C15541  10.080   8.217   1.408  0.5178  0.1518  0.0290
  116MOL0     N15542  10.039   8.171   1.272 -0.4751  0.1013  0.5002
  116MOL0     C15543   9.974   8.052   1.240 -0.7558  0.3665  0.9522
  116MOL0     C15544   9.969   8.061   1.103 -0.1576  0.0755  0.6767
  116MOL0     C15545   9.885   7.969   1.010 -0.1376  0.5655  0.0415
  116MOL0     C15546   9.839   8.046   0.888  0.0256  0.4153  0.4927
  116MOL0     C15547   9.746   7.951   0.800  0.1937  0.6347  0.6022
  116MOL0     C15548   9.604   7.914   0.841 -0.6108  0.0055  0.3344
  116MOL0     O15549   9.529   8.032   0.822 -0.7806 -0.5616 -0.1795
  116MOL0     C15550   9.405   8.041   0.882  0.0831  0.2307  1.1999
  116MOL0     C15551   9.323   7.932   0.903 -0.4071 -0.1210  0.1721
  116MOL0     C15552   9.191   7.934   0.971 -0.1198  1.4531 -0.3849
  116MOL0     C15553   9.112   7.804   0.970  0.1034  0.2903  0.0366
  116MOL0     C15554   9.140   8.054   1.029 -0.3211 -0.5487  0.5263
  116MOL0     C15555   9.019   8.061   1.123  0.1584 -0.4243  0.4203
  116MOL0     O15556   8.951   8.183   1.124 -0.2650  0.8918  0.4631
  116MOL0     C15557   8.856   8.215   1.215 -0.9270 -0.1043 -0.2401
  116MOL0     C15558   8.761   8.120   1.263  0.0570 -0.1352  0.3134
  116MOL0     C15559   8.658   8.153   1.357 -0.5046  0.6011  0.3212
  116MOL0     C15560   8.658   8.278   1.418 -0.6876 -0.0101  0.6252
  116MOL0     O15561   8.579   8.294   1.522  0.4683 -0.6556 -0.4669
  116MOL0     C15562   8.597   8.411   1.608  0.5405  0.1235 -0.4217
  116MOL0     C15563   8.511   8.415   1.738 -0.6517 -0.0638  0.4020
  116MOL0     C15564   8.366   8.368   1.708  0.1821 -0.1882 -1.0739
  116MOL0     C15565   8.281   8.373   1.832  0.0894  0.1395 -0.5239
  116MOL0     C15566   8.133   8.337   1.814  1.6905 -0.0275  0.2858
  116MOL0     C15567   8.111   8.186   1.760  0.5220 -1.0074  0.0814
  116MOL0     C15568   7.961   8.147   1.754 -0.1117  0.3535  0.3363
  116MOL0     C15569   7.891   8.172   1.881  1.0454 -0.3745  0.7274
  116MOL0    Cl15570   7.733   8.109   1.869  0.1172  0.3646  0.2616
  116MOL0     C15571   8.751   8.370   1.367 -0.0769 -0.2747  0.9175
  116MOL0     C15572   8.851   8.347   1.266 -0.1615 -0.1423  0.5410
  116MOL0     O15573   8.988   7.962   1.187 -0.4152  0.2342  0.2023
  116MOL0     C15574   9.219   8.168   1.005 -0.6559 -0.0032  0.3118
  116MOL0     C15575   9.340   8.160   0.926  0.4800  0.3530  0.0022
  116MOL0     N15576  10.049   8.166   1.058  0.0207  1.1831 -0.0419
  116MOL0     N15577  10.072   8.241   1.157 -0.6951 -0.6910  0.1124
  116MOL0     C15578  10.484   7.533   1.956 -0.3104  1.0331 -0.2883
  116MOL0     C15579  10.595   7.445   1.972  1.4582 -0.5189  0.6812
  116MOL0     C15580  11.036   7.358   1.977 -0.3553  0.2106 -0.6246
  116MOL0     C15581  11.044   7.230   2.042  0.7744 -0.5601  0.3714
  116MOL0     C15582  11.149   7.150   2.029 -0.1314 -0.0095 -0.9261
  116MOL0     C15583  11.261   7.190   1.955 -0.8500 -0.4430 -0.9839
  116MOL0     O15584  11.375   7.117   1.924 -0.4056 -0.2214  0.5036
  116MOL0     C15585  11.399   6.998   1.995  0.1467 -0.5257  0.2485
  116MOL0     C15586  11.427   7.017   2.140  0.8104  0.1625 -0.1130
  116MOL0     C15587  11.554   7.100   2.164  0.9023  0.5095  0.2634
  116MOL0     C15588  11.606   7.089   2.308  0.0092  0.2037 -0.1130
  116MOL0     C15589  11.668   6.951   2.341  0.8874 -0.0297 -0.4008
  116MOL0     C15590  11.720   6.842   2.363 -0.5361 -0.0182  0.1345
  116MOL0     C15591  11.256   7.312   1.897 -0.8502 -0.0015 -0.2746
  116MOL0     C15592  11.145   7.394   1.893  0.3755 -0.9340 -0.8634
  116MOL0     H15593  10.754   7.615   2.232  1.0998 -4.4396  2.1161
  116MOL0     H15594  10.552   7.765   2.190 -2.2349 -1.0125  0.9818
  116MOL0     H15595  10.441   7.854   1.898  0.6220 -1.1670 -0.1730
  116MOL0     H15596  10.334   7.740   1.813 -2.5301 -1.2945  1.1327
  116MOL0     H15597  10.143   7.835   1.947  0.6202 -2.1016  0.3526
  116MOL0     H15598  10.255   7.959   2.014  2.5861 -0.8290  0.4900
  116MOL0     H15599  10.300   8.010   1.771  0.3673 -0.5248  2.2268
  116MOL0     H15600  10.149   7.917   1.743 -3.0102 -0.7837  1.9008
  116MOL0     H15601  10.027   8.072   1.885  0.3198  1.3412  0.6935
  116MOL0     H15602  10.165   8.175   1.914  0.3652 -1.8901  1.6759
  116MOL0     H15603  10.039   8.280   1.747 -2.2577 -1.2475 -1.0663
  116MOL0     H15604  10.177   8.200   1.656 -0.7286 -0.1635 -3.1981
  116MOL0     H15605   9.990   8.027   1.599 -1.4354  0.7734 -1.0597
  116MOL0     H15606   9.882   8.131   1.678  0.1594 -0.6562 -0.8643
  116MOL0     H15607   9.862   8.190   1.457  0.0629 -2.3050  0.5320
  116MOL0     H15608   9.928   8.319   1.526  2.2243  0.8191 -2.5381
  116MOL0     H15609  10.163   8.153   1.441 -0.4196 -1.1107  0.0019
  116MOL0     H15610  10.109   8.322   1.398  0.0938  0.1245 -1.7287
  116MOL0     H15611   9.921   7.980   1.301  0.2020 -1.9219 -0.7688
  116MOL0     H15612   9.949   7.884   0.987 -1.0923 -0.7516  1.9950
  116MOL0     H15613   9.797   7.926   1.058 -1.1904  1.1296 -1.3197
  116MOL0     H15614   9.929   8.074   0.833  0.2565  0.3768  0.8467
  116MOL0     H15615   9.787   8.136   0.923 -0.6131 -0.2625  1.3290
  116MOL0     H15616   9.805   7.864   0.769 -1.2643 -0.7522  1.6238
  116MOL0     H15617   9.740   8.012   0.709 -4.5947 -0.9412 -0.4272
  116MOL0     H15618   9.599   7.875   0.944  0.7596  2.6264  1.4838
  116MOL0     H15619   9.573   7.834   0.774  0.4839  1.0222 -1.4704
  116MOL0     H15620   9.372   7.842   0.869  1.9036 -0.1349  3.0329
  116MOL0     H15621   9.021   7.825   0.912  0.6622 -0.7751 -1.2783
  116MOL0     H15622   9.155   7.717   0.920 -0.7072 -1.2718  1.9266
  116MOL0     H15623   9.100   7.770   1.073  0.7590 -2.6252 -0.7589
  116MOL0     H15624   8.754   8.018   1.227 -2.2761  0.2825 -0.5549
  116MOL0     H15625   8.580   8.081   1.378 -1.4799  0.2837 -3.5962
  116MOL0     H15626   8.701   8.431   1.637  0.1599 -0.8528  1.8453
  116MOL0     H15627   8.556   8.483   1.537  2.6143 -0.0875 -1.9277
  116MOL0     H15628   8.557   8.348   1.812  3.5440  1.8448 -0.2008
  116MOL0     H15629   8.523   8.516   1.778 -0.1542  1.3471 -3.0358
  116MOL0     H15630   8.364   8.267   1.667  2.3691  0.5467 -3.2352
  116MOL0     H15631   8.323   8.437   1.634 -0.5253  1.1614  0.5105
  116MOL0     H15632   8.311   8.293   1.899 -1.1336 -0.7984 -1.0534
  116MOL0     H15633   8.295   8.468   1.883 -1.8952 -0.3582  1.0278
  116MOL0     H15634   8.081   8.394   1.736  0.7911 -0.3571  0.6347
  116MOL0     H15635   8.084   8.354   1.910 -0.6409  1.0471 -1.0043
  116MOL0     H15636   8.150   8.151   1.664  0.8880  1.3917 -0.7091
  116MOL0     H15637   8.162   8.117   1.827  2.2110  0.6500  0.5919
  116MOL0     H15638   7.967   8.038   1.742  2.0991  0.0726  2.8006
  116MOL0     H15639   7.907   8.180   1.666  1.4164  1.6219 -0.1892
  116MOL0     H15640   7.884   8.280   1.897 -0.3148 -0.3540  0.1290
  116MOL0     H15641   7.945   8.131   1.966 -1.4394  0.1418  2.6818
  116MOL0     H15642   8.752   8.463   1.423  0.3365 -0.7784  1.7592
  116MOL0     H15643   8.920   8.427   1.242 -0.4602  0.0602  0.3605
  116MOL0     H15644   9.186   8.271   1.019 -0.1898  0.2939 -0.6939
  116MOL0     H15645   9.414   8.239   0.912  1.6517 -0.3335  1.9269
  116MOL0     H15646  10.410   7.530   1.877 -0.9000  0.9927  0.2632
  116MOL0     H15647  10.617   7.354   1.917 -0.1994  0.8070 -2.4383
  116MOL0     H15648  10.960   7.189   2.097  0.2420 -2.9937 -2.0493
  116MOL0     H15649  11.144   7.050   2.072 -1.1644 -0.5920 -2.3152
  116MOL0     H15650  11.323   6.921   1.983 -0.2056 -0.2252  0.5182
  116MOL0     H15651  11.487   6.955   1.947  2.4538  2.4604  1.4829
  116MOL0     H15652  11.438   6.921   2.190 -0.5512 -0.7740 -1.4905
  116MOL0     H15653  11.341   7.066   2.187  0.3884 -0.1624 -0.5379
  116MOL0     H15654  11.511   7.200   2.150 -1.7412 -0.2064  2.3414
  116MOL0     H15655  11.640   7.091   2.098  1.5577  6.7856 -0.3055
  116MOL0     H15656  11.523   7.114   2.375  0.9432 -0.5104  1.3854
  116MOL0     H15657  11.672   7.170   2.338 -2.4850  1.8143  1.4248
  116MOL0     H15658  11.769   6.747   2.364 -1.8859 -0.7296  0.7855
  116MOL0     H15659  11.354   7.330   1.854 -0.5650 -2.4893 -0.8459
  116MOL0     H15660  11.149   7.489   1.842 -0.7141  0.5224  1.5665
  117MOL0     O15661   0.611   8.856   3.920  0.2722  0.1020 -0.0278
  117MOL0     C15662   0.593   8.735   3.925  0.5322  0.5926  0.0741
  117MOL0     O15663   0.481   8.677   3.977 -0.0065  0.3499  0.1862
  117MOL0     C15664   0.376   8.748   4.024 -0.2016  0.2428  1.3158
  117MOL0     C15665   0.253   8.701   3.981  0.7007  0.4675  0.1918
  117MOL0     C15666   0.130   8.756   4.023 -0.1077  0.0243  1.2194
  117MOL0     C15667   0.140   8.876   4.092  0.3036  0.1417  1.0288
  117MOL0     O15668   0.026   8.943   4.098  0.1534 -0.5302  0.0711
  117MOL0     C15669  -0.001   9.026   4.218 -0.2841 -0.1565  0.7073
  117MOL0     C15670  -0.147   9.073   4.202  0.4334 -0.8749 -0.5209
  117MOL0     C15671  -0.183   9.125   4.344 -0.3366 -0.1197  0.0618
  117MOL0     C15672  -0.327   9.181   4.339  0.3370  0.5443  0.0017
  117MOL0     C15673  -0.394   9.189   4.474 -0.0299  0.3775  0.0786
  117MOL0     C15674  -0.545   9.213   4.463  0.1590 -0.0092  0.5114
  117MOL0     C15675  -0.614   9.213   4.602  0.2896 -0.5387 -0.5467
  117MOL0     C15676  -0.616   9.078   4.688 -0.8741 -0.5817  0.1268
  117MOL0     N15677  -0.731   9.064   4.778  0.3014 -0.0828 -0.6921
  117MOL0     C15678  -0.824   8.957   4.772  0.0010 -0.6129 -0.0350
  117MOL0     C15679  -0.915   8.987   4.865  0.4118  0.4362 -0.2823
  117MOL0     C15680  -1.027   8.884   4.900  0.0602  0.5397 -0.3601
  117MOL0     C15681  -1.161   8.942   4.941  0.8591 -0.9141 -0.2097
  117MOL0     C15682  -1.269   8.839   4.951 -0.1659 -0.0578  0.8787
  117MOL0     C15683  -1.402   8.897   4.995  0.1457 -0.1917 -0.1253
  117MOL0     O15684  -1.489   8.787   5.009 -0.2376 -0.5143 -0.4210
  117MOL0     C15685  -1.620   8.804   4.992 -0.0377 -1.1539  0.2694
  117MOL0     C15686  -1.684   8.928   5.014  0.2166  0.4114  0.3337
  117MOL0     C15687  -1.828   8.936   5.014 -0.5950 -0.4298 -0.2761
  117MOL0     C15688  -1.886   9.064   5.076 -0.1188 -0.0171  0.0781
  117MOL0     C15689  -1.906   8.820   4.968  0.3940 -0.7495 -0.7606
  117MOL0     C15690  -2.057   8.818   4.962  0.5838  0.1651 -0.7458
  117MOL0     O15691  -2.111   8.718   4.892  0.9443  0.3400 -0.1259
  117MOL0     C15692  -2.247   8.715   4.857 -0.1009 -0.2767 -1.1666
  117MOL0     C15693  -2.296   8.804   4.771 -0.8071  0.2888 -0.2816
  117MOL0     C15694  -2.431   8.798   4.734  0.5943 -0.0536  0.3892
  117MOL0     C15695  -2.520   8.707   4.793 -0.9756 -0.1062 -0.9776
  117MOL0     O15696  -2.650   8.721   4.764  0.7253  0.0904  0.2362
  117MOL0     C15697  -2.746   8.636   4.827 -0.0169 -0.6195 -0.6372
  117MOL0     C15698  -2.856   8.627   4.715 -0.6723  0.3637 -0.7994
  117MOL0     C15699  -2.964   8.733   4.718 -0.3166 -0.0144  0.0900
  117MOL0     C15700  -3.066   8.736   4.599  0.3074 -0.3597 -0.0044
  117MOL0     C15701  -2.995   8.781   4.472  0.1374 -0.0827 -0.1118
  117MOL0     C15702  -3.088   8.797   4.347  0.7203  1.0474  0.4155
  117MOL0     C15703  -3.142   8.659   4.291 -1.0076  0.1158 -0.0278
  117MOL0     C15704  -3.266   8.613   4.361  0.6068  0.0402 -0.3329
  117MOL0    Cl15705  -3.411   8.712   4.315  0.1447 -0.1272 -0.2885
  117MOL0     C15706  -2.465   8.624   4.895 -0.9234 -0.0233 -0.3017
  117MOL0     C15707  -2.323   8.626   4.922  1.1468 -0.2026 -0.1229
  117MOL0     O15708  -2.123   8.911   5.007  0.3125  0.7483  0.5656
  117MOL0     C15709  -1.834   8.708   4.935 -0.3550 -1.1876 -0.2854
  117MOL0     C15710  -1.699   8.695   4.952 -0.0730 -0.4781  0.5415
  117MOL0     N15711  -0.883   9.108   4.926  0.9320 -0.0102  0.8611
  117MOL0     N15712  -0.775   9.155   4.878  0.4416  0.5302 -0.2452
  117MOL0     C15713   0.266   8.931   4.135  0.4086 -1.0475 -0.0902
  117MOL0     C15714   0.383   8.862   4.099  0.3285 -0.3525 -0.0272
  117MOL0     C15715   0.699   8.650   3.864  0.6792 -0.5707  0.4265
  117MOL0     C15716   0.818   8.700   3.825 -0.9521 -0.1593  0.0448
  117MOL0     C15717   0.914   8.614   3.775  0.4920 -0.7074 -0.1460
  117MOL0     C15718   0.883   8.487   3.740 -0.2731  0.1970 -0.0730
  117MOL0     O15719   0.979   8.414   3.669 -0.4231 -0.2506  0.0745
  117MOL0     C15720   0.960   8.263   3.667 -0.0218 -0.1997  0.1764
  117MOL0     C15721   0.900   8.208   3.546 -0.7306  0.6860 -0.8855
  117MOL0     C15722   0.961   8.259   3.417 -0.0616  0.8127  0.7016
  117MOL0     C15723   1.112   8.206   3.394 -0.3892 -0.0451  0.4335
  117MOL0     C15724   1.109   8.061   3.383 -0.2839 -0.0738 -0.2569
  117MOL0     C15725   1.099   7.940   3.367 -0.5839  0.5435  1.0497
  117MOL0     C15726   0.760   8.433   3.769 -0.3964 -0.3525 -0.5285
  117MOL0     C15727   0.671   8.510   3.842 -0.2586 -0.0724 -0.0173
  117MOL0     H15728   0.246   8.625   3.904 -0.4905 -1.5740  2.1971
  117MOL0     H15729   0.031   8.716   4.008 -1.2396  2.4696  1.6833
  117MOL0     H15730   0.010   8.978   4.316  1.5564 -1.6353 -0.1596
  117MOL0     H15731   0.072   9.108   4.223 -1.3334  0.8230  0.2699
  117MOL0     H15732  -0.143   9.155   4.129 -0.3223  1.0492  1.4989
  117MOL0     H15733  -0.209   8.989   4.170 -1.0146 -0.2859  0.6111
  117MOL0     H15734  -0.165   9.052   4.424  1.2274  1.9049  1.6607
  117MOL0     H15735  -0.131   9.215   4.376 -2.0834  0.9799 -0.0757
  117MOL0     H15736  -0.330   9.282   4.297 -1.2123  0.9226  0.9575
  117MOL0     H15737  -0.397   9.115   4.287  0.7554 -0.8484  1.1585
  117MOL0     H15738  -0.388   9.099   4.536  1.0735  1.7926  2.1386
  117MOL0     H15739  -0.358   9.281   4.522 -0.6027  1.5707 -1.6967
  117MOL0     H15740  -0.551   9.302   4.400 -0.1443 -0.5430 -0.2353
  117MOL0     H15741  -0.583   9.134   4.397  2.4375 -0.2464 -0.6227
  117MOL0     H15742  -0.577   9.296   4.663  0.4213 -0.9297 -0.0873
  117MOL0     H15743  -0.720   9.237   4.592  0.5600  2.8541  2.4510
  117MOL0     H15744  -0.518   9.055   4.731 -0.4648  0.5756 -0.1544
  117MOL0     H15745  -0.634   9.003   4.611 -0.6980  1.3561 -1.8926
  117MOL0     H15746  -0.808   8.869   4.712 -0.4358  0.5751 -1.9790
  117MOL0     H15747  -1.038   8.829   4.806  0.0719 -0.7513  0.3675
  117MOL0     H15748  -0.987   8.813   4.974  1.8068  1.5971 -0.2384
  117MOL0     H15749  -1.197   9.014   4.868  1.8989 -1.1589 -0.9913
  117MOL0     H15750  -1.147   8.994   5.036  3.7587  0.4343 -1.2676
  117MOL0     H15751  -1.225   8.763   5.016 -1.0979 -2.4368 -1.1400
  117MOL0     H15752  -1.286   8.799   4.851 -0.8964 -0.8589  1.3072
  117MOL0     H15753  -1.437   8.969   4.920 -1.6236 -0.2332  0.6078
  117MOL0     H15754  -1.393   8.944   5.094 -1.4958 -1.5193  0.7013
  117MOL0     H15755  -1.629   9.017   5.043 -1.2921  1.1618  1.0157
  117MOL0     H15756  -1.924   9.054   5.177 -1.6217 -1.3128 -0.5809
  117MOL0     H15757  -1.806   9.138   5.084  0.0855  0.2412 -3.0174
  117MOL0     H15758  -1.963   9.104   5.009 -0.1634  0.8187  0.6172
  117MOL0     H15759  -2.233   8.882   4.728 -0.8830  1.6577  1.9102
  117MOL0     H15760  -2.465   8.876   4.666 -3.4501 -1.0210  1.0503
  117MOL0     H15761  -2.716   8.532   4.844  1.0876  0.1370  3.0089
  117MOL0     H15762  -2.774   8.682   4.922  1.1718 -1.6714  0.2615
  117MOL0     H15763  -2.808   8.614   4.618  0.6710 -0.5984 -0.0397
  117MOL0     H15764  -2.910   8.533   4.726 -0.5620  0.3064 -0.7495
  117MOL0     H15765  -2.920   8.833   4.731 -0.1185 -0.4711  4.3594
  117MOL0     H15766  -3.020   8.716   4.810  1.6352 -1.1157  1.1455
  117MOL0     H15767  -3.102   8.632   4.605  0.4391 -0.3641  0.9294
  117MOL0     H15768  -3.152   8.798   4.625 -1.3091 -2.3748 -0.2495
  117MOL0     H15769  -2.918   8.705   4.456  1.2399  0.9748 -0.0185
  117MOL0     H15770  -2.951   8.878   4.496  0.4310  0.0139 -0.9881
  117MOL0     H15771  -3.168   8.864   4.377  0.2484  0.7903 -0.2392
  117MOL0     H15772  -3.029   8.848   4.269  0.7043  0.7450  0.2037
  117MOL0     H15773  -3.066   8.582   4.302  1.0695  2.3341  2.5981
  117MOL0     H15774  -3.164   8.671   4.184  2.9868  0.1955 -0.9872
  117MOL0     H15775  -3.239   8.605   4.467  2.3168 -2.2260 -0.8624
  117MOL0     H15776  -3.299   8.518   4.318 -5.1701  3.6381 -5.5519
  117MOL0     H15777  -2.525   8.541   4.933  0.7248 -1.1067  0.0103
  117MOL0     H15778  -2.277   8.560   4.995  0.0802  1.2583  1.9248
  117MOL0     H15779  -1.891   8.624   4.895  0.9357 -2.6652  0.8537
  117MOL0     H15780  -1.646   8.608   4.916  0.6860 -0.2242  1.0126
  117MOL0     H15781   0.288   9.019   4.195  1.5146 -2.7537  2.1544
  117MOL0     H15782   0.484   8.883   4.134  1.2748  0.0782 -2.7143
  117MOL0     H15783   0.839   8.805   3.846 -0.5390 -0.0649 -0.8229
  117MOL0     H15784   1.014   8.644   3.745 -0.1687 -0.1189 -1.9070
  117MOL0     H15785   1.057   8.221   3.692 -0.8109 -2.5898 -0.5241
  117MOL0     H15786   0.906   8.235   3.758 -5.0486  0.0213 -2.3349
  117MOL0     H15787   0.798   8.247   3.544 -0.8218  0.4639 -2.8442
  117MOL0     H15788   0.900   8.099   3.555 -2.3107  0.8146  1.4132
  117MOL0     H15789   0.941   8.365   3.399 -4.0056  0.8499  3.9137
  117MOL0     H15790   0.913   8.217   3.329 -2.2965  0.3563  2.0684
  117MOL0     H15791   1.173   8.229   3.482  4.4726 -3.4864 -1.5180
  117MOL0     H15792   1.153   8.250   3.303 -1.0576  2.2283  1.1821
  117MOL0     H15793   1.091   7.835   3.346 -2.3396 -0.1617  4.5443
  117MOL0     H15794   0.724   8.335   3.738  0.8408 -0.4812 -1.6443
  117MOL0     H15795   0.577   8.468   3.877  1.1095 -2.7859  0.7163
  118MOL0     O15796   2.742   0.750   6.159  0.4667 -0.0427  0.2481
  118MOL0     C15797   2.776   0.866   6.176 -0.7048 -0.0608  0.5071
  118MOL0     O15798   2.893   0.917   6.142 -0.0748  0.0804 -0.1017
  118MOL0     C15799   2.999   0.831   6.121  0.3217  0.6335 -0.6063
  118MOL0     C15800   3.035   0.728   6.198 -0.3001  0.0241  0.3042
  118MOL0     C15801   3.135   0.640   6.157 -0.4145 -0.6366  0.7556
  118MOL0     C15802   3.218   0.666   6.045  0.8098 -0.6048 -0.3507
  118MOL0     O15803   3.307   0.568   6.016 -0.0905 -0.1796 -0.2497
  118MOL0     C15804   3.407   0.578   5.905 -0.2695 -0.3327 -1.8326
  118MOL0     C15805   3.520   0.476   5.918 -0.0557  0.9667 -0.2263
  118MOL0     C15806   3.599   0.488   6.055 -0.6025  1.2188  0.6873
  118MOL0     C15807   3.736   0.410   6.052  1.0314  0.3538  0.1546
  118MOL0     C15808   3.708   0.266   6.016  0.2672 -0.3477  0.0168
  118MOL0     C15809   3.831   0.181   6.037  0.1207  0.8425 -0.0766
  118MOL0     C15810   3.874   0.159   6.183  0.3611 -0.7245  0.3396
  118MOL0     C15811   3.810   0.047   6.264 -0.2905  1.1830 -0.6901
  118MOL0     N15812   3.859   0.037   6.404  0.0021  0.3032  0.0733
  118MOL0     C15813   3.908   0.141   6.482  0.2825  1.1215  0.9500
  118MOL0     C15814   3.883   0.089   6.601 -0.9285 -0.6845  0.0777
  118MOL0     C15815   3.920   0.145   6.732  0.3059 -0.5357 -0.3497
  118MOL0     C15816   3.926   0.032   6.847 -0.5425 -0.2968 -0.0334
  118MOL0     C15817   4.045  -0.060   6.813 -0.7828  0.5292  0.5098
  118MOL0     C15818   4.131  -0.099   6.929 -0.3732 -0.5405 -0.2210
  118MOL0     O15819   4.092  -0.200   7.023  0.2549  0.4723 -0.5856
  118MOL0     C15820   4.176  -0.233   7.126  0.0972  0.1472 -0.1357
  118MOL0     C15821   4.310  -0.181   7.149  0.4564 -0.0641  0.4764
  118MOL0     C15822   4.397  -0.231   7.245 -0.1638  0.4862  0.4504
  118MOL0     C15823   4.511  -0.143   7.275 -0.2361 -0.6875  0.0154
  118MOL0     C15824   4.355  -0.349   7.307 -0.4794 -0.6964  0.1485
  118MOL0     C15825   4.427  -0.405   7.420 -1.8640 -0.2784  0.2851
  118MOL0     O15826   4.574  -0.398   7.410 -0.2396 -0.4594  0.5862
  118MOL0     C15827   4.653  -0.470   7.492 -0.1412 -0.6276 -0.5538
  118MOL0     C15828   4.636  -0.607   7.525 -0.1530  0.1477  0.1965
  118MOL0     C15829   4.733  -0.689   7.597  0.8384 -0.3863 -0.5289
  118MOL0     C15830   4.843  -0.627   7.647  0.6981 -0.4544  0.3069
  118MOL0     O15831   4.928  -0.693   7.725  0.5797 -1.1764  0.6434
  118MOL0     C15832   5.064  -0.646   7.741 -0.5583  0.0357  0.4346
  118MOL0     C15833   5.161  -0.765   7.738  0.6315 -1.2777  0.3023
  118MOL0     C15834   5.308  -0.726   7.774 -0.2615  0.1020 -0.1377
  118MOL0     C15835   5.359  -0.590   7.720 -0.2714  0.1225 -0.6335
  118MOL0     C15836   5.516  -0.569   7.694 -1.0361  0.2920  0.4094
  118MOL0     C15837   5.558  -0.607   7.545  0.0632  0.9003  0.1772
  118MOL0     C15838   5.717  -0.610   7.524  0.3693 -0.7361  0.4123
  118MOL0     C15839   5.769  -0.462   7.542 -0.2667  0.2761  0.1666
  118MOL0    Cl15840   5.927  -0.415   7.452  0.3951  0.1225 -0.1064
  118MOL0     C15841   4.863  -0.492   7.600  0.2082 -0.2557 -0.2180
  118MOL0     C15842   4.768  -0.420   7.529  0.2419  0.5094  0.6170
  118MOL0     O15843   4.370  -0.462   7.512  1.0911 -0.9680 -1.1275
  118MOL0     C15844   4.225  -0.405   7.284 -1.1429  0.0720  0.3091
  118MOL0     C15845   4.141  -0.354   7.192 -0.9617  0.3170  1.4655
  118MOL0     N15846   3.825  -0.035   6.595  0.0417  0.6663  0.5992
  118MOL0     N15847   3.806  -0.060   6.475 -0.4848 -0.3595 -0.3741
  118MOL0     C15848   3.196   0.781   5.973  0.3333  0.6731 -0.7863
  118MOL0     C15849   3.081   0.863   6.015 -0.7159 -0.1968 -0.3098
  118MOL0     C15850   2.678   0.959   6.223  0.3992 -1.0514  0.9530
  118MOL0     C15851   2.694   1.097   6.198 -0.3741  0.2974  1.2365
  118MOL0     C15852   2.595   1.192   6.219 -0.9754  0.4187  0.9328
  118MOL0     C15853   2.478   1.153   6.281  0.5767 -0.3792  0.1933
  118MOL0     O15854   2.375   1.240   6.309  0.2969 -0.3186  0.3068
  118MOL0     C15855   2.389   1.378   6.315 -0.2483 -0.4498  0.3905
  118MOL0     C15856   2.297   1.447   6.418 -0.2815 -0.7920 -0.1453
  118MOL0     C15857   2.338   1.392   6.557  0.4174  0.0222 -0.4730
  118MOL0     C15858   2.255   1.449   6.665 -0.0334 -0.4025  0.0376
  118MOL0     C15859   2.297   1.385   6.792  1.0986 -0.0846 -0.6348
  118MOL0     C15860   2.312   1.346   6.905  0.6594  0.0326  0.3476
  118MOL0     C15861   2.460   1.018   6.314  0.2399  0.5326 -0.7316
  118MOL0     C15862   2.556   0.923   6.279 -0.2190 -0.3874  0.7980
  118MOL0     H15863   2.975   0.702   6.285 -2.6357  3.7733  0.0567
  118MOL0     H15864   3.153   0.549   6.214  2.2313  0.7763  2.4016
  118MOL0     H15865   3.364   0.571   5.804 -1.6052 -2.1359 -1.1831
  118MOL0     H15866   3.456   0.675   5.909  1.8338 -1.3655  0.9900
  118MOL0     H15867   3.469   0.380   5.913  0.1594  0.7434  1.4528
  118MOL0     H15868   3.590   0.486   5.835 -0.5643 -2.5275 -1.2457
  118MOL0     H15869   3.621   0.594   6.065 -0.5448  1.2129  0.6259
  118MOL0     H15870   3.545   0.460   6.146 -0.5690 -0.0818  0.3398
  118MOL0     H15871   3.794   0.458   5.972 -3.1492  3.0198 -1.6132
  118MOL0     H15872   3.781   0.419   6.151 -2.2718 -0.8108  1.8979
  118MOL0     H15873   3.624   0.231   6.077 -0.5647 -0.1753 -1.0093
  118MOL0     H15874   3.679   0.263   5.911  1.1512  1.4885 -0.3080
  118MOL0     H15875   3.821   0.084   5.988  1.9934 -1.6605  3.9642
  118MOL0     H15876   3.918   0.228   5.990  2.4272 -1.6982  1.3111
  118MOL0     H15877   3.975   0.120   6.167  0.8738  1.2346 -1.6190
  118MOL0     H15878   3.876   0.253   6.238 -0.1672  0.5012 -1.6514
  118MOL0     H15879   3.833  -0.047   6.214 -2.7319 -0.4242  1.0288
  118MOL0     H15880   3.702   0.062   6.259 -0.4213  0.4889 -0.0583
  118MOL0     H15881   3.959   0.231   6.447 -1.5216  0.9893 -2.5591
  118MOL0     H15882   4.018   0.192   6.727  0.4286 -0.8418 -1.0095
  118MOL0     H15883   3.846   0.218   6.765 -2.4568 -2.3718 -2.0229
  118MOL0     H15884   3.840  -0.035   6.854 -0.3077 -0.5007  1.2360
  118MOL0     H15885   3.935   0.081   6.944 -2.4820 -1.6080  0.8762
  118MOL0     H15886   4.104  -0.001   6.742 -2.4431  0.7181 -0.7665
  118MOL0     H15887   3.999  -0.145   6.762 -2.9980  2.9203 -1.8053
  118MOL0     H15888   4.152  -0.012   6.991  0.0610  0.1349 -1.2836
  118MOL0     H15889   4.227  -0.133   6.889  0.6559  1.5627  0.3258
  118MOL0     H15890   4.357  -0.101   7.093  0.7576  1.3113  2.5889
  118MOL0     H15891   4.510  -0.042   7.233 -1.9952  1.3702  4.3618
  118MOL0     H15892   4.523  -0.124   7.382  0.4291  0.2496 -0.2174
  118MOL0     H15893   4.599  -0.191   7.230 -0.0154  4.0523 -5.8220
  118MOL0     H15894   4.543  -0.650   7.488  1.9041 -3.9454 -0.8083
  118MOL0     H15895   4.719  -0.796   7.606  0.6330 -0.5314 -2.1977
  118MOL0     H15896   5.108  -0.587   7.659  1.4384 -0.9911  0.7228
  118MOL0     H15897   5.083  -0.588   7.831 -0.1179  1.0662 -0.2943
  118MOL0     H15898   5.117  -0.838   7.807  0.2280 -1.2712  0.0522
  118MOL0     H15899   5.155  -0.804   7.636  1.1466  1.1043 -0.6924
  118MOL0     H15900   5.373  -0.809   7.746 -0.2787 -1.3842  3.7280
  118MOL0     H15901   5.326  -0.725   7.881  1.8270 -0.3341 -0.4446
  118MOL0     H15902   5.312  -0.568   7.623 -1.1638  1.1380  0.0072
  118MOL0     H15903   5.329  -0.509   7.788  2.2531 -0.7878  1.7206
  118MOL0     H15904   5.576  -0.627   7.765 -0.8863 -1.5882 -1.1525
  118MOL0     H15905   5.539  -0.464   7.710 -1.1193  0.3975 -0.1505
  118MOL0     H15906   5.528  -0.710   7.526  0.0109  0.8053  0.7540
  118MOL0     H15907   5.511  -0.545   7.468  1.4165 -0.2431 -1.6336
  118MOL0     H15908   5.729  -0.637   7.418 -2.0848  0.2839 -0.1790
  118MOL0     H15909   5.768  -0.678   7.593  0.3807 -2.7865 -1.4933
  118MOL0     H15910   5.797  -0.444   7.647  0.4616 -1.7972  0.3681
  118MOL0     H15911   5.691  -0.401   7.495 -0.4945 -0.7520 -0.8077
  118MOL0     H15912   4.950  -0.429   7.617 -0.4150  0.4594  0.3774
  118MOL0     H15913   4.792  -0.329   7.475 -4.6595  1.0296 -1.1978
  118MOL0     H15914   4.200  -0.492   7.344  1.8581  0.5707  2.5164
  118MOL0     H15915   4.052  -0.406   7.157  0.0249 -1.6562  1.7904
  118MOL0     H15916   3.276   0.809   5.906  0.3354 -0.8689 -1.4767
  118MOL0     H15917   3.063   0.962   5.974  0.9801  0.4341  0.3900
  118MOL0     H15918   2.790   1.132   6.160 -0.8470  1.7414  1.2880
  118MOL0     H15919   2.624   1.291   6.184  1.0247 -0.4339 -0.0318
  118MOL0     H15920   2.492   1.411   6.332  1.3593 -4.8828  0.5677
  118MOL0     H15921   2.364   1.414   6.214  2.7630 -1.7430 -0.9357
  118MOL0     H15922   2.192   1.441   6.387 -0.2021 -1.0552 -0.3729
  118MOL0     H15923   2.330   1.551   6.426  1.8813 -1.3447 -0.9802
  118MOL0     H15924   2.443   1.413   6.574  2.5327 -5.5970 -3.8779
  118MOL0     H15925   2.332   1.283   6.549  3.1343 -0.0700 -2.4159
  118MOL0     H15926   2.154   1.422   6.634 -0.8960  0.5454  1.8511
  118MOL0     H15927   2.281   1.555   6.665  3.6255 -1.1334 -1.5666
  118MOL0     H15928   2.311   1.298   7.001 -0.8027  2.9731  1.9522
  118MOL0     H15929   2.375   0.975   6.367  1.7943  0.8056  2.1697
  118MOL0     H15930   2.535   0.817   6.291 -2.7298  0.2404  3.0977
  119MOL0     O15931   8.896   6.160  11.010 -0.7170  0.6417 -0.6618
  119MOL0     C15932   8.918   6.143  11.128 -0.5107  0.3139 -0.6356
  119MOL0     O15933   8.827   6.094  11.217 -0.1802  0.0171 -0.2387
  119MOL0     C15934   8.701   6.086  11.163  0.3264  0.1946 -0.0978
  119MOL0     C15935   8.608   6.185  11.178 -0.6427 -0.9293 -0.0967
  119MOL0     C15936   8.475   6.164  11.129 -0.7030 -0.4831  0.5923
  119MOL0     C15937   8.433   6.032  11.087  0.5169  0.1509  0.1386
  119MOL0     O15938   8.311   6.024  11.026  0.5408  0.2606  0.1068
  119MOL0     C15939   8.260   5.892  11.005 -0.0663 -0.3606 -0.9229
  119MOL0     C15940   8.123   5.894  10.932 -0.6262  0.1293 -0.1326
  119MOL0     C15941   8.058   5.764  10.905 -0.4751 -0.4313 -0.8317
  119MOL0     C15942   7.938   5.805  10.811 -0.5841 -0.0284 -0.6281
  119MOL0     C15943   7.858   5.686  10.772 -0.1555  0.7385 -0.1060
  119MOL0     C15944   7.786   5.625  10.893 -1.2390 -0.1726  0.5653
  119MOL0     C15945   7.680   5.521  10.845  0.2092 -0.2497  0.1725
  119MOL0     C15946   7.738   5.374  10.857  0.5366 -0.0959  0.3979
  119MOL0     N15947   7.636   5.267  10.841  0.3716 -0.4767 -0.4588
  119MOL0     C15948   7.522   5.257  10.916 -0.8113 -0.6572  0.4594
  119MOL0     C15949   7.462   5.162  10.844 -0.3941  0.4504 -1.2519
  119MOL0     C15950   7.316   5.126  10.882 -1.0127 -0.3176  0.8716
  119MOL0     C15951   7.217   5.155  10.774  0.9289  0.3365  0.1373
  119MOL0     C15952   7.247   5.287  10.709 -0.4578  0.3302  1.2923
  119MOL0     C15953   7.118   5.344  10.645 -0.2364 -0.1739  1.0135
  119MOL0     O15954   7.153   5.474  10.591  0.5675  0.6087 -0.2119
  119MOL0     C15955   7.047   5.555  10.551  0.9894 -0.2545 -0.3218
  119MOL0     C15956   6.916   5.520  10.576  1.0440 -0.0323  0.9204
  119MOL0     C15957   6.793   5.573  10.536 -1.2190 -0.2843  0.1108
  119MOL0     C15958   6.668   5.497  10.558 -0.0543 -0.5062  0.1104
  119MOL0     C15959   6.808   5.693  10.456  0.4284 -0.6546 -0.9990
  119MOL0     C15960   6.693   5.778  10.405 -0.2329  0.0681 -0.1384
  119MOL0     O15961   6.583   5.788  10.484 -0.1804 -0.2033  0.4015
  119MOL0     C15962   6.482   5.884  10.456 -0.3193  0.2816 -0.5189
  119MOL0     C15963   6.510   6.018  10.424 -0.9184 -0.1902  0.6542
  119MOL0     C15964   6.406   6.107  10.400 -0.4224 -0.3244  0.2034
  119MOL0     C15965   6.272   6.063  10.413 -0.3597  0.1380 -0.3188
  119MOL0     O15966   6.167   6.147  10.387  0.1848  0.1016  0.0458
  119MOL0     C15967   6.165   6.231  10.275  0.3430 -0.1060  0.1111
  119MOL0     C15968   6.058   6.337  10.288  0.2007  0.0401 -0.2222
  119MOL0     C15969   5.926   6.280  10.305  1.1373  0.2242  0.7972
  119MOL0     C15970   5.828   6.399  10.328  0.6988  0.0436 -1.0080
  119MOL0     C15971   5.679   6.359  10.354 -0.5385 -0.6053 -0.1139
  119MOL0     C15972   5.649   6.295  10.486  0.0110  0.7598 -0.2643
  119MOL0     C15973   5.499   6.250  10.482  0.1890  0.6500  0.1578
  119MOL0     C15974   5.410   6.369  10.511 -0.5461 -0.3130 -0.7291
  119MOL0    Cl15975   5.243   6.317  10.535  0.3914 -0.2103  0.1782
  119MOL0     C15976   6.248   5.934  10.451 -0.1454 -0.0521 -0.3868
  119MOL0     C15977   6.352   5.846  10.472  0.3230 -0.3470  0.3854
  119MOL0     O15978   6.706   5.835  10.297  0.4265  0.2691  0.2617
  119MOL0     C15979   6.938   5.749  10.442 -0.3364  0.8449  0.4950
  119MOL0     C15980   7.053   5.681  10.484  0.4189  0.0147  0.6782
  119MOL0     N15981   7.539   5.099  10.751  0.0562  0.6181 -0.1009
  119MOL0     N15982   7.650   5.162  10.754 -0.0823 -0.1184 -0.2102
  119MOL0     C15983   8.526   5.923  11.087  0.0580 -0.1391  0.5444
  119MOL0     C15984   8.657   5.952  11.124  0.3044  0.3724  0.4530
  119MOL0     C15985   9.061   6.154  11.174  0.6760  1.1882  0.2779
  119MOL0     C15986   9.165   6.197  11.090  0.3049 -0.6895 -0.1395
  119MOL0     C15987   9.296   6.173  11.125 -0.0551 -0.9774  0.3624
  119MOL0     C15988   9.329   6.123  11.248 -0.7536 -0.2311 -0.0325
  119MOL0     O15989   9.464   6.095  11.273 -0.5689  0.1570 -0.5451
  119MOL0     C15990   9.506   6.075  11.408  0.6039 -0.6245 -0.3616
  119MOL0     C15991   9.666   6.076  11.399 -0.5229 -1.0106  0.0743
  119MOL0     C15992   9.733   6.213  11.355 -0.0600 -0.2128  0.1635
  119MOL0     C15993   9.882   6.210  11.328  0.0699 -0.2383  1.4659
  119MOL0     C15994   9.960   6.162  11.444  0.2521  0.2257  0.7193
  119MOL0     C15995  10.006   6.110  11.547  0.7966  0.1683  0.6495
  119MOL0     C15996   9.229   6.104  11.339  0.9042  0.1129  0.5887
  119MOL0     C15997   9.097   6.108  11.298  0.0830  0.9169  0.0685
  119MOL0     H15998   8.634   6.277  11.230 -1.5497 -0.4133 -0.5373
  119MOL0     H15999   8.397   6.238  11.141  0.4514  0.6471  1.3088
  119MOL0     H16000   8.336   5.840  10.947  2.7785  1.2854  1.1111
  119MOL0     H16001   8.239   5.856  11.106 -0.6661  0.2420 -0.8284
  119MOL0     H16002   8.057   5.953  10.996  2.3059  4.1799 -0.4856
  119MOL0     H16003   8.141   5.946  10.837 -1.0769  0.5024 -0.0135
  119MOL0     H16004   8.132   5.697  10.860  1.9304  0.3774  1.6851
  119MOL0     H16005   8.032   5.722  11.002  0.3508  0.3168 -0.2768
  119MOL0     H16006   7.876   5.885  10.852  1.0215 -0.7972  3.8725
  119MOL0     H16007   7.975   5.839  10.714  1.2331 -0.6469 -0.1926
  119MOL0     H16008   7.784   5.711  10.696 -1.5762 -3.2643 -0.2692
  119MOL0     H16009   7.930   5.624  10.719 -0.8512  0.5632 -0.8725
  119MOL0     H16010   7.860   5.571  10.953 -0.7860 -0.2338 -0.0542
  119MOL0     H16011   7.757   5.711  10.955  4.4619  2.6187 -0.0742
  119MOL0     H16012   7.595   5.543  10.910  0.7689  0.3843  0.7088
  119MOL0     H16013   7.654   5.525  10.739 -0.7953 -0.2636  0.4086
  119MOL0     H16014   7.783   5.351  10.954 -0.2396  3.9376  1.9042
  119MOL0     H16015   7.816   5.352  10.784 -1.7173 -1.1146 -1.8432
  119MOL0     H16016   7.485   5.313  11.002 -0.5953 -0.7682  0.6252
  119MOL0     H16017   7.295   5.021  10.903 -4.2289 -0.2619 -1.2877
  119MOL0     H16018   7.286   5.179  10.973 -0.1457 -0.5887  1.3254
  119MOL0     H16019   7.116   5.155  10.817  0.8387 -2.1935  0.0458
  119MOL0     H16020   7.224   5.067  10.710  3.2496  0.6424 -0.1060
  119MOL0     H16021   7.310   5.284  10.619 -1.4322  4.4888  0.2668
  119MOL0     H16022   7.295   5.356  10.777  0.7322  1.9315 -1.0306
  119MOL0     H16023   7.048   5.357  10.727 -1.3578  1.6644 -0.1607
  119MOL0     H16024   7.078   5.275  10.570  0.5121 -1.7834  2.0506
  119MOL0     H16025   6.890   5.436  10.639  0.9614  0.0581  1.0062
  119MOL0     H16026   6.690   5.392  10.578 -0.4608 -1.2469 -2.7746
  119MOL0     H16027   6.608   5.551  10.632 -2.3039  0.3281 -2.1544
  119MOL0     H16028   6.616   5.498  10.461 -1.1927 -2.1520  0.6506
  119MOL0     H16029   6.610   6.059  10.423 -0.5431 -1.0856 -0.5240
  119MOL0     H16030   6.439   6.210  10.391  0.2430 -0.2348  2.8434
  119MOL0     H16031   6.253   6.296  10.276 -0.2372  0.6927  0.6444
  119MOL0     H16032   6.166   6.175  10.181 -0.4905  0.7602 -0.4403
  119MOL0     H16033   6.082   6.398  10.375  0.1597 -2.4653  1.6564
  119MOL0     H16034   6.060   6.397  10.197  0.7241  0.8699  0.3210
  119MOL0     H16035   5.920   6.216  10.393 -1.4392  0.0845  0.6113
  119MOL0     H16036   5.903   6.212  10.222  0.3670  1.3363  0.0633
  119MOL0     H16037   5.855   6.455  10.418  0.4653 -1.0501 -0.2207
  119MOL0     H16038   5.823   6.458  10.237 -0.2479 -2.0968 -2.4353
  119MOL0     H16039   5.663   6.291  10.270 -1.4347  0.6261 -0.9703
  119MOL0     H16040   5.614   6.446  10.345  1.0076  0.7530  1.1550
  119MOL0     H16041   5.711   6.206  10.501  0.0803  1.1069  1.8211
  119MOL0     H16042   5.671   6.357  10.573  3.1615 -0.6537  0.0709
  119MOL0     H16043   5.475   6.174  10.557 -1.0621 -0.5259 -1.3457
  119MOL0     H16044   5.477   6.199  10.387 -0.7268  0.1081  0.6514
  119MOL0     H16045   5.419   6.433  10.423  4.1564  0.9241  0.4077
  119MOL0     H16046   5.430   6.427  10.602 -2.0326  0.1856 -0.6946
  119MOL0     H16047   6.144   5.904  10.450 -0.8830  2.2383 -2.0173
  119MOL0     H16048   6.334   5.740  10.483  0.9577 -0.3005  2.1773
  119MOL0     H16049   6.956   5.844  10.393  0.5558  1.7630  2.4688
  119MOL0     H16050   7.147   5.734  10.470 -0.6262  1.6754 -0.3227
  119MOL0     H16051   8.509   5.819  11.059  0.8213 -0.2894  0.6323
  119MOL0     H16052   8.730   5.872  11.128  0.8472  0.8152 -0.3475
  119MOL0     H16053   9.145   6.231  10.989  2.9381 -2.3216 -1.3087
  119MOL0     H16054   9.370   6.188  11.047 -0.2344  0.0785  0.3798
  119MOL0     H16055   9.464   6.157  11.467 -1.1344  0.5422 -3.0043
  119MOL0     H16056   9.460   5.979  11.436 -0.9987  0.2343  0.0868
  119MOL0     H16057   9.692   5.999  11.326 -0.4043 -0.3477 -0.5812
  119MOL0     H16058   9.707   6.046  11.496 -1.6874 -1.6369  0.3884
  119MOL0     H16059   9.734   6.279  11.442 -2.2939 -0.0854  0.1686
  119MOL0     H16060   9.689   6.263  11.269  0.3718  0.6425  0.4323
  119MOL0     H16061   9.922   6.311  11.314  2.7996 -1.6473 -4.3122
  119MOL0     H16062   9.905   6.156  11.236 -0.8351 -0.2516  1.2399
  119MOL0     H16063  10.033   6.057  11.637  0.1874 -2.0026 -0.3772
  119MOL0     H16064   9.252   6.062  11.437 -3.0642 -0.5593  1.4017
  119MOL0     H16065   9.019   6.064  11.359  0.3272 -2.4917 -1.8049
  120MOL0     O16066   8.562   0.901  11.012  0.3714 -0.5628  0.1127
  120MOL0     C16067   8.608   0.792  11.044  0.0585  0.5282  0.5821
  120MOL0     O16068   8.543   0.677  11.074  0.1845 -1.1021 -0.2852
  120MOL0     C16069   8.408   0.671  11.042  0.2632 -0.7838  0.4223
  120MOL0     C16070   8.353   0.701  10.916  0.1181  0.1754  0.2623
  120MOL0     C16071   8.217   0.693  10.893  0.6430 -0.7761 -0.1348
  120MOL0     C16072   8.129   0.659  11.002 -0.3003 -0.0407  1.2975
  120MOL0     O16073   7.990   0.664  10.983  0.5127 -0.3785  0.3177
  120MOL0     C16074   7.917   0.753  10.891 -1.1526  0.4105  0.1761
  120MOL0     C16075   7.878   0.884  10.946 -0.3986 -0.7853  0.5264
  120MOL0     C16076   7.810   0.975  10.837  0.5108 -0.0107 -0.0235
  120MOL0     C16077   7.762   1.107  10.904  0.0572  0.1007  0.4366
  120MOL0     C16078   7.685   1.205  10.813  0.5833 -0.1811  1.4827
  120MOL0     C16079   7.778   1.271  10.702  0.6292  0.3015 -0.1122
  120MOL0     C16080   7.693   1.366  10.618 -0.2113 -0.4037  0.4421
  120MOL0     C16081   7.680   1.500  10.688  1.0105  0.2971 -0.8354
  120MOL0     N16082   7.596   1.603  10.618 -0.4577  0.5056  0.1342
  120MOL0     C16083   7.645   1.693  10.529 -0.2779 -0.2203 -0.5636
  120MOL0     C16084   7.536   1.751  10.478  0.2275 -0.7724  0.0819
  120MOL0     C16085   7.521   1.844  10.365  0.5631  0.1874  0.2156
  120MOL0     C16086   7.621   1.833  10.247 -0.4625  0.9873  0.4629
  120MOL0     C16087   7.592   1.945  10.149  0.3929 -0.4075 -0.4751
  120MOL0     C16088   7.627   2.090  10.195 -0.1194  0.0349  0.4157
  120MOL0     O16089   7.767   2.089  10.248  0.0088  0.4721 -0.5707
  120MOL0     C16090   7.807   2.212  10.293 -1.0657 -0.4519  0.0697
  120MOL0     C16091   7.774   2.343  10.253  0.0194  0.1515  0.1468
  120MOL0     C16092   7.833   2.461  10.302 -0.5563  0.2470 -0.5596
  120MOL0     C16093   7.797   2.592  10.251  0.0999 -0.1843 -1.0777
  120MOL0     C16094   7.949   2.444  10.386  0.2611 -0.7196 -0.7809
  120MOL0     C16095   8.035   2.550  10.438 -0.1175 -0.1819 -1.1300
  120MOL0     O16096   8.154   2.506  10.497 -0.2142 -0.0529  0.4179
  120MOL0     C16097   8.238   2.601  10.560 -0.2738  0.3049  0.1327
  120MOL0     C16098   8.299   2.705  10.492 -0.0149  0.0183  0.5295
  120MOL0     C16099   8.387   2.794  10.562 -0.5414 -0.9450  0.1440
  120MOL0     C16100   8.410   2.790  10.696  0.7643 -0.1437 -0.0781
  120MOL0     O16101   8.492   2.886  10.759 -0.5716  0.2103  0.1819
  120MOL0     C16102   8.546   2.845  10.894 -0.4155  0.5216 -0.5407
  120MOL0     C16103   8.693   2.902  10.905  1.1177  0.2798  0.8720
  120MOL0     C16104   8.764   2.876  11.036  0.6458  0.7402  0.0553
  120MOL0     C16105   8.700   2.932  11.164  0.0757 -0.2116  0.2503
  120MOL0     C16106   8.800   2.920  11.285 -0.5486 -0.0947 -0.1618
  120MOL0     C16107   8.739   2.970  11.413  0.6681  0.6141 -0.0405
  120MOL0     C16108   8.607   2.891  11.454  0.0586  0.1847  0.2316
  120MOL0     C16109   8.558   2.939  11.591 -0.0132 -0.1699 -0.7327
  120MOL0    Cl16110   8.400   2.872  11.625  0.3692 -0.2690 -0.4477
  120MOL0     C16111   8.323   2.699  10.764  0.5196  1.2210 -0.4099
  120MOL0     C16112   8.248   2.603  10.699  0.1191 -0.2617  0.5363
  120MOL0     O16113   8.008   2.674  10.429  0.3352  0.8872  0.7287
  120MOL0     C16114   7.998   2.308  10.411 -0.3441 -0.2508 -0.4979
  120MOL0     C16115   7.926   2.198  10.366  0.2755  0.1393  0.3605
  120MOL0     N16116   7.422   1.693  10.537  0.4171 -0.4027 -0.5574
  120MOL0     N16117   7.465   1.602  10.613 -0.4658 -0.1819  0.5690
  120MOL0     C16118   8.180   0.630  11.125 -0.6336  0.6117  0.0947
  120MOL0     C16119   8.321   0.630  11.141 -1.0935  0.4450  0.0743
  120MOL0     C16120   8.749   0.778  11.059  0.4332 -0.9950 -0.3511
  120MOL0     C16121   8.821   0.660  11.073 -0.8588 -0.2506 -0.2940
  120MOL0     C16122   8.962   0.651  11.053  0.4464 -1.0716 -0.2329
  120MOL0     C16123   9.042   0.767  11.046  0.1812  0.1731 -0.5551
  120MOL0     O16124   9.180   0.779  11.032 -0.4283  0.0644 -0.2495
  120MOL0     C16125   9.276   0.675  11.052  1.0167  0.9276 -0.2862
  120MOL0     C16126   9.291   0.582  10.926 -0.1741  0.7015  0.2209
  120MOL0     C16127   9.407   0.493  10.930  0.1141 -0.1932 -0.3258
  120MOL0     C16128   9.377   0.370  10.841 -0.5613 -0.6736 -0.4501
  120MOL0     C16129   9.352   0.413  10.699  0.0039 -0.3708  0.2300
  120MOL0     C16130   9.313   0.447  10.589 -0.2785  0.3888 -0.9146
  120MOL0     C16131   8.978   0.889  11.049  0.8449  0.5445 -0.2485
  120MOL0     C16132   8.834   0.898  11.048  0.1929  0.0918 -0.1350
  120MOL0     H16133   8.424   0.731  10.840  0.9429 -0.3094  0.8255
  120MOL0     H16134   8.172   0.704  10.795  0.4742 -1.7487 -0.1787
  120MOL0     H16135   7.979   0.761  10.801  0.3098  0.3303  1.1539
  120MOL0     H16136   7.825   0.697  10.869 -0.0458 -0.7551 -1.7833
  120MOL0     H16137   7.801   0.860  11.021 -1.6545 -1.0263 -0.7954
  120MOL0     H16138   7.958   0.946  10.988 -1.4436  1.2154 -0.3290
  120MOL0     H16139   7.876   0.994  10.752 -1.4740  1.4900 -1.3122
  120MOL0     H16140   7.718   0.931  10.797  1.1360  0.8819 -2.6123
  120MOL0     H16141   7.689   1.077  10.979 -0.8372 -0.1079 -0.4892
  120MOL0     H16142   7.841   1.160  10.957 -0.2175  0.9058  0.0696
  120MOL0     H16143   7.612   1.140  10.765 -0.2111  1.4950  0.3293
  120MOL0     H16144   7.638   1.273  10.884  0.6760  1.2127  0.2495
  120MOL0     H16145   7.861   1.323  10.752  0.9267 -1.8289  1.7898
  120MOL0     H16146   7.821   1.191  10.641 -0.8538 -0.2085 -0.5381
  120MOL0     H16147   7.738   1.384  10.520 -2.3221 -1.0199 -0.6930
  120MOL0     H16148   7.599   1.316  10.597 -1.6411  2.3367 -0.0917
  120MOL0     H16149   7.773   1.543  10.726  0.7372 -1.5954  2.3436
  120MOL0     H16150   7.617   1.490  10.777  1.2379  2.3866 -0.3852
  120MOL0     H16151   7.744   1.703  10.486 -0.5136 -0.9490 -1.2919
  120MOL0     H16152   7.421   1.827  10.324  0.7557 -1.2026  0.2731
  120MOL0     H16153   7.521   1.942  10.414  4.7710  0.8707 -0.7303
  120MOL0     H16154   7.609   1.741  10.188 -0.9917  0.7313  0.9613
  120MOL0     H16155   7.726   1.842  10.277 -0.6264  3.3978  0.4672
  120MOL0     H16156   7.485   1.934  10.130  0.6080 -0.9162 -1.4077
  120MOL0     H16157   7.640   1.925  10.053  1.0963 -0.6028 -0.0888
  120MOL0     H16158   7.550   2.125  10.265 -2.0085 -1.3118 -0.8678
  120MOL0     H16159   7.624   2.150  10.103  0.7916 -0.1736  0.2419
  120MOL0     H16160   7.695   2.348  10.179 -0.7401 -1.2268  0.8154
  120MOL0     H16161   7.782   2.650  10.342  0.6218 -3.2621  1.1366
  120MOL0     H16162   7.883   2.629  10.193  0.6567 -1.3605 -1.0333
  120MOL0     H16163   7.706   2.586  10.192 -0.2963 -1.3786 -0.3758
  120MOL0     H16164   8.290   2.726  10.386  4.5836 -0.1012 -0.1132
  120MOL0     H16165   8.430   2.874  10.502  0.9836 -2.6976 -1.2401
  120MOL0     H16166   8.474   2.877  10.970 -3.2908  0.9004 -3.2115
  120MOL0     H16167   8.543   2.736  10.910 -3.4973  0.9670  3.9201
  120MOL0     H16168   8.750   2.850  10.828 -1.2625  1.6209 -2.0236
  120MOL0     H16169   8.685   3.008  10.878  0.3597  0.4926  1.8716
  120MOL0     H16170   8.860   2.928  11.030  1.0841  0.2792  2.2671
  120MOL0     H16171   8.798   2.773  11.050 -1.3362  0.2848  2.0611
  120MOL0     H16172   8.675   3.038  11.167 -1.4348 -0.5622  0.7504
  120MOL0     H16173   8.611   2.871  11.180 -0.1216 -0.0307 -0.1390
  120MOL0     H16174   8.891   2.976  11.260 -1.6834  0.2252 -4.2490
  120MOL0     H16175   8.834   2.818  11.306  1.8801  1.0398  1.9033
  120MOL0     H16176   8.820   2.951  11.484  0.4455 -0.5706 -0.0853
  120MOL0     H16177   8.712   3.076  11.410 -1.4259  0.1270  0.5282
  120MOL0     H16178   8.620   2.782  11.459 -0.5214  0.1381  0.9537
  120MOL0     H16179   8.531   2.896  11.376  0.1069 -3.4475 -0.2279
  120MOL0     H16180   8.534   3.046  11.585 -0.4260 -0.1233  1.0001
  120MOL0     H16181   8.627   2.920  11.674  0.5080 -2.2888 -1.5865
  120MOL0     H16182   8.314   2.693  10.872 -0.4162  2.2588 -0.4186
  120MOL0     H16183   8.189   2.533  10.758  0.4555 -1.0435 -0.0351
  120MOL0     H16184   8.090   2.284  10.463 -0.3659 -2.1213 -1.2433
  120MOL0     H16185   7.962   2.097  10.386  0.6130  0.0085 -0.8276
  120MOL0     H16186   8.109   0.589  11.197 -0.3591 -1.9786 -1.0073
  120MOL0     H16187   8.369   0.612  11.237 -2.2776  2.6258  1.1576
  120MOL0     H16188   8.777   0.563  11.089  1.3899 -1.3888 -0.5331
  120MOL0     H16189   8.998   0.548  11.057 -1.0309 -1.5862  0.4487
  120MOL0     H16190   9.373   0.718  11.080  1.5185 -0.4452  0.1508
  120MOL0     H16191   9.229   0.609  11.126 -0.9886  1.5080 -0.9815
  120MOL0     H16192   9.304   0.639  10.834  0.2046  1.8214  0.9539
  120MOL0     H16193   9.199   0.526  10.905 -0.3114 -0.1469  2.7568
  120MOL0     H16194   9.435   0.472  11.034  2.6076  1.9351 -0.4642
  120MOL0     H16195   9.498   0.545  10.901  0.1803  0.4892  1.0085
  120MOL0     H16196   9.301   0.311  10.894  2.0565 -3.7049  0.2366
  120MOL0     H16197   9.465   0.305  10.841 -1.8156 -2.4866  0.5426
  120MOL0     H16198   9.312   0.465  10.483 -0.1053 -0.1517 -1.0158
  120MOL0     H16199   9.047   0.972  11.066 -1.6745  3.1266 -1.7485
  120MOL0     H16200   8.790   0.997  11.053 -0.9782 -0.4009 -0.1876
  121MOL0     O16201  11.292   2.037   0.196  0.5821  0.5313  0.1679
  121MOL0     C16202  11.351   2.035   0.095 -0.3880 -0.3751  0.8253
  121MOL0     O16203  11.301   2.016  -0.028  0.3304  0.2373  0.5830
  121MOL0     C16204  11.167   2.031  -0.047  0.4908 -0.3529  0.1772
  121MOL0     C16205  11.128   2.143  -0.116  0.6852  0.5457  0.8656
  121MOL0     C16206  10.990   2.177  -0.139 -0.1904 -0.1227  0.1844
  121MOL0     C16207  10.888   2.103  -0.078 -0.1833  0.3042  0.2261
  121MOL0     O16208  10.755   2.143  -0.089  0.4231 -0.3796  0.6190
  121MOL0     C16209  10.723   2.264  -0.158 -0.1209  0.1571  0.2656
  121MOL0     C16210  10.576   2.300  -0.152  0.5441  0.2877  0.5957
  121MOL0     C16211  10.527   2.367  -0.283  0.4536  0.2179  0.1566
  121MOL0     C16212  10.421   2.484  -0.249 -0.0755  0.3334  0.1669
  121MOL0     C16213  10.291   2.425  -0.192 -0.1064  0.7824 -0.4222
  121MOL0     C16214  10.187   2.529  -0.140 -0.0138 -0.4174  0.5006
  121MOL0     C16215  10.104   2.583  -0.259  0.3328 -0.4912  0.2900
  121MOL0     C16216   9.985   2.656  -0.202 -0.3776 -0.7543  0.0447
  121MOL0     N16217   9.885   2.702  -0.300 -0.0698  0.1547 -0.3604
  121MOL0     C16218   9.911   2.817  -0.370  0.1426  0.6680  0.7854
  121MOL0     C16219   9.810   2.813  -0.467  0.0337  0.4827 -0.9230
  121MOL0     C16220   9.795   2.924  -0.557  0.1967 -0.6860 -0.2065
  121MOL0     C16221   9.645   2.975  -0.557 -0.4293  0.1017  0.1731
  121MOL0     C16222   9.598   3.023  -0.699 -0.2575  0.2971 -1.1019
  121MOL0     C16223   9.456   3.071  -0.671 -0.3507 -0.6151 -0.5708
  121MOL0     O16224   9.401   3.134  -0.789 -0.8097  0.3357 -0.1057
  121MOL0     C16225   9.276   3.197  -0.774 -0.4149 -0.8399 -0.0711
  121MOL0     C16226   9.250   3.286  -0.874  0.4527 -1.0416  0.8887
  121MOL0     C16227   9.145   3.382  -0.873  0.0057 -0.1827 -0.4508
  121MOL0     C16228   9.128   3.484  -0.982 -0.2923  0.3713  0.4459
  121MOL0     C16229   9.062   3.384  -0.755 -0.3421 -0.8129 -0.2294
  121MOL0     C16230   8.968   3.498  -0.722  0.0787  0.0310 -0.2316
  121MOL0     O16231   8.857   3.479  -0.634  0.3364  0.8406  0.2919
  121MOL0     C16232   8.764   3.579  -0.623 -0.4935 -0.4388 -0.9406
  121MOL0     C16233   8.742   3.635  -0.497  0.1740  0.7945  0.0715
  121MOL0     C16234   8.645   3.730  -0.478  0.2540 -0.0781 -0.1073
  121MOL0     C16235   8.568   3.774  -0.585 -0.0025 -0.5728  0.3958
  121MOL0     O16236   8.485   3.884  -0.573 -0.0163 -0.7083 -0.1768
  121MOL0     C16237   8.396   3.869  -0.465 -0.2011  0.2535 -0.2152
  121MOL0     C16238   8.282   3.959  -0.483 -0.5865 -0.3568  0.3134
  121MOL0     C16239   8.209   3.914  -0.612  0.2579  0.8147 -0.0465
  121MOL0     C16240   8.098   4.021  -0.648 -0.6077  0.0376 -0.3001
  121MOL0     C16241   7.986   3.944  -0.727 -0.0294  0.5872  0.2126
  121MOL0     C16242   7.886   4.047  -0.783 -0.6158 -0.2263 -0.1507
  121MOL0     C16243   7.762   3.981  -0.835 -0.3566 -0.0723  0.3039
  121MOL0     C16244   7.800   3.917  -0.972  0.5495 -0.4653  0.4360
  121MOL0    Cl16245   7.662   3.834  -1.045  0.1176  0.1723  0.3309
  121MOL0     C16246   8.584   3.719  -0.717  0.4649 -0.2695  0.6301
  121MOL0     C16247   8.687   3.625  -0.729 -0.1743 -0.0829  0.6155
  121MOL0     O16248   9.009   3.609  -0.752  0.2474 -0.3546 -0.5316
  121MOL0     C16249   9.084   3.289  -0.649 -0.7340  0.7094 -0.0285
  121MOL0     C16250   9.188   3.192  -0.666  0.4393 -0.2055 -0.4486
  121MOL0     N16251   9.720   2.715  -0.435 -0.2726 -0.3076  0.5252
  121MOL0     N16252   9.769   2.649  -0.332  0.4021 -0.0629 -0.0003
  121MOL0     C16253  10.925   1.993  -0.006  0.2736  0.4951 -0.3532
  121MOL0     C16254  11.061   1.950  -0.004 -0.5226 -0.7795 -0.4284
  121MOL0     C16255  11.495   2.065   0.104 -0.2566  0.3334  0.4155
  121MOL0     C16256  11.583   2.078  -0.007  1.1378  0.1454  0.3282
  121MOL0     C16257  11.725   2.085   0.002  0.0706  0.4117 -0.2973
  121MOL0     C16258  11.778   2.070   0.126 -0.4339  0.0429  0.4047
  121MOL0     O16259  11.919   2.057   0.129  0.6973 -0.4854  0.0212
  121MOL0     C16260  11.955   1.947   0.217  0.0426  0.0165 -0.8164
  121MOL0     C16261  12.058   1.864   0.129 -1.2055  0.0790 -0.3051
  121MOL0     C16262  12.197   1.923   0.127 -0.2736  0.1538  0.1860
  121MOL0     C16263  12.302   1.834   0.063  0.3366 -0.0250  0.2425
  121MOL0     C16264  12.442   1.876   0.086 -0.6173  0.0551  0.2841
  121MOL0     C16265  12.561   1.893   0.108  0.0069 -0.6220  0.0262
  121MOL0     C16266  11.694   2.062   0.243 -0.3111 -0.3024 -0.1075
  121MOL0     C16267  11.557   2.060   0.229  0.7248 -0.5438  0.1198
  121MOL0     H16268  11.205   2.208  -0.156  1.4761  0.6346  2.4732
  121MOL0     H16269  10.953   2.258  -0.200 -1.6465 -3.3306 -3.5616
  121MOL0     H16270  10.773   2.342  -0.100  0.0440  1.2428 -1.2664
  121MOL0     H16271  10.760   2.266  -0.261  1.2830 -0.1539  0.7330
  121MOL0     H16272  10.511   2.212  -0.151 -3.2972  2.8385 -1.5309
  121MOL0     H16273  10.559   2.347  -0.055 -1.1347 -2.4228  1.7451
  121MOL0     H16274  10.615   2.412  -0.329  2.0133 -0.9359  1.8444
  121MOL0     H16275  10.487   2.294  -0.354  1.5053 -0.4785  0.2550
  121MOL0     H16276  10.478   2.544  -0.178  1.3203 -0.9797  0.2023
  121MOL0     H16277  10.397   2.553  -0.331 -0.9861 -2.0623 -1.7023
  121MOL0     H16278  10.242   2.354  -0.260  0.0219 -0.1814  0.4674
  121MOL0     H16279  10.324   2.371  -0.104  0.9872  0.7212 -0.8556
  121MOL0     H16280  10.122   2.481  -0.066  1.4165 -1.9804  0.7984
  121MOL0     H16281  10.234   2.613  -0.089 -3.4676  1.7142  0.4870
  121MOL0     H16282  10.167   2.653  -0.314 -0.4135  1.1413  1.4252
  121MOL0     H16283  10.067   2.501  -0.321  2.7883 -2.3760  1.1033
  121MOL0     H16284  10.033   2.739  -0.149 -1.1538  0.0092 -0.4154
  121MOL0     H16285   9.921   2.598  -0.135 -2.7175  2.3288  0.7027
  121MOL0     H16286  10.001   2.878  -0.375 -0.4147  1.5517  1.3169
  121MOL0     H16287   9.867   3.003  -0.533 -0.3021  0.4387 -2.2101
  121MOL0     H16288   9.833   2.901  -0.656  0.5869  0.0170 -0.2268
  121MOL0     H16289   9.621   3.052  -0.483 -1.0893  1.0256 -0.9571
  121MOL0     H16290   9.585   2.885  -0.539  0.9373 -0.8804 -0.0048
  121MOL0     H16291   9.596   2.940  -0.769 -2.8607  1.2445 -2.2649
  121MOL0     H16292   9.677   3.091  -0.732  2.4288 -0.4516  3.0211
  121MOL0     H16293   9.454   3.147  -0.593 -1.3925 -2.6358  1.4826
  121MOL0     H16294   9.390   2.985  -0.655 -4.1996  2.1629 -0.1535
  121MOL0     H16295   9.306   3.289  -0.967 -2.5206 -0.1852 -1.0326
  121MOL0     H16296   9.024   3.494  -1.013  0.5941 -0.1840 -3.1777
  121MOL0     H16297   9.176   3.577  -0.952  2.9474 -0.2771 -2.1384
  121MOL0     H16298   9.179   3.440  -1.069  0.8662  0.2638  1.1584
  121MOL0     H16299   8.813   3.607  -0.420  0.8906  1.1697 -0.4422
  121MOL0     H16300   8.635   3.776  -0.380 -1.8136 -0.5918 -0.0301
  121MOL0     H16301   8.368   3.764  -0.458 -0.1025  0.3421  2.8210
  121MOL0     H16302   8.452   3.886  -0.372 -0.5240 -2.7811  0.6235
  121MOL0     H16303   8.213   3.943  -0.400 -1.3706  1.1695 -0.0088
  121MOL0     H16304   8.323   4.060  -0.485 -0.2676 -0.4985 -1.4465
  121MOL0     H16305   8.162   3.818  -0.590  0.8319  0.1411 -1.6464
  121MOL0     H16306   8.266   3.895  -0.703  0.2582 -2.5786  0.5532
  121MOL0     H16307   8.048   4.060  -0.558  0.8841 -1.1684  1.1062
  121MOL0     H16308   8.143   4.100  -0.709  3.9153 -1.6601  0.4637
  121MOL0     H16309   7.938   3.878  -0.655 -0.1251  1.3865  0.8921
  121MOL0     H16310   8.048   3.886  -0.796  1.3357  1.5130  0.6083
  121MOL0     H16311   7.854   4.106  -0.697  0.4377  0.9674 -0.5428
  121MOL0     H16312   7.926   4.114  -0.860 -0.5188 -1.6131 -1.3564
  121MOL0     H16313   7.691   4.060  -0.860  0.7667  0.6632 -0.6328
  121MOL0     H16314   7.720   3.901  -0.772 -1.7011  1.0697  0.9084
  121MOL0     H16315   7.871   3.839  -0.944  0.1786 -0.1073  2.5587
  121MOL0     H16316   7.844   3.996  -1.033  1.8835  0.4646  2.4848
  121MOL0     H16317   8.520   3.755  -0.797 -0.6269 -2.6295  0.3460
  121MOL0     H16318   8.700   3.587  -0.830  0.8285 -1.6450  1.3069
  121MOL0     H16319   9.023   3.291  -0.560 -0.1390  2.5271  0.3837
  121MOL0     H16320   9.208   3.118  -0.590 -1.5269 -1.0118 -0.6477
  121MOL0     H16321  10.858   1.938   0.060 -0.1991 -0.1235 -1.3283
  121MOL0     H16322  11.087   1.874   0.069 -2.4051 -0.5053  0.5852
  121MOL0     H16323  11.545   2.094  -0.107  2.1214 -1.6126 -0.3677
  121MOL0     H16324  11.784   2.097  -0.088  2.8555  0.6692  1.4398
  121MOL0     H16325  12.012   1.978   0.306  0.0915 -2.2699  0.0150
  121MOL0     H16326  11.871   1.882   0.243  0.5191 -0.4794 -0.4923
  121MOL0     H16327  12.020   1.852   0.027  0.3601 -1.6575 -0.7323
  121MOL0     H16328  12.058   1.764   0.174  0.9429  0.0028 -0.3844
  121MOL0     H16329  12.218   1.945   0.232 -1.3776  0.4619  0.3518
  121MOL0     H16330  12.196   2.024   0.085 -0.9077 -0.4806 -1.4171
  121MOL0     H16331  12.275   1.830  -0.043 -0.3492 -0.8934  0.4335
  121MOL0     H16332  12.283   1.736   0.108 -0.0234  0.2369  0.6619
  121MOL0     H16333  12.661   1.916   0.139  0.4174 -0.6201 -1.2511
  121MOL0     H16334  11.737   2.060   0.343  2.0283  1.6318 -0.9831
  121MOL0     H16335  11.500   2.051   0.321 -1.5824 -3.1651 -1.3893
  122MOL0     O16336  11.250   0.782   0.889  0.1824 -0.1036 -1.1604
  122MOL0     C16337  11.214   0.668   0.932 -0.0518 -0.3090  0.0222
  122MOL0     O16338  11.299   0.565   0.954  0.4531  0.0452 -0.5452
  122MOL0     C16339  11.429   0.581   0.921 -0.5503  0.5694  0.2390
  122MOL0     C16340  11.490   0.477   0.848 -0.6422 -0.4311 -0.0273
  122MOL0     C16341  11.621   0.496   0.796 -0.5463  0.2128 -0.3997
  122MOL0     C16342  11.698   0.611   0.832  0.0663 -0.0734 -0.1312
  122MOL0     O16343  11.832   0.604   0.802 -0.0286  0.0295  0.2052
  122MOL0     C16344  11.920   0.687   0.868 -0.1217 -1.2789 -0.1051
  122MOL0     C16345  12.054   0.665   0.802  1.0608  0.5063 -0.2741
  122MOL0     C16346  12.162   0.735   0.874  0.2667 -0.1270  0.0656
  122MOL0     C16347  12.295   0.688   0.805 -0.0091 -0.9258 -0.9168
  122MOL0     C16348  12.419   0.720   0.901 -0.5144  0.5475 -0.4728
  122MOL0     C16349  12.561   0.664   0.858  0.5568 -0.0370 -0.1045
  122MOL0     C16350  12.690   0.735   0.904  0.3752 -0.8491  0.1252
  122MOL0     C16351  12.805   0.670   0.836  0.7060 -0.1835 -0.6031
  122MOL0     N16352  12.931   0.756   0.828 -0.3363 -0.7238 -0.1099
  122MOL0     C16353  12.933   0.892   0.808 -0.6003  0.0208 -0.1066
  122MOL0     C16354  13.059   0.933   0.832 -0.0767  0.4513  0.8047
  122MOL0     C16355  13.110   1.076   0.818  0.1826  0.0239  0.1941
  122MOL0     C16356  13.169   1.092   0.669  0.4594 -0.7974  0.4909
  122MOL0     C16357  13.226   1.221   0.627  0.5280 -0.0526  0.2008
  122MOL0     C16358  13.367   1.247   0.670 -0.3679 -0.7875  0.4671
  122MOL0     O16359  13.415   1.381   0.660  0.2114 -0.6896  0.3636
  122MOL0     C16360  13.542   1.405   0.681 -0.8958 -0.4364  0.1751
  122MOL0     C16361  13.598   1.405   0.810  0.6099  0.3483 -0.0508
  122MOL0     C16362  13.728   1.445   0.842 -0.0647 -0.1225  0.4121
  122MOL0     C16363  13.762   1.452   0.993  0.0349  0.2953  0.3608
  122MOL0     C16364  13.814   1.483   0.733 -1.4479  0.6521 -0.7300
  122MOL0     C16365  13.957   1.492   0.752 -0.4230 -0.6613 -0.2650
  122MOL0     O16366  14.032   1.558   0.655  0.0281  0.3920  0.2055
  122MOL0     C16367  14.165   1.601   0.668  0.0546  0.1595 -0.2375
  122MOL0     C16368  14.264   1.560   0.761  0.3499 -0.0017  0.8321
  122MOL0     C16369  14.398   1.597   0.752 -0.0039 -0.3896  0.0509
  122MOL0     C16370  14.442   1.684   0.649  0.2667  0.2148 -0.1521
  122MOL0     O16371  14.573   1.718   0.637  0.8773  0.6822  0.5648
  122MOL0     C16372  14.638   1.701   0.508 -0.4301  0.2485  0.4866
  122MOL0     C16373  14.780   1.765   0.501 -0.1058  0.1412 -1.1643
  122MOL0     C16374  14.860   1.717   0.385 -0.1962  0.3437  1.0714
  122MOL0     C16375  14.998   1.781   0.397  0.0202 -0.3180  0.7855
  122MOL0     C16376  15.112   1.712   0.314 -0.5147  0.6130 -0.5267
  122MOL0     C16377  15.245   1.798   0.294 -0.5851 -0.0566  0.3240
  122MOL0     C16378  15.330   1.776   0.416 -1.0306  0.6317 -0.2066
  122MOL0     C16379  15.451   1.865   0.393 -0.3898  0.5524 -0.4238
  122MOL0    Cl16380  15.570   1.819   0.515 -0.0142 -0.4025 -0.6320
  122MOL0     C16381  14.342   1.740   0.568  0.0425  0.6454  0.5867
  122MOL0     C16382  14.207   1.696   0.575  0.5213 -0.5636  0.1045
  122MOL0     O16383  13.999   1.447   0.860  0.4053 -0.2115  0.3649
  122MOL0     C16384  13.758   1.491   0.604  0.1046  0.5434 -0.1292
  122MOL0     C16385  13.625   1.456   0.580 -0.5691  1.0981 -0.2078
  122MOL0     N16386  13.144   0.818   0.851  0.1527 -0.4130 -0.4817
  122MOL0     N16387  13.059   0.714   0.853 -0.2090 -0.8283  0.3179
  122MOL0     C16388  11.639   0.716   0.906 -0.6158 -0.2598  0.6892
  122MOL0     C16389  11.507   0.696   0.953  0.3007 -0.0236 -1.1206
  122MOL0     C16390  11.073   0.637   0.955 -1.0011 -0.3709 -0.5594
  122MOL0     C16391  10.971   0.725   0.923  0.7867 -1.0483  0.6762
  122MOL0     C16392  10.843   0.696   0.968 -0.5961 -0.5999 -0.1442
  122MOL0     C16393  10.806   0.585   1.032  0.5233 -0.7298 -0.2413
  122MOL0     O16394  10.681   0.568   1.072 -0.6437 -0.0435 -0.4304
  122MOL0     C16395  10.612   0.481   0.987 -0.1302  0.1696  0.6153
  122MOL0     C16396  10.501   0.398   1.063 -0.4711 -0.1325  1.7306
  122MOL0     C16397  10.551   0.311   1.180  0.9536  0.5234 -0.7725
  122MOL0     C16398  10.438   0.217   1.225  0.0322 -0.7926 -0.5862
  122MOL0     C16399  10.333   0.292   1.297 -0.2802 -0.0101 -1.1978
  122MOL0     C16400  10.246   0.361   1.351 -0.1908  0.6148 -0.3487
  122MOL0     C16401  10.906   0.499   1.071  0.4353  0.3436  0.1285
  122MOL0     C16402  11.042   0.518   1.035  0.6870  0.1294 -0.0418
  122MOL0     H16403  11.431   0.391   0.817 -1.4547  0.1124  0.0175
  122MOL0     H16404  11.666   0.419   0.735  2.4606  0.8708  0.8208
  122MOL0     H16405  11.889   0.789   0.844  1.6530 -0.6268  0.2160
  122MOL0     H16406  11.909   0.670   0.976 -0.3209  1.4778  0.3753
  122MOL0     H16407  12.077   0.558   0.798  0.5463  0.4079 -0.8028
  122MOL0     H16408  12.031   0.692   0.699  1.9461 -0.7259 -0.8179
  122MOL0     H16409  12.151   0.844   0.881  1.7951  0.1693 -1.5395
  122MOL0     H16410  12.154   0.694   0.975 -0.1652 -0.5821 -0.1533
  122MOL0     H16411  12.291   0.579   0.795 -0.2162 -0.9985 -0.1118
  122MOL0     H16412  12.298   0.749   0.715 -4.9752  0.6364 -0.3383
  122MOL0     H16413  12.432   0.827   0.918  0.3810  0.2947  0.5646
  122MOL0     H16414  12.398   0.673   0.997 -0.7314 -3.2089 -2.1741
  122MOL0     H16415  12.577   0.559   0.883 -0.9025 -0.3524 -0.4376
  122MOL0     H16416  12.550   0.672   0.750 -4.1744 -1.3045  0.0771
  122MOL0     H16417  12.689   0.843   0.886  1.5795 -0.7969  0.2703
  122MOL0     H16418  12.714   0.722   1.010  2.1274 -1.3569 -0.2918
  122MOL0     H16419  12.790   0.654   0.729  1.2235  2.5980 -1.1783
  122MOL0     H16420  12.821   0.578   0.893 -2.5763 -0.7055 -0.2735
  122MOL0     H16421  12.846   0.950   0.781 -1.3018 -0.0927  1.7752
  122MOL0     H16422  13.031   1.149   0.835 -1.5616 -2.2258  2.4171
  122MOL0     H16423  13.200   1.088   0.880 -0.2544 -0.2882  0.9028
  122MOL0     H16424  13.089   1.071   0.597 -0.2583 -0.3516  1.1357
  122MOL0     H16425  13.246   1.015   0.660 -0.5558 -1.6843 -1.1608
  122MOL0     H16426  13.164   1.309   0.646  1.3517  0.8324 -1.0694
  122MOL0     H16427  13.227   1.210   0.519 -0.5875 -2.9791  0.3966
  122MOL0     H16428  13.436   1.175   0.623  0.2251 -0.5519  0.9596
  122MOL0     H16429  13.376   1.221   0.776 -3.6460 -1.3382  0.6913
  122MOL0     H16430  13.537   1.361   0.888  3.3840  1.9945  3.3332
  122MOL0     H16431  13.822   1.541   1.012 -0.1026  0.2443  1.0522
  122MOL0     H16432  13.666   1.450   1.046 -0.8347  3.5365 -0.8619
  122MOL0     H16433  13.819   1.363   1.017 -0.5465 -0.5043 -1.0835
  122MOL0     H16434  14.245   1.491   0.842 -1.2554 -1.1659 -0.4526
  122MOL0     H16435  14.459   1.538   0.821  1.3450 -1.5687 -2.0230
  122MOL0     H16436  14.637   1.596   0.477 -1.3600  0.6613 -1.0222
  122MOL0     H16437  14.578   1.753   0.433 -1.2651  2.3123  2.4675
  122MOL0     H16438  14.763   1.873   0.493  0.7720  0.1494 -5.3712
  122MOL0     H16439  14.831   1.734   0.593  0.5058  2.4601 -0.6671
  122MOL0     H16440  14.814   1.749   0.291  0.2792 -1.1564  0.2912
  122MOL0     H16441  14.872   1.609   0.372  1.5073  0.6283  0.0677
  122MOL0     H16442  14.997   1.886   0.365  0.8557 -1.3344 -3.0140
  122MOL0     H16443  15.031   1.775   0.502  0.6942  1.2980  0.7081
  122MOL0     H16444  15.084   1.675   0.215 -0.4418 -1.4144  0.1593
  122MOL0     H16445  15.138   1.621   0.368 -2.0343  0.1937 -0.4597
  122MOL0     H16446  15.297   1.758   0.206  1.3528  1.1986  0.8295
  122MOL0     H16447  15.214   1.903   0.291 -1.8590 -0.4232  0.3851
  122MOL0     H16448  15.361   1.672   0.409  2.6965  1.4657  1.4091
  122MOL0     H16449  15.273   1.803   0.506 -1.7165 -2.3041  0.3273
  122MOL0     H16450  15.423   1.970   0.395 -1.3722  0.3455  2.4586
  122MOL0     H16451  15.491   1.840   0.295  0.4173 -0.9998  0.2629
  122MOL0     H16452  14.366   1.816   0.495 -0.7885  1.5867  1.2576
  122MOL0     H16453  14.135   1.738   0.505  0.8067  0.6184  0.4886
  122MOL0     H16454  13.815   1.522   0.517  1.4682  1.6106  1.0957
  122MOL0     H16455  13.582   1.462   0.481 -0.5272  1.4330 -0.2068
  122MOL0     H16456  11.703   0.795   0.944 -0.4210  0.0045 -0.1744
  122MOL0     H16457  11.464   0.779   1.009  2.8574  1.2077 -0.8388
  122MOL0     H16458  11.001   0.825   0.893  1.1141  0.2741  4.8048
  122MOL0     H16459  10.773   0.779   0.968  1.1556  0.9912 -1.7421
  122MOL0     H16460  10.568   0.537   0.905  2.8714  0.7399 -0.7373
  122MOL0     H16461  10.688   0.414   0.945  0.9195  0.7714  1.5121
  122MOL0     H16462  10.452   0.332   0.991 -1.1132  0.9719  1.1167
  122MOL0     H16463  10.428   0.465   1.109  0.8343  0.3436  3.1938
  122MOL0     H16464  10.581   0.371   1.266  1.0722 -0.5630 -0.0391
  122MOL0     H16465  10.636   0.251   1.147  0.0053 -2.4511  1.7300
  122MOL0     H16466  10.494   0.158   1.297 -0.3524 -0.1632  0.2526
  122MOL0     H16467  10.395   0.156   1.145 -0.6347 -0.5613 -0.4103
  122MOL0     H16468  10.173   0.421   1.401  0.9070  2.5702 -0.9579
  122MOL0     H16469  10.876   0.416   1.135  1.5293 -0.2826 -0.1417
  122MOL0     H16470  11.118   0.447   1.068  0.8808 -0.3874 -1.5224
  123MOL0     O16471   2.527   2.965   8.995 -0.0671  0.2514 -0.2879
  123MOL0     C16472   2.506   3.009   8.883 -0.1236 -0.1286 -0.1625
  123MOL0     O16473   2.403   3.091   8.845  0.6843  0.2326  0.0679
  123MOL0     C16474   2.304   3.130   8.934  0.7941  0.1890 -0.0301
  123MOL0     C16475   2.223   3.237   8.899  0.5758  0.2386  0.4232
  123MOL0     C16476   2.113   3.278   8.962  0.7138  0.0383  0.1221
  123MOL0     C16477   2.065   3.211   9.084  0.5787 -0.2217  0.2149
  123MOL0     O16478   1.939   3.241   9.127  0.2844 -0.6281 -0.2658
  123MOL0     C16479   1.877   3.186   9.238 -0.3364  0.1943  0.4312
  123MOL0     C16480   1.739   3.243   9.242  0.2190 -0.2132  0.7549
  123MOL0     C16481   1.730   3.395   9.250  0.3731 -0.1669  0.1328
  123MOL0     C16482   1.579   3.429   9.267  0.5126  0.7034 -0.4441
  123MOL0     C16483   1.544   3.575   9.310  0.7112  0.2317 -0.4888
  123MOL0     C16484   1.397   3.616   9.280 -0.5771 -0.0204  0.3825
  123MOL0     C16485   1.293   3.557   9.375  0.4909  0.4204 -0.3598
  123MOL0     C16486   1.162   3.528   9.303  0.8288  0.3162  0.0593
  123MOL0     N16487   1.053   3.499   9.395 -0.5314  0.3914  0.2956
  123MOL0     C16488   0.994   3.598   9.468  0.7284 -0.2808  0.2895
  123MOL0     C16489   0.878   3.538   9.512  0.2557  0.8568 -0.5416
  123MOL0     C16490   0.770   3.614   9.583 -0.3287  0.4895  0.3891
  123MOL0     C16491   0.632   3.568   9.535 -0.1795 -0.2863 -0.2749
  123MOL0     C16492   0.607   3.609   9.398 -0.2359 -0.1308 -0.1214
  123MOL0     C16493   0.461   3.572   9.353  0.0973  0.1519  0.6342
  123MOL0     O16494   0.441   3.608   9.218  0.0560  0.7672  0.3455
  123MOL0     C16495   0.314   3.645   9.183 -0.0849  0.1875 -0.0875
  123MOL0     C16496   0.197   3.650   9.253  0.3032  0.6284 -0.1289
  123MOL0     C16497   0.074   3.674   9.191  0.7159  0.7236  0.4957
  123MOL0     C16498  -0.048   3.684   9.283 -0.0388  0.5577 -0.5999
  123MOL0     C16499   0.067   3.705   9.058 -0.3836 -0.1585 -0.1133
  123MOL0     C16500  -0.058   3.713   8.976  1.0910  0.1995 -0.3522
  123MOL0     O16501  -0.036   3.767   8.849  0.6688 -0.3650 -0.4092
  123MOL0     C16502  -0.140   3.776   8.763  0.4339 -0.2081  0.0870
  123MOL0     C16503  -0.126   3.711   8.642  0.1085 -0.9881  0.4271
  123MOL0     C16504  -0.228   3.719   8.548 -1.2343 -0.0700  0.3247
  123MOL0     C16505  -0.339   3.797   8.569  0.4927 -0.3256 -0.3702
  123MOL0     O16506  -0.431   3.781   8.470  0.8568 -0.5456  0.1468
  123MOL0     C16507  -0.572   3.806   8.514 -0.1365 -0.6519 -0.2205
  123MOL0     C16508  -0.659   3.776   8.392 -0.7073 -0.6964  0.3179
  123MOL0     C16509  -0.800   3.748   8.422 -0.4122  0.1505 -0.4948
  123MOL0     C16510  -0.878   3.683   8.307 -0.5605  0.0086 -0.2338
  123MOL0     C16511  -0.881   3.765   8.178 -0.8397  0.2879 -0.0974
  123MOL0     C16512  -0.925   3.915   8.183 -0.1386  0.1113 -0.5350
  123MOL0     C16513  -1.057   3.940   8.260 -0.3205  0.8177 -0.4109
  123MOL0     C16514  -1.054   4.071   8.340  0.1751 -0.1484 -0.2409
  123MOL0    Cl16515  -1.007   4.043   8.504 -0.2451 -0.0277  0.0421
  123MOL0     C16516  -0.348   3.869   8.685 -0.2072  0.3696  0.4013
  123MOL0     C16517  -0.261   3.851   8.792  0.0140  0.5047  0.5752
  123MOL0     O16518  -0.172   3.677   9.025 -0.4149 -0.4258  0.6145
  123MOL0     C16519   0.188   3.714   8.987  0.2816  0.2915 -0.1769
  123MOL0     C16520   0.306   3.674   9.044 -0.5218 -0.2358  0.0063
  123MOL0     N16521   0.882   3.400   9.484 -0.3601 -0.4050  0.5746
  123MOL0     N16522   0.973   3.387   9.395 -0.9901  0.7022  0.2501
  123MOL0     C16523   2.146   3.103   9.124  0.1281 -0.2031 -0.0070
  123MOL0     C16524   2.263   3.065   9.049  0.2071 -1.0627 -0.6410
  123MOL0     C16525   2.605   2.972   8.777 -0.3051  0.3352 -0.7193
  123MOL0     C16526   2.617   3.054   8.669  0.2697  0.1744 -0.1703
  123MOL0     C16527   2.731   3.038   8.589 -0.6030  0.0775 -0.9071
  123MOL0     C16528   2.821   2.932   8.614  0.1754 -0.3076  0.3096
  123MOL0     O16529   2.926   2.897   8.536 -0.4554 -0.8974 -0.1382
  123MOL0     C16530   2.965   2.991   8.431 -0.7583 -0.3941  1.1208
  123MOL0     C16531   3.080   2.940   8.340  0.4706  0.9351  0.3903
  123MOL0     C16532   3.217   2.944   8.418 -0.2432  0.3646  0.7552
  123MOL0     C16533   3.332   2.916   8.318  0.8505 -0.0671 -0.0484
  123MOL0     C16534   3.453   2.883   8.394 -0.0766  0.3960 -0.1975
  123MOL0     C16535   3.552   2.824   8.444 -0.5923 -0.4108  0.1426
  123MOL0     C16536   2.795   2.853   8.722  0.0171  0.8034  0.2939
  123MOL0     C16537   2.700   2.880   8.813  1.1524  0.3865  0.1038
  123MOL0     H16538   2.258   3.287   8.808 -0.2403  0.6764  0.3410
  123MOL0     H16539   2.061   3.369   8.934  0.2991 -0.2336 -0.0023
  123MOL0     H16540   1.887   3.078   9.222  3.8677  0.7597 -2.3968
  123MOL0     H16541   1.926   3.206   9.333  0.2689 -1.4869  0.5231
  123MOL0     H16542   1.686   3.201   9.156 -1.0870 -1.2783  2.0309
  123MOL0     H16543   1.685   3.200   9.327 -1.9895  0.0758 -0.4247
  123MOL0     H16544   1.771   3.439   9.342 -1.1685  0.6501  0.4767
  123MOL0     H16545   1.769   3.449   9.163  0.8890 -0.3754  0.2305
  123MOL0     H16546   1.527   3.423   9.171 -3.4131 -0.4640  1.5359
  123MOL0     H16547   1.533   3.351   9.328  2.4726  0.4711  0.8266
  123MOL0     H16548   1.556   3.602   9.415  0.8117  1.6749 -0.8465
  123MOL0     H16549   1.606   3.645   9.253  0.1891  2.3878  1.4368
  123MOL0     H16550   1.387   3.723   9.301  3.0936  0.4913  0.1876
  123MOL0     H16551   1.376   3.602   9.173 -1.0391  1.7927  0.2047
  123MOL0     H16552   1.334   3.465   9.418  1.1847 -0.4191 -2.6708
  123MOL0     H16553   1.282   3.630   9.456  0.2462 -0.3869  0.3392
  123MOL0     H16554   1.172   3.444   9.234 -2.4533 -1.3429  1.3598
  123MOL0     H16555   1.135   3.621   9.251 -0.8310  1.3144  2.5167
  123MOL0     H16556   1.013   3.704   9.458  1.5440 -0.5499 -1.3157
  123MOL0     H16557   0.780   3.597   9.690  2.8130  1.9678  0.4487
  123MOL0     H16558   0.774   3.723   9.573 -2.7552  0.5516 -0.8645
  123MOL0     H16559   0.559   3.610   9.606 -0.2704 -0.8484 -0.0298
  123MOL0     H16560   0.621   3.459   9.537  0.4544 -0.3540 -0.4434
  123MOL0     H16561   0.683   3.561   9.336  3.3852  1.8901  2.4404
  123MOL0     H16562   0.621   3.717   9.386 -1.7176  0.2061  0.9138
  123MOL0     H16563   0.390   3.620   9.420  0.7323  0.1501  1.3177
  123MOL0     H16564   0.444   3.464   9.359 -0.3055  0.0974 -0.9316
  123MOL0     H16565   0.193   3.614   9.355  1.7255  1.7983  0.3824
  123MOL0     H16566  -0.112   3.600   9.255 -0.9739  0.2004  2.2529
  123MOL0     H16567  -0.025   3.667   9.389 -1.6449 -1.7339 -0.5499
  123MOL0     H16568  -0.107   3.772   9.259  0.1128  0.4615 -1.3524
  123MOL0     H16569  -0.052   3.635   8.620 -1.1127 -1.6110 -1.7922
  123MOL0     H16570  -0.223   3.660   8.457 -2.3145  0.5745 -0.1738
  123MOL0     H16571  -0.586   3.747   8.605 -0.9313 -0.3562 -0.1446
  123MOL0     H16572  -0.584   3.909   8.551  1.1616 -0.9443  1.1180
  123MOL0     H16573  -0.664   3.862   8.324 -4.0435 -0.1565  1.1016
  123MOL0     H16574  -0.625   3.688   8.336 -0.2788  0.1271 -0.7612
  123MOL0     H16575  -0.848   3.843   8.447  0.0257  1.1828 -3.1865
  123MOL0     H16576  -0.803   3.675   8.504 -0.2170  0.6688 -0.0204
  123MOL0     H16577  -0.830   3.585   8.298 -1.5614 -0.5055 -0.1540
  123MOL0     H16578  -0.982   3.666   8.336 -0.1105 -3.5290 -0.2093
  123MOL0     H16579  -0.951   3.715   8.111 -1.4927  1.5438 -0.3951
  123MOL0     H16580  -0.785   3.758   8.126 -1.1249 -1.1693 -0.4687
  123MOL0     H16581  -0.841   3.967   8.231 -0.8300  0.9152 -0.1570
  123MOL0     H16582  -0.920   3.972   8.090  3.3849 -0.0066 -0.5656
  123MOL0     H16583  -1.079   3.858   8.329 -1.4764 -1.6516 -3.4941
  123MOL0     H16584  -1.143   3.944   8.193 -2.8463  2.0526  2.6528
  123MOL0     H16585  -1.159   4.100   8.349 -0.2617 -1.9647  1.3439
  123MOL0     H16586  -1.002   4.154   8.292 -1.9680  1.9482  0.8536
  123MOL0     H16587  -0.438   3.929   8.695 -0.9963 -0.4565 -1.3329
  123MOL0     H16588  -0.272   3.891   8.892 -1.0041 -2.3217  1.6695
  123MOL0     H16589   0.195   3.742   8.882  3.7643 -0.6016 -0.3097
  123MOL0     H16590   0.391   3.664   8.978 -1.2863  0.5176 -1.1408
  123MOL0     H16591   2.108   3.038   9.202 -1.3524 -0.2195 -0.7125
  123MOL0     H16592   2.312   2.972   9.077 -0.1771 -1.9035 -2.5919
  123MOL0     H16593   2.546   3.131   8.641  0.0550 -0.2364 -0.7815
  123MOL0     H16594   2.720   3.088   8.493 -0.3541  0.5318 -0.7039
  123MOL0     H16595   2.882   2.995   8.361  2.0700 -2.7474 -2.7582
  123MOL0     H16596   2.973   3.092   8.472 -1.0136 -0.4543  1.3224
  123MOL0     H16597   3.086   3.004   8.251 -1.8260  0.4246 -0.1777
  123MOL0     H16598   3.059   2.836   8.314  2.0732  0.4961  0.6982
  123MOL0     H16599   3.203   2.875   8.501 -1.8648  1.9780  1.9072
  123MOL0     H16600   3.242   3.039   8.466  0.0561  0.7805 -0.1920
  123MOL0     H16601   3.341   3.008   8.260 -4.5060  1.7030  1.3262
  123MOL0     H16602   3.298   2.829   8.260  2.0864 -1.4566  1.2366
  123MOL0     H16603   3.637   2.775   8.487  0.0536  0.8443  0.3439
  123MOL0     H16604   2.867   2.774   8.744 -2.6282 -1.5614  1.0792
  123MOL0     H16605   2.689   2.822   8.905 -3.5110 -2.1927 -1.7061
  124MOL0     O16606   6.552   6.773   8.823  0.3163 -0.5591  0.0545
  124MOL0     C16607   6.537   6.680   8.910  0.6332  0.2923  0.0746
  124MOL0     O16608   6.631   6.615   8.985  0.1864  0.1458 -0.7213
  124MOL0     C16609   6.759   6.658   9.001 -0.4797 -0.3206 -0.6042
  124MOL0     C16610   6.838   6.580   9.086  0.4537 -0.3227 -0.2441
  124MOL0     C16611   6.971   6.612   9.108 -0.0977  0.4946  0.2165
  124MOL0     C16612   7.030   6.727   9.048 -1.0336 -0.0183 -1.0051
  124MOL0     O16613   7.157   6.747   9.091 -0.2432  0.0662 -0.4027
  124MOL0     C16614   7.218   6.870   9.071 -0.7238  0.8990 -0.6479
  124MOL0     C16615   7.365   6.879   9.122 -0.5903  1.1310  1.2859
  124MOL0     C16616   7.474   6.772   9.080 -0.0375 -0.0400 -0.9071
  124MOL0     C16617   7.589   6.773   9.180  0.2216 -0.6391  0.7230
  124MOL0     C16618   7.727   6.723   9.117 -0.1627 -0.9944 -0.7825
  124MOL0     C16619   7.828   6.682   9.227  0.3260 -0.2845 -0.8553
  124MOL0     C16620   7.948   6.624   9.152  1.0755 -0.1559 -1.1338
  124MOL0     C16621   8.019   6.514   9.239 -0.6942 -0.2301 -0.2179
  124MOL0     N16622   7.935   6.405   9.302  0.0828 -0.1644  1.1167
  124MOL0     C16623   7.813   6.349   9.254 -0.4758 -0.8012  0.8801
  124MOL0     C16624   7.763   6.285   9.366  0.4896 -0.0436  0.8066
  124MOL0     C16625   7.629   6.223   9.382  0.2458  0.2288 -0.6053
  124MOL0     C16626   7.533   6.327   9.454 -0.6082 -0.3558  0.7882
  124MOL0     C16627   7.468   6.419   9.351 -0.2881  0.6113 -0.9514
  124MOL0     C16628   7.329   6.382   9.292 -0.0932  0.5799 -0.8288
  124MOL0     O16629   7.326   6.243   9.283  0.3610 -0.2005 -0.2820
  124MOL0     C16630   7.197   6.180   9.282 -0.2138 -0.8462  0.3547
  124MOL0     C16631   7.193   6.047   9.310 -0.8762 -0.9534 -0.0491
  124MOL0     C16632   7.077   5.977   9.310  0.2540  0.4584  0.1662
  124MOL0     C16633   7.086   5.832   9.348 -0.6156  0.6640  0.9007
  124MOL0     C16634   6.952   6.046   9.284  0.1506  0.2513  1.2260
  124MOL0     C16635   6.819   5.984   9.275  0.5969 -0.3887  1.4838
  124MOL0     O16636   6.721   6.052   9.201 -0.2100  0.2403 -0.7232
  124MOL0     C16637   6.585   6.016   9.199 -0.6765 -0.5293 -0.8628
  124MOL0     C16638   6.507   6.083   9.098 -0.4015  0.7997  0.7730
  124MOL0     C16639   6.375   6.040   9.094 -0.0885 -0.2431 -0.3190
  124MOL0     C16640   6.317   5.941   9.175 -0.1374 -0.5672 -0.7243
  124MOL0     O16641   6.182   5.908   9.162 -0.0824 -0.0746 -0.3173
  124MOL0     C16642   6.106   5.841   9.268  0.0419  0.0794 -0.4919
  124MOL0     C16643   5.970   5.800   9.206  0.3777  0.1014 -0.2122
  124MOL0     C16644   5.873   5.924   9.185 -0.2308  0.3793 -0.4255
  124MOL0     C16645   5.725   5.877   9.169  0.2264 -0.2448 -0.1197
  124MOL0     C16646   5.637   6.003   9.156 -0.3601 -0.1537 -0.7039
  124MOL0     C16647   5.500   5.956   9.125 -0.2478  0.4894 -0.7411
  124MOL0     C16648   5.398   6.074   9.124 -0.0735  0.4696  0.8388
  124MOL0     C16649   5.327   6.077   8.987  0.0537 -0.2201  0.0041
  124MOL0    Cl16650   5.217   5.943   8.982  0.2458  0.6194 -0.3150
  124MOL0     C16651   6.394   5.898   9.280  0.1681  0.3892  0.3517
  124MOL0     C16652   6.522   5.936   9.298 -0.8502  0.2488  0.5097
  124MOL0     O16653   6.797   5.883   9.335 -0.7886 -0.0521  0.0158
  124MOL0     C16654   6.957   6.182   9.256  0.1432  0.4595 -0.3189
  124MOL0     C16655   7.078   6.250   9.248 -0.3180 -0.2236  0.2281
  124MOL0     N16656   7.860   6.293   9.464  0.4371 -0.2765 -0.8143
  124MOL0     N16657   7.953   6.376   9.429  0.1583  0.4623  0.3325
  124MOL0     C16658   6.950   6.812   8.976  0.6068  0.5056 -0.5347
  124MOL0     C16659   6.825   6.770   8.944 -0.0284  1.2059  0.4062
  124MOL0     C16660   6.403   6.615   8.911  0.0546  0.2326  0.3620
  124MOL0     C16661   6.377   6.512   9.001 -0.4389 -0.8244 -0.8434
  124MOL0     C16662   6.268   6.426   8.974  0.6475  0.3291 -0.2582
  124MOL0     C16663   6.173   6.452   8.867  0.4434 -0.4670  0.0022
  124MOL0     O16664   6.065   6.376   8.832  0.4429  0.1442 -0.4593
  124MOL0     C16665   6.004   6.305   8.945 -0.0174  0.4919  0.0892
  124MOL0     C16666   5.870   6.231   8.900 -0.7368 -0.8082 -0.8006
  124MOL0     C16667   5.885   6.129   8.787  0.5993  0.0200 -0.3665
  124MOL0     C16668   5.972   6.005   8.825 -0.9048  0.7551  0.5874
  124MOL0     C16669   6.021   5.930   8.710 -0.2924 -0.2390 -0.4731
  124MOL0     C16670   6.079   5.866   8.629 -0.2947 -0.7020  0.0144
  124MOL0     C16671   6.198   6.558   8.781 -0.7137 -0.0322  0.0595
  124MOL0     C16672   6.322   6.634   8.799  0.2425  0.4649 -0.1387
  124MOL0     H16673   6.792   6.498   9.139 -2.2121  0.1830 -1.5744
  124MOL0     H16674   7.040   6.551   9.165  1.7303  1.3996 -0.9162
  124MOL0     H16675   7.225   6.900   8.965  0.7235 -0.1074 -0.8650
  124MOL0     H16676   7.162   6.947   9.124  0.5030  0.0598  2.0435
  124MOL0     H16677   7.405   6.977   9.096 -0.9704  1.5298  2.1418
  124MOL0     H16678   7.360   6.860   9.230 -1.5276 -4.5942  0.5405
  124MOL0     H16679   7.424   6.674   9.084  0.6030 -0.3723 -0.9748
  124MOL0     H16680   7.515   6.793   8.981  0.9061  1.9970 -0.1377
  124MOL0     H16681   7.610   6.878   9.206  1.7470 -0.9198  0.7513
  124MOL0     H16682   7.561   6.717   9.269 -2.4788 -0.2190  0.2245
  124MOL0     H16683   7.711   6.633   9.057 -1.1343 -0.0204 -2.0358
  124MOL0     H16684   7.771   6.797   9.049  1.0976 -1.7273 -0.7941
  124MOL0     H16685   7.847   6.769   9.292 -4.8920  0.6049 -0.0260
  124MOL0     H16686   7.761   6.620   9.288 -2.9411  2.4121 -1.4100
  124MOL0     H16687   7.924   6.584   9.053 -0.3319  1.3737 -1.4656
  124MOL0     H16688   8.017   6.701   9.116  1.9191  0.0796  0.8289
  124MOL0     H16689   8.081   6.559   9.318  1.2390 -2.4149 -0.3846
  124MOL0     H16690   8.088   6.478   9.162 -3.3181 -0.9119 -2.3869
  124MOL0     H16691   7.769   6.358   9.155  0.0653 -0.9868  0.6178
  124MOL0     H16692   7.589   6.181   9.289  0.3415 -2.5014  0.4711
  124MOL0     H16693   7.639   6.139   9.452 -1.1029  1.2503  0.8843
  124MOL0     H16694   7.596   6.374   9.531 -1.7833  0.1869  1.4399
  124MOL0     H16695   7.456   6.272   9.509  0.2074  0.6639  3.1046
  124MOL0     H16696   7.534   6.437   9.266 -0.6137  0.8086 -1.1645
  124MOL0     H16697   7.454   6.518   9.396 -3.7293  1.0767 -2.7307
  124MOL0     H16698   7.305   6.439   9.202  1.4412 -1.3750 -2.5576
  124MOL0     H16699   7.253   6.408   9.367  0.3888  0.4072 -0.2708
  124MOL0     H16700   7.288   6.005   9.343 -0.3041  2.0026  2.5565
  124MOL0     H16701   7.022   5.809   9.434 -0.2916 -2.6349  0.3932
  124MOL0     H16702   7.055   5.756   9.275 -2.3951  2.7143 -0.5831
  124MOL0     H16703   7.186   5.808   9.386 -1.3168  0.1074  2.5187
  124MOL0     H16704   6.541   6.154   9.023  1.2150  1.3712  1.9988
  124MOL0     H16705   6.311   6.093   9.023 -0.1782  2.9325  1.8985
  124MOL0     H16706   6.158   5.756   9.314  1.5327  1.5006  0.5653
  124MOL0     H16707   6.096   5.912   9.350 -2.6269 -0.1725 -0.5276
  124MOL0     H16708   5.984   5.755   9.107 -1.1400  0.0563 -0.4265
  124MOL0     H16709   5.918   5.726   9.267  1.8583 -0.7952 -0.0002
  124MOL0     H16710   5.903   5.968   9.089 -0.3673  2.3790  0.4037
  124MOL0     H16711   5.872   5.999   9.265 -2.5190  1.5772 -1.4660
  124MOL0     H16712   5.714   5.810   9.082  0.0547  0.0079 -0.2923
  124MOL0     H16713   5.701   5.824   9.262  1.2509 -0.6216 -0.0497
  124MOL0     H16714   5.685   6.050   9.070  2.7315  0.9875  1.4824
  124MOL0     H16715   5.636   6.064   9.247  2.7090  0.2223 -0.8380
  124MOL0     H16716   5.515   5.904   9.030  0.0115 -0.1035 -0.3837
  124MOL0     H16717   5.466   5.882   9.199  1.4492 -0.1330 -0.5398
  124MOL0     H16718   5.448   6.171   9.128 -0.2535  0.6665 -0.9458
  124MOL0     H16719   5.321   6.064   9.201 -1.8983 -0.2277 -0.9711
  124MOL0     H16720   5.397   6.070   8.903  1.8330  1.1850  1.2962
  124MOL0     H16721   5.271   6.170   8.977  1.8808  0.9682  0.4572
  124MOL0     H16722   6.355   5.832   9.357  2.7021 -1.1405  0.4314
  124MOL0     H16723   6.576   5.907   9.387 -1.1905  1.0314  0.9788
  124MOL0     H16724   6.863   6.234   9.242 -0.4499 -0.0731  1.3430
  124MOL0     H16725   7.074   6.354   9.218 -3.6878 -0.0139  0.9128
  124MOL0     H16726   6.991   6.902   8.932  0.7109  1.3324  1.1642
  124MOL0     H16727   6.775   6.839   8.877  1.0547  1.6200 -0.0150
  124MOL0     H16728   6.441   6.487   9.085  1.0359  0.4703 -1.5266
  124MOL0     H16729   6.246   6.349   9.047 -3.1050  1.0803 -0.4320
  124MOL0     H16730   6.069   6.225   8.979 -0.6531 -0.3565 -0.6262
  124MOL0     H16731   5.979   6.377   9.024  3.9412 -0.9355  2.9814
  124MOL0     H16732   5.790   6.300   8.871 -1.4703 -0.6662  1.3882
  124MOL0     H16733   5.838   6.177   8.990 -0.9537  0.5278 -0.0446
  124MOL0     H16734   5.934   6.183   8.706  2.2538 -0.1825  0.4582
  124MOL0     H16735   5.789   6.092   8.748  1.7447 -3.8747  0.0461
  124MOL0     H16736   5.916   5.933   8.884  0.1563  0.5362  1.3575
  124MOL0     H16737   6.060   6.035   8.884  0.4969 -0.7412 -0.6459
  124MOL0     H16738   6.134   5.802   8.564  2.0333 -2.1940  3.1982
  124MOL0     H16739   6.138   6.582   8.693 -1.3541  0.6904  0.6733
  124MOL0     H16740   6.348   6.712   8.729  1.5361  0.9356  0.8439
  125MOL0     O16741   6.598   4.069   2.525 -0.3233 -0.0134 -0.2846
  125MOL0     C16742   6.673   4.005   2.448 -0.2084  0.5563 -1.2735
  125MOL0     O16743   6.627   3.916   2.350  0.2533 -0.1367  0.3302
  125MOL0     C16744   6.488   3.895   2.344  0.0164  0.1913  0.1130
  125MOL0     C16745   6.434   3.774   2.387 -0.3310  0.9451 -0.5765
  125MOL0     C16746   6.292   3.758   2.388  0.2011  0.7929 -0.9463
  125MOL0     C16747   6.211   3.849   2.331 -0.4045  0.1437  1.4486
  125MOL0     O16748   6.082   3.799   2.319 -0.0274 -0.2089 -0.4799
  125MOL0     C16749   5.973   3.875   2.257 -0.2538  0.7395 -0.0471
  125MOL0     C16750   5.856   3.772   2.253 -0.1410  0.0254  0.6657
  125MOL0     C16751   5.714   3.818   2.213  0.4298 -0.7534 -0.4853
  125MOL0     C16752   5.720   3.916   2.093 -0.5770  0.2470  0.2490
  125MOL0     C16753   5.576   3.924   2.034  0.9164 -0.7836  1.1107
  125MOL0     C16754   5.567   4.043   1.941 -0.1042 -0.2844  0.0837
  125MOL0     C16755   5.440   4.064   1.862  1.1512  0.6546 -0.1480
  125MOL0     C16756   5.477   4.175   1.759  0.0834 -0.5679  0.2302
  125MOL0     N16757   5.353   4.221   1.695 -0.1750 -0.3435  1.0628
  125MOL0     C16758   5.250   4.139   1.642  0.1095 -0.7101  0.1812
  125MOL0     C16759   5.144   4.226   1.615 -0.6763  0.1761  0.4134
  125MOL0     C16760   4.997   4.203   1.593 -0.1544 -1.2710 -0.0679
  125MOL0     C16761   4.924   4.194   1.730 -0.3897 -0.0423  0.5506
  125MOL0     C16762   4.776   4.173   1.720  0.3145 -0.0812 -0.2839
  125MOL0     C16763   4.728   4.133   1.859  0.2944 -0.4545  0.4318
  125MOL0     O16764   4.584   4.164   1.874  0.5065 -0.4103 -0.5559
  125MOL0     C16765   4.499   4.074   1.815 -0.7042  0.2927 -0.0034
  125MOL0     C16766   4.533   3.952   1.762  0.3847  0.2759  0.3235
  125MOL0     C16767   4.439   3.857   1.718 -0.8468  0.3360  0.6807
  125MOL0     C16768   4.498   3.717   1.702  0.5844  0.3468  0.4938
  125MOL0     C16769   4.309   3.889   1.696  0.4870 -0.0257 -0.3327
  125MOL0     C16770   4.199   3.797   1.643  0.3362  1.3072  0.6143
  125MOL0     O16771   4.074   3.803   1.682 -0.0302  0.7449  0.7415
  125MOL0     C16772   3.970   3.715   1.659 -0.3630  0.1743  0.9747
  125MOL0     C16773   3.964   3.587   1.605  0.2657  0.8815 -0.0536
  125MOL0     C16774   3.842   3.511   1.597 -1.0192 -0.4799  0.3064
  125MOL0     C16775   3.722   3.555   1.659  0.6495 -0.0884  0.6880
  125MOL0     O16776   3.613   3.469   1.640 -0.0392 -0.6758 -0.9435
  125MOL0     C16777   3.492   3.517   1.576  0.5241  0.4295 -0.2672
  125MOL0     C16778   3.365   3.478   1.651 -0.5354  0.0902  0.1541
  125MOL0     C16779   3.267   3.593   1.622  0.3879 -0.2548  0.3348
  125MOL0     C16780   3.136   3.568   1.708 -0.3276  0.1739 -0.4857
  125MOL0     C16781   3.034   3.682   1.684 -0.7423 -0.4887  0.3272
  125MOL0     C16782   2.923   3.679   1.787 -0.4036 -0.2861 -0.1689
  125MOL0     C16783   2.847   3.548   1.811 -0.7623  0.2539 -0.8203
  125MOL0     C16784   2.784   3.546   1.957 -0.0835 -0.4020  0.2497
  125MOL0    Cl16785   2.648   3.435   1.969 -0.0907 -0.0372 -0.0082
  125MOL0     C16786   3.727   3.681   1.721  0.1785 -0.4013  0.7530
  125MOL0     C16787   3.843   3.757   1.715  0.1493  0.2676  0.3006
  125MOL0     O16788   4.235   3.711   1.563  0.4382 -0.1138 -0.0333
  125MOL0     C16789   4.275   4.027   1.731 -0.1207 -0.6724  1.6295
  125MOL0     C16790   4.364   4.116   1.793 -0.1585 -0.3801  0.7100
  125MOL0     N16791   5.181   4.354   1.657 -0.2102  0.0950 -0.1474
  125MOL0     N16792   5.300   4.348   1.701 -0.2894  0.8759  0.0203
  125MOL0     C16793   6.261   3.973   2.276 -0.0440 -0.5996 -0.1518
  125MOL0     C16794   6.396   3.994   2.289  0.5408 -0.3822 -0.7398
  125MOL0     C16795   6.814   4.048   2.449  0.1607  1.0119  0.1739
  125MOL0     C16796   6.865   4.161   2.508 -0.5934 -0.3227 -0.0645
  125MOL0     C16797   7.005   4.204   2.507  0.1972  0.0005  0.1883
  125MOL0     C16798   7.094   4.118   2.444  0.1062 -0.3604 -0.2945
  125MOL0     O16799   7.224   4.154   2.449 -0.6734  0.6110  1.0129
  125MOL0     C16800   7.321   4.057   2.395  0.2481 -0.6764  0.6943
  125MOL0     C16801   7.461   4.112   2.405  0.1061  0.4963  0.2628
  125MOL0     C16802   7.491   4.175   2.545  0.2467  0.0138  0.2024
  125MOL0     C16803   7.450   4.324   2.544 -0.0448  1.1140 -0.2077
  125MOL0     C16804   7.566   4.413   2.577  0.8474 -0.3811 -0.0821
  125MOL0     C16805   7.651   4.496   2.598  0.5904 -0.3534  0.3864
  125MOL0     C16806   7.041   4.008   2.375 -0.2326  0.2689  0.8360
  125MOL0     C16807   6.907   3.972   2.375 -0.3311  0.7372  0.8557
  125MOL0     H16808   6.502   3.700   2.428 -1.0048  0.4883 -0.2668
  125MOL0     H16809   6.251   3.668   2.432 -1.0209  2.1313  0.8347
  125MOL0     H16810   5.941   3.961   2.318 -1.4923  0.5181 -0.3603
  125MOL0     H16811   5.995   3.917   2.159 -0.7724 -0.8179 -0.8642
  125MOL0     H16812   5.873   3.689   2.183 -1.6838  0.3457 -0.1397
  125MOL0     H16813   5.847   3.731   2.354 -3.4997  2.5153  1.5352
  125MOL0     H16814   5.654   3.730   2.189  0.3125 -1.8149  3.1163
  125MOL0     H16815   5.666   3.858   2.303  1.5684 -0.2549 -0.0772
  125MOL0     H16816   5.763   4.013   2.121 -0.1714  0.6995 -1.7697
  125MOL0     H16817   5.796   3.885   2.021 -0.6165  1.9014 -0.5333
  125MOL0     H16818   5.560   3.838   1.968  1.3364 -0.0397  0.0131
  125MOL0     H16819   5.500   3.918   2.112 -1.5642 -0.1173 -1.1339
  125MOL0     H16820   5.589   4.135   1.996 -1.0672  0.1075 -0.1562
  125MOL0     H16821   5.648   4.036   1.869  0.2029  0.2021  0.3784
  125MOL0     H16822   5.401   3.979   1.805  0.2848  1.4879 -0.8188
  125MOL0     H16823   5.364   4.097   1.933  0.8231 -0.2701 -0.0600
  125MOL0     H16824   5.554   4.134   1.694  0.2432 -2.9775  1.8293
  125MOL0     H16825   5.513   4.261   1.818 -2.4604  0.1229  0.9256
  125MOL0     H16826   5.247   4.031   1.630  0.0712 -0.5163 -1.9005
  125MOL0     H16827   4.959   4.293   1.543  0.1131 -1.1335 -0.0313
  125MOL0     H16828   4.989   4.115   1.529  1.1736 -1.7607  0.4055
  125MOL0     H16829   4.956   4.282   1.787  2.8487 -0.6045 -0.2179
  125MOL0     H16830   4.965   4.114   1.792  3.1689 -0.9543 -2.5929
  125MOL0     H16831   4.759   4.082   1.661  2.0786 -1.7502  1.6457
  125MOL0     H16832   4.726   4.264   1.683 -1.4930 -1.2409 -0.8316
  125MOL0     H16833   4.778   4.199   1.930 -1.6024  1.7156 -0.1240
  125MOL0     H16834   4.760   4.032   1.885  3.8369  0.3409 -0.2789
  125MOL0     H16835   4.637   3.924   1.754  0.0382 -0.9772  0.0416
  125MOL0     H16836   4.578   3.678   1.765  0.9293 -1.4819 -0.9897
  125MOL0     H16837   4.422   3.640   1.686  0.4715  1.1180 -4.2682
  125MOL0     H16838   4.546   3.731   1.605  1.7003  0.4369  1.0491
  125MOL0     H16839   4.053   3.537   1.567 -0.1741 -0.1519  0.2641
  125MOL0     H16840   3.843   3.420   1.539 -1.3891  2.1500 -4.2745
  125MOL0     H16841   3.498   3.624   1.556 -0.1322  0.6768  0.7835
  125MOL0     H16842   3.486   3.464   1.481 -2.5798 -1.8023  0.9834
  125MOL0     H16843   3.321   3.382   1.620 -1.2993  1.0604 -1.9314
  125MOL0     H16844   3.391   3.479   1.757 -0.2523  1.2583  0.0858
  125MOL0     H16845   3.239   3.603   1.517  0.5529  1.2480  0.4147
  125MOL0     H16846   3.311   3.688   1.655  1.0962  0.3264 -2.0605
  125MOL0     H16847   3.085   3.474   1.687  0.4887  0.0028 -1.8090
  125MOL0     H16848   3.166   3.581   1.813  1.2574  1.6728 -1.0855
  125MOL0     H16849   2.987   3.672   1.586 -2.2356 -0.6073  1.0251
  125MOL0     H16850   3.081   3.780   1.690 -1.8280  0.0368  5.9487
  125MOL0     H16851   2.959   3.703   1.887  0.5668  2.3435 -1.0589
  125MOL0     H16852   2.854   3.761   1.764  0.3676  0.2640 -0.6199
  125MOL0     H16853   2.917   3.464   1.808  0.5465  1.3302 -2.6638
  125MOL0     H16854   2.772   3.537   1.732 -1.3290  2.8998 -0.7704
  125MOL0     H16855   2.755   3.650   1.976  6.1636  1.5558  1.5566
  125MOL0     H16856   2.863   3.524   2.030  0.8578  0.0127 -0.6063
  125MOL0     H16857   3.642   3.721   1.775  1.7932  4.3546  0.3015
  125MOL0     H16858   3.834   3.849   1.771  1.6000  0.6014  0.0254
  125MOL0     H16859   4.174   4.061   1.716  0.1950 -0.0072  0.9552
  125MOL0     H16860   4.333   4.216   1.823 -0.9593 -0.8507  1.5077
  125MOL0     H16861   6.197   4.036   2.216  0.5625  1.2056  0.9967
  125MOL0     H16862   6.438   4.078   2.234 -0.9841  0.2801 -0.9278
  125MOL0     H16863   6.807   4.230   2.569  2.5254  0.7781  1.8655
  125MOL0     H16864   7.047   4.299   2.537  1.8123 -0.0819 -1.6083
  125MOL0     H16865   7.312   3.964   2.451  4.4017 -1.6810 -0.0007
  125MOL0     H16866   7.294   4.050   2.289  0.0578  0.2945  0.6679
  125MOL0     H16867   7.481   4.185   2.325 -0.0708 -1.0099 -1.2130
  125MOL0     H16868   7.531   4.029   2.397 -0.4945 -0.0782  0.8227
  125MOL0     H16869   7.595   4.150   2.568  1.3123  1.2515 -2.7960
  125MOL0     H16870   7.441   4.122   2.627  0.2375  0.2912  0.3769
  125MOL0     H16871   7.371   4.336   2.619 -0.6041  1.7383 -0.8824
  125MOL0     H16872   7.405   4.350   2.447  1.7929 -0.4546 -1.5619
  125MOL0     H16873   7.732   4.566   2.602  0.6107 -0.3825  0.4691
  125MOL0     H16874   7.104   3.934   2.327 -2.7176 -2.1728  1.0906
  125MOL0     H16875   6.877   3.890   2.309  0.9741  0.7205  0.2439
  126MOL0     O16876   7.492   3.260   3.243  0.8508  0.2744  0.3098
  126MOL0     C16877   7.562   3.253   3.340 -0.7612  0.4703  0.0383
  126MOL0     O16878   7.523   3.209   3.455  0.1735  0.1960 -0.2964
  126MOL0     C16879   7.391   3.240   3.494  0.9503 -1.0659  0.5081
  126MOL0     C16880   7.282   3.147   3.476  0.8061 -0.6195 -0.6718
  126MOL0     C16881   7.148   3.195   3.489  0.3044 -0.1338 -0.5138
  126MOL0     C16882   7.116   3.321   3.530  0.4067 -0.2989  0.5555
  126MOL0     O16883   6.987   3.373   3.546 -0.2975 -1.2229 -0.5721
  126MOL0     C16884   6.871   3.283   3.541 -0.1745 -0.1903 -0.4402
  126MOL0     C16885   6.749   3.365   3.562  0.0514 -0.0647 -0.9171
  126MOL0     C16886   6.656   3.309   3.670 -0.0017  0.3584 -0.1700
  126MOL0     C16887   6.534   3.393   3.670  0.2762 -1.3651  0.0464
  126MOL0     C16888   6.440   3.370   3.787 -0.2390  0.0993  0.0917
  126MOL0     C16889   6.368   3.231   3.763  0.9498  1.0944 -0.0593
  126MOL0     C16890   6.246   3.212   3.864  0.4136 -0.4461  0.5766
  126MOL0     C16891   6.166   3.091   3.822  0.4564  0.5373  0.2089
  126MOL0     N16892   6.030   3.105   3.868  0.1229  0.2424  0.4024
  126MOL0     C16893   5.974   3.117   3.995 -0.4359  0.2115  0.1018
  126MOL0     C16894   5.838   3.101   3.975  0.1160  0.2503  0.4495
  126MOL0     C16895   5.735   3.104   4.081  0.2382 -0.4467  1.1539
  126MOL0     C16896   5.598   3.040   4.038 -0.2266 -0.2987 -0.1728
  126MOL0     C16897   5.487   3.081   4.146  0.3077 -0.2533 -0.0057
  126MOL0     C16898   5.367   3.020   4.094  0.3480 -0.1485  0.0540
  126MOL0     O16899   5.332   3.093   3.974  0.6142 -0.6685  0.0481
  126MOL0     C16900   5.212   3.055   3.902 -0.2652  0.1378 -0.5657
  126MOL0     C16901   5.101   2.986   3.964 -0.6429 -0.2082  0.6530
  126MOL0     C16902   4.977   2.967   3.901 -1.0353 -0.4606 -0.0956
  126MOL0     C16903   4.860   2.902   3.975 -0.6541  0.5887  0.1767
  126MOL0     C16904   4.962   3.020   3.774  0.2662 -0.0683  0.9061
  126MOL0     C16905   4.836   3.024   3.690  1.3034 -0.7368 -0.2863
  126MOL0     O16906   4.854   3.009   3.555  0.1944  0.0056  0.1914
  126MOL0     C16907   4.754   2.979   3.469  0.3539 -0.1501 -0.2582
  126MOL0     C16908   4.684   2.862   3.492 -0.9232  0.2091 -0.7406
  126MOL0     C16909   4.580   2.829   3.407  0.1782  0.7182 -0.5254
  126MOL0     C16910   4.556   2.902   3.290 -0.5281 -0.1375  0.4217
  126MOL0     O16911   4.458   2.863   3.205 -0.1159 -0.4060  0.1460
  126MOL0     C16912   4.387   2.953   3.125  0.5533  0.2313 -0.4191
  126MOL0     C16913   4.292   3.038   3.217 -0.2308  0.1463 -0.5253
  126MOL0     C16914   4.201   2.950   3.300 -0.2769  0.0573  0.1109
  126MOL0     C16915   4.146   3.017   3.422 -0.7797 -0.2096  0.2397
  126MOL0     C16916   4.085   2.921   3.516 -0.5801  0.0231 -0.6445
  126MOL0     C16917   3.946   2.874   3.466  0.1728 -0.0643 -0.1052
  126MOL0     C16918   3.895   2.765   3.561  0.8239 -0.1778  0.1909
  126MOL0     C16919   3.746   2.737   3.528 -0.7593  0.1381  0.0576
  126MOL0    Cl16920   3.718   2.640   3.380  0.6303 -0.2095 -0.3248
  126MOL0     C16921   4.645   3.008   3.251 -0.7887 -0.8623  0.5948
  126MOL0     C16922   4.736   3.052   3.345 -0.0234  0.6149  0.2308
  126MOL0     O16923   4.720   3.030   3.742  0.3042  0.2394 -1.0879
  126MOL0     C16924   5.074   3.083   3.716  0.4984  0.3933 -0.2371
  126MOL0     C16925   5.200   3.100   3.772  0.3988  0.3643  0.3512
  126MOL0     N16926   5.810   3.091   3.837 -0.4700 -0.1933  0.6127
  126MOL0     N16927   5.924   3.094   3.778 -0.2627  0.6427 -0.4696
  126MOL0     C16928   7.223   3.411   3.545  0.3870  0.2841  0.2895
  126MOL0     C16929   7.357   3.374   3.527 -0.8535  1.1514  0.3355
  126MOL0     C16930   7.707   3.272   3.319  0.4071 -0.5515 -0.4813
  126MOL0     C16931   7.770   3.362   3.412  0.3057  0.0389 -0.5905
  126MOL0     C16932   7.906   3.392   3.395  0.5206 -0.3488  0.4798
  126MOL0     C16933   7.988   3.324   3.304 -0.1130  0.5583  1.2646
  126MOL0     O16934   8.122   3.335   3.298 -0.6560 -0.1386  0.9169
  126MOL0     C16935   8.196   3.416   3.386  0.6009  0.5083 -0.0872
  126MOL0     C16936   8.333   3.354   3.415 -0.2243 -0.6419  0.2625
  126MOL0     C16937   8.421   3.354   3.291  0.3503  0.7633  0.6991
  126MOL0     C16938   8.556   3.290   3.328 -0.1743 -0.1816  0.5746
  126MOL0     C16939   8.546   3.151   3.343  0.4784  0.7499 -0.1644
  126MOL0     C16940   8.530   3.030   3.364  0.9777  0.3233  0.3164
  126MOL0     C16941   7.926   3.243   3.206  0.3312 -0.0673 -0.7345
  126MOL0     C16942   7.784   3.228   3.203 -0.8589 -0.1687  0.1053
  126MOL0     H16943   7.308   3.045   3.450 -2.8706 -1.6681 -0.7610
  126MOL0     H16944   7.068   3.125   3.468 -0.6382  1.3623 -2.2571
  126MOL0     H16945   6.854   3.226   3.449  0.9090 -3.7736  1.3851
  126MOL0     H16946   6.895   3.210   3.619  2.8212  2.0937  1.0125
  126MOL0     H16947   6.771   3.470   3.581 -0.7375 -0.1751  0.8318
  126MOL0     H16948   6.695   3.357   3.468 -0.5014 -2.9478 -0.4417
  126MOL0     H16949   6.628   3.207   3.644  0.8137 -0.0779  0.5611
  126MOL0     H16950   6.706   3.304   3.768 -1.9346 -1.3337  0.7907
  126MOL0     H16951   6.571   3.495   3.681  0.6520 -1.5198  0.2308
  126MOL0     H16952   6.478   3.379   3.577 -0.6897 -0.0173  0.3899
  126MOL0     H16953   6.490   3.360   3.884 -0.6658 -0.3756  0.2678
  126MOL0     H16954   6.361   3.445   3.790 -1.3904 -1.0840  0.4395
  126MOL0     H16955   6.340   3.222   3.658  1.1860  0.5449 -0.0804
  126MOL0     H16956   6.442   3.153   3.785  0.0398 -0.7424 -2.9286
  126MOL0     H16957   6.293   3.199   3.962  0.1245 -1.7240  0.5682
  126MOL0     H16958   6.183   3.301   3.854  1.9834  0.5945 -0.6617
  126MOL0     H16959   6.215   3.003   3.866  0.1368  0.8070  1.1069
  126MOL0     H16960   6.157   3.075   3.714  1.1125 -0.3050  0.2664
  126MOL0     H16961   6.029   3.125   4.088  1.8346 -0.4447 -1.0977
  126MOL0     H16962   5.775   3.044   4.164  0.7542 -1.4808  0.1785
  126MOL0     H16963   5.718   3.211   4.097 -1.3520 -0.5150  0.1401
  126MOL0     H16964   5.609   2.932   4.022  2.0956  0.0503 -1.4630
  126MOL0     H16965   5.565   3.078   3.941  0.6540 -0.5338 -0.5825
  126MOL0     H16966   5.476   3.189   4.159  1.8891 -0.2571  1.8321
  126MOL0     H16967   5.502   3.043   4.248  2.1693 -0.1276 -0.1900
  126MOL0     H16968   5.283   3.027   4.164 -0.1992 -0.9224 -0.5035
  126MOL0     H16969   5.378   2.913   4.078  2.3870  0.0549 -0.1710
  126MOL0     H16970   5.100   2.963   4.070  2.3794  0.3175  0.8864
  126MOL0     H16971   4.778   2.973   3.982  1.9685  3.7839  1.1832
  126MOL0     H16972   4.822   2.810   3.929 -1.1079  0.9476 -0.1845
  126MOL0     H16973   4.885   2.873   4.077  0.9572  1.3704  0.0412
  126MOL0     H16974   4.710   2.802   3.579  3.4056  0.6027 -1.5134
  126MOL0     H16975   4.516   2.744   3.429 -0.7133  1.4847 -0.0630
  126MOL0     H16976   4.449   3.029   3.077  3.4711 -1.5324  0.3056
  126MOL0     H16977   4.335   2.890   3.052 -2.8026 -0.0694  2.0012
  126MOL0     H16978   4.351   3.103   3.282 -0.2001 -1.0178  0.6421
  126MOL0     H16979   4.240   3.112   3.155 -0.1112  0.8422  0.1907
  126MOL0     H16980   4.259   2.866   3.339 -0.5794  0.6125  1.8153
  126MOL0     H16981   4.126   2.909   3.232  0.1172 -0.4306 -0.0407
  126MOL0     H16982   4.223   3.073   3.477 -0.3748  0.7791 -1.2356
  126MOL0     H16983   4.079   3.096   3.386 -0.5476 -0.2531 -0.2989
  126MOL0     H16984   4.071   2.959   3.618  1.1359 -0.8107 -0.0686
  126MOL0     H16985   4.152   2.836   3.530 -2.3249 -1.9469 -3.3491
  126MOL0     H16986   3.873   2.955   3.472 -0.0107 -0.3155  1.9348
  126MOL0     H16987   3.952   2.829   3.367 -1.1095 -2.1790  0.7049
  126MOL0     H16988   3.906   2.789   3.667 -2.2482 -2.1348  1.0761
  126MOL0     H16989   3.963   2.683   3.535  3.1562  1.8410 -0.4964
  126MOL0     H16990   3.695   2.832   3.507 -1.7341  0.1377  2.1343
  126MOL0     H16991   3.696   2.694   3.615 -1.6111  2.5476  0.8582
  126MOL0     H16992   4.644   3.051   3.151  0.1834  1.3998  1.4743
  126MOL0     H16993   4.810   3.127   3.319  1.0739 -0.6139 -0.2742
  126MOL0     H16994   5.058   3.127   3.618 -0.0701  0.3583 -0.1614
  126MOL0     H16995   5.282   3.151   3.722 -0.1249 -1.5741 -2.7728
  126MOL0     H16996   7.189   3.511   3.571 -2.0811 -0.7899  1.5654
  126MOL0     H16997   7.433   3.450   3.536  0.0677  0.8590 -3.4836
  126MOL0     H16998   7.723   3.413   3.496  0.7045 -0.3297 -0.1367
  126MOL0     H16999   7.934   3.473   3.462 -2.3029  2.1247 -1.1253
  126MOL0     H17000   8.221   3.516   3.350 -1.1196 -0.0331 -3.0710
  126MOL0     H17001   8.145   3.439   3.481  1.4274 -0.2130  0.5478
  126MOL0     H17002   8.328   3.256   3.464  3.0101 -0.1171  1.8841
  126MOL0     H17003   8.385   3.422   3.484  0.9840 -0.0492 -1.1844
  126MOL0     H17004   8.444   3.456   3.258 -1.8618  1.7077  1.9305
  126MOL0     H17005   8.375   3.288   3.217 -2.5612  2.4621  0.8415
  126MOL0     H17006   8.609   3.340   3.410 -0.6064 -1.8616  1.9278
  126MOL0     H17007   8.622   3.313   3.244 -1.0774 -0.8675 -0.3489
  126MOL0     H17008   8.496   2.929   3.382  0.6203 -0.1216 -2.4285
  126MOL0     H17009   7.981   3.186   3.132 -2.2523 -0.7534 -2.2556
  126MOL0     H17010   7.736   3.166   3.128 -1.6764 -1.4532  1.6176
  127MOL0     O17011   6.390  10.474   6.046 -0.6942  1.0044  0.3991
  127MOL0     C17012   6.450  10.377   6.093  0.3757 -0.1989 -0.9032
  127MOL0     O17013   6.575  10.376   6.152 -0.0873 -0.1192  0.6386
  127MOL0     C17014   6.664  10.478   6.138 -0.6522  0.4698 -0.1784
  127MOL0     C17015   6.645  10.610   6.102  0.4868  0.1988 -0.1422
  127MOL0     C17016   6.755  10.695   6.066 -0.2418  0.5271  0.6726
  127MOL0     C17017   6.881  10.648   6.084  0.1177 -0.0951 -0.7233
  127MOL0     O17018   6.975  10.722   6.031 -0.1300  0.2078  0.5737
  127MOL0     C17019   7.089  10.662   5.965  0.4624  0.2687 -0.6564
  127MOL0     C17020   7.210  10.764   5.960 -1.2030  0.0628 -0.0946
  127MOL0     C17021   7.304  10.727   5.844  0.1885 -0.8190  0.4186
  127MOL0     C17022   7.424  10.828   5.819 -0.5646  0.0812  0.0149
  127MOL0     C17023   7.534  10.738   5.762  0.1346 -0.3517  0.1328
  127MOL0     C17024   7.657  10.808   5.712  0.0024 -0.0314  0.7278
  127MOL0     C17025   7.761  10.699   5.675  0.5399 -0.3735  0.1233
  127MOL0     C17026   7.891  10.762   5.621 -0.8491  0.0898  0.4503
  127MOL0     N17027   7.960  10.660   5.550  0.4223  0.5311  0.2220
  127MOL0     C17028   8.060  10.581   5.594  0.6647 -0.3260 -0.1510
  127MOL0     C17029   8.086  10.500   5.487  0.0301 -0.1873  0.2408
  127MOL0     C17030   8.191  10.391   5.486  0.6102 -1.1350 -0.2363
  127MOL0     C17031   8.147  10.268   5.574 -0.0112  0.0664  0.1570
  127MOL0     C17032   8.019  10.192   5.528 -0.1809  0.4177  0.0422
  127MOL0     C17033   7.900  10.170   5.627  0.3060  0.7142 -0.6260
  127MOL0     O17034   7.858  10.291   5.686  0.1178  0.6766 -1.0858
  127MOL0     C17035   7.724  10.301   5.691 -0.6280  0.2868 -0.0662
  127MOL0     C17036   7.648  10.374   5.595  0.0898 -0.0510 -0.6483
  127MOL0     C17037   7.509  10.374   5.596  0.3203  0.0281 -0.7700
  127MOL0     C17038   7.445  10.453   5.486  0.5946 -0.3813 -0.1666
  127MOL0     C17039   7.443  10.296   5.699 -0.9264  0.2541 -0.6488
  127MOL0     C17040   7.297  10.288   5.720  0.3569 -1.2333 -0.1111
  127MOL0     O17041   7.224  10.409   5.706  0.0316 -0.1685 -0.3101
  127MOL0     C17042   7.087  10.409   5.714 -0.4033  0.5503  0.9217
  127MOL0     C17043   7.007  10.338   5.806 -1.3872 -1.0394  0.0849
  127MOL0     C17044   6.871  10.341   5.793  0.3794 -0.3133  0.0542
  127MOL0     C17045   6.809  10.422   5.696  0.6730  0.5777 -0.0176
  127MOL0     O17046   6.676  10.414   5.688  0.3795  0.7822 -0.2266
  127MOL0     C17047   6.603  10.494   5.602  0.3506 -0.5408  0.1042
  127MOL0     C17048   6.455  10.447   5.606 -0.4817  0.0502  0.2507
  127MOL0     C17049   6.429  10.308   5.547 -0.2053 -0.1285 -0.2643
  127MOL0     C17050   6.289  10.266   5.588 -0.3392  0.4604  0.1099
  127MOL0     C17051   6.256  10.122   5.549 -0.1014  0.0340 -0.3093
  127MOL0     C17052   6.141  10.060   5.616 -0.0720  0.6634  0.4437
  127MOL0     C17053   6.009  10.137   5.630  0.3877  0.5588  0.3093
  127MOL0     C17054   5.899  10.062   5.704  0.2082 -0.9311  0.5845
  127MOL0    Cl17055   5.853   9.912   5.622 -0.3878  0.0064 -0.0804
  127MOL0     C17056   6.887  10.492   5.610  0.3169 -0.6255  0.1280
  127MOL0     C17057   7.019  10.479   5.611 -0.0399  0.0267  0.5876
  127MOL0     O17058   7.255  10.179   5.756 -0.3600 -0.5558  0.3381
  127MOL0     C17059   7.518  10.223   5.792  0.6237 -0.3719 -0.1173
  127MOL0     C17060   7.659  10.210   5.781  0.2754  0.1873 -0.5087
  127MOL0     N17061   8.002  10.541   5.381 -0.9363 -0.3172  0.1559
  127MOL0     N17062   7.931  10.640   5.418  0.2597 -0.2987  0.1629
  127MOL0     C17063   6.903  10.518   6.136  1.0518  0.2969  0.2594
  127MOL0     C17064   6.797  10.441   6.159  0.5952 -0.3303 -0.8619
  127MOL0     C17065   6.388  10.252   6.075 -1.2344  0.4566  0.0986
  127MOL0     C17066   6.464  10.130   6.086  0.5388 -0.5311  0.1089
  127MOL0     C17067   6.400  10.004   6.061  0.4197  0.0017 -1.0080
  127MOL0     C17068   6.273  10.009   6.009  1.3074  0.7615  0.7461
  127MOL0     O17069   6.213   9.896   5.969 -0.9423  0.4910  0.8335
  127MOL0     C17070   6.170   9.807   6.067  1.3799 -0.0132 -0.1306
  127MOL0     C17071   6.097   9.681   6.018 -0.0239 -0.5633 -0.3454
  127MOL0     C17072   5.962   9.719   5.955  0.6438 -0.0462  0.2229
  127MOL0     C17073   5.906   9.594   5.894 -0.4642  0.1160  0.8778
  127MOL0     C17074   5.889   9.486   5.986  0.5598  0.5000 -0.8211
  127MOL0     C17075   5.860   9.400   6.070  0.0859  0.3685 -0.2567
  127MOL0     C17076   6.204  10.123   5.992  0.0794 -0.4572 -0.0236
  127MOL0     C17077   6.259  10.249   6.021 -0.5243 -0.9651  1.0358
  127MOL0     H17078   6.543  10.644   6.089 -0.1291 -1.8973 -1.3224
  127MOL0     H17079   6.737  10.792   6.023 -0.7758  0.3789  0.5520
  127MOL0     H17080   7.115  10.563   6.004  0.4110  0.2058 -0.7821
  127MOL0     H17081   7.049  10.639   5.866  0.9391  0.9413 -1.0177
  127MOL0     H17082   7.170  10.858   5.920 -0.3957 -1.5334 -5.4176
  127MOL0     H17083   7.253  10.771   6.060 -2.5388 -0.2390  0.5211
  127MOL0     H17084   7.334  10.623   5.858 -1.1982 -1.4097 -0.7197
  127MOL0     H17085   7.238  10.721   5.757  0.1213 -0.0659  0.4132
  127MOL0     H17086   7.389  10.916   5.763 -1.2175  0.3801  0.8692
  127MOL0     H17087   7.454  10.862   5.918  0.0567  0.6107 -0.3441
  127MOL0     H17088   7.562  10.660   5.834  0.3111 -2.4628 -2.0752
  127MOL0     H17089   7.484  10.685   5.680 -2.5494  0.5819  1.0615
  127MOL0     H17090   7.636  10.874   5.627 -1.7656 -2.5888 -0.9857
  127MOL0     H17091   7.696  10.861   5.800 -1.7690 -0.3027  1.7157
  127MOL0     H17092   7.779  10.640   5.766 -0.6112  0.6177  1.0210
  127MOL0     H17093   7.714  10.631   5.603 -1.6646 -0.1836  1.3117
  127MOL0     H17094   7.956  10.801   5.699 -3.0193  5.6649 -0.0430
  127MOL0     H17095   7.856  10.839   5.551 -4.0094 -2.3220 -0.8940
  127MOL0     H17096   8.108  10.567   5.690 -0.0954  0.8175  0.4140
  127MOL0     H17097   8.219  10.349   5.389  1.1932 -1.6103  0.1292
  127MOL0     H17098   8.288  10.429   5.518  0.1431 -0.0198 -0.0921
  127MOL0     H17099   8.151  10.287   5.682 -2.7287  0.9192  0.1866
  127MOL0     H17100   8.234  10.206   5.550 -0.0954 -0.2001  0.5342
  127MOL0     H17101   8.054  10.097   5.486 -2.2286  0.7188 -2.6404
  127MOL0     H17102   7.984  10.258   5.448  1.0124  2.2561  0.9901
  127MOL0     H17103   7.934  10.097   5.701 -3.3347 -0.4000  0.1486
  127MOL0     H17104   7.822  10.124   5.564 -0.7940 -0.8437  1.7311
  127MOL0     H17105   7.702  10.427   5.517  1.3357  3.9559  2.5398
  127MOL0     H17106   7.513  10.469   5.402 -1.3561  0.6141 -1.6441
  127MOL0     H17107   7.362  10.394   5.446  2.0682 -2.6675 -0.0647
  127MOL0     H17108   7.409  10.550   5.522  1.5038 -0.5090  1.1802
  127MOL0     H17109   7.054  10.282   5.886 -3.2271 -2.5866  0.1241
  127MOL0     H17110   6.817  10.284   5.869  2.3300 -0.4475  1.3950
  127MOL0     H17111   6.605  10.598   5.636 -1.9173 -0.2880 -0.3758
  127MOL0     H17112   6.640  10.499   5.499 -1.2554  0.7358 -0.4522
  127MOL0     H17113   6.434  10.445   5.713  1.1955  4.5159  0.8744
  127MOL0     H17114   6.392  10.524   5.560 -2.9258 -0.7214  2.1297
  127MOL0     H17115   6.496  10.229   5.582 -1.2147 -0.4074  1.1212
  127MOL0     H17116   6.438  10.300   5.438 -2.1852 -1.5648 -0.3756
  127MOL0     H17117   6.287  10.274   5.697  1.4274 -2.0849  0.4405
  127MOL0     H17118   6.213  10.321   5.533 -1.5614 -0.6032  0.6881
  127MOL0     H17119   6.335  10.057   5.588 -0.8605 -1.5923 -1.3398
  127MOL0     H17120   6.260  10.113   5.440  0.3798 -0.4119 -0.2628
  127MOL0     H17121   6.122   9.964   5.566 -0.4221  0.8994  0.1157
  127MOL0     H17122   6.176  10.032   5.716  1.1759  1.0881  0.1385
  127MOL0     H17123   5.971  10.151   5.529 -1.0851 -2.5297  0.3286
  127MOL0     H17124   6.021  10.236   5.675 -2.0375  0.3694  1.5080
  127MOL0     H17125   5.814  10.130   5.698  1.8565  1.1786 -0.3634
  127MOL0     H17126   5.930  10.044   5.807 -0.7426  0.4188  1.1278
  127MOL0     H17127   6.845  10.553   5.531 -3.6281 -1.2702  1.5429
  127MOL0     H17128   7.089  10.526   5.543  2.3223 -1.7738  1.6096
  127MOL0     H17129   7.467  10.175   5.875  0.7736 -2.2035 -1.0276
  127MOL0     H17130   7.697  10.141   5.856 -1.9921  0.7825  1.3035
  127MOL0     H17131   7.003  10.477   6.151  0.7575 -1.1857 -1.5091
  127MOL0     H17132   6.817  10.339   6.189 -2.3519 -0.2720  1.7661
  127MOL0     H17133   6.569  10.129   6.113  0.8689 -1.4203 -1.1456
  127MOL0     H17134   6.462   9.916   6.073 -3.6939 -3.1101 -0.4836
  127MOL0     H17135   6.241   9.776   6.144 -0.0630 -3.2706  0.0611
  127MOL0     H17136   6.093   9.861   6.123  0.7161  0.3131 -1.3261
  127MOL0     H17137   6.083   9.619   6.107  2.2079  0.3691  0.7323
  127MOL0     H17138   6.150   9.614   5.951  0.9531 -1.8684  1.6419
  127MOL0     H17139   5.964   9.795   5.877 -1.5806 -1.1147 -1.0081
  127MOL0     H17140   5.889   9.744   6.033  0.1085 -0.4684 -0.1343
  127MOL0     H17141   5.977   9.559   5.819 -1.3325  0.3085 -0.0601
  127MOL0     H17142   5.812   9.615   5.841 -0.4846 -0.9356  0.4803
  127MOL0     H17143   5.826   9.321   6.135  0.1952 -0.8451 -1.6291
  127MOL0     H17144   6.104  10.121   5.952  1.2459  2.9953 -3.7564
  127MOL0     H17145   6.197  10.335   6.002 -1.2841 -2.2353 -3.2686
  128MOL0     O17146   0.580   8.308   0.554 -0.6325 -0.1197 -0.2267
  128MOL0     C17147   0.575   8.431   0.574 -0.6038  1.0861  1.6190
  128MOL0     O17148   0.471   8.491   0.634  0.3267  0.2342 -1.3061
  128MOL0     C17149   0.346   8.431   0.634  0.0887 -0.0307 -0.3155
  128MOL0     C17150   0.297   8.344   0.535 -0.3675 -0.3094 -0.6834
  128MOL0     C17151   0.160   8.296   0.545 -0.3793 -0.1627  0.2423
  128MOL0     C17152   0.074   8.328   0.646 -0.2911 -0.9277  1.2653
  128MOL0     O17153  -0.056   8.294   0.651 -0.7483  0.1070  0.1480
  128MOL0     C17154  -0.117   8.292   0.784 -0.9215  0.3655  0.0036
  128MOL0     C17155  -0.238   8.207   0.773 -0.8378  0.7594  0.4010
  128MOL0     C17156  -0.339   8.241   0.661 -0.0866 -1.1179 -0.3564
  128MOL0     C17157  -0.454   8.139   0.647  0.2397  0.7142  0.7159
  128MOL0     C17158  -0.548   8.169   0.532 -0.2162  0.0066  0.3807
  128MOL0     C17159  -0.687   8.107   0.560  0.2827  0.2808 -0.0479
  128MOL0     C17160  -0.794   8.129   0.443 -0.9181  0.3604  0.1581
  128MOL0     C17161  -0.788   8.016   0.337 -0.4072 -0.6796  0.9483
  128MOL0     N17162  -0.906   8.014   0.250  0.2862  0.4599 -0.3992
  128MOL0     C17163  -1.036   7.994   0.295  0.4636  0.3676 -0.7402
  128MOL0     C17164  -1.108   8.008   0.189  0.4995  0.7722 -0.2830
  128MOL0     C17165  -1.258   8.003   0.190  0.1241  0.3393  0.0531
  128MOL0     C17166  -1.313   8.095   0.084 -0.4501 -0.6387  0.2398
  128MOL0     C17167  -1.467   8.084   0.085  0.7293  0.3552 -0.6159
  128MOL0     C17168  -1.546   8.176   0.188  0.9163  0.2065  0.0021
  128MOL0     O17169  -1.559   8.097   0.305  0.0949 -0.2713  0.0287
  128MOL0     C17170  -1.658   8.151   0.381  0.1471 -0.4948  0.2065
  128MOL0     C17171  -1.781   8.090   0.384 -1.3049  0.0193  0.3862
  128MOL0     C17172  -1.894   8.125   0.459  0.8099 -0.3346 -1.1447
  128MOL0     C17173  -2.005   8.029   0.464  0.2273  1.1315 -0.0537
  128MOL0     C17174  -1.887   8.242   0.533 -0.0923 -0.3250  0.6649
  128MOL0     C17175  -1.995   8.299   0.610  0.3861 -0.7101 -0.2177
  128MOL0     O17176  -2.123   8.277   0.568  0.0333  0.3638  0.8746
  128MOL0     C17177  -2.218   8.353   0.623 -0.2552 -0.4849 -0.2397
  128MOL0     C17178  -2.301   8.286   0.710 -0.2417 -0.4473  0.9245
  128MOL0     C17179  -2.406   8.350   0.769  0.4017  0.1868 -0.4125
  128MOL0     C17180  -2.408   8.487   0.766 -0.1592  0.2010  0.4187
  128MOL0     O17181  -2.508   8.532   0.837 -0.1616 -0.3237  0.1710
  128MOL0     C17182  -2.612   8.602   0.767 -0.0701 -1.5165  0.6835
  128MOL0     C17183  -2.719   8.636   0.875  0.5120 -0.4608 -0.3809
  128MOL0     C17184  -2.854   8.689   0.817 -0.7779  1.0673  0.0513
  128MOL0     C17185  -2.941   8.745   0.927 -0.2951 -0.1178  0.2943
  128MOL0     C17186  -3.091   8.757   0.900 -0.3958 -0.5577  0.1825
  128MOL0     C17187  -3.169   8.629   0.927  0.6750  0.2376 -0.7697
  128MOL0     C17188  -3.317   8.648   0.889  0.9788  1.0733 -0.4438
  128MOL0     C17189  -3.330   8.655   0.736  0.0406 -0.3755  0.0307
  128MOL0    Cl17190  -3.507   8.683   0.709 -0.2942 -0.3016 -0.2287
  128MOL0     C17191  -2.317   8.563   0.677  0.5720 -0.1782  0.5983
  128MOL0     C17192  -2.224   8.490   0.602  0.0952 -0.5991 -1.2604
  128MOL0     O17193  -1.963   8.375   0.701 -0.0789 -0.4328 -0.3204
  128MOL0     C17194  -1.761   8.304   0.536 -0.2678 -0.3090  0.8625
  128MOL0     C17195  -1.646   8.262   0.461  0.2720  0.9634  0.5027
  128MOL0     N17196  -1.031   8.037   0.079 -0.3961 -0.2792  0.1227
  128MOL0     N17197  -0.906   8.031   0.114 -0.1635  0.4189  0.8458
  128MOL0     C17198   0.129   8.415   0.747  0.4896  0.3346  0.2315
  128MOL0     C17199   0.255   8.463   0.737  0.6002 -0.0162 -0.3285
  128MOL0     C17200   0.682   8.514   0.536 -0.5322  0.0477  0.5940
  128MOL0     C17201   0.713   8.630   0.614  0.3029 -0.5067 -0.6214
  128MOL0     C17202   0.821   8.709   0.584 -0.4570 -0.7782  0.0819
  128MOL0     C17203   0.924   8.669   0.493 -0.0697 -0.4327 -0.5762
  128MOL0     O17204   1.040   8.747   0.491 -0.2539  0.1156  0.5719
  128MOL0     C17205   1.136   8.715   0.391 -0.1873  0.1580 -0.3146
  128MOL0     C17206   1.256   8.799   0.398 -0.0950 -0.7726 -1.0227
  128MOL0     C17207   1.374   8.729   0.332 -0.0907  0.6751 -0.1702
  128MOL0     C17208   1.500   8.820   0.353 -0.4931 -0.1153 -0.0656
  128MOL0     C17209   1.603   8.743   0.285  0.0014 -0.1905  0.6578
  128MOL0     C17210   1.696   8.677   0.239  0.1404 -0.5883 -0.1849
  128MOL0     C17211   0.894   8.552   0.420  0.7971  0.0629  0.2761
  128MOL0     C17212   0.783   8.470   0.443 -0.3353 -0.4574  0.0680
  128MOL0     H17213   0.355   8.305   0.452  1.0239  2.2767 -1.0473
  128MOL0     H17214   0.124   8.216   0.481  1.1954 -0.2437 -0.6014
  128MOL0     H17215  -0.054   8.254   0.864 -1.4736  0.9718  0.7361
  128MOL0     H17216  -0.142   8.394   0.815 -0.4191  0.1509  1.1469
  128MOL0     H17217  -0.207   8.106   0.746 -1.0975  0.2679  1.8672
  128MOL0     H17218  -0.286   8.190   0.870 -1.1285 -0.4903  0.0575
  128MOL0     H17219  -0.381   8.341   0.668  0.6681 -0.8689  1.1105
  128MOL0     H17220  -0.279   8.229   0.570  2.0958  0.6057  0.7780
  128MOL0     H17221  -0.414   8.043   0.614  1.1747  0.3380  2.7703
  128MOL0     H17222  -0.499   8.136   0.747  0.1883  1.4806  0.7213
  128MOL0     H17223  -0.566   8.276   0.517  1.5735  0.3644  0.6172
  128MOL0     H17224  -0.507   8.117   0.445 -1.5640  0.1063 -0.3459
  128MOL0     H17225  -0.679   7.998   0.569  0.6239  0.4522  2.6954
  128MOL0     H17226  -0.726   8.143   0.655 -0.3006 -3.1661  1.1749
  128MOL0     H17227  -0.898   8.133   0.477 -1.6673 -2.4831 -1.4651
  128MOL0     H17228  -0.787   8.225   0.391 -1.5841  0.3622  0.0602
  128MOL0     H17229  -0.777   7.914   0.376 -0.2513 -1.8229 -1.8831
  128MOL0     H17230  -0.700   8.031   0.274 -0.9664 -3.2140 -0.5724
  128MOL0     H17231  -1.072   7.966   0.393 -0.2945 -0.5227 -1.2611
  128MOL0     H17232  -1.293   7.902   0.168  0.2933 -0.3547  2.6186
  128MOL0     H17233  -1.298   8.022   0.290  3.9124 -2.2979  2.2984
  128MOL0     H17234  -1.274   8.065  -0.014  0.3811 -1.2930  0.7568
  128MOL0     H17235  -1.289   8.199   0.111 -0.4627 -0.4823 -0.3446
  128MOL0     H17236  -1.491   7.979   0.099  1.1090  0.2291 -0.9034
  128MOL0     H17237  -1.501   8.109  -0.016  0.6139  1.4476 -0.3249
  128MOL0     H17238  -1.643   8.189   0.139 -0.1186 -3.4884  0.7717
  128MOL0     H17239  -1.489   8.265   0.216  0.6843 -0.3380  2.4254
  128MOL0     H17240  -1.784   7.996   0.330 -0.4120 -0.0782  0.4938
  128MOL0     H17241  -1.975   7.948   0.396  0.4462  2.3841 -1.5122
  128MOL0     H17242  -2.020   7.988   0.564 -1.6314 -0.8514 -1.0654
  128MOL0     H17243  -2.098   8.076   0.429  0.3163  1.6230  0.3600
  128MOL0     H17244  -2.297   8.179   0.725 -1.6272 -0.6307  0.1300
  128MOL0     H17245  -2.467   8.301   0.844  0.5074 -0.5801 -0.8256
  128MOL0     H17246  -2.579   8.699   0.729  0.3205 -1.9242 -0.0435
  128MOL0     H17247  -2.648   8.538   0.686  0.9678 -0.3280 -0.7625
  128MOL0     H17248  -2.734   8.544   0.932 -1.2600 -0.2646 -0.4739
  128MOL0     H17249  -2.678   8.714   0.939 -2.2757 -0.0550  1.0706
  128MOL0     H17250  -2.911   8.611   0.766  0.7579  0.0429 -0.1784
  128MOL0     H17251  -2.825   8.764   0.743  5.4229 -1.6213 -0.8849
  128MOL0     H17252  -2.935   8.682   1.017  0.3343 -0.0910  0.2750
  128MOL0     H17253  -2.909   8.845   0.958 -0.1635 -0.2385  0.5527
  128MOL0     H17254  -3.099   8.789   0.796 -1.3452  0.1974  0.4642
  128MOL0     H17255  -3.133   8.836   0.965 -0.3611 -0.6154  0.2745
  128MOL0     H17256  -3.131   8.546   0.866 -2.8614 -2.4295  0.3296
  128MOL0     H17257  -3.163   8.599   1.032  0.7706  0.2440 -0.7738
  128MOL0     H17258  -3.372   8.729   0.938 -1.6209 -1.6074  1.4586
  128MOL0     H17259  -3.363   8.551   0.912  0.6813  0.6971 -2.4399
  128MOL0     H17260  -3.298   8.563   0.685 -2.6473 -1.2771 -0.1744
  128MOL0     H17261  -3.276   8.738   0.691  0.7711 -1.6495 -1.5536
  128MOL0     H17262  -2.337   8.669   0.662 -0.8390 -0.5540 -0.4125
  128MOL0     H17263  -2.156   8.548   0.540 -0.7326  2.1891  0.2396
  128MOL0     H17264  -1.743   8.392   0.598  1.6497 -0.1258  0.1250
  128MOL0     H17265  -1.560   8.326   0.479  0.6020  0.9070 -0.7961
  128MOL0     H17266   0.061   8.440   0.828  0.1698  3.1692 -0.7840
  128MOL0     H17267   0.274   8.532   0.818 -3.0836 -0.5336  1.1947
  128MOL0     H17268   0.656   8.663   0.700  0.0205 -1.6631 -0.3465
  128MOL0     H17269   0.825   8.813   0.612  0.8962 -0.0905 -2.3473
  128MOL0     H17270   1.162   8.610   0.411 -2.9811 -0.4103  0.7828
  128MOL0     H17271   1.095   8.704   0.290 -0.1995 -2.1317 -0.1137
  128MOL0     H17272   1.278   8.816   0.503 -2.7799 -0.0936 -0.5065
  128MOL0     H17273   1.231   8.898   0.359  0.5960  0.7803  2.1429
  128MOL0     H17274   1.368   8.717   0.223  0.1182 -2.1083  0.0534
  128MOL0     H17275   1.392   8.635   0.385 -2.1657 -1.2105 -2.5239
  128MOL0     H17276   1.512   8.836   0.460  0.9862  1.6453 -0.4441
  128MOL0     H17277   1.483   8.921   0.313 -1.9253 -0.4574 -0.3979
  128MOL0     H17278   1.768   8.607   0.202  2.2257  0.2061  2.1116
  128MOL0     H17279   0.952   8.530   0.331 -0.1931  0.8073 -0.5768
  128MOL0     H17280   0.764   8.383   0.381 -1.7820  1.5229 -2.4874
  129MOL0     O17281   9.737   5.511   2.492  0.7823  0.2708 -0.3159
  129MOL0     C17282   9.717   5.575   2.596 -0.9266 -0.9274  0.4061
  129MOL0     O17283   9.598   5.624   2.633  0.0002  0.2173 -0.1097
  129MOL0     C17284   9.475   5.569   2.580 -0.4515 -0.0799 -0.4338
  129MOL0     C17285   9.420   5.446   2.620 -0.3479 -0.0708 -0.0282
  129MOL0     C17286   9.301   5.393   2.564 -1.1358 -0.2087 -0.1570
  129MOL0     C17287   9.243   5.453   2.451 -0.4179 -0.6779 -0.4280
  129MOL0     O17288   9.137   5.395   2.387  1.0680 -0.7472  0.3788
  129MOL0     C17289   9.038   5.331   2.463  0.8644 -0.8164 -0.3125
  129MOL0     C17290   8.932   5.268   2.376 -0.0262  0.1907  0.4018
  129MOL0     C17291   8.839   5.203   2.475  0.8955  0.1484 -0.5622
  129MOL0     C17292   8.719   5.151   2.405  0.2984  0.3602  0.3618
  129MOL0     C17293   8.650   5.055   2.499  0.3451  0.1303 -0.1438
  129MOL0     C17294   8.583   5.136   2.607 -0.0943  0.5358 -0.7379
  129MOL0     C17295   8.473   5.043   2.655 -0.5977 -0.8626  0.8211
  129MOL0     C17296   8.422   5.087   2.800  0.9471 -0.2897  0.3953
  129MOL0     N17297   8.323   4.989   2.851 -1.0161 -0.1942 -0.2583
  129MOL0     C17298   8.194   4.975   2.822  0.4563 -0.6504 -0.3493
  129MOL0     C17299   8.157   4.845   2.852  0.6681  0.0948  0.4243
  129MOL0     C17300   8.039   4.764   2.820 -0.4229  1.2699 -0.3938
  129MOL0     C17301   7.914   4.822   2.756  0.3166 -0.4868 -0.0445
  129MOL0     C17302   7.926   4.863   2.601  0.7726  0.5282  0.9836
  129MOL0     C17303   7.800   4.938   2.543  0.8130 -0.3048  0.7605
  129MOL0     O17304   7.688   4.850   2.561  0.2863 -0.6971  0.2349
  129MOL0     C17305   7.577   4.881   2.487 -0.3419 -0.9989  0.5687
  129MOL0     C17306   7.564   4.996   2.411  0.7054 -0.8405  1.1521
  129MOL0     C17307   7.468   5.021   2.315  0.1329  0.9526  0.3604
  129MOL0     C17308   7.480   5.142   2.223  1.0166 -0.5377 -0.1497
  129MOL0     C17309   7.373   4.910   2.293 -0.5050 -0.2947 -0.1951
  129MOL0     C17310   7.275   4.900   2.181 -0.1865 -0.3333  0.0314
  129MOL0     O17311   7.302   4.806   2.084  0.0923 -0.4866  0.6319
  129MOL0     C17312   7.211   4.792   1.980 -0.7053  0.6902  0.3292
  129MOL0     C17313   7.139   4.670   1.968 -0.2579 -0.2773  0.2289
  129MOL0     C17314   7.047   4.659   1.865  0.0130  0.6188 -0.5452
  129MOL0     C17315   7.027   4.755   1.769  0.0888  0.8238  0.1984
  129MOL0     O17316   6.932   4.743   1.668  0.2043 -0.2446 -0.5326
  129MOL0     C17317   6.949   4.630   1.585 -0.3489  0.3706  0.1518
  129MOL0     C17318   6.906   4.651   1.442 -1.4806  0.0692  0.3152
  129MOL0     C17319   6.771   4.598   1.404 -0.2708 -0.0803  0.0183
  129MOL0     C17320   6.762   4.583   1.251 -0.4554  0.2743  0.0935
  129MOL0     C17321   6.621   4.546   1.197  0.2667  0.1369  0.1136
  129MOL0     C17322   6.515   4.654   1.225 -0.5126  0.0033 -0.5597
  129MOL0     C17323   6.363   4.612   1.193  0.2565  0.3289 -0.6196
  129MOL0     C17324   6.340   4.625   1.037 -0.0124 -0.3400 -0.8845
  129MOL0    Cl17325   6.176   4.623   0.970  0.0160  0.0040 -0.2688
  129MOL0     C17326   7.102   4.872   1.790  0.2343 -0.0329  1.0472
  129MOL0     C17327   7.187   4.895   1.900 -0.5858 -0.5841  0.5880
  129MOL0     O17328   7.171   4.965   2.194 -0.4027  0.1456 -0.3511
  129MOL0     C17329   7.382   4.801   2.373  0.2928  0.0347  0.1014
  129MOL0     C17330   7.482   4.783   2.470  0.5591  0.6394  0.0145
  129MOL0     N17331   8.266   4.793   2.910  0.2027  0.4892  0.3014
  129MOL0     N17332   8.367   4.872   2.906  0.0398 -0.7218  0.8036
  129MOL0     C17333   9.300   5.581   2.404 -0.0657  0.1917  0.4280
  129MOL0     C17334   9.410   5.637   2.473  0.4229  1.1068 -0.6071
  129MOL0     C17335   9.842   5.606   2.670 -0.7455 -0.0430  0.5758
  129MOL0     C17336   9.837   5.671   2.797  0.6073  0.7678 -0.9007
  129MOL0     C17337   9.948   5.721   2.863  0.2327 -0.9156  0.1510
  129MOL0     C17338  10.073   5.698   2.805 -0.8196 -0.4878  0.3534
  129MOL0     O17339  10.190   5.740   2.867  0.0908 -0.6542 -0.0569
  129MOL0     C17340  10.235   5.874   2.841  0.6908 -0.3002 -0.0323
  129MOL0     C17341  10.278   5.946   2.974  0.5236 -0.1443  0.0005
  129MOL0     C17342  10.154   5.946   3.074  0.4189  0.2370  0.1125
  129MOL0     C17343  10.179   6.030   3.201  0.4982 -0.5312 -0.9122
  129MOL0     C17344  10.213   6.168   3.170 -0.3529 -0.4829 -0.6473
  129MOL0     C17345  10.230   6.287   3.145  0.0435  0.3134 -0.6392
  129MOL0     C17346  10.083   5.632   2.682 -0.2769 -0.8851 -0.2127
  129MOL0     C17347   9.972   5.587   2.609 -0.4127  0.2822  0.0371
  129MOL0     H17348   9.475   5.397   2.700 -0.4750 -0.7393 -0.3454
  129MOL0     H17349   9.266   5.298   2.604 -1.7178  0.3142  0.6087
  129MOL0     H17350   9.077   5.250   2.525  0.5905 -1.3870 -0.8859
  129MOL0     H17351   8.985   5.411   2.516  2.2555 -0.0299 -0.0441
  129MOL0     H17352   8.884   5.340   2.310 -2.4275 -0.5822  1.1928
  129MOL0     H17353   8.983   5.188   2.322 -0.0209 -1.3727  2.5842
  129MOL0     H17354   8.889   5.117   2.521  1.4706 -0.1683 -1.7380
  129MOL0     H17355   8.814   5.271   2.557 -3.4236 -1.7750 -0.0311
  129MOL0     H17356   8.652   5.237   2.388  0.9433  1.1457  1.6660
  129MOL0     H17357   8.741   5.093   2.315  1.3767 -0.9984  1.4745
  129MOL0     H17358   8.576   5.001   2.440  0.3339  0.2345 -0.2253
  129MOL0     H17359   8.719   4.979   2.537  1.0606  0.3394 -0.9912
  129MOL0     H17360   8.642   5.160   2.696  0.8205 -1.2305 -0.8383
  129MOL0     H17361   8.548   5.234   2.574  3.1784  2.1523  0.1486
  129MOL0     H17362   8.391   5.054   2.583 -0.0641 -3.1649 -0.2127
  129MOL0     H17363   8.513   4.941   2.650 -1.1634 -1.0560  0.1703
  129MOL0     H17364   8.378   5.187   2.792 -0.1000 -0.8802 -1.9429
  129MOL0     H17365   8.504   5.092   2.872 -0.3452  0.0083  1.9145
  129MOL0     H17366   8.130   5.049   2.775  1.9636  1.1451  0.3271
  129MOL0     H17367   8.072   4.676   2.763  2.1183  0.7212  1.7166
  129MOL0     H17368   8.004   4.723   2.915 -0.1969 -1.5381 -1.4114
  129MOL0     H17369   7.875   4.907   2.813 -1.7891 -0.6730 -1.1155
  129MOL0     H17370   7.841   4.741   2.750  2.0622 -2.3588  2.3352
  129MOL0     H17371   7.938   4.767   2.549 -0.1590  0.4150  0.9463
  129MOL0     H17372   8.021   4.913   2.580 -0.0008  2.9744  2.8757
  129MOL0     H17373   7.823   4.969   2.441  0.0564  1.3977  1.0764
  129MOL0     H17374   7.789   5.030   2.602 -0.5176  0.8236 -1.1300
  129MOL0     H17375   7.627   5.082   2.429 -2.4068  1.2795  2.8741
  129MOL0     H17376   7.577   5.182   2.253  1.4965 -2.4084  0.9685
  129MOL0     H17377   7.485   5.127   2.114  2.1011  1.8277 -0.4664
  129MOL0     H17378   7.404   5.216   2.251 -0.2302 -1.8510  0.0832
  129MOL0     H17379   7.159   4.586   2.035  0.4399 -0.1678  0.1591
  129MOL0     H17380   6.989   4.568   1.853  3.1126 -2.1412  3.0501
  129MOL0     H17381   7.057   4.613   1.584 -0.4255 -0.3060  1.5283
  129MOL0     H17382   6.904   4.539   1.627 -0.7425  0.2265 -0.5653
  129MOL0     H17383   6.926   4.754   1.412  0.8442 -0.1955  0.7142
  129MOL0     H17384   6.974   4.602   1.371 -0.1260  2.5940 -0.2392
  129MOL0     H17385   6.717   4.688   1.436  2.0029  1.2189  0.4116
  129MOL0     H17386   6.732   4.511   1.458  0.2461 -0.7181 -0.6268
  129MOL0     H17387   6.801   4.675   1.205 -0.1486  1.1748  2.0450
  129MOL0     H17388   6.833   4.504   1.226 -2.0470 -2.0728  2.4912
  129MOL0     H17389   6.587   4.451   1.239  0.5305  1.1042  2.7040
  129MOL0     H17390   6.643   4.537   1.090 -0.8231  2.0370 -0.3170
  129MOL0     H17391   6.513   4.684   1.331 -5.0925 -0.4652 -0.3203
  129MOL0     H17392   6.540   4.742   1.165  1.4438 -1.9854 -2.8918
  129MOL0     H17393   6.301   4.684   1.249  1.6437  0.6541  0.5630
  129MOL0     H17394   6.365   4.513   1.240 -0.7562  1.4651  2.0550
  129MOL0     H17395   6.398   4.548   0.985 -0.1582  1.2201 -3.5264
  129MOL0     H17396   6.371   4.720   0.994  1.7149 -0.8670 -0.8844
  129MOL0     H17397   7.095   4.951   1.715 -2.1202  0.5057  1.7345
  129MOL0     H17398   7.244   4.987   1.891 -0.5920 -0.7495 -1.8571
  129MOL0     H17399   7.302   4.729   2.362 -2.0839  2.5017  0.3362
  129MOL0     H17400   7.488   4.694   2.532  0.6586  0.7018  0.0944
  129MOL0     H17401   9.265   5.621   2.310  1.2869  2.0029  0.6235
  129MOL0     H17402   9.442   5.732   2.433 -0.1593  0.9424 -1.5018
  129MOL0     H17403   9.743   5.701   2.842 -0.0972 -0.1955 -1.6864
  129MOL0     H17404   9.947   5.781   2.953  0.0464  0.0557 -0.4873
  129MOL0     H17405  10.315   5.869   2.767  0.5131  0.2462 -0.2671
  129MOL0     H17406  10.157   5.939   2.801  2.3914  0.7791 -1.7318
  129MOL0     H17407  10.304   6.047   2.943  0.5223 -0.1174  0.0897
  129MOL0     H17408  10.367   5.914   3.027 -0.1114  0.0999  1.2426
  129MOL0     H17409  10.134   5.840   3.096  0.9166 -0.1206 -1.0678
  129MOL0     H17410  10.060   5.992   3.042  0.4505  0.8445  0.8659
  129MOL0     H17411  10.244   5.979   3.272 -1.6294  2.3826  3.5962
  129MOL0     H17412  10.084   6.043   3.254  1.8544 -2.7785  2.4055
  129MOL0     H17413  10.245   6.391   3.124 -0.1310  0.5891  0.5389
  129MOL0     H17414  10.187   5.620   2.655 -0.5733 -0.9796 -1.3566
  129MOL0     H17415   9.978   5.532   2.515  1.0774  0.3648  0.0600
  130MOL0     O17416   2.908  10.691   7.718 -0.4144  0.0527 -0.1744
  130MOL0     C17417   2.972  10.761   7.795 -0.2434  0.4482  0.8052
  130MOL0     O17418   2.918  10.850   7.880 -0.5323 -0.1924 -0.3790
  130MOL0     C17419   2.796  10.915   7.885  0.0477  0.1539 -0.2147
  130MOL0     C17420   2.804  11.040   7.945 -0.1079  0.0297 -0.0045
  130MOL0     C17421   2.688  11.112   7.959 -0.5386  1.0387 -0.1329
  130MOL0     C17422   2.566  11.062   7.923 -0.2912 -0.4384  0.8097
  130MOL0     O17423   2.453  11.134   7.926  0.2327 -0.2814 -0.4267
  130MOL0     C17424   2.437  11.241   8.018 -0.0252  0.3421  0.6939
  130MOL0     C17425   2.293  11.265   8.068  0.0207 -0.2945  0.6876
  130MOL0     C17426   2.185  11.291   7.964 -0.2338  0.2663  0.4534
  130MOL0     C17427   2.045  11.296   8.028 -0.3049 -0.0455 -0.2281
  130MOL0     C17428   1.929  11.286   7.924 -0.6937 -0.8631  0.1858
  130MOL0     C17429   1.806  11.235   7.995 -0.8694  0.5590  0.1427
  130MOL0     C17430   1.694  11.211   7.899  0.5310  0.4825 -0.4221
  130MOL0     C17431   1.647  11.344   7.838 -0.4316 -0.9384 -0.2058
  130MOL0     N17432   1.524  11.328   7.761  0.2249  0.1823  0.4221
  130MOL0     C17433   1.465  11.210   7.731  0.1343  1.0236 -0.1111
  130MOL0     C17434   1.335  11.238   7.715 -0.9084  0.3274 -0.7970
  130MOL0     C17435   1.219  11.149   7.711 -0.0104  0.3305  0.3423
  130MOL0     C17436   1.171  11.122   7.861 -0.0994 -0.6271 -0.0001
  130MOL0     C17437   1.062  11.005   7.858 -0.2413  0.0827 -0.3191
  130MOL0     C17438   0.924  11.039   7.800 -0.2187  0.0582 -0.0542
  130MOL0     O17439   0.835  10.926   7.802 -0.6599  0.8976  0.2919
  130MOL0     C17440   0.701  10.942   7.780  0.1170 -0.1442 -0.2399
  130MOL0     C17441   0.627  10.830   7.786  0.4782 -0.0179 -0.7446
  130MOL0     C17442   0.492  10.819   7.766 -0.3916 -0.0992 -1.0835
  130MOL0     C17443   0.418  10.684   7.776  0.4617 -0.0391  0.2701
  130MOL0     C17444   0.426  10.936   7.736  0.6651 -0.3846  0.9540
  130MOL0     C17445   0.285  10.946   7.710 -0.3944 -0.6194 -0.1773
  130MOL0     O17446   0.246  10.892   7.596 -0.2809  0.1368  0.0644
  130MOL0     C17447   0.105  10.895   7.567  0.9394 -0.8548 -0.4314
  130MOL0     C17448   0.058  10.962   7.452 -0.5545 -0.0463 -0.6531
  130MOL0     C17449  -0.080  10.968   7.432 -0.7066  0.3327 -0.2651
  130MOL0     C17450  -0.172  10.896   7.515 -0.2585 -0.1469 -0.9775
  130MOL0     O17451  -0.304  10.929   7.491 -0.6620 -0.4204 -0.5620
  130MOL0     C17452  -0.398  10.851   7.550 -0.5446 -0.5870 -0.8200
  130MOL0     C17453  -0.539  10.915   7.539 -0.1893 -0.6239  0.1416
  130MOL0     C17454  -0.595  10.928   7.390 -0.1887  0.3945 -0.9490
  130MOL0     C17455  -0.731  10.995   7.396  0.1708 -0.0966 -0.6215
  130MOL0     C17456  -0.803  11.009   7.261  0.0164 -0.5478  0.6853
  130MOL0     C17457  -0.949  11.055   7.278 -0.9549 -1.2657  0.7877
  130MOL0     C17458  -1.022  11.088   7.152  0.3567  0.5800  0.5647
  130MOL0     C17459  -1.145  11.170   7.182 -0.2298 -0.2504  0.4053
  130MOL0    Cl17460  -1.272  11.061   7.253 -0.1731 -0.0009  0.5506
  130MOL0     C17461  -0.120  10.817   7.621  0.3903 -0.1658 -0.8047
  130MOL0     C17462   0.020  10.813   7.643  0.5072 -0.4264  0.7087
  130MOL0     O17463   0.212  11.007   7.783 -0.4030  0.1672  0.2883
  130MOL0     C17464   0.498  11.058   7.726  0.4786  0.0048 -0.0738
  130MOL0     C17465   0.641  11.060   7.748  0.5332 -0.2489 -0.9305
  130MOL0     N17466   1.318  11.372   7.725  0.5020  0.5730  0.0739
  130MOL0     N17467   1.430  11.427   7.761  0.0022 -0.3552  0.9185
  130MOL0     C17468   2.560  10.941   7.852 -0.3665 -0.0930 -0.0749
  130MOL0     C17469   2.677  10.865   7.837  0.0573 -0.9169 -0.4151
  130MOL0     C17470   3.114  10.760   7.780 -1.4375 -0.3567  0.2749
  130MOL0     C17471   3.190  10.660   7.722  0.1734  0.0260  0.1580
  130MOL0     C17472   3.334  10.675   7.724  0.1494 -0.1504  0.3247
  130MOL0     C17473   3.389  10.796   7.744 -0.4428 -0.2533 -0.3558
  130MOL0     O17474   3.520  10.834   7.717 -0.1564 -0.0843 -0.5883
  130MOL0     C17475   3.622  10.745   7.762 -0.7247  0.3183 -0.7443
  130MOL0     C17476   3.622  10.721   7.914 -1.2364  0.0079 -0.4537
  130MOL0     C17477   3.705  10.590   7.929  0.3617  0.6308 -0.0114
  130MOL0     C17478   3.772  10.593   8.071  0.1006  0.2232 -1.2227
  130MOL0     C17479   3.675  10.597   8.183  0.0721  0.1184 -0.4213
  130MOL0     C17480   3.588  10.604   8.265 -1.0841 -0.9656 -0.0237
  130MOL0     C17481   3.316  10.903   7.790  0.6093 -0.1187 -0.2276
  130MOL0     C17482   3.177  10.889   7.805  0.3788  0.7248  0.7379
  130MOL0     H17483   2.903  11.069   7.978  0.3476 -3.2812  1.9505
  130MOL0     H17484   2.695  11.211   8.004  0.4111  1.8392 -1.9502
  130MOL0     H17485   2.491  11.215   8.110  0.2944 -0.9306  0.1677
  130MOL0     H17486   2.481  11.329   7.970  4.4630 -1.9891 -0.0275
  130MOL0     H17487   2.264  11.175   8.123  0.5182 -0.7657  0.1994
  130MOL0     H17488   2.298  11.349   8.137  2.1613 -1.6131  2.2526
  130MOL0     H17489   2.202  11.381   7.905 -0.9049  1.2483  1.7073
  130MOL0     H17490   2.188  11.209   7.892 -0.6519  0.7450 -0.1166
  130MOL0     H17491   2.035  11.216   8.102  0.9178  0.1970  0.2144
  130MOL0     H17492   2.028  11.387   8.086  2.0099 -0.7300  1.6625
  130MOL0     H17493   1.926  11.384   7.876  0.3851 -1.8941 -2.1533
  130MOL0     H17494   1.953  11.209   7.850 -1.8069 -2.6683  1.6176
  130MOL0     H17495   1.815  11.143   8.053 -1.4503  0.8771  0.7575
  130MOL0     H17496   1.770  11.317   8.058  0.6262 -0.2996  2.2313
  130MOL0     H17497   1.722  11.130   7.832  3.2552 -0.5529  1.7806
  130MOL0     H17498   1.613  11.176   7.964  2.1098 -1.2646  0.6901
  130MOL0     H17499   1.727  11.376   7.771 -2.5623  3.2042 -1.0798
  130MOL0     H17500   1.638  11.422   7.915  0.8390 -1.2310  0.2618
  130MOL0     H17501   1.504  11.109   7.736 -1.7701  0.2492 -0.0412
  130MOL0     H17502   1.129  11.192   7.667 -0.2992  0.4683  1.0532
  130MOL0     H17503   1.242  11.055   7.659 -3.5165  0.2792 -1.4003
  130MOL0     H17504   1.126  11.208   7.911 -0.4794 -2.2923  2.7213
  130MOL0     H17505   1.263  11.094   7.913  0.1340 -1.7906 -0.9826
  130MOL0     H17506   1.054  10.965   7.960  1.1815  0.0096 -0.2117
  130MOL0     H17507   1.102  10.922   7.799 -0.0781  0.4332 -0.7007
  130MOL0     H17508   0.940  11.052   7.692  1.9167 -1.3550  0.0477
  130MOL0     H17509   0.894  11.139   7.832 -2.1666 -1.1707  2.3174
  130MOL0     H17510   0.690  10.746   7.813  1.4277  0.3926 -1.5971
  130MOL0     H17511   0.317  10.684   7.733  0.4067 -1.3500  0.3792
  130MOL0     H17512   0.464  10.600   7.724  1.2002 -0.0801  0.9630
  130MOL0     H17513   0.410  10.660   7.883  2.1886 -1.1435  0.1723
  130MOL0     H17514   0.130  11.011   7.388  1.7215  1.3996  2.7273
  130MOL0     H17515  -0.109  11.029   7.347 -2.1747 -1.4145 -1.0977
  130MOL0     H17516  -0.397  10.753   7.502 -1.6021  0.5186 -3.2576
  130MOL0     H17517  -0.373  10.841   7.656  0.6386 -0.5709 -1.0852
  130MOL0     H17518  -0.613  10.860   7.599 -0.6601  0.6890  0.8097
  130MOL0     H17519  -0.519  11.011   7.587 -0.9085  0.2395 -1.2434
  130MOL0     H17520  -0.604  10.833   7.337  0.7466  0.1384 -0.6707
  130MOL0     H17521  -0.534  10.994   7.326 -2.2519 -1.0184 -4.7277
  130MOL0     H17522  -0.788  10.942   7.472  0.6404  1.9231  1.2515
  130MOL0     H17523  -0.714  11.095   7.437 -2.0718 -0.3121  1.0048
  130MOL0     H17524  -0.802  10.915   7.206  0.0200 -0.8654  1.2229
  130MOL0     H17525  -0.748  11.083   7.202 -0.6510  0.0485  0.8009
  130MOL0     H17526  -0.999  10.974   7.332 -1.9814 -0.1433  1.5730
  130MOL0     H17527  -0.937  11.139   7.347  0.3229 -0.3277 -0.5367
  130MOL0     H17528  -1.048  11.002   7.090  1.1240  2.3472 -2.4670
  130MOL0     H17529  -0.952  11.150   7.094 -1.0056 -0.2704 -2.1820
  130MOL0     H17530  -1.187  11.212   7.090  2.5003 -1.8384 -1.7417
  130MOL0     H17531  -1.126  11.256   7.246 -0.8284  0.9301 -0.9581
  130MOL0     H17532  -0.181  10.769   7.697  3.7834 -1.0648  1.5860
  130MOL0     H17533   0.065  10.758   7.725  0.8076 -2.1555 -0.5787
  130MOL0     H17534   0.450  11.155   7.715  3.0984  1.3594 -0.2434
  130MOL0     H17535   0.689  11.157   7.733 -0.4693  0.2676 -0.8497
  130MOL0     H17536   2.472  10.904   7.800  0.4477 -2.6497  0.1894
  130MOL0     H17537   2.666  10.770   7.784 -2.8907 -0.1670 -1.3411
  130MOL0     H17538   3.138  10.569   7.695 -1.5998  1.0903 -0.1704
  130MOL0     H17539   3.399  10.595   7.689  1.4935  0.4235  1.4290
  130MOL0     H17540   3.632  10.660   7.693 -0.0010  0.3393 -0.6771
  130MOL0     H17541   3.723  10.787   7.755  0.0242 -1.4519 -1.3019
  130MOL0     H17542   3.519  10.713   7.949 -0.9682  2.9162  1.3292
  130MOL0     H17543   3.667  10.806   7.967 -1.2439 -0.0154 -0.4111
  130MOL0     H17544   3.796  10.577   7.869 -1.1170 -0.8114 -2.0718
  130MOL0     H17545   3.647  10.501   7.904  1.3611 -0.1048  0.1847
  130MOL0     H17546   3.834  10.683   8.071  0.0647  0.2474 -1.2418
  130MOL0     H17547   3.839  10.510   8.095  1.0657  1.7826  2.0120
  130MOL0     H17548   3.514  10.596   8.342  0.2778  0.1802  1.4802
  130MOL0     H17549   3.358  11.001   7.809 -3.0831  1.1726  2.4085
  130MOL0     H17550   3.112  10.973   7.825 -2.4137 -1.0062 -0.3906
  131MOL0     O17551   9.470   5.332   0.395 -0.0477  0.6696 -0.1149
  131MOL0     C17552   9.561   5.277   0.457 -0.1770  0.0638 -0.0983
  131MOL0     O17553   9.560   5.255   0.590  0.8820 -0.2327 -0.6184
  131MOL0     C17554   9.454   5.257   0.673 -0.9601  0.0471  0.4531
  131MOL0     C17555   9.479   5.203   0.802 -0.7329 -0.7878 -0.6379
  131MOL0     C17556   9.380   5.203   0.898  0.3016  0.2486  0.2703
  131MOL0     C17557   9.251   5.250   0.873  0.1474  0.1139 -0.1462
  131MOL0     O17558   9.166   5.250   0.986 -0.2617 -0.2406  0.7480
  131MOL0     C17559   9.077   5.373   0.988  0.6559 -0.3762 -0.2382
  131MOL0     C17560   8.954   5.376   0.891 -0.1249 -0.1514  0.4518
  131MOL0     C17561   8.832   5.415   0.972 -0.7123 -0.5354 -0.2421
  131MOL0     C17562   8.798   5.294   1.056  0.0275  0.1680  0.6492
  131MOL0     C17563   8.697   5.325   1.159 -0.2953 -0.4972 -0.7816
  131MOL0     C17564   8.556   5.337   1.102 -0.2360  0.2953  0.3317
  131MOL0     C17565   8.445   5.341   1.204  0.0813 -0.5395  0.4065
  131MOL0     C17566   8.318   5.416   1.143 -0.0288  0.0050 -1.2067
  131MOL0     N17567   8.217   5.448   1.242  0.1503 -0.5036 -0.5158
  131MOL0     C17568   8.090   5.390   1.242 -0.0510 -0.2471  0.3686
  131MOL0     C17569   8.022   5.474   1.336 -0.5057 -0.4273 -0.1223
  131MOL0     C17570   7.872   5.476   1.390  0.1772  0.3168  1.0765
  131MOL0     C17571   7.852   5.372   1.507 -0.3042 -0.6282 -0.3104
  131MOL0     C17572   7.851   5.227   1.469 -0.0521  0.4541 -0.2550
  131MOL0     C17573   7.725   5.179   1.391 -0.4864 -0.2622 -0.1308
  131MOL0     O17574   7.714   5.230   1.258 -1.1566  0.8700 -0.5646
  131MOL0     C17575   7.622   5.171   1.178  0.5390  0.1809 -1.0184
  131MOL0     C17576   7.665   5.172   1.047 -0.1138  0.2323  0.3706
  131MOL0     C17577   7.606   5.099   0.945 -0.2608 -0.4725  1.1537
  131MOL0     C17578   7.667   5.114   0.800 -0.2292 -0.3907 -0.3398
  131MOL0     C17579   7.487   5.026   0.974  0.5544  0.7141 -0.1417
  131MOL0     C17580   7.402   4.952   0.872 -0.3722  0.1818  0.2860
  131MOL0     O17581   7.271   4.914   0.915  0.0740  1.0109  0.2199
  131MOL0     C17582   7.200   4.833   0.832 -0.1259 -0.3818 -0.3153
  131MOL0     C17583   7.196   4.697   0.859  0.2008  0.1735  0.5912
  131MOL0     C17584   7.121   4.614   0.774  0.0422  0.3232  0.1720
  131MOL0     C17585   7.051   4.674   0.670 -0.9388  0.5849  0.2591
  131MOL0     O17586   6.957   4.590   0.605 -0.1336 -0.0501  0.6240
  131MOL0     C17587   7.007   4.485   0.515  0.1480 -0.0272  0.0349
  131MOL0     C17588   6.888   4.408   0.480 -0.4809 -0.1141  0.2166
  131MOL0     C17589   6.919   4.285   0.390  0.4925  0.0998  0.3825
  131MOL0     C17590   6.797   4.189   0.377  0.1606  0.1649 -0.1423
  131MOL0     C17591   6.669   4.263   0.325  0.5254 -0.0560  0.0080
  131MOL0     C17592   6.547   4.168   0.306 -0.5664 -0.7017 -0.2209
  131MOL0     C17593   6.422   4.254   0.262  0.9152 -0.0363 -0.4091
  131MOL0     C17594   6.302   4.160   0.251  0.9213 -0.0451  0.7950
  131MOL0    Cl17595   6.144   4.249   0.211  0.1065  0.2313  0.3885
  131MOL0     C17596   7.056   4.816   0.643 -1.1023  0.3786 -0.4239
  131MOL0     C17597   7.130   4.896   0.729 -0.2650 -0.1690 -0.2067
  131MOL0     O17598   7.459   4.910   0.769 -0.5622 -0.3024  0.1276
  131MOL0     C17599   7.444   5.024   1.110 -0.2934  1.1047  0.4216
  131MOL0     C17600   7.512   5.095   1.210 -0.1633 -0.2971  0.4015
  131MOL0     N17601   8.116   5.561   1.383 -0.1809  0.4721 -0.1662
  131MOL0     N17602   8.226   5.553   1.327 -1.2710  0.6799 -0.0942
  131MOL0     C17603   9.220   5.296   0.743 -0.5707  0.4820 -0.6367
  131MOL0     C17604   9.321   5.293   0.647 -0.3283  0.3945  0.0800
  131MOL0     C17605   9.696   5.273   0.393  0.1709 -0.8554 -0.6900
  131MOL0     C17606   9.819   5.251   0.472 -0.3798 -0.4398 -0.1078
  131MOL0     C17607   9.949   5.252   0.418 -0.5055 -0.2141  0.8915
  131MOL0     C17608   9.973   5.277   0.276  1.3638 -0.0910 -0.1219
  131MOL0     O17609  10.083   5.280   0.204  1.1031 -0.3448 -0.3734
  131MOL0     C17610  10.207   5.237   0.247 -0.2685  0.6624 -0.1047
  131MOL0     C17611  10.273   5.339   0.338  0.0307  0.2220  0.7671
  131MOL0     C17612  10.410   5.287   0.370 -0.2173 -0.0405  0.0777
  131MOL0     C17613  10.510   5.325   0.259 -0.7628  0.2517 -0.2349
  131MOL0     C17614  10.639   5.258   0.299  0.7075  0.2047  0.3855
  131MOL0     C17615  10.741   5.213   0.355  0.2688 -0.1252 -0.0827
  131MOL0     C17616   9.857   5.310   0.204  0.5928 -0.3866  0.3036
  131MOL0     C17617   9.725   5.311   0.263 -0.6310 -1.1629  0.4392
  131MOL0     H17618   9.584   5.189   0.825 -0.6091  0.0981 -0.6239
  131MOL0     H17619   9.402   5.182   1.003  0.3941 -1.8836 -0.1173
  131MOL0     H17620   9.044   5.399   1.089  2.7247  3.8130 -0.4008
  131MOL0     H17621   9.138   5.460   0.960  1.5225 -0.4713  1.2434
  131MOL0     H17622   8.963   5.449   0.810  1.0196  0.5748  1.2087
  131MOL0     H17623   8.937   5.279   0.843 -0.1932 -0.4426  1.0554
  131MOL0     H17624   8.859   5.499   1.036 -0.4804 -0.7205 -0.0969
  131MOL0     H17625   8.744   5.437   0.909 -2.6907  1.9039  3.0509
  131MOL0     H17626   8.767   5.214   0.988 -0.8303  0.5700  0.5605
  131MOL0     H17627   8.889   5.261   1.107  1.6216  0.2128 -2.0311
  131MOL0     H17628   8.691   5.246   1.234  2.3397 -0.7125 -0.6917
  131MOL0     H17629   8.727   5.421   1.203  1.5272 -1.2014 -0.3901
  131MOL0     H17630   8.558   5.433   1.050  1.6176 -0.1466 -0.4719
  131MOL0     H17631   8.540   5.248   1.040  1.6073 -1.4851  2.2507
  131MOL0     H17632   8.414   5.242   1.241 -1.5475 -0.4504 -0.6282
  131MOL0     H17633   8.494   5.393   1.287  2.8472 -0.4236 -1.1705
  131MOL0     H17634   8.278   5.371   1.052  0.4212 -2.5090 -0.2350
  131MOL0     H17635   8.353   5.514   1.108 -1.1588  0.3088 -1.5579
  131MOL0     H17636   8.051   5.311   1.178  3.2356 -0.8007 -1.1838
  131MOL0     H17637   7.847   5.576   1.427  1.8288  2.0260 -1.9713
  131MOL0     H17638   7.796   5.452   1.315  0.5587 -1.2589  1.1724
  131MOL0     H17639   7.763   5.399   1.566  1.1837 -0.4826  1.9934
  131MOL0     H17640   7.939   5.375   1.573 -0.2470  1.5318 -0.4158
  131MOL0     H17641   7.856   5.166   1.559  0.2782 -1.7895 -1.7076
  131MOL0     H17642   7.932   5.212   1.397 -2.8143 -1.4452 -3.3083
  131MOL0     H17643   7.638   5.209   1.450 -0.9553 -3.5749  1.0549
  131MOL0     H17644   7.731   5.070   1.389 -0.3190 -0.2482 -0.4834
  131MOL0     H17645   7.752   5.236   1.030 -0.0739  1.2166  3.6366
  131MOL0     H17646   7.743   5.194   0.799  0.4630 -1.0362 -0.6149
  131MOL0     H17647   7.715   5.021   0.769 -1.5424 -0.8524 -1.0200
  131MOL0     H17648   7.597   5.139   0.720  1.6016  1.7885 -1.3909
  131MOL0     H17649   7.239   4.646   0.945 -2.3844 -0.8217  1.3888
  131MOL0     H17650   7.115   4.507   0.792 -1.1950  0.1822 -0.8770
  131MOL0     H17651   7.053   4.534   0.429  0.3969 -2.2892 -1.1937
  131MOL0     H17652   7.081   4.413   0.550 -0.6426 -1.0629 -0.3554
  131MOL0     H17653   6.838   4.373   0.571  1.3115 -1.6017  0.6717
  131MOL0     H17654   6.810   4.474   0.439 -2.2787 -1.6812  0.9518
  131MOL0     H17655   7.000   4.226   0.435  2.0371  0.7590 -1.4214
  131MOL0     H17656   6.948   4.321   0.291 -0.1608 -1.8217 -0.5602
  131MOL0     H17657   6.839   4.114   0.309  3.6345  2.1588 -0.4542
  131MOL0     H17658   6.786   4.143   0.475 -1.1891 -0.6535 -0.6453
  131MOL0     H17659   6.700   4.309   0.231 -1.2178 -2.3769 -1.8099
  131MOL0     H17660   6.638   4.340   0.397  2.6800  1.4776 -0.6116
  131MOL0     H17661   6.578   4.095   0.230  1.9747  0.8226 -0.7622
  131MOL0     H17662   6.531   4.110   0.397  2.0239 -1.2137 -0.0154
  131MOL0     H17663   6.447   4.317   0.175  2.5665 -1.4796 -1.0219
  131MOL0     H17664   6.394   4.324   0.341  0.6489  1.5913 -1.8691
  131MOL0     H17665   6.298   4.097   0.341  0.4209 -1.2875 -0.0613
  131MOL0     H17666   6.318   4.096   0.163 -0.1478  1.5771 -0.6276
  131MOL0     H17667   7.004   4.870   0.564 -0.5368  3.5687  1.1878
  131MOL0     H17668   7.136   5.004   0.717  2.6954 -0.4451 -2.4250
  131MOL0     H17669   7.355   4.965   1.131  1.1556 -1.1803  0.4741
  131MOL0     H17670   7.491   5.081   1.316  0.5727 -0.5505  0.5192
  131MOL0     H17671   9.123   5.329   0.706 -1.7369  1.0487  2.5679
  131MOL0     H17672   9.286   5.332   0.553  1.5151  1.3253 -0.2630
  131MOL0     H17673   9.802   5.232   0.577  0.3938  0.3610  0.1740
  131MOL0     H17674  10.032   5.232   0.485  1.7543 -0.1147 -1.7201
  131MOL0     H17675  10.194   5.142   0.300 -0.4905  0.3267 -0.7568
  131MOL0     H17676  10.268   5.218   0.159  0.4013  0.6692  0.3483
  131MOL0     H17677  10.214   5.336   0.431 -1.5027 -1.6709 -0.1982
  131MOL0     H17678  10.281   5.432   0.281  2.7136 -1.7502 -2.4114
  131MOL0     H17679  10.411   5.180   0.397  1.0753  0.6732  3.3766
  131MOL0     H17680  10.451   5.334   0.460  2.5606 -2.2188  0.0851
  131MOL0     H17681  10.521   5.433   0.248  0.2891  0.3420  1.3535
  131MOL0     H17682  10.475   5.275   0.169  0.6845 -2.8595  0.7916
  131MOL0     H17683  10.827   5.194   0.416 -0.5809 -0.3900  1.0808
  131MOL0     H17684   9.861   5.345   0.101  1.1171 -2.2673 -0.3619
  131MOL0     H17685   9.639   5.342   0.205  0.2043  0.7016  0.1218
  132MOL0     O17686   4.275  10.782   6.021  0.0680  0.5330  0.5775
  132MOL0     C17687   4.317  10.678   5.966  0.1758  0.0967  0.0364
  132MOL0     O17688   4.246  10.603   5.882  0.0832  0.1410  0.8843
  132MOL0     C17689   4.121  10.632   5.861  0.0534 -0.1669 -0.4507
  132MOL0     C17690   4.078  10.697   5.748  0.2015 -0.2125  0.9316
  132MOL0     C17691   3.949  10.740   5.738  1.1874  0.2709  0.1258
  132MOL0     C17692   3.852  10.704   5.836  0.2442 -0.1893 -0.1133
  132MOL0     O17693   3.724  10.740   5.805 -0.3885 -1.1351  0.1167
  132MOL0     C17694   3.621  10.725   5.898 -0.7447 -0.3941  0.0919
  132MOL0     C17695   3.495  10.755   5.828  0.3888 -0.4736 -0.2541
  132MOL0     C17696   3.375  10.729   5.914  0.3241 -0.5709 -0.0174
  132MOL0     C17697   3.240  10.723   5.850  0.3353  0.4602  0.2492
  132MOL0     C17698   3.112  10.738   5.934  0.1464  0.3881  0.9845
  132MOL0     C17699   2.988  10.700   5.849 -0.3407  0.3550  1.2694
  132MOL0     C17700   2.866  10.693   5.937  0.0845 -0.3243  0.0636
  132MOL0     C17701   2.822  10.830   5.991 -0.2568 -0.3267 -0.3503
  132MOL0     N17702   2.694  10.819   6.072 -0.4335  0.2957 -0.6731
  132MOL0     C17703   2.680  10.821   6.207  0.3129  0.0062  0.7842
  132MOL0     C17704   2.548  10.794   6.220 -0.6191  0.4322 -0.6599
  132MOL0     C17705   2.481  10.773   6.349  0.5519 -0.3679 -0.2261
  132MOL0     C17706   2.341  10.707   6.333  0.0286  0.8206 -0.3918
  132MOL0     C17707   2.229  10.810   6.292 -0.1633  0.2141 -0.0024
  132MOL0     C17708   2.150  10.890   6.401 -0.0480  0.5594 -0.7878
  132MOL0     O17709   2.060  10.976   6.336 -0.1209 -0.5695 -0.0777
  132MOL0     C17710   1.930  10.998   6.379 -0.1807  0.9327  0.6465
  132MOL0     C17711   1.820  11.010   6.285  0.6887  0.1116 -0.7455
  132MOL0     C17712   1.693  11.041   6.333  0.1041 -0.5190 -0.2573
  132MOL0     C17713   1.590  11.036   6.216 -0.3937  0.7297 -0.2670
  132MOL0     C17714   1.666  11.072   6.472 -0.2069  0.0564  0.0117
  132MOL0     C17715   1.536  11.104   6.539 -0.5823  0.8357  0.2267
  132MOL0     O17716   1.538  11.149   6.667  0.0328 -0.3025  0.1611
  132MOL0     C17717   1.418  11.181   6.729  0.7232  0.6152  0.5354
  132MOL0     C17718   1.410  11.165   6.868  0.4063  0.0201 -0.1999
  132MOL0     C17719   1.295  11.204   6.941 -0.1740  0.3271  0.1866
  132MOL0     C17720   1.186  11.260   6.871  0.3026  0.4244 -0.0253
  132MOL0     O17721   1.071  11.316   6.924  0.1269  0.5510  0.1913
  132MOL0     C17722   1.092  11.343   7.057  0.3482 -0.7234  0.1105
  132MOL0     C17723   0.977  11.446   7.097  0.6509  0.2848 -0.4051
  132MOL0     C17724   0.994  11.586   7.041 -0.2895 -0.6335  0.9512
  132MOL0     C17725   0.877  11.684   7.068 -0.6213 -0.3873 -0.0916
  132MOL0     C17726   0.885  11.806   6.973  0.8519 -1.0083  0.1853
  132MOL0     C17727   0.788  11.917   7.019 -0.4222  0.6148 -0.2425
  132MOL0     C17728   0.643  11.877   7.027  0.1092 -0.4041  0.0567
  132MOL0     C17729   0.536  11.977   7.081 -0.1555  0.8001  1.3757
  132MOL0    Cl17730   0.524  12.122   6.973 -0.3005  0.3737  0.0705
  132MOL0     C17731   1.194  11.263   6.723 -1.0304 -0.7780 -1.1787
  132MOL0     C17732   1.308  11.230   6.657  0.3295 -0.0965  0.7823
  132MOL0     O17733   1.439  11.073   6.470 -0.1185  0.2872 -0.6723
  132MOL0     C17734   1.781  11.065   6.558  0.2381  0.7549 -0.0865
  132MOL0     C17735   1.905  11.017   6.516  0.6354 -0.5176 -0.4221
  132MOL0     N17736   2.489  10.774   6.094 -0.1976 -0.0926 -0.0191
  132MOL0     N17737   2.578  10.796   6.008 -0.1598 -0.6820  0.0669
  132MOL0     C17738   3.893  10.637   5.951 -0.1393  0.3150 -0.4636
  132MOL0     C17739   4.024  10.591   5.962  0.6019 -0.4198 -0.3126
  132MOL0     C17740   4.458  10.651   5.969 -0.5002  0.3769 -0.7526
  132MOL0     C17741   4.528  10.544   5.893  0.2642  0.1389  0.0016
  132MOL0     C17742   4.667  10.526   5.906  0.2377  0.3084  0.8329
  132MOL0     C17743   4.740  10.612   5.982 -0.4223  0.1166 -0.4176
  132MOL0     O17744   4.868  10.574   5.983 -0.2842  0.5247  0.4153
  132MOL0     C17745   4.896  10.472   6.091  0.8157 -0.2417  0.4774
  132MOL0     C17746   5.007  10.365   6.061 -0.4337  0.3703  0.1812
  132MOL0     C17747   4.980  10.290   5.938  0.2157  0.5996  0.3630
  132MOL0     C17748   4.863  10.180   5.961 -0.5448 -0.2824  0.7097
  132MOL0     C17749   4.876  10.075   5.863 -0.3055  0.2547  0.1278
  132MOL0     C17750   4.882   9.986   5.781  0.7918  0.7695  0.4695
  132MOL0     C17751   4.681  10.715   6.058 -0.4259  0.1600 -0.5798
  132MOL0     C17752   4.545  10.736   6.048  0.0560 -0.4209 -0.7221
  132MOL0     H17753   4.135  10.711   5.657  1.6435 -1.0550  1.6588
  132MOL0     H17754   3.921  10.789   5.645  0.3735 -1.9209 -0.8326
  132MOL0     H17755   3.627  10.622   5.936  1.8441 -0.2223  0.3624
  132MOL0     H17756   3.640  10.796   5.979  0.1332 -0.2060 -0.2556
  132MOL0     H17757   3.487  10.859   5.794  0.6239 -1.0952 -2.3507
  132MOL0     H17758   3.494  10.700   5.733 -0.3666 -3.8457  1.5455
  132MOL0     H17759   3.375  10.636   5.973  0.2556 -0.7254 -0.2605
  132MOL0     H17760   3.369  10.810   5.987  0.9039 -2.5578  2.4016
  132MOL0     H17761   3.237  10.806   5.779 -0.4035 -2.2871 -3.2153
  132MOL0     H17762   3.229  10.631   5.790  3.2377 -0.0773  0.4216
  132MOL0     H17763   3.112  10.669   6.018 -0.1818  1.4032  1.8372
  132MOL0     H17764   3.110  10.838   5.978  0.5614  1.0076 -0.3361
  132MOL0     H17765   2.977  10.773   5.768  2.6855  1.7777  1.9784
  132MOL0     H17766   2.995  10.605   5.795 -3.3906  0.4760  0.5234
  132MOL0     H17767   2.779  10.652   5.885 -0.4307  0.7203  0.0815
  132MOL0     H17768   2.885  10.634   6.027  0.5914  0.0730  0.2175
  132MOL0     H17769   2.803  10.892   5.903  1.8327  0.0769 -0.5716
  132MOL0     H17770   2.891  10.881   6.058 -3.9370  1.8525  2.1708
  132MOL0     H17771   2.751  10.844   6.286 -0.4038 -1.2812  1.8607
  132MOL0     H17772   2.548  10.705   6.403 -0.0654 -2.1004 -1.5766
  132MOL0     H17773   2.478  10.866   6.408  3.5602 -1.0816  1.2578
  132MOL0     H17774   2.321  10.651   6.425  1.4396 -0.6732 -0.9345
  132MOL0     H17775   2.341  10.628   6.257  0.0105  0.9530 -0.5279
  132MOL0     H17776   2.154  10.758   6.231  0.1259 -1.1480  0.7778
  132MOL0     H17777   2.285  10.875   6.223  1.5810 -3.0107 -1.8613
  132MOL0     H17778   2.218  10.943   6.469 -0.7210  0.6649 -0.1781
  132MOL0     H17779   2.085  10.821   6.456 -0.8576  0.0134 -2.3635
  132MOL0     H17780   1.839  10.981   6.183 -2.8051 -0.8952 -1.2383
  132MOL0     H17781   1.508  11.101   6.245  0.1519  0.6377  1.6012
  132MOL0     H17782   1.636  11.076   6.125  3.3399 -0.0352  1.1088
  132MOL0     H17783   1.565  10.930   6.206 -1.0533  0.7683  0.9367
  132MOL0     H17784   1.496  11.135   6.926 -0.5513 -4.2609 -0.7035
  132MOL0     H17785   1.298  11.183   7.047 -0.8524  0.6571  0.2780
  132MOL0     H17786   1.080  11.255   7.120  0.9651  0.0146  1.2726
  132MOL0     H17787   1.186  11.394   7.078  0.9921 -2.6058  2.1234
  132MOL0     H17788   0.891  11.400   7.048  2.6905 -3.0803 -1.1128
  132MOL0     H17789   0.958  11.455   7.204  0.1709  1.6124 -0.5815
  132MOL0     H17790   1.017  11.585   6.934  0.7734  1.3332  1.1334
  132MOL0     H17791   1.079  11.636   7.087 -0.8302  2.4738 -1.1128
  132MOL0     H17792   0.784  11.629   7.048 -0.2108 -1.2700  0.3677
  132MOL0     H17793   0.872  11.711   7.174 -2.0516 -0.8017 -0.0301
  132MOL0     H17794   0.862  11.781   6.868  2.1594  2.1933 -0.9704
  132MOL0     H17795   0.989  11.837   6.969  0.7687 -0.7007  0.4311
  132MOL0     H17796   0.810  11.949   7.121  0.6248 -0.7592 -0.0189
  132MOL0     H17797   0.787  12.002   6.949 -1.5644  1.0004  0.2173
  132MOL0     H17798   0.619  11.800   7.101 -2.2643  1.1438  1.0115
  132MOL0     H17799   0.612  11.850   6.926  1.6274 -1.0427 -0.2695
  132MOL0     H17800   0.559  12.013   7.181  0.4003 -0.2019  1.6230
  132MOL0     H17801   0.438  11.931   7.082 -0.6328  0.5930 -5.4194
  132MOL0     H17802   1.119  11.320   6.670 -1.0954  1.1718  0.8433
  132MOL0     H17803   1.303  11.246   6.550  0.5499 -1.9194  0.4675
  132MOL0     H17804   1.777  11.081   6.666 -2.5788 -0.0168 -0.0005
  132MOL0     H17805   1.987  10.998   6.584  0.2540 -2.0400 -0.3502
  132MOL0     H17806   3.823  10.623   6.033  1.6602 -0.1475  1.0671
  132MOL0     H17807   4.058  10.522   6.038 -0.5562 -0.5239  0.1356
  132MOL0     H17808   4.466  10.486   5.825  1.8471 -1.7670  0.1033
  132MOL0     H17809   4.723  10.459   5.842 -0.8637  3.2000 -3.5498
  132MOL0     H17810   4.919  10.527   6.183  2.1016 -0.3246  0.2327
  132MOL0     H17811   4.806  10.414   6.112 -0.4499  1.6088  0.4207
  132MOL0     H17812   5.024  10.303   6.149 -0.8051 -0.2610 -0.1816
  132MOL0     H17813   5.107  10.409   6.049 -0.6670  0.7333 -0.4603
  132MOL0     H17814   5.070  10.236   5.906 -0.5902  0.9390 -2.7383
  132MOL0     H17815   4.960  10.365   5.861 -1.2829  0.7104  0.8276
  132MOL0     H17816   4.763  10.220   5.942 -0.8620 -0.9908  0.8728
  132MOL0     H17817   4.878  10.130   6.057 -0.8467 -0.7351  0.5213
  132MOL0     H17818   4.890   9.901   5.716 -1.0340 -0.4289  1.7458
  132MOL0     H17819   4.742  10.779   6.122 -5.4474  3.6475  1.4047
  132MOL0     H17820   4.503  10.822   6.099  1.6759  0.5973 -1.0081
  133MOL0     O17821   5.100   0.810   8.546  0.2171 -0.1613  0.4948
  133MOL0     C17822   5.092   0.701   8.605  0.4955  0.1448  0.2374
  133MOL0     O17823   4.981   0.643   8.662  0.0257 -0.1854  0.2818
  133MOL0     C17824   4.864   0.720   8.674  0.1282  0.0099 -0.1964
  133MOL0     C17825   4.806   0.762   8.793 -0.6997 -0.0156 -0.4448
  133MOL0     C17826   4.685   0.843   8.789 -0.7097 -0.6648  0.7459
  133MOL0     C17827   4.632   0.880   8.662 -0.2096  0.0562 -0.5465
  133MOL0     O17828   4.519   0.958   8.666  0.6248 -0.1672 -0.3999
  133MOL0     C17829   4.468   1.032   8.550  0.6934  0.1563 -0.3214
  133MOL0     C17830   4.348   1.107   8.600  0.4578  0.1210  0.2554
  133MOL0     C17831   4.290   1.200   8.486 -0.0207  0.4348  0.3532
  133MOL0     C17832   4.166   1.275   8.537  0.7738 -0.2806 -0.4110
  133MOL0     C17833   4.091   1.348   8.424  0.5337  0.3269  0.1791
  133MOL0     C17834   3.963   1.426   8.471  0.4748 -0.5468 -0.6112
  133MOL0     C17835   3.936   1.537   8.360  0.7211  0.5684 -0.1106
  133MOL0     C17836   3.919   1.480   8.218  0.1685  0.9787 -0.4902
  133MOL0     N17837   3.937   1.584   8.115 -0.3493  0.0237 -0.7290
  133MOL0     C17838   3.841   1.646   8.052 -0.6384  0.4009  0.4023
  133MOL0     C17839   3.904   1.727   7.971  0.8912 -0.3434 -0.2036
  133MOL0     C17840   3.828   1.802   7.872  0.0840 -0.3387 -0.1181
  133MOL0     C17841   3.873   1.955   7.863 -0.3259 -1.0168 -0.2737
  133MOL0     C17842   3.841   2.032   7.986 -0.0367  0.3386 -0.0682
  133MOL0     C17843   3.827   2.176   7.965 -0.2303  0.0511 -0.8399
  133MOL0     O17844   3.717   2.218   7.885  0.1806 -0.3296  0.4951
  133MOL0     C17845   3.604   2.266   7.950  0.0532  1.1162 -0.2256
  133MOL0     C17846   3.575   2.283   8.089 -0.4165  1.0373  0.8415
  133MOL0     C17847   3.463   2.352   8.138  0.8785 -0.0691  1.0119
  133MOL0     C17848   3.440   2.343   8.289 -0.2705 -0.8242  0.1618
  133MOL0     C17849   3.371   2.421   8.048 -0.7711 -0.0448  0.0614
  133MOL0     C17850   3.248   2.501   8.079 -0.0265 -0.1200 -0.6583
  133MOL0     O17851   3.168   2.544   7.975 -0.2461  0.0468  0.3721
  133MOL0     C17852   3.046   2.595   7.998 -1.1750  0.4824  0.5598
  133MOL0     C17853   2.940   2.527   7.939 -0.2664  0.0692 -0.4928
  133MOL0     C17854   2.809   2.563   7.969 -0.2009 -0.2395  0.4618
  133MOL0     C17855   2.779   2.669   8.053  0.0743  0.5180 -0.0996
  133MOL0     O17856   2.642   2.691   8.081 -0.8474 -0.1678 -0.5382
  133MOL0     C17857   2.616   2.714   8.222 -0.9629  0.2477 -0.4351
  133MOL0     C17858   2.502   2.816   8.237 -0.2276  0.2845  0.2937
  133MOL0     C17859   2.434   2.819   8.378 -0.8991 -0.1540  0.1049
  133MOL0     C17860   2.312   2.907   8.365 -0.1538  0.5093  0.1442
  133MOL0     C17861   2.249   2.926   8.502 -0.6544  0.1765 -0.1413
  133MOL0     C17862   2.138   3.024   8.494  0.3651  0.0948 -0.0601
  133MOL0     C17863   2.029   2.965   8.403 -0.0692 -0.5724 -0.4920
  133MOL0     C17864   1.885   2.996   8.449 -0.0529  0.0602  0.4192
  133MOL0    Cl17865   1.780   2.946   8.315 -0.3372  0.4990  0.0197
  133MOL0     C17866   2.890   2.744   8.092  0.0105  0.8069 -0.5148
  133MOL0     C17867   3.020   2.713   8.063 -0.0276 -0.4209 -0.1963
  133MOL0     O17868   3.229   2.530   8.198  0.4910  0.2940 -0.8575
  133MOL0     C17869   3.408   2.410   7.910 -0.3137  0.5305 -0.2517
  133MOL0     C17870   3.519   2.337   7.875 -0.7416  0.5093  0.1228
  133MOL0     N17871   4.040   1.723   7.990  0.3986 -0.2402 -0.0721
  133MOL0     N17872   4.061   1.627   8.073  1.0033  0.1773 -0.5146
  133MOL0     C17873   4.678   0.823   8.544 -0.6683  0.3273 -0.4217
  133MOL0     C17874   4.798   0.750   8.556 -0.2030 -0.4499  0.2230
  133MOL0     C17875   5.211   0.611   8.594 -0.2602  0.8009  0.1126
  133MOL0     C17876   5.329   0.660   8.538  1.1729 -0.4426 -0.1686
  133MOL0     C17877   5.444   0.581   8.515  0.7330 -0.4758  0.3516
  133MOL0     C17878   5.438   0.445   8.558  0.2600 -0.4225 -0.6639
  133MOL0     O17879   5.548   0.364   8.563 -0.2700  0.1456  0.3755
  133MOL0     C17880   5.640   0.364   8.453 -0.4453 -0.6729 -0.2632
  133MOL0     C17881   5.748   0.258   8.469 -0.1165 -0.7643 -0.4996
  133MOL0     C17882   5.802   0.247   8.614 -0.7198  0.2288 -0.0483
  133MOL0     C17883   5.920   0.154   8.631 -0.0557  0.1866 -0.1606
  133MOL0     C17884   5.876   0.021   8.595  1.4839  0.5224 -0.5456
  133MOL0     C17885   5.840  -0.086   8.563 -1.2122  0.7198 -0.5124
  133MOL0     C17886   5.322   0.392   8.608  0.7452 -0.8273  0.8857
  133MOL0     C17887   5.205   0.472   8.620 -0.2489  0.2278  0.0379
  133MOL0     H17888   4.848   0.745   8.892  2.7145  1.0454 -1.5880
  133MOL0     H17889   4.641   0.877   8.882 -4.4511 -2.5210 -0.1423
  133MOL0     H17890   4.543   1.107   8.523  0.3263  0.8668  0.5949
  133MOL0     H17891   4.447   0.963   8.468  1.8166  0.1380 -0.6165
  133MOL0     H17892   4.275   1.029   8.625 -3.1251  2.7316 -1.1792
  133MOL0     H17893   4.370   1.167   8.689 -1.4867  2.1131 -0.5383
  133MOL0     H17894   4.373   1.261   8.451  0.3253 -0.8768 -1.2358
  133MOL0     H17895   4.262   1.134   8.403 -1.3721  0.3597  0.8397
  133MOL0     H17896   4.096   1.210   8.591  0.5965  1.0690  1.0694
  133MOL0     H17897   4.176   1.351   8.615 -0.9806 -0.9746  0.5445
  133MOL0     H17898   4.152   1.417   8.366  0.6368 -1.1867 -1.5816
  133MOL0     H17899   4.058   1.267   8.359 -2.7065  0.2617  1.6929
  133MOL0     H17900   3.883   1.354   8.493 -0.9108  1.4713  1.4577
  133MOL0     H17901   3.987   1.467   8.570 -2.4168 -1.5326  0.5992
  133MOL0     H17902   3.839   1.580   8.388  0.7895  0.0196  1.0057
  133MOL0     H17903   4.011   1.616   8.366  2.0184 -0.7283  2.9231
  133MOL0     H17904   3.815   1.446   8.207  0.3022  1.1658 -2.8161
  133MOL0     H17905   3.990   1.399   8.199 -0.0823 -0.0159  2.3461
  133MOL0     H17906   3.734   1.627   8.060 -0.8471 -0.7379 -3.2051
  133MOL0     H17907   3.837   1.753   7.775  0.3782 -3.7710  1.4978
  133MOL0     H17908   3.723   1.784   7.894 -0.9097 -1.9327 -4.9684
  133MOL0     H17909   3.815   1.994   7.779  2.3358  1.1201 -1.3016
  133MOL0     H17910   3.980   1.972   7.846  0.2860 -0.3040  3.4765
  133MOL0     H17911   3.921   2.013   8.058 -1.4900 -2.1920  1.0080
  133MOL0     H17912   3.748   1.997   8.031 -0.2654 -0.0392 -0.8194
  133MOL0     H17913   3.926   2.208   7.929  1.7724  2.2420  5.2630
  133MOL0     H17914   3.825   2.228   8.061  1.4772 -1.0921 -0.1297
  133MOL0     H17915   3.634   2.236   8.167  2.9857  3.0459 -0.2784
  133MOL0     H17916   3.399   2.247   8.323  0.6329 -1.9742 -1.8479
  133MOL0     H17917   3.538   2.348   8.338  0.6051 -1.8210 -1.4038
  133MOL0     H17918   3.381   2.427   8.328  0.8338 -0.0008  0.1069
  133MOL0     H17919   2.954   2.443   7.872 -1.7230 -0.2731 -0.4092
  133MOL0     H17920   2.725   2.513   7.922 -1.7354  1.4551  1.2616
  133MOL0     H17921   2.580   2.618   8.260  0.2358 -0.4668 -1.0389
  133MOL0     H17922   2.710   2.736   8.273 -0.0866 -0.7617 -1.5675
  133MOL0     H17923   2.532   2.915   8.201  0.7027 -0.3678 -0.8099
  133MOL0     H17924   2.427   2.778   8.167  1.1328  0.0464 -1.0842
  133MOL0     H17925   2.499   2.871   8.449  0.3353  1.0953 -1.8481
  133MOL0     H17926   2.412   2.719   8.415 -1.9720  0.7084  1.9580
  133MOL0     H17927   2.337   3.001   8.316 -0.7247  0.8497  0.5023
  133MOL0     H17928   2.245   2.854   8.297  0.3628 -0.0378  0.0458
  133MOL0     H17929   2.324   2.960   8.574 -1.7756  3.3805 -0.3507
  133MOL0     H17930   2.218   2.829   8.542  0.5631 -0.0841  0.1904
  133MOL0     H17931   2.099   3.037   8.596 -2.1827 -0.3996 -0.9094
  133MOL0     H17932   2.168   3.125   8.464  1.4979 -0.2945 -0.2753
  133MOL0     H17933   2.039   2.858   8.427  1.8329  0.0617  2.0525
  133MOL0     H17934   2.050   3.002   8.303  0.6965 -2.6716 -1.1621
  133MOL0     H17935   1.876   3.104   8.461  0.2461  0.3686 -1.7261
  133MOL0     H17936   1.867   2.938   8.540 -0.9405 -1.5770 -0.7506
  133MOL0     H17937   2.861   2.837   8.140 -2.8086  0.2828 -1.0327
  133MOL0     H17938   3.097   2.785   8.091 -1.2886  1.3198 -1.0079
  133MOL0     H17939   3.341   2.448   7.833  0.5098  0.9065 -0.7946
  133MOL0     H17940   3.538   2.315   7.770 -2.3427 -0.0593 -0.0667
  133MOL0     H17941   4.627   0.836   8.449 -0.1483  0.2607 -0.7088
  133MOL0     H17942   4.833   0.708   8.462 -4.4126  1.1793 -2.3662
  133MOL0     H17943   5.337   0.763   8.502  0.9716 -0.5907 -0.6490
  133MOL0     H17944   5.537   0.623   8.477  0.1746 -1.1250 -1.9361
  133MOL0     H17945   5.593   0.358   8.355 -0.5740  2.7123 -0.4978
  133MOL0     H17946   5.689   0.461   8.450 -1.2297 -0.2934 -2.1720
  133MOL0     H17947   5.831   0.282   8.402 -1.7711 -1.3399 -2.8899
  133MOL0     H17948   5.711   0.164   8.428 -0.6062 -0.7041 -0.1984
  133MOL0     H17949   5.720   0.204   8.673 -0.0810  2.1122  2.3616
  133MOL0     H17950   5.834   0.340   8.664  2.2339 -2.4162  3.5417
  133MOL0     H17951   5.945   0.149   8.737  1.3773 -1.9502 -0.5423
  133MOL0     H17952   6.017   0.184   8.590 -0.4372  1.5392 -0.1324
  133MOL0     H17953   5.805  -0.180   8.525  1.8373 -1.0108  0.6294
  133MOL0     H17954   5.329   0.292   8.652 -3.3042 -1.8429 -0.3891
  133MOL0     H17955   5.110   0.427   8.645  0.1949  0.1129  1.6370
  134MOL0     O17956   3.066   9.275  10.810 -0.2025 -0.2363  0.0220
  134MOL0     C17957   3.139   9.263  10.709 -0.2555  0.7827  0.4484
  134MOL0     O17958   3.111   9.191  10.592 -0.1285  0.1269  0.8375
  134MOL0     C17959   2.976   9.141  10.570 -0.0717 -0.0020 -0.9699
  134MOL0     C17960   2.854   9.208  10.601 -0.2122  0.5918  0.2298
  134MOL0     C17961   2.733   9.148  10.563  0.9395 -0.4263 -0.1105
  134MOL0     C17962   2.726   9.034  10.487 -0.7680  0.3377 -0.4909
  134MOL0     O17963   2.618   8.976  10.428 -0.2813 -0.4960 -0.0917
  134MOL0     C17964   2.499   9.014  10.497 -0.1526 -0.5701 -0.0201
  134MOL0     C17965   2.429   9.133  10.426 -0.1159  0.0743 -0.1760
  134MOL0     C17966   2.288   9.158  10.495 -0.1429 -0.0828  0.2561
  134MOL0     C17967   2.225   9.276  10.427 -0.6157  0.2336  0.0486
  134MOL0     C17968   2.097   9.322  10.497 -0.0170  0.2178  0.1422
  134MOL0     C17969   2.012   9.431  10.425 -0.1912 -0.0527  0.3449
  134MOL0     C17970   1.866   9.443  10.487 -0.1774  0.4908  0.8909
  134MOL0     C17971   1.770   9.336  10.456 -0.2619 -0.2902  0.1525
  134MOL0     N17972   1.698   9.351  10.330  0.1442  0.2935  0.0307
  134MOL0     C17973   1.725   9.296  10.204 -0.2844  0.7816 -0.1934
  134MOL0     C17974   1.624   9.337  10.122  0.6239 -0.4250 -0.6648
  134MOL0     C17975   1.599   9.300   9.976  0.5344  0.0321 -0.0497
  134MOL0     C17976   1.587   9.437   9.898 -0.7464  0.0058  0.2747
  134MOL0     C17977   1.450   9.522   9.914 -0.1171  0.0834 -0.1306
  134MOL0     C17978   1.325   9.445   9.939  0.2044  0.3252 -0.5796
  134MOL0     O17979   1.219   9.530   9.974  0.6174  0.0275  0.6366
  134MOL0     C17980   1.094   9.505   9.927 -0.5495 -1.2108 -1.2723
  134MOL0     C17981   1.054   9.388   9.882  0.0108  0.8115  0.3741
  134MOL0     C17982   0.923   9.364   9.832 -1.1254  0.3097 -0.1866
  134MOL0     C17983   0.900   9.237   9.757 -0.3351 -0.0578  0.0486
  134MOL0     C17984   0.829   9.470   9.838 -0.4837  0.3689 -0.4650
  134MOL0     C17985   0.694   9.457   9.776 -0.0522 -0.2911 -0.4486
  134MOL0     O17986   0.633   9.577   9.764  1.2500  0.2686  0.2027
  134MOL0     C17987   0.502   9.579   9.720 -0.0569  0.5155 -0.4263
  134MOL0     C17988   0.400   9.559   9.812  1.4314  0.6553  0.6080
  134MOL0     C17989   0.264   9.578   9.787 -0.2121 -0.2497  0.2181
  134MOL0     C17990   0.231   9.614   9.655  0.0714  0.0235 -0.5742
  134MOL0     O17991   0.100   9.638   9.610  0.0972 -0.6046 -0.7356
  134MOL0     C17992  -0.001   9.650   9.714 -0.2978 -0.4897 -0.0442
  134MOL0     C17993  -0.135   9.697   9.649  0.0536  0.1422  0.8165
  134MOL0     C17994  -0.118   9.830   9.564 -1.0163  0.5417  0.6741
  134MOL0     C17995  -0.242   9.867   9.492  0.2899  0.5091  0.1196
  134MOL0     C17996  -0.237   9.977   9.384 -1.3827 -0.6157  0.0173
  134MOL0     C17997  -0.119   9.978   9.289 -0.1196  0.0700  0.1513
  134MOL0     C17998  -0.147  10.086   9.187  0.0292 -0.3449  1.1462
  134MOL0     C17999  -0.062  10.060   9.057  0.3748  0.1343  0.1843
  134MOL0    Cl18000   0.120  10.073   9.087 -0.2358 -0.3465  0.1172
  134MOL0     C18001   0.331   9.637   9.558 -0.0865 -0.4630  0.2730
  134MOL0     C18002   0.464   9.625   9.592 -0.2394 -0.0165 -0.1260
  134MOL0     O18003   0.646   9.351   9.749  1.1970  0.6363 -0.3694
  134MOL0     C18004   0.868   9.589   9.892  0.0838  0.4033 -0.1245
  134MOL0     C18005   0.998   9.610   9.935  0.2018 -0.0364  0.6117
  134MOL0     N18006   1.543   9.423  10.196  0.4990  0.2168  0.6223
  134MOL0     N18007   1.582   9.423  10.317 -0.7325 -1.0942 -0.4619
  134MOL0     C18008   2.845   8.970  10.455  0.7416  0.3843  0.5670
  134MOL0     C18009   2.972   9.035  10.483  0.2303  0.8862 -0.0275
  134MOL0     C18010   3.260   9.337  10.704  0.3209  1.3490  0.0358
  134MOL0     C18011   3.324   9.364  10.827  0.5345  0.7276  0.0074
  134MOL0     C18012   3.445   9.422  10.845  0.0033 -0.1832  0.2550
  134MOL0     C18013   3.514   9.459  10.739 -0.7284  0.9687  0.8693
  134MOL0     O18014   3.637   9.507  10.764  0.5886  0.0536  0.4223
  134MOL0     C18015   3.741   9.429  10.704 -0.2571 -0.5795  0.4161
  134MOL0     C18016   3.759   9.299  10.785  0.1191 -0.0506  0.2835
  134MOL0     C18017   3.877   9.221  10.726 -0.2941 -0.0364  0.0159
  134MOL0     C18018   3.897   9.087  10.790 -0.1290  0.1040  0.0350
  134MOL0     C18019   3.985   9.102  10.900 -0.0035 -1.4809 -0.3579
  134MOL0     C18020   4.065   9.133  10.987  0.1434  0.2932 -0.0875
  134MOL0     C18021   3.455   9.422  10.608 -1.3231 -0.2988  0.4939
  134MOL0     C18022   3.335   9.364  10.589  0.7510  0.1770 -0.3464
  134MOL0     H18023   2.850   9.305  10.650 -0.2244  1.3157 -1.1408
  134MOL0     H18024   2.644   9.201  10.598  1.5532  1.7757 -1.6499
  134MOL0     H18025   2.429   8.930  10.497 -0.8259 -0.0155  0.2275
  134MOL0     H18026   2.515   9.036  10.603 -1.1585 -2.9245  0.6917
  134MOL0     H18027   2.486   9.226  10.423  0.0685  0.0094 -3.6496
  134MOL0     H18028   2.407   9.102  10.323 -1.1471 -1.3399  0.4306
  134MOL0     H18029   2.223   9.073  10.474  0.9233 -0.7673 -0.3750
  134MOL0     H18030   2.305   9.175  10.602  0.6657 -2.3479  0.5349
  134MOL0     H18031   2.300   9.356  10.432 -1.8247  1.4038  0.1360
  134MOL0     H18032   2.195   9.247  10.326  2.6374 -0.0848 -0.9526
  134MOL0     H18033   2.032   9.238  10.522 -0.8920  1.2453  1.4919
  134MOL0     H18034   2.120   9.372  10.592 -2.9938  0.5882  0.7489
  134MOL0     H18035   2.066   9.526  10.416 -1.6309  0.6236 -1.8121
  134MOL0     H18036   1.983   9.391  10.328 -0.1880 -1.0793  0.7486
  134MOL0     H18037   1.878   9.449  10.596 -1.8155  3.1734  1.0223
  134MOL0     H18038   1.818   9.535  10.451 -0.6484 -0.1605 -0.1930
  134MOL0     H18039   1.685   9.340  10.525 -1.5936  1.6194 -1.4514
  134MOL0     H18040   1.815   9.236  10.452  0.4136 -0.0266 -4.4819
  134MOL0     H18041   1.809   9.229  10.188 -0.1863  0.8146  0.1730
  134MOL0     H18042   1.675   9.230   9.939  0.4128 -1.0794  1.7165
  134MOL0     H18043   1.508   9.244   9.950 -0.8775  2.5671 -0.9094
  134MOL0     H18044   1.612   9.423   9.792 -1.9987  1.0466 -0.1815
  134MOL0     H18045   1.666   9.506   9.929 -0.6544  0.5727 -1.1618
  134MOL0     H18046   1.428   9.573   9.820 -2.9644 -0.0663  0.3780
  134MOL0     H18047   1.454   9.598   9.992  0.6026  1.8687 -1.8100
  134MOL0     H18048   1.346   9.380  10.025  1.0346  0.5353 -0.6174
  134MOL0     H18049   1.312   9.366   9.864 -1.6080 -2.3024  2.2625
  134MOL0     H18050   1.123   9.305   9.880 -1.0155 -0.1207 -3.6532
  134MOL0     H18051   0.807   9.195   9.795 -0.7864  0.4835 -0.4377
  134MOL0     H18052   0.900   9.266   9.652 -2.8081 -1.2146 -0.3341
  134MOL0     H18053   0.979   9.164   9.776  0.9695  1.6531  1.6492
  134MOL0     H18054   0.431   9.515   9.906  4.1337 -1.4034 -1.0845
  134MOL0     H18055   0.182   9.570   9.857  0.6869 -1.1473  1.1975
  134MOL0     H18056  -0.009   9.551   9.761  0.6454 -0.2961  0.5463
  134MOL0     H18057   0.042   9.719   9.787  1.0955 -1.4137  0.0556
  134MOL0     H18058  -0.162   9.618   9.580  1.1675 -0.1742  0.7199
  134MOL0     H18059  -0.215   9.705   9.723 -1.7875 -2.1416 -0.7818
  134MOL0     H18060  -0.034   9.816   9.495 -2.1442 -0.4740 -0.5381
  134MOL0     H18061  -0.099   9.920   9.622 -2.9366  2.3162 -1.2950
  134MOL0     H18062  -0.270   9.776   9.438  0.6474  2.1936 -3.2259
  134MOL0     H18063  -0.315   9.878   9.572  1.5360 -1.1010  1.5455
  134MOL0     H18064  -0.234  10.077   9.428 -0.9487 -0.4486 -0.3905
  134MOL0     H18065  -0.332   9.964   9.331 -1.5518 -0.7252  0.3403
  134MOL0     H18066  -0.021   9.995   9.335  0.7522 -3.3491 -0.1339
  134MOL0     H18067  -0.113   9.879   9.243  2.4489  0.4359 -0.4550
  134MOL0     H18068  -0.130  10.187   9.225  0.2400 -1.3168  3.8960
  134MOL0     H18069  -0.241  10.081   9.131  0.2067  1.9294  0.5393
  134MOL0     H18070  -0.087  10.122   8.971 -0.7060  0.5650  0.7901
  134MOL0     H18071  -0.087   9.956   9.031 -1.5755 -0.2517  3.0549
  134MOL0     H18072   0.308   9.662   9.456  0.3554 -1.3615 -0.0609
  134MOL0     H18073   0.544   9.637   9.520  0.5962  1.6284  1.0166
  134MOL0     H18074   0.805   9.677   9.902 -0.3824 -0.0392  0.9450
  134MOL0     H18075   1.023   9.697   9.996 -1.5472 -1.5283  3.6989
  134MOL0     H18076   2.844   8.887  10.386  2.0696  0.3218  0.6003
  134MOL0     H18077   3.059   8.994  10.433  1.2902  3.4881 -0.4752
  134MOL0     H18078   3.272   9.340  10.919  0.5973  3.3590  0.8146
  134MOL0     H18079   3.485   9.418  10.945  1.7308 -0.7050 -0.4235
  134MOL0     H18080   3.707   9.407  10.602 -0.6389  0.5254  0.2842
  134MOL0     H18081   3.829   9.494  10.703  0.4369 -1.4370  2.3553
  134MOL0     H18082   3.669   9.238  10.771  0.6649 -0.3706 -2.2718
  134MOL0     H18083   3.777   9.326  10.890  1.0000 -4.2302  1.3921
  134MOL0     H18084   3.960   9.289  10.744  0.1221 -0.6338  0.4114
  134MOL0     H18085   3.851   9.200  10.622 -0.3478  2.1780 -0.4727
  134MOL0     H18086   3.936   9.015  10.718 -2.6808 -2.0426  0.6379
  134MOL0     H18087   3.804   9.037  10.819  0.5559 -0.6792  0.9374
  134MOL0     H18088   4.131   9.150  11.069  3.3605  0.3744 -2.5282
  134MOL0     H18089   3.512   9.459  10.524 -0.4826 -1.3229  0.5929
  134MOL0     H18090   3.276   9.356  10.498  0.1787 -1.7215  0.1549
  135MOL0     O18091   8.379   6.401   0.153  0.7787 -0.6772 -0.8235
  135MOL0     C18092   8.435   6.401   0.266 -0.0154 -0.0312  0.6226
  135MOL0     O18093   8.362   6.384   0.386 -0.8440 -0.3625 -0.3287
  135MOL0     C18094   8.228   6.381   0.373 -1.0182 -0.9011 -0.2111
  135MOL0     C18095   8.160   6.468   0.460  1.3008 -0.0469 -0.3121
  135MOL0     C18096   8.024   6.462   0.460  0.3187  0.3471  0.0149
  135MOL0     C18097   7.955   6.371   0.381  0.2150 -0.4719  1.0626
  135MOL0     O18098   7.819   6.362   0.381  0.1415 -0.5002  0.6379
  135MOL0     C18099   7.756   6.391   0.502 -0.0186 -0.8181 -0.2112
  135MOL0     C18100   7.644   6.299   0.538  0.4052  0.0364 -0.1547
  135MOL0     C18101   7.519   6.333   0.459  0.1671  1.1566 -0.3500
  135MOL0     C18102   7.401   6.269   0.534 -0.0911 -0.3230 -0.1537
  135MOL0     C18103   7.270   6.262   0.450  0.1565  0.0970 -0.3122
  135MOL0     C18104   7.168   6.182   0.528 -0.9681  0.5893 -0.2598
  135MOL0     C18105   7.069   6.115   0.433 -0.5616 -0.6836  0.0345
  135MOL0     C18106   6.951   6.052   0.506  0.1081 -0.5110 -0.5900
  135MOL0     N18107   6.851   6.011   0.406  1.3473 -0.2397 -0.2313
  135MOL0     C18108   6.861   5.894   0.333  0.6603 -0.2208 -0.6908
  135MOL0     C18109   6.736   5.890   0.269  0.5152  0.2185 -0.1061
  135MOL0     C18110   6.678   5.784   0.178 -0.0614  0.0765 -0.5290
  135MOL0     C18111   6.540   5.732   0.231  0.2581  0.2425 -0.3488
  135MOL0     C18112   6.493   5.628   0.127  0.0740 -0.2463  0.6272
  135MOL0     C18113   6.346   5.594   0.128 -0.0160  0.3764 -0.2566
  135MOL0     O18114   6.271   5.687   0.042 -0.4679 -0.2579  0.5799
  135MOL0     C18115   6.139   5.665   0.033  0.6106 -0.4561 -0.3080
  135MOL0     C18116   6.066   5.560   0.092 -0.9597 -0.4776 -0.5430
  135MOL0     C18117   5.927   5.567   0.092  0.6470 -0.1072  0.7545
  135MOL0     C18118   5.867   5.449   0.155 -0.1747 -0.9142  0.6942
  135MOL0     C18119   5.857   5.662   0.019 -0.2099 -0.1729  0.3627
  135MOL0     C18120   5.708   5.671   0.000  0.0262  0.2114 -0.0439
  135MOL0     O18121   5.653   5.787  -0.058 -0.2090  0.2163 -0.8186
  135MOL0     C18122   5.527   5.772  -0.098  0.5036  0.6303  0.0020
  135MOL0     C18123   5.497   5.703  -0.217 -0.5597 -1.0855 -0.0414
  135MOL0     C18124   5.367   5.697  -0.261  0.1015  0.5811  0.5520
  135MOL0     C18125   5.259   5.747  -0.196 -0.6892 -0.0715  0.3323
  135MOL0     O18126   5.139   5.751  -0.255 -0.3584 -0.3552  0.2109
  135MOL0     C18127   5.026   5.816  -0.189  0.1686  0.8281 -0.9709
  135MOL0     C18128   4.885   5.773  -0.248 -0.4477  0.7349  0.5324
  135MOL0     C18129   4.870   5.621  -0.252  0.1396 -0.1761  0.4763
  135MOL0     C18130   4.724   5.593  -0.219  0.3328 -0.1863  0.4476
  135MOL0     C18131   4.695   5.439  -0.204 -0.3311 -0.1509  0.2283
  135MOL0     C18132   4.542   5.388  -0.202  0.3667  0.6401 -0.7947
  135MOL0     C18133   4.521   5.234  -0.234 -0.1480 -0.2334 -1.0816
  135MOL0     C18134   4.381   5.184  -0.227 -0.3899  0.1267 -0.0184
  135MOL0    Cl18135   4.308   5.192  -0.379  0.3423 -0.0847 -0.1110
  135MOL0     C18136   5.288   5.801  -0.068 -0.2302 -0.6564 -0.0905
  135MOL0     C18137   5.419   5.806  -0.018  0.3476 -0.5104 -0.2264
  135MOL0     O18138   5.641   5.574   0.040 -0.0903  0.3330  0.5321
  135MOL0     C18139   5.933   5.773  -0.031  1.0319 -0.6536  0.0261
  135MOL0     C18140   6.068   5.770  -0.026 -0.0613  0.6163  0.9347
  135MOL0     N18141   6.649   5.994   0.321 -0.2179  0.2367 -0.1935
  135MOL0     N18142   6.720   6.060   0.408  0.6122 -0.2508  0.2087
  135MOL0     C18143   8.020   6.281   0.296 -0.1987 -0.5884  0.2087
  135MOL0     C18144   8.157   6.293   0.300 -0.4577  0.6751  0.7913
  135MOL0     C18145   8.577   6.426   0.272  0.0690 -0.8303  1.1818
  135MOL0     C18146   8.654   6.454   0.161 -0.0597  0.4742  0.0380
  135MOL0     C18147   8.790   6.445   0.161  0.5475 -0.1771 -0.3090
  135MOL0     C18148   8.857   6.401   0.272  0.5742  1.1159 -0.1211
  135MOL0     O18149   8.994   6.374   0.268  0.2338  0.0157 -0.6031
  135MOL0     C18150   9.083   6.434   0.179  0.1619 -0.6081  0.0651
  135MOL0     C18151   9.222   6.420   0.243  0.4055 -0.7583 -0.6005
  135MOL0     C18152   9.316   6.534   0.200  0.4180 -0.1839  0.1039
  135MOL0     C18153   9.458   6.483   0.208 -0.4305  0.8207  0.1604
  135MOL0     C18154   9.549   6.598   0.197 -0.4328 -0.2293 -0.3079
  135MOL0     C18155   9.618   6.695   0.162 -0.3413 -0.4367  0.0377
  135MOL0     C18156   8.791   6.377   0.388  0.1726 -1.0426 -0.4699
  135MOL0     C18157   8.650   6.385   0.386  0.6144 -0.1669  0.1273
  135MOL0     H18158   8.210   6.539   0.525  0.8855 -1.1340  1.2537
  135MOL0     H18159   7.972   6.516   0.539  2.0745  2.1779 -0.0125
  135MOL0     H18160   7.825   6.373   0.585 -0.4286  1.6881  0.7741
  135MOL0     H18161   7.721   6.494   0.512 -1.7321 -1.4189  0.2632
  135MOL0     H18162   7.678   6.196   0.525 -1.2623 -0.3511 -2.0751
  135MOL0     H18163   7.635   6.315   0.646  0.6547 -0.6370 -0.0290
  135MOL0     H18164   7.503   6.442   0.459 -1.0235  1.0122 -1.8331
  135MOL0     H18165   7.537   6.305   0.355 -1.3459  2.0961 -0.9144
  135MOL0     H18166   7.422   6.183   0.598 -1.4755 -0.0145  0.7876
  135MOL0     H18167   7.369   6.345   0.607 -0.3272 -2.8358  2.5163
  135MOL0     H18168   7.231   6.361   0.427  0.5014  1.2240  3.2295
  135MOL0     H18169   7.301   6.223   0.353  1.0413  0.3753 -0.1559
  135MOL0     H18170   7.205   6.107   0.599  0.1972 -1.3528 -2.7627
  135MOL0     H18171   7.107   6.237   0.601 -0.0615 -3.3577  3.9298
  135MOL0     H18172   7.029   6.190   0.364 -0.4435 -1.5899 -1.0483
  135MOL0     H18173   7.121   6.039   0.375  0.1073 -1.8216  2.0239
  135MOL0     H18174   6.908   6.126   0.574  1.1997  0.2904 -0.7545
  135MOL0     H18175   6.992   5.972   0.569  3.9359  1.2245 -0.6406
  135MOL0     H18176   6.941   5.822   0.316  0.4862 -0.2082 -1.5999
  135MOL0     H18177   6.646   5.833   0.085  0.7345 -1.3400 -1.5737
  135MOL0     H18178   6.751   5.708   0.150 -3.0431 -2.7805 -1.2176
  135MOL0     H18179   6.466   5.810   0.249  2.2662  1.6473  2.5377
  135MOL0     H18180   6.553   5.679   0.326 -0.7704  1.5089  0.5404
  135MOL0     H18181   6.529   5.531   0.162 -1.5073 -1.5177 -1.0393
  135MOL0     H18182   6.519   5.651   0.023  0.9523  2.6892  1.4017
  135MOL0     H18183   6.308   5.593   0.230  3.1114 -1.5218  1.0368
  135MOL0     H18184   6.333   5.497   0.078 -1.8844  0.4995 -0.0753
  135MOL0     H18185   6.127   5.487   0.144  0.7853  0.9672 -0.4578
  135MOL0     H18186   5.931   5.398   0.228 -0.3276 -0.3277  1.2517
  135MOL0     H18187   5.778   5.477   0.213  1.5481  0.6354  2.7481
  135MOL0     H18188   5.838   5.380   0.075  4.5572  0.3917 -2.5618
  135MOL0     H18189   5.584   5.680  -0.277 -0.3935  1.0722 -0.7053
  135MOL0     H18190   5.350   5.660  -0.362  1.9171  0.5480  0.2245
  135MOL0     H18191   5.021   5.785  -0.085  0.7667 -1.2899 -1.5299
  135MOL0     H18192   5.024   5.923  -0.211  1.1067  0.4741 -2.9966
  135MOL0     H18193   4.804   5.814  -0.186 -0.1639  1.3664  0.4906
  135MOL0     H18194   4.876   5.815  -0.349 -0.0587  0.3450  0.3349
  135MOL0     H18195   4.929   5.583  -0.169 -3.2667  2.2227  4.3929
  135MOL0     H18196   4.919   5.583  -0.342  0.8738  1.8261 -0.0205
  135MOL0     H18197   4.696   5.646  -0.128  0.2733 -0.8844  0.8425
  135MOL0     H18198   4.661   5.638  -0.296 -0.0300 -0.8310  0.3607
  135MOL0     H18199   4.746   5.415  -0.110  0.9501 -2.1301 -0.8892
  135MOL0     H18200   4.756   5.398  -0.286 -1.4573  0.9730 -1.2260
  135MOL0     H18201   4.499   5.412  -0.105 -2.9218 -2.8664 -1.0979
  135MOL0     H18202   4.475   5.443  -0.269  1.0483 -0.2679 -2.2673
  135MOL0     H18203   4.577   5.171  -0.164 -1.0777 -2.0839 -1.9301
  135MOL0     H18204   4.563   5.220  -0.333  2.7746  2.8608 -0.4695
  135MOL0     H18205   4.320   5.232  -0.150 -2.0625 -1.0192 -0.5689
  135MOL0     H18206   4.381   5.081  -0.189  0.7626  0.6658  1.5549
  135MOL0     H18207   5.205   5.830  -0.005  0.2156 -0.8366  0.5856
  135MOL0     H18208   5.417   5.856   0.078 -1.9364  0.7847 -0.8716
  135MOL0     H18209   5.888   5.851  -0.091  1.5275  0.6120  1.2429
  135MOL0     H18210   6.121   5.855  -0.068  3.6456 -2.5895 -1.5844
  135MOL0     H18211   7.964   6.205   0.244  1.4411 -0.5750 -1.7175
  135MOL0     H18212   8.229   6.225   0.255 -1.7705  0.9169 -1.8260
  135MOL0     H18213   8.598   6.488   0.074 -0.1015  2.2193  0.6965
  135MOL0     H18214   8.857   6.463   0.078  2.1176 -0.7106  0.7766
  135MOL0     H18215   9.084   6.399   0.075  0.4009  1.9314 -0.8648
  135MOL0     H18216   9.063   6.541   0.171 -0.3499 -0.6756  0.4070
  135MOL0     H18217   9.266   6.321   0.226  0.0693 -1.7588  3.4333
  135MOL0     H18218   9.216   6.421   0.352  3.8153 -1.4921 -0.2945
  135MOL0     H18219   9.314   6.626   0.260  2.3533  2.0864 -2.9719
  135MOL0     H18220   9.291   6.566   0.099  0.4767 -1.6777 -0.4091
  135MOL0     H18221   9.471   6.417   0.122 -1.0857  0.7919  0.0801
  135MOL0     H18222   9.478   6.420   0.295  0.4388 -0.2635 -0.8055
  135MOL0     H18223   9.672   6.785   0.139 -0.7133 -0.6942 -2.0401
  135MOL0     H18224   8.842   6.353   0.481 -1.3177  2.3045  1.3673
  135MOL0     H18225   8.589   6.363   0.473 -0.1660  0.1374 -0.3370
  136MOL0     O18226   1.981   8.552   1.788 -0.3721  0.0768 -0.2331
  136MOL0     C18227   2.000   8.613   1.687  0.3887  0.7776  0.8055
  136MOL0     O18228   1.904   8.682   1.624 -0.0380 -0.2107 -0.4884
  136MOL0     C18229   1.796   8.716   1.695  0.2658  0.0658 -0.1842
  136MOL0     C18230   1.698   8.616   1.721  0.0710  0.4783 -0.0306
  136MOL0     C18231   1.579   8.647   1.795 -0.1687  0.5335  0.5927
  136MOL0     C18232   1.568   8.779   1.844  0.2291 -0.7609 -0.7470
  136MOL0     O18233   1.461   8.845   1.914 -0.2864  0.7965  0.0349
  136MOL0     C18234   1.328   8.784   1.904 -0.2288 -0.0359 -0.4322
  136MOL0     C18235   1.271   8.808   1.761  0.6793  0.8937  0.2218
  136MOL0     C18236   1.124   8.768   1.764 -1.8630  0.5860  1.0358
  136MOL0     C18237   1.044   8.848   1.653  0.2773 -0.0995  0.2989
  136MOL0     C18238   0.899   8.799   1.617 -0.0921 -0.1891 -0.3228
  136MOL0     C18239   0.824   8.910   1.543  0.0433 -0.8389  0.3945
  136MOL0     C18240   0.686   8.871   1.508 -1.0410  0.4519  0.0683
  136MOL0     C18241   0.608   8.878   1.638  0.2641  0.5448 -0.1643
  136MOL0     N18242   0.466   8.841   1.610 -1.1451 -0.4395 -0.3919
  136MOL0     C18243   0.378   8.919   1.548  0.0419 -0.3762 -0.0339
  136MOL0     C18244   0.261   8.843   1.550 -0.1231 -0.4983  0.1434
  136MOL0     C18245   0.133   8.901   1.490 -0.5213  0.5526  0.0318
  136MOL0     C18246   0.020   8.791   1.486  0.4795  0.2909 -0.2887
  136MOL0     C18247  -0.103   8.852   1.413 -0.0793 -0.1027 -0.3974
  136MOL0     C18248  -0.171   8.959   1.495  0.1640 -0.0114  0.0445
  136MOL0     O18249  -0.298   9.011   1.442 -0.6816  0.3413 -0.5161
  136MOL0     C18250  -0.409   8.931   1.449  0.7252 -0.2902 -0.8897
  136MOL0     C18251  -0.519   8.970   1.370 -0.6466  0.2469  0.1690
  136MOL0     C18252  -0.651   8.927   1.394 -0.2988  0.1247 -0.2486
  136MOL0     C18253  -0.762   8.971   1.299  0.8601  0.3794 -0.7630
  136MOL0     C18254  -0.670   8.833   1.498 -0.4746 -0.5142 -0.8755
  136MOL0     C18255  -0.797   8.774   1.524  0.1036  0.6885 -0.1802
  136MOL0     O18256  -0.810   8.736   1.653  0.3055 -0.4756 -0.4961
  136MOL0     C18257  -0.931   8.683   1.698 -0.0159  0.1486 -0.0354
  136MOL0     C18258  -1.006   8.584   1.628  0.4746  0.2164  0.1118
  136MOL0     C18259  -1.125   8.543   1.691 -1.1384 -0.7498 -0.0694
  136MOL0     C18260  -1.171   8.597   1.807 -0.5630  0.4784 -0.7493
  136MOL0     O18261  -1.293   8.549   1.852 -0.1533  0.5731  0.1689
  136MOL0     C18262  -1.357   8.624   1.960  0.4221 -0.2450  0.8796
  136MOL0     C18263  -1.495   8.566   2.002  1.0117  0.4346 -0.3138
  136MOL0     C18264  -1.467   8.452   2.101  0.7661  0.7218 -0.3393
  136MOL0     C18265  -1.610   8.404   2.148 -0.2793  0.2510 -0.6457
  136MOL0     C18266  -1.592   8.269   2.215  0.5001  0.3686  0.1248
  136MOL0     C18267  -1.711   8.215   2.295  1.2857 -0.8006 -0.5300
  136MOL0     C18268  -1.690   8.061   2.334  0.1555  0.5814 -0.7891
  136MOL0     C18269  -1.786   8.008   2.442  0.7083  0.2021  0.2825
  136MOL0    Cl18270  -1.940   7.964   2.374  0.5079  0.3247 -0.0512
  136MOL0     C18271  -1.093   8.694   1.872 -0.1706  0.2582  0.1697
  136MOL0     C18272  -0.972   8.731   1.823  0.7072  0.2793 -0.5089
  136MOL0     O18273  -0.874   8.749   1.430  0.0466  0.1415 -0.0584
  136MOL0     C18274  -0.562   8.785   1.568 -0.2216  0.2395  0.2033
  136MOL0     C18275  -0.429   8.830   1.547 -0.0583  0.0884  0.6674
  136MOL0     N18276   0.293   8.715   1.614 -0.4624 -0.1763  0.0530
  136MOL0     N18277   0.416   8.729   1.662  0.4524  0.0027 -0.7118
  136MOL0     C18278   1.673   8.874   1.810  0.8815  0.1258  0.0711
  136MOL0     C18279   1.777   8.847   1.726 -0.8450 -0.1799 -0.8889
  136MOL0     C18280   2.140   8.610   1.636 -0.1293 -0.3853  0.1251
  136MOL0     C18281   2.244   8.549   1.712 -1.0206  0.6303  0.9184
  136MOL0     C18282   2.379   8.555   1.667  0.3686  0.3083  0.6528
  136MOL0     C18283   2.414   8.609   1.542 -0.5607  0.1516 -1.0117
  136MOL0     O18284   2.540   8.617   1.482 -0.3766 -0.6191 -0.4065
  136MOL0     C18285   2.642   8.546   1.542  0.2610  1.0308  0.0796
  136MOL0     C18286   2.767   8.566   1.457  0.2231  0.5399 -0.3144
  136MOL0     C18287   2.898   8.497   1.509 -1.0012 -0.3757  0.1202
  136MOL0     C18288   3.027   8.542   1.434 -0.2566  0.2453 -0.2596
  136MOL0     C18289   3.002   8.534   1.289  0.1654  0.2804 -0.1763
  136MOL0     C18290   2.979   8.537   1.169 -0.5110 -0.4163  0.1829
  136MOL0     C18291   2.309   8.655   1.465 -0.7483 -0.4599  0.0894
  136MOL0     C18292   2.179   8.670   1.513  0.0358  0.4454  0.0308
  136MOL0     H18293   1.732   8.517   1.694  0.4085 -0.0164  2.0063
  136MOL0     H18294   1.500   8.576   1.819  1.4714 -1.9760 -0.9645
  136MOL0     H18295   1.336   8.677   1.926  1.5585  0.5345  2.1214
  136MOL0     H18296   1.271   8.839   1.980  1.0230  3.5749 -1.8991
  136MOL0     H18297   1.285   8.913   1.731  2.6635  1.5718  3.1048
  136MOL0     H18298   1.325   8.741   1.694  1.1006  0.2658  1.1605
  136MOL0     H18299   1.123   8.664   1.731  6.0715  0.1083  0.4307
  136MOL0     H18300   1.069   8.780   1.858 -0.8403  1.1415  1.5810
  136MOL0     H18301   1.025   8.945   1.700  0.2390  0.0613 -0.0508
  136MOL0     H18302   1.100   8.860   1.560 -0.6521  1.4194 -0.1032
  136MOL0     H18303   0.916   8.715   1.550 -1.9037 -1.2181  0.4186
  136MOL0     H18304   0.839   8.756   1.698 -0.9966  2.5073  0.5434
  136MOL0     H18305   0.824   8.997   1.609 -1.4231 -1.1694  0.8693
  136MOL0     H18306   0.877   8.947   1.455 -0.2810 -0.5457  0.3234
  136MOL0     H18307   0.652   8.936   1.427 -2.4952  0.9895  1.0752
  136MOL0     H18308   0.687   8.769   1.468  0.3764  0.3961  0.1902
  136MOL0     H18309   0.601   8.980   1.675  2.2122  0.9379 -0.7675
  136MOL0     H18310   0.648   8.808   1.712 -1.8047 -0.6687 -0.0974
  136MOL0     H18311   0.388   9.015   1.499  0.1123  1.0377  2.5766
  136MOL0     H18312   0.101   8.990   1.546  0.4195  0.2207  1.1274
  136MOL0     H18313   0.161   8.922   1.386 -4.8095  0.7578 -1.2597
  136MOL0     H18314   0.002   8.762   1.590 -1.3512 -2.7371 -1.3209
  136MOL0     H18315   0.048   8.701   1.431  1.8972 -0.9674  2.3137
  136MOL0     H18316  -0.189   8.786   1.393 -0.9394  1.0341 -0.5833
  136MOL0     H18317  -0.077   8.915   1.327  0.0578  0.8358  0.3255
  136MOL0     H18318  -0.102   9.043   1.490 -1.7389  1.5276 -2.6455
  136MOL0     H18319  -0.180   8.937   1.602 -1.2981  1.6775  0.3134
  136MOL0     H18320  -0.504   9.036   1.285 -0.6560 -0.5465 -0.4589
  136MOL0     H18321  -0.737   9.061   1.242  0.4967  1.0419  0.0948
  136MOL0     H18322  -0.774   8.889   1.228 -2.5958 -0.7707  0.9272
  136MOL0     H18323  -0.857   8.989   1.351 -0.7913 -2.4313 -2.5516
  136MOL0     H18324  -0.980   8.556   1.526  1.2768  0.2164  0.3097
  136MOL0     H18325  -1.185   8.474   1.633  1.1096 -0.5881 -2.8549
  136MOL0     H18326  -1.294   8.620   2.049 -0.7397  0.3738  1.7512
  136MOL0     H18327  -1.369   8.728   1.928 -0.7509 -1.0993 -1.7884
  136MOL0     H18328  -1.558   8.641   2.051 -2.1154 -0.5586 -2.4715
  136MOL0     H18329  -1.547   8.522   1.916 -0.8540  0.0600  0.9374
  136MOL0     H18330  -1.415   8.488   2.191  1.8371  0.6477 -0.9098
  136MOL0     H18331  -1.424   8.364   2.052 -0.9527 -1.0150  1.1167
  136MOL0     H18332  -1.645   8.472   2.226 -1.8589 -1.5618  0.2921
  136MOL0     H18333  -1.694   8.406   2.078 -0.6666 -0.6016 -0.2186
  136MOL0     H18334  -1.507   8.274   2.284  0.6640 -0.5712  0.0055
  136MOL0     H18335  -1.569   8.188   2.145  1.8130 -0.5456  1.5405
  136MOL0     H18336  -1.730   8.277   2.383 -0.0485 -0.3922 -1.0765
  136MOL0     H18337  -1.805   8.228   2.240 -1.0472 -0.5573  3.1478
  136MOL0     H18338  -1.588   8.049   2.370  0.1257  1.0190 -0.5435
  136MOL0     H18339  -1.700   7.993   2.249  0.0960 -0.4575  0.0264
  136MOL0     H18340  -1.800   8.076   2.527  2.4151  1.6224 -0.5001
  136MOL0     H18341  -1.743   7.914   2.477 -2.0744 -0.7816  1.3049
  136MOL0     H18342  -1.112   8.736   1.970  1.8763  0.9292  0.3271
  136MOL0     H18343  -0.917   8.809   1.875 -2.6585  1.6264  1.4053
  136MOL0     H18344  -0.569   8.706   1.642 -2.0560  0.8611  0.7436
  136MOL0     H18345  -0.343   8.798   1.605  2.4148 -0.1545 -2.7571
  136MOL0     H18346   1.656   8.978   1.835  2.0128 -0.0534  1.7713
  136MOL0     H18347   1.839   8.931   1.694 -1.0465  0.4031  0.2037
  136MOL0     H18348   2.229   8.489   1.802  3.0818 -0.9906  0.7178
  136MOL0     H18349   2.454   8.513   1.733 -0.1774 -2.9484 -0.5841
  136MOL0     H18350   2.656   8.601   1.636  1.1352  0.5517  0.2460
  136MOL0     H18351   2.615   8.441   1.550 -0.8434  1.2488 -0.5781
  136MOL0     H18352   2.802   8.670   1.449 -0.3859  0.7089 -0.8293
  136MOL0     H18353   2.743   8.526   1.358 -1.0635 -2.2575  1.0456
  136MOL0     H18354   2.871   8.391   1.499 -2.3560 -0.2772  2.2241
  136MOL0     H18355   2.905   8.528   1.613 -2.4470  1.7137 -0.3373
  136MOL0     H18356   3.104   8.473   1.470 -0.7218  0.0598  0.4080
  136MOL0     H18357   3.060   8.645   1.448 -2.4456  1.2532 -1.8763
  136MOL0     H18358   2.965   8.547   1.063 -0.1773  1.8065  0.3214
  136MOL0     H18359   2.340   8.712   1.378 -2.2278  0.7795  0.3451
  136MOL0     H18360   2.106   8.727   1.456 -1.8300  0.4089  2.2001
  137MOL0     O18361   1.497   2.749   9.424 -0.2613  0.0653 -0.2553
  137MOL0     C18362   1.563   2.803   9.334 -0.2582 -0.0322  1.1624
  137MOL0     O18363   1.519   2.898   9.247 -0.5221 -0.1423 -0.0693
  137MOL0     C18364   1.386   2.926   9.246 -0.4765  0.1995 -0.0815
  137MOL0     C18365   1.345   3.024   9.329 -0.1967 -0.0494  0.4364
  137MOL0     C18366   1.212   3.057   9.346 -0.0914  0.8205 -0.2406
  137MOL0     C18367   1.119   2.994   9.262  0.7555  0.5292  0.8632
  137MOL0     O18368   0.991   3.035   9.274  0.1997  0.9310  0.3278
  137MOL0     C18369   0.921   3.055   9.146 -0.1858 -0.3655  0.8362
  137MOL0     C18370   0.810   3.157   9.154 -0.0431  0.3255 -0.1279
  137MOL0     C18371   0.705   3.144   9.045 -0.0169 -0.2624  0.7428
  137MOL0     C18372   0.615   3.257   9.043 -0.0898  0.8025  0.7003
  137MOL0     C18373   0.497   3.224   8.938 -0.4270  0.5628  0.0062
  137MOL0     C18374   0.412   3.336   8.907 -0.5123 -0.1631  0.3267
  137MOL0     C18375   0.278   3.297   8.835 -0.4968 -0.0181 -0.5066
  137MOL0     C18376   0.194   3.426   8.804  1.0288 -0.1008 -0.5924
  137MOL0     N18377   0.068   3.381   8.731 -0.3308 -0.1552 -0.3540
  137MOL0     C18378  -0.052   3.349   8.787  0.0402 -0.4142  0.1170
  137MOL0     C18379  -0.135   3.307   8.689  0.1667  0.6618 -0.0009
  137MOL0     C18380  -0.269   3.236   8.706 -0.1452 -0.3589  0.1298
  137MOL0     C18381  -0.364   3.314   8.805  0.3218 -0.0962  0.0738
  137MOL0     C18382  -0.422   3.438   8.747 -0.9924  0.2489 -0.4729
  137MOL0     C18383  -0.580   3.436   8.745  1.1251 -1.2921  0.4912
  137MOL0     O18384  -0.640   3.348   8.648 -0.2844  0.5386  0.3232
  137MOL0     C18385  -0.777   3.355   8.627 -0.0432 -0.4998  0.7066
  137MOL0     C18386  -0.826   3.296   8.508 -0.6512  0.0481  0.2243
  137MOL0     C18387  -0.964   3.314   8.473 -0.0257 -0.0700 -0.1851
  137MOL0     C18388  -1.010   3.260   8.336 -1.0638 -0.5457 -0.1542
  137MOL0     C18389  -1.055   3.363   8.571 -0.7198 -1.1211  0.1101
  137MOL0     C18390  -1.209   3.370   8.556  0.0653 -0.2098  0.2755
  137MOL0     O18391  -1.284   3.455   8.633  0.4511  0.8092  0.4956
  137MOL0     C18392  -1.417   3.415   8.643  0.3212  0.1644 -0.0954
  137MOL0     C18393  -1.461   3.334   8.740 -0.3659 -0.0386  0.0883
  137MOL0     C18394  -1.598   3.303   8.754 -0.4546 -0.6950 -0.2021
  137MOL0     C18395  -1.696   3.373   8.681  0.2151  0.1630 -0.2803
  137MOL0     O18396  -1.825   3.342   8.712 -0.0943  0.7677  0.6656
  137MOL0     C18397  -1.877   3.440   8.801  1.0003 -0.6727 -0.3043
  137MOL0     C18398  -2.021   3.409   8.846 -0.2653  0.6173 -0.4269
  137MOL0     C18399  -2.120   3.393   8.731 -0.4407  0.3526  0.3972
  137MOL0     C18400  -2.259   3.376   8.787  0.5771 -0.1418 -0.1172
  137MOL0     C18401  -2.366   3.392   8.686  0.1670  0.1850 -0.5607
  137MOL0     C18402  -2.497   3.373   8.756 -0.1541 -0.4094 -0.1925
  137MOL0     C18403  -2.614   3.398   8.655  0.3205 -0.5905 -0.6779
  137MOL0     C18404  -2.746   3.409   8.732  0.2312 -1.1585  0.6625
  137MOL0    Cl18405  -2.771   3.266   8.850  0.1543  0.1250 -0.0919
  137MOL0     C18406  -1.658   3.453   8.578 -0.2742 -0.1949 -0.3103
  137MOL0     C18407  -1.518   3.474   8.554 -0.7979  0.1649 -0.3863
  137MOL0     O18408  -1.262   3.287   8.471 -0.9716  0.4279  0.6217
  137MOL0     C18409  -1.006   3.418   8.690 -0.3953 -0.0464  0.3834
  137MOL0     C18410  -0.867   3.423   8.712  0.2169  0.2528  0.2710
  137MOL0     N18411  -0.063   3.310   8.571  0.3021 -0.7516 -0.1202
  137MOL0     N18412   0.059   3.344   8.602  0.2938 -0.6632 -0.8450
  137MOL0     C18413   1.164   2.897   9.165  0.4050  0.7281 -0.8592
  137MOL0     C18414   1.292   2.857   9.164 -0.5743  0.0506  0.1341
  137MOL0     C18415   1.701   2.759   9.315 -0.8113 -0.3457  0.5713
  137MOL0     C18416   1.782   2.812   9.211 -0.6859 -0.1272 -0.2512
  137MOL0     C18417   1.916   2.775   9.197  0.1519  0.2087 -0.6994
  137MOL0     C18418   1.979   2.696   9.286  0.2356 -0.8830 -0.0258
  137MOL0     O18419   2.116   2.663   9.286  0.3393  0.0598  0.6116
  137MOL0     C18420   2.189   2.699   9.168 -0.6134 -0.4119 -0.8093
  137MOL0     C18421   2.332   2.688   9.203 -0.7492 -0.4865 -0.9365
  137MOL0     C18422   2.366   2.540   9.225 -0.4694  0.1692 -0.0735
  137MOL0     C18423   2.416   2.472   9.099 -0.0109  0.3132  0.3077
  137MOL0     C18424   2.546   2.517   9.062 -0.3046  0.4296 -0.1538
  137MOL0     C18425   2.669   2.539   9.054  0.5076 -0.3941 -0.3096
  137MOL0     C18426   1.908   2.649   9.396 -0.5132  0.5352  0.7765
  137MOL0     C18427   1.768   2.668   9.405 -0.1159  0.7774  0.8766
  137MOL0     H18428   1.418   3.080   9.388 -0.9834  0.4926  0.9101
  137MOL0     H18429   1.186   3.136   9.416 -2.8879 -2.2709  2.5081
  137MOL0     H18430   0.990   3.083   9.067 -3.3124  4.0224 -0.7446
  137MOL0     H18431   0.876   2.960   9.117 -1.5017 -0.0841  1.8390
  137MOL0     H18432   0.757   3.134   9.246 -0.7015 -2.2008 -1.0679
  137MOL0     H18433   0.851   3.258   9.163  1.9952 -0.5653  1.1772
  137MOL0     H18434   0.752   3.137   8.946 -1.2570 -0.3885  0.1470
  137MOL0     H18435   0.651   3.050   9.059  0.0255 -0.5822 -0.9668
  137MOL0     H18436   0.565   3.269   9.140 -2.4291 -0.3817 -0.2853
  137MOL0     H18437   0.677   3.342   9.013  2.9653 -1.4488  0.1080
  137MOL0     H18438   0.540   3.187   8.845 -3.7376 -0.4826 -1.2408
  137MOL0     H18439   0.437   3.146   8.986 -0.7420 -1.1031 -2.8549
  137MOL0     H18440   0.390   3.387   9.001 -2.9547 -1.0584  0.3147
  137MOL0     H18441   0.468   3.405   8.843 -0.4358  0.0856  0.6592
  137MOL0     H18442   0.307   3.251   8.740  1.3022  2.1962 -1.1001
  137MOL0     H18443   0.220   3.234   8.903  0.6621  0.0829  0.6058
  137MOL0     H18444   0.245   3.495   8.736 -1.9313  0.5908 -2.2733
  137MOL0     H18445   0.159   3.483   8.891  1.2483  0.6415 -0.9840
  137MOL0     H18446  -0.060   3.345   8.895 -2.4394  0.8521  0.0314
  137MOL0     H18447  -0.319   3.231   8.609 -1.1705  2.7868  0.4025
  137MOL0     H18448  -0.253   3.135   8.745  0.9543  0.3802  1.6749
  137MOL0     H18449  -0.303   3.350   8.888  1.3956  0.0588 -0.7535
  137MOL0     H18450  -0.442   3.244   8.837  2.1321 -2.7475 -0.9094
  137MOL0     H18451  -0.384   3.465   8.649  2.3918 -0.8262  0.4086
  137MOL0     H18452  -0.376   3.514   8.811  3.9931 -1.5118 -1.4927
  137MOL0     H18453  -0.597   3.543   8.732  1.7447 -0.9034  2.5420
  137MOL0     H18454  -0.618   3.409   8.844 -1.9275  2.6233  0.6361
  137MOL0     H18455  -0.767   3.243   8.433  0.4800 -0.2119  1.2735
  137MOL0     H18456  -0.923   3.237   8.273 -1.7926  0.4696 -1.5816
  137MOL0     H18457  -1.059   3.164   8.353  3.9345 -3.2015  1.1485
  137MOL0     H18458  -1.079   3.329   8.285  1.9887  3.5037  0.6610
  137MOL0     H18459  -1.390   3.296   8.813 -0.9222  1.5487  1.5281
  137MOL0     H18460  -1.626   3.239   8.837  1.7410  0.1442  1.2832
  137MOL0     H18461  -1.831   3.448   8.900 -1.7889 -1.3231  1.1483
  137MOL0     H18462  -1.862   3.535   8.749  0.4559 -1.0854 -1.2443
  137MOL0     H18463  -2.024   3.315   8.903  0.4176 -0.6982 -2.4341
  137MOL0     H18464  -2.061   3.488   8.910  1.5802 -0.5273  2.3325
  137MOL0     H18465  -2.097   3.311   8.663 -0.0376  0.2839  0.6131
  137MOL0     H18466  -2.124   3.483   8.670 -3.3749 -0.3568 -0.6154
  137MOL0     H18467  -2.260   3.282   8.843 -0.8265  0.0997  0.2861
  137MOL0     H18468  -2.285   3.454   8.859 -0.1915  0.0952 -0.6411
  137MOL0     H18469  -2.352   3.308   8.617  0.3193 -0.2108 -0.0514
  137MOL0     H18470  -2.359   3.491   8.641  0.7463  0.4371  0.0679
  137MOL0     H18471  -2.515   3.272   8.795 -1.2549 -1.4798 -3.1565
  137MOL0     H18472  -2.511   3.451   8.832 -2.5732  2.4936 -3.2923
  137MOL0     H18473  -2.644   3.324   8.580 -2.6131 -2.1176  1.7904
  137MOL0     H18474  -2.603   3.495   8.606  0.3397 -1.5275 -2.6425
  137MOL0     H18475  -2.830   3.424   8.665  0.2104 -0.3437  0.8633
  137MOL0     H18476  -2.745   3.500   8.792 -0.9193 -0.4350 -0.3725
  137MOL0     H18477  -1.728   3.506   8.514 -0.4788 -0.5545 -0.3868
  137MOL0     H18478  -1.484   3.552   8.486  2.5871 -1.3040 -0.5898
  137MOL0     H18479  -1.074   3.445   8.770 -0.4525 -2.0817  1.0733
  137MOL0     H18480  -0.833   3.456   8.810  1.0735 -0.8597  0.3782
  137MOL0     H18481   1.097   2.842   9.100 -0.1836  1.3541 -0.7949
  137MOL0     H18482   1.324   2.779   9.096 -0.8020  1.1149 -1.2396
  137MOL0     H18483   1.724   2.877   9.146 -2.7477  0.2900  1.8726
  137MOL0     H18484   1.968   2.820   9.113  2.6577  1.2613  1.2853
  137MOL0     H18485   2.161   2.639   9.080  1.9310 -0.4191 -1.6746
  137MOL0     H18486   2.178   2.806   9.145 -3.3318 -0.4090  0.0988
  137MOL0     H18487   2.341   2.748   9.294  1.2408 -1.1341 -0.6553
  137MOL0     H18488   2.400   2.742   9.136  3.4678  0.0509  3.2168
  137MOL0     H18489   2.290   2.481   9.277 -0.3824 -0.6939 -0.9012
  137MOL0     H18490   2.443   2.538   9.303 -0.2152 -3.1683 -0.2631
  137MOL0     H18491   2.345   2.504   9.021  2.2739  1.2674 -1.4820
  137MOL0     H18492   2.419   2.363   9.104  2.7274  0.3763  3.0489
  137MOL0     H18493   2.773   2.560   9.036  0.0796  0.1500 -2.5224
  137MOL0     H18494   1.953   2.590   9.475 -1.6599 -1.7428 -0.1440
  137MOL0     H18495   1.708   2.636   9.489 -1.9695 -0.8922 -0.9519
  138MOL0     O18496   8.636   2.643   2.202 -0.2212 -0.2666  0.1024
  138MOL0     C18497   8.622   2.710   2.305  1.0340 -0.0586  0.2509
  138MOL0     O18498   8.518   2.699   2.389 -0.1780  0.1007 -0.7781
  138MOL0     C18499   8.402   2.632   2.348  0.1274  0.1138 -0.2694
  138MOL0     C18500   8.351   2.661   2.226  0.2473 -0.8798 -0.6737
  138MOL0     C18501   8.220   2.623   2.192  0.4781  0.5891 -0.7913
  138MOL0     C18502   8.163   2.521   2.265  0.0229 -0.2119  0.0570
  138MOL0     O18503   8.051   2.471   2.210  0.5494  0.1885  0.2998
  138MOL0     C18504   8.036   2.328   2.217  0.1718  0.0568 -0.4790
  138MOL0     C18505   7.920   2.276   2.292  0.1934  0.1163 -0.2363
  138MOL0     C18506   7.794   2.279   2.208 -0.5421  0.4344  0.0129
  138MOL0     C18507   7.668   2.274   2.300 -0.7001  0.0200 -0.1725
  138MOL0     C18508   7.541   2.243   2.217  0.7200 -0.0060  0.4760
  138MOL0     C18509   7.525   2.091   2.192  0.6790 -0.1357  0.0963
  138MOL0     C18510   7.439   2.055   2.074 -0.6934 -0.3664 -0.1869
  138MOL0     C18511   7.300   2.130   2.088 -0.3315 -0.7875 -0.6668
  138MOL0     N18512   7.189   2.064   2.025  0.3649  0.6870  0.4074
  138MOL0     C18513   7.201   2.029   1.894  0.4706  0.9164 -0.4053
  138MOL0     C18514   7.083   1.978   1.866 -0.4824 -0.1782 -0.2030
  138MOL0     C18515   7.053   1.915   1.735  0.6196  0.6272 -0.0231
  138MOL0     C18516   6.996   1.776   1.766 -0.8277  0.0599 -0.1659
  138MOL0     C18517   6.982   1.684   1.649  0.1085 -0.0648 -0.5783
  138MOL0     C18518   6.874   1.735   1.559  0.1660 -0.4745 -0.3012
  138MOL0     O18519   6.868   1.644   1.448 -0.9621  0.0158  0.0788
  138MOL0     C18520   6.780   1.676   1.352 -0.0685  0.0638  0.6850
  138MOL0     C18521   6.710   1.792   1.350  0.2962 -0.3640  0.2573
  138MOL0     C18522   6.605   1.811   1.250 -1.0571 -0.1187 -0.5305
  138MOL0     C18523   6.524   1.939   1.254  0.6714  0.6933  0.4565
  138MOL0     C18524   6.575   1.706   1.167 -0.0006 -0.1484 -0.7948
  138MOL0     C18525   6.452   1.715   1.080 -0.8676  0.1375 -0.7063
  138MOL0     O18526   6.465   1.650   0.958 -0.4935  0.0933 -0.8398
  138MOL0     C18527   6.337   1.640   0.903 -0.6503  0.7555 -0.4400
  138MOL0     C18528   6.250   1.540   0.931  0.2496  0.0155 -0.9430
  138MOL0     C18529   6.126   1.529   0.876  0.1060  0.2542 -0.5076
  138MOL0     C18530   6.069   1.623   0.788 -0.2415 -0.1354 -0.7626
  138MOL0     O18531   5.932   1.615   0.759  0.4792 -0.3194 -0.3150
  138MOL0     C18532   5.878   1.720   0.684 -0.2623  0.9076 -0.4857
  138MOL0     C18533   5.723   1.719   0.691 -0.4367  0.6215  0.2424
  138MOL0     C18534   5.673   1.578   0.640  0.5029 -0.4384  0.4583
  138MOL0     C18535   5.521   1.564   0.659 -0.7318 -0.8150 -0.5586
  138MOL0     C18536   5.463   1.422   0.620  0.2843  0.7729 -0.4426
  138MOL0     C18537   5.311   1.413   0.644  0.9014 -0.0691  0.6327
  138MOL0     C18538   5.260   1.283   0.572  0.2926 -0.1775  0.5587
  138MOL0     C18539   5.113   1.293   0.556 -0.8263  0.3277 -1.0812
  138MOL0    Cl18540   5.041   1.122   0.544  0.5188  0.3781  0.0555
  138MOL0     C18541   6.161   1.723   0.743 -0.0080 -0.1804  0.2560
  138MOL0     C18542   6.289   1.731   0.804  0.7965  0.2315  0.3184
  138MOL0     O18543   6.349   1.776   1.115 -0.5998  0.6953 -0.3259
  138MOL0     C18544   6.659   1.586   1.164  0.8664  0.7462  0.9825
  138MOL0     C18545   6.750   1.578   1.261 -0.0249  0.0269  0.7627
  138MOL0     N18546   6.990   1.993   1.961 -0.3982  0.8406 -0.3180
  138MOL0     N18547   7.062   2.047   2.057  0.7515 -0.1538 -0.0454
  138MOL0     C18548   8.214   2.487   2.389 -1.0692  0.1648 -0.5059
  138MOL0     C18549   8.338   2.543   2.436  0.1483  0.3649  0.1071
  138MOL0     C18550   8.734   2.806   2.342  0.8112 -0.4632  0.2084
  138MOL0     C18551   8.746   2.873   2.471 -0.2308  0.4799  0.3957
  138MOL0     C18552   8.848   2.963   2.502 -0.2527  0.3093 -0.3385
  138MOL0     C18553   8.937   3.003   2.403 -0.5026  0.7166  0.0173
  138MOL0     O18554   9.029   3.099   2.431  0.1412  0.3764  0.6392
  138MOL0     C18555   9.134   3.125   2.328 -0.0590  0.2883  0.5661
  138MOL0     C18556   9.210   3.258   2.384  0.2399  0.4029  0.6732
  138MOL0     C18557   9.139   3.387   2.359  0.0827  0.4164 -0.7014
  138MOL0     C18558   9.100   3.397   2.206 -0.0612 -0.4516 -1.0325
  138MOL0     C18559   8.962   3.364   2.179 -0.0515  0.1003  0.3127
  138MOL0     C18560   8.841   3.335   2.163  0.0531 -0.1048  0.0558
  138MOL0     C18561   8.920   2.943   2.271 -0.1930  0.1841 -0.4341
  138MOL0     C18562   8.828   2.843   2.249 -0.6159 -0.0789 -0.1131
  138MOL0     H18563   8.399   2.733   2.161  1.0857 -0.4956  0.3463
  138MOL0     H18564   8.164   2.663   2.107  0.3718  0.7462 -0.6478
  138MOL0     H18565   8.031   2.298   2.112  2.2362  4.4055 -2.0717
  138MOL0     H18566   8.131   2.284   2.246  0.8459  0.3116 -2.1690
  138MOL0     H18567   7.941   2.170   2.310 -2.3301  0.0280  3.0662
  138MOL0     H18568   7.906   2.318   2.392  2.1091 -0.4367  0.3038
  138MOL0     H18569   7.795   2.371   2.149  0.5926  0.7780  0.5441
  138MOL0     H18570   7.782   2.198   2.136 -1.6622 -0.9156  1.6327
  138MOL0     H18571   7.674   2.195   2.376 -0.5823  2.2986  2.3460
  138MOL0     H18572   7.657   2.371   2.349  1.6641  1.5993 -2.5219
  138MOL0     H18573   7.455   2.254   2.283 -0.3335 -3.8162  0.0035
  138MOL0     H18574   7.538   2.306   2.128 -0.7474  0.2894  0.7033
  138MOL0     H18575   7.625   2.051   2.173  0.6394 -0.9420  1.4782
  138MOL0     H18576   7.491   2.045   2.286 -0.0243 -0.1735 -0.1691
  138MOL0     H18577   7.502   2.088   1.992  0.2447 -0.8072  0.3445
  138MOL0     H18578   7.430   1.946   2.074 -1.2824 -0.4327 -3.7896
  138MOL0     H18579   7.308   2.235   2.058 -1.9191  0.9020  3.9830
  138MOL0     H18580   7.276   2.153   2.192  1.2454 -1.8892 -0.0314
  138MOL0     H18581   7.279   2.048   1.821 -0.1243  0.3550 -1.1957
  138MOL0     H18582   6.970   1.969   1.688 -0.9954 -0.2159  1.7660
  138MOL0     H18583   7.140   1.900   1.670 -2.0349 -0.7490 -3.6354
  138MOL0     H18584   6.902   1.795   1.818 -0.2770 -0.0242  0.8899
  138MOL0     H18585   7.066   1.734   1.839  0.4897 -0.2806 -1.5659
  138MOL0     H18586   6.965   1.585   1.692 -0.2198 -0.2850 -1.1964
  138MOL0     H18587   7.073   1.680   1.589  0.3728  1.9041 -0.3688
  138MOL0     H18588   6.902   1.834   1.521  1.9063 -0.0199  1.9086
  138MOL0     H18589   6.780   1.732   1.615  1.2234 -0.8346  1.5385
  138MOL0     H18590   6.719   1.869   1.426  1.3745 -1.4266  1.2468
  138MOL0     H18591   6.517   1.970   1.150 -0.6260 -3.8368 -1.0195
  138MOL0     H18592   6.421   1.913   1.281  0.3970 -1.7753 -2.4163
  138MOL0     H18593   6.576   2.010   1.320  1.5116 -0.4541  1.0756
  138MOL0     H18594   6.292   1.468   1.002  0.2359  2.4372  1.6839
  138MOL0     H18595   6.062   1.442   0.889 -1.3435  1.0438 -1.9579
  138MOL0     H18596   5.923   1.816   0.712 -0.7137  0.7393  0.8655
  138MOL0     H18597   5.907   1.704   0.580  1.7715 -0.5176  0.2308
  138MOL0     H18598   5.691   1.742   0.793 -1.1378  3.4982 -0.5192
  138MOL0     H18599   5.674   1.797   0.631 -0.3017  0.8829  0.4670
  138MOL0     H18600   5.719   1.494   0.693 -0.3473 -1.0766  0.2054
  138MOL0     H18601   5.694   1.570   0.532  0.9367 -2.3128  0.6480
  138MOL0     H18602   5.498   1.587   0.764  2.1373 -1.6860  0.3427
  138MOL0     H18603   5.476   1.643   0.597  0.8656  1.1948  0.7131
  138MOL0     H18604   5.512   1.352   0.688 -0.4108  2.3540  1.8232
  138MOL0     H18605   5.486   1.399   0.516  0.6258 -1.7423  0.1168
  138MOL0     H18606   5.277   1.406   0.748 -0.7772  1.0164  0.1781
  138MOL0     H18607   5.267   1.501   0.596 -0.7060 -0.9377  0.4699
  138MOL0     H18608   5.283   1.190   0.624  1.2912  0.1974  0.8079
  138MOL0     H18609   5.302   1.268   0.472  0.5318  3.3175  0.0136
  138MOL0     H18610   5.081   1.361   0.476 -2.1737  2.4050  1.0972
  138MOL0     H18611   5.066   1.342   0.642 -2.4663  3.6680 -3.6390
  138MOL0     H18612   6.125   1.808   0.685 -0.5504 -0.5018  0.1213
  138MOL0     H18613   6.343   1.823   0.783 -0.8505  1.7253  2.1698
  138MOL0     H18614   6.632   1.504   1.098 -1.0558  0.8056  1.6529
  138MOL0     H18615   6.806   1.487   1.280 -1.6669 -0.9106  1.3784
  138MOL0     H18616   8.150   2.426   2.451 -1.8794  1.8906  0.4511
  138MOL0     H18617   8.365   2.520   2.538 -0.0702  1.1475  0.3569
  138MOL0     H18618   8.675   2.846   2.549  1.4396  1.6701  2.4268
  138MOL0     H18619   8.852   3.013   2.598  3.5614 -1.8063  0.8269
  138MOL0     H18620   9.207   3.043   2.329 -0.2597  0.0870 -0.4369
  138MOL0     H18621   9.096   3.137   2.226  1.1967 -0.0814  0.0343
  138MOL0     H18622   9.312   3.256   2.346  1.2268 -4.5154  2.7949
  138MOL0     H18623   9.238   3.246   2.489  1.7487  2.5444  0.5711
  138MOL0     H18624   9.217   3.459   2.387 -1.5994  1.8813  0.3853
  138MOL0     H18625   9.052   3.401   2.423  0.4629 -1.1193  0.2123
  138MOL0     H18626   9.176   3.340   2.150  1.7008  1.9332 -1.2362
  138MOL0     H18627   9.122   3.501   2.181  1.6010 -0.5054  0.0661
  138MOL0     H18628   8.735   3.317   2.159 -0.4344  2.2153  1.1123
  138MOL0     H18629   8.977   2.971   2.183  0.1191  1.6694  0.2092
  138MOL0     H18630   8.832   2.799   2.149 -0.6417  0.9132 -0.5662
  139MOL0     O18631   6.600   7.450   5.046 -0.5075 -0.1648 -0.2684
  139MOL0     C18632   6.646   7.338   5.035 -0.3901  0.8066 -0.7858
  139MOL0     O18633   6.568   7.219   5.052 -0.2742  1.1807  0.4364
  139MOL0     C18634   6.439   7.233   5.088  0.2794  0.1154 -0.4212
  139MOL0     C18635   6.340   7.237   4.986  0.4263  0.0930 -0.0586
  139MOL0     C18636   6.209   7.234   5.016  0.3867 -0.4608 -1.1643
  139MOL0     C18637   6.165   7.258   5.148 -1.0081 -0.3121 -0.8915
  139MOL0     O18638   6.032   7.269   5.164  0.7635 -0.1042 -0.9887
  139MOL0     C18639   5.986   7.255   5.308 -0.2791  0.0519  0.1993
  139MOL0     C18640   5.834   7.241   5.314  0.9240 -0.0930  0.2830
  139MOL0     C18641   5.773   7.364   5.384 -0.3542 -0.2447  0.6122
  139MOL0     C18642   5.789   7.477   5.283  0.1543  0.2385  0.1212
  139MOL0     C18643   5.686   7.591   5.288 -0.2630 -0.2025 -0.2722
  139MOL0     C18644   5.697   7.672   5.421  0.0234 -0.1928  0.2937
  139MOL0     C18645   5.622   7.805   5.397  0.3059 -0.0414  0.6061
  139MOL0     C18646   5.638   7.897   5.509 -0.0087  0.6027 -0.1068
  139MOL0     N18647   5.600   8.026   5.466  0.5696  1.0269  0.1239
  139MOL0     C18648   5.684   8.134   5.431  0.4591  0.8734  0.1930
  139MOL0     C18649   5.597   8.232   5.389 -0.2591 -0.8097 -0.3930
  139MOL0     C18650   5.632   8.372   5.345  0.6262 -0.3716  1.0676
  139MOL0     C18651   5.530   8.468   5.400 -0.4141 -0.0881 -0.0130
  139MOL0     C18652   5.549   8.488   5.548 -0.9945 -0.0590 -0.4759
  139MOL0     C18653   5.426   8.559   5.605 -0.1672  0.5799 -0.2404
  139MOL0     O18654   5.373   8.662   5.508  0.0104  0.4527  0.3597
  139MOL0     C18655   5.238   8.682   5.529  0.2110  0.5619  0.1676
  139MOL0     C18656   5.149   8.607   5.456 -0.2099 -0.4414 -0.7759
  139MOL0     C18657   5.013   8.597   5.484 -0.5991  0.3888  1.1329
  139MOL0     C18658   4.925   8.499   5.407 -0.1974  0.0297  0.1015
  139MOL0     C18659   4.963   8.679   5.591 -0.2205  0.8532 -0.3406
  139MOL0     C18660   4.820   8.661   5.648 -0.5505 -0.6397 -0.7483
  139MOL0     O18661   4.769   8.760   5.727 -0.3549 -0.0533  0.6065
  139MOL0     C18662   4.633   8.753   5.757  0.1159  0.7533 -0.8124
  139MOL0     C18663   4.544   8.799   5.671 -0.3348 -0.4875 -0.4183
  139MOL0     C18664   4.405   8.809   5.705  0.2587  0.2955  1.0518
  139MOL0     C18665   4.352   8.740   5.808 -0.2858  0.7838  0.4089
  139MOL0     O18666   4.222   8.729   5.810  0.1514 -0.1817  0.0217
  139MOL0     C18667   4.151   8.681   5.929  0.9895 -0.2139  0.1048
  139MOL0     C18668   3.997   8.676   5.909 -0.5327 -1.5824  0.3255
  139MOL0     C18669   3.945   8.815   5.855  0.3200 -0.2556 -0.2482
  139MOL0     C18670   3.798   8.815   5.814  0.2787 -0.5203 -0.7013
  139MOL0     C18671   3.733   8.950   5.796 -1.1225  0.2896  0.7827
  139MOL0     C18672   3.776   9.051   5.902  0.2733  0.0318  0.3109
  139MOL0     C18673   3.691   9.179   5.889  0.6619 -0.3596 -0.1908
  139MOL0     C18674   3.685   9.249   5.753  0.2672  0.0416  0.5003
  139MOL0    Cl18675   3.548   9.366   5.744 -0.1310  0.2399  0.3008
  139MOL0     C18676   4.440   8.681   5.903  0.2728  0.0088  0.3721
  139MOL0     C18677   4.582   8.693   5.877 -0.1017  1.0478 -0.6964
  139MOL0     O18678   4.763   8.554   5.628 -1.1113 -0.0519  0.7221
  139MOL0     C18679   5.055   8.762   5.660  0.3251 -1.0397 -0.0288
  139MOL0     C18680   5.196   8.759   5.635  0.4835 -0.3838  0.3323
  139MOL0     N18681   5.468   8.176   5.388  0.1625  0.0038 -1.0667
  139MOL0     N18682   5.466   8.052   5.438  0.1004 -0.1280 -0.4951
  139MOL0     C18683   6.266   7.283   5.246  0.5559 -0.5501 -0.4607
  139MOL0     C18684   6.398   7.259   5.218  0.2409 -0.7765 -0.4501
  139MOL0     C18685   6.788   7.323   4.995  0.5793  0.6603  0.4376
  139MOL0     C18686   6.840   7.193   4.965  0.7556  0.6582 -0.4629
  139MOL0     C18687   6.972   7.170   4.931  0.3390 -0.7802 -0.6203
  139MOL0     C18688   7.056   7.279   4.944  0.1260 -1.2259 -0.1960
  139MOL0     O18689   7.188   7.272   4.914  0.0429 -0.1344  0.1479
  139MOL0     C18690   7.243   7.158   4.841  0.0376  0.3713 -0.1222
  139MOL0     C18691   7.374   7.215   4.781  0.7368 -0.1857  0.5688
  139MOL0     C18692   7.454   7.124   4.691  0.3627  0.1275 -0.5040
  139MOL0     C18693   7.549   7.201   4.604 -0.0961  0.5645  0.0101
  139MOL0     C18694   7.623   7.107   4.518  0.4318  0.0897 -0.4483
  139MOL0     C18695   7.696   7.024   4.459  0.3702  0.1287 -1.2717
  139MOL0     C18696   7.011   7.407   4.988  0.4906  0.6003 -0.7739
  139MOL0     C18697   6.876   7.426   5.013  0.4317  0.5899  1.5499
  139MOL0     H18698   6.363   7.231   4.880 -1.5714  3.0197 -0.7622
  139MOL0     H18699   6.136   7.202   4.942 -2.7947 -0.3087  1.6598
  139MOL0     H18700   6.039   7.172   5.355  1.1620 -0.2890 -1.8660
  139MOL0     H18701   6.016   7.344   5.365 -1.0298  0.1380  0.4735
  139MOL0     H18702   5.802   7.233   5.210 -0.5409  1.1571  0.5877
  139MOL0     H18703   5.804   7.145   5.359 -0.8640 -0.0855 -0.7789
  139MOL0     H18704   5.665   7.347   5.389 -0.4551 -1.6066 -3.0498
  139MOL0     H18705   5.830   7.388   5.474  1.6592 -2.7090  0.1124
  139MOL0     H18706   5.887   7.520   5.307 -0.7348  1.2309  2.2134
  139MOL0     H18707   5.796   7.445   5.178 -1.3007  0.6372 -0.1134
  139MOL0     H18708   5.692   7.656   5.200 -0.3633 -0.5622 -0.5497
  139MOL0     H18709   5.587   7.547   5.271 -0.2153  0.5360 -2.8204
  139MOL0     H18710   5.667   7.610   5.506  0.8082  0.7800  1.3142
  139MOL0     H18711   5.801   7.706   5.426 -0.2901  0.7945  0.3916
  139MOL0     H18712   5.671   7.852   5.311  1.9735 -1.6385  0.6250
  139MOL0     H18713   5.515   7.792   5.379  0.4128  0.8120 -0.8253
  139MOL0     H18714   5.743   7.901   5.539  0.6285 -0.9567 -1.9344
  139MOL0     H18715   5.574   7.860   5.589 -0.8320  2.0595 -0.0608
  139MOL0     H18716   5.791   8.139   5.450  0.9687 -1.5176 -1.6565
  139MOL0     H18717   5.734   8.393   5.379  0.3132  0.2575  1.6310
  139MOL0     H18718   5.652   8.379   5.238  1.9592  1.3869  1.3793
  139MOL0     H18719   5.426   8.443   5.377 -0.1510  0.6261 -2.2521
  139MOL0     H18720   5.546   8.566   5.354  0.4650 -0.3121 -0.1956
  139MOL0     H18721   5.624   8.563   5.570 -2.3983  0.7442  1.8859
  139MOL0     H18722   5.565   8.393   5.601  0.9707  0.5875  0.1761
  139MOL0     H18723   5.444   8.605   5.703  0.8956 -2.5703  1.1817
  139MOL0     H18724   5.351   8.479   5.611 -1.3191  1.5756 -1.0326
  139MOL0     H18725   5.191   8.550   5.374  1.3704  2.4359 -2.1055
  139MOL0     H18726   4.920   8.405   5.463  4.1990 -2.0817 -2.4395
  139MOL0     H18727   4.827   8.542   5.389 -0.1441 -0.7642 -2.6630
  139MOL0     H18728   4.974   8.459   5.317 -0.7034 -1.7753  0.5795
  139MOL0     H18729   4.590   8.843   5.583  2.7523 -0.6709  0.9933
  139MOL0     H18730   4.334   8.864   5.643  0.9290  1.4648  1.2743
  139MOL0     H18731   4.197   8.586   5.958  2.8996  0.9510  1.1513
  139MOL0     H18732   4.166   8.737   6.021 -1.7281 -0.4372  0.7470
  139MOL0     H18733   3.978   8.594   5.838 -0.3903 -0.3249 -1.2385
  139MOL0     H18734   3.939   8.651   5.998 -0.3368  0.7994  1.1942
  139MOL0     H18735   3.996   8.855   5.767  0.6804 -1.8241 -0.7937
  139MOL0     H18736   3.954   8.878   5.945 -0.3509 -1.6554  0.8391
  139MOL0     H18737   3.792   8.758   5.721  3.9990  0.2578 -1.5737
  139MOL0     H18738   3.739   8.771   5.895  2.1558 -2.1290 -0.1410
  139MOL0     H18739   3.623   8.945   5.793 -1.1061 -4.7639 -0.4719
  139MOL0     H18740   3.762   8.981   5.695  0.6524 -2.0370  0.4987
  139MOL0     H18741   3.764   9.002   5.999  1.4392 -1.2746 -0.1663
  139MOL0     H18742   3.880   9.075   5.879 -0.0819  1.3522  0.0105
  139MOL0     H18743   3.745   9.254   5.947  2.7338 -1.3182 -0.8047
  139MOL0     H18744   3.592   9.175   5.936 -0.2125 -1.3085 -1.9574
  139MOL0     H18745   3.667   9.171   5.679 -1.1922  0.8972 -0.0701
  139MOL0     H18746   3.779   9.302   5.733 -0.2480  0.3914 -1.1556
  139MOL0     H18747   4.405   8.632   5.994 -0.6053 -1.3806 -0.6782
  139MOL0     H18748   4.646   8.645   5.951  1.1289  1.4264 -1.4839
  139MOL0     H18749   5.019   8.805   5.754 -0.6640 -0.5353 -0.6222
  139MOL0     H18750   5.268   8.815   5.695  1.8091 -0.4394 -1.1538
  139MOL0     H18751   6.246   7.313   5.348  4.2623  2.6916 -0.4288
  139MOL0     H18752   6.473   7.262   5.297 -0.1804 -0.2096 -0.0620
  139MOL0     H18753   6.789   7.097   4.971  3.1869 -0.6359  0.9418
  139MOL0     H18754   7.016   7.073   4.908  2.5819  0.4545 -1.8432
  139MOL0     H18755   7.278   7.084   4.913 -1.7434 -1.1427 -0.7310
  139MOL0     H18756   7.179   7.119   4.761  0.1687 -1.0339  0.4355
  139MOL0     H18757   7.440   7.258   4.857  0.8844 -0.0600  0.3695
  139MOL0     H18758   7.341   7.299   4.719 -2.2697 -2.1929 -0.7721
  139MOL0     H18759   7.386   7.060   4.633 -1.3901  0.5855  0.9278
  139MOL0     H18760   7.519   7.054   4.744 -0.7831 -2.1929 -1.9641
  139MOL0     H18761   7.615   7.260   4.669 -0.2068 -0.3795  0.9976
  139MOL0     H18762   7.499   7.265   4.530 -0.4219 -0.2250 -0.4607
  139MOL0     H18763   7.769   6.952   4.428  0.7930  0.6415 -1.4763
  139MOL0     H18764   7.083   7.488   4.987 -0.1681  1.2445  0.7471
  139MOL0     H18765   6.837   7.520   5.053  1.7877  1.2698  1.3481
  140MOL0     O18766  10.616   9.249   9.003 -0.2492 -0.3299 -0.6489
  140MOL0     C18767  10.671   9.180   8.919 -0.4094 -0.2063 -0.2082
  140MOL0     O18768  10.608   9.106   8.833  0.1692 -0.3299 -0.7348
  140MOL0     C18769  10.472   9.105   8.816  0.4001  0.1699 -0.4814
  140MOL0     C18770  10.402   8.990   8.851 -1.1792 -0.0586 -0.8752
  140MOL0     C18771  10.268   8.985   8.827  0.4105 -0.5940 -0.1559
  140MOL0     C18772  10.199   9.085   8.763  0.7260 -0.6487 -0.4293
  140MOL0     O18773  10.061   9.087   8.760  0.1232 -0.5366  0.5826
  140MOL0     C18774   9.982   8.975   8.811 -0.5977  0.7673  0.3352
  140MOL0     C18775   9.851   9.037   8.858  0.2459  0.4062  0.0334
  140MOL0     C18776   9.743   8.934   8.859  0.2128  0.4308  0.6344
  140MOL0     C18777   9.618   8.992   8.920  0.9750  0.3840  0.3556
  140MOL0     C18778   9.496   8.898   8.937  0.3804 -0.0771 -1.1632
  140MOL0     C18779   9.433   8.838   8.812 -0.6361 -0.2332 -0.1974
  140MOL0     C18780   9.320   8.743   8.844 -0.2788  0.6362  1.0007
  140MOL0     C18781   9.316   8.628   8.743  0.1630 -0.2697 -0.6873
  140MOL0     N18782   9.427   8.533   8.766  0.0400 -0.7691 -0.4173
  140MOL0     C18783   9.444   8.450   8.879  0.4352 -0.1103 -0.0963
  140MOL0     C18784   9.562   8.387   8.859 -0.1664  1.1830  0.8589
  140MOL0     C18785   9.629   8.277   8.943 -0.5685 -0.9848 -0.0759
  140MOL0     C18786   9.547   8.257   9.072 -0.0304 -0.6023 -0.6717
  140MOL0     C18787   9.593   8.143   9.156  0.1556  0.1954 -0.9581
  140MOL0     C18788   9.495   8.112   9.268  0.3469 -0.6156 -0.7127
  140MOL0     O18789   9.374   8.075   9.213  0.2720  0.2400 -0.2083
  140MOL0     C18790   9.272   8.049   9.303 -0.2260  0.0922  0.2703
  140MOL0     C18791   9.151   8.039   9.246 -0.7901 -0.1127  0.3987
  140MOL0     C18792   9.036   8.001   9.308  0.3712 -0.7148 -0.1824
  140MOL0     C18793   8.907   8.000   9.226 -0.0373  0.1626 -0.5881
  140MOL0     C18794   9.038   7.976   9.447  0.0863  0.8727  0.0384
  140MOL0     C18795   8.914   7.932   9.526  0.2742 -1.2232  0.1518
  140MOL0     O18796   8.931   7.940   9.663  1.1195 -0.4287 -0.4418
  140MOL0     C18797   8.861   7.854   9.744  0.2490  1.3925 -0.3369
  140MOL0     C18798   8.731   7.877   9.783  0.0051  0.7710  0.5250
  140MOL0     C18799   8.657   7.789   9.863 -0.9003  0.1743  0.1830
  140MOL0     C18800   8.703   7.659   9.881 -0.5373 -0.3458 -0.8311
  140MOL0     O18801   8.624   7.578   9.959 -0.7948  0.1124 -0.7709
  140MOL0     C18802   8.657   7.442   9.998 -0.6149  0.8750  0.7282
  140MOL0     C18803   8.766   7.435  10.105  0.0954 -0.2181 -0.4370
  140MOL0     C18804   8.718   7.497  10.233  0.0014  0.7674 -0.4422
  140MOL0     C18805   8.599   7.414  10.298 -0.6550 -0.0349  0.9916
  140MOL0     C18806   8.523   7.486  10.407 -1.2086 -0.0687 -0.8574
  140MOL0     C18807   8.451   7.389  10.497  0.6171 -0.2351 -0.4549
  140MOL0     C18808   8.353   7.443  10.598 -0.9410 -0.9137 -0.3828
  140MOL0     C18809   8.286   7.342  10.679 -0.6142  0.4167 -0.5373
  140MOL0    Cl18810   8.399   7.228  10.770  0.0395 -0.1344  0.2173
  140MOL0     C18811   8.837   7.625   9.845  0.1546 -0.6013 -0.3018
  140MOL0     C18812   8.909   7.722   9.779 -0.2222 -0.3089  0.1509
  140MOL0     O18813   8.805   7.909   9.473 -0.1070 -0.6267  0.4334
  140MOL0     C18814   9.158   7.997   9.507 -0.3188 -0.5948 -1.1487
  140MOL0     C18815   9.278   8.035   9.440 -0.5086  0.4729 -0.6421
  140MOL0     N18816   9.601   8.426   8.735  0.1136 -0.0652  0.7195
  140MOL0     N18817   9.529   8.516   8.683 -0.0705 -0.6374 -0.2162
  140MOL0     C18818  10.262   9.190   8.713 -0.0560  0.2225 -0.6409
  140MOL0     C18819  10.398   9.196   8.745 -0.0229  0.0912  0.0740
  140MOL0     C18820  10.820   9.172   8.920 -0.6279  0.1268  0.1519
  140MOL0     C18821  10.901   9.248   9.008 -0.3848 -0.3950 -0.5626
  140MOL0     C18822  11.035   9.221   9.017 -0.2092 -0.1357  0.3888
  140MOL0     C18823  11.104   9.130   8.930  0.9875  0.4407 -0.5020
  140MOL0     O18824  11.235   9.124   8.952 -0.8327 -0.1361 -0.7443
  140MOL0     C18825  11.323   9.045   8.876  0.8980 -0.4505  0.3151
  140MOL0     C18826  11.455   9.022   8.953  1.0370  0.4459 -0.4177
  140MOL0     C18827  11.543   8.936   8.871  0.0397 -0.6302 -0.7706
  140MOL0     C18828  11.674   8.902   8.948 -0.3991  0.2112  0.2303
  140MOL0     C18829  11.738   8.775   8.912  0.1695 -0.2029 -0.1268
  140MOL0     C18830  11.791   8.669   8.887 -0.1868 -0.1515 -0.2453
  140MOL0     C18831  11.026   9.056   8.849 -0.3238 -0.2410  0.2394
  140MOL0     C18832  10.884   9.069   8.842 -0.3299  0.0728  0.1779
  140MOL0     H18833  10.454   8.910   8.903 -1.5388 -2.0555 -3.3810
  140MOL0     H18834  10.226   8.896   8.873  0.1945 -1.6342 -2.2285
  140MOL0     H18835   9.977   8.911   8.723  0.8795  0.1690  0.6548
  140MOL0     H18836  10.027   8.919   8.894 -1.2008  1.2513  1.0051
  140MOL0     H18837   9.867   9.074   8.960  0.6703  0.9006 -0.2095
  140MOL0     H18838   9.808   9.113   8.793 -1.8111 -1.7685 -1.2923
  140MOL0     H18839   9.726   8.900   8.757 -2.7408  2.6236  0.2365
  140MOL0     H18840   9.770   8.843   8.913  0.4699 -0.4691 -0.9644
  140MOL0     H18841   9.641   9.036   9.017 -1.2385  3.8395 -0.5408
  140MOL0     H18842   9.588   9.082   8.867 -0.9693 -1.8612 -2.7398
  140MOL0     H18843   9.523   8.816   9.004  0.7633  1.6014  0.8666
  140MOL0     H18844   9.421   8.954   8.995 -0.2548 -1.1953 -0.8663
  140MOL0     H18845   9.407   8.912   8.736  2.6792  1.3767  0.0478
  140MOL0     H18846   9.519   8.784   8.772  2.3392 -0.7536  5.7031
  140MOL0     H18847   9.329   8.696   8.942 -1.9601  0.1069  0.9361
  140MOL0     H18848   9.235   8.811   8.850  0.4303  1.9148 -1.8001
  140MOL0     H18849   9.323   8.656   8.637  1.3945 -2.2479 -1.1851
  140MOL0     H18850   9.216   8.588   8.766 -0.7397  2.9739  1.8590
  140MOL0     H18851   9.387   8.435   8.970 -0.9646 -0.3251 -0.9742
  140MOL0     H18852   9.635   8.183   8.887  1.7782 -0.5812 -0.5846
  140MOL0     H18853   9.732   8.312   8.950 -0.2526 -2.0719  0.8428
  140MOL0     H18854   9.442   8.242   9.043 -0.0248 -2.0038 -0.0099
  140MOL0     H18855   9.556   8.353   9.124 -2.1666  0.6990 -2.4519
  140MOL0     H18856   9.689   8.170   9.201 -1.2614  2.5782  0.9209
  140MOL0     H18857   9.607   8.053   9.096  2.8536  1.3898 -2.2590
  140MOL0     H18858   9.486   8.196   9.338 -1.5918 -2.8611  1.9641
  140MOL0     H18859   9.538   8.030   9.326  2.3707  1.2268  0.5790
  140MOL0     H18860   9.158   8.042   9.138  1.2368 -1.1857  0.4364
  140MOL0     H18861   8.933   8.062   9.140  2.4296  1.8967  1.2656
  140MOL0     H18862   8.875   7.901   9.191 -0.1100  0.3421 -1.0370
  140MOL0     H18863   8.819   8.038   9.279 -1.5079 -1.8993 -1.3814
  140MOL0     H18864   8.682   7.965   9.742 -1.6478 -1.1308 -1.8516
  140MOL0     H18865   8.564   7.819   9.909  0.7002 -1.6813  5.3431
  140MOL0     H18866   8.561   7.395  10.024 -0.9870  1.1811 -0.0595
  140MOL0     H18867   8.695   7.396   9.906  1.7799 -1.9354  2.9574
  140MOL0     H18868   8.793   7.330  10.123  0.0670  0.2004  2.4622
  140MOL0     H18869   8.860   7.484  10.079 -0.1820  0.8576  0.5224
  140MOL0     H18870   8.678   7.598  10.224 -1.3128  0.6186  2.5745
  140MOL0     H18871   8.810   7.502  10.292 -0.4227  0.2798  0.2951
  140MOL0     H18872   8.523   7.389  10.224 -0.5149  0.0949  0.8025
  140MOL0     H18873   8.633   7.318  10.338  1.1340  0.5496  0.9503
  140MOL0     H18874   8.472   7.573  10.363  1.8683  2.0838 -0.5095
  140MOL0     H18875   8.595   7.530  10.477 -1.3832 -1.6746  0.3633
  140MOL0     H18876   8.399   7.329  10.422 -0.0706 -0.7163  0.3824
  140MOL0     H18877   8.519   7.326  10.554  2.4548  1.7523 -0.3222
  140MOL0     H18878   8.275   7.497  10.545 -0.8912 -1.6210 -1.2007
  140MOL0     H18879   8.405   7.513  10.664  0.6885 -0.7840 -1.7395
  140MOL0     H18880   8.232   7.288  10.602  2.8644 -0.2977 -2.7089
  140MOL0     H18881   8.208   7.382  10.744 -0.1142  0.1215  0.2645
  140MOL0     H18882   8.877   7.525   9.854  6.3790  1.3002 -1.8158
  140MOL0     H18883   9.007   7.703   9.735  0.7290  2.3772  0.8831
  140MOL0     H18884   9.167   7.965   9.611  1.5700  1.9517 -0.4390
  140MOL0     H18885   9.369   8.019   9.497 -0.6255 -0.4971 -0.7079
  140MOL0     H18886  10.221   9.264   8.645  1.0563 -1.0445 -2.8171
  140MOL0     H18887  10.456   9.276   8.701 -0.5317 -0.6098 -2.0111
  140MOL0     H18888  10.856   9.326   9.069 -0.9856 -0.8532 -0.4115
  140MOL0     H18889  11.087   9.280   9.091 -0.2423  2.0424 -1.2284
  140MOL0     H18890  11.280   8.945   8.864  0.2499 -0.2551  0.9235
  140MOL0     H18891  11.338   9.092   8.779 -1.9602  0.6111  0.3066
  140MOL0     H18892  11.439   8.978   9.052  0.2799  0.8212 -0.3606
  140MOL0     H18893  11.504   9.118   8.969  2.6057 -0.6046  1.5123
  140MOL0     H18894  11.567   8.994   8.781 -2.5503  3.5879  0.9970
  140MOL0     H18895  11.493   8.840   8.855 -2.6119  0.7777 -1.3795
  140MOL0     H18896  11.643   8.896   9.053 -0.8494  1.7561  0.2102
  140MOL0     H18897  11.741   8.988   8.953  1.6924 -1.2338 -1.2952
  140MOL0     H18898  11.828   8.571   8.864  2.8647  1.3702 -2.6339
  140MOL0     H18899  11.079   8.992   8.779 -1.8353  2.3397 -3.6342
  140MOL0     H18900  10.829   8.989   8.794  0.7719 -0.9099  0.4785
  141MOL0     O18901   9.884   4.977   3.424  0.8086 -0.1174 -0.3629
  141MOL0     C18902   9.863   4.955   3.308 -0.5660  0.2374 -0.1196
  141MOL0     O18903   9.936   5.016   3.208 -0.1206  0.4265 -0.6500
  141MOL0     C18904  10.050   5.089   3.247  0.2879  0.2361  0.3876
  141MOL0     C18905  10.051   5.188   3.348  0.4565  1.0283 -0.4170
  141MOL0     C18906  10.165   5.250   3.391  0.4826  0.2188 -0.0456
  141MOL0     C18907  10.286   5.226   3.321 -0.9844  0.1213 -0.8182
  141MOL0     O18908  10.403   5.297   3.334 -0.0272 -0.5300 -0.4346
  141MOL0     C18909  10.429   5.367   3.453 -0.0984 -0.0156  0.3477
  141MOL0     C18910  10.557   5.432   3.463 -0.3462 -0.1361  0.5685
  141MOL0     C18911  10.681   5.341   3.433 -0.0937  0.3704  0.7228
  141MOL0     C18912  10.806   5.429   3.407  0.0157 -0.4124 -0.3665
  141MOL0     C18913  10.942   5.361   3.389  0.7238  0.7321 -0.3940
  141MOL0     C18914  10.974   5.285   3.523 -0.2262 -0.4704  0.1789
  141MOL0     C18915  11.102   5.189   3.506  0.7691 -1.0035 -0.0398
  141MOL0     C18916  11.059   5.066   3.418 -0.1421 -0.2130 -0.3666
  141MOL0     N18917  11.180   5.009   3.349  0.8612 -0.6853 -0.3333
  141MOL0     C18918  11.302   4.982   3.406  0.1894 -0.2389 -0.6848
  141MOL0     C18919  11.394   4.963   3.308 -0.4652  1.2975  0.0369
  141MOL0     C18920  11.543   4.954   3.331 -0.6702 -0.3503  0.4639
  141MOL0     C18921  11.620   4.867   3.231  0.1135  0.3665  0.2569
  141MOL0     C18922  11.550   4.732   3.198  0.0820 -0.2035  0.5372
  141MOL0     C18923  11.508   4.638   3.314  0.4025 -0.6453 -0.3884
  141MOL0     O18924  11.385   4.677   3.374 -0.8410 -1.0714 -0.8570
  141MOL0     C18925  11.270   4.622   3.312  0.0786  0.2711 -0.3330
  141MOL0     C18926  11.246   4.563   3.195 -0.1158  1.0291  0.0901
  141MOL0     C18927  11.118   4.497   3.170  0.8458  0.1487  0.6145
  141MOL0     C18928  11.091   4.456   3.028  0.2439 -0.0166 -0.1180
  141MOL0     C18929  11.014   4.487   3.268 -0.4182 -0.3361 -0.1305
  141MOL0     C18930  10.888   4.417   3.245  0.0601  0.0114  0.1292
  141MOL0     O18931  10.787   4.452   3.330  0.2544 -0.3048 -0.1308
  141MOL0     C18932  10.668   4.386   3.319 -1.0043  0.2850 -1.0961
  141MOL0     C18933  10.606   4.345   3.437  0.5888 -1.0345  0.3625
  141MOL0     C18934  10.472   4.294   3.430 -0.4982  0.9094  0.6439
  141MOL0     C18935  10.407   4.289   3.310  0.8629  0.3595 -0.2187
  141MOL0     O18936  10.280   4.228   3.315 -0.1368 -0.4410  0.1362
  141MOL0     C18937  10.245   4.154   3.199 -0.3401  0.0287  0.1325
  141MOL0     C18938  10.323   4.012   3.194  0.3668  0.4961 -0.6942
  141MOL0     C18939  10.282   3.916   3.311  0.5845  0.2892  0.4423
  141MOL0     C18940  10.396   3.810   3.313 -0.3904  0.2378 -0.4779
  141MOL0     C18941  10.382   3.711   3.431 -0.0306 -0.7123 -0.0533
  141MOL0     C18942  10.434   3.571   3.394 -1.1179 -0.4400 -0.3276
  141MOL0     C18943  10.401   3.466   3.503  0.8077 -0.8450  0.2378
  141MOL0     C18944  10.412   3.323   3.453 -0.0178 -0.1551 -0.2148
  141MOL0    Cl18945  10.533   3.294   3.329  0.3840  0.2603  0.3934
  141MOL0     C18946  10.470   4.337   3.201 -0.3856  0.0972 -0.8389
  141MOL0     C18947  10.600   4.386   3.200  0.9001 -0.0146  0.3342
  141MOL0     O18948  10.882   4.325   3.158 -0.0732  1.0889  0.2149
  141MOL0     C18949  11.044   4.551   3.390  0.1739 -0.5264 -0.1892
  141MOL0     C18950  11.169   4.614   3.408  0.0656  0.6845  0.0305
  141MOL0     N18951  11.321   4.985   3.191 -0.8958  0.1004 -0.1690
  141MOL0     N18952  11.206   5.018   3.225  0.0580 -0.4419  0.9502
  141MOL0     C18953  10.286   5.125   3.214 -0.2651  0.4301 -0.6865
  141MOL0     C18954  10.170   5.063   3.184  0.6650 -0.4624 -0.5012
  141MOL0     C18955   9.756   4.863   3.279  0.4561  0.3526  0.1879
  141MOL0     C18956   9.711   4.758   3.368 -0.2860 -0.7544  0.5133
  141MOL0     C18957   9.605   4.672   3.330 -0.4704  0.5706  0.1874
  141MOL0     C18958   9.535   4.691   3.213 -0.0328 -0.8392 -0.0435
  141MOL0     O18959   9.424   4.621   3.196  0.8046  0.3372 -0.1246
  141MOL0     C18960   9.299   4.686   3.236  0.3098 -0.4193 -0.4466
  141MOL0     C18961   9.213   4.583   3.326  0.1164 -0.7079  0.6598
  141MOL0     C18962   9.061   4.606   3.310  0.0228 -0.6206  0.2682
  141MOL0     C18963   8.993   4.537   3.432 -0.2582 -0.4227 -0.3675
  141MOL0     C18964   9.020   4.389   3.442 -0.6894 -1.3997  0.7604
  141MOL0     C18965   9.043   4.274   3.446  0.2544 -0.0626 -0.0763
  141MOL0     C18966   9.580   4.789   3.117  0.2592  0.6071  0.4098
  141MOL0     C18967   9.694   4.869   3.155  0.1674  0.2413  0.7613
  141MOL0     H18968   9.957   5.209   3.398 -1.4156 -2.7455 -1.9242
  141MOL0     H18969  10.162   5.319   3.475  1.7656  0.1848  0.0438
  141MOL0     H18970  10.361   5.449   3.477  2.0319  2.2080 -0.7359
  141MOL0     H18971  10.420   5.293   3.533  1.8392 -2.1266 -1.2483
  141MOL0     H18972  10.549   5.520   3.399 -1.3498  1.8279  3.2232
  141MOL0     H18973  10.565   5.472   3.564 -1.3298 -0.8683  0.9586
  141MOL0     H18974  10.689   5.267   3.513  1.9210 -0.3233 -0.0711
  141MOL0     H18975  10.681   5.290   3.336  1.3811  1.0331  0.3443
  141MOL0     H18976  10.791   5.503   3.329 -1.4579  1.6199  1.7015
  141MOL0     H18977  10.823   5.494   3.494  1.2314 -1.7206  0.4343
  141MOL0     H18978  10.939   5.291   3.305  1.6990  1.7157 -1.2877
  141MOL0     H18979  11.025   5.430   3.369  2.6283 -1.1633  0.5274
  141MOL0     H18980  10.999   5.355   3.604  1.8219 -1.0414  0.1118
  141MOL0     H18981  10.889   5.223   3.552 -0.6725 -0.9722 -2.0879
  141MOL0     H18982  11.193   5.236   3.468  1.1396  1.3449  3.3121
  141MOL0     H18983  11.117   5.148   3.607 -2.1429  0.7010  1.2204
  141MOL0     H18984  10.991   5.092   3.336  2.0579  0.6503 -2.0054
  141MOL0     H18985  11.013   4.987   3.478  2.5266  0.9852  3.6686
  141MOL0     H18986  11.308   4.979   3.515 -2.0670  1.4517 -0.4502
  141MOL0     H18987  11.589   5.053   3.325  2.1005 -1.5112  0.9909
  141MOL0     H18988  11.554   4.916   3.433  0.5506 -1.7288 -0.1452
  141MOL0     H18989  11.722   4.850   3.266  0.1329 -0.3004 -0.1089
  141MOL0     H18990  11.633   4.924   3.139 -0.3444 -0.7735 -0.5355
  141MOL0     H18991  11.618   4.680   3.129 -1.3247 -1.3932 -0.0065
  141MOL0     H18992  11.462   4.761   3.140 -0.1740 -0.0295  1.0093
  141MOL0     H18993  11.589   4.639   3.387  0.2863 -1.7200 -0.2365
  141MOL0     H18994  11.502   4.537   3.274  0.4034 -0.5147 -0.7311
  141MOL0     H18995  11.309   4.566   3.107 -2.7438  0.4172 -1.9559
  141MOL0     H18996  11.178   4.479   2.966 -0.1469 -2.2264 -1.5752
  141MOL0     H18997  11.067   4.352   3.006 -1.7436  0.5367 -0.7467
  141MOL0     H18998  11.011   4.516   2.985 -1.2540 -1.0005  1.1926
  141MOL0     H18999  10.652   4.325   3.533  0.9091  0.2916  0.5045
  141MOL0     H19000  10.419   4.253   3.515 -1.8207  3.0229  0.9168
  141MOL0     H19001  10.141   4.123   3.185  0.4145 -1.7551 -2.3057
  141MOL0     H19002  10.278   4.199   3.105  0.1883  0.1868  0.3906
  141MOL0     H19003  10.303   3.964   3.098  0.8621  0.6193 -0.8619
  141MOL0     H19004  10.431   4.026   3.199  0.6536 -1.6996  0.5267
  141MOL0     H19005  10.187   3.866   3.290 -0.0157  1.7284 -0.4472
  141MOL0     H19006  10.267   3.984   3.396 -2.6213  2.9986 -2.0011
  141MOL0     H19007  10.393   3.755   3.219 -0.5464 -0.3384 -0.1368
  141MOL0     H19008  10.497   3.854   3.307 -0.0458 -0.7098 -2.1619
  141MOL0     H19009  10.276   3.704   3.456 -0.0287 -0.5040  0.0181
  141MOL0     H19010  10.444   3.760   3.506  1.6047 -0.3302 -1.5773
  141MOL0     H19011  10.397   3.542   3.295 -0.4265  2.3515 -1.5157
  141MOL0     H19012  10.542   3.564   3.378 -1.4259 -2.3275 -1.8595
  141MOL0     H19013  10.303   3.487   3.547  0.0442  0.8201 -2.0517
  141MOL0     H19014  10.474   3.493   3.579  1.3140 -0.8923 -0.2262
  141MOL0     H19015  10.313   3.298   3.415  1.3059 -4.8580 -1.1770
  141MOL0     H19016  10.427   3.253   3.535  1.1286  0.6972  0.3418
  141MOL0     H19017  10.407   4.337   3.114 -1.4187  2.0160 -0.1461
  141MOL0     H19018  10.627   4.431   3.104 -2.0573 -0.9025 -1.0285
  141MOL0     H19019  10.971   4.564   3.469  0.0387 -0.4600 -0.3244
  141MOL0     H19020  11.197   4.668   3.498  1.1224  1.0819 -0.5218
  141MOL0     H19021  10.384   5.110   3.171 -0.1306 -1.8553  0.2679
  141MOL0     H19022  10.157   4.987   3.107  1.3203 -3.7118  2.3691
  141MOL0     H19023   9.757   4.745   3.466 -1.1379 -0.7006  0.9325
  141MOL0     H19024   9.571   4.601   3.406  0.5045  1.2074  1.2477
  141MOL0     H19025   9.298   4.780   3.291 -0.4048 -0.0264 -1.1092
  141MOL0     H19026   9.243   4.691   3.142 -0.6879 -0.8584  0.1044
  141MOL0     H19027   9.235   4.611   3.429  1.8700 -1.0420  0.4153
  141MOL0     H19028   9.252   4.481   3.314 -1.9299 -1.2972 -1.9018
  141MOL0     H19029   9.013   4.579   3.216 -0.6585 -1.5732  0.8768
  141MOL0     H19030   9.061   4.716   3.311  1.7756 -0.5954  0.3997
  141MOL0     H19031   8.887   4.563   3.434 -1.0764 -3.3710  1.3335
  141MOL0     H19032   9.025   4.588   3.523  1.1844  1.8008 -2.0248
  141MOL0     H19033   9.071   4.173   3.469 -0.1190  0.1092  1.2480
  141MOL0     H19034   9.524   4.811   3.027  2.5018  0.4614 -1.0989
  141MOL0     H19035   9.716   4.941   3.077  1.9198 -0.3640  0.6697
  142MOL0     O19036   9.459   4.636  10.647  0.4375 -0.3392 -0.7313
  142MOL0     C19037   9.527   4.539  10.664  0.3048 -0.4484 -0.2683
  142MOL0     O19038   9.490   4.419  10.724 -0.2307  0.8731  0.0875
  142MOL0     C19039   9.372   4.430  10.792 -0.4722  0.0938 -0.0815
  142MOL0     C19040   9.387   4.461  10.927 -0.6501 -0.0154 -0.1323
  142MOL0     C19041   9.261   4.478  10.993 -0.0786 -1.1897  0.5556
  142MOL0     C19042   9.136   4.458  10.930  0.1470  0.3345  0.3066
  142MOL0     O19043   9.021   4.482  11.011 -0.3524  0.6208 -0.3162
  142MOL0     C19044   8.982   4.358  11.072  0.7913 -0.1295  0.3377
  142MOL0     C19045   8.960   4.386  11.227 -0.2414  0.6463  0.2848
  142MOL0     C19046   8.813   4.432  11.231  1.1979  0.1036  0.7908
  142MOL0     C19047   8.733   4.311  11.277  0.4479 -0.1579 -0.3023
  142MOL0     C19048   8.592   4.362  11.309  0.1394  1.0063  0.7060
  142MOL0     C19049   8.501   4.244  11.342 -0.1689 -0.3037  0.1006
  142MOL0     C19050   8.355   4.295  11.350  0.1448  0.6784 -0.1787
  142MOL0     C19051   8.289   4.332  11.217  0.9290 -0.4929  0.7856
  142MOL0     N19052   8.146   4.344  11.238  0.9440  0.2072  0.5031
  142MOL0     C19053   8.049   4.244  11.236  0.2820  0.7070 -0.4921
  142MOL0     C19054   7.939   4.295  11.298 -0.1505 -0.3888  0.3259
  142MOL0     C19055   7.814   4.227  11.350  0.1065  0.3401  0.5527
  142MOL0     C19056   7.753   4.120  11.244 -0.6348  0.2216 -0.4239
  142MOL0     C19057   7.706   4.188  11.113  0.9367  0.0595  0.1439
  142MOL0     C19058   7.611   4.102  11.019 -0.6563 -0.2166 -0.5525
  142MOL0     O19059   7.487   4.091  11.090  0.8121 -0.6836  0.8932
  142MOL0     C19060   7.367   4.048  11.024  0.2913  0.0046 -1.0339
  142MOL0     C19061   7.355   4.002  10.894 -1.0432  0.2589 -0.2766
  142MOL0     C19062   7.232   3.966  10.832  0.5329 -0.6106  0.0742
  142MOL0     C19063   7.223   3.935  10.683 -0.0931 -0.0414 -0.1994
  142MOL0     C19064   7.106   3.971  10.908 -0.2570  0.4557  0.7153
  142MOL0     C19065   6.974   3.942  10.850  0.0143 -0.1486  0.0348
  142MOL0     O19066   6.873   4.013  10.907  0.7703  0.1595 -0.5721
  142MOL0     C19067   6.748   3.968  10.876 -0.1373 -0.1757 -0.2192
  142MOL0     C19068   6.669   4.002  10.755  0.1908 -0.0619 -0.1988
  142MOL0     C19069   6.530   3.961  10.745  0.0442 -0.4141 -0.1307
  142MOL0     C19070   6.478   3.883  10.848  0.2177  1.0663  0.1100
  142MOL0     O19071   6.349   3.840  10.833 -0.0215 -0.1550 -0.3242
  142MOL0     C19072   6.284   3.754  10.930 -0.0447 -0.0439 -0.3374
  142MOL0     C19073   6.147   3.731  10.875  0.7665  1.1125 -0.2856
  142MOL0     C19074   6.150   3.615  10.768  0.8639  0.2274  0.0439
  142MOL0     C19075   5.996   3.584  10.748  0.2336  0.3264 -0.5546
  142MOL0     C19076   5.987   3.483  10.632  0.4761  0.2939  0.1117
  142MOL0     C19077   5.843   3.474  10.582  0.9139 -0.0935 -0.4548
  142MOL0     C19078   5.748   3.433  10.695  0.2398 -0.2348 -0.1353
  142MOL0     C19079   5.774   3.291  10.756  0.5959 -0.5364 -0.0367
  142MOL0    Cl19080   5.636   3.252  10.869 -0.5893  0.2417 -0.0034
  142MOL0     C19081   6.554   3.848  10.955  0.1208 -0.1638 -0.5508
  142MOL0     C19082   6.689   3.891  10.971  0.5800  0.1347  0.1088
  142MOL0     O19083   6.953   3.843  10.783 -0.2271 -0.5609 -0.3023
  142MOL0     C19084   7.119   4.023  11.036  0.1157  0.7790  0.0810
  142MOL0     C19085   7.242   4.058  11.090  0.8131  0.3646  0.0818
  142MOL0     N19086   7.973   4.421  11.327 -0.1715 -0.8399  0.1343
  142MOL0     N19087   8.088   4.459  11.286 -0.1797 -0.1310  0.5748
  142MOL0     C19088   9.127   4.439  10.793 -0.6017 -0.5652 -0.0755
  142MOL0     C19089   9.248   4.426  10.728  0.1913 -0.9344 -0.3984
  142MOL0     C19090   9.665   4.536  10.607  0.0587  0.4336  0.5413
  142MOL0     C19091   9.709   4.649  10.539  0.2740 -0.0335  1.7177
  142MOL0     C19092   9.837   4.648  10.474  0.0168  0.1454 -0.3870
  142MOL0     C19093   9.920   4.537  10.504 -0.1858 -0.3037  0.0353
  142MOL0     O19094  10.038   4.546  10.445 -0.3388 -0.3675  0.0379
  142MOL0     C19095  10.157   4.502  10.525 -0.1542 -0.0968  0.8661
  142MOL0     C19096  10.175   4.585  10.657  0.2226 -0.4335 -0.1575
  142MOL0     C19097  10.193   4.742  10.636 -0.1265 -0.5062  0.2675
  142MOL0     C19098  10.241   4.821  10.757  0.3572 -0.2313  0.2308
  142MOL0     C19099  10.143   4.807  10.859 -0.3568 -0.2798  0.0408
  142MOL0     C19100  10.067   4.789  10.949 -0.8219 -0.2076 -0.0192
  142MOL0     C19101   9.876   4.423  10.569 -0.1354  0.2958 -0.2127
  142MOL0     C19102   9.745   4.423  10.621 -0.7356  0.0153  0.6172
  142MOL0     H19103   9.490   4.472  10.958 -1.3749  2.0816  1.8341
  142MOL0     H19104   9.261   4.495  11.100 -0.5423  1.6684  0.1861
  142MOL0     H19105   8.893   4.335  11.013  0.2423  0.6789  0.8286
  142MOL0     H19106   9.061   4.284  11.059  0.1733 -0.5634 -1.1200
  142MOL0     H19107   8.969   4.283  11.263  0.6231  0.1070 -1.4014
  142MOL0     H19108   9.028   4.458  11.273 -1.4982  1.8773  0.2840
  142MOL0     H19109   8.809   4.517  11.300  1.4225 -0.2485  1.2412
  142MOL0     H19110   8.774   4.468  11.135 -1.1538  1.2978  2.0966
  142MOL0     H19111   8.737   4.221  11.215  0.2967 -2.3554  2.6210
  142MOL0     H19112   8.774   4.274  11.372  0.6635 -3.4546 -1.5502
  142MOL0     H19113   8.591   4.418  11.403 -0.7285  0.1053  1.2549
  142MOL0     H19114   8.545   4.424  11.233  1.1917  0.5855 -0.3140
  142MOL0     H19115   8.493   4.168  11.264 -0.0990  0.5009 -0.7044
  142MOL0     H19116   8.537   4.203  11.436  1.5308  1.1876  0.1661
  142MOL0     H19117   8.299   4.214  11.398  2.3867 -0.3416  0.8699
  142MOL0     H19118   8.349   4.384  11.413  0.9118  2.2677 -2.2437
  142MOL0     H19119   8.303   4.245  11.152  1.5432 -2.3206  3.1925
  142MOL0     H19120   8.332   4.422  11.174  1.7329 -0.7947  0.9384
  142MOL0     H19121   8.069   4.140  11.212  1.5279  0.3825  1.7132
  142MOL0     H19122   7.847   4.173  11.440  0.1751 -1.6240 -0.6021
  142MOL0     H19123   7.739   4.301  11.379  0.0012  0.3089  0.3599
  142MOL0     H19124   7.675   4.065  11.298 -0.2511 -0.3221 -0.4190
  142MOL0     H19125   7.828   4.045  11.218 -1.8777  0.0718 -4.0482
  142MOL0     H19126   7.804   4.207  11.067  0.8487 -0.5194 -0.3014
  142MOL0     H19127   7.657   4.283  11.134  1.2380 -0.0198  1.2846
  142MOL0     H19128   7.666   4.008  11.009  3.7998  1.6974  2.5189
  142MOL0     H19129   7.598   4.151  10.922  1.1770  0.6163 -0.4216
  142MOL0     H19130   7.445   3.985  10.836  2.2640 -0.5872  4.4691
  142MOL0     H19131   7.316   3.972  10.639 -0.0551 -1.7093 -1.6281
  142MOL0     H19132   7.214   3.826  10.681  1.8342 -0.3230  2.0167
  142MOL0     H19133   7.152   3.987  10.618  1.3106 -1.0071 -2.6257
  142MOL0     H19134   6.708   4.055  10.669 -3.9123  0.3882 -2.0199
  142MOL0     H19135   6.464   3.983  10.662  0.1755  1.2377  0.1611
  142MOL0     H19136   6.337   3.659  10.929 -1.4908 -0.8741 -0.2823
  142MOL0     H19137   6.294   3.794  11.031  0.3114  0.2402 -0.4835
  142MOL0     H19138   6.083   3.704  10.960 -0.5408 -3.3007 -2.3546
  142MOL0     H19139   6.112   3.827  10.835 -0.2015  0.7197 -0.4166
  142MOL0     H19140   6.205   3.524  10.793  0.4661  0.0593  0.3241
  142MOL0     H19141   6.204   3.644  10.678  2.9679 -0.0739  1.1508
  142MOL0     H19142   5.951   3.543  10.839 -1.6658  2.4425 -0.4633
  142MOL0     H19143   5.949   3.679  10.724 -0.6277 -0.4587 -2.1162
  142MOL0     H19144   6.025   3.384  10.658  0.9107 -0.0934 -1.8562
  142MOL0     H19145   6.047   3.521  10.549  0.3249  0.7682  0.2126
  142MOL0     H19146   5.827   3.573  10.539 -1.0054 -0.5275 -0.8572
  142MOL0     H19147   5.831   3.408  10.495 -0.7543 -0.4363 -0.0062
  142MOL0     H19148   5.654   3.436  10.641  1.1663 -1.9773 -1.9866
  142MOL0     H19149   5.751   3.494  10.786  2.0911  0.9915 -0.9586
  142MOL0     H19150   5.863   3.287  10.819 -0.9903  0.9461  2.4830
  142MOL0     H19151   5.780   3.216  10.677  0.1415 -1.1179  0.4768
  142MOL0     H19152   6.519   3.780  11.032  3.3360 -4.4660 -2.4865
  142MOL0     H19153   6.745   3.864  11.060 -1.0625  0.9085  1.4628
  142MOL0     H19154   7.032   4.024  11.100 -0.1922  0.2316 -0.3296
  142MOL0     H19155   7.238   4.079  11.197  0.2395 -0.7473  0.3002
  142MOL0     H19156   9.031   4.451  10.745 -2.4269  1.7028  3.6808
  142MOL0     H19157   9.251   4.420  10.620  2.3586 -0.4823 -0.3942
  142MOL0     H19158   9.645   4.736  10.530 -1.3081 -1.3916 -1.9551
  142MOL0     H19159   9.862   4.728  10.405  0.6556 -1.6132 -2.2999
  142MOL0     H19160  10.161   4.394  10.537  0.1704 -0.1618  0.2184
  142MOL0     H19161  10.242   4.533  10.463  0.7909  1.6566  2.9063
  142MOL0     H19162  10.261   4.548  10.713  1.8194  0.8615 -1.6110
  142MOL0     H19163  10.086   4.571  10.719  0.5256  1.8097  0.8920
  142MOL0     H19164  10.101   4.777  10.587 -1.9781 -4.2838  0.7312
  142MOL0     H19165  10.269   4.750  10.557 -2.5933 -2.9800 -2.6679
  142MOL0     H19166  10.249   4.925  10.723  0.3190 -0.4728 -0.5205
  142MOL0     H19167  10.336   4.783  10.795  0.5611  0.8133  0.7976
  142MOL0     H19168   9.987   4.770  11.017 -0.5424 -0.2119  0.3068
  142MOL0     H19169   9.939   4.336  10.578  1.0750  1.3218  2.0142
  142MOL0     H19170   9.708   4.342  10.682 -1.6738 -0.7880 -0.9407
  143MOL0     O19171   5.655  11.308   1.212 -0.6770 -0.2230 -0.7157
  143MOL0     C19172   5.641  11.434   1.217  0.3354  0.4216 -0.2517
  143MOL0     O19173   5.516  11.495   1.224 -0.8589  0.9709 -0.0606
  143MOL0     C19174   5.396  11.429   1.247  0.0022  0.2679  0.4702
  143MOL0     C19175   5.275  11.486   1.205 -0.4280  0.8643 -0.6992
  143MOL0     C19176   5.150  11.432   1.241 -0.3208  0.2163  0.0938
  143MOL0     C19177   5.136  11.319   1.312 -0.1091  0.2341  0.6194
  143MOL0     O19178   5.004  11.278   1.331  0.8081  0.4048  0.6876
  143MOL0     C19179   4.997  11.139   1.360  0.3720  0.4259  0.6363
  143MOL0     C19180   4.856  11.087   1.312  0.2825  0.2292  0.7652
  143MOL0     C19181   4.751  11.095   1.423 -0.4219 -0.7199 -0.3275
  143MOL0     C19182   4.618  11.040   1.379  0.0058  0.6524 -0.2520
  143MOL0     C19183   4.516  11.154   1.344 -0.5004  0.2737 -0.6686
  143MOL0     C19184   4.393  11.086   1.308 -0.1862  0.3680  0.0170
  143MOL0     C19185   4.286  11.169   1.232 -0.2253 -0.4811  0.7320
  143MOL0     C19186   4.237  11.279   1.315 -0.2150 -0.6388  0.2707
  143MOL0     N19187   4.123  11.342   1.243 -0.3988 -0.8944  0.1296
  143MOL0     C19188   4.129  11.442   1.146 -0.6169 -0.0329  0.0051
  143MOL0     C19189   4.002  11.468   1.114 -0.5223  0.1887 -0.2220
  143MOL0     C19190   3.949  11.558   1.004 -0.1801 -0.4881  0.6548
  143MOL0     C19191   3.933  11.473   0.878 -0.6693  0.2128  0.0668
  143MOL0     C19192   3.888  11.575   0.771 -0.0570  0.1655 -0.5757
  143MOL0     C19193   3.827  11.504   0.652  0.2365 -0.5492 -0.1581
  143MOL0     O19194   3.733  11.586   0.587  0.0356  0.1809  0.3855
  143MOL0     C19195   3.608  11.601   0.635  0.2776  0.1695 -0.3132
  143MOL0     C19196   3.513  11.504   0.626 -0.2190  0.5185  0.5129
  143MOL0     C19197   3.376  11.528   0.659  0.6051 -0.2774 -0.0271
  143MOL0     C19198   3.281  11.419   0.649 -0.1371  0.0648 -0.0596
  143MOL0     C19199   3.340  11.651   0.720 -0.0920  0.3983  0.5246
  143MOL0     C19200   3.203  11.698   0.765  0.2654  0.3658 -0.0267
  143MOL0     O19201   3.199  11.814   0.830  0.1231 -0.1738  0.7339
  143MOL0     C19202   3.076  11.862   0.875  0.1872 -0.2540 -0.7537
  143MOL0     C19203   3.021  11.975   0.826  0.3826  0.5820 -0.5620
  143MOL0     C19204   2.899  12.021   0.881  0.0289 -0.6696  1.1066
  143MOL0     C19205   2.826  11.954   0.971  0.2099  0.9899 -0.0320
  143MOL0     O19206   2.700  11.994   0.991  0.4598 -0.0328 -0.2804
  143MOL0     C19207   2.628  11.913   1.090 -0.4614  0.1213 -0.6907
  143MOL0     C19208   2.483  11.964   1.099  0.5734  0.0693  0.4299
  143MOL0     C19209   2.397  11.950   0.964  0.2694  0.4954  0.3155
  143MOL0     C19210   2.374  11.810   0.908 -0.1024  0.3837  0.2736
  143MOL0     C19211   2.295  11.804   0.773 -0.2561  0.5516 -0.1472
  143MOL0     C19212   2.165  11.867   0.798 -0.1003  0.2216 -0.0709
  143MOL0     C19213   2.067  11.828   0.687 -0.8444  0.3116  0.2565
  143MOL0     C19214   1.931  11.895   0.702  0.4094 -1.3829 -0.5816
  143MOL0    Cl19215   1.836  11.858   0.556  0.4328  0.0713  0.5009
  143MOL0     C19216   2.890  11.838   1.019  0.7039  0.5146 -0.9758
  143MOL0     C19217   3.010  11.793   0.977 -0.8742 -1.3412  0.4313
  143MOL0     O19218   3.112  11.617   0.744  0.6386  0.1653  0.1776
  143MOL0     C19219   3.440  11.753   0.723 -0.0444  0.2721 -0.0001
  143MOL0     C19220   3.573  11.730   0.683  0.6357 -0.0133  0.0753
  143MOL0     N19221   3.924  11.402   1.205  0.7615 -0.0821  0.0543
  143MOL0     N19222   3.995  11.325   1.282  0.6720 -0.0673  0.4669
  143MOL0     C19223   5.254  11.251   1.348  0.7901 -0.4711 -0.2130
  143MOL0     C19224   5.381  11.311   1.323  0.2606 -0.6296  0.7613
  143MOL0     C19225   5.754  11.529   1.213  0.9377 -1.0994  0.2964
  143MOL0     C19226   5.733  11.666   1.166  0.5848  1.0455  1.0929
  143MOL0     C19227   5.839  11.750   1.158 -0.7510 -0.1596  0.0172
  143MOL0     C19228   5.972  11.706   1.194  0.8765 -0.5539  1.0410
  143MOL0     O19229   6.089  11.778   1.199 -0.3402  0.4348 -0.2390
  143MOL0     C19230   6.075  11.916   1.163 -0.8152  0.0731  0.4736
  143MOL0     C19231   6.222  11.966   1.155  0.5061  0.8170  0.7828
  143MOL0     C19232   6.218  12.123   1.139 -0.1461 -0.2749  0.2842
  143MOL0     C19233   6.354  12.179   1.091 -0.5753  0.4167  0.3902
  143MOL0     C19234   6.360  12.326   1.123  0.0304  0.1484  0.2240
  143MOL0     C19235   6.362  12.435   1.162  0.7511  0.0084  0.2555
  143MOL0     C19236   5.989  11.568   1.233  0.0402  0.1637  0.7136
  143MOL0     C19237   5.883  11.477   1.240 -0.3111 -0.2344  0.3418
  143MOL0     H19238   5.268  11.578   1.148  1.3722  1.3153 -0.2429
  143MOL0     H19239   5.061  11.489   1.214  0.5288  2.2999  1.4586
  143MOL0     H19240   5.077  11.085   1.309  0.1621  0.0694  0.6753
  143MOL0     H19241   5.014  11.118   1.466 -0.2065 -1.2218  0.4424
  143MOL0     H19242   4.818  11.146   1.228  0.4170  0.4946  0.8885
  143MOL0     H19243   4.877  10.987   1.275  0.5260 -0.2327  2.1038
  143MOL0     H19244   4.783  11.030   1.505 -0.1250  1.3307  1.2677
  143MOL0     H19245   4.746  11.203   1.441  0.4619 -0.3899 -1.8644
  143MOL0     H19246   4.642  10.971   1.298  0.9132 -0.3060  0.8040
  143MOL0     H19247   4.565  10.989   1.459  0.5880  1.1714  0.4766
  143MOL0     H19248   4.490  11.218   1.428 -1.5395  0.6916 -1.2895
  143MOL0     H19249   4.557  11.224   1.271 -1.9163  1.5845 -0.2448
  143MOL0     H19250   4.424  11.011   1.236 -1.7029  0.7629 -1.0855
  143MOL0     H19251   4.348  11.039   1.396 -0.7565  0.1874 -0.3655
  143MOL0     H19252   4.321  11.208   1.136 -1.4482 -2.2703 -0.5128
  143MOL0     H19253   4.202  11.101   1.214 -0.8730  0.1220  1.3927
  143MOL0     H19254   4.321  11.347   1.329  1.4005 -3.0330  3.4081
  143MOL0     H19255   4.206  11.244   1.414  1.3053 -0.7600  0.7247
  143MOL0     H19256   4.218  11.489   1.106 -0.5406  0.2600  0.5013
  143MOL0     H19257   3.858  11.600   1.050  1.8755  3.6939  1.4018
  143MOL0     H19258   4.007  11.650   0.996 -0.3231 -0.4892 -0.6274
  143MOL0     H19259   3.851  11.402   0.896 -0.6618  0.2052  0.0713
  143MOL0     H19260   4.026  11.424   0.847 -1.5697 -1.1008 -0.6820
  143MOL0     H19261   3.971  11.634   0.731  1.4339 -0.3661  1.6013
  143MOL0     H19262   3.805  11.636   0.808 -1.7687 -0.7693 -2.6513
  143MOL0     H19263   3.782  11.408   0.681  0.8159 -0.8401 -0.2091
  143MOL0     H19264   3.902  11.476   0.577 -1.7221 -5.0235 -0.7806
  143MOL0     H19265   3.550  11.417   0.575  1.3286  1.6403 -0.3639
  143MOL0     H19266   3.336  11.328   0.622 -1.5502 -0.2341 -2.2072
  143MOL0     H19267   3.252  11.400   0.753  0.0145  0.2341  0.0129
  143MOL0     H19268   3.192  11.429   0.587 -1.9503 -2.6138  1.8484
  143MOL0     H19269   3.074  12.029   0.749  0.5989 -0.5820 -1.2519
  143MOL0     H19270   2.850  12.104   0.831  1.1292 -1.5186 -1.5632
  143MOL0     H19271   2.632  11.807   1.066  0.1209 -1.0194  3.6448
  143MOL0     H19272   2.667  11.919   1.192 -1.3970 -4.3505  0.1370
  143MOL0     H19273   2.422  11.912   1.173 -1.7902  1.6011 -0.3237
  143MOL0     H19274   2.482  12.070   1.127  0.2211  1.2647 -3.4828
  143MOL0     H19275   2.422  12.028   0.891  0.9563  0.6986  0.7535
  143MOL0     H19276   2.292  11.957   0.993 -1.1112 -0.3883 -3.7504
  143MOL0     H19277   2.474  11.770   0.888  0.7399  1.9255  1.1991
  143MOL0     H19278   2.313  11.748   0.974 -0.7836 -0.9853 -1.5651
  143MOL0     H19279   2.284  11.699   0.746 -1.0104  0.2527  1.1987
  143MOL0     H19280   2.350  11.868   0.704  3.6552  1.5087  3.4474
  143MOL0     H19281   2.115  11.832   0.889  1.6748  1.5748  1.5126
  143MOL0     H19282   2.184  11.975   0.798  0.3526  0.2163 -2.7571
  143MOL0     H19283   2.051  11.720   0.694  4.1139 -0.5893  1.7031
  143MOL0     H19284   2.106  11.844   0.586 -1.8946  0.9965 -0.0558
  143MOL0     H19285   1.953  12.002   0.702  1.2887 -1.2968  4.5514
  143MOL0     H19286   1.875  11.871   0.792 -1.5305 -1.3236 -1.7285
  143MOL0     H19287   2.845  11.769   1.090 -0.8734  0.6372 -1.8189
  143MOL0     H19288   3.050  11.696   1.006  0.8548 -0.2916  1.7401
  143MOL0     H19289   3.423  11.859   0.739 -3.3543  0.2954 -2.6116
  143MOL0     H19290   3.647  11.808   0.697  1.5919 -0.9611  0.5419
  143MOL0     H19291   5.240  11.150   1.384 -0.1892 -0.3068 -0.0837
  143MOL0     H19292   5.467  11.252   1.351 -0.1267 -0.5192  2.2927
  143MOL0     H19293   5.633  11.694   1.135 -0.8733 -2.4884  2.1361
  143MOL0     H19294   5.815  11.851   1.124  2.1432  0.9452  0.9290
  143MOL0     H19295   6.022  11.914   1.068  0.9907 -1.5258 -0.5542
  143MOL0     H19296   6.031  11.983   1.238  0.8434  3.3446 -1.2956
  143MOL0     H19297   6.254  11.919   1.061 -3.5802  1.1205 -0.9623
  143MOL0     H19298   6.278  11.932   1.242 -1.4228 -1.5257  1.1971
  143MOL0     H19299   6.190  12.171   1.233  0.4378  1.0964 -0.2137
  143MOL0     H19300   6.138  12.151   1.069  1.4598  1.7733 -0.8545
  143MOL0     H19301   6.373  12.145   0.989 -2.1082 -2.0461  0.8640
  143MOL0     H19302   6.433  12.131   1.151  0.9877  2.0539 -0.2515
  143MOL0     H19303   6.339  12.525   1.215 -4.3189 -1.5418  1.1702
  143MOL0     H19304   6.086  11.524   1.256  0.6641  1.6909  1.2033
  143MOL0     H19305   5.889  11.375   1.277 -0.2600  0.4291  2.2946
  144MOL0     O19306   2.914   6.424   9.945  0.6655  0.3444  0.5981
  144MOL0     C19307   2.921   6.360   9.839  0.6571  0.8407 -0.8956
  144MOL0     O19308   2.822   6.350   9.748 -0.0727  0.5251  0.2994
  144MOL0     C19309   2.694   6.371   9.765  1.1275 -0.1862  0.0233
  144MOL0     C19310   2.614   6.311   9.672 -0.2271 -0.6845 -0.5436
  144MOL0     C19311   2.478   6.334   9.667 -0.3471  0.1228  0.1255
  144MOL0     C19312   2.411   6.409   9.764  0.9228 -0.0007  0.1906
  144MOL0     O19313   2.270   6.418   9.752  0.7015 -0.3844  0.4991
  144MOL0     C19314   2.203   6.508   9.841 -0.3022 -1.2407 -0.7142
  144MOL0     C19315   2.058   6.540   9.809  0.2416  0.3377 -0.5010
  144MOL0     C19316   1.976   6.411   9.839  0.1222 -0.1789  0.4926
  144MOL0     C19317   1.830   6.458   9.865 -0.0083 -0.3944  0.4896
  144MOL0     C19318   1.739   6.356   9.918  1.4384  0.0238 -0.7087
  144MOL0     C19319   1.597   6.422   9.965 -0.5245  0.1052 -0.1822
  144MOL0     C19320   1.496   6.321  10.020  0.4228 -0.4203  0.2312
  144MOL0     C19321   1.483   6.189   9.945  0.0581  0.4133 -0.3376
  144MOL0     N19322   1.380   6.117  10.018 -0.7677  0.9230  0.4021
  144MOL0     C19323   1.255   6.080   9.976  0.0688 -0.6847 -0.0947
  144MOL0     C19324   1.220   5.977  10.053 -0.3242  0.4863  0.4555
  144MOL0     C19325   1.103   5.891  10.031  0.5302  0.1719 -0.9826
  144MOL0     C19326   0.983   5.924  10.112  0.1090 -0.2980  0.3344
  144MOL0     C19327   0.878   5.822  10.097  0.6233  0.1464  0.1001
  144MOL0     C19328   0.781   5.831  10.214  0.7590 -0.3292 -0.3144
  144MOL0     O19329   0.647   5.801  10.169 -0.3737 -0.7806  0.0364
  144MOL0     C19330   0.540   5.813  10.257  0.6157 -0.0359  0.2077
  144MOL0     C19331   0.410   5.789  10.209  1.1540  0.7488 -0.5445
  144MOL0     C19332   0.295   5.808  10.288  0.2368  0.2770 -0.2789
  144MOL0     C19333   0.163   5.783  10.224 -0.3867 -0.1765  0.2974
  144MOL0     C19334   0.315   5.848  10.425  0.9052 -0.2928 -1.0734
  144MOL0     C19335   0.204   5.859  10.524  0.2621  0.7768 -0.7128
  144MOL0     O19336   0.169   5.976  10.582  0.0749  0.3320  0.6452
  144MOL0     C19337   0.069   5.988  10.670  0.2306 -0.6135 -0.9204
  144MOL0     C19338   0.037   5.888  10.770 -0.8611 -0.1173 -0.0532
  144MOL0     C19339  -0.067   5.919  10.863  0.0147  0.7138 -0.0024
  144MOL0     C19340  -0.144   6.032  10.857 -0.4185  0.1395 -0.1489
  144MOL0     O19341  -0.241   6.070  10.944 -0.5032  0.2074 -0.1969
  144MOL0     C19342  -0.245   6.005  11.070  0.2654  0.1894 -1.0174
  144MOL0     C19343  -0.333   6.087  11.168 -0.0198  0.3699  0.9576
  144MOL0     C19344  -0.378   5.996  11.279  0.2116 -0.1008  0.6623
  144MOL0     C19345  -0.460   6.074  11.393 -1.0657  0.5533  0.9239
  144MOL0     C19346  -0.526   5.983  11.496 -0.4348 -0.2570 -0.4720
  144MOL0     C19347  -0.622   6.061  11.590 -0.1279  0.9124  0.3098
  144MOL0     C19348  -0.674   5.972  11.703 -0.1047  0.7754  0.4964
  144MOL0     C19349  -0.807   6.032  11.748  0.0551  0.3283 -0.0939
  144MOL0    Cl19350  -0.828   5.950  11.911  0.2031 -0.1257 -0.0235
  144MOL0     C19351  -0.139   6.113  10.741 -0.0848  0.0391 -0.0216
  144MOL0     C19352  -0.026   6.094  10.658 -0.4218 -1.4173 -0.4862
  144MOL0     O19353   0.128   5.764  10.517 -0.1558  0.0780  0.0378
  144MOL0     C19354   0.445   5.866  10.475  0.0793  0.0876  0.1277
  144MOL0     C19355   0.556   5.865  10.384  0.6318  0.2163 -1.4113
  144MOL0     N19356   1.314   5.956  10.148 -0.1375  0.5223 -0.3050
  144MOL0     N19357   1.403   6.044  10.133 -0.9610 -0.2851  0.1098
  144MOL0     C19358   2.496   6.488   9.852 -0.1120 -0.3044  1.0901
  144MOL0     C19359   2.634   6.465   9.854  0.1504  0.0643 -0.7339
  144MOL0     C19360   3.056   6.307   9.801 -0.5251  0.2267 -0.5917
  144MOL0     C19361   3.173   6.361   9.862 -0.3278 -0.4400  0.0068
  144MOL0     C19362   3.298   6.328   9.824 -0.6648  0.1091  0.1834
  144MOL0     C19363   3.323   6.236   9.725 -0.7525 -0.6917 -0.0522
  144MOL0     O19364   3.444   6.202   9.680  0.0962  0.4467 -0.4605
  144MOL0     C19365   3.556   6.216   9.766 -0.0203  0.3121 -0.0777
  144MOL0     C19366   3.691   6.211   9.681 -0.4955 -0.1849 -0.6107
  144MOL0     C19367   3.810   6.282   9.762  0.7118  0.3402  0.3943
  144MOL0     C19368   3.837   6.243   9.913 -0.0238  0.1200  0.0824
  144MOL0     C19369   3.871   6.099   9.932  0.8417  0.4342  0.0610
  144MOL0     C19370   3.869   5.979   9.962 -0.3081 -0.2746 -0.0428
  144MOL0     C19371   3.212   6.169   9.675  0.4527 -1.2365 -0.0647
  144MOL0     C19372   3.086   6.203   9.709  0.6341  0.5102 -0.4806
  144MOL0     H19373   2.653   6.245   9.595 -2.1752 -0.9026 -1.4065
  144MOL0     H19374   2.431   6.256   9.609  4.6348 -2.7643 -0.6240
  144MOL0     H19375   2.201   6.475   9.945  2.4256 -2.1655 -0.8871
  144MOL0     H19376   2.260   6.601   9.850 -0.7412 -1.1343  1.6184
  144MOL0     H19377   2.031   6.626   9.871  3.7427  0.2772  1.3900
  144MOL0     H19378   2.047   6.568   9.704  1.6686  1.7368 -0.3218
  144MOL0     H19379   1.980   6.337   9.759  0.3175 -0.2449  0.5601
  144MOL0     H19380   2.010   6.359   9.929 -2.0468 -0.7177  1.0483
  144MOL0     H19381   1.842   6.547   9.927  0.7505 -0.7287  0.8343
  144MOL0     H19382   1.786   6.498   9.773  1.1091  0.8635  0.4772
  144MOL0     H19383   1.723   6.271   9.851  1.5978  0.3163 -1.1200
  144MOL0     H19384   1.787   6.313  10.006  0.4477 -1.6886 -0.9581
  144MOL0     H19385   1.633   6.496  10.037  0.9905 -1.6056  0.9010
  144MOL0     H19386   1.547   6.459   9.875  0.2142 -0.7465 -0.9706
  144MOL0     H19387   1.522   6.304  10.125  1.6422 -0.4983 -0.0771
  144MOL0     H19388   1.396   6.366  10.017  0.4258 -0.4292 -3.1988
  144MOL0     H19389   1.570   6.124   9.931 -1.2581 -1.1506 -1.6061
  144MOL0     H19390   1.440   6.202   9.845 -2.2501  2.0318  0.7638
  144MOL0     H19391   1.211   6.115   9.883  2.9858  1.0612 -0.9307
  144MOL0     H19392   1.079   5.891   9.925 -1.0801  1.2104 -0.6548
  144MOL0     H19393   1.133   5.789  10.058  3.5220  1.4217  0.9941
  144MOL0     H19394   0.940   6.018  10.077 -0.8232 -1.7766 -2.8301
  144MOL0     H19395   1.022   5.938  10.213  0.0743  2.5999  0.0345
  144MOL0     H19396   0.925   5.724  10.110  2.5215  1.0906  0.7167
  144MOL0     H19397   0.829   5.839  10.001 -2.6749 -0.9581  1.4391
  144MOL0     H19398   0.804   5.927  10.260 -1.4424  0.2056 -0.2134
  144MOL0     H19399   0.803   5.762  10.296 -0.9712  0.2116  0.6725
  144MOL0     H19400   0.419   5.762  10.104  0.5737  0.4420 -0.5158
  144MOL0     H19401   0.150   5.674  10.229  1.5240 -0.4311  0.3745
  144MOL0     H19402   0.094   5.852  10.273  0.9379  2.3945 -1.2460
  144MOL0     H19403   0.151   5.806  10.118 -1.2665 -0.6793  0.2826
  144MOL0     H19404   0.103   5.803  10.783  1.0178  0.3613 -4.5078
  144MOL0     H19405  -0.081   5.859  10.952  0.3938 -1.2941 -1.2256
  144MOL0     H19406  -0.290   5.906  11.060  0.8612 -0.4317  1.5771
  144MOL0     H19407  -0.145   5.977  11.107 -0.5036 -0.3802  0.7217
  144MOL0     H19408  -0.277   6.178  11.190  0.1700  0.9916 -1.6834
  144MOL0     H19409  -0.424   6.125  11.119  1.4749  1.9477 -0.7643
  144MOL0     H19410  -0.284   5.951  11.315  1.0344  1.4141  0.4659
  144MOL0     H19411  -0.440   5.918  11.234  0.9703 -1.8933  2.5180
  144MOL0     H19412  -0.396   6.150  11.438  0.5526  0.8718 -1.7021
  144MOL0     H19413  -0.540   6.132  11.345 -1.0145  2.7459  3.2611
  144MOL0     H19414  -0.450   5.933  11.557  0.1927  0.3422 -0.7418
  144MOL0     H19415  -0.583   5.904  11.446  0.5134  0.6514 -3.2196
  144MOL0     H19416  -0.557   6.141  11.630 -1.0777  2.5082 -1.2217
  144MOL0     H19417  -0.702   6.103  11.529 -0.9738 -0.3914  0.4957
  144MOL0     H19418  -0.606   5.977  11.789  1.0276 -0.2259 -0.3081
  144MOL0     H19419  -0.684   5.867  11.676 -3.4391  0.5835  2.0055
  144MOL0     H19420  -0.881   6.003  11.672 -0.0247  1.8995 -0.6366
  144MOL0     H19421  -0.803   6.141  11.750  0.7038  0.3329  2.4759
  144MOL0     H19422  -0.192   6.207  10.725 -1.3566 -0.1962  2.3252
  144MOL0     H19423  -0.004   6.169  10.583  1.6170  2.3033  3.3728
  144MOL0     H19424   0.479   5.898  10.574  1.1162 -2.9478  0.8458
  144MOL0     H19425   0.654   5.886  10.424 -0.0438 -1.9376  1.7624
  144MOL0     H19426   2.468   6.567   9.922  0.6425  0.5135  0.4934
  144MOL0     H19427   2.693   6.528   9.920 -1.2191  0.6873 -0.0484
  144MOL0     H19428   3.164   6.434   9.943 -0.2714 -1.1992  0.7043
  144MOL0     H19429   3.371   6.378   9.886 -2.2160 -0.0500  2.2655
  144MOL0     H19430   3.550   6.313   9.816  0.3092 -0.5327  1.6531
  144MOL0     H19431   3.556   6.135   9.839  0.7690 -1.2382 -1.7196
  144MOL0     H19432   3.672   6.260   9.584  0.1190  0.6648 -0.3215
  144MOL0     H19433   3.730   6.110   9.667 -1.2499 -0.5222 -0.3045
  144MOL0     H19434   3.816   6.390   9.747 -0.7589  0.4345  0.4074
  144MOL0     H19435   3.896   6.245   9.705  0.2392 -0.7950  0.3957
  144MOL0     H19436   3.739   6.264   9.957 -2.5287 -2.1686 -3.7433
  144MOL0     H19437   3.916   6.309   9.949  0.7552 -1.0066  0.4804
  144MOL0     H19438   3.873   5.877   9.993 -0.3663  0.6488  3.3509
  144MOL0     H19439   3.222   6.098   9.593 -2.3888 -4.8781  2.3900
  144MOL0     H19440   3.003   6.145   9.669 -0.6135  0.2440  2.3042
  145MOL0     O19441   2.561   6.433   1.250 -0.2513 -0.2421  0.2401
  145MOL0     C19442   2.568   6.336   1.167  0.6739 -0.2659  1.0215
  145MOL0     O19443   2.526   6.343   1.034  0.0707 -0.7752  0.3936
  145MOL0     C19444   2.426   6.431   0.997  0.3831  0.8063  0.2110
  145MOL0     C19445   2.421   6.470   0.859 -0.9117 -1.0163 -0.3049
  145MOL0     C19446   2.310   6.537   0.805 -0.2207 -0.3757 -0.4057
  145MOL0     C19447   2.195   6.557   0.887 -0.9257 -0.8835  0.1820
  145MOL0     O19448   2.080   6.611   0.841 -1.2142 -0.1701  0.4287
  145MOL0     C19449   2.063   6.624   0.702  0.5810  0.3631  0.0077
  145MOL0     C19450   1.923   6.689   0.686 -0.4848  0.1550 -0.0439
  145MOL0     C19451   1.802   6.600   0.698  0.1140  0.2035  0.4210
  145MOL0     C19452   1.679   6.689   0.683  0.6600 -0.1349  0.2576
  145MOL0     C19453   1.554   6.594   0.672 -0.0999 -1.1276 -1.2406
  145MOL0     C19454   1.437   6.673   0.617  0.3382  0.0343  0.1635
  145MOL0     C19455   1.333   6.565   0.578  0.2712 -0.8484  0.2420
  145MOL0     C19456   1.209   6.634   0.507  0.4624  0.1583 -1.3486
  145MOL0     N19457   1.133   6.735   0.590 -0.0022  0.2748  0.0517
  145MOL0     C19458   1.070   6.700   0.706  0.4863  0.3195 -0.5519
  145MOL0     C19459   1.037   6.815   0.760  0.5391  0.1519 -0.3306
  145MOL0     C19460   0.949   6.832   0.879  1.6077 -0.6341  0.3610
  145MOL0     C19461   1.013   6.939   0.973 -0.6941  1.1290 -0.2109
  145MOL0     C19462   0.976   6.929   1.120 -0.1773 -0.0980 -0.2658
  145MOL0     C19463   0.844   7.013   1.142  1.1905  0.3122  0.5527
  145MOL0     O19464   0.819   6.986   1.285 -0.3787 -0.5830  0.0265
  145MOL0     C19465   0.683   6.989   1.325 -0.6030  0.3540 -0.2878
  145MOL0     C19466   0.641   6.911   1.429 -0.1650 -0.1444 -1.3263
  145MOL0     C19467   0.511   6.899   1.470  0.2311 -0.5443 -0.4932
  145MOL0     C19468   0.485   6.820   1.597 -1.0705  0.0523  0.2063
  145MOL0     C19469   0.409   6.973   1.403  0.3295  0.2479  0.5836
  145MOL0     C19470   0.268   6.975   1.439  0.0042  0.0422  0.0327
  145MOL0     O19471   0.198   7.092   1.415 -0.8681  0.1759 -0.5351
  145MOL0     C19472   0.064   7.094   1.442  0.2968  0.1252  0.6751
  145MOL0     C19473  -0.028   7.092   1.336 -0.3665  0.3971  0.5236
  145MOL0     C19474  -0.162   7.111   1.357  0.1626 -0.0161 -0.6881
  145MOL0     C19475  -0.219   7.112   1.489 -0.1437  0.3588 -0.5849
  145MOL0     O19476  -0.355   7.121   1.499  1.0012  0.3542  0.8936
  145MOL0     C19477  -0.426   7.123   1.630 -0.2354  0.1456  0.5329
  145MOL0     C19478  -0.451   7.262   1.673  0.1193 -0.3647  0.2651
  145MOL0     C19479  -0.547   7.336   1.578  0.2388 -0.0272  1.4735
  145MOL0     C19480  -0.584   7.487   1.611 -0.6178  0.3884  0.0066
  145MOL0     C19481  -0.723   7.535   1.551 -0.2519 -0.0159  0.1336
  145MOL0     C19482  -0.847   7.454   1.595  0.6137  0.1890 -0.3823
  145MOL0     C19483  -0.979   7.509   1.550  0.5031  0.5206 -0.1527
  145MOL0     C19484  -1.103   7.425   1.576  0.0857 -0.7047 -0.7357
  145MOL0    Cl19485  -1.250   7.529   1.557  0.2239 -0.0888  0.1297
  145MOL0     C19486  -0.132   7.116   1.593  0.5918 -0.2422 -0.5591
  145MOL0     C19487   0.006   7.108   1.569  0.1039 -0.3092  0.6953
  145MOL0     O19488   0.226   6.878   1.500  0.2803 -0.1444 -0.5859
  145MOL0     C19489   0.448   7.062   1.306 -0.0177 -0.5206  0.4394
  145MOL0     C19490   0.582   7.066   1.259  0.6142 -0.5905  1.2287
  145MOL0     N19491   1.054   6.926   0.674  0.0019  0.1964  0.5355
  145MOL0     N19492   1.121   6.867   0.576 -0.7169  0.7147 -0.1432
  145MOL0     C19493   2.194   6.518   1.014  0.7509 -0.3580 -0.3062
  145MOL0     C19494   2.307   6.453   1.071  0.1786  0.5273  0.5456
  145MOL0     C19495   2.647   6.219   1.204  0.4911 -0.2826  0.2735
  145MOL0     C19496   2.670   6.185   1.345 -0.3957 -0.4857  0.0624
  145MOL0     C19497   2.735   6.070   1.378 -0.5547  0.3984  0.7991
  145MOL0     C19498   2.794   5.983   1.280 -0.6673  1.4725 -0.3375
  145MOL0     O19499   2.862   5.868   1.322 -0.3099  0.1662  0.4508
  145MOL0     C19500   2.959   5.809   1.232 -0.9184 -0.1874 -0.0626
  145MOL0     C19501   3.055   5.720   1.311 -0.5407 -0.7894 -0.4430
  145MOL0     C19502   3.143   5.803   1.404 -1.2388 -0.9034  0.7172
  145MOL0     C19503   3.253   5.717   1.466 -0.4190 -0.2354  0.6123
  145MOL0     C19504   3.213   5.637   1.580  0.4227  0.3248  0.0910
  145MOL0     C19505   3.170   5.549   1.658 -0.6725 -0.3595 -0.2554
  145MOL0     C19506   2.778   6.022   1.141 -0.4652  0.3141 -0.5705
  145MOL0     C19507   2.701   6.134   1.107  1.0670  0.1770 -0.1778
  145MOL0     H19508   2.509   6.450   0.800  0.3852  1.2024  0.7311
  145MOL0     H19509   2.330   6.592   0.713 -2.5302  0.0313 -0.7282
  145MOL0     H19510   2.138   6.697   0.671 -2.7230  3.7589 -0.7816
  145MOL0     H19511   2.071   6.532   0.642 -0.4034  0.2914 -0.0416
  145MOL0     H19512   1.913   6.773   0.755  0.2242  0.5723 -0.4468
  145MOL0     H19513   1.925   6.719   0.581  3.1425  1.5968  0.3082
  145MOL0     H19514   1.801   6.533   0.611  3.6078  0.7891 -0.2264
  145MOL0     H19515   1.795   6.542   0.791  1.7672  1.3513  1.3165
  145MOL0     H19516   1.667   6.758   0.767  2.7620 -0.2745  0.7121
  145MOL0     H19517   1.679   6.735   0.585  1.8624 -3.0964 -1.2658
  145MOL0     H19518   1.581   6.512   0.605 -1.8032 -1.6132 -1.3834
  145MOL0     H19519   1.538   6.562   0.776 -0.2056 -0.3963 -1.0262
  145MOL0     H19520   1.399   6.732   0.701  0.1663 -2.2586  1.7913
  145MOL0     H19521   1.465   6.731   0.528  1.9848  1.2352  1.4080
  145MOL0     H19522   1.376   6.494   0.507 -0.1408 -1.1330  0.2761
  145MOL0     H19523   1.283   6.518   0.663  0.8562 -4.0928 -1.0677
  145MOL0     H19524   1.148   6.545   0.489  0.6934 -0.5628  1.0250
  145MOL0     H19525   1.245   6.669   0.410 -0.5322 -0.8553 -2.1000
  145MOL0     H19526   1.063   6.605   0.758  5.1069  0.9201  1.6651
  145MOL0     H19527   0.856   6.879   0.846  1.9505 -1.2360 -1.6088
  145MOL0     H19528   0.930   6.731   0.916  0.3892 -1.4095 -2.1737
  145MOL0     H19529   0.997   7.037   0.926  0.2638  0.7402 -1.4070
  145MOL0     H19530   1.121   6.919   0.965 -0.2742  1.7659  2.7898
  145MOL0     H19531   1.042   6.994   1.179 -2.1467  1.5264  0.2828
  145MOL0     H19532   0.975   6.825   1.153 -4.8661 -0.2480 -0.1209
  145MOL0     H19533   0.767   6.970   1.078  0.6731  2.3648 -0.2751
  145MOL0     H19534   0.855   7.120   1.121  0.1451  0.0224 -1.8265
  145MOL0     H19535   0.718   6.850   1.476  1.1379  0.2597 -2.8416
  145MOL0     H19536   0.427   6.873   1.673 -0.9872 -0.0567  0.3477
  145MOL0     H19537   0.424   6.733   1.571  1.7220 -2.0161  0.0757
  145MOL0     H19538   0.581   6.790   1.640 -0.6265 -0.5572 -1.1426
  145MOL0     H19539   0.017   7.087   1.238 -0.5970  2.0168  0.2935
  145MOL0     H19540  -0.233   7.123   1.276 -2.1005 -2.5650  0.7424
  145MOL0     H19541  -0.525   7.078   1.619  1.0994 -3.2747  1.2974
  145MOL0     H19542  -0.375   7.071   1.712 -3.7674 -1.9732  1.6067
  145MOL0     H19543  -0.495   7.267   1.773 -0.6769  2.2616 -0.1517
  145MOL0     H19544  -0.358   7.319   1.670  0.5085 -1.0281 -0.6546
  145MOL0     H19545  -0.640   7.279   1.580 -0.4256  1.0277  1.3759
  145MOL0     H19546  -0.508   7.336   1.476 -1.1453  1.1918  0.9195
  145MOL0     H19547  -0.598   7.509   1.717 -1.6104 -2.4287  0.5496
  145MOL0     H19548  -0.508   7.549   1.563 -2.1247  1.0931 -1.5971
  145MOL0     H19549  -0.728   7.540   1.442 -1.3366  2.1571  0.2172
  145MOL0     H19550  -0.730   7.638   1.589 -0.5207  0.1043 -0.2391
  145MOL0     H19551  -0.848   7.350   1.561 -1.0007  0.3804 -1.0103
  145MOL0     H19552  -0.852   7.448   1.704 -0.2490  0.2498 -0.4132
  145MOL0     H19553  -0.981   7.546   1.447 -1.7962  0.6366 -0.1179
  145MOL0     H19554  -0.996   7.597   1.613  4.7436 -0.3911  2.7506
  145MOL0     H19555  -1.101   7.379   1.675 -0.3009  3.1004  1.2476
  145MOL0     H19556  -1.111   7.353   1.494  1.3795 -0.4539 -1.1057
  145MOL0     H19557  -0.162   7.128   1.697  0.7393 -1.7299 -0.3257
  145MOL0     H19558   0.085   7.105   1.643  1.3163  2.1929 -0.3790
  145MOL0     H19559   0.376   7.122   1.251 -1.6202 -2.5807  0.1969
  145MOL0     H19560   0.602   7.117   1.165 -0.5008  0.1384  1.3720
  145MOL0     H19561   2.111   6.547   1.077  1.1053  0.4963 -0.2033
  145MOL0     H19562   2.314   6.423   1.175  0.5644 -2.4787 -0.2481
  145MOL0     H19563   2.625   6.256   1.413  0.6340 -0.7053  0.9954
  145MOL0     H19564   2.748   6.041   1.482  3.2133 -0.7861  0.1643
  145MOL0     H19565   2.917   5.751   1.149 -0.2278 -0.3439 -0.3099
  145MOL0     H19566   3.010   5.891   1.182  2.0974 -0.7297  1.8241
  145MOL0     H19567   3.105   5.653   1.240  1.3022  0.8924 -0.8142
  145MOL0     H19568   2.992   5.650   1.368  0.2207 -0.6993  0.5239
  145MOL0     H19569   3.078   5.841   1.483 -0.8391  0.3988  0.4578
  145MOL0     H19570   3.190   5.890   1.357  0.1396 -2.4967 -1.0216
  145MOL0     H19571   3.330   5.790   1.489 -0.5329 -0.0725  0.4779
  145MOL0     H19572   3.294   5.647   1.392 -2.6764  0.6483 -1.6337
  145MOL0     H19573   3.119   5.467   1.705  1.2175 -1.8323 -0.6235
  145MOL0     H19574   2.820   5.959   1.064 -1.6140 -0.9578 -0.1920
  145MOL0     H19575   2.697   6.149   1.000  0.2938 -2.1062 -0.5323
  146MOL0     O19576   5.561   4.970  10.500  0.1654 -0.6569  0.0209
  146MOL0     C19577   5.544   5.017  10.612 -0.9267  0.1675 -0.4168
  146MOL0     O19578   5.447   5.104  10.636 -1.0096  0.1125 -0.2859
  146MOL0     C19579   5.325   5.100  10.574  0.5659 -0.7535  0.4516
  146MOL0     C19580   5.253   5.221  10.566 -0.7873  0.0845 -0.0500
  146MOL0     C19581   5.134   5.233  10.502  1.0687  0.8475 -0.9850
  146MOL0     C19582   5.077   5.111  10.446  0.1746 -0.4835 -0.1777
  146MOL0     O19583   4.957   5.102  10.387  0.0498 -0.1310 -0.1923
  146MOL0     C19584   4.852   5.194  10.437  0.9007  0.6778 -0.2879
  146MOL0     C19585   4.826   5.169  10.584 -0.4007  0.3283 -0.9525
  146MOL0     C19586   4.765   5.025  10.607 -0.0411 -0.1220 -0.4119
  146MOL0     C19587   4.747   4.974  10.750 -0.0619 -0.3286  0.1355
  146MOL0     C19588   4.872   4.948  10.830 -0.0523 -0.9896  0.1636
  146MOL0     C19589   4.980   4.858  10.769  0.2504 -0.0565  1.0483
  146MOL0     C19590   5.099   4.822  10.861 -0.0004 -0.3173 -0.7498
  146MOL0     C19591   5.189   4.944  10.904 -0.5336  1.1643  0.2037
  146MOL0     N19592   5.294   4.884  10.985  0.7973  0.1221  0.4808
  146MOL0     C19593   5.385   4.800  10.933  0.8657  0.4117  0.2264
  146MOL0     C19594   5.467   4.766  11.036  0.3179  0.4609  0.3388
  146MOL0     C19595   5.579   4.662  11.047 -0.3116  0.7238  0.1009
  146MOL0     C19596   5.597   4.581  10.918  0.1774  1.0716 -0.7197
  146MOL0     C19597   5.527   4.449  10.936  0.5590  0.5627 -0.3763
  146MOL0     C19598   5.575   4.340  10.838  1.0162  0.1240  0.4395
  146MOL0     O19599   5.566   4.383  10.701 -0.3301 -0.3380 -0.0036
  146MOL0     C19600   5.446   4.379  10.643 -0.1789  0.4903  0.9649
  146MOL0     C19601   5.397   4.491  10.572 -0.9165  0.2239  0.2345
  146MOL0     C19602   5.277   4.489  10.501  0.3721  0.4091 -0.7535
  146MOL0     C19603   5.218   4.630  10.459 -0.3475 -1.1213  0.0003
  146MOL0     C19604   5.211   4.364  10.485  0.0671  0.0188 -0.5375
  146MOL0     C19605   5.076   4.346  10.412 -0.8936 -0.4004 -0.5957
  146MOL0     O19606   5.005   4.232  10.435 -0.0384  0.4750  0.0637
  146MOL0     C19607   4.890   4.209  10.372 -0.5586 -0.0769 -0.2545
  146MOL0     C19608   4.795   4.304  10.343  0.0676  0.3893  0.1137
  146MOL0     C19609   4.678   4.282  10.277 -0.6036 -0.0074  0.8583
  146MOL0     C19610   4.645   4.154  10.231 -0.0699  0.8027  0.1182
  146MOL0     O19611   4.515   4.138  10.167 -0.4241  0.6776 -0.3496
  146MOL0     C19612   4.455   4.006  10.128 -0.5781 -0.1901 -0.7617
  146MOL0     C19613   4.306   3.999  10.122 -0.1415  0.1977  0.6830
  146MOL0     C19614   4.264   3.849  10.106 -0.6337 -0.1316 -0.6354
  146MOL0     C19615   4.237   3.821   9.960  0.2549 -0.3896 -1.0861
  146MOL0     C19616   4.124   3.901   9.898  0.3396 -0.1695  0.4736
  146MOL0     C19617   4.060   3.821   9.786  0.0618  0.1087 -0.5180
  146MOL0     C19618   3.939   3.884   9.722  0.3221  0.1526 -0.1134
  146MOL0     C19619   3.963   4.018   9.649  0.5173  0.1252 -0.2022
  146MOL0    Cl19620   4.046   3.978   9.493  0.3965 -0.1933 -0.2566
  146MOL0     C19621   4.731   4.047  10.272  0.2318  0.2781 -0.1819
  146MOL0     C19622   4.858   4.079  10.326 -0.1399  0.5647  0.2322
  146MOL0     O19623   5.038   4.446  10.351  0.0503  0.0193 -0.4713
  146MOL0     C19624   5.265   4.253  10.542 -0.0340  0.6692  0.2438
  146MOL0     C19625   5.378   4.256  10.624  1.0782 -0.8370 -0.1825
  146MOL0     N19626   5.426   4.836  11.145  0.3625 -0.0290 -0.4957
  146MOL0     N19627   5.320   4.906  11.121  0.3334  0.5916  0.5232
  146MOL0     C19628   5.146   4.989  10.447  0.0592  0.4273 -0.2766
  146MOL0     C19629   5.263   4.988  10.519  0.1487 -0.3888 -0.8244
  146MOL0     C19630   5.641   4.989  10.710  0.4698  0.0085  0.5126
  146MOL0     C19631   5.764   4.921  10.694 -0.4781  0.5741  0.4454
  146MOL0     C19632   5.839   4.883  10.805  0.5478  0.1802 -0.3144
  146MOL0     C19633   5.798   4.928  10.933 -0.6046 -0.4050 -0.3126
  146MOL0     O19634   5.883   4.883  11.032 -0.5777  0.2487 -0.0741
  146MOL0     C19635   5.895   4.949  11.162  0.7167  0.7809 -0.2817
  146MOL0     C19636   5.944   5.098  11.159  0.7227  0.3042 -0.1811
  146MOL0     C19637   6.091   5.095  11.128  0.0516  0.2644  0.7546
  146MOL0     C19638   6.119   5.059  10.978  0.2711 -0.1019 -0.3267
  146MOL0     C19639   6.258   5.085  10.950  0.1125 -0.1933 -0.9864
  146MOL0     C19640   6.366   5.102  10.906 -0.0529  0.6229  0.6064
  146MOL0     C19641   5.684   5.011  10.945 -0.5553  0.0512  0.2165
  146MOL0     C19642   5.610   5.037  10.834  0.1334  0.3605  0.9625
  146MOL0     H19643   5.305   5.304  10.613 -1.8099  0.5483  0.2751
  146MOL0     H19644   5.079   5.327  10.506  2.3679  1.6059 -0.3621
  146MOL0     H19645   4.863   5.302  10.427 -3.6183  1.6478  2.3151
  146MOL0     H19646   4.758   5.168  10.388  0.0422 -1.8071  2.3705
  146MOL0     H19647   4.918   5.179  10.641 -1.0787 -0.5637  0.3563
  146MOL0     H19648   4.756   5.245  10.619 -1.4238 -0.7680 -0.5601
  146MOL0     H19649   4.669   5.033  10.554  0.5453 -4.1898 -2.4904
  146MOL0     H19650   4.819   4.945  10.556  2.9229  0.1808  1.9856
  146MOL0     H19651   4.687   5.051  10.799 -0.7033  0.3925 -1.6757
  146MOL0     H19652   4.691   4.880  10.756 -4.1235  1.8623 -0.0072
  146MOL0     H19653   4.911   5.050  10.840 -1.6169 -0.2475 -0.8349
  146MOL0     H19654   4.839   4.919  10.930 -1.4479 -2.7781 -0.7702
  146MOL0     H19655   4.930   4.766  10.739  2.9798 -1.0382 -0.8820
  146MOL0     H19656   5.007   4.908  10.676 -1.3816 -1.0734 -0.0160
  146MOL0     H19657   5.064   4.764  10.947 -0.1444  2.2356  1.0366
  146MOL0     H19658   5.153   4.747  10.804  0.4638 -1.8820  1.6142
  146MOL0     H19659   5.129   5.009  10.968 -0.5439 -1.3735  2.9667
  146MOL0     H19660   5.234   5.001  10.822  1.0639  1.1934  1.0729
  146MOL0     H19661   5.382   4.765  10.831 -1.1115  2.4170 -0.4948
  146MOL0     H19662   5.674   4.716  11.061  0.7343 -0.8363 -0.6691
  146MOL0     H19663   5.561   4.595  11.132  1.4839  0.2700  0.1618
  146MOL0     H19664   5.696   4.543  10.893 -0.8470 -1.8759 -0.6368
  146MOL0     H19665   5.570   4.630  10.823  2.9554  0.9612 -1.6582
  146MOL0     H19666   5.423   4.458  10.904 -0.6574 -4.0836  1.4032
  146MOL0     H19667   5.533   4.424  11.043 -3.6405  3.4772  0.7727
  146MOL0     H19668   5.520   4.250  10.867 -0.4711  0.1423 -2.0865
  146MOL0     H19669   5.681   4.320  10.858  0.9022  0.0719  1.0152
  146MOL0     H19670   5.454   4.583  10.580  0.5022 -0.6099 -0.0206
  146MOL0     H19671   5.211   4.640  10.350  2.6423  0.2061 -0.1702
  146MOL0     H19672   5.121   4.651  10.505  0.6804  1.4369  1.1932
  146MOL0     H19673   5.284   4.708  10.498 -1.0578 -1.6464  2.4704
  146MOL0     H19674   4.815   4.405  10.376  1.1079 -0.2503  1.5187
  146MOL0     H19675   4.611   4.357  10.236  0.5962 -1.2817 -4.0583
  146MOL0     H19676   4.499   3.980  10.031  1.2843 -0.5603  0.1264
  146MOL0     H19677   4.494   3.933  10.200  3.6429  1.1176 -1.4378
  146MOL0     H19678   4.272   4.046  10.214  1.1220  0.4097  1.0551
  146MOL0     H19679   4.266   4.063  10.042 -1.6671  0.3478  1.5303
  146MOL0     H19680   4.173   3.841  10.166  0.3287  3.1340  1.5189
  146MOL0     H19681   4.340   3.789  10.156 -1.6733  0.4243  1.7549
  146MOL0     H19682   4.333   3.837   9.911  0.2874 -1.9472 -1.6016
  146MOL0     H19683   4.203   3.717   9.954 -4.1498  0.6845  0.7968
  146MOL0     H19684   4.154   3.998   9.857 -1.8329 -0.6362 -2.5707
  146MOL0     H19685   4.044   3.923   9.970 -0.7122 -2.5929  0.1315
  146MOL0     H19686   4.128   3.803   9.702 -0.3461 -1.0168 -0.6163
  146MOL0     H19687   4.037   3.722   9.826  2.5780  0.5549  2.4895
  146MOL0     H19688   3.870   3.919   9.800 -0.3940 -2.6786  0.6297
  146MOL0     H19689   3.889   3.814   9.654  1.5336  0.3138 -1.2091
  146MOL0     H19690   4.023   4.087   9.708 -1.3847  1.6176  0.0818
  146MOL0     H19691   3.865   4.063   9.627 -1.5124 -3.5167  0.5022
  146MOL0     H19692   4.711   3.942  10.255  0.3855  0.1051  0.6547
  146MOL0     H19693   4.925   3.994  10.336 -2.5890 -1.4860  0.1482
  146MOL0     H19694   5.216   4.158  10.528 -1.1914  1.2117  0.5295
  146MOL0     H19695   5.415   4.162  10.663  0.4571 -1.8543 -1.9242
  146MOL0     H19696   5.114   4.906  10.386  0.1693  1.5282 -1.9164
  146MOL0     H19697   5.325   4.898  10.517  1.0614  0.2108 -0.0898
  146MOL0     H19698   5.798   4.869  10.605  2.9470 -0.7101  2.3067
  146MOL0     H19699   5.931   4.827  10.795  2.2189  2.8075 -0.4058
  146MOL0     H19700   5.797   4.950  11.211  1.3800  0.5016  1.0907
  146MOL0     H19701   5.958   4.881  11.218 -1.9309 -0.4784  1.3728
  146MOL0     H19702   5.931   5.142  11.258 -1.4278 -0.3670 -0.0946
  146MOL0     H19703   5.885   5.157  11.087 -0.0285  2.8004  2.2803
  146MOL0     H19704   6.142   5.034  11.203 -0.9773  1.6608  2.6790
  146MOL0     H19705   6.121   5.200  11.136  0.8681  0.1809 -0.7892
  146MOL0     H19706   6.057   5.123  10.915  0.3864 -1.5254 -1.9712
  146MOL0     H19707   6.104   4.953  10.954 -2.6401  0.3251 -0.6978
  146MOL0     H19708   6.465   5.117  10.869 -0.3405  0.8625 -0.0742
  146MOL0     H19709   5.657   5.049  11.044  0.9578  1.3351  0.1840
  146MOL0     H19710   5.513   5.084  10.846 -1.3392 -2.4173  0.7745
  147MOL0     O19711  10.322  10.000  10.009 -0.6841  0.1586  0.1253
  147MOL0     C19712  10.307  10.124  10.007  0.3052 -0.1773 -0.0310
  147MOL0     O19713  10.208  10.193   9.945 -0.2165  0.0359  0.4530
  147MOL0     C19714  10.107  10.112   9.888  0.1733  0.4744 -0.2830
  147MOL0     C19715  10.107  10.083   9.752 -0.4226 -0.2793 -0.3711
  147MOL0     C19716  10.010   9.997   9.697  0.2635  0.4314 -0.4584
  147MOL0     C19717   9.908   9.936   9.774 -0.2665 -0.8488 -0.2186
  147MOL0     O19718   9.820   9.844   9.712  0.4095 -0.1522 -0.6392
  147MOL0     C19719   9.712   9.791   9.788 -0.4474  0.0915 -1.4535
  147MOL0     C19720   9.641   9.693   9.697  0.8314  0.0108  0.4464
  147MOL0     C19721   9.509   9.638   9.761  0.5112  0.9598  0.0030
  147MOL0     C19722   9.440   9.529   9.669 -0.2262  0.4983 -0.5390
  147MOL0     C19723   9.307   9.473   9.703 -0.1613 -0.6288  0.0787
  147MOL0     C19724   9.198   9.580   9.708 -0.1484  0.4538 -0.1103
  147MOL0     C19725   9.064   9.507   9.757  0.0023 -1.0359  0.5075
  147MOL0     C19726   9.031   9.369   9.709  0.4714 -0.8199 -0.0307
  147MOL0     N19727   8.899   9.324   9.762  0.2123 -1.0948  1.0132
  147MOL0     C19728   8.884   9.249   9.870 -0.8297  0.5407 -0.3568
  147MOL0     C19729   8.747   9.217   9.871  0.0835  0.3957  0.3139
  147MOL0     C19730   8.671   9.138   9.975  0.2584  0.1241  0.6029
  147MOL0     C19731   8.692   9.212  10.113  0.8611 -0.0951 -0.1268
  147MOL0     C19732   8.701   9.116  10.235 -0.1682  0.8751 -0.1026
  147MOL0     C19733   8.573   9.032  10.257 -0.3499  0.6679 -0.5482
  147MOL0     O19734   8.471   9.121  10.294  0.0482 -0.2552 -0.6598
  147MOL0     C19735   8.345   9.078  10.315  0.1630  0.1060  1.0620
  147MOL0     C19736   8.247   9.169  10.353  0.4436  0.5218 -0.1617
  147MOL0     C19737   8.110   9.129  10.365 -0.2653  0.8806 -1.2208
  147MOL0     C19738   8.009   9.234  10.394 -0.1548 -0.6024  0.0847
  147MOL0     C19739   8.075   8.992  10.344  0.7641  0.4332  0.4366
  147MOL0     C19740   7.927   8.942  10.333  0.0399 -0.3849 -0.8492
  147MOL0     O19741   7.917   8.809  10.318  1.0543  0.1041  0.2824
  147MOL0     C19742   7.800   8.743  10.307 -0.0039  0.3878  0.4536
  147MOL0     C19743   7.680   8.766  10.382  0.1834 -0.1507 -0.1437
  147MOL0     C19744   7.567   8.690  10.371 -0.0054 -0.2502 -0.0746
  147MOL0     C19745   7.556   8.585  10.275  0.3207 -0.0540  0.2839
  147MOL0     O19746   7.433   8.520  10.278 -0.7196 -0.2588  0.3921
  147MOL0     C19747   7.419   8.392  10.202  0.1594 -0.1468 -0.0784
  147MOL0     C19748   7.356   8.401  10.063 -0.1443 -0.3376  0.0716
  147MOL0     C19749   7.204   8.421  10.057 -0.3327 -1.1037  0.4509
  147MOL0     C19750   7.156   8.436   9.915 -0.5589 -0.4758 -0.3237
  147MOL0     C19751   7.010   8.425   9.898  0.0277  0.1271  1.3436
  147MOL0     C19752   6.954   8.283   9.929 -1.2415  0.0026 -0.5851
  147MOL0     C19753   6.810   8.258   9.883  0.8680  0.0399  0.0634
  147MOL0     C19754   6.711   8.378   9.914 -0.2397 -0.3972 -0.4116
  147MOL0    Cl19755   6.557   8.323   9.846 -0.0790  0.2154  0.4714
  147MOL0     C19756   7.673   8.545  10.205  0.6539 -1.0811 -0.0519
  147MOL0     C19757   7.791   8.624  10.215 -0.5705 -0.6232 -0.3890
  147MOL0     O19758   7.829   9.016  10.330 -0.4898 -0.4386 -0.6377
  147MOL0     C19759   8.184   8.905  10.328  0.3462 -0.2184 -0.0961
  147MOL0     C19760   8.317   8.946  10.315  1.2072  0.9320  0.1476
  147MOL0     N19761   8.692   9.264   9.755 -0.2850  0.0641 -0.1908
  147MOL0     N19762   8.782   9.330   9.695 -0.3177 -0.6455  0.8091
  147MOL0     C19763   9.905   9.969   9.914 -0.6881 -0.4920 -0.1199
  147MOL0     C19764  10.003  10.066   9.965  0.4899  0.2609 -0.0630
  147MOL0     C19765  10.400  10.203  10.102  0.4902  0.3313 -0.4624
  147MOL0     C19766  10.512  10.144  10.162 -0.2275  0.7538  0.1568
  147MOL0     C19767  10.582  10.208  10.267  0.4787 -0.0631 -0.8739
  147MOL0     C19768  10.561  10.343  10.286 -0.0302  0.2918 -0.1661
  147MOL0     O19769  10.628  10.423  10.382  0.6527  0.0317  0.4049
  147MOL0     C19770  10.756  10.381  10.428  0.3090  0.2360 -0.5063
  147MOL0     C19771  10.842  10.418  10.311 -0.2371 -0.5510 -1.4255
  147MOL0     C19772  10.990  10.432  10.362  0.0697  0.2969 -1.1467
  147MOL0     C19773  11.086  10.432  10.249  0.0267  0.0544  0.7704
  147MOL0     C19774  11.223  10.434  10.289  0.9280 -0.2193 -0.3734
  147MOL0     C19775  11.337  10.452  10.329 -1.0414  0.5286 -0.0516
  147MOL0     C19776  10.455  10.405  10.218  0.3027 -0.2950 -0.1439
  147MOL0     C19777  10.369  10.333  10.135  0.4390  0.0967 -0.4896
  147MOL0     H19778  10.195  10.119   9.700 -0.3420 -3.1836 -2.4854
  147MOL0     H19779   9.992   9.955   9.598 -3.2569 -2.9903  1.3528
  147MOL0     H19780   9.755   9.744   9.877  0.8426  3.2209 -0.2770
  147MOL0     H19781   9.642   9.860   9.835  0.0703 -1.7260  2.4650
  147MOL0     H19782   9.611   9.750   9.609  0.1302 -0.1264  0.5954
  147MOL0     H19783   9.711   9.610   9.679  2.5725  1.5778 -0.3523
  147MOL0     H19784   9.538   9.606   9.861 -0.1855  0.0342 -0.0774
  147MOL0     H19785   9.443   9.724   9.771 -1.3861 -0.3741 -0.4299
  147MOL0     H19786   9.437   9.572   9.568  0.0860 -0.6017 -1.0342
  147MOL0     H19787   9.503   9.440   9.663  1.9759  1.9105  0.4138
  147MOL0     H19788   9.282   9.392   9.633  2.0573 -1.3530  0.0605
  147MOL0     H19789   9.313   9.421   9.799 -1.9537 -2.0221 -0.4915
  147MOL0     H19790   9.224   9.657   9.781  3.4619  0.0055 -0.7133
  147MOL0     H19791   9.176   9.629   9.613  2.7753  2.0292 -0.0821
  147MOL0     H19792   9.056   9.526   9.864 -1.0453  1.3451  0.0804
  147MOL0     H19793   8.991   9.578   9.717  2.5364  1.2287 -0.4437
  147MOL0     H19794   9.112   9.302   9.737 -0.5193 -2.1540 -0.2608
  147MOL0     H19795   9.025   9.369   9.599  0.9724  1.6059 -0.1207
  147MOL0     H19796   8.947   9.223   9.954 -0.0413 -2.0827 -1.6314
  147MOL0     H19797   8.566   9.129   9.947 -0.1725 -2.9776  2.7721
  147MOL0     H19798   8.719   9.039   9.975  0.1259  0.0599  0.6410
  147MOL0     H19799   8.601   9.269  10.134 -1.5727 -2.6780 -2.8284
  147MOL0     H19800   8.781   9.276  10.111  1.1111 -0.4117 -2.7660
  147MOL0     H19801   8.722   9.174  10.325 -2.7076 -0.1216  1.2406
  147MOL0     H19802   8.790   9.052  10.226 -1.1148 -0.3142 -1.6944
  147MOL0     H19803   8.597   8.958  10.334  2.7357  1.2559 -0.7941
  147MOL0     H19804   8.542   8.974  10.170  0.1281 -2.0656  0.9746
  147MOL0     H19805   8.280   9.271  10.373 -1.2455  0.5284  3.2304
  147MOL0     H19806   7.967   9.271  10.301 -2.3796  0.4147  1.4038
  147MOL0     H19807   7.926   9.193  10.452  0.7658  1.9093  3.5529
  147MOL0     H19808   8.044   9.323  10.448 -0.0574  1.1226 -2.6282
  147MOL0     H19809   7.676   8.846  10.456 -2.2389 -1.1132  0.8672
  147MOL0     H19810   7.474   8.720  10.417 -2.3752 -2.4000 -2.9925
  147MOL0     H19811   7.516   8.341  10.200 -0.5289 -1.4855 -0.3812
  147MOL0     H19812   7.348   8.336  10.263 -2.7395  3.9020  0.6390
  147MOL0     H19813   7.419   8.477  10.016 -0.5340  0.5033  0.8622
  147MOL0     H19814   7.369   8.305  10.013 -0.5815 -0.6363  0.5183
  147MOL0     H19815   7.189   8.515  10.112  0.8265  1.7050 -3.5387
  147MOL0     H19816   7.154   8.339  10.109  2.3722 -2.9212  0.3823
  147MOL0     H19817   7.166   8.544   9.899  0.4881 -0.7083 -1.3439
  147MOL0     H19818   7.211   8.371   9.847  3.0156  0.5335  1.3960
  147MOL0     H19819   6.976   8.436   9.794  0.1869 -0.0361  1.2727
  147MOL0     H19820   6.972   8.499   9.969 -0.6683  0.5838  0.5269
  147MOL0     H19821   7.009   8.207   9.873 -2.2159 -0.2542 -1.2271
  147MOL0     H19822   6.959   8.265  10.037 -0.8496  0.1393 -0.5786
  147MOL0     H19823   6.779   8.161   9.923  3.6648  0.0338  2.5878
  147MOL0     H19824   6.818   8.246   9.775  1.6545 -2.2162  0.3085
  147MOL0     H19825   6.729   8.474   9.866  1.0227 -0.0868  0.6175
  147MOL0     H19826   6.692   8.384  10.022  1.4768 -3.5472  0.1972
  147MOL0     H19827   7.673   8.464  10.133  0.0716  0.6888 -2.1655
  147MOL0     H19828   7.877   8.607  10.151 -0.2515 -0.3136 -0.0526
  147MOL0     H19829   8.167   8.799  10.311 -1.0623  0.1622 -1.2438
  147MOL0     H19830   8.395   8.876  10.285  2.9096  2.2586  1.2876
  147MOL0     H19831   9.822   9.936   9.976 -1.2323 -1.7306 -1.4565
  147MOL0     H19832  10.002  10.099  10.068  0.8158  0.5408 -0.1509
  147MOL0     H19833  10.533  10.038  10.151  0.7337  1.1651 -2.6585
  147MOL0     H19834  10.668  10.155  10.307 -0.3753 -1.6521 -1.0754
  147MOL0     H19835  10.785  10.447  10.510 -1.2418 -0.2785  0.4935
  147MOL0     H19836  10.753  10.279  10.466  0.6917  1.2321  2.4272
  147MOL0     H19837  10.811  10.517  10.274 -0.8668 -0.1137  0.1738
  147MOL0     H19838  10.832  10.344  10.231  0.9574 -0.7718 -1.3814
  147MOL0     H19839  11.006  10.348  10.430 -1.0936  1.0042  0.0589
  147MOL0     H19840  11.003  10.529  10.412  1.8356 -0.1361 -0.7151
  147MOL0     H19841  11.080  10.523  10.190  1.1989 -0.1794  0.2625
  147MOL0     H19842  11.073  10.347  10.181  0.0006  2.1465 -2.0204
  147MOL0     H19843  11.419  10.504  10.374 -0.6759 -0.0848  0.0027
  147MOL0     H19844  10.442  10.511  10.236 -0.5428  0.0133 -2.3592
  147MOL0     H19845  10.287  10.393  10.097  2.5055  1.8469 -2.5206
  148MOL0     O19846   9.354   8.522   5.293  0.0262  0.2209 -0.4699
  148MOL0     C19847   9.277   8.620   5.279 -0.7448 -0.1241 -0.8880
  148MOL0     O19848   9.311   8.748   5.300 -0.3984 -0.0687  0.0204
  148MOL0     C19849   9.432   8.790   5.352  0.0476  0.2953 -0.0760
  148MOL0     C19850   9.429   8.879   5.461 -0.3288 -0.5610 -0.2273
  148MOL0     C19851   9.542   8.931   5.524 -0.5350 -0.3163  0.1886
  148MOL0     C19852   9.669   8.891   5.465 -0.0514 -0.1898  0.3990
  148MOL0     O19853   9.786   8.941   5.517  0.2325  0.0387  0.1485
  148MOL0     C19854   9.905   8.876   5.482  0.3695 -0.4597 -0.1230
  148MOL0     C19855  10.002   8.913   5.599  0.1078 -0.5880  0.2247
  148MOL0     C19856  10.142   8.835   5.601  0.7623 -0.0862  0.6790
  148MOL0     C19857  10.254   8.914   5.537 -0.3342  0.4309  1.1621
  148MOL0     C19858  10.298   9.038   5.606  0.1718  0.2290  0.4189
  148MOL0     C19859  10.390   9.115   5.509 -0.1877  0.0902  0.4072
  148MOL0     C19860  10.525   9.043   5.482 -0.3479  1.5188 -0.1483
  148MOL0     C19861  10.523   8.972   5.348 -0.0767 -0.6574  0.3304
  148MOL0     N19862  10.648   8.904   5.336  0.8743  0.6059 -0.8365
  148MOL0     C19863  10.773   8.968   5.319 -0.1606 -0.5400  0.5663
  148MOL0     C19864  10.865   8.866   5.316  0.7721  0.1812 -0.3268
  148MOL0     C19865  11.011   8.891   5.330  0.0889 -0.1751  0.3743
  148MOL0     C19866  11.101   8.780   5.279 -0.5097 -0.5441 -0.4756
  148MOL0     C19867  11.116   8.783   5.120  0.1278  0.8281  0.5043
  148MOL0     C19868  11.213   8.677   5.066 -0.9984  0.1864  0.0950
  148MOL0     O19869  11.348   8.696   5.104  0.4052  0.7042 -0.2004
  148MOL0     C19870  11.441   8.618   5.038 -1.2705 -0.3354  0.5813
  148MOL0     C19871  11.442   8.475   5.039 -0.7761  0.3294 -0.2302
  148MOL0     C19872  11.548   8.408   4.986 -0.0047 -0.0759 -0.7402
  148MOL0     C19873  11.553   8.261   5.011 -0.6365 -0.6087  1.1255
  148MOL0     C19874  11.664   8.484   4.937 -0.0130 -0.6635 -0.4381
  148MOL0     C19875  11.785   8.428   4.872 -0.3863  0.6224  0.8081
  148MOL0     O19876  11.872   8.518   4.826  0.6070  0.0653  0.0080
  148MOL0     C19877  11.993   8.487   4.769 -0.1352  0.1618 -0.0044
  148MOL0     C19878  12.049   8.593   4.699 -0.1128  1.3020 -0.2678
  148MOL0     C19879  12.181   8.583   4.643 -0.4338  0.6415  0.0522
  148MOL0     C19880  12.260   8.468   4.667  0.0998  0.3190 -0.7838
  148MOL0     O19881  12.375   8.445   4.595  0.3521  0.1725 -0.4031
  148MOL0     C19882  12.476   8.359   4.649 -0.4424 -0.1617 -0.6780
  148MOL0     C19883  12.599   8.422   4.583  0.4417 -0.5532 -0.3173
  148MOL0     C19884  12.726   8.363   4.627  0.1236 -0.1200 -0.3547
  148MOL0     C19885  12.845   8.439   4.555 -0.0661 -1.2251 -0.0906
  148MOL0     C19886  12.995   8.404   4.589 -0.3792  0.5654  0.7266
  148MOL0     C19887  13.030   8.428   4.734 -0.2321 -0.4085 -0.9064
  148MOL0     C19888  13.180   8.413   4.766 -0.7922  0.8838  0.1981
  148MOL0     C19889  13.222   8.272   4.746  0.1986  0.8111  0.6552
  148MOL0    Cl19890  13.385   8.254   4.808  0.0936  0.0066 -0.1829
  148MOL0     C19891  12.202   8.369   4.755  0.0473  0.5708  0.1304
  148MOL0     C19892  12.069   8.377   4.806 -0.2516 -0.1057  0.7448
  148MOL0     O19893  11.795   8.310   4.860 -0.7358 -1.1679  0.1694
  148MOL0     C19894  11.657   8.627   4.936 -0.4375  0.0165  1.0504
  148MOL0     C19895  11.551   8.691   4.994 -0.4018 -0.9311 -0.0341
  148MOL0     N19896  10.802   8.745   5.324  0.1224  0.6350  0.0921
  148MOL0     N19897  10.671   8.763   5.339  0.5300  1.0033  0.0571
  148MOL0     C19898   9.671   8.799   5.358  0.2933 -0.7257  0.0992
  148MOL0     C19899   9.551   8.746   5.300  0.7086 -0.4315  0.7163
  148MOL0     C19900   9.134   8.602   5.268  0.4832  0.7514  0.3526
  148MOL0     C19901   9.033   8.694   5.298  0.0829 -0.5921 -1.2281
  148MOL0     C19902   8.899   8.675   5.268  0.2793 -0.5008  0.9114
  148MOL0     C19903   8.848   8.553   5.242 -0.2064 -0.0242 -0.6645
  148MOL0     O19904   8.713   8.538   5.233  0.7752 -0.4103  0.6676
  148MOL0     C19905   8.664   8.407   5.210 -0.1205 -0.2062 -0.0334
  148MOL0     C19906   8.509   8.416   5.213 -0.7196 -0.5205  0.0367
  148MOL0     C19907   8.454   8.469   5.078 -0.4046  0.0704 -0.1123
  148MOL0     C19908   8.331   8.405   5.022  0.2749  0.2689  1.2912
  148MOL0     C19909   8.280   8.459   4.896 -0.0105 -0.2419 -0.9435
  148MOL0     C19910   8.191   8.496   4.813 -0.2675 -0.3327  1.0651
  148MOL0     C19911   8.940   8.457   5.209 -1.6642 -0.7516 -0.9254
  148MOL0     C19912   9.077   8.480   5.225 -0.0648 -0.2843  0.0907
  148MOL0     H19913   9.335   8.919   5.497  0.1650  1.1760 -0.7535
  148MOL0     H19914   9.538   9.010   5.598 -2.3414 -1.5247  1.4510
  148MOL0     H19915   9.890   8.769   5.493  2.5753 -0.6835  1.2007
  148MOL0     H19916   9.938   8.889   5.378 -0.6929 -0.5139 -0.4820
  148MOL0     H19917  10.022   9.020   5.596  0.1234 -0.6070 -1.3139
  148MOL0     H19918   9.966   8.875   5.695 -1.9770 -1.9259 -0.9993
  148MOL0     H19919  10.175   8.813   5.702  0.8102  1.2391  0.9668
  148MOL0     H19920  10.131   8.743   5.543 -1.9236 -0.4918  1.6964
  148MOL0     H19921  10.341   8.849   5.526  1.4189  2.9148 -0.7157
  148MOL0     H19922  10.231   8.929   5.431  1.5947  0.4555  0.7165
  148MOL0     H19923  10.209   9.101   5.620  1.0416  1.9640 -1.3022
  148MOL0     H19924  10.342   9.010   5.702  2.2107  1.0079 -0.2373
  148MOL0     H19925  10.342   9.140   5.414  1.4562 -1.0875 -0.7992
  148MOL0     H19926  10.427   9.207   5.555 -1.3534  1.6051 -1.5381
  148MOL0     H19927  10.604   9.118   5.475  1.2155  0.3580  3.0409
  148MOL0     H19928  10.540   8.970   5.562 -0.5591  0.0516 -1.3784
  148MOL0     H19929  10.514   9.046   5.268  1.5900 -4.0771 -3.3609
  148MOL0     H19930  10.437   8.907   5.360 -0.0087 -0.7002  0.6049
  148MOL0     H19931  10.770   9.076   5.316 -0.2944 -0.5578 -1.1686
  148MOL0     H19932  11.030   8.978   5.267 -1.3032 -1.4104 -1.8905
  148MOL0     H19933  11.030   8.920   5.434 -0.3406  0.0078  0.4077
  148MOL0     H19934  11.056   8.686   5.314 -0.0608  0.0728  1.9836
  148MOL0     H19935  11.197   8.799   5.329 -0.2592  0.5562 -1.3302
  148MOL0     H19936  11.148   8.884   5.094 -0.3357  1.5672  2.5461
  148MOL0     H19937  11.016   8.767   5.079  0.8451 -1.5695 -0.4929
  148MOL0     H19938  11.214   8.667   4.957  1.1898  2.9040 -0.2220
  148MOL0     H19939  11.187   8.577   5.104 -0.7171  0.2792  0.5363
  148MOL0     H19940  11.366   8.422   5.094 -0.1969 -0.4867 -0.1976
  148MOL0     H19941  11.470   8.228   5.074 -1.2395 -0.1362  0.5944
  148MOL0     H19942  11.547   8.202   4.919  0.6426 -2.2631  2.0520
  148MOL0     H19943  11.652   8.252   5.057 -0.4096  1.6213  1.2089
  148MOL0     H19944  12.009   8.694   4.695  0.5204  1.5549 -0.4227
  148MOL0     H19945  12.235   8.658   4.587  2.8676 -0.7831  1.0874
  148MOL0     H19946  12.475   8.360   4.759 -2.2368 -1.5581 -0.6540
  148MOL0     H19947  12.473   8.254   4.618  2.7263 -0.2893 -0.9728
  148MOL0     H19948  12.587   8.407   4.475  1.2041 -0.9107 -0.3547
  148MOL0     H19949  12.596   8.526   4.618 -0.5929 -0.5373 -0.4128
  148MOL0     H19950  12.725   8.257   4.599  1.0274 -0.2754  0.1877
  148MOL0     H19951  12.723   8.380   4.735 -0.1925 -1.3062 -0.1628
  148MOL0     H19952  12.837   8.417   4.448 -1.2967  1.8669 -0.7434
  148MOL0     H19953  12.834   8.547   4.565 -2.1130 -1.4928  1.1582
  148MOL0     H19954  13.069   8.463   4.534  1.2069 -1.2215  0.8143
  148MOL0     H19955  13.008   8.298   4.562  0.8576  0.3516  2.0012
  148MOL0     H19956  13.008   8.531   4.761 -0.1922 -1.2657  2.9290
  148MOL0     H19957  12.969   8.376   4.808 -1.0840  2.8913  0.8815
  148MOL0     H19958  13.218   8.443   4.864 -0.4722  0.0553  0.3395
  148MOL0     H19959  13.233   8.471   4.690 -1.8376  2.8329  0.8916
  148MOL0     H19960  13.224   8.253   4.639 -0.5231  0.7754  0.6429
  148MOL0     H19961  13.145   8.198   4.771  1.5767 -1.4361 -1.4138
  148MOL0     H19962  12.257   8.280   4.783 -0.5743 -0.2463 -1.1318
  148MOL0     H19963  12.035   8.299   4.874  0.6539 -1.6799 -0.5369
  148MOL0     H19964  11.732   8.693   4.892 -1.8833  0.7111 -0.4764
  148MOL0     H19965  11.552   8.799   4.990  2.0934 -0.9063 -2.7777
  148MOL0     H19966   9.767   8.769   5.318  1.4044  2.1689  0.3978
  148MOL0     H19967   9.559   8.692   5.207 -2.4337  1.0719 -0.5460
  148MOL0     H19968   9.066   8.791   5.333  1.8615 -0.8238 -2.1734
  148MOL0     H19969   8.836   8.763   5.265 -0.2314 -0.8754 -1.2083
  148MOL0     H19970   8.710   8.356   5.125 -0.7335 -3.7545  1.5701
  148MOL0     H19971   8.697   8.333   5.284  2.3229  0.9239  0.1077
  148MOL0     H19972   8.481   8.469   5.304 -1.6711 -1.0506  0.0609
  148MOL0     H19973   8.473   8.313   5.221  2.5564 -2.0361 -2.3092
  148MOL0     H19974   8.533   8.460   5.002  0.8158  1.3818  0.9480
  148MOL0     H19975   8.433   8.575   5.090  1.1264  0.4604 -0.6232
  148MOL0     H19976   8.245   8.422   5.088  0.3136  2.9372  0.8012
  148MOL0     H19977   8.338   8.296   5.020  1.1884  0.3216  0.1544
  148MOL0     H19978   8.107   8.504   4.748  0.2405  1.5423  0.5965
  148MOL0     H19979   8.907   8.357   5.184 -1.3280 -1.7752  2.3125
  148MOL0     H19980   9.142   8.397   5.200  0.6761  0.7050 -1.4426
  149MOL0     O19981   9.905   2.283   8.248  0.4696 -0.3979 -0.3028
  149MOL0     C19982   9.932   2.390   8.200  0.4529 -0.1631  0.7741
  149MOL0     O19983   9.863   2.517   8.230 -0.0270 -0.1722 -0.1243
  149MOL0     C19984   9.773   2.530   8.336 -0.3265  0.3954  0.0699
  149MOL0     C19985   9.790   2.458   8.454 -0.1323  0.6301 -0.7875
  149MOL0     C19986   9.691   2.464   8.554  0.0054 -0.8097  0.3465
  149MOL0     C19987   9.572   2.545   8.532 -0.3021  0.6156  0.7211
  149MOL0     O19988   9.465   2.555   8.607  0.0992 -0.5655  0.4831
  149MOL0     C19989   9.453   2.479   8.727 -0.2700  0.1436 -0.0235
  149MOL0     C19990   9.318   2.501   8.798  0.9026 -0.3964 -0.1989
  149MOL0     C19991   9.199   2.454   8.715 -0.4747 -0.3132  1.0294
  149MOL0     C19992   9.072   2.544   8.705 -0.0714 -0.0828 -0.2679
  149MOL0     C19993   9.009   2.612   8.829  0.2363 -0.1453 -0.1440
  149MOL0     C19994   8.963   2.505   8.923  0.5983  0.1556 -0.0973
  149MOL0     C19995   8.842   2.569   9.014 -0.6042  0.0822  0.2592
  149MOL0     C19996   8.806   2.473   9.125  0.5048 -0.7266  0.7078
  149MOL0     N19997   8.687   2.517   9.193 -0.3032 -0.3272 -0.7411
  149MOL0     C19998   8.562   2.462   9.195  0.0569  1.0197 -0.4320
  149MOL0     C19999   8.492   2.525   9.293  0.0916 -0.2260  0.4671
  149MOL0     C20000   8.347   2.511   9.314 -0.4629  0.6966  0.1430
  149MOL0     C20001   8.296   2.568   9.455 -0.6774 -0.2973  0.7469
  149MOL0     C20002   8.154   2.520   9.482  0.6988  0.2301  0.6144
  149MOL0     C20003   8.150   2.410   9.595  0.4439 -0.6499 -0.1776
  149MOL0     O20004   8.012   2.355   9.604  0.4399  0.2835  0.7109
  149MOL0     C20005   8.003   2.227   9.654 -0.7970  0.2413 -0.8412
  149MOL0     C20006   8.083   2.120   9.613  0.7735  0.0023  0.4497
  149MOL0     C20007   8.064   1.983   9.662 -0.2519  0.8201  0.1602
  149MOL0     C20008   8.152   1.867   9.610 -0.0891 -0.3896 -0.0254
  149MOL0     C20009   7.966   1.960   9.762 -0.3026  0.9312 -0.1448
  149MOL0     C20010   7.934   1.822   9.823  0.4720  0.5785  0.4038
  149MOL0     O20011   7.844   1.821   9.929  0.1541  0.4396 -0.0027
  149MOL0     C20012   7.823   1.697   9.986 -0.3823 -0.2262  0.3920
  149MOL0     C20013   7.875   1.673  10.112 -0.3617  0.8086 -0.5128
  149MOL0     C20014   7.833   1.566  10.181 -0.0813 -0.5849 -0.3554
  149MOL0     C20015   7.764   1.464  10.128  0.5655  0.2220  0.3163
  149MOL0     O20016   7.744   1.355  10.204 -0.0769 -0.3250  0.1138
  149MOL0     C20017   7.789   1.235  10.142 -0.2682 -0.4650 -0.0376
  149MOL0     C20018   7.782   1.122  10.254 -0.0373 -0.0026  0.3003
  149MOL0     C20019   7.907   1.128  10.348 -0.2303 -0.1332  0.4678
  149MOL0     C20020   8.039   1.068  10.300  0.7579  0.1649 -0.2732
  149MOL0     C20021   8.159   1.088  10.395  0.1726  0.3394 -0.0004
  149MOL0     C20022   8.151   1.036  10.535  1.0178  0.1189 -0.1115
  149MOL0     C20023   8.271   1.094  10.611 -0.3470 -0.1181 -0.7106
  149MOL0     C20024   8.232   1.207  10.700 -0.6899  0.0129 -0.3266
  149MOL0    Cl20025   8.134   1.145  10.835  0.1797 -0.2408  0.4006
  149MOL0     C20026   7.717   1.481   9.999 -0.0401  1.1341 -0.3465
  149MOL0     C20027   7.746   1.596   9.924 -0.1251  0.7163  0.1308
  149MOL0     O20028   7.977   1.723   9.772 -0.6294  0.1172 -0.2881
  149MOL0     C20029   7.891   2.066   9.801  0.6742  0.3840 -0.6764
  149MOL0     C20030   7.905   2.194   9.749  0.4266 -0.4083 -0.1633
  149MOL0     N20031   8.582   2.613   9.351 -0.5810 -0.2847 -0.4169
  149MOL0     N20032   8.699   2.612   9.293 -0.5010  0.4989  1.2804
  149MOL0     C20033   9.568   2.624   8.414  0.2320  0.5928  0.7749
  149MOL0     C20034   9.673   2.624   8.320  0.2234 -0.7338 -0.0771
  149MOL0     C20035  10.058   2.384   8.124  0.7729  0.1046  0.3326
  149MOL0     C20036  10.118   2.275   8.070 -0.5303  0.9506  0.5475
  149MOL0     C20037  10.245   2.291   8.009  0.6622 -0.0800  0.3008
  149MOL0     C20038  10.323   2.401   8.011 -0.5285 -0.5207 -0.2335
  149MOL0     O20039  10.456   2.415   7.961  0.4060 -0.4094 -0.1354
  149MOL0     C20040  10.499   2.305   7.872 -0.2411 -0.0515 -0.3016
  149MOL0     C20041  10.631   2.331   7.801 -1.1674 -0.6401 -0.2311
  149MOL0     C20042  10.752   2.372   7.880  0.1475 -0.0586 -0.0860
  149MOL0     C20043  10.880   2.412   7.798  0.5152  0.3944 -0.5365
  149MOL0     C20044  10.891   2.352   7.665  0.0245 -0.5360  0.8161
  149MOL0     C20045  10.901   2.306   7.551  0.1361  0.6867 -0.3119
  149MOL0     C20046  10.261   2.511   8.066 -0.7597 -0.1688  0.6055
  149MOL0     C20047  10.132   2.504   8.124 -0.3401  0.2027  0.2249
  149MOL0     H20048   9.884   2.407   8.471  0.3845  1.6075 -0.6255
  149MOL0     H20049   9.706   2.405   8.644 -1.9192  0.1905  1.3980
  149MOL0     H20050   9.470   2.373   8.706  0.7524  0.2945  0.0263
  149MOL0     H20051   9.539   2.510   8.787  1.8771 -1.0610 -2.2790
  149MOL0     H20052   9.321   2.434   8.884  0.6244 -0.4377 -0.2208
  149MOL0     H20053   9.307   2.607   8.822  1.5552  0.3440 -2.7913
  149MOL0     H20054   9.232   2.455   8.610  1.0544 -0.7752  1.4867
  149MOL0     H20055   9.163   2.353   8.738  0.0384 -0.4566  1.2025
  149MOL0     H20056   9.091   2.617   8.625 -1.9303 -0.1482 -0.8095
  149MOL0     H20057   8.994   2.478   8.666  1.7632 -1.1986 -2.3047
  149MOL0     H20058   9.081   2.680   8.876  0.0310  1.1554 -1.6238
  149MOL0     H20059   8.922   2.673   8.802 -1.3822 -0.7861  3.1605
  149MOL0     H20060   8.913   2.421   8.874 -1.8556  3.1361 -3.2697
  149MOL0     H20061   9.047   2.456   8.972  0.4574 -0.4575 -0.4598
  149MOL0     H20062   8.874   2.661   9.064  3.7405 -2.1405  2.1435
  149MOL0     H20063   8.755   2.581   8.949 -2.1067 -3.1663  1.4794
  149MOL0     H20064   8.878   2.440   9.201  1.6283 -1.6230 -0.6728
  149MOL0     H20065   8.779   2.381   9.071  0.9454 -0.7376  0.4987
  149MOL0     H20066   8.522   2.374   9.145 -0.5798 -0.1875  2.0011
  149MOL0     H20067   8.288   2.565   9.240  0.4208 -1.5482 -2.3524
  149MOL0     H20068   8.315   2.406   9.312  0.3002  0.4090  1.4372
  149MOL0     H20069   8.303   2.677   9.467 -0.5582 -0.4521  2.3580
  149MOL0     H20070   8.355   2.523   9.535  0.2175 -0.6733 -0.1072
  149MOL0     H20071   8.111   2.475   9.391  1.0408  0.1452  0.4937
  149MOL0     H20072   8.087   2.601   9.511  1.2933  0.6025  0.9644
  149MOL0     H20073   8.174   2.454   9.692  2.7604 -1.5012 -0.3192
  149MOL0     H20074   8.224   2.332   9.576 -1.1591 -2.0272 -1.0624
  149MOL0     H20075   8.166   2.145   9.548  2.0465  0.3559  2.1396
  149MOL0     H20076   8.211   1.829   9.694 -1.2441 -2.3368 -0.0519
  149MOL0     H20077   8.085   1.788   9.577 -3.4749  2.6638 -1.2212
  149MOL0     H20078   8.221   1.894   9.530 -0.0202 -1.0324 -0.1850
  149MOL0     H20079   7.938   1.748  10.159  0.1924 -0.7153  1.3274
  149MOL0     H20080   7.876   1.558  10.281  2.4305  3.6080 -0.8688
  149MOL0     H20081   7.711   1.217  10.067 -1.0502  1.0280  0.3713
  149MOL0     H20082   7.884   1.238  10.089  0.2032 -0.8548  0.7769
  149MOL0     H20083   7.693   1.133  10.317  0.9875 -1.9203  2.2120
  149MOL0     H20084   7.778   1.023  10.208  1.0912  0.4365 -0.7836
  149MOL0     H20085   7.875   1.073  10.437  0.5660 -0.9073  0.2941
  149MOL0     H20086   7.926   1.230  10.383  3.1880 -0.9082  1.3150
  149MOL0     H20087   8.023   0.962  10.276  1.2588  0.3334 -1.4184
  149MOL0     H20088   8.063   1.121  10.207 -2.4720 -0.9654 -1.9117
  149MOL0     H20089   8.179   1.196  10.392 -4.2453  1.3228 -0.0106
  149MOL0     H20090   8.249   1.044  10.350 -0.3947 -0.2225 -0.5978
  149MOL0     H20091   8.058   1.074  10.579 -1.0991  2.9787 -6.0168
  149MOL0     H20092   8.145   0.927  10.547 -3.1208  0.4101  2.3291
  149MOL0     H20093   8.346   1.139  10.546 -1.6988  2.2628 -0.7438
  149MOL0     H20094   8.310   1.010  10.670 -0.9723 -0.8173 -1.2627
  149MOL0     H20095   8.182   1.287  10.645 -0.9631  1.2333  1.6458
  149MOL0     H20096   8.327   1.238  10.742  0.5713 -1.1728 -2.1276
  149MOL0     H20097   7.672   1.398   9.946 -0.3758  0.7607  0.4963
  149MOL0     H20098   7.731   1.594   9.816  0.3167 -1.9672  0.0507
  149MOL0     H20099   7.809   2.047   9.869  1.6008 -1.0160  0.1024
  149MOL0     H20100   7.820   2.253   9.781  0.0075 -0.5526 -0.9864
  149MOL0     H20101   9.480   2.686   8.402 -0.6435 -1.1431 -3.5764
  149MOL0     H20102   9.660   2.691   8.236 -1.4154 -0.4311  0.3780
  149MOL0     H20103  10.049   2.191   8.069 -1.5461  1.7540  0.9317
  149MOL0     H20104  10.279   2.205   7.953  2.0985 -0.9358  2.3532
  149MOL0     H20105  10.500   2.218   7.939 -0.5988 -0.0311 -0.2689
  149MOL0     H20106  10.426   2.283   7.793  1.9445 -1.5350 -2.0154
  149MOL0     H20107  10.608   2.418   7.738  0.8206  0.1460  0.0602
  149MOL0     H20108  10.650   2.244   7.737  1.0025 -1.1203  1.0097
  149MOL0     H20109  10.777   2.287   7.946 -0.0689  0.3187  0.4880
  149MOL0     H20110  10.723   2.455   7.944 -2.3673 -1.2643  0.4682
  149MOL0     H20111  10.973   2.413   7.856  0.7844 -0.3003 -0.9509
  149MOL0     H20112  10.866   2.520   7.787 -2.2424  0.2248  0.5181
  149MOL0     H20113  10.924   2.261   7.457 -1.1474 -0.6198 -0.0445
  149MOL0     H20114  10.314   2.606   8.057 -1.3245  0.0809 -0.1873
  149MOL0     H20115  10.077   2.584   8.173  0.3999 -0.1474  1.6795
  150MOL0     O20116   9.089   3.798   2.767 -0.0272 -0.1879 -0.7140
  150MOL0     C20117   9.193   3.792   2.699 -0.4786 -0.5096  0.4309
  150MOL0     O20118   9.195   3.797   2.559 -0.6802 -0.2496 -0.0492
  150MOL0     C20119   9.097   3.746   2.478  0.4367 -0.0536  0.2738
  150MOL0     C20120   9.084   3.819   2.357 -0.9314  0.1847 -0.0641
  150MOL0     C20121   8.975   3.786   2.273 -1.2834  0.1598  0.8448
  150MOL0     C20122   8.875   3.702   2.313 -0.0816 -0.2920 -0.1082
  150MOL0     O20123   8.773   3.694   2.219 -0.1102  0.5018  0.1033
  150MOL0     C20124   8.640   3.660   2.262  0.5155  0.4957 -0.1670
  150MOL0     C20125   8.536   3.657   2.150  1.2167  0.5200  0.3985
  150MOL0     C20126   8.409   3.600   2.197  0.6623 -0.5421  0.8229
  150MOL0     C20127   8.313   3.568   2.072 -0.0622 -0.1448  0.3586
  150MOL0     C20128   8.171   3.535   2.122  0.5755 -0.0703 -1.0786
  150MOL0     C20129   8.099   3.666   2.175 -0.4523 -0.5345  0.4912
  150MOL0     C20130   7.969   3.638   2.242 -0.6128  0.0719  0.0866
  150MOL0     C20131   7.840   3.640   2.149 -0.6107 -0.3929  0.7640
  150MOL0     N20132   7.723   3.611   2.228  0.2335  0.6493  0.1999
  150MOL0     C20133   7.623   3.699   2.258 -0.0940  0.5528 -0.2651
  150MOL0     C20134   7.518   3.618   2.302  0.3978 -0.4994 -0.7245
  150MOL0     C20135   7.378   3.658   2.337  0.2609 -0.0073  0.4314
  150MOL0     C20136   7.285   3.644   2.222 -0.2609  0.7764 -0.6400
  150MOL0     C20137   7.339   3.699   2.092  0.7424  0.4518 -0.0420
  150MOL0     C20138   7.229   3.718   1.982 -0.7348 -0.2961 -0.9155
  150MOL0     O20139   7.123   3.800   2.024  0.4662  0.8029  0.0527
  150MOL0     C20140   7.002   3.804   1.950 -0.0396  0.3074 -0.5381
  150MOL0     C20141   6.904   3.895   1.990  0.7556  0.0059 -0.6632
  150MOL0     C20142   6.781   3.903   1.933  0.8788  0.3829  0.5911
  150MOL0     C20143   6.684   4.003   1.992  1.2586  0.2475  0.1210
  150MOL0     C20144   6.757   3.822   1.823  0.5069 -0.0313  0.2601
  150MOL0     C20145   6.626   3.829   1.758 -0.0375  0.3129  0.5670
  150MOL0     O20146   6.555   3.943   1.745 -0.1328  0.1937 -0.4986
  150MOL0     C20147   6.421   3.936   1.724  0.6168  0.0230 -0.2167
  150MOL0     C20148   6.334   3.891   1.824 -0.9328  0.0399 -0.2726
  150MOL0     C20149   6.195   3.903   1.806 -0.1978  1.0764  0.4790
  150MOL0     C20150   6.136   3.942   1.683  0.4120  0.2247  0.6409
  150MOL0     O20151   6.003   3.925   1.662 -0.2055 -0.0444  0.4450
  150MOL0     C20152   5.944   3.976   1.536  0.2137 -0.0600  0.9453
  150MOL0     C20153   5.798   3.951   1.526 -0.0974 -0.0211  0.0821
  150MOL0     C20154   5.731   4.072   1.484 -0.0624 -0.7235  0.0732
  150MOL0     C20155   5.592   4.025   1.416  0.5382 -0.0299 -0.1781
  150MOL0     C20156   5.520   4.151   1.377 -0.2375  0.9654  0.1295
  150MOL0     C20157   5.387   4.100   1.320 -0.9586 -0.2325  0.6091
  150MOL0     C20158   5.305   4.224   1.261 -0.2050 -0.0959 -0.9010
  150MOL0     C20159   5.161   4.183   1.237 -0.6081  0.0831  0.3571
  150MOL0    Cl20160   5.145   4.032   1.139  0.3339 -0.1667  0.2682
  150MOL0     C20161   6.222   3.985   1.583  0.0236  0.2779 -0.4991
  150MOL0     C20162   6.364   3.980   1.603  0.7314  0.5461  0.1161
  150MOL0     O20163   6.583   3.718   1.726 -0.9430  0.5099  0.5905
  150MOL0     C20164   6.850   3.729   1.785 -0.2777  0.2280 -0.2116
  150MOL0     C20165   6.969   3.713   1.850 -0.2515  0.8104  0.3512
  150MOL0     N20166   7.559   3.492   2.301  0.1462 -0.5227 -0.2175
  150MOL0     N20167   7.682   3.487   2.258 -0.0344  0.7525  0.5787
  150MOL0     C20168   8.883   3.637   2.434 -0.7522 -0.5801 -0.8380
  150MOL0     C20169   9.001   3.649   2.509 -0.4372  0.1956  0.4443
  150MOL0     C20170   9.326   3.789   2.766 -0.0652 -1.4761  0.6295
  150MOL0     C20171   9.444   3.848   2.716  0.6767 -0.5518 -0.0815
  150MOL0     C20172   9.558   3.868   2.797 -0.1215 -0.5904  0.8292
  150MOL0     C20173   9.560   3.819   2.931 -0.0834  0.0409 -0.4854
  150MOL0     O20174   9.672   3.819   3.016  0.3597 -0.6814 -1.2460
  150MOL0     C20175   9.786   3.896   2.966 -0.2652 -0.0852 -0.0955
  150MOL0     C20176   9.893   3.885   3.070 -0.1889 -0.5506 -0.3432
  150MOL0     C20177   9.845   3.869   3.219  0.2043  0.0609 -0.0177
  150MOL0     C20178   9.758   3.988   3.280 -0.5160  0.3537  0.3115
  150MOL0     C20179   9.846   4.100   3.318 -0.6721  0.1045  1.1619
  150MOL0     C20180   9.918   4.194   3.360 -0.8242  0.6480  0.4248
  150MOL0     C20181   9.446   3.756   2.977 -0.9822  0.7747  0.6813
  150MOL0     C20182   9.335   3.743   2.891 -0.6782 -0.4941 -0.6014
  150MOL0     H20183   9.151   3.903   2.343  0.3087 -1.2127 -3.7540
  150MOL0     H20184   8.976   3.828   2.173  1.9082 -1.5094  0.0359
  150MOL0     H20185   8.645   3.559   2.304  0.8450  0.4819 -0.2327
  150MOL0     H20186   8.606   3.733   2.336 -0.0121  0.0349  0.0454
  150MOL0     H20187   8.527   3.754   2.099  0.8885  1.6071  2.4470
  150MOL0     H20188   8.571   3.584   2.076 -1.8519 -0.7564  0.0634
  150MOL0     H20189   8.429   3.502   2.243 -4.0658 -1.3783  1.6302
  150MOL0     H20190   8.365   3.676   2.262 -0.0570  0.8294 -1.1960
  150MOL0     H20191   8.313   3.660   2.013 -0.1732 -1.2979 -1.5086
  150MOL0     H20192   8.351   3.485   2.013 -2.3649 -1.2792  0.3466
  150MOL0     H20193   8.124   3.502   2.029 -1.7151 -0.4656  0.1483
  150MOL0     H20194   8.171   3.455   2.197 -1.1564  1.8266  1.1229
  150MOL0     H20195   8.163   3.710   2.253  0.5105 -1.6574  0.3568
  150MOL0     H20196   8.089   3.740   2.095  3.7880  0.2832  0.4516
  150MOL0     H20197   7.968   3.541   2.293 -2.0823 -0.5240 -1.0179
  150MOL0     H20198   7.953   3.722   2.309 -2.3322  1.2272 -1.6637
  150MOL0     H20199   7.846   3.562   2.072 -1.9220 -0.1888  0.4412
  150MOL0     H20200   7.836   3.739   2.102 -0.4829  0.1108  1.7970
  150MOL0     H20201   7.613   3.807   2.251  2.2897  0.8126 -0.6127
  150MOL0     H20202   7.344   3.604   2.426  0.3093 -1.3599 -0.3412
  150MOL0     H20203   7.385   3.765   2.361  0.2604  0.6292 -2.0813
  150MOL0     H20204   7.192   3.699   2.241 -0.1129  1.1090 -0.8610
  150MOL0     H20205   7.246   3.542   2.222  1.0095  0.2506  0.7890
  150MOL0     H20206   7.414   3.626   2.058 -0.2608 -0.6236  0.0111
  150MOL0     H20207   7.386   3.795   2.118 -1.3850  1.2282  1.1599
  150MOL0     H20208   7.207   3.615   1.954 -2.2164 -0.9623  2.1787
  150MOL0     H20209   7.272   3.770   1.896 -0.2800  0.5574 -0.1865
  150MOL0     H20210   6.928   3.944   2.083  1.5763 -0.2852 -0.7187
  150MOL0     H20211   6.686   4.085   1.919 -2.7196  2.7434  2.4730
  150MOL0     H20212   6.587   3.953   1.988  1.4293 -0.1750  1.0412
  150MOL0     H20213   6.704   4.038   2.093 -2.9190  1.2125  0.7600
  150MOL0     H20214   6.381   3.869   1.919 -0.3515 -0.6538 -0.7172
  150MOL0     H20215   6.133   3.867   1.887 -0.7745  1.4559  0.2096
  150MOL0     H20216   5.963   4.084   1.543 -1.2191  0.3574 -0.9409
  150MOL0     H20217   5.978   3.941   1.438 -1.1305  1.5312 -0.1492
  150MOL0     H20218   5.773   3.866   1.462  1.7494 -3.6894  3.7905
  150MOL0     H20219   5.755   3.914   1.619 -1.0598  1.2493  0.1723
  150MOL0     H20220   5.785   4.127   1.407 -0.0856 -1.9267 -0.8314
  150MOL0     H20221   5.723   4.145   1.566 -1.0455  0.2509 -0.8680
  150MOL0     H20222   5.605   3.956   1.331  1.7746  2.1149 -1.8398
  150MOL0     H20223   5.538   3.973   1.496  0.8940 -0.5431 -0.2645
  150MOL0     H20224   5.585   4.203   1.306  1.1685  1.2622  1.5709
  150MOL0     H20225   5.506   4.227   1.455 -0.6249  2.2974 -1.1917
  150MOL0     H20226   5.405   4.027   1.241 -1.5274 -0.3680  0.6030
  150MOL0     H20227   5.330   4.052   1.400 -0.6507 -0.1356  0.8922
  150MOL0     H20228   5.357   4.259   1.171 -0.2481  0.4112 -0.7294
  150MOL0     H20229   5.295   4.302   1.336 -3.2404 -0.5726 -0.6980
  150MOL0     H20230   5.099   4.264   1.198  1.1175  1.5025  0.4508
  150MOL0     H20231   5.113   4.162   1.333 -1.2051 -0.4900 -0.0592
  150MOL0     H20232   6.195   4.013   1.482  2.7361 -0.2969 -1.4787
  150MOL0     H20233   6.430   4.022   1.528 -0.3738  3.7904  0.8165
  150MOL0     H20234   6.818   3.656   1.711  2.4794  1.0979 -2.4727
  150MOL0     H20235   7.035   3.629   1.829 -1.2586 -1.0824  4.0118
  150MOL0     H20236   8.798   3.580   2.468 -1.3819 -0.3381 -1.9629
  150MOL0     H20237   9.021   3.590   2.598 -2.8438 -2.4230 -0.5973
  150MOL0     H20238   9.437   3.891   2.616  0.4101 -1.3705 -0.4230
  150MOL0     H20239   9.644   3.908   2.744 -1.9288  3.3619  0.5705
  150MOL0     H20240   9.823   3.850   2.873  2.6622 -0.0591  0.9498
  150MOL0     H20241   9.760   4.000   2.947 -0.1816  0.0289  0.4165
  150MOL0     H20242   9.966   3.966   3.065  1.1029 -1.3547  2.9328
  150MOL0     H20243   9.941   3.790   3.045 -1.3004 -1.0636 -0.6179
  150MOL0     H20244   9.927   3.847   3.288  0.2063 -0.5947 -0.2210
  150MOL0     H20245   9.791   3.774   3.209  0.8144 -0.0332 -3.7554
  150MOL0     H20246   9.689   3.949   3.356 -1.2174  0.2157 -0.3870
  150MOL0     H20247   9.692   4.033   3.205  0.3510  3.3684  1.2323
  150MOL0     H20248   9.960   4.283   3.402 -4.6610  1.8398  2.0884
  150MOL0     H20249   9.464   3.703   3.070  2.7607  0.0788 -0.2596
  150MOL0     H20250   9.250   3.690   2.932 -1.6288  0.1332 -1.6921
  151MOL0     O20251   4.521   7.193   0.723 -0.5389 -0.4140 -0.3212
  151MOL0     C20252   4.584   7.133   0.810  0.6719 -0.6689  0.1287
  151MOL0     O20253   4.553   7.008   0.858  0.1681 -0.2637  0.3545
  151MOL0     C20254   4.453   6.940   0.790 -0.2807  1.3201  0.1855
  151MOL0     C20255   4.479   6.813   0.733 -0.5431  0.3811  0.7367
  151MOL0     C20256   4.378   6.735   0.667 -0.4757  1.2123  1.1190
  151MOL0     C20257   4.244   6.779   0.668  0.1677 -0.2914  0.3226
  151MOL0     O20258   4.152   6.690   0.615 -0.2802  0.6869  0.3531
  151MOL0     C20259   4.015   6.719   0.644  0.5307  0.9544 -0.2842
  151MOL0     C20260   3.918   6.631   0.552  0.1204 -1.2173  0.6151
  151MOL0     C20261   3.787   6.695   0.502  0.2608  0.0930 -0.0603
  151MOL0     C20262   3.689   6.592   0.440  0.0608 -0.4474  0.5213
  151MOL0     C20263   3.751   6.560   0.301  0.2840  0.1644  0.8201
  151MOL0     C20264   3.660   6.465   0.240  0.6502 -0.1266  0.0121
  151MOL0     C20265   3.700   6.431   0.094  0.3600  0.3305 -0.0259
  151MOL0     C20266   3.817   6.331   0.068  0.4028 -1.0692 -0.3127
  151MOL0     N20267   3.946   6.395   0.082 -0.1540 -0.2054 -0.5032
  151MOL0     C20268   4.051   6.326   0.129 -0.4223  0.0365  0.5498
  151MOL0     C20269   4.154   6.412   0.124 -0.3627  0.1180  0.3194
  151MOL0     C20270   4.303   6.389   0.158 -0.2033 -0.6655 -0.3876
  151MOL0     C20271   4.332   6.332   0.292  0.4272 -0.1747  0.1578
  151MOL0     C20272   4.245   6.399   0.403 -0.4453  0.1876  0.2237
  151MOL0     C20273   4.251   6.303   0.527 -0.4435 -0.1370 -0.4559
  151MOL0     O20274   4.192   6.177   0.504 -0.3159 -0.1297 -0.1722
  151MOL0     C20275   4.089   6.141   0.584 -0.1947  0.3920  0.7860
  151MOL0     C20276   3.960   6.192   0.556 -0.7718 -0.5824  0.1308
  151MOL0     C20277   3.848   6.141   0.627  0.2078  1.1150  0.8742
  151MOL0     C20278   3.719   6.193   0.586  0.1117  0.2606  0.6687
  151MOL0     C20279   3.877   6.044   0.725 -0.3619 -0.1213 -0.5595
  151MOL0     C20280   3.775   6.019   0.830  1.0410  0.3468  0.4053
  151MOL0     O20281   3.723   6.134   0.886  0.3985 -1.2027 -0.0953
  151MOL0     C20282   3.641   6.115   0.997 -0.1654  0.3779  0.4028
  151MOL0     C20283   3.641   6.210   1.096 -1.4361 -0.3240  0.1275
  151MOL0     C20284   3.564   6.203   1.215 -0.7619  0.1557  0.1903
  151MOL0     C20285   3.472   6.095   1.225  0.1329  0.3077 -0.1768
  151MOL0     O20286   3.375   6.086   1.322 -0.1937  0.4405  0.2083
  151MOL0     C20287   3.352   6.191   1.413  0.7151 -0.3051  0.1174
  151MOL0     C20288   3.215   6.157   1.486 -0.0574  0.2051 -0.4158
  151MOL0     C20289   3.090   6.152   1.387  0.1293 -0.1775  0.1935
  151MOL0     C20290   3.047   6.297   1.355 -0.0813  0.6197 -0.7312
  151MOL0     C20291   2.966   6.354   1.471  0.5725 -0.7484  0.7160
  151MOL0     C20292   2.950   6.505   1.438  0.2651  0.3619 -0.0281
  151MOL0     C20293   2.824   6.569   1.505 -0.1468  0.4568 -0.7142
  151MOL0     C20294   2.848   6.568   1.653  0.2875  0.8396  0.7791
  151MOL0    Cl20295   3.009   6.634   1.711  0.1363  0.1117 -0.4618
  151MOL0     C20296   3.459   6.005   1.120 -0.0913 -0.0491  0.0201
  151MOL0     C20297   3.539   6.022   1.006  0.4309 -0.0932 -0.1630
  151MOL0     O20298   3.769   5.901   0.878  0.1573 -0.1783 -0.0043
  151MOL0     C20299   4.004   6.002   0.762 -0.3543 -0.9478  1.2210
  151MOL0     C20300   4.106   6.048   0.682  0.4441  0.2594 -0.0410
  151MOL0     N20301   4.109   6.531   0.072  0.5635  0.4306 -0.0572
  151MOL0     N20302   3.983   6.519   0.047 -0.0284  0.0751 -0.1276
  151MOL0     C20303   4.218   6.902   0.735  0.0935  0.1830 -0.0029
  151MOL0     C20304   4.321   6.983   0.786  0.6090  0.0538  0.2638
  151MOL0     C20305   4.703   7.201   0.870 -0.2310 -0.5696 -0.0068
  151MOL0     C20306   4.780   7.305   0.810 -0.0017 -0.9145 -0.1284
  151MOL0     C20307   4.909   7.348   0.864  0.0388  0.3209 -0.4204
  151MOL0     C20308   4.953   7.291   0.983 -1.0441  0.4726  0.4408
  151MOL0     O20309   5.077   7.330   1.040 -0.2241 -1.0156  0.2215
  151MOL0     C20310   5.154   7.444   0.999 -0.1226  0.2479 -0.6578
  151MOL0     C20311   5.258   7.475   1.110  0.7920  0.1106 -0.0622
  151MOL0     C20312   5.343   7.599   1.073 -0.9457  0.1433  0.1653
  151MOL0     C20313   5.409   7.666   1.195  0.4847 -0.2412 -0.2504
  151MOL0     C20314   5.329   7.771   1.243  0.2415 -0.6134  0.0327
  151MOL0     C20315   5.253   7.846   1.291 -0.6243  0.6230  0.0088
  151MOL0     C20316   4.875   7.188   1.035 -0.2182 -0.6838  0.8226
  151MOL0     C20317   4.759   7.142   0.979  0.1208 -0.1533  0.6002
  151MOL0     H20318   4.577   6.770   0.746  0.0449  1.0619 -1.1914
  151MOL0     H20319   4.393   6.638   0.619 -0.2014  2.1098 -0.7148
  151MOL0     H20320   3.994   6.699   0.749 -0.4619 -1.4007 -0.8591
  151MOL0     H20321   3.992   6.826   0.629 -0.9507  0.9591  1.6245
  151MOL0     H20322   3.986   6.609   0.469 -0.2072  0.8089 -0.2311
  151MOL0     H20323   3.888   6.540   0.605 -0.9432 -0.1039  2.0249
  151MOL0     H20324   3.736   6.744   0.585 -1.6429 -2.4468  0.4141
  151MOL0     H20325   3.821   6.764   0.425  2.2642  1.1380  1.6722
  151MOL0     H20326   3.676   6.505   0.505 -1.2710  0.3105  1.3093
  151MOL0     H20327   3.590   6.637   0.427  0.6364  0.6215 -0.3036
  151MOL0     H20328   3.749   6.646   0.233 -0.0176  0.3086  1.0085
  151MOL0     H20329   3.853   6.523   0.307  1.0391  1.0559 -3.3829
  151MOL0     H20330   3.655   6.372   0.298  1.0639  1.1476  2.2184
  151MOL0     H20331   3.563   6.516   0.247  0.1567 -1.2596  3.5007
  151MOL0     H20332   3.614   6.372   0.061  1.4372 -1.8243  0.8307
  151MOL0     H20333   3.717   6.529   0.047  1.7819  0.6750  1.1306
  151MOL0     H20334   3.809   6.280  -0.028  1.7517  2.4762 -2.5145
  151MOL0     H20335   3.815   6.260   0.152  2.6312 -0.4759  0.3107
  151MOL0     H20336   4.048   6.225   0.168  1.8559 -0.7490 -1.1388
  151MOL0     H20337   4.364   6.342   0.080  0.2802 -2.8096  1.1903
  151MOL0     H20338   4.346   6.490   0.155  2.3388 -1.6823 -0.8396
  151MOL0     H20339   4.437   6.340   0.321  0.2547 -1.5471  1.2482
  151MOL0     H20340   4.318   6.224   0.283  0.5310 -0.0848 -1.3146
  151MOL0     H20341   4.140   6.411   0.374  0.3632  1.2457 -2.5853
  151MOL0     H20342   4.283   6.499   0.425  1.8977 -0.4883 -0.4980
  151MOL0     H20343   4.206   6.360   0.609 -1.3513 -2.4714  0.7359
  151MOL0     H20344   4.354   6.279   0.552  0.4813  2.9826 -0.7606
  151MOL0     H20345   3.946   6.272   0.484 -1.1314 -1.1877 -0.4747
  151MOL0     H20346   3.709   6.172   0.479  0.7895 -1.1419  0.8442
  151MOL0     H20347   3.632   6.155   0.641 -2.2146  4.0201 -0.0976
  151MOL0     H20348   3.700   6.299   0.604 -2.2408  0.1636 -0.8480
  151MOL0     H20349   3.719   6.285   1.085  0.7922 -2.1407  2.2994
  151MOL0     H20350   3.585   6.279   1.290  2.6825 -1.0858  0.6349
  151MOL0     H20351   3.436   6.195   1.483  0.4789  1.2652  0.3449
  151MOL0     H20352   3.345   6.285   1.359  1.8000  0.9630  2.0508
  151MOL0     H20353   3.236   6.057   1.524 -0.3357 -0.4696 -1.9505
  151MOL0     H20354   3.208   6.216   1.577 -0.9339 -3.1343  1.8470
  151MOL0     H20355   3.012   6.088   1.428  0.7717 -2.3426 -1.7050
  151MOL0     H20356   3.126   6.108   1.293 -0.5171 -0.2167 -0.0415
  151MOL0     H20357   3.136   6.359   1.338 -0.9848  2.4736  0.8817
  151MOL0     H20358   2.988   6.292   1.263  1.0834  2.4346 -1.6439
  151MOL0     H20359   3.001   6.333   1.573  0.0978 -1.9344  0.6604
  151MOL0     H20360   2.866   6.309   1.462 -1.0606  3.0034 -2.9053
  151MOL0     H20361   3.047   6.554   1.454  0.3601  0.6614 -1.4066
  151MOL0     H20362   2.929   6.517   1.331  0.5345 -0.6137 -0.2018
  151MOL0     H20363   2.732   6.518   1.478  0.7712 -1.9461  0.3940
  151MOL0     H20364   2.815   6.675   1.477 -1.1096  0.4932 -0.2901
  151MOL0     H20365   2.837   6.461   1.675  3.0708  0.8166  2.3903
  151MOL0     H20366   2.772   6.618   1.713  0.3008 -0.4785  1.9516
  151MOL0     H20367   3.409   5.909   1.134 -0.1684  0.0185  0.2093
  151MOL0     H20368   3.516   5.951   0.927  1.7765 -2.4480  1.4214
  151MOL0     H20369   4.026   5.950   0.855  2.0015 -0.3465  1.0649
  151MOL0     H20370   4.210   6.038   0.713  0.4168  1.1031  0.3434
  151MOL0     H20371   4.118   6.944   0.738 -1.2554 -2.4130 -2.8692
  151MOL0     H20372   4.303   7.085   0.819  2.4572  0.6147 -0.3460
  151MOL0     H20373   4.742   7.348   0.719  0.1591 -3.6674 -1.6059
  151MOL0     H20374   4.965   7.425   0.812  3.3231 -1.8590 -0.4297
  151MOL0     H20375   5.196   7.432   0.899  0.2623  0.6550 -0.5479
  151MOL0     H20376   5.092   7.533   0.982 -1.3887 -0.8812 -2.2009
  151MOL0     H20377   5.330   7.393   1.118  1.5688  0.8484  0.8709
  151MOL0     H20378   5.196   7.490   1.198 -1.7353 -0.5744 -1.6321
  151MOL0     H20379   5.287   7.667   1.009 -0.8385  0.2587  0.1944
  151MOL0     H20380   5.419   7.564   1.001 -2.4890 -0.3797 -1.2643
  151MOL0     H20381   5.507   7.707   1.166  0.9019 -0.1428  1.2489
  151MOL0     H20382   5.425   7.599   1.280  1.3552 -0.4612 -0.5750
  151MOL0     H20383   5.173   7.915   1.312 -3.5075 -1.6698 -2.5117
  151MOL0     H20384   4.903   7.138   1.127  0.4982 -0.0422  0.9565
  151MOL0     H20385   4.714   7.052   1.018 -0.4462 -0.4740 -0.7462
  152MOL0     O20386   5.904   7.564  10.350 -0.2796  0.1623 -0.3258
  152MOL0     C20387   5.987   7.477  10.386 -0.7005 -0.0668 -0.2559
  152MOL0     O20388   5.958   7.346  10.386  0.4224 -0.5304  0.0373
  152MOL0     C20389   5.830   7.313  10.356  0.1455  0.2781  0.1269
  152MOL0     C20390   5.803   7.218  10.257  0.5534 -0.3770 -0.5788
  152MOL0     C20391   5.672   7.183  10.229 -0.0532  0.1193 -0.5794
  152MOL0     C20392   5.565   7.238  10.294 -0.4048  0.0536 -0.3597
  152MOL0     O20393   5.443   7.206  10.240 -0.3008  0.4761 -0.6730
  152MOL0     C20394   5.322   7.269  10.286 -0.0492  0.7416 -0.2002
  152MOL0     C20395   5.201   7.189  10.247 -0.0876  0.2405  0.0889
  152MOL0     C20396   5.168   7.068  10.327  0.5855 -0.2174 -0.5901
  152MOL0     C20397   5.037   7.015  10.271  0.2073 -0.2616  0.3686
  152MOL0     C20398   4.979   6.906  10.359  0.5626 -0.5678  0.4095
  152MOL0     C20399   4.863   6.850  10.288 -0.5845  0.1275 -0.3226
  152MOL0     C20400   4.783   6.756  10.383 -0.7836 -0.1166 -0.3833
  152MOL0     C20401   4.640   6.735  10.314 -0.6084  0.1204  0.4783
  152MOL0     N20402   4.650   6.686  10.175  0.0689 -0.2193 -0.4585
  152MOL0     C20403   4.708   6.569  10.129 -1.8540 -0.3920  0.3654
  152MOL0     C20404   4.680   6.565   9.998 -0.4916  0.4829  0.3760
  152MOL0     C20405   4.710   6.455   9.893 -0.3754 -0.0235 -0.3294
  152MOL0     C20406   4.633   6.331   9.934 -0.0848 -0.0144 -0.0583
  152MOL0     C20407   4.653   6.233   9.830 -0.8453  0.2690  0.1257
  152MOL0     C20408   4.648   6.100   9.891  1.0401 -0.1430 -0.4119
  152MOL0     O20409   4.513   6.078   9.945 -0.0898  0.1211 -1.1083
  152MOL0     C20410   4.416   6.045   9.857  0.5767 -0.0652  0.1492
  152MOL0     C20411   4.418   5.937   9.770  0.2975 -0.3789  0.5002
  152MOL0     C20412   4.325   5.911   9.662 -0.2396 -0.4249 -0.6562
  152MOL0     C20413   4.347   5.789   9.587 -0.2424  0.7128 -0.8376
  152MOL0     C20414   4.210   5.985   9.654  0.1072 -0.2048  0.4240
  152MOL0     C20415   4.103   5.970   9.549  0.2839 -0.4436 -0.2778
  152MOL0     O20416   4.012   6.078   9.534  0.6289  0.1283 -0.6228
  152MOL0     C20417   3.905   6.076   9.441  0.6630 -0.0714 -0.5548
  152MOL0     C20418   3.824   5.963   9.429 -0.1308  0.3047  0.2554
  152MOL0     C20419   3.702   5.963   9.352 -0.1800  0.1634 -0.1730
  152MOL0     C20420   3.664   6.083   9.276  0.1835  0.6091 -0.0209
  152MOL0     O20421   3.554   6.098   9.196  0.6338  0.1270  0.7037
  152MOL0     C20422   3.499   5.978   9.140 -0.1529  0.1317 -0.5365
  152MOL0     C20423   3.401   5.895   9.225 -0.1582  0.5038  0.1889
  152MOL0     C20424   3.270   5.980   9.230  0.0644 -0.2276  0.2398
  152MOL0     C20425   3.155   5.909   9.319  0.1620  0.6327  1.2699
  152MOL0     C20426   3.023   5.983   9.289 -0.9406 -0.2938 -0.4387
  152MOL0     C20427   2.903   5.919   9.353  0.3695 -0.2947  0.1430
  152MOL0     C20428   2.781   6.019   9.357 -0.2179 -0.1334 -0.2377
  152MOL0     C20429   2.650   5.949   9.389  0.1828 -0.0340 -1.1710
  152MOL0    Cl20430   2.672   5.903   9.570 -0.0536 -0.2626  0.1419
  152MOL0     C20431   3.751   6.189   9.291 -0.1055  0.3500 -0.4420
  152MOL0     C20432   3.865   6.190   9.370 -0.6254 -0.2223 -0.1247
  152MOL0     O20433   4.094   5.877   9.470 -0.0250  0.0652  0.1490
  152MOL0     C20434   4.194   6.081   9.765 -0.0353 -0.0804  0.4250
  152MOL0     C20435   4.294   6.116   9.855 -0.6083 -0.0616 -0.1443
  152MOL0     N20436   4.598   6.672   9.969  0.1479 -0.0573  0.0236
  152MOL0     N20437   4.589   6.749  10.074  0.2571 -0.3304 -0.2625
  152MOL0     C20438   5.597   7.322  10.402  0.8685 -0.6210 -0.1866
  152MOL0     C20439   5.727   7.359  10.444  0.2647  0.7667  0.6133
  152MOL0     C20440   6.127   7.528  10.410 -0.3497 -0.0455 -0.1298
  152MOL0     C20441   6.235   7.442  10.421 -0.4640 -0.4399 -0.0763
  152MOL0     C20442   6.371   7.482  10.424 -0.2065 -0.8588  0.3715
  152MOL0     C20443   6.398   7.621  10.447  0.0085  0.2850  0.0583
  152MOL0     O20444   6.520   7.686  10.456 -0.8776 -0.6266 -0.1312
  152MOL0     C20445   6.626   7.587  10.489 -0.6933 -0.3882  0.3582
  152MOL0     C20446   6.767   7.642  10.480 -0.9426  0.7780 -0.0174
  152MOL0     C20447   6.866   7.525  10.463  0.4440 -0.0037  0.3698
  152MOL0     C20448   7.012   7.566  10.450  0.3357 -0.3542  0.1060
  152MOL0     C20449   7.096   7.447  10.441  0.0849 -0.1839 -0.9881
  152MOL0     C20450   7.174   7.349  10.441  0.4767  0.1586 -0.2758
  152MOL0     C20451   6.290   7.709  10.445  0.2569 -0.2203 -0.4117
  152MOL0     C20452   6.156   7.662  10.420 -1.1052 -0.1508  0.1254
  152MOL0     H20453   5.891   7.186  10.201  1.5568  2.9349 -1.1537
  152MOL0     H20454   5.666   7.126  10.136  1.1635  1.4465 -1.5167
  152MOL0     H20455   5.317   7.274  10.395  0.9928  1.7332 -0.1775
  152MOL0     H20456   5.325   7.369  10.241 -0.5996 -0.0965 -2.2090
  152MOL0     H20457   5.111   7.251  10.251 -0.6674 -0.6359  0.7599
  152MOL0     H20458   5.216   7.169  10.141 -2.6023  2.1169 -0.7083
  152MOL0     H20459   5.248   6.995  10.327 -0.5989 -1.9748  4.5575
  152MOL0     H20460   5.153   7.093  10.433 -0.7467 -0.7735 -0.6253
  152MOL0     H20461   4.962   7.092  10.253  2.2748  1.3552 -1.8758
  152MOL0     H20462   5.057   6.985  10.168  2.4753  1.5840  0.1953
  152MOL0     H20463   5.053   6.834  10.396  0.2880 -0.7465  0.6116
  152MOL0     H20464   4.945   6.954  10.451  1.9309  1.0155  0.1437
  152MOL0     H20465   4.802   6.936  10.260 -1.7864 -0.6341 -0.1268
  152MOL0     H20466   4.884   6.798  10.194  0.9776  1.8191 -0.9552
  152MOL0     H20467   4.830   6.659  10.400  0.0257 -0.0217 -1.9196
  152MOL0     H20468   4.766   6.796  10.483 -1.1957  2.4359 -1.3865
  152MOL0     H20469   4.577   6.824  10.299 -2.7840 -1.4895 -0.4720
  152MOL0     H20470   4.594   6.664  10.383  0.1230 -2.5727 -1.6131
  152MOL0     H20471   4.769   6.496  10.181  0.5883  1.0825 -0.2958
  152MOL0     H20472   4.658   6.487   9.802  1.4371 -2.8082 -2.4993
  152MOL0     H20473   4.815   6.436   9.868 -1.2102 -4.2310 -1.4655
  152MOL0     H20474   4.526   6.353   9.933 -0.2649 -0.7682  1.0725
  152MOL0     H20475   4.649   6.302  10.038 -1.8456 -0.2660  0.1818
  152MOL0     H20476   4.749   6.245   9.779 -1.6713  0.6680 -1.3733
  152MOL0     H20477   4.573   6.236   9.756 -1.4626 -0.2377  0.7572
  152MOL0     H20478   4.712   6.097   9.979 -0.9950  1.4128  1.2125
  152MOL0     H20479   4.662   6.017   9.821 -0.0959 -0.7629  0.0735
  152MOL0     H20480   4.493   5.859   9.782  0.0916 -0.5266  0.8580
  152MOL0     H20481   4.254   5.732   9.579  0.6505 -0.7334 -1.4573
  152MOL0     H20482   4.391   5.811   9.489  0.5180  1.7262 -0.2815
  152MOL0     H20483   4.406   5.714   9.642 -5.4927  0.0794  4.9806
  152MOL0     H20484   3.862   5.869   9.467  3.7720  1.0234 -1.4011
  152MOL0     H20485   3.650   5.869   9.336 -3.4713  1.7712  0.3112
  152MOL0     H20486   3.444   6.002   9.048  0.7652  1.2926 -0.8075
  152MOL0     H20487   3.588   5.920   9.114  0.7973  1.0567  0.5536
  152MOL0     H20488   3.384   5.797   9.179 -0.9890  0.0009  1.4957
  152MOL0     H20489   3.440   5.886   9.327  0.1454  0.1366  0.0425
  152MOL0     H20490   3.241   6.012   9.129 -0.2907  4.0767  1.4964
  152MOL0     H20491   3.291   6.083   9.262  0.6465 -0.9274  2.1807
  152MOL0     H20492   3.134   5.803   9.298 -3.3534  1.2706  1.0661
  152MOL0     H20493   3.186   5.917   9.424 -0.5030 -0.0656  1.5285
  152MOL0     H20494   3.001   5.986   9.182 -1.0761 -0.3912 -0.4144
  152MOL0     H20495   3.034   6.086   9.322 -0.8067 -0.0969 -1.0806
  152MOL0     H20496   2.896   5.824   9.300  0.8176  0.6678 -1.7377
  152MOL0     H20497   2.936   5.899   9.455  1.0208  0.8504  0.1856
  152MOL0     H20498   2.763   6.074   9.265  1.4509  1.1850  0.1905
  152MOL0     H20499   2.807   6.093   9.433  0.8380 -0.1818 -0.5353
  152MOL0     H20500   2.634   5.865   9.320 -1.2114  1.6848 -3.0586
  152MOL0     H20501   2.557   6.006   9.379 -0.0465  0.2849  1.9086
  152MOL0     H20502   3.720   6.280   9.240 -2.7707 -0.1656  0.1405
  152MOL0     H20503   3.930   6.277   9.359 -0.9593 -0.0580 -0.8685
  152MOL0     H20504   4.104   6.141   9.781  1.1288  1.4198  1.7616
  152MOL0     H20505   4.305   6.202   9.920 -0.5918  0.0380 -0.2791
  152MOL0     H20506   5.512   7.348  10.464  1.0645 -1.0418  0.2673
  152MOL0     H20507   5.750   7.426  10.526 -2.4159  0.4645  1.7373
  152MOL0     H20508   6.229   7.336  10.398 -2.1539 -0.4294  0.1898
  152MOL0     H20509   6.441   7.400  10.415 -2.5687 -2.8539 -0.8919
  152MOL0     H20510   6.607   7.549  10.590 -0.6521  4.6034  2.5287
  152MOL0     H20511   6.615   7.498  10.426  1.0540 -0.6441  0.3774
  152MOL0     H20512   6.795   7.693  10.573  0.1315 -1.0868  0.7381
  152MOL0     H20513   6.771   7.705  10.390  1.0792 -0.6624 -1.0027
  152MOL0     H20514   6.833   7.463  10.379  0.1139 -1.2325  1.3850
  152MOL0     H20515   6.851   7.455  10.545  2.0339  0.4997  1.1379
  152MOL0     H20516   7.031   7.628  10.539 -1.1978  0.2251  0.0613
  152MOL0     H20517   7.033   7.622  10.359 -0.8001  0.4677  0.3257
  152MOL0     H20518   7.240   7.265  10.434 -0.8788 -1.3431  3.0819
  152MOL0     H20519   6.308   7.811  10.477 -3.2603  0.4834 -0.3301
  152MOL0     H20520   6.082   7.741  10.404  0.7598  1.8557  0.9132
  153MOL0     O20521   8.215   8.605   0.411  0.6865 -0.2703  0.6753
  153MOL0     C20522   8.260   8.679   0.323  0.2755 -0.2410  0.2591
  153MOL0     O20523   8.190   8.782   0.258  0.6027 -0.5071 -0.5079
  153MOL0     C20524   8.055   8.798   0.283 -1.2574 -0.0637  0.5081
  153MOL0     C20525   7.974   8.789   0.168  0.4425 -0.5597 -0.1948
  153MOL0     C20526   7.831   8.810   0.187  0.4763  0.7990 -0.1005
  153MOL0     C20527   7.775   8.839   0.321  0.3336  0.0639  0.9056
  153MOL0     O20528   7.641   8.864   0.352  0.6420  0.6335  0.1968
  153MOL0     C20529   7.541   8.823   0.264 -0.4185  0.2281  0.1898
  153MOL0     C20530   7.422   8.897   0.306 -0.1130  0.1231  0.5381
  153MOL0     C20531   7.294   8.866   0.221  0.2285  0.2588  0.7377
  153MOL0     C20532   7.192   8.977   0.234  0.2344  0.4733  0.2275
  153MOL0     C20533   7.080   8.942   0.142  0.2925  0.1461  0.5926
  153MOL0     C20534   6.968   9.039   0.166  0.4657 -0.1251  0.1139
  153MOL0     C20535   6.871   9.030   0.055 -0.0689  0.1678  0.7631
  153MOL0     C20536   6.724   9.048   0.089 -0.6397  0.2311 -0.2023
  153MOL0     N20537   6.639   9.040  -0.033  0.2390 -0.1096  0.1906
  153MOL0     C20538   6.505   9.007  -0.044  0.2094 -1.1480  0.3695
  153MOL0     C20539   6.466   9.033  -0.173  0.5686  0.5707  0.4989
  153MOL0     C20540   6.325   8.994  -0.236 -0.5168  0.1894 -0.3087
  153MOL0     C20541   6.219   9.099  -0.203 -0.4704  0.2820 -0.3440
  153MOL0     C20542   6.084   9.032  -0.240  0.0527 -0.1199 -0.3508
  153MOL0     C20543   5.984   9.129  -0.292 -0.5465 -0.2143 -0.1984
  153MOL0     O20544   5.867   9.059  -0.330  0.3258  0.1186 -0.4508
  153MOL0     C20545   5.768   9.152  -0.374 -0.9094 -0.8184  1.2116
  153MOL0     C20546   5.785   9.294  -0.408 -0.3319  0.2753  0.3199
  153MOL0     C20547   5.683   9.375  -0.465 -0.2892 -0.0881 -0.6182
  153MOL0     C20548   5.731   9.506  -0.526  0.0862  0.2004  0.5824
  153MOL0     C20549   5.560   9.314  -0.488  0.0704 -0.5165 -0.5700
  153MOL0     C20550   5.451   9.381  -0.563  0.2626 -0.0904 -0.4825
  153MOL0     O20551   5.450   9.516  -0.569  0.5847  0.3433 -0.2416
  153MOL0     C20552   5.366   9.592  -0.649 -0.2206  1.0163  0.3082
  153MOL0     C20553   5.407   9.677  -0.756 -0.4627  0.4738 -0.2426
  153MOL0     C20554   5.309   9.734  -0.846 -0.4409 -0.3295 -0.5992
  153MOL0     C20555   5.170   9.709  -0.828 -0.2069 -0.2083 -0.7491
  153MOL0     O20556   5.082   9.770  -0.906 -0.7030 -0.8115  0.7518
  153MOL0     C20557   4.946   9.759  -0.897  0.3085 -0.1625  0.9312
  153MOL0     C20558   4.875   9.870  -0.817  0.0574  0.5753 -0.4181
  153MOL0     C20559   4.721   9.893  -0.819  0.3494 -0.7918  0.7463
  153MOL0     C20560   4.633   9.785  -0.752  0.6699 -0.3998 -0.0770
  153MOL0     C20561   4.480   9.819  -0.772  0.7610 -0.0619  0.3763
  153MOL0     C20562   4.402   9.696  -0.723 -0.2071  0.0856  0.1135
  153MOL0     C20563   4.253   9.713  -0.734  0.1555  0.4117 -0.2140
  153MOL0     C20564   4.175   9.591  -0.767  0.6522  0.3581 -0.3209
  153MOL0    Cl20565   4.133   9.518  -0.614  0.2964  0.0028 -0.3746
  153MOL0     C20566   5.134   9.615  -0.727 -0.1204  0.1627 -0.2616
  153MOL0     C20567   5.231   9.572  -0.628 -0.0155 -0.5425 -0.3442
  153MOL0     O20568   5.392   9.310  -0.645  0.0984 -0.2144 -0.2251
  153MOL0     C20569   5.545   9.181  -0.452  0.1247  0.2122 -0.0119
  153MOL0     C20570   5.649   9.095  -0.395  0.1925 -0.5304  0.1416
  153MOL0     N20571   6.572   9.087  -0.240  0.0610  0.9321 -0.2657
  153MOL0     N20572   6.677   9.083  -0.160  0.0522 -0.1078 -0.1993
  153MOL0     C20573   7.862   8.842   0.431  0.3289 -0.2026 -0.0243
  153MOL0     C20574   7.998   8.816   0.413 -0.6962 -0.3791 -0.2576
  153MOL0     C20575   8.408   8.678   0.294  0.3813  0.3592 -0.0021
  153MOL0     C20576   8.498   8.610   0.372  0.0593 -0.1992 -0.9939
  153MOL0     C20577   8.630   8.617   0.337  0.4222 -1.7468 -0.2807
  153MOL0     C20578   8.681   8.699   0.228 -0.5337 -0.0399  0.2539
  153MOL0     O20579   8.812   8.729   0.196  0.2846  0.2909  0.2352
  153MOL0     C20580   8.911   8.636   0.234 -0.0262 -0.2486  0.3247
  153MOL0     C20581   9.042   8.666   0.165 -0.5715 -1.8072  0.3035
  153MOL0     C20582   9.145   8.546   0.187  0.7819  0.3292  0.1642
  153MOL0     C20583   9.257   8.551   0.090  0.0438 -0.4373  0.6830
  153MOL0     C20584   9.343   8.431   0.093  0.3950  0.0490  0.7571
  153MOL0     C20585   9.408   8.327   0.100  0.3301  1.2815 -0.0482
  153MOL0     C20586   8.587   8.762   0.151 -0.7193 -0.3746 -0.1830
  153MOL0     C20587   8.448   8.753   0.179 -0.4007  0.6762 -0.4075
  153MOL0     H20588   8.009   8.762   0.069  1.2233  0.9523 -0.3604
  153MOL0     H20589   7.763   8.789   0.105 -1.7663  0.1542  1.8095
  153MOL0     H20590   7.570   8.850   0.162  0.6982  1.6210  0.8408
  153MOL0     H20591   7.522   8.716   0.270  1.5486 -0.0887  2.0035
  153MOL0     H20592   7.401   8.876   0.411 -1.7655  2.8287  0.8444
  153MOL0     H20593   7.441   9.005   0.312  0.3487  0.4873 -3.9619
  153MOL0     H20594   7.324   8.851   0.117 -1.7194  1.3859 -0.0397
  153MOL0     H20595   7.245   8.773   0.250 -4.3617  2.4111  0.7530
  153MOL0     H20596   7.168   8.969   0.340 -0.2316 -1.7015  0.0163
  153MOL0     H20597   7.235   9.074   0.207 -0.1419  0.8219  0.8571
  153MOL0     H20598   7.121   8.943   0.040  2.2240 -0.8656  1.3011
  153MOL0     H20599   7.048   8.838   0.157  1.8075 -0.2545  1.2064
  153MOL0     H20600   6.908   9.007   0.252 -1.0358  1.5208 -0.2468
  153MOL0     H20601   7.007   9.141   0.173  0.4540 -0.1870  1.3277
  153MOL0     H20602   6.893   9.107  -0.020 -0.7680  1.9822  2.3206
  153MOL0     H20603   6.894   8.934   0.008  0.5783 -1.1656  3.6206
  153MOL0     H20604   6.704   9.154   0.109 -1.5354 -0.0852  0.6665
  153MOL0     H20605   6.674   8.988   0.165 -0.3112  1.5637  1.1206
  153MOL0     H20606   6.450   8.970   0.043 -0.7571  0.0868  0.3200
  153MOL0     H20607   6.334   9.010  -0.343 -1.2515 -0.8722 -0.5428
  153MOL0     H20608   6.303   8.888  -0.226 -0.6486  0.2260 -0.2062
  153MOL0     H20609   6.230   9.179  -0.276 -3.0095 -2.2220 -3.7959
  153MOL0     H20610   6.222   9.139  -0.101 -0.8110 -0.7405  0.0858
  153MOL0     H20611   6.047   8.983  -0.150  1.1211  1.6562  1.1322
  153MOL0     H20612   6.098   8.952  -0.314 -1.6130 -0.9272  0.1747
  153MOL0     H20613   6.010   9.187  -0.380  2.8923  0.3202  1.0302
  153MOL0     H20614   5.965   9.193  -0.204 -0.9800 -2.4342  1.4112
  153MOL0     H20615   5.878   9.350  -0.414 -1.2800  1.8702 -5.1918
  153MOL0     H20616   5.693   9.512  -0.628 -4.4672 -3.4364  1.7026
  153MOL0     H20617   5.700   9.595  -0.471  2.1972 -0.7660  3.5585
  153MOL0     H20618   5.839   9.520  -0.532  0.3398 -0.2855  3.0126
  153MOL0     H20619   5.511   9.702  -0.769 -0.4721  0.0225 -1.2862
  153MOL0     H20620   5.349   9.805  -0.917  4.2651 -1.0301  0.9411
  153MOL0     H20621   4.903   9.768  -0.997 -0.5779  0.5252  1.3668
  153MOL0     H20622   4.912   9.660  -0.863  2.0853 -0.1380  3.0195
  153MOL0     H20623   4.898   9.854  -0.711 -1.1708  1.6033  0.0311
  153MOL0     H20624   4.914   9.968  -0.847 -0.6291  0.9648 -0.0688
  153MOL0     H20625   4.688   9.915  -0.922 -1.7921 -0.5642  1.4227
  153MOL0     H20626   4.700   9.980  -0.756 -0.3335 -2.5245  3.0493
  153MOL0     H20627   4.651   9.682  -0.782  1.1670 -1.2969  2.9838
  153MOL0     H20628   4.659   9.798  -0.647 -1.5853 -0.0228  0.4727
  153MOL0     H20629   4.458   9.839  -0.877 -1.6246  1.4132  1.0670
  153MOL0     H20630   4.445   9.905  -0.713 -0.7842 -1.2396  1.2494
  153MOL0     H20631   4.424   9.605  -0.781 -0.5605 -0.3340  0.6258
  153MOL0     H20632   4.426   9.669  -0.620  0.6440  0.3229 -0.0093
  153MOL0     H20633   4.235   9.787  -0.813  2.9041  0.1738 -1.1730
  153MOL0     H20634   4.211   9.759  -0.644  2.1422  1.2003  0.3604
  153MOL0     H20635   4.232   9.519  -0.827  0.6724 -0.0434  0.1772
  153MOL0     H20636   4.085   9.627  -0.818 -0.0059 -0.3118  0.3418
  153MOL0     H20637   5.028   9.606  -0.705  0.3391  1.4982  3.0453
  153MOL0     H20638   5.205   9.509  -0.544 -0.9108  0.9969  0.5794
  153MOL0     H20639   5.446   9.137  -0.462  1.3152 -2.1964 -2.7174
  153MOL0     H20640   5.634   8.989  -0.379 -1.2088 -1.0315 -3.4123
  153MOL0     H20641   7.821   8.859   0.530  0.5250  4.7396 -0.5748
  153MOL0     H20642   8.063   8.804   0.499  1.0290  2.9657 -0.9106
  153MOL0     H20643   8.471   8.563   0.466  1.4184  2.7047  0.9910
  153MOL0     H20644   8.694   8.560   0.404 -0.2574 -0.6148  1.3998
  153MOL0     H20645   8.921   8.628   0.343  1.0429  1.9176  0.4521
  153MOL0     H20646   8.879   8.544   0.185  1.7544  0.3228 -2.1153
  153MOL0     H20647   9.081   8.758   0.211 -4.8243 -0.0665  0.8794
  153MOL0     H20648   9.030   8.672   0.057  2.5818 -1.2109 -0.1177
  153MOL0     H20649   9.095   8.453   0.158  1.7855  0.0207 -0.6325
  153MOL0     H20650   9.184   8.546   0.289  1.7928 -1.9232 -0.1674
  153MOL0     H20651   9.311   8.643   0.113 -2.9794  1.2992  1.4165
  153MOL0     H20652   9.217   8.547  -0.012 -2.1051 -3.8600  1.4716
  153MOL0     H20653   9.460   8.234   0.113  1.2086  1.5301 -1.4803
  153MOL0     H20654   8.614   8.825   0.067  0.6646 -0.3479  0.2655
  153MOL0     H20655   8.383   8.793   0.101 -2.4087 -2.7523 -0.7280
  154MOL0     O20656   2.441   0.299  10.113  0.1424 -0.3390 -0.1713
  154MOL0     C20657   2.430   0.202  10.189 -0.2868 -0.2495 -0.1913
  154MOL0     O20658   2.530   0.136  10.254  0.1990  0.0146  0.5397
  154MOL0     C20659   2.660   0.179  10.244 -0.1949  0.1228  0.5719
  154MOL0     C20660   2.695   0.311  10.284 -0.1326 -0.1178  0.7905
  154MOL0     C20661   2.832   0.360  10.277  0.3354 -0.1701  0.0491
  154MOL0     C20662   2.932   0.264  10.263 -0.7501  0.3217  0.3087
  154MOL0     O20663   3.062   0.307  10.282 -0.8224  0.4008  0.4844
  154MOL0     C20664   3.173   0.207  10.283 -0.3606  0.5240 -0.6026
  154MOL0     C20665   3.299   0.280  10.314  0.1946 -0.2728  0.6748
  154MOL0     C20666   3.293   0.366  10.431 -0.1279  1.1736 -0.4492
  154MOL0     C20667   3.281   0.276  10.560  0.2059  0.3044  0.3147
  154MOL0     C20668   3.293   0.352  10.692 -0.1114  0.0698 -0.7122
  154MOL0     C20669   3.312   0.261  10.812 -0.1923  0.1502  0.4429
  154MOL0     C20670   3.268   0.324  10.939 -0.6460  0.4477 -0.1142
  154MOL0     C20671   3.117   0.320  10.953  0.3850 -0.5127 -0.7601
  154MOL0     N20672   3.048   0.454  10.972  0.6025  0.9158  0.0660
  154MOL0     C20673   2.960   0.476  11.075  0.2277  0.2065  0.5526
  154MOL0     C20674   2.932   0.604  11.050  0.2171  0.4897  1.0996
  154MOL0     C20675   2.847   0.703  11.120  0.8453 -0.1065  0.2486
  154MOL0     C20676   2.698   0.679  11.114  1.0896  0.2122  0.7433
  154MOL0     C20677   2.647   0.699  10.963 -0.2138  0.6732  0.2083
  154MOL0     C20678   2.495   0.707  10.956  0.6917  0.5030  0.0107
  154MOL0     O20679   2.442   0.584  10.995  0.5236  0.4533 -1.2746
  154MOL0     C20680   2.304   0.578  11.004  0.6483 -0.0994  0.7566
  154MOL0     C20681   2.210   0.659  10.937  1.1011 -0.5771  1.0240
  154MOL0     C20682   2.070   0.624  10.938 -0.4228 -0.0654  0.3799
  154MOL0     C20683   1.982   0.714  10.857  0.4636 -0.6353  0.7161
  154MOL0     C20684   2.023   0.519  11.013  0.6969 -0.1266  0.7320
  154MOL0     C20685   1.877   0.506  11.041  0.0778  0.1567 -0.2475
  154MOL0     O20686   1.823   0.376  11.048  0.1303  0.0472  0.0949
  154MOL0     C20687   1.691   0.354  11.092  0.1530 -0.0085  0.1417
  154MOL0     C20688   1.670   0.234  11.156  0.3111  0.4045 -0.2102
  154MOL0     C20689   1.535   0.197  11.188 -0.1266  0.5611  1.5163
  154MOL0     C20690   1.428   0.283  11.158  0.4854  0.1465  0.1021
  154MOL0     O20691   1.309   0.239  11.190  1.0206 -0.2378  0.6518
  154MOL0     C20692   1.278   0.201  11.332 -1.0076 -0.4672  0.0406
  154MOL0     C20693   1.277   0.314  11.439  0.6634 -0.0849 -0.1949
  154MOL0     C20694   1.183   0.436  11.409  0.2102  0.2229 -1.4755
  154MOL0     C20695   1.040   0.398  11.434  0.8268  0.7132  0.5495
  154MOL0     C20696   0.947   0.507  11.382  0.2724  0.4662 -0.3227
  154MOL0     C20697   0.795   0.471  11.391  1.2893 -0.4827 -0.1424
  154MOL0     C20698   0.710   0.601  11.385  0.6906  0.6016  0.0164
  154MOL0     C20699   0.561   0.576  11.406 -0.0535 -0.5245 -0.1304
  154MOL0    Cl20700   0.497   0.442  11.298  0.3321 -0.0686 -0.3426
  154MOL0     C20701   1.457   0.407  11.099 -0.2705  0.6411 -0.1776
  154MOL0     C20702   1.586   0.444  11.065 -1.0994  0.1266 -1.2133
  154MOL0     O20703   1.827   0.613  11.077  0.5420  0.2053 -0.0950
  154MOL0     C20704   2.119   0.435  11.078 -0.1961 -0.1835  0.4141
  154MOL0     C20705   2.252   0.467  11.071 -0.3022 -0.1456 -0.4007
  154MOL0     N20706   2.992   0.654  10.934  0.1589  1.1090 -0.2261
  154MOL0     N20707   3.060   0.557  10.881 -1.0876 -0.4934  0.8812
  154MOL0     C20708   2.897   0.126  10.228  0.4912 -0.4880  0.3849
  154MOL0     C20709   2.765   0.087  10.219  0.0199  0.4288 -0.5238
  154MOL0     C20710   2.288   0.171  10.216  0.3411  0.9643 -0.6753
  154MOL0     C20711   2.182   0.248  10.166 -0.3352  0.3078  1.0063
  154MOL0     C20712   2.057   0.199  10.178  0.1079 -0.1362 -0.2035
  154MOL0     C20713   2.024   0.089  10.257 -1.5979 -0.0879  1.0023
  154MOL0     O20714   1.891   0.047  10.273 -0.1426 -0.0015 -0.6522
  154MOL0     C20715   1.807   0.074  10.161  0.4882 -0.2785  0.0888
  154MOL0     C20716   1.683  -0.010  10.175  0.1502  0.8461  0.8360
  154MOL0     C20717   1.618   0.009  10.315  0.8635 -0.5705  0.0719
  154MOL0     C20718   1.471  -0.027  10.312  0.7788 -0.1578  0.3539
  154MOL0     C20719   1.437  -0.167  10.297 -0.3907  0.6463  0.8139
  154MOL0     C20720   1.424  -0.290  10.297 -0.0926 -0.2873  0.3407
  154MOL0     C20721   2.128   0.016  10.317 -0.1348  0.1931  0.6122
  154MOL0     C20722   2.262   0.059  10.290  0.0084  0.4893 -0.3615
  154MOL0     H20723   2.617   0.382  10.310 -0.5726 -0.9751  1.8984
  154MOL0     H20724   2.858   0.464  10.297  1.1794  0.0370 -1.8861
  154MOL0     H20725   3.151   0.116  10.340 -0.7591 -1.1744 -3.2706
  154MOL0     H20726   3.173   0.166  10.181  0.0903  0.5570 -0.6151
  154MOL0     H20727   3.385   0.211  10.311 -0.1374 -0.6590 -1.4839
  154MOL0     H20728   3.307   0.352  10.232 -0.7454 -0.1041  0.7293
  154MOL0     H20729   3.387   0.420  10.425 -0.1838  1.1284 -2.5591
  154MOL0     H20730   3.205   0.431  10.432  0.1324  1.5998 -1.9101
  154MOL0     H20731   3.188   0.218  10.559  0.7930 -0.6921 -1.4613
  154MOL0     H20732   3.365   0.205  10.553  0.3548  0.5099  0.0170
  154MOL0     H20733   3.373   0.426  10.690  0.2982 -0.0445 -6.4924
  154MOL0     H20734   3.204   0.413  10.709  0.2856 -0.0209  2.1985
  154MOL0     H20735   3.258   0.170  10.785  1.8529 -1.2400  0.8475
  154MOL0     H20736   3.417   0.232  10.817  0.3698  1.9524 -0.2292
  154MOL0     H20737   3.304   0.268  11.026  0.4320  0.5863 -0.4637
  154MOL0     H20738   3.297   0.428  10.954  0.5082  0.3912 -1.7520
  154MOL0     H20739   3.097   0.263  11.044  4.1157  0.7012  1.0590
  154MOL0     H20740   3.066   0.284  10.864 -0.7891  1.9927 -1.1750
  154MOL0     H20741   2.930   0.412  11.157  0.0984  0.8999  1.0537
  154MOL0     H20742   2.880   0.696  11.224  3.0657  1.6270 -0.2521
  154MOL0     H20743   2.879   0.803  11.090 -0.4492  0.0513 -0.6814
  154MOL0     H20744   2.639   0.725  11.194 -0.3890  1.2040 -0.8359
  154MOL0     H20745   2.678   0.573  11.131  0.2336 -1.1807 -6.0200
  154MOL0     H20746   2.664   0.609  10.903 -0.9301 -1.1862  2.5891
  154MOL0     H20747   2.689   0.790  10.920 -0.2579  1.6133  2.0601
  154MOL0     H20748   2.467   0.730  10.853 -1.4085  1.7589  0.7918
  154MOL0     H20749   2.470   0.795  11.017  0.8528  1.2361 -0.9524
  154MOL0     H20750   2.241   0.746  10.881  0.1887  0.0192  1.4081
  154MOL0     H20751   1.943   0.797  10.918  0.2498 -1.5857  1.9106
  154MOL0     H20752   2.047   0.764  10.784  1.3947 -0.9668  1.2945
  154MOL0     H20753   1.909   0.647  10.812  2.8091 -1.5507 -1.9899
  154MOL0     H20754   1.752   0.166  11.178 -0.6481 -1.4737 -2.1263
  154MOL0     H20755   1.515   0.098  11.230 -3.3028  0.4496  0.0784
  154MOL0     H20756   1.188   0.139  11.341 -1.5729  0.4585  1.1261
  154MOL0     H20757   1.365   0.145  11.366 -0.5943 -0.9329 -1.7294
  154MOL0     H20758   1.251   0.269  11.534 -0.8328  2.7846  0.8897
  154MOL0     H20759   1.381   0.349  11.442  0.8318 -0.0207 -3.1454
  154MOL0     H20760   1.208   0.468  11.307  2.5456  2.1269 -0.4040
  154MOL0     H20761   1.215   0.522  11.469  0.6195 -1.1041  0.2619
  154MOL0     H20762   1.027   0.311  11.370  1.8110  0.3137  0.8675
  154MOL0     H20763   1.024   0.374  11.539  0.2030  1.3884  0.6128
  154MOL0     H20764   0.962   0.528  11.276 -0.2753  1.6796 -0.1815
  154MOL0     H20765   0.971   0.604  11.428  1.6381  1.3488 -2.7390
  154MOL0     H20766   0.763   0.411  11.306 -1.1137  0.6882 -0.1408
  154MOL0     H20767   0.773   0.427  11.488  0.3146  2.9427  1.3714
  154MOL0     H20768   0.725   0.647  11.287  1.5643 -0.8054 -0.5533
  154MOL0     H20769   0.733   0.673  11.465  1.3203  0.6288 -0.1782
  154MOL0     H20770   0.494   0.656  11.374 -0.8521 -1.1067  0.0448
  154MOL0     H20771   0.537   0.550  11.509 -3.4723  2.2169 -0.0320
  154MOL0     H20772   1.367   0.460  11.069 -2.3056 -2.9712 -1.0762
  154MOL0     H20773   1.598   0.539  11.014  1.8797  0.3459 -0.2809
  154MOL0     H20774   2.083   0.357  11.144 -1.0647  0.1850  0.3937
  154MOL0     H20775   2.315   0.394  11.121 -2.2618 -2.4428 -1.0580
  154MOL0     H20776   2.967   0.051  10.193 -0.7342 -0.8827 -1.4022
  154MOL0     H20777   2.746  -0.017  10.193 -2.1546  1.4281 -3.4546
  154MOL0     H20778   2.205   0.350  10.135  0.8213 -0.4089 -0.6128
  154MOL0     H20779   1.989   0.273  10.136 -0.2576  1.7667  3.3880
  154MOL0     H20780   1.779   0.179  10.172 -3.2006 -1.2771  1.9073
  154MOL0     H20781   1.856   0.057  10.065  1.0141  1.8424 -0.0714
  154MOL0     H20782   1.705  -0.117  10.162 -4.1239 -0.4092  2.2274
  154MOL0     H20783   1.620   0.007  10.087  1.6874 -1.2230 -0.7615
  154MOL0     H20784   1.634   0.110  10.354  2.8309 -0.5395 -0.6759
  154MOL0     H20785   1.675  -0.058  10.379  0.9443 -0.9634 -0.4116
  154MOL0     H20786   1.439   0.024  10.220  3.3696  1.3482  0.1912
  154MOL0     H20787   1.428   0.015  10.403  0.6101 -0.5443  0.4545
  154MOL0     H20788   1.410  -0.396  10.293  1.7541 -0.5499 -0.0744
  154MOL0     H20789   2.110  -0.076  10.372  1.0775 -1.1318 -1.0924
  154MOL0     H20790   2.338  -0.006  10.331 -0.5729 -0.6439 -1.0052
  155MOL0     O20791   2.461   6.242   3.432  0.1766 -0.2672  0.1033
  155MOL0     C20792   2.453   6.131   3.478  0.2977 -0.2960 -0.1471
  155MOL0     O20793   2.338   6.072   3.517  0.7303 -0.0121 -0.5706
  155MOL0     C20794   2.212   6.134   3.511  0.5400  0.8325 -1.3354
  155MOL0     C20795   2.114   6.094   3.604 -0.1891 -0.6873 -0.2694
  155MOL0     C20796   1.985   6.152   3.612 -0.1133 -0.9007  0.0892
  155MOL0     C20797   1.949   6.252   3.521 -0.2516  0.3578  0.9747
  155MOL0     O20798   1.825   6.310   3.509  0.0126 -0.1906 -0.2425
  155MOL0     C20799   1.723   6.264   3.596 -0.0260 -0.5706  0.2914
  155MOL0     C20800   1.591   6.344   3.569 -0.0185  0.0242 -0.4463
  155MOL0     C20801   1.537   6.308   3.428 -0.3224  0.6492 -0.5211
  155MOL0     C20802   1.386   6.333   3.418  0.2352 -0.0320 -0.4271
  155MOL0     C20803   1.333   6.287   3.281  0.5176  0.3550  0.1269
  155MOL0     C20804   1.185   6.305   3.259 -0.8428 -0.6290  0.2781
  155MOL0     C20805   1.145   6.448   3.234 -0.2786  0.3647  0.3127
  155MOL0     C20806   1.176   6.491   3.083 -0.1515 -0.0229 -1.1291
  155MOL0     N20807   1.104   6.611   3.053 -0.0279  0.0551  0.2615
  155MOL0     C20808   1.102   6.741   3.113 -1.6746 -0.0365 -0.5642
  155MOL0     C20809   1.008   6.803   3.048 -0.1112 -0.0236 -0.7743
  155MOL0     C20810   0.966   6.941   3.091 -1.2682 -0.6358 -0.8005
  155MOL0     C20811   0.859   6.934   3.211  0.1884  0.5669  0.2665
  155MOL0     C20812   0.730   6.873   3.175 -0.5711  0.1067 -1.0414
  155MOL0     C20813   0.670   6.941   3.058 -0.7084  0.0310  0.2946
  155MOL0     O20814   0.527   6.918   3.061 -0.0838 -0.2572  0.2166
  155MOL0     C20815   0.453   7.000   3.137  0.1804 -0.4895 -0.3759
  155MOL0     C20816   0.314   6.982   3.135 -0.2680  0.1002 -0.2127
  155MOL0     C20817   0.228   7.064   3.209  0.1040 -0.1588  0.4520
  155MOL0     C20818   0.082   7.052   3.169  0.1457 -0.1396  0.8885
  155MOL0     C20819   0.275   7.169   3.287 -0.3853 -0.9774 -0.1366
  155MOL0     C20820   0.190   7.254   3.371  0.3340  0.2298 -0.1015
  155MOL0     O20821   0.077   7.201   3.432  0.4308 -0.1386  0.6663
  155MOL0     C20822   0.001   7.290   3.502 -0.4583 -0.2140 -0.0446
  155MOL0     C20823  -0.126   7.305   3.452  0.1648  0.1951 -0.9951
  155MOL0     C20824  -0.206   7.399   3.514  0.7285 -0.5235 -0.3300
  155MOL0     C20825  -0.163   7.484   3.622 -0.5491  0.4295  0.0475
  155MOL0     O20826  -0.245   7.569   3.699  0.1497  0.3210 -0.5666
  155MOL0     C20827  -0.394   7.565   3.666 -0.2961  0.0106 -0.0155
  155MOL0     C20828  -0.456   7.645   3.778 -1.1149 -0.4255  0.7349
  155MOL0     C20829  -0.603   7.644   3.766 -0.1914  0.3236  0.3978
  155MOL0     C20830  -0.669   7.748   3.858 -0.8596  0.2431  0.6267
  155MOL0     C20831  -0.648   7.729   4.000 -0.0725  0.2141  0.5531
  155MOL0     C20832  -0.736   7.816   4.088  0.2962 -0.2022  0.0400
  155MOL0     C20833  -0.723   7.751   4.226  0.3185  0.7028  0.5651
  155MOL0     C20834  -0.816   7.784   4.342 -0.5099 -0.0629  0.5219
  155MOL0    Cl20835  -0.965   7.878   4.301 -0.4903 -0.0119 -0.2609
  155MOL0     C20836  -0.031   7.466   3.662 -0.6000  0.1405 -0.6571
  155MOL0     C20837   0.050   7.375   3.601  0.3223  0.0817  1.1508
  155MOL0     O20838   0.214   7.372   3.349 -0.1136 -0.1117 -0.0358
  155MOL0     C20839   0.415   7.183   3.305 -0.0937  0.0894  0.4664
  155MOL0     C20840   0.502   7.098   3.228  0.6096  0.4492 -0.5480
  155MOL0     N20841   0.948   6.723   2.957 -0.2120  0.6795 -0.3824
  155MOL0     N20842   1.005   6.608   2.956 -0.2805 -0.0926 -0.0227
  155MOL0     C20843   2.045   6.278   3.423 -0.9729  0.5585  0.2605
  155MOL0     C20844   2.174   6.219   3.412 -0.4094 -0.7872  0.1638
  155MOL0     C20845   2.585   6.062   3.494 -1.1076 -0.5230  0.4398
  155MOL0     C20846   2.598   5.929   3.525 -1.0110  0.2877  0.3215
  155MOL0     C20847   2.717   5.869   3.557 -0.2503  0.1440  0.7100
  155MOL0     C20848   2.841   5.932   3.530 -0.1385 -0.1711  0.8548
  155MOL0     O20849   2.950   5.853   3.552  0.1840 -0.4268  0.0468
  155MOL0     C20850   3.073   5.900   3.493 -0.0348  0.1462 -0.4059
  155MOL0     C20851   3.066   5.895   3.340 -0.0674  0.3273 -0.1337
  155MOL0     C20852   3.021   5.759   3.274 -0.1552 -0.5915 -0.3015
  155MOL0     C20853   3.003   5.776   3.124 -1.0864 -0.3172  0.3023
  155MOL0     C20854   2.971   5.642   3.074 -0.5033 -0.2957  0.1779
  155MOL0     C20855   2.928   5.532   3.044  0.0702  0.5430  0.2131
  155MOL0     C20856   2.833   6.068   3.491  0.5808 -0.2999  0.0215
  155MOL0     C20857   2.704   6.136   3.488  0.1985 -0.2543  0.4845
  155MOL0     H20858   2.145   6.014   3.672 -3.1039 -0.3947  1.6118
  155MOL0     H20859   1.920   6.119   3.692 -0.0162  2.7441  1.8426
  155MOL0     H20860   1.715   6.159   3.566  1.2054 -0.1505 -1.6851
  155MOL0     H20861   1.741   6.274   3.703 -0.2476 -0.1257  0.2889
  155MOL0     H20862   1.510   6.310   3.634  0.1605  2.2362  1.0434
  155MOL0     H20863   1.587   6.452   3.588  0.7295  0.6112 -3.1292
  155MOL0     H20864   1.601   6.362   3.358  2.8149 -1.8542  0.1866
  155MOL0     H20865   1.557   6.202   3.413 -4.0907 -0.6417  1.9927
  155MOL0     H20866   1.328   6.282   3.494  0.6727 -1.2993 -0.9258
  155MOL0     H20867   1.376   6.442   3.427  2.2314  0.1084  0.7107
  155MOL0     H20868   1.378   6.355   3.208 -1.0319 -0.6753 -1.8999
  155MOL0     H20869   1.360   6.184   3.254 -2.0037  0.1197 -1.8321
  155MOL0     H20870   1.155   6.255   3.167  0.2681 -1.6265  0.4341
  155MOL0     H20871   1.120   6.268   3.339 -1.8285 -0.8526 -0.6208
  155MOL0     H20872   1.037   6.444   3.249 -0.3289 -1.0407 -0.2127
  155MOL0     H20873   1.196   6.513   3.305  4.4577 -2.0379 -0.4639
  155MOL0     H20874   1.166   6.406   3.015  1.5961 -1.5807  0.4352
  155MOL0     H20875   1.281   6.519   3.080  0.0258 -0.5223 -0.0932
  155MOL0     H20876   1.167   6.782   3.189 -0.3351  0.7122 -2.0623
  155MOL0     H20877   1.059   6.987   3.125 -1.3959 -2.4113  2.3521
  155MOL0     H20878   0.928   6.996   3.004  0.9234 -1.1521 -2.1702
  155MOL0     H20879   0.850   7.029   3.264 -1.3128 -0.5904  2.2273
  155MOL0     H20880   0.910   6.866   3.279  1.4541 -0.3966 -1.5581
  155MOL0     H20881   0.670   6.883   3.266  0.5865 -0.5845 -0.1676
  155MOL0     H20882   0.740   6.766   3.151  1.8258  0.6514 -2.8869
  155MOL0     H20883   0.726   6.887   2.980  0.8221  0.9002  0.7632
  155MOL0     H20884   0.703   7.045   3.050  1.9813 -0.7514  0.2518
  155MOL0     H20885   0.273   6.906   3.068 -2.2117 -0.4195  1.4576
  155MOL0     H20886   0.036   7.150   3.157 -1.3075 -0.6041  2.3536
  155MOL0     H20887   0.062   7.000   3.075  0.3579  1.6459 -0.2037
  155MOL0     H20888   0.025   7.001   3.247  0.2941  0.3810  1.3482
  155MOL0     H20889  -0.153   7.246   3.365  1.1002 -0.5690 -0.7857
  155MOL0     H20890  -0.308   7.389   3.478  1.3601 -1.0255 -2.0559
  155MOL0     H20891  -0.409   7.612   3.568 -0.5395  1.0847  0.5198
  155MOL0     H20892  -0.425   7.460   3.665  1.2925 -0.5250  1.6835
  155MOL0     H20893  -0.421   7.607   3.875  1.2015 -1.1219 -0.3182
  155MOL0     H20894  -0.416   7.744   3.759 -1.2016 -0.3081  1.1421
  155MOL0     H20895  -0.632   7.545   3.803  0.3062  0.0358  0.0495
  155MOL0     H20896  -0.641   7.654   3.664  0.4937 -2.0293 -0.1748
  155MOL0     H20897  -0.638   7.848   3.827  0.8235 -0.7282 -1.0478
  155MOL0     H20898  -0.776   7.741   3.838 -0.6242  1.0591 -1.0923
  155MOL0     H20899  -0.542   7.752   4.010  0.4375 -0.6623 -2.0837
  155MOL0     H20900  -0.650   7.624   4.031  0.2926 -0.0085 -0.1657
  155MOL0     H20901  -0.694   7.917   4.086 -1.2496  0.4854  0.6900
  155MOL0     H20902  -0.836   7.825   4.044  0.8344  0.6222 -1.0794
  155MOL0     H20903  -0.618   7.766   4.251  0.5392 -1.2140  0.9841
  155MOL0     H20904  -0.734   7.643   4.211  0.6504  0.6729  0.5508
  155MOL0     H20905  -0.757   7.852   4.404  0.6838  0.4849 -1.1517
  155MOL0     H20906  -0.847   7.698   4.403 -0.2934  1.9640  3.7265
  155MOL0     H20907  -0.004   7.532   3.743  2.1712 -3.9116  2.1393
  155MOL0     H20908   0.150   7.362   3.640 -0.2533 -2.9058  1.8712
  155MOL0     H20909   0.461   7.266   3.357  2.0624 -0.0208 -1.1342
  155MOL0     H20910   0.606   7.127   3.235  0.9601 -1.0607  3.6411
  155MOL0     H20911   2.010   6.336   3.338 -1.0685  0.1051 -0.0121
  155MOL0     H20912   2.237   6.251   3.331 -0.7307  1.2538  0.6543
  155MOL0     H20913   2.509   5.867   3.528 -1.9301  1.5027 -0.8960
  155MOL0     H20914   2.711   5.763   3.577 -1.5835 -0.2914 -1.5880
  155MOL0     H20915   3.095   5.997   3.539 -4.1330  0.1343  2.0273
  155MOL0     H20916   3.144   5.829   3.537 -0.6192  0.7301  1.5800
  155MOL0     H20917   3.167   5.926   3.311 -0.2173 -0.1901 -1.2201
  155MOL0     H20918   2.990   5.964   3.303  0.6475  1.2439  0.0575
  155MOL0     H20919   2.933   5.718   3.324  0.1127 -0.6749  0.1136
  155MOL0     H20920   3.103   5.690   3.297 -0.1050 -0.8533 -1.2506
  155MOL0     H20921   3.098   5.807   3.078 -0.5654 -1.6189  0.4499
  155MOL0     H20922   2.923   5.847   3.105  1.6446  2.8867 -0.2683
  155MOL0     H20923   2.885   5.440   3.012  0.1252  0.5224  0.1987
  155MOL0     H20924   2.921   6.130   3.480  0.4671 -0.3859 -1.6870
  155MOL0     H20925   2.702   6.242   3.464  1.0621 -0.9592 -3.1998
  156MOL0     O20926   3.313   4.934   2.936 -0.5331 -0.3706  0.3252
  156MOL0     C20927   3.279   4.950   2.815 -0.0485  0.1314 -0.2119
  156MOL0     O20928   3.174   4.899   2.761  0.0755 -0.1057 -0.6490
  156MOL0     C20929   3.099   4.813   2.833  0.6060  0.0200 -0.0311
  156MOL0     C20930   3.101   4.676   2.814 -0.0627  0.1861 -0.4445
  156MOL0     C20931   3.010   4.594   2.887  0.2957  0.0006 -0.5039
  156MOL0     C20932   2.904   4.648   2.966  0.3995  0.2473  0.3552
  156MOL0     O20933   2.816   4.571   3.032 -0.0665 -0.3926 -0.6620
  156MOL0     C20934   2.844   4.445   3.082  0.3088 -0.6591 -0.0691
  156MOL0     C20935   2.970   4.428   3.174  0.6678  0.3148  0.6212
  156MOL0     C20936   3.005   4.282   3.205 -0.3681 -0.8656  0.4908
  156MOL0     C20937   3.030   4.196   3.085 -0.5760 -0.4939 -0.9220
  156MOL0     C20938   3.168   4.234   3.026  0.0275  0.3647  1.0099
  156MOL0     C20939   3.188   4.166   2.895  0.4513 -0.1298 -0.2297
  156MOL0     C20940   3.323   4.208   2.833  0.1905  0.2676  0.2908
  156MOL0     C20941   3.296   4.323   2.740  0.0407  0.7142 -0.4028
  156MOL0     N20942   3.403   4.322   2.640 -0.2641  0.3759  0.2139
  156MOL0     C20943   3.535   4.332   2.652 -0.8525  0.7044  0.1348
  156MOL0     C20944   3.589   4.345   2.532  0.5655 -0.4016  0.7732
  156MOL0     C20945   3.730   4.343   2.490  0.7803 -0.0195 -0.0316
  156MOL0     C20946   3.779   4.486   2.480 -0.1567  0.2911  0.6080
  156MOL0     C20947   3.901   4.473   2.383  0.6722  0.1508 -0.2093
  156MOL0     C20948   3.968   4.606   2.370  0.1229 -0.4451  0.5850
  156MOL0     O20949   4.103   4.603   2.309 -0.1251  0.1232 -0.1027
  156MOL0     C20950   4.211   4.628   2.391 -0.9892  0.2664 -0.5824
  156MOL0     C20951   4.209   4.648   2.534  0.2322  0.5333 -0.1465
  156MOL0     C20952   4.327   4.663   2.610 -0.1903 -0.1366 -0.2561
  156MOL0     C20953   4.312   4.656   2.762  0.0508 -0.0261 -0.0372
  156MOL0     C20954   4.455   4.680   2.542 -0.7812  0.7951  0.0483
  156MOL0     C20955   4.580   4.723   2.604  0.5561 -0.3734 -0.5158
  156MOL0     O20956   4.682   4.738   2.518  0.0442  0.2648 -0.5835
  156MOL0     C20957   4.790   4.805   2.549  0.0282 -0.1255 -0.1652
  156MOL0     C20958   4.794   4.937   2.596 -0.3647 -0.3839 -0.3094
  156MOL0     C20959   4.907   5.009   2.619 -0.1311 -0.2396  1.2648
  156MOL0     C20960   5.037   4.957   2.586 -0.0888  0.8549 -0.1634
  156MOL0     O20961   5.156   5.003   2.617 -0.3513  0.4092  0.1166
  156MOL0     C20962   5.175   5.144   2.649  0.0148  0.1641  0.5539
  156MOL0     C20963   5.326   5.175   2.659  0.1964 -0.5933  0.3400
  156MOL0     C20964   5.348   5.326   2.691  0.2483 -0.1998 -0.9790
  156MOL0     C20965   5.493   5.380   2.699  0.1976  0.1783 -0.1067
  156MOL0     C20966   5.591   5.313   2.786  0.5394  0.3422 -0.2638
  156MOL0     C20967   5.706   5.402   2.828  0.0202  0.3701 -1.3130
  156MOL0     C20968   5.815   5.309   2.887  0.0836 -0.2744 -0.0229
  156MOL0     C20969   5.917   5.389   2.974 -0.2774 -0.4437 -0.1601
  156MOL0    Cl20970   6.002   5.531   2.888 -0.2090  0.1720  0.0673
  156MOL0     C20971   5.036   4.829   2.528 -0.0516 -0.6552  0.1537
  156MOL0     C20972   4.920   4.752   2.504  0.2066 -0.1607 -0.6060
  156MOL0     O20973   4.572   4.782   2.714  0.6124  0.8698  0.0316
  156MOL0     C20974   4.457   4.655   2.398 -0.3260 -0.1453  0.2524
  156MOL0     C20975   4.343   4.639   2.319 -0.0436  0.6340 -0.2318
  156MOL0     N20976   3.483   4.342   2.439 -0.1642 -1.1999 -0.2891
  156MOL0     N20977   3.374   4.333   2.507 -0.2587 -0.4067 -0.1999
  156MOL0     C20978   2.902   4.785   2.972  0.5280 -0.2546  0.9381
  156MOL0     C20979   2.995   4.870   2.909 -0.3887 -0.1440 -0.3375
  156MOL0     C20980   3.369   5.032   2.723 -0.2466 -0.3406 -0.0466
  156MOL0     C20981   3.336   5.080   2.596  0.4240  0.0211  0.6369
  156MOL0     C20982   3.429   5.152   2.515 -0.2819  0.4467 -0.4570
  156MOL0     C20983   3.553   5.191   2.559  0.5621  0.2066 -0.2987
  156MOL0     O20984   3.626   5.262   2.482 -0.3450 -0.1935 -0.0701
  156MOL0     C20985   3.760   5.290   2.519  0.4232 -0.9722  0.3038
  156MOL0     C20986   3.829   5.376   2.403  0.0542  0.7180 -0.4943
  156MOL0     C20987   3.966   5.412   2.447 -0.0601  0.1566 -0.2288
  156MOL0     C20988   4.062   5.446   2.328  0.9119  0.2894 -0.1569
  156MOL0     C20989   4.195   5.436   2.381 -0.3475 -0.0529 -0.2845
  156MOL0     C20990   4.306   5.435   2.439  0.2093  0.0705  0.1291
  156MOL0     C20991   3.587   5.150   2.689  0.6747 -0.1494 -0.2197
  156MOL0     C20992   3.497   5.066   2.768 -0.3388  0.2544  0.6829
  156MOL0     H20993   3.173   4.641   2.741  1.3123  2.1346 -0.1044
  156MOL0     H20994   2.999   4.488   2.868  0.1445  0.2093 -1.6317
  156MOL0     H20995   2.753   4.414   3.134 -0.0956  1.7789  0.8196
  156MOL0     H20996   2.851   4.372   3.000 -0.7960 -2.1177  1.0760
  156MOL0     H20997   3.058   4.468   3.122 -0.6762  1.2720 -1.0202
  156MOL0     H20998   2.963   4.479   3.270  0.4579  0.0666  0.7403
  156MOL0     H20999   3.091   4.272   3.271  1.2867  1.6196 -1.1379
  156MOL0     H21000   2.925   4.243   3.269  0.5636  0.9070  2.8888
  156MOL0     H21001   3.051   4.095   3.120 -0.1623 -0.0714  0.0958
  156MOL0     H21002   2.946   4.201   3.014 -1.4563 -1.2742  0.0199
  156MOL0     H21003   3.175   4.342   3.012 -1.3024  0.0690 -3.6091
  156MOL0     H21004   3.251   4.198   3.088  0.2529 -0.9885 -0.0307
  156MOL0     H21005   3.192   4.057   2.907  4.3722  0.0203  1.4193
  156MOL0     H21006   3.101   4.192   2.834 -0.3963 -2.6320 -0.2050
  156MOL0     H21007   3.396   4.240   2.908  1.9523 -2.2833 -0.1930
  156MOL0     H21008   3.355   4.114   2.787  2.1789  0.6646  0.7925
  156MOL0     H21009   3.317   4.413   2.798  1.7306 -0.2984  0.6217
  156MOL0     H21010   3.197   4.325   2.693 -0.8119  0.3856  1.3358
  156MOL0     H21011   3.590   4.331   2.745 -2.3144  1.0047  1.0481
  156MOL0     H21012   3.787   4.278   2.558 -0.8302  0.3600  1.7686
  156MOL0     H21013   3.734   4.294   2.392 -0.3018 -3.2590  1.4165
  156MOL0     H21014   3.806   4.529   2.577 -1.2789  0.6065  0.7982
  156MOL0     H21015   3.706   4.555   2.437  0.3623  0.6886  0.3437
  156MOL0     H21016   3.860   4.454   2.283 -3.2983 -1.7401  1.5340
  156MOL0     H21017   3.965   4.392   2.420 -1.4543 -2.4667 -1.8845
  156MOL0     H21018   3.966   4.663   2.463  0.0749  2.2062 -0.9414
  156MOL0     H21019   3.893   4.653   2.306 -0.3726 -1.6759  0.2246
  156MOL0     H21020   4.121   4.656   2.596 -0.1833  0.1365 -0.6812
  156MOL0     H21021   4.384   4.579   2.794  1.5214  0.8881 -1.0360
  156MOL0     H21022   4.335   4.753   2.806 -0.2351  0.6029 -1.2422
  156MOL0     H21023   4.218   4.624   2.809 -1.0784  0.5352 -1.8198
  156MOL0     H21024   4.705   4.993   2.622  1.2098  1.5565  1.2706
  156MOL0     H21025   4.893   5.112   2.652  2.1922  0.5468  0.0565
  156MOL0     H21026   5.132   5.215   2.578 -1.2787 -1.1875 -0.0813
  156MOL0     H21027   5.125   5.157   2.746 -0.5726  0.7017  0.1840
  156MOL0     H21028   5.375   5.114   2.736  1.5710 -1.6165 -1.2569
  156MOL0     H21029   5.377   5.152   2.565  2.3447 -1.4120  1.6072
  156MOL0     H21030   5.308   5.350   2.790  1.6648  3.7408 -1.2089
  156MOL0     H21031   5.292   5.394   2.627  2.3363 -0.6955 -3.5069
  156MOL0     H21032   5.535   5.372   2.599 -1.2461 -4.3069 -0.5569
  156MOL0     H21033   5.475   5.484   2.730 -0.6295 -0.5196  1.9106
  156MOL0     H21034   5.630   5.232   2.725 -0.7488 -0.2762 -0.3146
  156MOL0     H21035   5.537   5.265   2.869 -1.2853  2.5317 -0.0882
  156MOL0     H21036   5.736   5.467   2.746 -4.2017  2.9087 -1.1740
  156MOL0     H21037   5.665   5.459   2.912  0.9947  1.1903 -1.3839
  156MOL0     H21038   5.874   5.277   2.801 -2.9234  0.4056 -2.4975
  156MOL0     H21039   5.765   5.233   2.949 -1.8590 -0.8730 -2.1917
  156MOL0     H21040   5.989   5.312   3.005 -0.9719 -1.2024 -0.3931
  156MOL0     H21041   5.859   5.426   3.058  0.2186 -3.2663  1.5630
  156MOL0     H21042   5.134   4.788   2.504  0.0516  1.2992 -3.3940
  156MOL0     H21043   4.934   4.656   2.456  3.1152  0.2450 -0.7583
  156MOL0     H21044   4.550   4.672   2.345  0.8600 -0.0970  2.2627
  156MOL0     H21045   4.351   4.633   2.211 -1.9296 -0.1699 -0.3684
  156MOL0     H21046   2.820   4.825   3.032 -0.8578 -4.0971  1.9149
  156MOL0     H21047   2.984   4.977   2.911  1.4183  0.0833 -0.3041
  156MOL0     H21048   3.240   5.052   2.554  0.1655  1.3751  0.2743
  156MOL0     H21049   3.396   5.188   2.418  0.0591  1.0081 -0.3633
  156MOL0     H21050   3.766   5.344   2.614 -0.3041 -1.8841  0.8792
  156MOL0     H21051   3.812   5.195   2.534 -0.9731 -1.4940  2.1181
  156MOL0     H21052   3.777   5.466   2.369 -1.9444 -1.1646 -2.8219
  156MOL0     H21053   3.823   5.311   2.315  1.3951 -1.4257  0.9038
  156MOL0     H21054   4.004   5.331   2.508  2.7786  2.6814  1.6657
  156MOL0     H21055   3.947   5.499   2.511  1.0797  0.7860 -0.7111
  156MOL0     H21056   4.033   5.546   2.295  3.4120  1.8096  1.8470
  156MOL0     H21057   4.048   5.368   2.253 -1.0118  0.9632 -0.5410
  156MOL0     H21058   4.397   5.444   2.495  0.0568  0.8245  0.2746
  156MOL0     H21059   3.681   5.185   2.731 -0.0221 -1.3272  2.5078
  156MOL0     H21060   3.521   5.033   2.868  1.9900  1.7198  0.6774
  157MOL0     O21061   9.136   2.433   7.726  0.0700 -0.1329 -0.6604
  157MOL0     C21062   9.194   2.535   7.696  0.0008 -0.3864 -0.0237
  157MOL0     O21063   9.167   2.655   7.747 -0.5046  0.1847 -0.5765
  157MOL0     C21064   9.066   2.661   7.842 -0.3360  0.2320  0.7313
  157MOL0     C21065   9.091   2.687   7.979 -0.0520  0.9909  0.6504
  157MOL0     C21066   8.978   2.700   8.071 -0.3476  0.5771 -0.0450
  157MOL0     C21067   8.840   2.677   8.029 -0.0162  0.1979 -0.8845
  157MOL0     O21068   8.750   2.670   8.135  0.6150 -0.9605  0.2143
  157MOL0     C21069   8.617   2.651   8.099 -1.2226 -0.4521  0.0959
  157MOL0     C21070   8.530   2.683   8.212 -0.1477 -0.0917  0.4783
  157MOL0     C21071   8.386   2.657   8.167 -0.6186  0.5444  0.2828
  157MOL0     C21072   8.289   2.688   8.276  0.2280  0.2774  0.7251
  157MOL0     C21073   8.148   2.691   8.224 -0.0899  0.1756  0.4011
  157MOL0     C21074   8.049   2.732   8.336 -0.2662  0.6022 -0.1005
  157MOL0     C21075   7.901   2.750   8.288 -0.6192  1.1660  0.2506
  157MOL0     C21076   7.824   2.621   8.316  0.3668  0.5732 -0.6351
  157MOL0     N21077   7.702   2.606   8.240  1.0607  0.6027 -0.4240
  157MOL0     C21078   7.574   2.609   8.294 -0.8548 -0.1465  0.4568
  157MOL0     C21079   7.501   2.570   8.182  0.7885  0.2775 -0.7379
  157MOL0     C21080   7.348   2.565   8.173 -1.1481  0.5720 -0.5832
  157MOL0     C21081   7.293   2.672   8.078 -1.1413 -0.2624 -0.0077
  157MOL0     C21082   7.153   2.639   8.036  0.5534  0.8536  0.4212
  157MOL0     C21083   7.128   2.680   7.889  0.5429  0.8494  0.4560
  157MOL0     O21084   7.115   2.818   7.878  0.6763 -0.3529 -0.1719
  157MOL0     C21085   6.985   2.878   7.858  0.5972 -0.5019  0.3789
  157MOL0     C21086   6.953   2.924   7.733  0.6428  0.4213 -1.0463
  157MOL0     C21087   6.832   2.991   7.717 -0.0308 -0.1635 -0.2283
  157MOL0     C21088   6.806   3.047   7.583  0.3371  0.3557  0.0179
  157MOL0     C21089   6.736   2.994   7.821 -0.7453 -0.2337  0.7353
  157MOL0     C21090   6.601   3.063   7.800 -0.6044  0.1537  0.1137
  157MOL0     O21091   6.536   3.094   7.916 -0.2259 -0.0200 -0.9490
  157MOL0     C21092   6.410   3.153   7.915  0.3223 -0.6314 -0.3623
  157MOL0     C21093   6.379   3.256   8.001 -0.2177 -0.1631 -0.0431
  157MOL0     C21094   6.250   3.296   8.022 -0.0614 -0.5478 -0.3448
  157MOL0     C21095   6.141   3.242   7.953 -0.0298  0.9020  0.4895
  157MOL0     O21096   6.021   3.283   7.960  0.4542  0.1388  0.0785
  157MOL0     C21097   5.969   3.332   8.090  0.3069  0.3732 -0.4642
  157MOL0     C21098   5.825   3.383   8.065  0.4105 -0.3663 -0.0837
  157MOL0     C21099   5.830   3.507   7.967 -0.2089  0.7143 -0.1376
  157MOL0     C21100   5.685   3.548   7.944 -0.9195  0.0801  0.4771
  157MOL0     C21101   5.678   3.682   7.879  0.6170  0.2521  0.1586
  157MOL0     C21102   5.532   3.724   7.837 -0.5749  0.2362  0.5370
  157MOL0     C21103   5.518   3.874   7.786  0.2694 -0.6612  0.0614
  157MOL0     C21104   5.531   3.991   7.889 -0.4440 -0.0564  0.0071
  157MOL0    Cl21105   5.370   3.997   7.966  0.2673  0.2968  0.1132
  157MOL0     C21106   6.174   3.127   7.870  0.4443  0.0653 -0.4389
  157MOL0     C21107   6.309   3.084   7.851  0.2200 -0.7694  0.5523
  157MOL0     O21108   6.549   3.074   7.684 -0.0345 -0.8011 -0.4656
  157MOL0     C21109   6.775   2.953   7.948 -0.3794  0.0943  0.0836
  157MOL0     C21110   6.900   2.894   7.964 -0.5118  0.4755 -0.1917
  157MOL0     N21111   7.587   2.527   8.090 -0.1472  0.1740 -0.5505
  157MOL0     N21112   7.705   2.542   8.124  0.1756 -0.0457 -0.3229
  157MOL0     C21113   8.825   2.647   7.895  0.0072  0.5464  0.3708
  157MOL0     C21114   8.931   2.641   7.806 -0.3947  1.0236  0.4259
  157MOL0     C21115   9.288   2.526   7.582  0.2069  0.7556 -1.6116
  157MOL0     C21116   9.306   2.409   7.507 -0.0509  0.4553 -0.0412
  157MOL0     C21117   9.398   2.396   7.405  0.8978 -0.5255 -0.0272
  157MOL0     C21118   9.493   2.504   7.392 -0.1434 -0.8967  0.7858
  157MOL0     O21119   9.577   2.486   7.281  0.0906 -0.0435  0.0537
  157MOL0     C21120   9.701   2.558   7.272  0.4301  0.5104 -0.4310
  157MOL0     C21121   9.802   2.485   7.171 -0.0727  0.6695 -0.6746
  157MOL0     C21122   9.929   2.571   7.143  0.5901 -0.2689 -0.5896
  157MOL0     C21123  10.035   2.481   7.085  0.0457  0.6037 -0.3645
  157MOL0     C21124  10.150   2.558   7.081 -0.2828 -0.1487 -0.1921
  157MOL0     C21125  10.259   2.603   7.061  0.0164  1.0289 -0.3543
  157MOL0     C21126   9.481   2.622   7.467  0.1380  0.2703  0.5985
  157MOL0     C21127   9.379   2.629   7.559  0.5677  0.0697 -0.3281
  157MOL0     H21128   9.194   2.694   8.012  0.2774  0.3510 -0.1763
  157MOL0     H21129   8.980   2.720   8.177  1.1553 -1.5623  0.3907
  157MOL0     H21130   8.601   2.711   8.009 -0.0342 -0.9491 -0.4718
  157MOL0     H21131   8.606   2.544   8.082  2.7691 -0.6733 -2.2133
  157MOL0     H21132   8.555   2.618   8.297 -2.2996 -2.1687 -0.3239
  157MOL0     H21133   8.548   2.784   8.249 -0.7669  0.9640 -1.8666
  157MOL0     H21134   8.360   2.714   8.077  0.4400  1.5911  0.6156
  157MOL0     H21135   8.373   2.552   8.139 -1.1978  0.8931 -0.7981
  157MOL0     H21136   8.301   2.619   8.361 -3.6727  0.8336  1.9213
  157MOL0     H21137   8.313   2.786   8.319  1.9086  0.9161 -1.4591
  157MOL0     H21138   8.132   2.750   8.134 -0.3307 -0.9271 -0.3001
  157MOL0     H21139   8.114   2.594   8.186  0.8080  0.7980 -2.1802
  157MOL0     H21140   8.073   2.660   8.414  1.6832 -1.4431 -2.3955
  157MOL0     H21141   8.091   2.827   8.369  0.7413 -0.9088  3.3665
  157MOL0     H21142   7.851   2.836   8.334 -3.1860 -0.7590  1.2992
  157MOL0     H21143   7.911   2.758   8.180  0.8945 -1.1378  0.1619
  157MOL0     H21144   7.800   2.619   8.423 -1.3970  5.2274 -0.7121
  157MOL0     H21145   7.889   2.536   8.296 -0.1868  1.0147 -5.4911
  157MOL0     H21146   7.540   2.643   8.391 -1.9312  1.0730 -0.3052
  157MOL0     H21147   7.322   2.462   8.144 -2.5950  0.9078 -0.5769
  157MOL0     H21148   7.307   2.578   8.274  0.4567  0.5493  0.0936
  157MOL0     H21149   7.358   2.681   7.990  0.9309 -1.9247  1.2575
  157MOL0     H21150   7.288   2.767   8.133  0.7059 -1.3151  2.1276
  157MOL0     H21151   7.084   2.695   8.101 -1.6260 -2.1402  0.9105
  157MOL0     H21152   7.128   2.534   8.053 -2.5261  1.3116 -0.4961
  157MOL0     H21153   7.037   2.626   7.861  0.6853  0.6973  0.2785
  157MOL0     H21154   7.210   2.637   7.829 -0.5419  0.6028 -0.8971
  157MOL0     H21155   7.022   2.908   7.651  1.9234  0.9136 -0.0894
  157MOL0     H21156   6.899   3.051   7.526 -0.5431  0.8613 -1.4553
  157MOL0     H21157   6.739   2.980   7.528  0.1009  0.2148  0.4728
  157MOL0     H21158   6.768   3.150   7.577 -1.4342 -0.3156 -2.0496
  157MOL0     H21159   6.462   3.306   8.050  0.8967 -1.2823 -0.7572
  157MOL0     H21160   6.233   3.388   8.078 -1.2842 -1.2262  0.4488
  157MOL0     H21161   5.958   3.240   8.147  0.6638 -0.4213 -1.6380
  157MOL0     H21162   6.037   3.406   8.134 -0.8398 -0.3740  2.9005
  157MOL0     H21163   5.763   3.305   8.019 -0.8890  0.1171  0.7982
  157MOL0     H21164   5.792   3.415   8.164 -2.2514  1.2709 -1.4025
  157MOL0     H21165   5.867   3.474   7.869 -0.1123  0.8445 -0.1446
  157MOL0     H21166   5.886   3.585   8.019  0.0008  0.1104  0.5544
  157MOL0     H21167   5.633   3.474   7.881 -2.0112  1.2340 -0.0127
  157MOL0     H21168   5.629   3.556   8.037  0.7358  2.9762  1.3185
  157MOL0     H21169   5.735   3.661   7.788  1.4479  0.8190  0.5349
  157MOL0     H21170   5.727   3.759   7.940 -0.7653  0.2377  1.3479
  157MOL0     H21171   5.500   3.665   7.751  0.6594  1.3584 -0.7433
  157MOL0     H21172   5.464   3.709   7.922 -1.4038  0.6402 -0.0497
  157MOL0     H21173   5.420   3.895   7.742 -2.5842 -0.1804  5.7098
  157MOL0     H21174   5.595   3.897   7.712 -0.6303  3.7805  0.2813
  157MOL0     H21175   5.558   4.088   7.846  2.1421 -0.9960 -0.6881
  157MOL0     H21176   5.608   3.972   7.965  0.9810  2.1619 -0.7672
  157MOL0     H21177   6.084   3.084   7.826 -1.4192  0.6784  2.4624
  157MOL0     H21178   6.331   3.008   7.776  2.4428  1.7861 -1.5947
  157MOL0     H21179   6.703   2.945   8.028  1.2057 -5.3322  1.3954
  157MOL0     H21180   6.926   2.849   8.059 -2.1871  1.1709  0.6421
  157MOL0     H21181   8.726   2.634   7.850  0.0429 -0.1304  0.4726
  157MOL0     H21182   8.912   2.623   7.700 -1.0780  3.7207 -0.0008
  157MOL0     H21183   9.242   2.322   7.520 -0.3265  0.4044 -1.5561
  157MOL0     H21184   9.402   2.305   7.346 -0.8311 -0.0894 -0.8904
  157MOL0     H21185   9.681   2.661   7.240  0.4634  0.5044 -0.4715
  157MOL0     H21186   9.742   2.557   7.373 -0.8439 -2.6380  0.1705
  157MOL0     H21187   9.748   2.460   7.079  2.8235 -0.2163 -2.2267
  157MOL0     H21188   9.837   2.393   7.219  0.2293  0.9913 -0.2659
  157MOL0     H21189   9.969   2.607   7.238 -1.6015 -1.7711  1.0256
  157MOL0     H21190   9.902   2.646   7.068 -1.9123 -1.1073 -0.6102
  157MOL0     H21191  10.010   2.455   6.982  0.5758 -1.8059  0.0450
  157MOL0     H21192  10.062   2.392   7.143  1.0076 -0.6137 -2.5592
  157MOL0     H21193  10.363   2.625   7.046  0.3414 -0.7461 -1.0175
  157MOL0     H21194   9.550   2.702   7.441 -2.7428  1.6949 -3.7501
  157MOL0     H21195   9.378   2.719   7.620  1.8887 -1.9710  2.9719
  158MOL0     O21196  10.901  11.227   9.028  0.2275 -0.0863 -0.0308
  158MOL0     C21197  10.933  11.327   8.970 -0.6261  0.6757 -0.5681
  158MOL0     O21198  10.845  11.427   8.934 -0.5752 -0.4088  0.3896
  158MOL0     C21199  10.709  11.434   8.919  0.2489 -0.0973  0.4174
  158MOL0     C21200  10.608  11.343   8.974 -0.0584 -0.0455  0.0317
  158MOL0     C21201  10.468  11.367   8.967 -0.4044  0.0378  0.5181
  158MOL0     C21202  10.421  11.483   8.908 -0.5094 -0.4772 -0.2597
  158MOL0     O21203  10.285  11.496   8.895 -0.7089  0.3894 -0.0319
  158MOL0     C21204  10.224  11.617   8.926  0.2359  0.9282 -0.1517
  158MOL0     C21205  10.108  11.591   9.024  0.2918 -0.0412 -0.5071
  158MOL0     C21206  10.017  11.474   8.986  0.6333 -0.3713 -1.0338
  158MOL0     C21207   9.895  11.526   8.916  0.2276  0.8792 -0.5228
  158MOL0     C21208   9.795  11.411   8.892 -0.3099  0.2619 -0.2920
  158MOL0     C21209   9.658  11.471   8.858 -0.1862 -0.3221 -0.5769
  158MOL0     C21210   9.581  11.369   8.784  0.3590 -0.2031  0.7402
  158MOL0     C21211   9.539  11.239   8.859 -0.5396 -0.5930 -0.4089
  158MOL0     N21212   9.430  11.171   8.787  0.1909  0.4827  0.8214
  158MOL0     C21213   9.430  11.053   8.712 -0.1585  0.3001  0.0360
  158MOL0     C21214   9.297  11.048   8.663  0.7540  0.9598  0.7953
  158MOL0     C21215   9.219  10.930   8.603 -0.3959  0.2063 -0.5867
  158MOL0     C21216   9.185  10.823   8.710 -0.0692 -0.4349  0.8709
  158MOL0     C21217   9.120  10.703   8.644 -0.2058  0.2259 -0.5316
  158MOL0     C21218   9.016  10.640   8.721  0.1650  0.2315 -0.1955
  158MOL0     O21219   8.983  10.515   8.660 -0.5695 -0.2079 -0.0761
  158MOL0     C21220   8.868  10.523   8.591  0.5793 -0.5540 -0.0357
  158MOL0     C21221   8.749  10.497   8.658 -0.1944  0.0780  0.0858
  158MOL0     C21222   8.630  10.497   8.587  0.6245  0.2625  0.3136
  158MOL0     C21223   8.505  10.454   8.655  0.3908  0.3757 -0.5084
  158MOL0     C21224   8.622  10.540   8.450  0.8334  0.1893 -0.4483
  158MOL0     C21225   8.502  10.536   8.372  0.2298 -0.4716  0.4058
  158MOL0     O21226   8.396  10.621   8.414 -0.5581  0.1297 -0.1199
  158MOL0     C21227   8.269  10.589   8.369 -0.9015 -0.6769  0.0399
  158MOL0     C21228   8.231  10.629   8.244  0.1226 -0.2981  0.1859
  158MOL0     C21229   8.101  10.611   8.202 -0.6551 -0.3586 -0.4240
  158MOL0     C21230   8.005  10.542   8.284  1.0695  0.0024  0.0077
  158MOL0     O21231   7.882  10.509   8.222 -0.3078  0.0566  0.1264
  158MOL0     C21232   7.788  10.472   8.312  0.3414 -0.2233  0.1348
  158MOL0     C21233   7.653  10.473   8.235 -0.2104 -0.3370  0.1215
  158MOL0     C21234   7.603  10.618   8.229  0.8397 -0.6607  0.5204
  158MOL0     C21235   7.497  10.630   8.118 -0.9022  0.4103 -1.1930
  158MOL0     C21236   7.402  10.741   8.140 -0.5384  0.8952  0.6942
  158MOL0     C21237   7.315  10.773   8.027  0.7656  0.4559  0.8639
  158MOL0     C21238   7.229  10.663   7.966  0.3606  0.2489 -0.6477
  158MOL0     C21239   7.147  10.578   8.068  0.0067 -0.0870 -0.0891
  158MOL0    Cl21240   7.003  10.668   8.120  0.2793  0.1220  0.1105
  158MOL0     C21241   8.054  10.490   8.408  0.5287 -0.0145 -0.2534
  158MOL0     C21242   8.182  10.513   8.452  0.7942 -0.3474 -0.4603
  158MOL0     O21243   8.489  10.448   8.289  0.2443 -0.0269 -0.4880
  158MOL0     C21244   8.746  10.570   8.388  0.1775  0.6246  0.1343
  158MOL0     C21245   8.863  10.560   8.456 -0.4133  0.0972 -0.9800
  158MOL0     N21246   9.228  11.164   8.710  0.1630  0.6324 -0.1910
  158MOL0     N21247   9.305  11.225   8.787 -0.6226 -0.7752  0.5819
  158MOL0     C21248  10.518  11.568   8.846  0.2465  0.4461  0.4570
  158MOL0     C21249  10.656  11.550   8.856 -0.1392  0.6747 -0.2902
  158MOL0     C21250  11.083  11.339   8.962  0.0856 -1.3923 -0.0961
  158MOL0     C21251  11.130  11.444   8.875  0.2485  0.2585 -0.5888
  158MOL0     C21252  11.268  11.476   8.874 -0.3381 -0.4061 -0.7412
  158MOL0     C21253  11.356  11.391   8.936 -0.1575  0.0428  0.0393
  158MOL0     O21254  11.493  11.418   8.922  0.2170  0.3486  0.2453
  158MOL0     C21255  11.544  11.470   9.049 -0.4622  0.0690  1.2635
  158MOL0     C21256  11.682  11.525   9.016 -1.0733  0.1836 -0.2178
  158MOL0     C21257  11.783  11.414   8.997  0.3918 -0.0975  0.2034
  158MOL0     C21258  11.930  11.455   9.041  0.6042 -0.1498  0.0328
  158MOL0     C21259  11.985  11.561   8.956  0.2735  0.0698 -0.3779
  158MOL0     C21260  12.033  11.637   8.867 -0.4699  0.8308 -0.7563
  158MOL0     C21261  11.309  11.280   9.010 -0.5583 -0.2313  1.0065
  158MOL0     C21262  11.179  11.268   9.030  0.2544  0.0046 -0.1461
  158MOL0     H21263  10.655  11.264   9.031 -1.2714 -0.0618  1.0654
  158MOL0     H21264  10.402  11.296   9.015 -1.5949  1.7881  1.6067
  158MOL0     H21265  10.298  11.679   8.977  0.4518  1.4390 -1.0681
  158MOL0     H21266  10.182  11.663   8.837 -0.5225 -0.1192 -0.3543
  158MOL0     H21267  10.145  11.581   9.127 -0.9723  2.9173  0.3558
  158MOL0     H21268  10.042  11.679   9.029 -2.8081 -2.2788  3.2553
  158MOL0     H21269  10.064  11.397   8.924  0.7498 -1.1975  0.0398
  158MOL0     H21270   9.988  11.423   9.078  1.8289 -0.5744 -0.7504
  158MOL0     H21271   9.847  11.614   8.961  1.4580  0.7350  1.1358
  158MOL0     H21272   9.923  11.556   8.815  1.3842  2.0047  0.1084
  158MOL0     H21273   9.839  11.349   8.814  0.1334  0.9719 -0.6121
  158MOL0     H21274   9.787  11.341   8.977 -0.5807 -1.0024 -1.3247
  158MOL0     H21275   9.607  11.496   8.951  0.4246  1.7256 -0.7454
  158MOL0     H21276   9.663  11.560   8.794 -3.4475  1.3657  1.2223
  158MOL0     H21277   9.483  11.412   8.759  1.7067  2.3040 -0.6812
  158MOL0     H21278   9.628  11.350   8.687 -1.5835 -0.5396 -0.1912
  158MOL0     H21279   9.516  11.270   8.961  1.0723 -2.2945  0.5308
  158MOL0     H21280   9.628  11.178   8.869  0.1093  0.3625 -0.2491
  158MOL0     H21281   9.519  10.995   8.691  1.9422  2.6206  1.9281
  158MOL0     H21282   9.124  10.974   8.571  1.0419  4.0635 -0.0212
  158MOL0     H21283   9.268  10.889   8.515 -2.8347 -2.5945 -0.8211
  158MOL0     H21284   9.125  10.886   8.777  0.1037  1.4037 -0.5970
  158MOL0     H21285   9.273  10.793   8.767  2.2012  2.2282 -0.9465
  158MOL0     H21286   9.211  10.642   8.633  1.9380  2.7108  1.9212
  158MOL0     H21287   9.077  10.733   8.548  0.7039  1.7869 -0.4913
  158MOL0     H21288   8.925  10.701   8.732 -0.7384 -1.2364  0.9560
  158MOL0     H21289   9.053  10.626   8.823 -1.6561 -0.4797  0.4267
  158MOL0     H21290   8.750  10.459   8.760 -1.4074 -1.4377 -0.4235
  158MOL0     H21291   8.472  10.355   8.620 -2.6628  0.2360  2.2987
  158MOL0     H21292   8.519  10.445   8.763 -0.1760 -1.5417 -0.5555
  158MOL0     H21293   8.434  10.534   8.633  1.4207  1.2293 -0.8030
  158MOL0     H21294   8.284  10.687   8.169 -2.3124  1.3020 -0.4154
  158MOL0     H21295   8.082  10.643   8.100 -1.1184  0.9229  0.0413
  158MOL0     H21296   7.792  10.378   8.368 -0.9161 -0.0421  0.5640
  158MOL0     H21297   7.781  10.548   8.390  0.6578  0.7179 -0.7355
  158MOL0     H21298   7.670  10.443   8.132 -1.7609  1.5293 -0.7288
  158MOL0     H21299   7.577  10.406   8.278  0.3394 -1.9429 -1.3156
  158MOL0     H21300   7.682  10.692   8.214  0.7983 -0.7647 -0.2503
  158MOL0     H21301   7.555  10.628   8.327  1.8730 -0.1830  0.9962
  158MOL0     H21302   7.551  10.633   8.023 -0.0582 -3.1216 -0.9669
  158MOL0     H21303   7.437  10.539   8.118  0.2555 -0.4187  0.9697
  158MOL0     H21304   7.468  10.827   8.158 -0.4523  1.1639 -0.7713
  158MOL0     H21305   7.349  10.721   8.233  2.2509 -0.5398  2.0999
  158MOL0     H21306   7.247  10.850   8.065  0.1838  0.5957 -0.3926
  158MOL0     H21307   7.370  10.814   7.942 -0.8353  1.1877  0.1323
  158MOL0     H21308   7.299  10.603   7.906 -0.3032 -1.9910  0.6877
  158MOL0     H21309   7.162  10.704   7.890  1.7224 -1.1086 -2.6675
  158MOL0     H21310   7.209  10.540   8.150 -0.6704  1.0212  0.9618
  158MOL0     H21311   7.106  10.497   8.006 -0.4146 -0.1054  0.2132
  158MOL0     H21312   7.990  10.425   8.467 -0.3235  0.8528 -0.2064
  158MOL0     H21313   8.222  10.485   8.550 -0.4565 -2.6004 -0.5284
  158MOL0     H21314   8.750  10.593   8.282 -1.4954  0.0320 -0.0840
  158MOL0     H21315   8.951  10.583   8.397  0.4715 -0.9901 -0.1376
  158MOL0     H21316  10.473  11.657   8.804 -2.1997  1.1554  4.1056
  158MOL0     H21317  10.721  11.628   8.818  0.7380 -0.1767 -0.5870
  158MOL0     H21318  11.066  11.505   8.812 -0.6077 -0.3554 -0.3345
  158MOL0     H21319  11.306  11.562   8.820  1.3517 -0.2783  0.5838
  158MOL0     H21320  11.483  11.546   9.100  1.1278 -0.2563  3.7906
  158MOL0     H21321  11.554  11.385   9.117  1.9515 -1.0394 -0.3548
  158MOL0     H21322  11.717  11.603   9.084  0.1602 -0.0094 -0.5908
  158MOL0     H21323  11.667  11.573   8.919  0.3053 -0.1781 -0.6296
  158MOL0     H21324  11.777  11.386   8.892  2.7032 -0.6365  0.1485
  158MOL0     H21325  11.749  11.328   9.057 -1.7748  0.3650 -0.2995
  158MOL0     H21326  11.994  11.366   9.048  0.5355 -0.0996  1.7544
  158MOL0     H21327  11.931  11.497   9.142  0.8322 -0.0202 -0.0236
  158MOL0     H21328  12.080  11.689   8.786  0.4207  0.7270 -0.3192
  158MOL0     H21329  11.373  11.209   9.062 -2.0451 -2.9082 -0.5650
  158MOL0     H21330  11.149  11.182   9.089  1.4561 -0.1878  0.2126
  159MOL0     O21331   1.082   2.227   7.314  0.0395 -0.0367 -0.5112
  159MOL0     C21332   1.086   2.127   7.247 -0.8910  0.2559 -0.4104
  159MOL0     O21333   0.981   2.051   7.196  0.6011  0.3517  0.5557
  159MOL0     C21334   0.857   2.107   7.218 -0.5387  0.6981 -0.1684
  159MOL0     C21335   0.752   2.017   7.260 -0.3766  0.3146 -0.1109
  159MOL0     C21336   0.613   2.054   7.270 -0.4979  0.0853 -0.7600
  159MOL0     C21337   0.573   2.187   7.242 -0.2415  0.1236  0.6470
  159MOL0     O21338   0.440   2.221   7.266  0.4280 -0.5465 -0.3488
  159MOL0     C21339   0.411   2.346   7.330 -0.1042  0.4558  1.3530
  159MOL0     C21340   0.361   2.442   7.225 -0.0444 -0.3674 -0.7482
  159MOL0     C21341   0.312   2.572   7.292  0.2476  0.3332  1.6655
  159MOL0     C21342   0.211   2.659   7.209  0.4184  0.0459  0.0372
  159MOL0     C21343   0.070   2.603   7.201  0.2346 -0.4776  0.0129
  159MOL0     C21344  -0.017   2.712   7.135  0.7832  0.6879 -0.1369
  159MOL0     C21345  -0.164   2.679   7.132 -0.2587  0.6209 -0.1018
  159MOL0     C21346  -0.200   2.554   7.036  0.0854 -0.1382  0.6528
  159MOL0     N21347  -0.347   2.533   7.038  0.2243 -0.0601  0.0745
  159MOL0     C21348  -0.422   2.468   7.139 -0.5008  1.1270 -0.2506
  159MOL0     C21349  -0.541   2.433   7.086  0.0667  0.3780 -0.0626
  159MOL0     C21350  -0.661   2.388   7.169  0.7391  0.2073  1.4375
  159MOL0     C21351  -0.752   2.503   7.214  0.4305 -0.2792 -0.3288
  159MOL0     C21352  -0.837   2.453   7.333 -1.0662 -0.5199 -0.3952
  159MOL0     C21353  -0.909   2.573   7.383  0.2032  0.2713 -0.9035
  159MOL0     O21354  -0.977   2.558   7.513 -0.4725 -0.1428 -0.7260
  159MOL0     C21355  -1.093   2.623   7.531 -0.4747 -0.8264  0.1097
  159MOL0     C21356  -1.166   2.700   7.441 -0.3152  0.7501 -0.2949
  159MOL0     C21357  -1.284   2.761   7.481  0.0554  0.4405 -0.2162
  159MOL0     C21358  -1.349   2.854   7.380 -0.0217  0.4603  0.0421
  159MOL0     C21359  -1.353   2.731   7.602 -0.0182 -0.4407 -0.1545
  159MOL0     C21360  -1.491   2.765   7.648  0.0418 -0.4404 -0.0870
  159MOL0     O21361  -1.519   2.743   7.780  0.0305  0.7255  0.5862
  159MOL0     C21362  -1.639   2.791   7.816 -0.3966  0.0207  0.8032
  159MOL0     C21363  -1.653   2.925   7.861 -0.0437  0.2839  0.5929
  159MOL0     C21364  -1.766   2.977   7.910  0.0645  0.3119  0.5917
  159MOL0     C21365  -1.877   2.892   7.920  0.7034  0.0509 -0.3006
  159MOL0     O21366  -1.996   2.930   7.979 -0.1523 -0.0690 -0.3450
  159MOL0     C21367  -2.037   3.070   7.969 -0.5362 -0.3025  0.3355
  159MOL0     C21368  -2.190   3.078   7.967  1.2197 -0.1471  0.6396
  159MOL0     C21369  -2.273   3.044   8.100 -0.3029 -0.9291  0.3136
  159MOL0     C21370  -2.421   3.071   8.082  0.7428 -0.1415  0.4315
  159MOL0     C21371  -2.509   3.056   8.212  0.3622 -0.6582 -0.2400
  159MOL0     C21372  -2.643   3.132   8.189 -0.0895  0.6138  0.3195
  159MOL0     C21373  -2.720   3.171   8.321 -0.4470  0.2744 -0.1400
  159MOL0     C21374  -2.856   3.236   8.297  1.0857  0.4502 -1.3955
  159MOL0    Cl21375  -2.910   3.316   8.446 -0.5350  0.0421 -0.0082
  159MOL0     C21376  -1.870   2.761   7.874  0.0414 -0.8866 -0.1007
  159MOL0     C21377  -1.747   2.710   7.825 -0.0062 -0.4509  0.0059
  159MOL0     O21378  -1.569   2.826   7.571 -0.2506 -0.3694 -0.4893
  159MOL0     C21379  -1.270   2.657   7.692  1.1641  0.6229 -0.0898
  159MOL0     C21380  -1.145   2.609   7.659 -0.5273 -0.1926 -0.3508
  159MOL0     N21381  -0.544   2.485   6.954 -0.3223  0.4644  0.2734
  159MOL0     N21382  -0.424   2.534   6.928 -0.1284 -0.6260  0.0402
  159MOL0     C21383   0.674   2.281   7.204 -0.0455 -0.0818  0.1712
  159MOL0     C21384   0.810   2.239   7.188 -0.0471  0.3860  0.0399
  159MOL0     C21385   1.225   2.079   7.230 -0.1941  0.1452  1.0471
  159MOL0     C21386   1.338   2.131   7.302 -1.1774  0.3448  0.0301
  159MOL0     C21387   1.467   2.085   7.275  0.0612 -1.0322 -0.9088
  159MOL0     C21388   1.498   2.003   7.172  0.0755  0.2687 -0.7194
  159MOL0     O21389   1.626   1.952   7.136  0.5298  0.0536  0.4939
  159MOL0     C21390   1.730   1.980   7.238  0.4831  0.8091 -0.1442
  159MOL0     C21391   1.860   1.902   7.213  1.3873  0.2071 -0.2250
  159MOL0     C21392   1.940   1.975   7.102 -0.1468  0.0962 -0.7260
  159MOL0     C21393   2.060   1.901   7.046  0.6121 -0.4576  0.6569
  159MOL0     C21394   2.156   1.864   7.154 -0.4684 -0.3330 -0.7808
  159MOL0     C21395   2.203   1.851   7.266 -0.4881 -0.2283 -0.3114
  159MOL0     C21396   1.389   1.961   7.094  0.1030  0.1380  0.0026
  159MOL0     C21397   1.255   1.993   7.126  0.6142 -0.4131 -0.2589
  159MOL0     H21398   0.770   1.923   7.312 -2.0428 -0.1665 -0.3336
  159MOL0     H21399   0.540   1.980   7.300  3.0382 -2.6099  2.2229
  159MOL0     H21400   0.325   2.331   7.397  0.0905  0.0805  1.5208
  159MOL0     H21401   0.496   2.395   7.379 -1.5942  3.6967  0.9710
  159MOL0     H21402   0.444   2.470   7.159 -0.6869 -0.3531 -1.5634
  159MOL0     H21403   0.278   2.402   7.167  0.6744 -0.1243 -1.9884
  159MOL0     H21404   0.255   2.539   7.379  0.1639 -1.8931  0.8138
  159MOL0     H21405   0.390   2.641   7.325  0.8168  0.4734  0.1283
  159MOL0     H21406   0.209   2.758   7.256 -0.9120 -0.9189  2.1921
  159MOL0     H21407   0.232   2.680   7.104 -1.5737  2.5179  0.0576
  159MOL0     H21408   0.069   2.506   7.149  0.2590 -1.3537  1.5748
  159MOL0     H21409   0.046   2.588   7.307 -0.7864  1.6486  0.1351
  159MOL0     H21410   0.011   2.795   7.201 -1.0554  0.2154  1.3269
  159MOL0     H21411   0.007   2.737   7.031 -0.8692  1.3855 -0.3869
  159MOL0     H21412  -0.205   2.660   7.232  1.2056  1.6152  0.7181
  159MOL0     H21413  -0.224   2.761   7.090 -2.7265  0.2374  2.3708
  159MOL0     H21414  -0.155   2.459   7.066 -0.7862 -0.6611  0.3440
  159MOL0     H21415  -0.156   2.573   6.938 -1.1110 -0.5073  0.0185
  159MOL0     H21416  -0.394   2.453   7.242 -1.1860  1.2053 -0.0494
  159MOL0     H21417  -0.719   2.319   7.106  2.2908 -1.7732  2.0429
  159MOL0     H21418  -0.625   2.325   7.252 -2.3291 -5.0500 -0.7001
  159MOL0     H21419  -0.821   2.545   7.140 -1.4203  2.5030  2.7219
  159MOL0     H21420  -0.691   2.585   7.252 -0.1851  0.0629 -0.0669
  159MOL0     H21421  -0.776   2.425   7.419 -3.9192  2.5285  2.9345
  159MOL0     H21422  -0.902   2.368   7.311  0.0161 -1.9379  1.5718
  159MOL0     H21423  -0.981   2.591   7.302  0.1496 -1.7153 -1.3463
  159MOL0     H21424  -0.837   2.654   7.396  1.0423 -0.6657  0.5058
  159MOL0     H21425  -1.129   2.725   7.342 -2.9360  1.3061 -1.2075
  159MOL0     H21426  -1.448   2.819   7.349 -0.2736  2.0632 -1.1108
  159MOL0     H21427  -1.366   2.957   7.413  0.0171  0.2464  0.7426
  159MOL0     H21428  -1.284   2.857   7.292  0.4286  0.7695  0.3783
  159MOL0     H21429  -1.567   2.992   7.854  0.9644 -1.0501 -0.1503
  159MOL0     H21430  -1.748   3.078   7.944 -1.8251  1.4364 -1.4572
  159MOL0     H21431  -2.005   3.118   8.062  1.9046 -1.1906  0.0288
  159MOL0     H21432  -2.001   3.113   7.875 -0.0209 -4.2514 -1.4562
  159MOL0     H21433  -2.213   3.183   7.949  1.7949 -0.2494 -0.7849
  159MOL0     H21434  -2.228   3.024   7.880 -0.1454 -0.2771  1.2909
  159MOL0     H21435  -2.222   3.099   8.180 -1.6726  0.9530 -0.0392
  159MOL0     H21436  -2.255   2.939   8.125  2.0244 -0.5292  0.6072
  159MOL0     H21437  -2.445   3.164   8.029 -3.0416 -1.5064 -0.5270
  159MOL0     H21438  -2.474   2.992   8.029 -0.5268 -0.6981  2.4219
  159MOL0     H21439  -2.458   3.096   8.300  0.4232  3.2867 -1.8427
  159MOL0     H21440  -2.528   2.949   8.217  1.6528 -0.9367 -0.7890
  159MOL0     H21441  -2.628   3.226   8.136 -0.8369  0.3236 -0.4396
  159MOL0     H21442  -2.711   3.074   8.125 -0.8914  2.1280 -0.2455
  159MOL0     H21443  -2.650   3.233   8.377  2.1539 -1.1490 -1.6274
  159MOL0     H21444  -2.749   3.079   8.374  1.8733 -0.5542 -0.2180
  159MOL0     H21445  -2.940   3.172   8.266 -0.1523  0.2665  1.9264
  159MOL0     H21446  -2.851   3.322   8.230  0.1564  2.4082  0.8976
  159MOL0     H21447  -1.955   2.694   7.877 -0.8226  0.1694 -0.5632
  159MOL0     H21448  -1.735   2.613   7.777  1.0172 -0.0938 -0.4803
  159MOL0     H21449  -1.290   2.630   7.795 -0.4633  1.7793 -0.0538
  159MOL0     H21450  -1.093   2.559   7.740 -0.8662  0.6046  0.3780
  159MOL0     H21451   0.645   2.378   7.166  1.1247  0.5435  0.8103
  159MOL0     H21452   0.879   2.314   7.152 -0.8708  0.8445 -0.6518
  159MOL0     H21453   1.319   2.209   7.376  0.3248 -1.4341  2.4494
  159MOL0     H21454   1.549   2.143   7.317  1.7401 -2.9774 -1.3155
  159MOL0     H21455   1.750   2.088   7.242  1.8666  0.5842 -0.4707
  159MOL0     H21456   1.699   1.944   7.337 -0.0291  1.4519 -0.0636
  159MOL0     H21457   1.828   1.805   7.177  0.7570 -0.0015  0.8406
  159MOL0     H21458   1.927   1.909   7.300  0.3909  2.4731  0.4362
  159MOL0     H21459   1.952   2.075   7.143 -3.1895  0.5331 -0.6337
  159MOL0     H21460   1.876   1.980   7.013 -3.0901 -2.1194  1.0431
  159MOL0     H21461   2.115   1.961   6.973  0.3784  0.0563  0.9053
  159MOL0     H21462   2.015   1.816   6.993  1.6011 -0.9956  0.6563
  159MOL0     H21463   2.221   1.830   7.369 -1.3596  1.1807  0.1547
  159MOL0     H21464   1.389   1.898   7.006  0.2080  1.1069 -0.7074
  159MOL0     H21465   1.182   1.961   7.053  2.2936  0.2532 -2.2989
  160MOL0     O21466   2.352   7.296   8.892  0.5202 -0.6221  0.9527
  160MOL0     C21467   2.348   7.183   8.936  0.5090  0.1937  0.6931
  160MOL0     O21468   2.234   7.128   8.985  0.1976  1.0330  0.1241
  160MOL0     C21469   2.111   7.186   8.967  0.0326  0.3311 -0.3804
  160MOL0     C21470   2.086   7.326   8.974  0.5869 -0.2300  0.4816
  160MOL0     C21471   1.956   7.375   8.936  0.4116  0.0493 -0.1873
  160MOL0     C21472   1.844   7.291   8.913  0.4169 -0.6030 -0.5232
  160MOL0     O21473   1.716   7.341   8.883  0.4261  0.2077  0.5136
  160MOL0     C21474   1.678   7.479   8.867 -0.3906  0.3265 -0.2126
  160MOL0     C21475   1.565   7.484   8.763 -0.2220  0.0654 -1.0724
  160MOL0     C21476   1.440   7.410   8.821 -0.1323 -0.8401  0.0389
  160MOL0     C21477   1.315   7.475   8.750 -0.4789  1.1578 -0.6397
  160MOL0     C21478   1.194   7.450   8.835 -0.3727 -0.9265 -0.1225
  160MOL0     C21479   1.063   7.457   8.754 -0.4386  0.2502 -0.3764
  160MOL0     C21480   0.951   7.418   8.849  0.3206  0.5735  0.4931
  160MOL0     C21481   0.806   7.443   8.797 -0.9615  1.0504  0.3701
  160MOL0     N21482   0.802   7.585   8.759  0.2872 -0.0317  0.9515
  160MOL0     C21483   0.757   7.697   8.829 -0.1483 -0.7743 -0.0408
  160MOL0     C21484   0.761   7.798   8.735 -0.8421  0.0666  0.2129
  160MOL0     C21485   0.740   7.942   8.765 -0.2180 -0.6387 -0.0425
  160MOL0     C21486   0.590   7.991   8.771 -0.5679 -0.2365  0.0756
  160MOL0     C21487   0.578   8.127   8.838  0.9651 -0.3803 -0.4781
  160MOL0     C21488   0.430   8.149   8.870 -0.7500  0.1176 -0.7238
  160MOL0     O21489   0.413   8.257   8.972  0.0511  0.6379 -0.0754
  160MOL0     C21490   0.292   8.321   8.978 -0.4457 -0.5102 -0.7482
  160MOL0     C21491   0.275   8.435   9.060 -0.1629  0.0683 -0.1593
  160MOL0     C21492   0.153   8.505   9.079 -0.3668 -0.3838 -0.4224
  160MOL0     C21493   0.157   8.638   9.167  0.2773  0.0950 -0.2457
  160MOL0     C21494   0.039   8.453   9.017  1.2410 -0.5477 -0.7349
  160MOL0     C21495  -0.106   8.505   9.034 -0.7191  0.1247 -0.6791
  160MOL0     O21496  -0.132   8.556   9.153 -0.4181  0.2646 -0.2831
  160MOL0     C21497  -0.258   8.622   9.176 -0.7346  0.4686 -0.2204
  160MOL0     C21498  -0.330   8.592   9.293 -0.4915  0.0585  0.4067
  160MOL0     C21499  -0.439   8.667   9.343  0.0309  0.7162 -0.3225
  160MOL0     C21500  -0.479   8.779   9.275  0.7856  0.0287  0.4798
  160MOL0     O21501  -0.591   8.851   9.312 -0.2792  0.1138 -0.1444
  160MOL0     C21502  -0.635   8.972   9.244  0.9202  0.3967  0.1903
  160MOL0     C21503  -0.743   9.041   9.340 -0.5444  0.2591 -0.1282
  160MOL0     C21504  -0.877   8.956   9.364 -1.1756 -0.0372  0.8233
  160MOL0     C21505  -0.937   8.895   9.238  0.8152  0.1823 -0.6929
  160MOL0     C21506  -1.060   8.820   9.285 -0.1393  0.0348  0.9389
  160MOL0     C21507  -1.133   8.781   9.160 -0.0641  0.0058 -0.0718
  160MOL0     C21508  -1.248   8.693   9.190  0.2570  0.1200  0.1912
  160MOL0     C21509  -1.378   8.769   9.190 -0.8894  0.0431  0.3898
  160MOL0    Cl21510  -1.513   8.667   9.143 -0.3145 -0.2698  0.2344
  160MOL0     C21511  -0.413   8.811   9.156 -0.7335 -0.2491  0.2590
  160MOL0     C21512  -0.302   8.734   9.113  0.2145 -0.4343  0.9097
  160MOL0     O21513  -0.185   8.508   8.932  0.8955  0.2836 -0.4195
  160MOL0     C21514   0.049   8.333   8.937  1.1925  0.2025 -0.5007
  160MOL0     C21515   0.175   8.273   8.923  0.0769  0.3462 -0.6158
  160MOL0     N21516   0.768   7.747   8.608 -0.9192  0.7127 -0.7858
  160MOL0     N21517   0.789   7.618   8.622  0.4645  1.3695 -0.0408
  160MOL0     C21518   1.875   7.158   8.917 -0.7276 -0.1187 -0.0308
  160MOL0     C21519   2.003   7.109   8.931  0.1419  1.3386  1.3980
  160MOL0     C21520   2.478   7.105   8.931  0.3199  0.4464 -0.6957
  160MOL0     C21521   2.483   6.979   9.006  0.7317  0.0576  0.4607
  160MOL0     C21522   2.596   6.896   9.002  0.4928  0.3443 -0.5081
  160MOL0     C21523   2.706   6.932   8.926  0.7973  1.2439 -0.3942
  160MOL0     O21524   2.819   6.860   8.906  0.5620 -0.0533  0.6214
  160MOL0     C21525   2.855   6.763   9.014 -0.2200 -0.6529 -0.1890
  160MOL0     C21526   3.003   6.733   9.008  0.3769  0.5400 -0.6654
  160MOL0     C21527   3.084   6.860   8.987  0.8869 -0.2555  0.4294
  160MOL0     C21528   3.224   6.854   9.053  0.6612 -0.0813  0.1840
  160MOL0     C21529   3.292   6.978   9.027 -0.5834 -0.6564  0.4252
  160MOL0     C21530   3.356   7.082   9.006 -0.4765  0.5347 -0.6063
  160MOL0     C21531   2.693   7.042   8.841  0.5363 -0.8228  0.7996
  160MOL0     C21532   2.581   7.121   8.840 -0.4142  0.1505 -0.1691
  160MOL0     H21533   2.164   7.395   9.002  1.4381  0.8395 -3.8506
  160MOL0     H21534   1.941   7.480   8.916 -1.6696 -0.4195 -1.4293
  160MOL0     H21535   1.644   7.509   8.966 -1.2441  1.5009 -0.8371
  160MOL0     H21536   1.756   7.545   8.827  1.1802 -0.0519  2.0451
  160MOL0     H21537   1.544   7.590   8.751  1.9867  0.5956 -0.6693
  160MOL0     H21538   1.603   7.441   8.670  1.3114  0.0475 -0.4746
  160MOL0     H21539   1.452   7.301   8.813  0.7762 -0.8606  1.2635
  160MOL0     H21540   1.428   7.440   8.926  6.8149  1.5730  0.6742
  160MOL0     H21541   1.320   7.583   8.729 -3.5993  1.4246 -0.5311
  160MOL0     H21542   1.294   7.433   8.651 -1.4671 -1.1515  0.4950
  160MOL0     H21543   1.189   7.349   8.877  1.0131 -1.0330 -0.1755
  160MOL0     H21544   1.180   7.523   8.916 -2.3250  0.0897 -1.3047
  160MOL0     H21545   1.041   7.563   8.735 -3.4851 -0.2643 -0.2929
  160MOL0     H21546   1.060   7.396   8.663  1.6438 -0.1046 -0.2607
  160MOL0     H21547   0.951   7.314   8.885  3.6201  0.1154 -0.4651
  160MOL0     H21548   0.965   7.478   8.939 -0.9355 -3.4853  3.7291
  160MOL0     H21549   0.738   7.432   8.883  0.7399  1.7721  1.8680
  160MOL0     H21550   0.784   7.371   8.718 -0.5599 -0.6884  1.7708
  160MOL0     H21551   0.731   7.718   8.932 -0.9416 -2.7917  0.2313
  160MOL0     H21552   0.790   7.972   8.858  1.0888  2.8784 -1.7131
  160MOL0     H21553   0.789   8.006   8.691 -0.1800  1.4779  1.7068
  160MOL0     H21554   0.526   7.923   8.829 -2.4902  0.3526 -1.2550
  160MOL0     H21555   0.536   7.986   8.676 -1.1148  2.1505  0.1930
  160MOL0     H21556   0.604   8.204   8.765 -1.8311 -1.5116 -2.8428
  160MOL0     H21557   0.637   8.126   8.930 -0.0885 -0.8095  0.2160
  160MOL0     H21558   0.377   8.059   8.904 -3.2605  2.3622  1.8397
  160MOL0     H21559   0.373   8.183   8.783 -2.2905  3.1191  1.3078
  160MOL0     H21560   0.370   8.476   9.093  0.3019  0.4994 -1.9033
  160MOL0     H21561   0.126   8.725   9.107  1.0852  1.7691  1.6368
  160MOL0     H21562   0.095   8.627   9.257  2.4847  0.1956  1.3599
  160MOL0     H21563   0.260   8.655   9.198 -0.2483 -0.3963  1.9599
  160MOL0     H21564  -0.307   8.505   9.354  1.4722  0.5290  0.3845
  160MOL0     H21565  -0.494   8.644   9.434 -2.9919 -0.4663 -2.3120
  160MOL0     H21566  -0.544   9.033   9.240  1.5195 -0.3280  1.7201
  160MOL0     H21567  -0.672   8.956   9.143  2.9352 -0.2019 -0.5108
  160MOL0     H21568  -0.704   9.072   9.438 -1.8253 -1.7950  1.1190
  160MOL0     H21569  -0.762   9.139   9.295 -1.1872  0.3780  0.3882
  160MOL0     H21570  -0.950   9.025   9.407 -1.3645 -0.3277  0.9722
  160MOL0     H21571  -0.860   8.872   9.433 -1.7428 -0.0826  0.9149
  160MOL0     H21572  -0.968   8.980   9.176 -1.4784  2.0803  2.7510
  160MOL0     H21573  -0.868   8.825   9.190  2.3715  0.9335  0.3518
  160MOL0     H21574  -1.123   8.874   9.356  0.5775 -0.6948  2.1684
  160MOL0     H21575  -1.019   8.734   9.339  0.1941 -0.7733 -0.5662
  160MOL0     H21576  -1.166   8.875   9.115  2.2619  1.0809  0.3692
  160MOL0     H21577  -1.070   8.719   9.095  0.0486 -0.6539  0.6577
  160MOL0     H21578  -1.230   8.639   9.283 -0.3571  0.1504  0.3312
  160MOL0     H21579  -1.261   8.625   9.105  1.3805  0.1934 -0.0540
  160MOL0     H21580  -1.368   8.857   9.125  1.6643 -0.6798 -0.3263
  160MOL0     H21581  -1.399   8.808   9.289 -1.9352  3.4885 -1.0481
  160MOL0     H21582  -0.431   8.902   9.100  1.6514  1.5449  2.1661
  160MOL0     H21583  -0.239   8.759   9.028 -0.6626 -2.2380 -0.3306
  160MOL0     H21584  -0.041   8.300   8.887  1.3188  2.1006 -2.0838
  160MOL0     H21585   0.175   8.179   8.868 -0.1740  1.1660 -2.0612
  160MOL0     H21586   1.802   7.078   8.913 -2.6459  1.3008  2.8310
  160MOL0     H21587   2.015   7.005   8.902 -0.3267  1.8030 -0.6572
  160MOL0     H21588   2.393   6.954   9.061  0.1744  1.0635  0.0364
  160MOL0     H21589   2.599   6.805   9.062 -0.3156  1.1931  0.8793
  160MOL0     H21590   2.830   6.811   9.109  1.0016  0.6625 -0.4904
  160MOL0     H21591   2.798   6.670   9.007  0.4225 -1.1553  0.9500
  160MOL0     H21592   3.014   6.673   8.917  0.8292  2.7868 -2.1725
  160MOL0     H21593   3.026   6.676   9.098 -0.5697  1.0078 -0.1059
  160MOL0     H21594   3.035   6.950   9.024  0.7659 -0.8263  1.7117
  160MOL0     H21595   3.097   6.871   8.879 -2.2191 -0.5628 -0.0745
  160MOL0     H21596   3.278   6.764   9.020  1.3025  0.1220  0.6557
  160MOL0     H21597   3.200   6.845   9.159 -1.4068 -2.7505 -0.4080
  160MOL0     H21598   3.424   7.164   8.992  0.0660 -0.0460 -1.4528
  160MOL0     H21599   2.766   7.072   8.766 -1.6063  1.8701 -0.4256
  160MOL0     H21600   2.587   7.196   8.762  2.2477 -1.1862 -1.3888
  161MOL0     O21601   5.107   0.184   0.310  0.6462 -0.6874  0.0683
  161MOL0     C21602   5.061   0.292   0.263  0.4303  0.1864  0.8793
  161MOL0     O21603   4.942   0.343   0.297  0.7483 -0.1149 -0.8476
  161MOL0     C21604   4.854   0.280   0.382 -0.4034  0.6419  0.5661
  161MOL0     C21605   4.769   0.349   0.461  0.3106  0.2753 -0.0928
  161MOL0     C21606   4.655   0.282   0.528 -0.2241 -0.4372  0.4124
  161MOL0     C21607   4.642   0.145   0.518 -0.3113 -0.6930 -0.6317
  161MOL0     O21608   4.543   0.077   0.594 -0.2746  0.7220 -0.1302
  161MOL0     C21609   4.484   0.131   0.708  0.4164  0.2441 -0.0898
  161MOL0     C21610   4.351   0.037   0.739 -0.2964 -0.0670  0.8183
  161MOL0     C21611   4.233   0.050   0.642 -0.6811  0.6043 -0.4295
  161MOL0     C21612   4.155  -0.082   0.606  0.2968 -0.0943  0.1256
  161MOL0     C21613   4.210  -0.162   0.485  0.0534  0.1400 -0.5815
  161MOL0     C21614   4.351  -0.225   0.512 -0.0281  0.3329 -0.8624
  161MOL0     C21615   4.416  -0.317   0.403  0.4487  0.0642  0.3455
  161MOL0     C21616   4.433  -0.247   0.271 -0.5831 -0.0919  0.1671
  161MOL0     N21617   4.554  -0.288   0.208 -0.1185  0.3602  0.4026
  161MOL0     C21618   4.582  -0.412   0.165  0.1308 -0.1690  0.7254
  161MOL0     C21619   4.718  -0.403   0.138 -0.0627 -0.1396 -0.0586
  161MOL0     C21620   4.797  -0.520   0.077 -0.0657 -0.0674  0.3291
  161MOL0     C21621   4.888  -0.584   0.184  0.5412 -0.6884 -0.6840
  161MOL0     C21622   4.916  -0.732   0.152 -0.4327  0.0044  0.0533
  161MOL0     C21623   4.795  -0.819   0.148  0.4604 -0.8005  0.2519
  161MOL0     O21624   4.723  -0.811   0.275 -0.6188 -0.2958 -0.0854
  161MOL0     C21625   4.588  -0.794   0.278  0.8619  0.4093  1.0761
  161MOL0     C21626   4.528  -0.755   0.403 -0.2618 -0.1584  0.9425
  161MOL0     C21627   4.390  -0.729   0.419 -0.1142 -0.2552  0.3749
  161MOL0     C21628   4.346  -0.706   0.558  0.3763 -0.3102 -0.1200
  161MOL0     C21629   4.302  -0.726   0.305  0.1937  0.2778 -0.5560
  161MOL0     C21630   4.157  -0.687   0.302 -0.5600 -0.4951 -0.3941
  161MOL0     O21631   4.075  -0.744   0.210  0.4458 -0.2498  0.5537
  161MOL0     C21632   3.941  -0.722   0.185 -0.1183 -0.5361 -0.4140
  161MOL0     C21633   3.878  -0.816   0.101  0.9510  0.6478  0.3867
  161MOL0     C21634   3.751  -0.793   0.045  0.0651 -0.2729  0.0793
  161MOL0     C21635   3.684  -0.671   0.073  0.0181  0.4068  0.3550
  161MOL0     O21636   3.574  -0.628   0.006  0.6359  0.0364 -0.7288
  161MOL0     C21637   3.462  -0.715  -0.002 -0.1641 -0.8991  0.5646
  161MOL0     C21638   3.365  -0.645  -0.100  0.3185  0.9108 -0.4139
  161MOL0     C21639   3.219  -0.704  -0.087 -0.7276  0.5809 -0.0365
  161MOL0     C21640   3.106  -0.623  -0.153  0.3677 -0.4146 -0.3450
  161MOL0     C21641   2.968  -0.690  -0.143  0.3556  0.4964 -0.3935
  161MOL0     C21642   2.941  -0.705   0.011 -0.0937  0.9027  0.1980
  161MOL0     C21643   2.793  -0.745   0.055 -0.8181  0.4369 -0.5114
  161MOL0     C21644   2.713  -0.847  -0.026 -0.0727  0.0924  0.5684
  161MOL0    Cl21645   2.700  -1.016   0.038  0.3017  0.1504 -0.2774
  161MOL0     C21646   3.739  -0.589   0.171 -0.3444 -0.8735  0.1229
  161MOL0     C21647   3.862  -0.611   0.224 -0.1039 -0.9133  0.2091
  161MOL0     O21648   4.123  -0.593   0.376 -0.0107  0.0685  0.4298
  161MOL0     C21649   4.360  -0.757   0.185  0.0668  0.2996 -0.0962
  161MOL0     C21650   4.495  -0.798   0.171  0.4130 -0.2902 -0.6884
  161MOL0     N21651   4.758  -0.269   0.164 -0.7261  0.0975 -0.6247
  161MOL0     N21652   4.659  -0.206   0.217  0.0773  0.0742  0.3695
  161MOL0     C21653   4.731   0.076   0.441 -0.6116 -0.0251  0.4788
  161MOL0     C21654   4.826   0.144   0.365 -0.4035  0.1972  0.6011
  161MOL0     C21655   5.143   0.362   0.175  0.0895 -1.1438  0.1264
  161MOL0     C21656   5.087   0.469   0.101  0.0890  0.3802  0.2926
  161MOL0     C21657   5.163   0.541   0.019 -0.1627  0.9483  0.9275
  161MOL0     C21658   5.304   0.526   0.009  0.0660  0.7328  0.6113
  161MOL0     O21659   5.380   0.612  -0.072  0.1833 -0.2721 -0.3870
  161MOL0     C21660   5.523   0.607  -0.048  0.0321 -0.5496  0.1163
  161MOL0     C21661   5.593   0.721  -0.126  0.3194  0.8559 -0.0273
  161MOL0     C21662   5.546   0.857  -0.077 -0.2499 -0.7208  0.7228
  161MOL0     C21663   5.581   0.965  -0.175  0.4819  0.0208 -0.8610
  161MOL0     C21664   5.523   0.954  -0.308 -0.6537 -0.4857  0.4953
  161MOL0     C21665   5.452   0.954  -0.406 -0.8035 -0.2296  0.5597
  161MOL0     C21666   5.357   0.409   0.070  0.1040  0.1865 -0.5528
  161MOL0     C21667   5.277   0.328   0.153 -0.2828 -0.3477  1.0075
  161MOL0     H21668   4.777   0.457   0.469  2.7538  0.0106  2.9196
  161MOL0     H21669   4.588   0.346   0.583  0.6553  2.4565 -1.6703
  161MOL0     H21670   4.556   0.137   0.790 -0.6514  0.7246  0.8407
  161MOL0     H21671   4.435   0.225   0.681 -2.2859 -2.1299 -4.6527
  161MOL0     H21672   4.381  -0.068   0.749  3.8736  0.5932 -2.2059
  161MOL0     H21673   4.306   0.063   0.835 -0.3420  0.9036  0.5419
  161MOL0     H21674   4.159   0.117   0.688 -1.7854 -0.3328 -0.7801
  161MOL0     H21675   4.264   0.103   0.552 -1.5489 -0.2270 -1.2394
  161MOL0     H21676   4.160  -0.139   0.698  0.3204  2.0963  1.5593
  161MOL0     H21677   4.052  -0.055   0.581  0.5843 -1.5070 -3.1409
  161MOL0     H21678   4.135  -0.239   0.465  0.0198  0.1405 -0.4625
  161MOL0     H21679   4.204  -0.105   0.392  0.4468 -0.4324 -0.9596
  161MOL0     H21680   4.424  -0.144   0.522  0.2198  0.0574 -0.4118
  161MOL0     H21681   4.338  -0.275   0.608 -1.9055  2.4852  0.0975
  161MOL0     H21682   4.509  -0.345   0.454  0.9779  0.1579 -0.5433
  161MOL0     H21683   4.356  -0.407   0.396  0.2093  0.1746  0.8876
  161MOL0     H21684   4.436  -0.139   0.283 -0.2764  0.2139 -2.1450
  161MOL0     H21685   4.340  -0.274   0.219  0.6934 -3.0643 -0.7952
  161MOL0     H21686   4.527  -0.501   0.134  0.3957  0.3183 -1.3198
  161MOL0     H21687   4.721  -0.589   0.038  0.1125 -0.8138  1.3014
  161MOL0     H21688   4.854  -0.492  -0.012 -1.8890 -1.5260 -1.3974
  161MOL0     H21689   4.832  -0.575   0.277  0.0105  0.6372 -1.1076
  161MOL0     H21690   4.981  -0.527   0.187  0.3142 -0.2663 -1.4036
  161MOL0     H21691   4.985  -0.770   0.227  1.6904  1.7824 -0.8825
  161MOL0     H21692   4.967  -0.740   0.056 -0.8301  0.2367 -0.1795
  161MOL0     H21693   4.822  -0.925   0.141 -0.4680 -1.0952  0.9571
  161MOL0     H21694   4.735  -0.787   0.063  1.1083  0.1037  0.1186
  161MOL0     H21695   4.604  -0.738   0.478 -1.1708  0.8587  1.6608
  161MOL0     H21696   4.244  -0.736   0.582  1.2543 -1.0769  3.3285
  161MOL0     H21697   4.410  -0.743   0.639 -0.1050 -0.0201  0.3977
  161MOL0     H21698   4.345  -0.597   0.570 -1.1037 -0.4342  1.1474
  161MOL0     H21699   3.919  -0.916   0.088  0.0929  0.4450 -1.0433
  161MOL0     H21700   3.699  -0.868  -0.014 -0.9359 -0.3903  1.0770
  161MOL0     H21701   3.490  -0.813  -0.043  1.0124 -1.4789  2.5898
  161MOL0     H21702   3.418  -0.728   0.097 -0.3086  0.2715  0.6689
  161MOL0     H21703   3.362  -0.538  -0.075 -0.3391  0.8383 -0.1847
  161MOL0     H21704   3.410  -0.659  -0.199  0.9045  0.6661 -0.1213
  161MOL0     H21705   3.194  -0.710   0.020 -0.6838  1.2557  0.0178
  161MOL0     H21706   3.218  -0.801  -0.137  0.2981  0.7996 -0.5051
  161MOL0     H21707   3.109  -0.531  -0.093 -1.0344  2.1784 -3.8661
  161MOL0     H21708   3.136  -0.581  -0.250  0.1078 -0.9954 -0.6799
  161MOL0     H21709   2.963  -0.787  -0.192 -2.1016  0.6339 -0.5725
  161MOL0     H21710   2.891  -0.628  -0.191 -0.0662  0.0517 -0.3016
  161MOL0     H21711   2.998  -0.792   0.044 -0.1546  0.4500 -0.8655
  161MOL0     H21712   2.972  -0.617   0.068  0.0231 -0.3101  2.0867
  161MOL0     H21713   2.733  -0.654   0.053 -1.3248  0.0996 -1.6316
  161MOL0     H21714   2.805  -0.784   0.157  0.3437 -0.8596 -1.1111
  161MOL0     H21715   2.750  -0.862  -0.128 -1.4084  1.4559 -0.1502
  161MOL0     H21716   2.611  -0.808  -0.023  0.4665  1.6187  0.0467
  161MOL0     H21717   3.665  -0.512   0.195 -0.1813 -0.0175 -1.9232
  161MOL0     H21718   3.899  -0.540   0.297 -3.4417  1.2245  0.0237
  161MOL0     H21719   4.312  -0.770   0.088  0.7786  4.5670 -1.2466
  161MOL0     H21720   4.527  -0.840   0.076  1.4251 -1.7098  0.2512
  161MOL0     H21721   4.713  -0.031   0.431 -1.1865 -0.2385  2.9779
  161MOL0     H21722   4.885   0.106   0.283 -1.4595  0.7669 -0.4634
  161MOL0     H21723   4.980   0.484   0.092 -0.2762 -0.3677  2.7866
  161MOL0     H21724   5.107   0.615  -0.038  0.8089  1.3144  0.4184
  161MOL0     H21725   5.532   0.618   0.061 -3.7759  0.0913  0.4761
  161MOL0     H21726   5.573   0.515  -0.078  0.0542 -0.2048 -0.9446
  161MOL0     H21727   5.563   0.712  -0.230  0.3353  2.0979 -0.1537
  161MOL0     H21728   5.699   0.699  -0.105  0.2575 -1.4511 -1.7638
  161MOL0     H21729   5.594   0.874   0.019 -0.2902  0.8947  0.4928
  161MOL0     H21730   5.437   0.867  -0.074 -0.2684  1.8195 -2.5155
  161MOL0     H21731   5.690   0.975  -0.179  0.4751  1.7595  1.2784
  161MOL0     H21732   5.539   1.056  -0.132  1.7375 -0.3316  1.2452
  161MOL0     H21733   5.407   0.969  -0.502  3.2018  3.5736 -1.0502
  161MOL0     H21734   5.464   0.389   0.068 -0.2419 -1.8304 -0.5761
  161MOL0     H21735   5.315   0.241   0.205  2.4189  1.0028  1.4803
  162MOL0     O21736   5.894   4.548   4.629  0.0452 -0.3352  0.0286
  162MOL0     C21737   5.956   4.456   4.574  0.9202 -0.6594  0.7297
  162MOL0     O21738   5.896   4.346   4.508 -0.1012 -0.0136  0.3183
  162MOL0     C21739   5.761   4.339   4.518  0.3275  0.7035  0.0583
  162MOL0     C21740   5.681   4.391   4.419  0.0064 -0.2834  0.0247
  162MOL0     C21741   5.545   4.377   4.422  0.2143  0.2311  0.9245
  162MOL0     C21742   5.475   4.307   4.525 -0.2508 -0.7350  0.1055
  162MOL0     O21743   5.338   4.298   4.529  0.3104 -0.1538 -0.3939
  162MOL0     C21744   5.251   4.330   4.418 -0.9239  1.1012  1.3955
  162MOL0     C21745   5.205   4.468   4.439  1.0571  0.2002 -0.5062
  162MOL0     C21746   5.106   4.484   4.559  0.2232  0.4217 -0.0626
  162MOL0     C21747   5.032   4.615   4.546  1.6023 -0.8037 -0.3402
  162MOL0     C21748   4.901   4.627   4.624  0.6073  0.2340 -0.5077
  162MOL0     C21749   4.932   4.655   4.776  0.1278  0.1925  0.1088
  162MOL0     C21750   4.815   4.609   4.873 -0.0069  0.5078  0.8074
  162MOL0     C21751   4.688   4.682   4.819 -0.7032  0.5532  0.2894
  162MOL0     N21752   4.585   4.649   4.909  0.6441 -1.1234 -0.3485
  162MOL0     C21753   4.579   4.674   5.050 -0.9723  0.3390  0.2750
  162MOL0     C21754   4.463   4.614   5.078  0.2199  0.7605  1.1036
  162MOL0     C21755   4.401   4.592   5.207 -0.1395  0.2352 -0.0937
  162MOL0     C21756   4.348   4.723   5.269 -0.1883  0.2714  0.3240
  162MOL0     C21757   4.459   4.820   5.311 -0.0097  1.0114  0.0313
  162MOL0     C21758   4.412   4.965   5.350  0.0996  1.3285  0.1679
  162MOL0     O21759   4.365   5.020   5.223  0.2279 -0.1798  0.3650
  162MOL0     C21760   4.319   5.147   5.229 -0.2252 -0.0198  0.2564
  162MOL0     C21761   4.255   5.197   5.119 -0.4605  0.3330  0.6267
  162MOL0     C21762   4.206   5.332   5.107 -0.5577  0.9993  0.0529
  162MOL0     C21763   4.127   5.365   4.981 -0.2769  0.1942 -0.1617
  162MOL0     C21764   4.213   5.411   5.219  0.2195 -0.6654 -0.9487
  162MOL0     C21765   4.143   5.546   5.229  0.4344 -0.0100 -0.3668
  162MOL0     O21766   4.116   5.596   5.358  0.1724 -0.1454 -1.5152
  162MOL0     C21767   4.041   5.711   5.361 -0.0515 -0.4427 -1.0824
  162MOL0     C21768   4.082   5.824   5.434 -0.2178  0.5656  0.3742
  162MOL0     C21769   4.013   5.944   5.421  0.0407  0.3417 -0.5270
  162MOL0     C21770   3.885   5.945   5.362  0.2926 -0.6717  0.2804
  162MOL0     O21771   3.799   6.049   5.350 -0.2922 -0.4173  0.0475
  162MOL0     C21772   3.839   6.166   5.429  0.2690  0.4508  0.1311
  162MOL0     C21773   3.725   6.279   5.440  0.8121  0.3552  0.2263
  162MOL0     C21774   3.768   6.394   5.523  0.0712 -0.0844 -0.5879
  162MOL0     C21775   3.661   6.502   5.554  0.4324  0.2612  0.2740
  162MOL0     C21776   3.623   6.581   5.420  0.4108 -0.3235 -0.3911
  162MOL0     C21777   3.661   6.727   5.427  0.0129 -0.1055 -0.0570
  162MOL0     C21778   3.809   6.767   5.445  0.6754 -0.0714  0.4369
  162MOL0     C21779   3.831   6.908   5.483  0.0845  0.2368  0.4213
  162MOL0    Cl21780   4.010   6.930   5.513  0.1642  0.4957  0.1956
  162MOL0     C21781   3.839   5.832   5.300 -0.7155 -0.0444  0.1471
  162MOL0     C21782   3.914   5.715   5.302 -0.5066  0.3349 -0.8046
  162MOL0     O21783   4.130   5.607   5.120  0.0251  0.5010  0.0605
  162MOL0     C21784   4.268   5.353   5.338 -1.4257 -1.3204 -0.1117
  162MOL0     C21785   4.324   5.231   5.342 -0.0063 -0.5205 -0.0842
  162MOL0     N21786   4.390   4.588   4.963 -0.1751  0.9266 -0.1262
  162MOL0     N21787   4.466   4.601   4.860  0.7552 -0.2249 -0.0006
  162MOL0     C21788   5.555   4.253   4.630  0.0688  0.5036  0.5707
  162MOL0     C21789   5.702   4.258   4.616 -0.1326 -0.5842  0.4048
  162MOL0     C21790   6.103   4.465   4.582 -0.0443 -0.5048 -0.6288
  162MOL0     C21791   6.181   4.360   4.533  0.5122 -0.0021 -0.2502
  162MOL0     C21792   6.320   4.375   4.535 -0.1422  0.0220 -0.3715
  162MOL0     C21793   6.385   4.467   4.613  0.5683 -0.2876  0.2445
  162MOL0     O21794   6.525   4.467   4.613  0.1715  0.1974  0.5133
  162MOL0     C21795   6.592   4.549   4.714  0.6715  0.3476 -0.7989
  162MOL0     C21796   6.747   4.523   4.720  0.3376  0.7191 -0.1848
  162MOL0     C21797   6.827   4.615   4.626 -0.1055 -0.1840 -0.4637
  162MOL0     C21798   6.977   4.592   4.651  0.6827 -0.0349  0.7365
  162MOL0     C21799   7.057   4.637   4.538  0.7365 -0.5839 -0.1183
  162MOL0     C21800   7.117   4.694   4.449 -0.2183 -0.1909 -0.0119
  162MOL0     C21801   6.309   4.568   4.662  0.4916  0.5367  0.1242
  162MOL0     C21802   6.171   4.571   4.648  0.4880 -0.0755  0.0628
  162MOL0     H21803   5.730   4.439   4.335 -0.4751  0.6154  0.2365
  162MOL0     H21804   5.491   4.415   4.336  0.8406 -1.3013 -0.1735
  162MOL0     H21805   5.287   4.324   4.315 -3.1541  2.8860  0.4280
  162MOL0     H21806   5.161   4.269   4.430  0.3298 -0.7697  1.6468
  162MOL0     H21807   5.289   4.536   4.456  0.9594 -0.0926  1.4168
  162MOL0     H21808   5.151   4.498   4.349 -1.0793 -4.0593 -0.8888
  162MOL0     H21809   5.035   4.401   4.570  1.4810 -0.6716  0.1827
  162MOL0     H21810   5.164   4.479   4.651  0.2471  0.5716 -0.0698
  162MOL0     H21811   5.097   4.689   4.593 -2.6089  0.5462  4.1307
  162MOL0     H21812   5.022   4.637   4.439  4.1449 -2.7901 -1.0865
  162MOL0     H21813   4.843   4.712   4.586 -1.8928 -1.2986 -0.3607
  162MOL0     H21814   4.847   4.533   4.611  1.8985 -0.2079 -3.3286
  162MOL0     H21815   5.024   4.604   4.808 -0.9068 -0.3728  2.3640
  162MOL0     H21816   4.962   4.760   4.782 -0.2695  0.3499 -0.6351
  162MOL0     H21817   4.809   4.500   4.870  1.4657  0.4081  0.3357
  162MOL0     H21818   4.847   4.630   4.976 -0.5847  0.5549  0.9795
  162MOL0     H21819   4.656   4.644   4.721  0.9399  1.0435 -0.4720
  162MOL0     H21820   4.709   4.788   4.802  1.5232  0.3653  1.5591
  162MOL0     H21821   4.658   4.705   5.117 -0.7577 -4.2962  2.5916
  162MOL0     H21822   4.322   4.516   5.201 -2.2065  2.3684 -2.6473
  162MOL0     H21823   4.480   4.551   5.270 -0.2089  1.1861  0.6214
  162MOL0     H21824   4.280   4.706   5.353 -1.1974  0.0564 -0.5145
  162MOL0     H21825   4.281   4.761   5.191  1.1101 -2.0576 -2.1081
  162MOL0     H21826   4.525   4.835   5.225 -0.9294 -4.0999 -1.9257
  162MOL0     H21827   4.507   4.776   5.399 -1.0959 -3.2734 -1.2877
  162MOL0     H21828   4.494   5.017   5.401 -0.0998 -0.2484  2.2626
  162MOL0     H21829   4.335   4.954   5.427  0.9029 -3.2293  0.6313
  162MOL0     H21830   4.243   5.128   5.036  2.9516  1.2646 -0.8340
  162MOL0     H21831   4.189   5.433   4.922 -0.8886 -0.0681 -1.1182
  162MOL0     H21832   4.106   5.278   4.918 -2.6999 -0.0360  0.8656
  162MOL0     H21833   4.037   5.424   4.998 -2.0911 -2.4192 -0.1204
  162MOL0     H21834   4.176   5.823   5.488  0.3756  0.4979 -0.6390
  162MOL0     H21835   4.068   6.030   5.459  0.3085  1.5785 -3.3974
  162MOL0     H21836   3.863   6.138   5.532 -1.1893  3.5002  1.4341
  162MOL0     H21837   3.928   6.210   5.383 -1.6162  0.3391 -4.0976
  162MOL0     H21838   3.703   6.304   5.336 -0.9965  0.5969  0.6262
  162MOL0     H21839   3.633   6.242   5.487  0.0899  0.8939 -0.7242
  162MOL0     H21840   3.863   6.431   5.484  0.8129 -0.4831  0.7931
  162MOL0     H21841   3.793   6.361   5.624  1.5362 -1.7538 -1.4355
  162MOL0     H21842   3.571   6.461   5.599  1.0553  0.3225  1.6218
  162MOL0     H21843   3.691   6.576   5.629  1.6164 -1.4611  1.5929
  162MOL0     H21844   3.515   6.577   5.402  0.6326 -0.3770 -1.8458
  162MOL0     H21845   3.674   6.540   5.333 -0.7754  0.8802 -1.7201
  162MOL0     H21846   3.624   6.774   5.334 -0.8174  2.7515  1.5723
  162MOL0     H21847   3.599   6.772   5.505 -0.4911  0.8098 -0.9585
  162MOL0     H21848   3.864   6.730   5.358 -2.2233  0.6071 -1.8404
  162MOL0     H21849   3.843   6.709   5.531 -2.5887 -0.6277  1.4850
  162MOL0     H21850   3.771   6.937   5.570  0.8916  0.6303  0.8618
  162MOL0     H21851   3.792   6.966   5.399  2.7801 -0.2505 -1.2991
  162MOL0     H21852   3.747   5.830   5.243 -0.6875 -0.6725  0.1160
  162MOL0     H21853   3.886   5.621   5.256 -0.6052 -1.6566  2.9904
  162MOL0     H21854   4.267   5.405   5.433 -3.7910  0.4415 -1.0122
  162MOL0     H21855   4.365   5.192   5.434  2.1365 -0.5884 -1.0147
  162MOL0     H21856   5.502   4.186   4.696 -1.5720 -0.5973 -1.7221
  162MOL0     H21857   5.755   4.198   4.690 -0.0181 -0.0864  0.7335
  162MOL0     H21858   6.125   4.282   4.481 -1.6386  1.4131 -0.1795
  162MOL0     H21859   6.378   4.301   4.481  2.6099  2.4063 -0.9411
  162MOL0     H21860   6.579   4.657   4.717  1.8940  0.5013  1.1076
  162MOL0     H21861   6.559   4.513   4.812  0.8270  3.3063  0.4430
  162MOL0     H21862   6.762   4.419   4.688 -1.6067  1.1314 -2.8519
  162MOL0     H21863   6.768   4.544   4.825  0.6978 -2.2439  0.4305
  162MOL0     H21864   6.805   4.722   4.639 -0.0547  0.0702 -2.1816
  162MOL0     H21865   6.810   4.591   4.520  0.2571  2.1074 -1.1119
  162MOL0     H21866   7.008   4.489   4.672 -3.0036 -1.3454  0.5534
  162MOL0     H21867   6.996   4.642   4.746 -3.3852 -1.6933  2.6732
  162MOL0     H21868   7.175   4.749   4.379  0.0974 -2.7047 -1.8654
  162MOL0     H21869   6.356   4.650   4.714  1.9254 -1.0023  1.3894
  162MOL0     H21870   6.118   4.649   4.703 -2.0838 -0.9883 -0.9888
  163MOL0     O21871   2.343   0.487   6.176 -0.0990 -0.5211 -0.6429
  163MOL0     C21872   2.387   0.372   6.191  0.4841  0.1127 -0.2104
  163MOL0     O21873   2.315   0.263   6.172  0.6610 -0.0021 -0.0396
  163MOL0     C21874   2.183   0.280   6.130 -0.9271  0.0714  0.0695
  163MOL0     C21875   2.096   0.365   6.198 -0.0272 -0.3480 -0.2974
  163MOL0     C21876   1.965   0.382   6.149 -0.3668 -0.1698  1.1082
  163MOL0     C21877   1.918   0.308   6.040 -0.3618 -0.1736  0.3263
  163MOL0     O21878   1.791   0.330   5.990  0.4463 -0.3466 -0.4584
  163MOL0     C21879   1.705   0.225   5.929 -0.3525  0.1588 -1.1204
  163MOL0     C21880   1.558   0.278   5.891 -0.0908  0.1179 -0.5519
  163MOL0     C21881   1.483   0.174   5.813 -0.4679  0.1899  0.4767
  163MOL0     C21882   1.353   0.229   5.758 -0.1353 -1.0262 -0.1780
  163MOL0     C21883   1.277   0.121   5.684  0.0019  0.7398  1.2405
  163MOL0     C21884   1.145   0.174   5.624 -0.2543 -0.0582 -0.0409
  163MOL0     C21885   1.021   0.154   5.716  0.1043 -1.3186  0.0055
  163MOL0     C21886   0.941   0.027   5.681  0.0913 -0.3082 -0.4522
  163MOL0     N21887   0.853   0.049   5.559 -0.1226 -0.1134  0.0179
  163MOL0     C21888   0.737  -0.024   5.525  0.2456  0.0793 -0.4992
  163MOL0     C21889   0.709   0.019   5.402  0.4993  0.6826  0.5869
  163MOL0     C21890   0.591  -0.019   5.317 -0.4917  1.2493  0.9380
  163MOL0     C21891   0.460   0.055   5.339  0.0125  0.0668 -0.1568
  163MOL0     C21892   0.454   0.195   5.273  0.5962 -0.8674 -0.1693
  163MOL0     C21893   0.474   0.186   5.113  0.5964  0.3916 -0.7179
  163MOL0     O21894   0.360   0.127   5.052 -0.5988  0.1182  0.3716
  163MOL0     C21895   0.249   0.203   5.013  0.2716 -0.6383  0.4278
  163MOL0     C21896   0.139   0.117   4.991 -0.4901  0.6724 -0.2015
  163MOL0     C21897   0.015   0.166   4.949  0.2319  0.0855  0.1981
  163MOL0     C21898  -0.106   0.073   4.954  0.8670 -0.4654  0.0258
  163MOL0     C21899   0.011   0.306   4.918  0.0546  0.0607  0.3758
  163MOL0     C21900  -0.105   0.365   4.850  0.9132 -0.1894 -1.1444
  163MOL0     O21901  -0.136   0.491   4.901 -0.1352 -0.3919 -0.2362
  163MOL0     C21902  -0.265   0.525   4.896  0.0539  0.3891  0.9012
  163MOL0     C21903  -0.292   0.646   4.834  0.0984 -0.3245  0.5747
  163MOL0     C21904  -0.415   0.695   4.804  0.6141  0.1023  0.4901
  163MOL0     C21905  -0.527   0.622   4.848  0.6294  0.4154  0.1627
  163MOL0     O21906  -0.651   0.694   4.837 -0.2928  0.4782 -0.5502
  163MOL0     C21907  -0.774   0.620   4.838  0.5503 -0.0991 -0.3376
  163MOL0     C21908  -0.868   0.705   4.748 -0.3348 -0.0897 -0.2582
  163MOL0     C21909  -0.997   0.619   4.711 -0.0907  0.6285 -0.2032
  163MOL0     C21910  -1.108   0.642   4.813 -0.3203 -0.2520 -0.1161
  163MOL0     C21911  -1.247   0.570   4.781  0.2958  0.1541 -0.1005
  163MOL0     C21912  -1.356   0.653   4.860  0.2549  0.1182 -0.3630
  163MOL0     C21913  -1.489   0.610   4.806  0.7599 -1.0737 -0.4169
  163MOL0     C21914  -1.537   0.484   4.876 -0.8842 -0.6896 -0.4225
  163MOL0    Cl21915  -1.721   0.460   4.889 -0.1219  0.1880  0.1525
  163MOL0     C21916  -0.503   0.499   4.921 -0.8637  0.3757  0.0080
  163MOL0     C21917  -0.373   0.446   4.938 -0.0785 -0.2213 -1.0700
  163MOL0     O21918  -0.166   0.314   4.756  0.5732 -0.2090 -0.2687
  163MOL0     C21919   0.126   0.386   4.937  0.0654 -0.1615  0.8157
  163MOL0     C21920   0.241   0.335   4.990 -0.0416 -0.6455  0.1767
  163MOL0     N21921   0.799   0.119   5.366 -0.4080 -0.3727 -0.1095
  163MOL0     N21922   0.885   0.146   5.462 -0.5113 -0.0128 -0.0712
  163MOL0     C21923   2.008   0.217   5.986 -0.2144 -0.4637 -0.0606
  163MOL0     C21924   2.143   0.201   6.023  0.1891  0.4458 -0.1760
  163MOL0     C21925   2.529   0.359   6.231 -0.2983  0.0934  0.1280
  163MOL0     C21926   2.576   0.229   6.269  0.4539 -0.6879 -0.2100
  163MOL0     C21927   2.706   0.212   6.290 -0.2833  0.3068  0.3926
  163MOL0     C21928   2.800   0.320   6.273  0.2101 -0.8615 -0.2129
  163MOL0     O21929   2.940   0.302   6.284 -0.8001 -0.5494 -0.0645
  163MOL0     C21930   2.994   0.187   6.356 -0.4436 -0.4090 -0.1750
  163MOL0     C21931   2.967   0.192   6.509  0.1496  0.9124  0.0606
  163MOL0     C21932   2.970   0.042   6.566 -0.1438  0.3188  0.3160
  163MOL0     C21933   2.959   0.026   6.719 -0.1085  0.1338 -0.3833
  163MOL0     C21934   3.000  -0.108   6.753  0.4070 -0.2469 -0.4733
  163MOL0     C21935   3.031  -0.227   6.758  0.6558 -0.0533 -0.8875
  163MOL0     C21936   2.756   0.447   6.243 -0.1889  0.4978 -0.6000
  163MOL0     C21937   2.623   0.464   6.217  0.8317  0.1970 -0.3700
  163MOL0     H21938   2.132   0.426   6.280  0.4445  1.2767 -1.6536
  163MOL0     H21939   1.888   0.443   6.197 -1.2757 -0.4490  0.0594
  163MOL0     H21940   1.755   0.187   5.839  0.0961  2.0424 -1.6991
  163MOL0     H21941   1.691   0.143   6.000 -1.0680  0.4639 -0.9062
  163MOL0     H21942   1.498   0.289   5.981  1.1166 -2.9318  0.7799
  163MOL0     H21943   1.563   0.366   5.827 -2.8609 -0.2275 -1.3757
  163MOL0     H21944   1.545   0.150   5.727 -3.4773 -1.7101 -1.3609
  163MOL0     H21945   1.462   0.080   5.864 -1.0683 -0.8494 -1.5719
  163MOL0     H21946   1.290   0.264   5.840 -1.2575 -0.6034 -1.2041
  163MOL0     H21947   1.365   0.319   5.696 -2.2268  2.7432  4.2758
  163MOL0     H21948   1.342   0.089   5.603  1.5712  1.8056  2.0133
  163MOL0     H21949   1.257   0.032   5.744  0.4976  2.1412  3.6260
  163MOL0     H21950   1.149   0.277   5.589 -2.8841 -0.5135 -2.0116
  163MOL0     H21951   1.125   0.127   5.527 -2.2096 -0.1282  0.3587
  163MOL0     H21952   1.064   0.139   5.816  2.1645 -2.7218 -1.0285
  163MOL0     H21953   0.956   0.241   5.730  0.1730 -1.1925 -0.4385
  163MOL0     H21954   0.881  -0.001   5.768  1.2327  1.2367  0.8794
  163MOL0     H21955   1.001  -0.064   5.665 -1.1914 -1.2209 -0.1725
  163MOL0     H21956   0.680  -0.091   5.588 -0.3065 -0.3003 -1.3792
  163MOL0     H21957   0.621  -0.023   5.212  0.8162 -0.7604  1.3501
  163MOL0     H21958   0.578  -0.122   5.351 -2.9285  2.2680  3.5351
  163MOL0     H21959   0.438   0.070   5.445 -0.5300  1.8489 -0.4812
  163MOL0     H21960   0.371   0.003   5.302  0.5869  0.3306 -1.9926
  163MOL0     H21961   0.529   0.260   5.319  1.1017 -2.1277  0.8451
  163MOL0     H21962   0.355   0.234   5.296 -0.1520 -2.3059 -0.7927
  163MOL0     H21963   0.563   0.128   5.088  0.5228  0.5868 -1.4750
  163MOL0     H21964   0.493   0.286   5.073 -1.3360  0.1929 -2.3248
  163MOL0     H21965   0.143   0.011   5.016  1.3790 -0.0030 -2.9628
  163MOL0     H21966  -0.111   0.023   4.857  2.8805  0.4793 -0.6352
  163MOL0     H21967  -0.117   0.004   5.039 -1.4718 -0.1316  0.0514
  163MOL0     H21968  -0.203   0.123   4.965  0.4731 -1.4376  1.1837
  163MOL0     H21969  -0.209   0.691   4.780  2.0566 -2.3803  1.7040
  163MOL0     H21970  -0.412   0.789   4.750  3.0820 -2.3194 -4.2481
  163MOL0     H21971  -0.767   0.516   4.803  1.2963 -0.1126 -0.1563
  163MOL0     H21972  -0.820   0.621   4.937  0.6361  0.8556 -0.2999
  163MOL0     H21973  -0.897   0.798   4.800  0.0916 -0.6970  1.1107
  163MOL0     H21974  -0.811   0.722   4.657 -1.3556 -3.7793 -1.7490
  163MOL0     H21975  -0.981   0.510   4.713 -2.4597  0.1233 -2.5792
  163MOL0     H21976  -1.032   0.648   4.611 -0.0306  0.1507 -0.3676
  163MOL0     H21977  -1.076   0.616   4.914 -2.3268 -0.3925  0.5105
  163MOL0     H21978  -1.129   0.750   4.817 -3.7423 -0.7571 -1.1545
  163MOL0     H21979  -1.245   0.462   4.797 -2.4211  0.0041 -0.3755
  163MOL0     H21980  -1.269   0.595   4.677  4.8376 -0.5298 -1.4737
  163MOL0     H21981  -1.352   0.654   4.969 -1.1252  4.2601 -0.1898
  163MOL0     H21982  -1.345   0.757   4.828  0.8731 -0.1192 -0.9555
  163MOL0     H21983  -1.490   0.604   4.697  0.0246 -0.3696 -0.4642
  163MOL0     H21984  -1.570   0.684   4.815  2.8298  1.5047 -1.7429
  163MOL0     H21985  -1.499   0.480   4.979  2.4742  2.5562 -1.2691
  163MOL0     H21986  -1.495   0.396   4.826 -2.7818 -2.7767  1.4454
  163MOL0     H21987  -0.584   0.435   4.955 -0.5244  0.5166  1.1307
  163MOL0     H21988  -0.346   0.352   4.985  1.0557  0.9376  0.7306
  163MOL0     H21989   0.129   0.492   4.914 -2.5996 -0.1225  0.3518
  163MOL0     H21990   0.320   0.409   4.993 -0.8712  0.2414  0.7651
  163MOL0     H21991   1.973   0.146   5.911  1.8766 -1.1084 -0.4966
  163MOL0     H21992   2.213   0.136   5.972  3.2020  3.4761 -0.2663
  163MOL0     H21993   2.507   0.146   6.282  0.4847 -0.8460 -0.9868
  163MOL0     H21994   2.748   0.115   6.311 -2.2971 -0.3399  1.7060
  163MOL0     H21995   2.942   0.102   6.312 -0.3157  0.3346 -1.8412
  163MOL0     H21996   3.103   0.188   6.339 -0.6103  0.5994 -1.3276
  163MOL0     H21997   2.870   0.239   6.528 -1.0244 -1.5805  0.7564
  163MOL0     H21998   3.042   0.254   6.559 -1.7263  1.1987  2.7351
  163MOL0     H21999   3.071   0.005   6.547  0.2301  0.7968  1.3118
  163MOL0     H22000   2.905  -0.032   6.518  2.0631 -0.4384 -1.7405
  163MOL0     H22001   2.857   0.050   6.751  0.4479  2.5687 -0.2341
  163MOL0     H22002   3.028   0.100   6.762 -1.1545  1.5435 -1.0586
  163MOL0     H22003   3.053  -0.325   6.723 -0.2231  0.4655 -3.0516
  163MOL0     H22004   2.821   0.534   6.237  0.1988  0.3887  1.3306
  163MOL0     H22005   2.589   0.564   6.192 -0.9265 -0.6382 -1.5206
  164MOL0     O22006   6.835   6.799   7.631  1.0662 -0.3927 -0.9220
  164MOL0     C22007   6.855   6.859   7.527 -0.2727 -0.4462  0.1014
  164MOL0     O22008   6.975   6.860   7.457  0.1148  0.5450  0.3250
  164MOL0     C22009   7.075   6.779   7.502 -0.5547  1.1366 -0.0085
  164MOL0     C22010   7.056   6.641   7.517  0.3321  0.7895  0.1356
  164MOL0     C22011   7.158   6.558   7.550 -0.3958  0.4948  0.7774
  164MOL0     C22012   7.286   6.615   7.576 -0.2164  0.4325 -0.3574
  164MOL0     O22013   7.397   6.557   7.631  0.0386 -0.3568 -0.2839
  164MOL0     C22014   7.391   6.416   7.680 -0.3865  0.1790  0.2012
  164MOL0     C22015   7.530   6.364   7.707 -0.0712 -0.2442 -0.0345
  164MOL0     C22016   7.596   6.410   7.834  0.6605 -0.7681  0.1353
  164MOL0     C22017   7.617   6.562   7.843  0.7839  0.6615  0.1938
  164MOL0     C22018   7.730   6.604   7.944 -0.2231 -0.6392  0.2548
  164MOL0     C22019   7.769   6.755   7.951  0.3396  0.8146  0.7363
  164MOL0     C22020   7.898   6.777   8.028 -0.6303 -0.9962 -0.0255
  164MOL0     C22021   7.921   6.926   8.057  0.1760 -0.0309 -0.3240
  164MOL0     N22022   8.044   6.958   8.135 -0.5590  0.1456  0.0069
  164MOL0     C22023   8.171   6.934   8.088  1.6301  0.1052  0.5526
  164MOL0     C22024   8.248   6.942   8.199  0.1025  0.7720 -0.5980
  164MOL0     C22025   8.394   6.920   8.227  0.5987 -0.4466 -0.6263
  164MOL0     C22026   8.478   6.952   8.105 -0.4022  0.4992 -0.6862
  164MOL0     C22027   8.454   7.097   8.063  0.2369  0.0464 -0.3910
  164MOL0     C22028   8.524   7.116   7.922 -0.2647 -0.8370  0.6578
  164MOL0     O22029   8.476   7.015   7.823  0.7709  0.1303 -0.4799
  164MOL0     C22030   8.344   7.024   7.771  0.4109  0.5825 -0.2717
  164MOL0     C22031   8.288   6.906   7.735  0.3956  0.7629  0.5406
  164MOL0     C22032   8.153   6.893   7.683  0.2271 -0.9405 -0.4633
  164MOL0     C22033   8.117   6.752   7.639 -0.5139 -0.1357  0.9224
  164MOL0     C22034   8.060   7.002   7.672  0.6334  0.2587 -0.5918
  164MOL0     C22035   7.912   6.988   7.628  0.7014  0.3771  0.0477
  164MOL0     O22036   7.845   7.104   7.611  0.3905 -0.1551 -0.6321
  164MOL0     C22037   7.713   7.121   7.577  0.8653 -0.3172 -0.5355
  164MOL0     C22038   7.658   7.253   7.595 -0.2412  0.4068  0.0681
  164MOL0     C22039   7.531   7.295   7.545 -0.8850  0.6470 -0.7383
  164MOL0     C22040   7.443   7.203   7.490 -0.3649  0.7635 -0.0623
  164MOL0     O22041   7.309   7.221   7.463  0.0471  0.5937  0.4839
  164MOL0     C22042   7.236   7.333   7.530  0.1366  0.6902 -0.3491
  164MOL0     C22043   7.091   7.345   7.486  0.4202  0.3268 -0.3028
  164MOL0     C22044   7.043   7.479   7.538 -0.3601 -0.5586 -0.0703
  164MOL0     C22045   6.916   7.522   7.461  0.5479  0.7451 -0.7408
  164MOL0     C22046   6.848   7.653   7.512  0.4605 -0.3811 -0.3299
  164MOL0     C22047   6.798   7.740   7.393 -1.4368  0.4518  1.3460
  164MOL0     C22048   6.727   7.866   7.439 -0.8263 -0.2032 -1.0230
  164MOL0     C22049   6.580   7.863   7.394  0.5148  0.7656  0.3441
  164MOL0    Cl22050   6.492   7.705   7.435  0.3092 -0.5473  0.2502
  164MOL0     C22051   7.497   7.076   7.459  0.0418 -0.5576 -0.6894
  164MOL0     C22052   7.628   7.039   7.500 -0.9433  0.1501 -0.6643
  164MOL0     O22053   7.855   6.880   7.620 -0.9226  0.0909 -0.2698
  164MOL0     C22054   8.119   7.129   7.715 -0.4257 -0.0899 -0.1913
  164MOL0     C22055   8.251   7.135   7.770 -0.1325  0.1894  0.7338
  164MOL0     N22056   8.165   6.980   8.309 -0.6361  0.1300 -0.1463
  164MOL0     N22057   8.049   6.984   8.265  0.5360 -0.4514 -0.1511
  164MOL0     C22058   7.309   6.748   7.554  0.2715  0.3917  0.6377
  164MOL0     C22059   7.204   6.827   7.513 -0.3042 -0.4586 -0.9311
  164MOL0     C22060   6.739   6.924   7.480  0.2416  0.3679 -0.0707
  164MOL0     C22061   6.611   6.901   7.538 -0.3876 -0.5845 -0.3195
  164MOL0     C22062   6.503   6.976   7.484  0.1923 -0.0910 -0.5385
  164MOL0     C22063   6.515   7.067   7.376 -0.0479  0.4801 -0.2471
  164MOL0     O22064   6.421   7.151   7.325  0.8747 -1.3409  0.9969
  164MOL0     C22065   6.288   7.102   7.321  0.2086  1.0826  0.3030
  164MOL0     C22066   6.285   6.959   7.254  0.5328 -0.1304  0.3408
  164MOL0     C22067   6.138   6.917   7.259  0.0096 -0.5114 -0.6559
  164MOL0     C22068   6.097   6.779   7.188 -0.1528  0.6398 -0.0311
  164MOL0     C22069   6.176   6.670   7.238  0.9033  0.8338 -0.2867
  164MOL0     C22070   6.243   6.583   7.295  0.3612  0.6640  0.2241
  164MOL0     C22071   6.643   7.071   7.312  1.1148  0.3285 -0.3330
  164MOL0     C22072   6.754   7.009   7.369  0.3983  0.7645 -0.6212
  164MOL0     H22073   6.957   6.597   7.509 -0.7209  3.0121  0.3419
  164MOL0     H22074   7.147   6.450   7.558  2.3296 -0.0459 -1.0975
  164MOL0     H22075   7.322   6.402   7.764  0.6694  1.2867  1.2845
  164MOL0     H22076   7.352   6.364   7.591  0.2677  1.2062 -0.7013
  164MOL0     H22077   7.526   6.254   7.707 -1.2936 -0.2207  0.7946
  164MOL0     H22078   7.587   6.383   7.615  2.8026 -1.0086  1.4366
  164MOL0     H22079   7.538   6.383   7.922  1.2008  2.2512  1.5455
  164MOL0     H22080   7.696   6.366   7.832  1.4475  0.7839  2.3626
  164MOL0     H22081   7.641   6.600   7.743  0.3560  0.8061  0.1443
  164MOL0     H22082   7.524   6.613   7.867 -0.4622 -1.3760 -0.0769
  164MOL0     H22083   7.708   6.573   8.046 -0.4529 -0.8191  0.1526
  164MOL0     H22084   7.821   6.544   7.928  0.2989  0.4132 -0.8644
  164MOL0     H22085   7.777   6.788   7.847  1.0559  1.7384  1.0655
  164MOL0     H22086   7.685   6.812   7.992 -0.1490 -1.2586  2.7773
  164MOL0     H22087   7.884   6.727   8.125  0.3121  1.0384  1.2341
  164MOL0     H22088   7.981   6.730   7.975 -0.2180  0.4827 -0.7188
  164MOL0     H22089   7.837   6.973   8.109  0.6686  2.4379 -1.5840
  164MOL0     H22090   7.924   6.974   7.958  2.5164  2.2226  0.7148
  164MOL0     H22091   8.188   6.903   7.986 -1.3992  0.2541 -0.0843
  164MOL0     H22092   8.419   6.983   8.313  1.7761  2.1676 -2.7307
  164MOL0     H22093   8.415   6.818   8.260  0.9194  0.0559  0.8045
  164MOL0     H22094   8.445   6.895   8.018  1.9751  0.7019 -1.7971
  164MOL0     H22095   8.580   6.919   8.128 -0.2196 -1.5381 -3.8796
  164MOL0     H22096   8.508   7.153   8.140  2.2232 -4.1011  1.5717
  164MOL0     H22097   8.348   7.122   8.054 -0.1251 -1.2158  0.1079
  164MOL0     H22098   8.630   7.106   7.948 -0.1691  0.3062  0.7398
  164MOL0     H22099   8.515   7.218   7.885  0.7176 -0.6300  0.9708
  164MOL0     H22100   8.340   6.811   7.739  0.7717  0.9990  1.8601
  164MOL0     H22101   8.201   6.687   7.613 -2.2181 -2.1669  0.1802
  164MOL0     H22102   8.047   6.698   7.703 -0.4225 -2.9687 -1.1903
  164MOL0     H22103   8.061   6.770   7.546  0.3774  0.6154  0.5164
  164MOL0     H22104   7.734   7.317   7.638 -0.7056 -0.3349  2.1423
  164MOL0     H22105   7.523   7.403   7.545 -0.4115  0.7343  1.7397
  164MOL0     H22106   7.230   7.321   7.638  3.5922  0.1500 -0.1148
  164MOL0     H22107   7.301   7.416   7.500  2.1340  0.0756  2.0140
  164MOL0     H22108   7.088   7.340   7.377  1.2457 -0.4886 -0.2983
  164MOL0     H22109   7.028   7.266   7.528 -1.0384 -0.3299 -3.4373
  164MOL0     H22110   7.109   7.565   7.521 -1.0619 -0.0045 -0.0628
  164MOL0     H22111   7.021   7.474   7.645 -0.8306 -0.1598 -0.1468
  164MOL0     H22112   6.945   7.528   7.356  1.2745  3.4407 -0.4415
  164MOL0     H22113   6.839   7.446   7.478  0.8841  0.2093 -1.5512
  164MOL0     H22114   6.924   7.709   7.568 -0.5484 -1.1281  1.9226
  164MOL0     H22115   6.762   7.635   7.578  1.5199 -1.8324  0.7322
  164MOL0     H22116   6.880   7.767   7.325 -1.5794 -1.7137  0.2120
  164MOL0     H22117   6.732   7.688   7.322  0.1879  1.0650 -0.7031
  164MOL0     H22118   6.783   7.951   7.399  0.2764 -0.9639 -1.1366
  164MOL0     H22119   6.734   7.883   7.547 -2.1236  1.1710 -1.1220
  164MOL0     H22120   6.576   7.873   7.285  3.0341 -1.6341 -0.0860
  164MOL0     H22121   6.518   7.942   7.437 -0.2176 -0.6703  2.0501
  164MOL0     H22122   7.432   7.005   7.408  1.1144 -1.6218 -0.6149
  164MOL0     H22123   7.674   6.944   7.476  0.3775  0.9507 -1.3948
  164MOL0     H22124   8.058   7.218   7.701 -0.4613 -0.0526  0.1909
  164MOL0     H22125   8.262   7.233   7.816 -1.8152  0.8714 -0.2249
  164MOL0     H22126   7.406   6.791   7.576  2.0568 -1.9464 -1.9651
  164MOL0     H22127   7.214   6.934   7.498  0.6308 -0.5241 -0.8573
  164MOL0     H22128   6.595   6.832   7.620  0.0397 -0.4350 -0.1104
  164MOL0     H22129   6.407   6.981   7.533  1.4166 -2.0308  2.3447
  164MOL0     H22130   6.236   7.098   7.417 -1.8197  1.7521 -0.6986
  164MOL0     H22131   6.224   7.165   7.258 -0.9635 -1.9538 -1.8073
  164MOL0     H22132   6.342   6.888   7.314  0.2089 -1.2953 -0.6890
  164MOL0     H22133   6.323   6.977   7.153 -0.4632  3.9335  0.4896
  164MOL0     H22134   6.071   6.990   7.214 -2.2726 -2.9144 -1.4317
  164MOL0     H22135   6.103   6.904   7.362 -3.6962 -0.1927 -1.7060
  164MOL0     H22136   6.087   6.796   7.081 -1.2856 -0.5833 -0.1532
  164MOL0     H22137   5.996   6.747   7.215  0.6766 -1.0274  1.2622
  164MOL0     H22138   6.301   6.505   7.340  0.4788  0.5159 -0.1751
  164MOL0     H22139   6.640   7.129   7.221 -3.7667 -2.2458 -2.2041
  164MOL0     H22140   6.846   7.041   7.321 -1.4470  2.4613 -3.2679
  165MOL0     O22141   4.957   4.981   9.153  0.0527  0.1874  0.0552
  165MOL0     C22142   4.963   5.060   9.253 -0.6994 -0.3776  0.5949
  165MOL0     O22143   4.861   5.118   9.311  0.2094 -0.6777 -0.1686
  165MOL0     C22144   4.724   5.093   9.290 -0.3371 -0.1679  0.0408
  165MOL0     C22145   4.638   5.168   9.366 -0.2634 -0.2140  0.2757
  165MOL0     C22146   4.499   5.152   9.366 -0.4324  0.9833  0.9041
  165MOL0     C22147   4.443   5.054   9.274  0.5721 -0.6565  0.6561
  165MOL0     O22148   4.314   5.029   9.265 -0.4714  0.7370 -0.3244
  165MOL0     C22149   4.251   4.988   9.388 -0.4423 -0.1856  0.4925
  165MOL0     C22150   4.114   4.941   9.359  0.2640  0.3705  0.1327
  165MOL0     C22151   4.038   5.050   9.288 -0.3763 -0.1318  1.1407
  165MOL0     C22152   3.895   4.993   9.272  1.4880 -0.5728  0.0003
  165MOL0     C22153   3.797   5.108   9.233 -0.0600 -0.0814 -0.1870
  165MOL0     C22154   3.651   5.056   9.245 -0.7464 -0.6867 -0.0303
  165MOL0     C22155   3.539   5.156   9.206 -0.6093  0.7339 -0.5980
  165MOL0     C22156   3.567   5.293   9.276  0.6141 -1.0539  0.8092
  165MOL0     N22157   3.445   5.375   9.268 -0.0347 -0.4228  0.0340
  165MOL0     C22158   3.361   5.385   9.162 -0.2427  0.4368 -0.0693
  165MOL0     C22159   3.282   5.497   9.179 -1.2722  0.6804  0.1292
  165MOL0     C22160   3.182   5.545   9.091  0.9685 -0.4503 -0.2604
  165MOL0     C22161   3.041   5.533   9.150 -0.1137  0.7712 -0.1912
  165MOL0     C22162   2.930   5.565   9.052  0.0076  0.1107  0.3453
  165MOL0     C22163   2.838   5.442   9.021 -0.4739  0.1989  1.3177
  165MOL0     O22164   2.732   5.478   8.926  0.3694  0.6950 -0.5404
  165MOL0     C22165   2.609   5.520   8.976 -0.0523 -0.1291  0.5061
  165MOL0     C22166   2.565   5.541   9.103  0.8758  0.2798 -0.2928
  165MOL0     C22167   2.449   5.611   9.133  0.4756  0.3274 -0.1448
  165MOL0     C22168   2.425   5.635   9.274  0.8008  0.2991 -0.5056
  165MOL0     C22169   2.362   5.652   9.029  0.3698 -0.0837  0.4546
  165MOL0     C22170   2.233   5.728   9.043 -0.9031  0.8193 -0.0457
  165MOL0     O22171   2.172   5.767   8.931  0.0182 -0.4306  0.0596
  165MOL0     C22172   2.057   5.836   8.956  0.0721 -0.3189  0.4311
  165MOL0     C22173   1.958   5.768   9.026  0.3724  0.1492  1.3410
  165MOL0     C22174   1.837   5.831   9.054  0.2237  0.1203  0.1272
  165MOL0     C22175   1.812   5.960   9.010 -0.4978 -0.1664 -0.0046
  165MOL0     O22176   1.686   5.996   9.044 -0.1229 -0.0417  0.4831
  165MOL0     C22177   1.641   6.135   9.013 -0.2448  0.5438 -1.3306
  165MOL0     C22178   1.488   6.151   9.011 -0.0710  0.2069  0.1660
  165MOL0     C22179   1.423   6.055   8.918 -0.0085  0.3015  0.3489
  165MOL0     C22180   1.269   6.073   8.900  0.2078 -0.9177  0.1386
  165MOL0     C22181   1.237   6.207   8.829 -0.1573  0.1316  0.2089
  165MOL0     C22182   1.082   6.248   8.833 -0.5155  0.9223 -0.1043
  165MOL0     C22183   1.029   6.267   8.977  0.9416 -0.7274  0.4209
  165MOL0     C22184   0.888   6.320   8.959  0.4215 -0.3504  0.4376
  165MOL0    Cl22185   0.768   6.200   8.884  0.1635  0.3919  0.0904
  165MOL0     C22186   1.913   6.033   8.947  0.3982  0.1173 -0.3006
  165MOL0     C22187   2.036   5.967   8.932  0.7673  0.6280  1.2445
  165MOL0     O22188   2.199   5.765   9.153 -0.1895  0.0706 -0.8907
  165MOL0     C22189   2.399   5.613   8.892 -0.4465  0.1309 -0.0791
  165MOL0     C22190   2.520   5.552   8.865  0.6485 -1.1412 -0.5797
  165MOL0     N22191   3.330   5.553   9.296  0.1566  0.2171  0.2870
  165MOL0     N22192   3.424   5.479   9.350  0.2188  0.0012 -0.9595
  165MOL0     C22193   4.531   4.977   9.197 -0.2937 -0.5356  0.3320
  165MOL0     C22194   4.668   4.999   9.200 -0.2418 -0.0822 -0.5220
  165MOL0     C22195   5.094   5.071   9.324  0.0483 -0.8974 -0.2560
  165MOL0     C22196   5.200   4.994   9.277  0.3898 -0.2781 -0.0864
  165MOL0     C22197   5.322   5.001   9.341  0.4795  0.0658  0.0072
  165MOL0     C22198   5.339   5.077   9.466  0.2396 -0.3709 -0.2937
  165MOL0     O22199   5.453   5.098   9.539  0.6959 -0.4453 -0.0928
  165MOL0     C22200   5.569   5.021   9.518 -0.2733  0.1796 -0.0644
  165MOL0     C22201   5.628   4.992   9.653  0.0957  0.0528  0.3679
  165MOL0     C22202   5.733   4.879   9.633  0.3223  0.0062 -0.1268
  165MOL0     C22203   5.869   4.908   9.579 -0.1316 -0.5206 -0.1244
  165MOL0     C22204   5.950   4.989   9.672  0.2306  0.0270  0.7125
  165MOL0     C22205   6.031   5.033   9.753  0.0031 -0.3362  1.2877
  165MOL0     C22206   5.230   5.151   9.512  0.3952 -0.4882  0.2528
  165MOL0     C22207   5.106   5.144   9.442  0.1845 -0.4443 -0.3741
  165MOL0     H22208   4.686   5.237   9.434 -0.7776  0.5415 -0.1167
  165MOL0     H22209   4.425   5.199   9.429 -0.6852  0.8454  0.7115
  165MOL0     H22210   4.304   4.905   9.434  0.4797 -0.2609 -0.6713
  165MOL0     H22211   4.252   5.066   9.465 -0.7913  0.0981  0.2157
  165MOL0     H22212   4.128   4.854   9.295  2.4929 -0.5693  1.7423
  165MOL0     H22213   4.064   4.908   9.450 -1.1512 -0.7047 -1.0080
  165MOL0     H22214   4.034   5.145   9.342  2.6117  1.8557 -1.7399
  165MOL0     H22215   4.082   5.073   9.190 -2.6699  2.1189  0.5166
  165MOL0     H22216   3.886   4.917   9.194 -2.3917 -0.8156  0.5005
  165MOL0     H22217   3.864   4.959   9.372 -2.1769  0.7363 -0.5295
  165MOL0     H22218   3.812   5.183   9.311 -2.9634  0.2580  0.1427
  165MOL0     H22219   3.827   5.147   9.135  2.8179 -0.2298  0.5532
  165MOL0     H22220   3.644   4.973   9.174 -1.5719  1.3640 -2.4931
  165MOL0     H22221   3.629   5.010   9.342 -1.3336 -2.3209 -0.9000
  165MOL0     H22222   3.536   5.152   9.097 -1.8876 -0.8912 -0.5588
  165MOL0     H22223   3.448   5.103   9.237 -0.5088 -0.0098 -1.5274
  165MOL0     H22224   3.656   5.329   9.224 -0.4715 -0.1884 -0.5383
  165MOL0     H22225   3.592   5.289   9.383  2.2272 -0.1533  0.5031
  165MOL0     H22226   3.368   5.321   9.075  2.1368  2.0761 -1.1907
  165MOL0     H22227   3.190   5.653   9.073 -0.4927  0.1137  2.0237
  165MOL0     H22228   3.181   5.490   8.997 -0.1720  0.3501 -0.7441
  165MOL0     H22229   3.039   5.590   9.243 -0.1099  1.1344 -0.4113
  165MOL0     H22230   3.041   5.428   9.182 -2.0839  0.9058  0.3657
  165MOL0     H22231   2.964   5.611   8.959  0.5523  0.1696  0.5665
  165MOL0     H22232   2.872   5.635   9.113  2.3159  1.3376  1.2905
  165MOL0     H22233   2.798   5.394   9.111  1.3402 -1.1973  1.4195
  165MOL0     H22234   2.902   5.367   8.973 -0.2696  2.1926 -1.8108
  165MOL0     H22235   2.628   5.503   9.183  0.8666 -0.7224 -0.7508
  165MOL0     H22236   2.355   5.562   9.316  0.8728 -0.5481 -1.7879
  165MOL0     H22237   2.510   5.595   9.330 -0.7596 -3.6630 -0.6051
  165MOL0     H22238   2.388   5.733   9.304  0.9511 -0.1350  1.2524
  165MOL0     H22239   1.966   5.663   9.052  0.9871 -1.1488 -3.1817
  165MOL0     H22240   1.762   5.774   9.107  0.5887 -0.8953 -0.4188
  165MOL0     H22241   1.679   6.207   9.087 -0.6325 -1.9387  1.4759
  165MOL0     H22242   1.679   6.168   8.916  0.8288 -0.0701 -1.1415
  165MOL0     H22243   1.453   6.131   9.113 -1.3418 -0.0568 -0.3058
  165MOL0     H22244   1.461   6.256   8.996 -1.8131  0.0083  1.6345
  165MOL0     H22245   1.449   5.955   8.954 -2.1184  0.1856  1.7123
  165MOL0     H22246   1.463   6.068   8.817  1.0466  0.3678  0.7527
  165MOL0     H22247   1.220   5.986   8.855 -5.2004  1.4570  0.6815
  165MOL0     H22248   1.239   6.067   9.005  1.9122 -0.7740  0.6575
  165MOL0     H22249   1.274   6.188   8.728  2.6414  2.3972  0.6755
  165MOL0     H22250   1.296   6.290   8.867 -2.0880  1.1112  1.1761
  165MOL0     H22251   1.074   6.337   8.769  0.5189  0.1061 -1.3939
  165MOL0     H22252   1.014   6.174   8.790  0.7110  0.4056 -1.2295
  165MOL0     H22253   1.101   6.335   9.023  0.9628 -1.6552  1.7994
  165MOL0     H22254   1.009   6.170   9.024 -4.5105 -0.4370 -0.6387
  165MOL0     H22255   0.875   6.410   8.898 -1.0905 -1.0416 -0.3145
  165MOL0     H22256   0.855   6.353   9.058 -0.5752 -0.5151  0.1706
  165MOL0     H22257   1.895   6.138   8.930  0.3445 -0.0493 -1.3418
  165MOL0     H22258   2.113   6.030   8.889 -0.2553  1.4627  0.5627
  165MOL0     H22259   2.346   5.644   8.802  0.2932  3.1852  0.3967
  165MOL0     H22260   2.544   5.536   8.760 -0.4962 -1.5596 -0.7915
  165MOL0     H22261   4.495   4.896   9.135  2.8270 -0.5946 -1.6301
  165MOL0     H22262   4.729   4.947   9.127 -1.7016 -0.5212 -1.4791
  165MOL0     H22263   5.192   4.943   9.182  3.3354 -1.2927  0.1267
  165MOL0     H22264   5.406   4.959   9.285 -0.8191 -0.1613 -1.8841
  165MOL0     H22265   5.543   4.931   9.461  0.1485 -0.1466  0.2503
  165MOL0     H22266   5.644   5.079   9.464 -0.2681 -0.8850 -1.2518
  165MOL0     H22267   5.550   4.956   9.720 -1.7838 -4.0795 -3.4957
  165MOL0     H22268   5.677   5.079   9.696 -0.1499  0.6272 -0.4763
  165MOL0     H22269   5.691   4.795   9.577  1.5113  0.6128 -1.9947
  165MOL0     H22270   5.747   4.837   9.733 -0.9989 -3.9560 -1.4189
  165MOL0     H22271   5.862   4.940   9.475  3.3582  0.6370 -0.1259
  165MOL0     H22272   5.934   4.820   9.583  1.1692  0.0881 -4.0346
  165MOL0     H22273   6.082   5.064   9.841  1.8401  3.3711 -0.8313
  165MOL0     H22274   5.243   5.208   9.604 -0.9866  2.2517 -1.1412
  165MOL0     H22275   5.017   5.190   9.486  0.9516 -0.7165  1.5911
  166MOL0     O22276   7.423   7.088   5.686  0.3271 -0.0810  0.0591
  166MOL0     C22277   7.407   7.143   5.796 -0.0755 -0.0844  0.0380
  166MOL0     O22278   7.299   7.129   5.880 -0.7628  0.9577  0.3035
  166MOL0     C22279   7.208   7.040   5.837  0.1603 -0.3921  0.3909
  166MOL0     C22280   7.093   7.076   5.772  0.2479  0.9315 -0.1808
  166MOL0     C22281   7.008   6.974   5.721 -0.1524 -0.1164  1.5203
  166MOL0     C22282   7.033   6.847   5.736  0.4839  0.5471  1.3177
  166MOL0     O22283   6.947   6.752   5.664 -0.8776  0.0948  0.0241
  166MOL0     C22284   6.975   6.608   5.660  0.3651 -0.4200  0.1692
  166MOL0     C22285   6.856   6.546   5.581 -0.3935  0.0673 -0.1062
  166MOL0     C22286   6.903   6.413   5.525  0.2112  0.4096  0.0576
  166MOL0     C22287   6.794   6.363   5.441  0.4229  0.8417  0.0812
  166MOL0     C22288   6.748   6.463   5.324 -0.3023  0.2085 -0.6786
  166MOL0     C22289   6.681   6.379   5.219  0.4350  0.3279  0.2554
  166MOL0     C22290   6.629   6.459   5.099  0.3338  0.3215 -0.2661
  166MOL0     C22291   6.525   6.567   5.124 -0.2735  0.5056 -0.3046
  166MOL0     N22292   6.456   6.631   5.010 -0.8379 -0.5005  0.3856
  166MOL0     C22293   6.336   6.577   4.964 -1.1020 -0.0710 -0.3818
  166MOL0     C22294   6.298   6.658   4.861  0.6628 -0.0595  0.0842
  166MOL0     C22295   6.169   6.645   4.773 -0.0286 -0.4038 -1.0816
  166MOL0     C22296   6.193   6.614   4.632 -0.3074 -0.3336 -0.5198
  166MOL0     C22297   6.064   6.581   4.553 -0.3043 -0.3075  0.4309
  166MOL0     C22298   6.075   6.607   4.401 -0.4578  0.6164 -0.6048
  166MOL0     O22299   6.026   6.495   4.320  0.4807  0.9104 -0.3243
  166MOL0     C22300   5.890   6.491   4.293  0.2074  0.0484  0.3054
  166MOL0     C22301   5.845   6.376   4.230 -0.1273 -0.5224  0.4513
  166MOL0     C22302   5.713   6.351   4.196  0.1827  1.2534 -0.4557
  166MOL0     C22303   5.692   6.221   4.108  0.4661  0.1399 -0.1168
  166MOL0     C22304   5.616   6.456   4.219 -0.3731 -0.4595  0.1225
  166MOL0     C22305   5.477   6.454   4.180 -0.2503 -0.1935  0.4112
  166MOL0     O22306   5.400   6.560   4.211  0.0096 -0.3893 -0.2228
  166MOL0     C22307   5.264   6.541   4.188  0.4932  0.1439  0.5919
  166MOL0     C22308   5.209   6.622   4.099 -0.1076 -0.4954  0.4497
  166MOL0     C22309   5.075   6.601   4.069  1.0811 -0.0939 -0.4640
  166MOL0     C22310   5.004   6.492   4.117 -0.3215 -0.0348 -0.7570
  166MOL0     O22311   4.876   6.478   4.074  0.2580  0.4155 -0.3877
  166MOL0     C22312   4.798   6.376   4.140 -0.3809 -0.7128  0.0882
  166MOL0     C22313   4.676   6.358   4.061  0.3616 -1.3007 -0.4257
  166MOL0     C22314   4.700   6.295   3.918 -0.2657 -1.1383 -1.1388
  166MOL0     C22315   4.569   6.255   3.846  0.2196  0.4154  1.4889
  166MOL0     C22316   4.612   6.158   3.732  0.3650  0.1326 -0.4835
  166MOL0     C22317   4.491   6.108   3.647  1.1294 -0.1053 -0.0531
  166MOL0     C22318   4.381   6.024   3.723  0.1943  0.4515 -0.6067
  166MOL0     C22319   4.292   5.943   3.626  0.0981 -0.3447  0.2272
  166MOL0    Cl22320   4.163   5.867   3.724 -0.1645  0.0807  0.0007
  166MOL0     C22321   5.061   6.428   4.229 -0.3605  0.1381  0.0198
  166MOL0     C22322   5.189   6.449   4.266 -0.2419  0.1316 -0.1947
  166MOL0     O22323   5.440   6.344   4.127  0.4096 -0.5308 -0.1354
  166MOL0     C22324   5.663   6.563   4.303  0.2385  0.0797 -0.9310
  166MOL0     C22325   5.795   6.579   4.342 -0.2493  0.2593 -0.2809
  166MOL0     N22326   6.386   6.766   4.846 -0.1509  0.6596 -0.2213
  166MOL0     N22327   6.471   6.751   4.939  0.2624 -0.3003 -0.0590
  166MOL0     C22328   7.147   6.812   5.811  0.7694 -0.0411  0.3636
  166MOL0     C22329   7.226   6.906   5.863  0.1135  0.1023  0.3718
  166MOL0     C22330   7.528   7.199   5.858 -0.3714 -0.1290 -0.4240
  166MOL0     C22331   7.657   7.193   5.789 -0.0847 -0.1365  0.0766
  166MOL0     C22332   7.772   7.230   5.851  0.2161  0.1921 -0.7604
  166MOL0     C22333   7.772   7.272   5.991 -0.1779  0.2649  0.1180
  166MOL0     O22334   7.892   7.302   6.053 -0.4648  0.4922 -0.2698
  166MOL0     C22335   8.003   7.212   6.059  0.2301 -0.4277 -0.5604
  166MOL0     C22336   7.967   7.074   6.111 -0.1669  0.5595  0.3216
  166MOL0     C22337   8.083   6.991   6.158  0.7145  0.1010  0.9005
  166MOL0     C22338   8.184   6.966   6.046 -0.3446  0.6130  0.5326
  166MOL0     C22339   8.290   6.881   6.088 -0.1971 -0.2029  0.3847
  166MOL0     C22340   8.384   6.804   6.120 -0.0653  0.3108 -0.5923
  166MOL0     C22341   7.645   7.282   6.054  0.7366 -0.1700  0.1370
  166MOL0     C22342   7.526   7.248   5.994 -0.0231  0.7138 -0.1450
  166MOL0     H22343   7.079   7.181   5.750 -0.8515  0.4552 -2.0817
  166MOL0     H22344   6.923   7.007   5.662  0.9335  0.0004 -0.0661
  166MOL0     H22345   7.072   6.600   5.610  1.4480 -1.4849  2.2962
  166MOL0     H22346   6.988   6.555   5.755 -1.8298 -0.4154  0.5308
  166MOL0     H22347   6.773   6.539   5.652  1.1493 -2.1177  1.6243
  166MOL0     H22348   6.837   6.610   5.494 -1.6556 -2.6353 -1.9784
  166MOL0     H22349   6.998   6.420   5.471  1.9788 -0.5018  2.8606
  166MOL0     H22350   6.933   6.339   5.599  2.4944  0.8673 -0.3408
  166MOL0     H22351   6.832   6.270   5.397  0.0248  0.4108  0.6315
  166MOL0     H22352   6.705   6.342   5.501 -0.3328  0.3508 -1.1894
  166MOL0     H22353   6.675   6.538   5.356 -0.7250  1.1432 -3.5472
  166MOL0     H22354   6.838   6.512   5.286  2.0680 -2.7408  0.6762
  166MOL0     H22355   6.754   6.300   5.199  0.8037  0.9375 -0.8719
  166MOL0     H22356   6.591   6.343   5.270  1.1795  1.2708  2.3150
  166MOL0     H22357   6.715   6.501   5.046  1.5522  0.2743  1.5544
  166MOL0     H22358   6.588   6.378   5.038 -0.0172  0.8240 -0.7063
  166MOL0     H22359   6.576   6.648   5.178  2.6268  0.9623 -3.4018
  166MOL0     H22360   6.458   6.514   5.193  0.9666 -1.7686 -0.7379
  166MOL0     H22361   6.289   6.488   5.004  0.3514 -0.4773  0.4859
  166MOL0     H22362   6.107   6.575   4.829  0.1428 -0.3627 -0.8370
  166MOL0     H22363   6.112   6.737   4.788  0.7431 -0.3438  2.5737
  166MOL0     H22364   6.257   6.526   4.629  0.2383 -0.1041  2.1091
  166MOL0     H22365   6.254   6.688   4.579  0.3432 -1.1301 -0.8988
  166MOL0     H22366   5.987   6.650   4.589 -2.0254 -0.3858 -2.7344
  166MOL0     H22367   6.046   6.476   4.579  0.4683 -1.2479 -2.4989
  166MOL0     H22368   6.180   6.606   4.370 -0.3502  0.4165 -0.2443
  166MOL0     H22369   6.025   6.702   4.385  2.0899  2.4450  1.3987
  166MOL0     H22370   5.920   6.307   4.193 -1.0097 -1.7370  0.8682
  166MOL0     H22371   5.779   6.155   4.101 -2.4961 -4.2382 -0.1580
  166MOL0     H22372   5.607   6.161   4.143  1.1075 -0.2684  0.8066
  166MOL0     H22373   5.664   6.246   4.005 -3.0304 -3.7063 -0.3617
  166MOL0     H22374   5.273   6.689   4.041 -1.8554  1.0290  0.1658
  166MOL0     H22375   5.023   6.646   3.985  0.4749 -0.8919 -0.5256
  166MOL0     H22376   4.853   6.282   4.147  1.7608  0.5939  2.5433
  166MOL0     H22377   4.773   6.396   4.244  1.5397  0.2969  0.3991
  166MOL0     H22378   4.600   6.295   4.109  0.1566 -2.3432 -2.0065
  166MOL0     H22379   4.629   6.456   4.063  2.7465 -0.0971  1.2494
  166MOL0     H22380   4.766   6.210   3.936  0.0242 -0.7096 -0.0569
  166MOL0     H22381   4.752   6.370   3.859  0.7592  0.5671  1.7134
  166MOL0     H22382   4.503   6.207   3.919 -2.8696  1.2232 -0.5862
  166MOL0     H22383   4.527   6.346   3.802  0.4299 -0.6919 -1.1670
  166MOL0     H22384   4.657   6.067   3.775 -2.1191 -1.2919 -0.7307
  166MOL0     H22385   4.680   6.206   3.660 -0.7687  3.0481  0.2607
  166MOL0     H22386   4.454   6.196   3.594  2.2335  0.0622 -0.5697
  166MOL0     H22387   4.535   6.046   3.569  0.5968 -1.5325  0.7381
  166MOL0     H22388   4.324   6.080   3.797  2.4014  0.6189  1.0759
  166MOL0     H22389   4.426   5.941   3.779 -3.0154 -0.0092  1.5519
  166MOL0     H22390   4.359   5.876   3.573  0.7690  0.4683  0.0204
  166MOL0     H22391   4.253   6.008   3.547 -1.5245 -1.1543  0.3205
  166MOL0     H22392   5.004   6.364   4.296 -1.5093  1.0383 -0.0634
  166MOL0     H22393   5.243   6.394   4.342 -1.5678 -0.0780  0.6276
  166MOL0     H22394   5.583   6.627   4.339 -0.6130  0.3637 -3.1773
  166MOL0     H22395   5.808   6.651   4.422 -1.4703 -1.6140  1.7202
  166MOL0     H22396   7.172   6.706   5.816 -1.0024 -0.7189 -2.3903
  166MOL0     H22397   7.317   6.882   5.918  1.3424  0.7884 -1.2856
  166MOL0     H22398   7.674   7.173   5.683  1.5749  2.5621 -0.2561
  166MOL0     H22399   7.858   7.234   5.784  1.5670 -1.6743  0.7617
  166MOL0     H22400   8.053   7.203   5.962  0.3129 -3.6451 -0.2991
  166MOL0     H22401   8.067   7.256   6.136 -1.3284  0.6009  0.1998
  166MOL0     H22402   7.906   7.022   6.036 -0.9299  1.1558  0.5112
  166MOL0     H22403   7.908   7.092   6.202  0.8557 -2.3453  1.7097
  166MOL0     H22404   8.050   6.896   6.200  0.6726 -0.4239 -0.2858
  166MOL0     H22405   8.129   7.046   6.241  1.5948 -0.8219  1.0416
  166MOL0     H22406   8.235   7.061   6.026  0.2224  0.2443  0.2110
  166MOL0     H22407   8.133   6.928   5.958  1.9307  1.0133 -1.0450
  166MOL0     H22408   8.460   6.736   6.153 -0.5771  0.0860  0.1322
  166MOL0     H22409   7.651   7.293   6.162  0.3803 -5.0263  0.9053
  166MOL0     H22410   7.438   7.244   6.057  1.1386 -0.5167  1.4661
  167MOL0     O22411  11.358   0.308   1.237 -0.3792  0.0161 -0.6260
  167MOL0     C22412  11.417   0.347   1.338  0.6654  0.4036 -0.6305
  167MOL0     O22413  11.363   0.355   1.462 -0.1725 -0.3364  0.5944
  167MOL0     C22414  11.235   0.346   1.486  0.5828  0.1487 -0.1373
  167MOL0     C22415  11.194   0.287   1.608  0.0400 -0.1425 -0.2011
  167MOL0     C22416  11.057   0.267   1.625  0.2117 -0.4093 -0.5297
  167MOL0     C22417  10.955   0.300   1.542  0.3761  0.3266 -0.2605
  167MOL0     O22418  10.822   0.295   1.579  0.2167 -0.2964  0.4504
  167MOL0     C22419  10.747   0.422   1.569  0.1827  0.7594  0.7916
  167MOL0     C22420  10.613   0.409   1.647  0.4344  0.5200 -0.6585
  167MOL0     C22421  10.537   0.539   1.630  0.3743 -0.5231  0.1730
  167MOL0     C22422  10.571   0.628   1.747  0.9955  0.1669 -0.4231
  167MOL0     C22423  10.472   0.745   1.743  0.5282  0.1890 -0.3305
  167MOL0     C22424  10.486   0.850   1.853 -0.1766 -0.6458  0.1400
  167MOL0     C22425  10.530   0.796   1.988 -0.1949 -0.5731  0.7495
  167MOL0     C22426  10.526   0.906   2.102 -0.3294  0.1639 -0.0824
  167MOL0     N22427  10.419   0.881   2.204  0.3990  0.0904  0.8444
  167MOL0     C22428  10.426   0.931   2.335 -0.0071  0.1329  0.7202
  167MOL0     C22429  10.308   0.906   2.385 -0.2864 -0.8704 -0.2182
  167MOL0     C22430  10.262   0.933   2.523 -1.0912 -0.7573  0.2411
  167MOL0     C22431  10.114   0.887   2.537 -0.7993  0.1894 -0.3875
  167MOL0     C22432  10.111   0.727   2.545 -0.1274  0.0318 -0.1571
  167MOL0     C22433   9.971   0.672   2.558 -0.0037 -0.0136 -0.5450
  167MOL0     O22434   9.979   0.530   2.553  0.1358 -0.0936  0.4245
  167MOL0     C22435   9.861   0.462   2.563 -0.3523 -0.6095 -0.8353
  167MOL0     C22436   9.848   0.339   2.497 -0.2191 -0.6946 -0.3851
  167MOL0     C22437   9.744   0.246   2.496 -0.2421 -0.6818  0.1986
  167MOL0     C22438   9.755   0.121   2.404 -0.9911  0.2763  0.4331
  167MOL0     C22439   9.624   0.280   2.564 -0.3421 -0.3264  0.3302
  167MOL0     C22440   9.500   0.206   2.555 -0.6885  0.1645 -0.0237
  167MOL0     O22441   9.386   0.271   2.581 -0.9598 -0.5465  0.8030
  167MOL0     C22442   9.276   0.208   2.625 -0.2644 -0.0324  0.7026
  167MOL0     C22443   9.193   0.265   2.724 -0.1707  0.6098  0.5555
  167MOL0     C22444   9.093   0.195   2.781  0.7789 -0.1588 -0.2165
  167MOL0     C22445   9.045   0.079   2.718  0.3285 -0.0810 -0.8984
  167MOL0     O22446   8.928   0.027   2.757  0.4853  0.3165  0.2686
  167MOL0     C22447   8.845  -0.037   2.653 -0.2082 -0.8397 -1.0764
  167MOL0     C22448   8.736  -0.108   2.730  0.0893  0.8880 -0.3876
  167MOL0     C22449   8.652  -0.009   2.813  0.1158  0.5829  0.8384
  167MOL0     C22450   8.538  -0.084   2.880 -0.0207  0.5287 -0.4068
  167MOL0     C22451   8.440  -0.017   2.987  0.1587  0.0329 -0.4924
  167MOL0     C22452   8.523   0.048   3.104  0.6980  0.3055 -0.5365
  167MOL0     C22453   8.440   0.095   3.210  0.1271 -0.1920 -0.3904
  167MOL0     C22454   8.519   0.134   3.338  0.0477  0.8504  0.1006
  167MOL0    Cl22455   8.413   0.196   3.476  0.2476 -0.2797 -0.0070
  167MOL0     C22456   9.123   0.023   2.616  0.5143  0.8133 -0.2272
  167MOL0     C22457   9.231   0.090   2.562 -0.2751 -0.5918  0.0668
  167MOL0     O22458   9.517   0.086   2.548  0.3572 -0.8206  0.1421
  167MOL0     C22459   9.637   0.397   2.648  0.5379  0.9052  0.3172
  167MOL0     C22460   9.749   0.492   2.645  0.2579  1.2994 -0.7875
  167MOL0     N22461  10.230   0.841   2.289 -0.4526 -0.3312 -0.0152
  167MOL0     N22462  10.291   0.843   2.176 -0.0568  0.3860 -1.1494
  167MOL0     C22463  10.988   0.357   1.424 -1.1493 -0.1914 -0.0488
  167MOL0     C22464  11.127   0.385   1.401 -0.1243  0.8984 -1.4311
  167MOL0     C22465  11.563   0.370   1.335 -0.2960 -0.7292  0.1546
  167MOL0     C22466  11.612   0.431   1.221 -0.9449 -0.1173  0.8350
  167MOL0     C22467  11.752   0.455   1.218  0.2373  0.0407  0.5182
  167MOL0     C22468  11.837   0.433   1.326  0.1968  0.7210 -0.0078
  167MOL0     O22469  11.973   0.447   1.339  0.8772 -0.7996  0.9724
  167MOL0     C22470  12.050   0.476   1.222  0.2927  0.4038 -0.0333
  167MOL0     C22471  12.085   0.346   1.152  0.2078 -0.4589 -0.0292
  167MOL0     C22472  12.197   0.357   1.050  0.1633 -0.9697  0.0743
  167MOL0     C22473  12.334   0.357   1.122  0.3552  0.0170 -0.1102
  167MOL0     C22474  12.361   0.222   1.180  0.8696 -0.8283 -0.5444
  167MOL0     C22475  12.395   0.108   1.204 -0.5157 -0.3172 -0.7738
  167MOL0     C22476  11.776   0.395   1.441 -0.4531  0.5654  0.4204
  167MOL0     C22477  11.646   0.353   1.441 -0.0644 -0.8901  0.0874
  167MOL0     H22478  11.268   0.242   1.673 -0.0879  1.0786  0.8105
  167MOL0     H22479  11.038   0.221   1.722 -0.1604 -0.4868 -0.6404
  167MOL0     H22480  10.809   0.506   1.601  0.4930  0.7435  0.2536
  167MOL0     H22481  10.727   0.451   1.466 -0.9547  0.5693  0.9509
  167MOL0     H22482  10.553   0.322   1.619 -0.2924  0.2045  1.6734
  167MOL0     H22483  10.639   0.393   1.752 -3.4035  0.2084  0.4000
  167MOL0     H22484  10.561   0.589   1.535  0.7369 -1.4967 -0.2617
  167MOL0     H22485  10.432   0.509   1.622 -0.7421  2.7888  0.8388
  167MOL0     H22486  10.561   0.565   1.836 -0.0433 -3.9672 -3.1743
  167MOL0     H22487  10.677   0.657   1.739  1.6615 -2.4271 -2.1715
  167MOL0     H22488  10.480   0.798   1.648 -4.1108 -1.9068 -2.1780
  167MOL0     H22489  10.372   0.701   1.739  1.2982 -1.7573  0.2825
  167MOL0     H22490  10.561   0.922   1.818 -2.2468  0.8134 -1.5160
  167MOL0     H22491  10.397   0.913   1.863 -0.3670 -0.4586 -2.1929
  167MOL0     H22492  10.450   0.729   2.021 -0.4424  0.2075  1.7970
  167MOL0     H22493  10.626   0.742   1.985 -0.6834 -1.4435  0.2651
  167MOL0     H22494  10.502   1.006   2.062  0.0635  1.1262  1.9876
  167MOL0     H22495  10.626   0.904   2.145  0.1311  0.3673 -1.0972
  167MOL0     H22496  10.500   0.999   2.376 -0.2594  0.9366 -0.1381
  167MOL0     H22497  10.331   0.878   2.587 -1.5704 -2.9839 -1.0683
  167MOL0     H22498  10.273   1.040   2.545  1.2279 -0.8013 -0.3319
  167MOL0     H22499  10.061   0.933   2.454  0.9668  3.4794  0.1215
  167MOL0     H22500  10.069   0.929   2.628 -0.8138  0.7739 -0.6598
  167MOL0     H22501  10.169   0.700   2.634 -0.7665  1.8914  0.8811
  167MOL0     H22502  10.157   0.679   2.459 -3.1309 -1.2703 -1.1426
  167MOL0     H22503   9.912   0.719   2.479 -1.3338  0.2010  0.5395
  167MOL0     H22504   9.929   0.708   2.653  1.8625  1.1735 -0.1027
  167MOL0     H22505   9.942   0.315   2.448  1.7308  2.4754  1.4262
  167MOL0     H22506   9.690   0.132   2.316  0.0070  0.1669 -0.3291
  167MOL0     H22507   9.857   0.110   2.367 -1.3319  0.8517 -0.7423
  167MOL0     H22508   9.731   0.026   2.451  0.4276  0.6700  2.0114
  167MOL0     H22509   9.221   0.363   2.761  0.4056  0.7523 -0.2135
  167MOL0     H22510   9.034   0.226   2.867 -0.3447 -2.3814 -0.1030
  167MOL0     H22511   8.812   0.044   2.587  1.6839 -0.1376 -1.2241
  167MOL0     H22512   8.906  -0.107   2.595  3.1586  0.8646  0.1920
  167MOL0     H22513   8.666  -0.158   2.662 -0.7936 -0.0125  1.1083
  167MOL0     H22514   8.783  -0.185   2.792 -0.7724 -0.1383 -0.9706
  167MOL0     H22515   8.614   0.073   2.752 -0.6700 -0.0349  0.4798
  167MOL0     H22516   8.719   0.034   2.888  3.2280 -1.3174 -0.6250
  167MOL0     H22517   8.474  -0.118   2.798  0.0997  2.4491 -1.3537
  167MOL0     H22518   8.590  -0.165   2.933 -1.4578 -0.6775 -0.7918
  167MOL0     H22519   8.374  -0.098   3.019  0.9428 -0.9616 -1.3440
  167MOL0     H22520   8.384   0.059   2.931  1.3403  1.4587  0.1651
  167MOL0     H22521   8.588  -0.032   3.142 -1.0986 -1.0555 -0.1958
  167MOL0     H22522   8.586   0.125   3.059 -0.5880  0.8561 -1.4413
  167MOL0     H22523   8.367   0.019   3.238 -1.4423  0.2183 -3.0239
  167MOL0     H22524   8.392   0.185   3.171 -0.9385 -1.0697 -1.1547
  167MOL0     H22525   8.602   0.203   3.324  2.6097 -1.6639  1.7242
  167MOL0     H22526   8.570   0.050   3.386  0.8949  1.7628  0.8242
  167MOL0     H22527   9.108  -0.074   2.569 -1.3316  1.5949 -1.3260
  167MOL0     H22528   9.286   0.033   2.487  0.1280  1.5382 -1.3592
  167MOL0     H22529   9.551   0.420   2.711  0.9567 -0.8279  1.5780
  167MOL0     H22530   9.757   0.576   2.714 -2.2606  1.5722 -0.7567
  167MOL0     H22531  10.917   0.385   1.346  0.2760 -0.5883 -1.5559
  167MOL0     H22532  11.134   0.435   1.306  0.3509  1.6611 -1.0014
  167MOL0     H22533  11.557   0.437   1.128 -0.7027 -1.1541  0.6090
  167MOL0     H22534  11.790   0.486   1.121 -0.8188  0.4618  0.2237
  167MOL0     H22535  12.010   0.549   1.152 -1.5047  1.0555  1.5840
  167MOL0     H22536  12.137   0.530   1.260  0.8642 -0.1190 -0.5868
  167MOL0     H22537  11.999   0.295   1.108 -0.2162 -3.0232  3.2970
  167MOL0     H22538  12.107   0.272   1.230 -0.8638 -2.0379 -1.1448
  167MOL0     H22539  12.171   0.448   0.996  1.8134  0.2594  1.2211
  167MOL0     H22540  12.192   0.293   0.962  1.9436  1.0136 -1.5698
  167MOL0     H22541  12.323   0.418   1.211  1.2137 -2.2593  1.6586
  167MOL0     H22542  12.409   0.396   1.052  0.8309 -0.7350 -0.0276
  167MOL0     H22543  12.431   0.009   1.225  3.0761  1.2502  1.3009
  167MOL0     H22544  11.836   0.386   1.531  0.9901 -0.5290 -0.5937
  167MOL0     H22545  11.608   0.313   1.534 -2.6779 -0.5414 -0.7375
  168MOL0     O22546   6.012   1.485   9.988  0.1631  0.0865  0.9051
  168MOL0     C22547   6.062   1.504  10.100 -0.2616 -0.1502 -0.6132
  168MOL0     O22548   6.021   1.603  10.189 -0.5848 -0.4765  0.4843
  168MOL0     C22549   5.912   1.694  10.161 -0.3531  0.0355 -0.0143
  168MOL0     C22550   5.847   1.721  10.276 -0.5558 -1.1395 -0.0263
  168MOL0     C22551   5.732   1.804  10.267  0.2655 -0.2446 -0.5390
  168MOL0     C22552   5.687   1.848  10.143 -0.2073 -0.8443  0.3390
  168MOL0     O22553   5.573   1.930  10.136 -0.4952 -0.2166  0.4790
  168MOL0     C22554   5.479   1.896  10.036  0.7531 -0.0765 -0.6267
  168MOL0     C22555   5.332   1.893  10.099 -0.0975  0.4243 -0.8182
  168MOL0     C22556   5.241   1.815  10.007 -0.0353  0.1414 -0.4522
  168MOL0     C22557   5.185   1.899   9.897  0.2866  0.0713  0.7153
  168MOL0     C22558   5.120   1.804   9.798  0.0812  0.9877  0.7931
  168MOL0     C22559   5.028   1.882   9.696 -0.1032 -0.0906 -0.5332
  168MOL0     C22560   4.990   1.796   9.578 -0.3650  0.0232 -0.5265
  168MOL0     C22561   4.867   1.707   9.597  0.0418  0.3703 -0.7097
  168MOL0     N22562   4.745   1.787   9.607 -0.1628  0.2362 -0.4299
  168MOL0     C22563   4.683   1.848   9.504  0.9446  0.0067  0.4350
  168MOL0     C22564   4.560   1.877   9.565 -0.0891 -0.4870 -0.6283
  168MOL0     C22565   4.443   1.937   9.492 -0.5848 -0.4044  0.1043
  168MOL0     C22566   4.409   1.848   9.368 -0.1869  0.6731 -0.6368
  168MOL0     C22567   4.374   1.702   9.408 -0.3706  0.7273  0.2424
  168MOL0     C22568   4.237   1.674   9.479  0.5831 -0.0614  0.1688
  168MOL0     O22569   4.132   1.722   9.397  0.8307 -0.0565  0.2136
  168MOL0     C22570   4.070   1.628   9.313 -1.5070 -0.2469 -0.6585
  168MOL0     C22571   3.954   1.675   9.258  1.0774 -0.3490 -0.2114
  168MOL0     C22572   3.886   1.592   9.169  0.2629  0.8656  0.5458
  168MOL0     C22573   3.770   1.665   9.094 -0.2033 -0.1870  0.2114
  168MOL0     C22574   3.929   1.460   9.136 -0.0468 -0.2405  0.2741
  168MOL0     C22575   3.864   1.385   9.032 -0.6537  0.4441  0.0434
  168MOL0     O22576   3.883   1.252   9.053  0.6180 -0.4942 -0.3296
  168MOL0     C22577   3.817   1.152   8.981 -0.3208 -0.4013 -0.0878
  168MOL0     C22578   3.864   1.021   9.000 -0.1367 -0.3047  0.4587
  168MOL0     C22579   3.809   0.911   8.937 -0.5947 -0.1042  0.5742
  168MOL0     C22580   3.695   0.928   8.854 -0.9252  0.4433 -0.2868
  168MOL0     O22581   3.640   0.819   8.796  0.3110 -0.3294 -0.2296
  168MOL0     C22582   3.620   0.707   8.882 -0.6089  0.2309  0.2418
  168MOL0     C22583   3.512   0.605   8.842  0.0897  0.4561 -0.1141
  168MOL0     C22584   3.517   0.563   8.691  0.1893 -0.0217  0.1171
  168MOL0     C22585   3.447   0.425   8.662 -0.6819  0.1890 -0.2189
  168MOL0     C22586   3.460   0.395   8.516 -0.8108 -0.1938  0.7203
  168MOL0     C22587   3.369   0.482   8.427  0.1923  0.6519  0.2117
  168MOL0     C22588   3.391   0.432   8.289  0.4226 -0.3457  0.7668
  168MOL0     C22589   3.295   0.500   8.179  0.0233  1.5561  1.0132
  168MOL0    Cl22590   3.127   0.430   8.186 -0.7824 -0.4679  0.6955
  168MOL0     C22591   3.649   1.054   8.834 -0.4227  0.6292 -1.0278
  168MOL0     C22592   3.707   1.169   8.897 -0.4828  0.4716 -0.4059
  168MOL0     O22593   3.811   1.435   8.933  0.1734 -0.1310  0.4942
  168MOL0     C22594   4.055   1.418   9.188 -0.3065  0.5349 -0.3097
  168MOL0     C22595   4.123   1.499   9.277  0.2152 -0.1034  0.0639
  168MOL0     N22596   4.555   1.835   9.697  0.8664 -0.5229  0.3041
  168MOL0     N22597   4.665   1.784   9.716 -0.2934 -0.1751 -0.1846
  168MOL0     C22598   5.762   1.816  10.024 -0.3063 -0.0845 -0.4688
  168MOL0     C22599   5.879   1.751  10.032  0.7157  1.0575  0.0463
  168MOL0     C22600   6.175   1.421  10.148 -0.3991  0.8423 -0.5534
  168MOL0     C22601   6.222   1.440  10.277  0.1381  0.3900 -0.5393
  168MOL0     C22602   6.328   1.362  10.322 -0.9675 -0.1935 -0.2499
  168MOL0     C22603   6.389   1.261  10.248 -0.3269 -0.7487  0.8640
  168MOL0     O22604   6.479   1.190  10.306 -0.0712 -0.7772 -0.5440
  168MOL0     C22605   6.554   1.092  10.231  0.6520 -0.5387  0.4002
  168MOL0     C22606   6.663   1.032  10.324  0.3638  0.3423 -0.4507
  168MOL0     C22607   6.767   1.131  10.351 -0.3785 -0.1343 -0.4543
  168MOL0     C22608   6.882   1.068  10.427  0.0144  0.0719  0.5165
  168MOL0     C22609   6.871   1.082  10.574 -0.4506 -0.5596 -0.6308
  168MOL0     C22610   6.874   1.092  10.695 -0.4505 -0.0751 -0.0838
  168MOL0     C22611   6.342   1.246  10.119  1.2819  0.8054 -0.1311
  168MOL0     C22612   6.237   1.321  10.068  0.2673 -0.4659  0.0522
  168MOL0     H22613   5.877   1.682  10.373  2.5733  2.4131  0.6453
  168MOL0     H22614   5.684   1.822  10.362 -0.5163  0.2723 -1.0253
  168MOL0     H22615   5.482   1.972   9.958  2.7657 -1.1807 -1.6988
  168MOL0     H22616   5.501   1.800   9.989 -4.0851 -2.1880  0.7221
  168MOL0     H22617   5.335   1.842  10.196 -1.1153 -3.0147 -2.4494
  168MOL0     H22618   5.288   1.993  10.108 -1.1579  0.0772 -1.9057
  168MOL0     H22619   5.289   1.728   9.962 -1.0028 -1.6081  1.7607
  168MOL0     H22620   5.163   1.770  10.068  0.0933 -0.4766 -0.7316
  168MOL0     H22621   5.103   1.961   9.934 -1.6377 -2.7897  1.5504
  168MOL0     H22622   5.264   1.951   9.842 -2.3020 -0.3523 -3.9148
  168MOL0     H22623   5.200   1.756   9.739 -0.2668 -1.4676  2.1653
  168MOL0     H22624   5.067   1.719   9.843  0.7633  0.0540 -0.1083
  168MOL0     H22625   4.937   1.926   9.737  0.0738  2.3871 -2.6147
  168MOL0     H22626   5.095   1.963   9.667  0.8538 -0.5890  0.2385
  168MOL0     H22627   4.954   1.871   9.506  0.3097 -0.5603 -1.5081
  168MOL0     H22628   5.076   1.738   9.543  0.9935  0.5681  1.7301
  168MOL0     H22629   4.873   1.642   9.685  0.0762  1.0615 -0.1918
  168MOL0     H22630   4.865   1.643   9.509  0.1831  0.9759 -1.1565
  168MOL0     H22631   4.693   1.850   9.396  0.5734  3.0821  0.3748
  168MOL0     H22632   4.364   1.955   9.565 -1.0748 -1.0915 -0.2404
  168MOL0     H22633   4.473   2.032   9.445 -2.3074  0.1564  0.0600
  168MOL0     H22634   4.491   1.848   9.295  1.5768 -1.0144  1.1983
  168MOL0     H22635   4.321   1.888   9.317 -0.7516 -2.4064 -2.3714
  168MOL0     H22636   4.457   1.662   9.468 -0.5078  1.1817  0.7406
  168MOL0     H22637   4.382   1.654   9.310  0.2146  1.0604  0.1180
  168MOL0     H22638   4.231   1.731   9.572  0.6242 -1.4681  1.0761
  168MOL0     H22639   4.231   1.569   9.511 -0.7271 -1.0206 -2.8866
  168MOL0     H22640   3.925   1.777   9.280  2.5631 -0.6069  3.8484
  168MOL0     H22641   3.721   1.752   9.138 -0.3538 -0.7982  1.2780
  168MOL0     H22642   3.803   1.685   8.991  0.3581  1.5854  0.6974
  168MOL0     H22643   3.686   1.596   9.106 -0.2823  0.2089  2.3832
  168MOL0     H22644   3.950   1.000   9.062  1.2712 -1.1740 -1.6973
  168MOL0     H22645   3.854   0.814   8.956  0.0958  0.3860  1.5330
  168MOL0     H22646   3.705   0.639   8.895 -2.6649 -2.2370  2.1744
  168MOL0     H22647   3.600   0.740   8.984 -2.3279 -0.9500  0.3301
  168MOL0     H22648   3.522   0.514   8.902  1.1628 -0.6768 -1.9156
  168MOL0     H22649   3.416   0.653   8.863 -0.1295 -0.4305  1.0364
  168MOL0     H22650   3.621   0.547   8.663  0.0660 -3.0498  1.0764
  168MOL0     H22651   3.457   0.639   8.640 -0.6962  0.3004  1.5674
  168MOL0     H22652   3.517   0.357   8.711  0.0161  2.2159  1.7634
  168MOL0     H22653   3.344   0.418   8.697 -0.5082  1.3619  0.5845
  168MOL0     H22654   3.439   0.288   8.503 -1.4855 -0.2680  2.2014
  168MOL0     H22655   3.565   0.413   8.490 -0.9250 -1.0797 -0.4712
  168MOL0     H22656   3.265   0.463   8.456 -0.0151 -0.8601 -1.3637
  168MOL0     H22657   3.395   0.588   8.434  4.1222 -0.1466  0.2679
  168MOL0     H22658   3.366   0.325   8.284  0.7801 -0.4088 -3.0468
  168MOL0     H22659   3.491   0.465   8.261 -0.0035  3.2088  2.8815
  168MOL0     H22660   3.331   0.496   8.076  1.8940  2.5513  1.5940
  168MOL0     H22661   3.298   0.606   8.206  2.4198  1.0903  2.9427
  168MOL0     H22662   3.550   1.061   8.790 -0.8290  2.1376  0.0448
  168MOL0     H22663   3.664   1.265   8.873 -0.3204  1.2316  2.0690
  168MOL0     H22664   4.098   1.323   9.160 -0.6826  0.1508  0.3822
  168MOL0     H22665   4.214   1.459   9.321  0.0264  0.2474  0.7864
  168MOL0     H22666   5.727   1.852   9.928 -1.8175 -0.4709 -0.0802
  168MOL0     H22667   5.924   1.723   9.937 -1.3264 -2.2356 -0.1207
  168MOL0     H22668   6.182   1.521  10.337  0.8113  1.9282 -2.1036
  168MOL0     H22669   6.365   1.383  10.422  0.7825 -0.1373 -0.8810
  168MOL0     H22670   6.488   1.017  10.187  0.5918  0.0869 -0.6079
  168MOL0     H22671   6.609   1.148  10.154  0.3129 -1.8072 -0.7988
  168MOL0     H22672   6.700   0.948  10.265  1.7880  1.0323 -0.5815
  168MOL0     H22673   6.606   1.003  10.412 -0.6481  4.1490  0.3569
  168MOL0     H22674   6.743   1.228  10.396  4.9739  1.2917 -0.0920
  168MOL0     H22675   6.805   1.155  10.251  1.1354  2.2106  0.5767
  168MOL0     H22676   6.973   1.122  10.399  0.8793 -0.0905  2.8039
  168MOL0     H22677   6.893   0.960  10.412 -2.1960 -0.3026  1.3057
  168MOL0     H22678   6.894   1.090  10.800  3.6396  0.4307 -0.6857
  168MOL0     H22679   6.384   1.168  10.056  0.0023 -2.2609  2.4901
  168MOL0     H22680   6.204   1.298   9.967 -0.9666  1.2426  0.0354
  169MOL0     O22681   5.802   0.020   2.559  0.1175  0.5673  1.2637
  169MOL0     C22682   5.791   0.141   2.569  0.2323  0.1907  0.1194
  169MOL0     O22683   5.671   0.201   2.612  0.3053  0.3005 -0.2328
  169MOL0     C22684   5.574   0.120   2.674  0.5657  0.0455  0.3566
  169MOL0     C22685   5.600   0.052   2.794 -0.2455 -0.1456 -0.3482
  169MOL0     C22686   5.503  -0.022   2.856 -0.1528 -0.0451  0.3063
  169MOL0     C22687   5.373  -0.036   2.798 -1.5841  0.0966 -0.5553
  169MOL0     O22688   5.281  -0.105   2.873 -0.4046  0.1893 -0.3746
  169MOL0     C22689   5.148  -0.117   2.819 -0.1712 -0.4757  0.2484
  169MOL0     C22690   5.073  -0.191   2.928  0.2664  1.0013 -0.1775
  169MOL0     C22691   4.922  -0.203   2.902 -0.4312 -0.1132  0.0473
  169MOL0     C22692   4.840  -0.079   2.947 -0.5555  0.0191  0.7092
  169MOL0     C22693   4.689  -0.098   2.916  0.4633  0.1513 -0.7712
  169MOL0     C22694   4.596   0.024   2.948 -0.4819 -1.0070  0.4868
  169MOL0     C22695   4.448   0.001   2.946  0.4924  0.2749  0.0109
  169MOL0     C22696   4.417  -0.005   2.792  0.0570 -0.7916 -0.3220
  169MOL0     N22697   4.421   0.129   2.726 -0.1167 -1.0557  0.1732
  169MOL0     C22698   4.341   0.228   2.768  0.0262 -0.5018 -0.6063
  169MOL0     C22699   4.371   0.327   2.683  0.4807  1.5155 -0.4910
  169MOL0     C22700   4.308   0.454   2.688  0.2755 -0.2705  0.8509
  169MOL0     C22701   4.160   0.448   2.635 -1.0088 -0.2785  0.3205
  169MOL0     C22702   4.091   0.587   2.639 -0.0629 -0.6660 -0.1781
  169MOL0     C22703   3.944   0.593   2.621  0.0969 -0.0859 -0.9541
  169MOL0     O22704   3.873   0.511   2.718 -0.4743  0.6520 -0.5044
  169MOL0     C22705   3.732   0.489   2.721 -1.0506 -0.7338  0.2832
  169MOL0     C22706   3.683   0.375   2.780 -0.4729  0.0548 -0.6807
  169MOL0     C22707   3.549   0.333   2.778 -0.5816  0.1446  0.2300
  169MOL0     C22708   3.511   0.204   2.837 -1.4699  1.0137 -0.1587
  169MOL0     C22709   3.454   0.403   2.701  0.6493 -0.9391  0.6096
  169MOL0     C22710   3.306   0.373   2.678 -0.1625  0.2616  0.3751
  169MOL0     O22711   3.206   0.462   2.681 -0.7339 -0.9878 -0.1442
  169MOL0     C22712   3.088   0.436   2.626  0.6617  0.2528  0.5041
  169MOL0     C22713   2.963   0.439   2.697 -0.5267  0.1984  0.3616
  169MOL0     C22714   2.842   0.425   2.628  0.4725 -0.4021  0.0348
  169MOL0     C22715   2.842   0.410   2.487  0.4561  0.4427 -0.5723
  169MOL0     O22716   2.720   0.389   2.414  0.0593  0.0989  0.4185
  169MOL0     C22717   2.591   0.426   2.472  0.2379  0.2337 -0.1991
  169MOL0     C22718   2.480   0.419   2.369  1.2244 -0.2833  0.4762
  169MOL0     C22719   2.363   0.495   2.427 -0.1449 -0.0006  0.3341
  169MOL0     C22720   2.241   0.490   2.336  0.3835  0.8144 -0.3470
  169MOL0     C22721   2.107   0.517   2.406 -1.1406  0.1514 -0.1863
  169MOL0     C22722   2.007   0.594   2.313  0.3969  0.7761 -0.3447
  169MOL0     C22723   1.863   0.566   2.349 -0.2762  0.0029 -0.9498
  169MOL0     C22724   1.810   0.420   2.337  0.6262 -0.7039  1.2389
  169MOL0    Cl22725   1.881   0.340   2.193 -0.3353  0.0629 -0.5175
  169MOL0     C22726   2.966   0.414   2.420  0.8261 -0.3864 -0.1519
  169MOL0     C22727   3.080   0.431   2.488  0.3190 -0.9640 -0.1672
  169MOL0     O22728   3.289   0.256   2.639 -0.4184 -0.6292  0.1705
  169MOL0     C22729   3.501   0.525   2.638 -0.3453  0.6045 -0.9066
  169MOL0     C22730   3.640   0.570   2.649 -0.1327 -0.5760 -0.5767
  169MOL0     N22731   4.458   0.283   2.582  0.0685  0.4107 -0.4301
  169MOL0     N22732   4.475   0.159   2.606  0.1883  0.4962 -0.1017
  169MOL0     C22733   5.352   0.028   2.679  1.4166 -0.2778  0.1490
  169MOL0     C22734   5.449   0.102   2.613  0.0311 -0.0396 -0.3310
  169MOL0     C22735   5.912   0.233   2.551 -0.1337 -0.3717  0.4389
  169MOL0     C22736   5.900   0.366   2.593  0.6596 -0.3901 -0.8459
  169MOL0     C22737   6.004   0.456   2.556  0.2586  0.4327 -0.5908
  169MOL0     C22738   6.128   0.415   2.498  0.9901  0.3823  0.9172
  169MOL0     O22739   6.241   0.489   2.471  0.5469 -0.4216 -0.8423
  169MOL0     C22740   6.233   0.631   2.497 -0.7551 -0.7065 -0.4332
  169MOL0     C22741   6.376   0.692   2.493 -0.2345 -0.1603 -0.4089
  169MOL0     C22742   6.481   0.616   2.584  0.0143  0.1090 -0.3001
  169MOL0     C22743   6.616   0.689   2.605  0.0949 -0.1107  0.2580
  169MOL0     C22744   6.724   0.615   2.676 -0.0548 -0.5402 -0.1000
  169MOL0     C22745   6.821   0.564   2.724 -0.0195  0.4777  0.4816
  169MOL0     C22746   6.148   0.278   2.485  0.0410  0.6400 -0.6869
  169MOL0     C22747   6.039   0.188   2.503 -0.4105 -0.1117  0.9121
  169MOL0     H22748   5.701   0.062   2.831  0.8319 -2.0096 -2.4969
  169MOL0     H22749   5.515  -0.081   2.946  1.0214 -1.6697 -0.8375
  169MOL0     H22750   5.103  -0.019   2.801  1.1174  0.3902  1.4639
  169MOL0     H22751   5.143  -0.177   2.729 -4.3335  0.6944 -0.5255
  169MOL0     H22752   5.110  -0.293   2.943 -4.4605 -0.7831  1.3000
  169MOL0     H22753   5.091  -0.142   3.024  0.6882 -1.6177  1.1795
  169MOL0     H22754   4.899  -0.216   2.796  0.3146  1.1355 -0.2866
  169MOL0     H22755   4.876  -0.275   2.970  1.5702  0.3316  2.0082
  169MOL0     H22756   4.852  -0.055   3.053 -2.3027  1.0457  0.7108
  169MOL0     H22757   4.888   0.002   2.892 -1.3767 -0.7622 -1.2451
  169MOL0     H22758   4.673  -0.123   2.811 -0.8253 -0.4206 -0.4709
  169MOL0     H22759   4.662  -0.186   2.975  0.1977  1.0424  0.4722
  169MOL0     H22760   4.631   0.049   3.048  0.6453  0.0386 -0.1436
  169MOL0     H22761   4.616   0.098   2.870 -0.6596  0.9255  2.1841
  169MOL0     H22762   4.424  -0.100   2.981  2.5144 -1.3600 -2.8553
  169MOL0     H22763   4.380   0.065   3.003 -1.5557 -0.9875 -0.8681
  169MOL0     H22764   4.312  -0.036   2.784 -0.9086  2.4377 -2.0151
  169MOL0     H22765   4.488  -0.072   2.743  2.6972  1.6732 -0.1681
  169MOL0     H22766   4.270   0.218   2.849 -1.0122 -0.6837 -1.5170
  169MOL0     H22767   4.314   0.506   2.784  1.3611  3.1902 -0.9701
  169MOL0     H22768   4.359   0.520   2.618 -2.9160 -0.2593 -1.7387
  169MOL0     H22769   4.113   0.370   2.696  2.0673 -0.4175  2.7902
  169MOL0     H22770   4.175   0.402   2.537 -0.8642  0.4920 -0.0240
  169MOL0     H22771   4.128   0.643   2.552 -1.7086 -0.7573 -0.9814
  169MOL0     H22772   4.134   0.637   2.726 -0.6015  1.0549 -0.8539
  169MOL0     H22773   3.921   0.568   2.517 -1.4470 -0.0721 -0.6351
  169MOL0     H22774   3.905   0.694   2.636  0.5584  0.2510 -1.9386
  169MOL0     H22775   3.764   0.324   2.831  1.1511  1.1441 -2.0833
  169MOL0     H22776   3.548   0.188   2.938 -3.5864  1.4768  0.7542
  169MOL0     H22777   3.405   0.194   2.862 -1.1534 -1.8807  0.3415
  169MOL0     H22778   3.540   0.124   2.768 -3.2969  0.5568 -0.4559
  169MOL0     H22779   2.969   0.465   2.802  0.6299  1.1572  0.0801
  169MOL0     H22780   2.742   0.405   2.666  1.4066 -5.4814  0.4114
  169MOL0     H22781   2.568   0.353   2.551 -1.0658  0.1306 -0.6402
  169MOL0     H22782   2.606   0.523   2.521 -0.1990 -0.6698  1.8445
  169MOL0     H22783   2.488   0.460   2.268 -1.6612 -4.6439 -1.8083
  169MOL0     H22784   2.466   0.314   2.344 -1.2394  0.2810 -0.9754
  169MOL0     H22785   2.387   0.601   2.439 -0.8064  0.4439 -1.9022
  169MOL0     H22786   2.326   0.442   2.516 -1.9075 -0.7903 -0.7976
  169MOL0     H22787   2.249   0.572   2.265 -3.6518 -0.1409 -2.2274
  169MOL0     H22788   2.227   0.394   2.285  0.9057  1.0006 -0.8426
  169MOL0     H22789   2.127   0.572   2.499 -0.0946 -1.7284  0.7749
  169MOL0     H22790   2.066   0.421   2.438 -1.1174  0.0385 -0.4932
  169MOL0     H22791   2.031   0.700   2.328 -2.3075  1.4314 -0.1243
  169MOL0     H22792   2.023   0.560   2.211  0.7579 -1.4494  0.3892
  169MOL0     H22793   1.802   0.624   2.279 -0.2723 -2.9618 -3.6786
  169MOL0     H22794   1.850   0.587   2.455  2.1750 -1.2136 -0.3352
  169MOL0     H22795   1.701   0.425   2.323  0.9210 -1.1932 -2.3306
  169MOL0     H22796   1.826   0.360   2.427  0.9608 -0.1782  1.5342
  169MOL0     H22797   2.965   0.417   2.312 -0.3174  0.5865 -0.1357
  169MOL0     H22798   3.166   0.425   2.422 -0.6889 -1.4448 -1.4788
  169MOL0     H22799   3.425   0.577   2.580 -0.9750  1.0414  0.2761
  169MOL0     H22800   3.682   0.649   2.587  0.0841 -1.1610 -1.1852
  169MOL0     H22801   5.257   0.024   2.626 -0.0303  2.3295  2.2674
  169MOL0     H22802   5.445   0.134   2.509  2.1739  3.4163  0.4953
  169MOL0     H22803   5.806   0.401   2.636  0.5764 -0.6134 -0.8469
  169MOL0     H22804   5.983   0.560   2.581 -2.4457 -0.5216  1.6261
  169MOL0     H22805   6.165   0.676   2.424 -0.3380  0.7769  0.0613
  169MOL0     H22806   6.209   0.654   2.601 -2.4945  2.3670 -1.3954
  169MOL0     H22807   6.354   0.794   2.528 -4.0646 -0.1508 -2.3274
  169MOL0     H22808   6.402   0.688   2.387  0.0720  0.4254 -0.3582
  169MOL0     H22809   6.509   0.518   2.545  0.4876 -0.5410  1.5519
  169MOL0     H22810   6.445   0.594   2.685  0.9269 -1.1398 -0.2345
  169MOL0     H22811   6.600   0.782   2.659  0.1316 -0.9060  1.6962
  169MOL0     H22812   6.647   0.702   2.501 -1.5615  2.1258 -0.0332
  169MOL0     H22813   6.905   0.516   2.770  2.5141  3.4731 -0.6477
  169MOL0     H22814   6.244   0.239   2.451 -0.5001  0.8593 -2.5733
  169MOL0     H22815   6.053   0.082   2.481 -0.9941 -0.2610  1.2414
  170MOL0     O22816   8.322   1.597   3.298 -0.1369 -0.2671 -0.2907
  170MOL0     C22817   8.341   1.554   3.184 -1.0792  0.3105 -0.3597
  170MOL0     O22818   8.247   1.495   3.106 -0.2345 -0.4011 -0.8281
  170MOL0     C22819   8.117   1.495   3.132 -0.2955  0.9056 -0.3323
  170MOL0     C22820   8.049   1.556   3.239  0.0085  0.3492 -0.0006
  170MOL0     C22821   7.906   1.547   3.243 -1.2475 -0.1426  0.1979
  170MOL0     C22822   7.832   1.509   3.137  1.1304 -0.5501 -0.4916
  170MOL0     O22823   7.693   1.513   3.149  0.7148  0.5247  0.1414
  170MOL0     C22824   7.617   1.470   3.038  0.8097 -0.0209 -0.2208
  170MOL0     C22825   7.466   1.460   3.073 -0.7899 -0.4734  0.4933
  170MOL0     C22826   7.393   1.596   3.110 -0.3084 -0.5411 -0.5715
  170MOL0     C22827   7.349   1.670   2.982 -0.3902  0.4926  0.1836
  170MOL0     C22828   7.215   1.736   3.000  0.1521 -0.2051  0.6907
  170MOL0     C22829   7.190   1.811   2.870 -0.3634 -0.2795  0.1703
  170MOL0     C22830   7.045   1.857   2.860  0.3216 -0.0143  0.3656
  170MOL0     C22831   7.034   1.941   2.737  0.7037  0.8484  0.4729
  170MOL0     N22832   6.897   1.940   2.690  0.1473  0.9792  1.3111
  170MOL0     C22833   6.802   2.036   2.717 -1.6334  0.1829 -1.2335
  170MOL0     C22834   6.704   2.027   2.631 -0.1577 -0.0364 -0.0858
  170MOL0     C22835   6.580   2.112   2.620 -0.6343  0.4400  0.2941
  170MOL0     C22836   6.478   2.082   2.725  0.6434  0.1776 -0.8438
  170MOL0     C22837   6.334   2.116   2.688 -0.6069 -0.1317  0.2456
  170MOL0     C22838   6.275   2.003   2.609 -0.7066  0.5128  0.9163
  170MOL0     O22839   6.162   2.042   2.527  0.6024  0.1421 -0.0557
  170MOL0     C22840   6.041   1.986   2.557 -0.4732 -0.5280  0.2838
  170MOL0     C22841   6.008   1.908   2.666 -0.2104  0.9618  0.0865
  170MOL0     C22842   5.882   1.857   2.682  0.0970  0.2384 -0.4289
  170MOL0     C22843   5.864   1.774   2.808 -0.6337  0.4313 -0.4004
  170MOL0     C22844   5.776   1.884   2.591  0.1977  0.2599  0.2911
  170MOL0     C22845   5.632   1.845   2.614 -0.2867 -0.0418  0.1300
  170MOL0     O22846   5.544   1.852   2.506 -0.0836  0.0427  1.0933
  170MOL0     C22847   5.408   1.816   2.517 -0.2994  0.3783  0.0049
  170MOL0     C22848   5.352   1.729   2.424 -0.4710 -0.1414  0.0389
  170MOL0     C22849   5.214   1.700   2.421  0.2737  0.6336 -0.1827
  170MOL0     C22850   5.132   1.757   2.520 -0.5847 -1.0621  0.2422
  170MOL0     O22851   5.002   1.738   2.494  0.4588 -0.1083 -0.5803
  170MOL0     C22852   4.912   1.847   2.535  0.0578 -0.3289 -0.4450
  170MOL0     C22853   4.768   1.827   2.477  0.6923 -0.3693 -0.8616
  170MOL0     C22854   4.693   1.943   2.531 -0.6839 -0.3405  0.4958
  170MOL0     C22855   4.543   1.945   2.478 -0.4428 -0.1968  1.0017
  170MOL0     C22856   4.463   2.050   2.542  0.7601  0.0020 -0.3072
  170MOL0     C22857   4.505   2.198   2.530  0.2812  0.7992  0.0480
  170MOL0     C22858   4.403   2.303   2.583 -0.4929 -0.7321  0.0747
  170MOL0     C22859   4.402   2.434   2.503 -0.2210 -0.2182 -0.0505
  170MOL0    Cl22860   4.331   2.400   2.351  0.2318  0.1818 -0.0179
  170MOL0     C22861   5.190   1.844   2.607 -1.0929 -0.0319 -0.1286
  170MOL0     C22862   5.324   1.872   2.611 -0.6189 -0.0516  0.2642
  170MOL0     O22863   5.603   1.808   2.728  0.4203  0.3817 -0.5903
  170MOL0     C22864   5.811   1.962   2.476 -0.1287  0.5970 -0.6768
  170MOL0     C22865   5.943   2.007   2.457 -0.1340  0.5864  0.0108
  170MOL0     N22866   6.736   1.913   2.559 -0.4898 -0.3675 -0.2283
  170MOL0     N22867   6.843   1.856   2.602 -0.1714 -0.4394 -0.3283
  170MOL0     C22868   7.902   1.467   3.017  0.4674  0.3840 -1.0609
  170MOL0     C22869   8.041   1.458   3.024 -0.5298 -0.0665 -1.0195
  170MOL0     C22870   8.465   1.589   3.118 -0.2607 -1.2398  1.0333
  170MOL0     C22871   8.580   1.606   3.199 -0.9884 -0.2774  0.4160
  170MOL0     C22872   8.691   1.658   3.135 -1.2735 -0.0735  0.0643
  170MOL0     C22873   8.694   1.679   2.996  0.2275 -0.5377  0.4209
  170MOL0     O22874   8.809   1.726   2.943  0.2672 -0.3110 -0.0685
  170MOL0     C22875   8.793   1.781   2.813 -0.1754 -0.2983  1.2293
  170MOL0     C22876   8.912   1.878   2.774 -0.4013 -0.1419  0.1357
  170MOL0     C22877   9.040   1.807   2.746 -1.0771  0.0933  0.0947
  170MOL0     C22878   9.142   1.893   2.676 -0.3466 -0.4152 -0.4130
  170MOL0     C22879   9.275   1.844   2.663 -1.2991  0.2468  0.5296
  170MOL0     C22880   9.399   1.831   2.662  0.7231  0.1573 -0.7972
  170MOL0     C22881   8.581   1.646   2.918  0.1094 -0.8200  0.4018
  170MOL0     C22882   8.466   1.618   2.977  0.1513  0.1235 -1.0881
  170MOL0     H22883   8.101   1.597   3.325  1.3070  1.5352 -1.2958
  170MOL0     H22884   7.850   1.566   3.333 -1.1648 -2.4151  0.7770
  170MOL0     H22885   7.628   1.533   2.949  1.1561  1.0308  0.5482
  170MOL0     H22886   7.638   1.371   2.996  0.8794  0.1569 -0.6139
  170MOL0     H22887   7.421   1.411   2.986 -1.9001 -3.4845  2.6111
  170MOL0     H22888   7.457   1.379   3.145  1.4360 -0.7434  0.5453
  170MOL0     H22889   7.300   1.570   3.162 -0.3056  2.5236  1.1835
  170MOL0     H22890   7.445   1.648   3.191  0.1170 -1.5696 -0.1691
  170MOL0     H22891   7.425   1.747   2.965 -0.7304  0.7868 -0.0213
  170MOL0     H22892   7.341   1.595   2.903 -4.9612  1.6058 -0.6803
  170MOL0     H22893   7.144   1.655   3.021  1.0753 -1.2762 -0.1786
  170MOL0     H22894   7.218   1.805   3.085  0.9288  0.5455  0.0691
  170MOL0     H22895   7.263   1.890   2.854 -1.4188  0.1527 -3.5267
  170MOL0     H22896   7.211   1.745   2.785 -0.4379  0.3275 -0.3299
  170MOL0     H22897   6.990   1.766   2.833  0.0942  1.0459 -3.1973
  170MOL0     H22898   7.019   1.906   2.954  1.6288  0.9607  0.2393
  170MOL0     H22899   7.099   1.903   2.657  0.1140  2.8775 -1.0527
  170MOL0     H22900   7.075   2.042   2.748  1.6203  1.1189 -3.6666
  170MOL0     H22901   6.803   2.102   2.803 -0.2463 -0.8385 -0.4182
  170MOL0     H22902   6.609   2.217   2.615 -1.0623  0.5082 -1.3876
  170MOL0     H22903   6.547   2.094   2.517 -0.7345 -0.5718  0.4960
  170MOL0     H22904   6.509   2.130   2.819  1.2280 -0.2808 -0.8018
  170MOL0     H22905   6.470   1.983   2.769 -2.0319  0.9576  0.6470
  170MOL0     H22906   6.334   2.207   2.626  4.3903 -2.0483 -3.2348
  170MOL0     H22907   6.276   2.141   2.777 -0.9968  3.5949 -0.8764
  170MOL0     H22908   6.262   1.914   2.672  2.1257 -0.4109  0.3256
  170MOL0     H22909   6.354   1.976   2.538 -0.7675  0.1742  0.9731
  170MOL0     H22910   6.070   1.887   2.752  1.1714  1.9550 -0.6261
  170MOL0     H22911   5.780   1.793   2.874 -1.6206  0.2119 -1.5460
  170MOL0     H22912   5.856   1.670   2.774 -1.9920  1.2388 -2.7962
  170MOL0     H22913   5.946   1.784   2.879 -3.0238  0.5751  2.5386
  170MOL0     H22914   5.413   1.705   2.337 -0.4775 -0.9491  0.2539
  170MOL0     H22915   5.171   1.643   2.339  3.6085 -0.7603 -1.0984
  170MOL0     H22916   4.910   1.850   2.645  0.2475 -2.0978 -0.3562
  170MOL0     H22917   4.947   1.945   2.502 -0.1855  0.7677  2.2722
  170MOL0     H22918   4.755   1.832   2.369 -0.6821  2.7497 -0.6572
  170MOL0     H22919   4.721   1.735   2.514 -0.9778 -1.1291 -4.4746
  170MOL0     H22920   4.744   2.036   2.505 -1.5739  1.2430  3.8664
  170MOL0     H22921   4.680   1.942   2.640  3.4067  0.0400  1.1300
  170MOL0     H22922   4.547   1.961   2.369  0.2421  1.2145  1.2051
  170MOL0     H22923   4.507   1.847   2.509 -1.2262  1.0358  4.2892
  170MOL0     H22924   4.455   2.022   2.647  1.5931  2.2276  0.3959
  170MOL0     H22925   4.363   2.043   2.497 -0.2901  1.8536  1.5593
  170MOL0     H22926   4.596   2.206   2.589 -0.5442  0.4854  1.4033
  170MOL0     H22927   4.531   2.232   2.429 -0.4169 -0.1605 -0.4793
  170MOL0     H22928   4.431   2.320   2.687 -1.2780  2.1744 -0.0893
  170MOL0     H22929   4.306   2.253   2.595 -0.9391  0.5856  2.6032
  170MOL0     H22930   4.509   2.450   2.486  0.1381 -2.1649  0.2238
  170MOL0     H22931   4.351   2.515   2.557  0.2444 -1.7337  2.8340
  170MOL0     H22932   5.125   1.894   2.677  0.5024  1.9442  0.0471
  170MOL0     H22933   5.352   1.958   2.672  0.3400  0.5051 -0.9109
  170MOL0     H22934   5.734   1.976   2.401 -2.0580 -1.2769  0.8356
  170MOL0     H22935   5.973   2.061   2.368  1.5652 -1.7589 -0.9273
  170MOL0     H22936   7.860   1.443   2.919  1.1100  0.3153 -1.3241
  170MOL0     H22937   8.099   1.416   2.942  2.5402  2.0728 -0.1491
  170MOL0     H22938   8.595   1.583   3.304 -1.9015 -0.7294  0.4602
  170MOL0     H22939   8.782   1.675   3.191 -1.4281  1.3430 -0.0588
  170MOL0     H22940   8.776   1.707   2.735 -0.1899  2.4423 -1.5498
  170MOL0     H22941   8.704   1.843   2.800  0.4022 -0.1499 -3.3744
  170MOL0     H22942   8.935   1.956   2.847  1.9868 -0.4326 -0.2253
  170MOL0     H22943   8.875   1.930   2.685 -1.0315  0.5756  0.7971
  170MOL0     H22944   9.034   1.717   2.683 -0.5244  0.7995 -0.9861
  170MOL0     H22945   9.071   1.779   2.847 -1.4317 -2.2138 -0.3788
  170MOL0     H22946   9.165   1.989   2.722  2.5737 -0.0264 -2.4098
  170MOL0     H22947   9.110   1.920   2.574  0.6507  2.2805 -0.0858
  170MOL0     H22948   9.502   1.802   2.656  0.2475 -2.2207  0.9341
  170MOL0     H22949   8.581   1.638   2.810 -2.1866 -1.1549  0.3820
  170MOL0     H22950   8.370   1.607   2.927  0.3797 -1.3853 -1.2382
  171MOL0     O22951   5.614   9.999   8.885  0.2260  0.6442 -0.4194
  171MOL0     C22952   5.622  10.113   8.834  0.4617  0.3109  0.5006
  171MOL0     O22953   5.515  10.173   8.766 -0.2625 -0.0830 -0.0111
  171MOL0     C22954   5.392  10.130   8.786 -0.1033 -0.1797  0.7057
  171MOL0     C22955   5.353  10.006   8.735  0.7386 -0.1008  0.9011
  171MOL0     C22956   5.223   9.967   8.738  0.0965 -0.2088  0.4981
  171MOL0     C22957   5.126  10.043   8.803  0.5049 -0.1075  0.8461
  171MOL0     O22958   5.001   9.987   8.787 -0.3042 -0.5532 -0.9514
  171MOL0     C22959   4.888  10.048   8.851  0.1003 -0.1280  0.4124
  171MOL0     C22960   4.779   9.949   8.836  0.7405  0.1903  0.1034
  171MOL0     C22961   4.762   9.900   8.689 -0.0283  0.6217 -0.3943
  171MOL0     C22962   4.838   9.769   8.672 -0.2978  0.5135 -0.4283
  171MOL0     C22963   4.785   9.678   8.559 -0.1247 -0.4355 -0.1388
  171MOL0     C22964   4.683   9.583   8.616  0.2752  1.0153  0.4768
  171MOL0     C22965   4.662   9.462   8.513  0.7391  0.3945  1.0674
  171MOL0     C22966   4.552   9.369   8.573 -0.5382  0.6722  0.1869
  171MOL0     N22967   4.421   9.413   8.539  0.2540  0.3635 -0.8632
  171MOL0     C22968   4.335   9.486   8.618  0.3618 -0.1811  0.2584
  171MOL0     C22969   4.230   9.505   8.538  0.9222  0.1227 -0.1180
  171MOL0     C22970   4.103   9.581   8.569  0.1984 -0.1843 -0.3870
  171MOL0     C22971   3.976   9.546   8.504  0.2082 -0.1615 -0.0867
  171MOL0     C22972   3.968   9.597   8.361 -0.6200  0.1314  0.7642
  171MOL0     C22973   3.907   9.736   8.352 -0.0922 -0.7207 -0.0691
  171MOL0     O22974   3.761   9.734   8.366 -0.4994 -0.3870  0.2614
  171MOL0     C22975   3.682   9.839   8.340  0.1377  0.5546 -0.1211
  171MOL0     C22976   3.718   9.956   8.277  0.2796 -0.2331  0.3421
  171MOL0     C22977   3.631  10.057   8.249  0.8679 -0.7689  0.5524
  171MOL0     C22978   3.684  10.181   8.189 -0.0964 -0.0218  0.3041
  171MOL0     C22979   3.496  10.050   8.288  0.4547  0.3758 -0.5765
  171MOL0     C22980   3.389  10.150   8.250  0.7860  0.3876  0.9401
  171MOL0     O22981   3.421  10.281   8.213  0.4538 -0.2308  0.2722
  171MOL0     C22982   3.314  10.365   8.212 -0.6602  0.2812 -0.3849
  171MOL0     C22983   3.228  10.387   8.324  0.4501  0.4704 -0.2516
  171MOL0     C22984   3.119  10.478   8.306  0.2881 -0.1220  0.1845
  171MOL0     C22985   3.084  10.547   8.190 -0.1039  0.1336  0.9623
  171MOL0     O22986   2.974  10.639   8.186 -0.6251  0.5868  0.1578
  171MOL0     C22987   2.848  10.601   8.251 -0.4339  0.6077  0.0497
  171MOL0     C22988   2.747  10.715   8.237  0.2533 -0.5363 -0.4004
  171MOL0     C22989   2.594  10.696   8.286 -0.3160  0.0324 -0.5982
  171MOL0     C22990   2.517  10.767   8.187  0.4474 -0.0156 -0.1881
  171MOL0     C22991   2.369  10.767   8.237 -0.2325 -0.5176  1.0190
  171MOL0     C22992   2.273  10.858   8.151 -0.8385 -0.2752 -0.6112
  171MOL0     C22993   2.261  10.803   8.005  0.3169 -0.1997  0.1137
  171MOL0     C22994   2.185  10.891   7.912 -0.3489 -1.2110 -0.2464
  171MOL0    Cl22995   2.021  10.893   7.969  0.4750 -0.4318  0.2116
  171MOL0     C22996   3.178  10.536   8.085 -0.1304  0.3219 -0.2493
  171MOL0     C22997   3.289  10.446   8.095 -0.0498 -0.5602 -0.6652
  171MOL0     O22998   3.274  10.096   8.234 -1.0715 -0.2862 -0.2321
  171MOL0     C22999   3.460   9.941   8.371 -0.0840 -0.2754 -0.0219
  171MOL0     C23000   3.550   9.835   8.388 -0.4430 -0.2374 -0.4529
  171MOL0     N23001   4.254   9.454   8.410  0.9087 -0.3162 -0.1684
  171MOL0     N23002   4.360   9.382   8.421 -0.0668  0.2343 -0.0484
  171MOL0     C23003   5.158  10.170   8.854  0.1391 -0.3495 -0.2134
  171MOL0     C23004   5.291  10.215   8.839  0.1899  0.4193  0.1258
  171MOL0     C23005   5.756  10.162   8.830  0.2391 -0.1678  0.2824
  171MOL0     C23006   5.870  10.092   8.890 -0.9987 -1.0672  1.2180
  171MOL0     C23007   5.998  10.145   8.852 -1.0382 -0.1344 -0.0014
  171MOL0     C23008   6.008  10.271   8.790 -0.5653  0.2423 -1.2386
  171MOL0     O23009   6.133  10.323   8.776 -0.8329 -0.0336  0.2174
  171MOL0     C23010   6.154  10.404   8.662  0.3143  0.0673  0.6123
  171MOL0     C23011   6.304  10.460   8.670  0.7728 -0.2103 -0.5430
  171MOL0     C23012   6.408  10.341   8.677 -0.4006  0.6787  0.3404
  171MOL0     C23013   6.553  10.391   8.686  1.0301 -0.7158  0.0042
  171MOL0     C23014   6.639  10.276   8.717 -0.3309 -0.2744 -0.9045
  171MOL0     C23015   6.714  10.180   8.740  0.4124 -0.1797 -0.6038
  171MOL0     C23016   5.892  10.341   8.762 -0.9774 -0.1360  0.2821
  171MOL0     C23017   5.771  10.292   8.782  0.3930 -0.2462  0.4146
  171MOL0     H23018   5.419   9.934   8.688 -1.0338 -1.3875  0.2512
  171MOL0     H23019   5.204   9.865   8.704 -0.0768 -0.3055  0.8767
  171MOL0     H23020   4.916  10.050   8.957  3.2326 -0.2516 -0.3243
  171MOL0     H23021   4.870  10.148   8.809  0.7094 -0.1455  0.1014
  171MOL0     H23022   4.799   9.866   8.905 -2.2327 -0.3712  0.3986
  171MOL0     H23023   4.686   9.986   8.881  1.7694  1.4963  1.2621
  171MOL0     H23024   4.657   9.884   8.661 -0.0245  1.6132 -0.9949
  171MOL0     H23025   4.812   9.974   8.626  2.0652  0.9330  1.5201
  171MOL0     H23026   4.944   9.786   8.648  0.2483 -3.3041 -1.4025
  171MOL0     H23027   4.852   9.713   8.765  0.3212  0.5325 -0.5008
  171MOL0     H23028   4.754   9.728   8.467 -1.2440 -1.7729 -0.5325
  171MOL0     H23029   4.871   9.619   8.524  1.8831  1.5599  1.1045
  171MOL0     H23030   4.716   9.543   8.712 -1.1660  0.2244  0.6748
  171MOL0     H23031   4.591   9.635   8.646  1.1931  2.2036  1.3559
  171MOL0     H23032   4.634   9.506   8.417  1.6624 -2.4223 -0.5972
  171MOL0     H23033   4.753   9.401   8.504  1.6242  1.2983  3.0936
  171MOL0     H23034   4.569   9.361   8.681  0.1220  0.0915  0.0449
  171MOL0     H23035   4.569   9.272   8.526  1.0718  1.1330 -0.2414
  171MOL0     H23036   4.361   9.531   8.714  2.2792 -0.9743  0.1651
  171MOL0     H23037   4.087   9.554   8.674  0.5352  0.2438 -0.2210
  171MOL0     H23038   4.120   9.689   8.579  3.4537 -0.7992  4.7479
  171MOL0     H23039   3.895   9.592   8.562 -1.5266 -1.4699 -1.3679
  171MOL0     H23040   3.972   9.437   8.507 -4.9321 -0.2427 -1.0439
  171MOL0     H23041   3.905   9.542   8.290  0.9808  0.1581 -0.7387
  171MOL0     H23042   4.066   9.613   8.316 -0.7805  0.1208  0.4078
  171MOL0     H23043   3.936   9.778   8.256 -3.2957 -3.4884 -2.5148
  171MOL0     H23044   3.945   9.803   8.430 -2.5702  0.4825  0.2234
  171MOL0     H23045   3.817   9.959   8.232 -0.3567 -3.3519 -1.5356
  171MOL0     H23046   3.652  10.270   8.244  0.0227 -0.6036  1.3285
  171MOL0     H23047   3.794  10.184   8.183 -0.1222  2.3459 -0.1940
  171MOL0     H23048   3.650  10.179   8.085  1.4327 -1.5645 -0.2112
  171MOL0     H23049   3.244  10.327   8.413 -1.7357 -2.0654 -1.4214
  171MOL0     H23050   3.053  10.484   8.393 -0.5379  0.6875 -0.4885
  171MOL0     H23051   2.804  10.515   8.199 -0.1148  1.2727 -1.3598
  171MOL0     H23052   2.863  10.568   8.355  0.6356  0.7091 -0.0642
  171MOL0     H23053   2.789  10.804   8.284 -0.3461 -0.8722  0.8242
  171MOL0     H23054   2.752  10.740   8.131  2.0111 -2.2413 -0.7840
  171MOL0     H23055   2.580  10.728   8.389  3.4849 -0.6413  0.2641
  171MOL0     H23056   2.572  10.589   8.285  0.5452 -0.1525 -1.6375
  171MOL0     H23057   2.549  10.872   8.194 -0.5145  0.1555  3.2918
  171MOL0     H23058   2.535  10.734   8.084 -1.9303  0.2348 -0.7407
  171MOL0     H23059   2.364  10.796   8.343 -1.7151 -1.4251  1.2365
  171MOL0     H23060   2.326  10.667   8.224 -1.4284 -0.1734  2.0769
  171MOL0     H23061   2.173  10.847   8.192 -0.2470  0.7494  1.2513
  171MOL0     H23062   2.299  10.965   8.151 -2.4705  0.1523 -1.6334
  171MOL0     H23063   2.205  10.708   8.006 -0.2214  0.1065 -0.5727
  171MOL0     H23064   2.364  10.793   7.972  0.6700  2.2828  0.2720
  171MOL0     H23065   2.187  10.872   7.805 -0.4192  0.6058 -0.6091
  171MOL0     H23066   2.222  10.994   7.922 -1.3600 -0.9230  0.8209
  171MOL0     H23067   3.163  10.594   7.994  0.5612 -0.2058 -0.7088
  171MOL0     H23068   3.347  10.441   8.003  2.0983 -1.9044  0.6658
  171MOL0     H23069   3.356   9.932   8.400 -1.2925 -0.1150 -3.7823
  171MOL0     H23070   3.512   9.751   8.445 -0.1566  0.1944  0.3820
  171MOL0     H23071   5.078  10.232   8.891 -0.4832 -1.2628  0.0202
  171MOL0     H23072   5.321  10.316   8.865  0.8118  0.6936 -1.5838
  171MOL0     H23073   5.864   9.997   8.941 -0.6263 -1.9438 -0.2934
  171MOL0     H23074   6.099  10.107   8.867 -0.6455  0.2978 -1.4162
  171MOL0     H23075   6.141  10.346   8.571 -3.4428  0.5242  0.6874
  171MOL0     H23076   6.089  10.492   8.661 -0.0556 -0.1740 -1.7238
  171MOL0     H23077   6.309  10.514   8.766 -0.8730 -1.1924  0.1386
  171MOL0     H23078   6.327  10.535   8.595  1.4876  1.5056  1.2998
  171MOL0     H23079   6.407  10.274   8.590  0.6076  1.6723 -0.4721
  171MOL0     H23080   6.383  10.279   8.763 -3.0049  1.1017 -0.0002
  171MOL0     H23081   6.562  10.476   8.754 -0.9599 -1.8758  1.8698
  171MOL0     H23082   6.574  10.440   8.591 -2.1924 -1.4061 -1.2244
  171MOL0     H23083   6.788  10.103   8.751  1.9000  1.2336 -0.3041
  171MOL0     H23084   5.896  10.435   8.707  0.3730 -1.8572 -2.7777
  171MOL0     H23085   5.683  10.352   8.759 -1.0300 -2.7979 -1.3576
  172MOL0     O23086   9.504   5.999   7.660 -0.2287  0.2641  0.5593
  172MOL0     C23087   9.507   6.012   7.783  0.5567 -0.1410  1.1623
  172MOL0     O23088   9.399   5.998   7.865  1.0650  0.0761  0.5472
  172MOL0     C23089   9.282   5.957   7.798 -0.1513 -0.2426  0.3100
  172MOL0     C23090   9.235   5.826   7.784  0.3905 -0.2874 -0.0327
  172MOL0     C23091   9.124   5.787   7.712 -0.3916  0.0362  0.4331
  172MOL0     C23092   9.047   5.881   7.647  0.2645 -0.6197  0.4296
  172MOL0     O23093   8.950   5.833   7.568  0.3258 -0.4627  0.0381
  172MOL0     C23094   8.835   5.908   7.517  0.5477 -0.2366  0.2007
  172MOL0     C23095   8.727   5.812   7.518  1.1631  0.2859 -0.4964
  172MOL0     C23096   8.591   5.870   7.466  0.1574 -0.1099 -0.5727
  172MOL0     C23097   8.498   5.750   7.464  0.8287 -0.2865 -0.5938
  172MOL0     C23098   8.357   5.799   7.433  0.3465 -0.6710  0.3170
  172MOL0     C23099   8.253   5.688   7.432  0.1936 -0.3623 -1.2179
  172MOL0     C23100   8.143   5.702   7.327 -0.2275 -0.2294  0.4646
  172MOL0     C23101   8.016   5.783   7.359  0.1650 -1.5767 -0.0867
  172MOL0     N23102   7.920   5.779   7.248 -0.5851  0.1008  0.1295
  172MOL0     C23103   7.841   5.677   7.211 -0.5296  0.6354 -0.3165
  172MOL0     C23104   7.780   5.708   7.097 -0.9198  0.0531 -0.7321
  172MOL0     C23105   7.691   5.616   7.014 -1.0483 -0.6432  0.2335
  172MOL0     C23106   7.556   5.569   7.066 -0.5845 -0.0945  0.2343
  172MOL0     C23107   7.468   5.690   7.071 -0.0838 -0.0995 -0.7222
  172MOL0     C23108   7.323   5.649   7.105  0.3056  0.5203 -0.2477
  172MOL0     O23109   7.249   5.771   7.131 -0.2311  0.1555 -0.0200
  172MOL0     C23110   7.111   5.766   7.158  0.1227 -0.5402  0.5102
  172MOL0     C23111   7.035   5.865   7.094  0.3100  1.0764 -0.1864
  172MOL0     C23112   6.896   5.876   7.119 -0.5004  0.3010 -0.1877
  172MOL0     C23113   6.839   6.003   7.050 -0.2485  0.0359  0.0830
  172MOL0     C23114   6.837   5.785   7.204 -0.3036 -0.0491 -0.4193
  172MOL0     C23115   6.689   5.780   7.250  0.3079  0.4971 -0.0604
  172MOL0     O23116   6.661   5.729   7.375 -0.2393 -0.6810  0.5719
  172MOL0     C23117   6.522   5.742   7.418 -0.1747  0.0966  0.5331
  172MOL0     C23118   6.444   5.620   7.426 -1.1220 -0.8701 -0.4107
  172MOL0     C23119   6.313   5.615   7.458  0.2565 -0.5195  1.1560
  172MOL0     C23120   6.245   5.737   7.478 -0.7264  0.4427 -0.2379
  172MOL0     O23121   6.106   5.760   7.483  0.2237  0.1938  0.4650
  172MOL0     C23122   6.010   5.661   7.441  0.1405  0.6867  0.9835
  172MOL0     C23123   6.005   5.655   7.292 -0.1355 -0.5811  0.6194
  172MOL0     C23124   5.934   5.782   7.229  0.7832 -0.0353 -0.3442
  172MOL0     C23125   5.910   5.774   7.081 -0.4039  0.5600  0.2747
  172MOL0     C23126   5.964   5.906   7.013 -0.3385 -0.5130  0.0601
  172MOL0     C23127   5.917   5.893   6.860  0.8859 -1.0636  0.3385
  172MOL0     C23128   6.002   5.987   6.775  0.0414  0.2033  0.1909
  172MOL0     C23129   5.942   6.129   6.787  0.2564 -0.3007  0.3001
  172MOL0    Cl23130   6.038   6.265   6.709 -0.1860 -0.0406  0.2547
  172MOL0     C23131   6.318   5.847   7.475 -0.4944 -0.1658 -0.1678
  172MOL0     C23132   6.457   5.857   7.463  0.3458  0.8628  0.4982
  172MOL0     O23133   6.606   5.835   7.178  0.3942 -0.6788 -1.0733
  172MOL0     C23134   6.910   5.677   7.257 -0.3440  0.6687  0.3718
  172MOL0     C23135   7.044   5.664   7.225  0.1345 -0.4487 -1.0892
  172MOL0     N23136   7.824   5.833   7.068 -0.8222 -0.0618  0.3069
  172MOL0     N23137   7.914   5.869   7.153  0.3511 -0.0917 -1.2945
  172MOL0     C23138   9.086   6.020   7.660  0.7770  0.8386 -0.5462
  172MOL0     C23139   9.205   6.055   7.731 -0.9614 -0.2946 -0.7880
  172MOL0     C23140   9.643   6.035   7.844 -0.0167 -0.4030  0.6608
  172MOL0     C23141   9.658   6.110   7.960  0.0109 -0.1405  0.0953
  172MOL0     C23142   9.781   6.134   8.020  0.7115  0.2440 -0.2596
  172MOL0     C23143   9.894   6.078   7.970 -0.4317  0.4663  0.2189
  172MOL0     O23144  10.022   6.098   8.033  0.7107  0.8293 -0.1167
  172MOL0     C23145  10.142   6.047   7.984 -0.2742 -0.0607 -0.5319
  172MOL0     C23146  10.208   6.135   7.875  0.0236 -0.1210  0.3151
  172MOL0     C23147  10.271   6.259   7.943 -0.0488  0.3284 -0.1158
  172MOL0     C23148  10.166   6.366   7.990 -0.5645  0.3749 -0.8649
  172MOL0     C23149  10.076   6.420   7.877  0.1065  0.0934 -0.0592
  172MOL0     C23150   9.998   6.445   7.784  0.2705  0.4754  1.1820
  172MOL0     C23151   9.882   6.000   7.853  0.9326 -0.4990  1.4219
  172MOL0     C23152   9.754   5.983   7.788 -0.2808  0.2409 -0.7422
  172MOL0     H23153   9.304   5.765   7.841  2.1685  1.1170 -0.5849
  172MOL0     H23154   9.097   5.682   7.701 -0.3726  0.1429 -0.7443
  172MOL0     H23155   8.803   5.991   7.581  0.3509 -0.5317  0.4891
  172MOL0     H23156   8.866   5.949   7.420  0.4361 -1.2344 -0.2710
  172MOL0     H23157   8.753   5.730   7.451 -1.8852 -0.0131 -1.4598
  172MOL0     H23158   8.725   5.768   7.618  0.5298 -0.7795 -0.9616
  172MOL0     H23159   8.559   5.955   7.526  1.8783  2.4486 -2.9934
  172MOL0     H23160   8.606   5.914   7.366 -2.1673  1.9713 -0.0879
  172MOL0     H23161   8.537   5.668   7.402  1.1549 -0.0206 -0.7471
  172MOL0     H23162   8.483   5.726   7.569  2.6699 -0.0410 -0.2312
  172MOL0     H23163   8.328   5.864   7.516  0.1208  1.0264 -1.0392
  172MOL0     H23164   8.353   5.858   7.341 -1.9651 -0.9936  0.1652
  172MOL0     H23165   8.304   5.595   7.405  0.7383 -0.7287  0.8825
  172MOL0     H23166   8.211   5.675   7.533 -1.6320 -1.2170 -2.0325
  172MOL0     H23167   8.193   5.743   7.240  0.2038  0.5216  1.0583
  172MOL0     H23168   8.110   5.598   7.316  1.5320 -0.8195  0.4278
  172MOL0     H23169   8.057   5.885   7.353 -0.1932 -1.2925  1.6440
  172MOL0     H23170   7.972   5.755   7.455 -1.5433 -1.0713 -0.6846
  172MOL0     H23171   7.838   5.578   7.256  3.5854  1.9433  3.6855
  172MOL0     H23172   7.670   5.656   6.914  1.0094 -0.9718 -0.3706
  172MOL0     H23173   7.766   5.537   7.003  0.6752  0.7655  1.3212
  172MOL0     H23174   7.563   5.500   7.150  0.8546 -0.8135 -0.4431
  172MOL0     H23175   7.525   5.498   6.989  1.4254 -1.5086  0.6475
  172MOL0     H23176   7.470   5.736   6.972 -1.2175 -2.3964 -1.9139
  172MOL0     H23177   7.499   5.764   7.145  1.1970 -1.5617  0.2807
  172MOL0     H23178   7.331   5.576   7.186  3.6215 -3.2954 -3.6250
  172MOL0     H23179   7.279   5.591   7.024 -0.1072 -0.7277  0.8333
  172MOL0     H23180   7.090   5.940   7.038 -0.5969 -0.9495 -4.1831
  172MOL0     H23181   6.757   6.037   7.113 -0.3491 -1.2179  0.6419
  172MOL0     H23182   6.922   6.075   7.047  1.7149 -2.1383 -0.8966
  172MOL0     H23183   6.808   5.981   6.947  1.5485  1.8197 -0.9304
  172MOL0     H23184   6.508   5.535   7.402 -1.7436 -1.4537 -0.0158
  172MOL0     H23185   6.255   5.524   7.467 -0.4645 -0.5642 -2.4578
  172MOL0     H23186   6.029   5.565   7.491  1.2840  1.6250  2.4260
  172MOL0     H23187   5.908   5.683   7.474 -0.1296 -1.1657  1.5482
  172MOL0     H23188   6.105   5.646   7.249 -0.7556  0.7483 -1.1926
  172MOL0     H23189   5.942   5.573   7.256 -0.5461  0.1083 -0.2669
  172MOL0     H23190   5.989   5.871   7.261 -0.9364  1.4204 -1.2081
  172MOL0     H23191   5.836   5.791   7.277  0.8421 -2.4312  0.3673
  172MOL0     H23192   5.967   5.692   7.036  1.1466  1.4324  0.5904
  172MOL0     H23193   5.806   5.747   7.062 -0.2641 -0.3337  0.7347
  172MOL0     H23194   6.073   5.912   7.021 -0.3695 -0.3001  0.3071
  172MOL0     H23195   5.919   5.990   7.066 -0.4117  0.5636 -1.6106
  172MOL0     H23196   5.940   5.796   6.815  2.0043 -0.6529 -0.0166
  172MOL0     H23197   5.810   5.914   6.859  0.8691 -1.0877 -1.4561
  172MOL0     H23198   5.988   5.950   6.673 -2.1814 -0.4537  0.6883
  172MOL0     H23199   6.106   5.986   6.809 -0.1876  1.7808  1.0576
  172MOL0     H23200   5.949   6.152   6.894 -2.1386 -0.5869  0.5679
  172MOL0     H23201   5.836   6.125   6.761  0.5871 -0.2480 -1.1334
  172MOL0     H23202   6.257   5.936   7.488  0.6564  0.4107  1.7856
  172MOL0     H23203   6.527   5.939   7.474  0.3526  1.8074 -4.4339
  172MOL0     H23204   6.868   5.606   7.327  0.5309  0.1403  0.3727
  172MOL0     H23205   7.097   5.580   7.269  0.2633 -0.3184 -0.9920
  172MOL0     H23206   9.025   6.099   7.617  1.2374  3.3311  2.9403
  172MOL0     H23207   9.238   6.158   7.741 -1.5715 -0.3296  3.4827
  172MOL0     H23208   9.565   6.137   8.008 -1.0675 -3.7147  0.2958
  172MOL0     H23209   9.776   6.188   8.114 -0.8189  1.4516 -0.9914
  172MOL0     H23210  10.209   6.047   8.071 -1.5048 -0.5472  0.4588
  172MOL0     H23211  10.136   5.945   7.945 -1.7903 -0.5253  0.7839
  172MOL0     H23212  10.133   6.170   7.803 -1.1170 -0.5284  1.2944
  172MOL0     H23213  10.281   6.072   7.823 -0.0118 -2.3580  2.7754
  172MOL0     H23214  10.344   6.301   7.874  2.3709 -3.4600 -0.1529
  172MOL0     H23215  10.337   6.220   8.021 -0.5008 -1.1174 -0.4159
  172MOL0     H23216  10.226   6.445   8.036  1.1435 -1.6861  0.6681
  172MOL0     H23217  10.102   6.338   8.074 -1.5192  4.0821 -0.1625
  172MOL0     H23218   9.930   6.454   7.700  1.2977 -3.5963 -0.3321
  172MOL0     H23219   9.963   5.949   7.804 -0.0073  0.0401 -0.8013
  172MOL0     H23220   9.741   5.922   7.699 -0.5719 -2.0895  0.7987
  173MOL0     O23221   0.193   7.872   1.462 -0.4766  0.5184  0.5075
  173MOL0     C23222   0.266   7.907   1.555  0.3362  0.6510  0.0055
  173MOL0     O23223   0.224   7.934   1.681  0.6209 -0.0338 -0.6142
  173MOL0     C23224   0.086   7.954   1.695 -1.1396  0.2892 -0.2219
  173MOL0     C23225   0.009   7.845   1.737 -0.1457 -0.6388  0.7894
  173MOL0     C23226  -0.120   7.875   1.764  0.3813  0.2038  0.0534
  173MOL0     C23227  -0.174   8.000   1.757  0.6162 -0.2520  0.5853
  173MOL0     O23228  -0.301   8.040   1.793 -0.1421 -0.4069  0.0354
  173MOL0     C23229  -0.403   7.940   1.791 -0.8079  0.4833 -0.1398
  173MOL0     C23230  -0.546   7.994   1.765  0.9421 -0.1602 -0.5060
  173MOL0     C23231  -0.585   8.076   1.895  0.8247 -0.1471 -0.4038
  173MOL0     C23232  -0.699   8.174   1.861  0.4576  0.2573 -1.1339
  173MOL0     C23233  -0.797   8.187   1.985  0.4155  0.7982  0.5357
  173MOL0     C23234  -0.927   8.267   1.967 -0.5591 -0.6997 -0.0377
  173MOL0     C23235  -0.987   8.291   2.098 -0.2385  0.3663  0.7559
  173MOL0     C23236  -1.081   8.407   2.091 -0.3956  0.8728 -0.3772
  173MOL0     N23237  -1.145   8.413   2.223  0.8854 -0.5116 -0.0139
  173MOL0     C23238  -1.139   8.515   2.311 -0.5990 -0.4523 -1.3797
  173MOL0     C23239  -1.219   8.489   2.419 -0.5777 -0.3354  0.2887
  173MOL0     C23240  -1.246   8.568   2.546 -0.1893  0.5870  0.6996
  173MOL0     C23241  -1.390   8.622   2.543  0.2167 -0.0227  0.0043
  173MOL0     C23242  -1.427   8.658   2.687  0.7882  0.5379 -0.4313
  173MOL0     C23243  -1.578   8.638   2.719  0.6017  0.5034  0.0543
  173MOL0     O23244  -1.608   8.706   2.842  0.0836 -0.4870  0.3391
  173MOL0     C23245  -1.744   8.724   2.875  0.0686  0.2990  0.3468
  173MOL0     C23246  -1.773   8.797   2.991 -0.7961  0.4021 -0.7663
  173MOL0     C23247  -1.907   8.830   3.033 -0.1662  0.1581 -0.2712
  173MOL0     C23248  -1.923   8.903   3.171  0.5582 -0.0164  0.0384
  173MOL0     C23249  -2.010   8.775   2.958  0.3484 -0.0987  0.5745
  173MOL0     C23250  -2.157   8.801   2.991 -0.9005 -0.7999 -1.2067
  173MOL0     O23251  -2.219   8.904   2.922 -0.0372 -0.5662 -0.5090
  173MOL0     C23252  -2.348   8.935   2.955  0.0547  0.2878  0.2118
  173MOL0     C23253  -2.454   8.857   2.907 -0.3878  0.1888  0.2810
  173MOL0     C23254  -2.587   8.893   2.929 -0.7437  0.5114  0.4336
  173MOL0     C23255  -2.613   8.999   3.014 -0.0961 -0.3941 -1.2357
  173MOL0     O23256  -2.736   9.044   3.043  0.3623 -0.5029 -0.3298
  173MOL0     C23257  -2.858   9.001   2.984  1.4052  0.0316 -0.7456
  173MOL0     C23258  -2.964   9.035   3.087 -0.2673  1.1813 -0.3506
  173MOL0     C23259  -3.113   9.014   3.041 -0.1856 -0.7077  0.8672
  173MOL0     C23260  -3.164   9.133   2.956  0.6700 -0.7113  0.3371
  173MOL0     C23261  -3.309   9.104   2.907 -0.3704 -0.5710 -0.9382
  173MOL0     C23262  -3.395   9.207   2.849 -0.1422 -0.1800  0.0806
  173MOL0     C23263  -3.431   9.311   2.958  0.1948  0.4970 -0.6009
  173MOL0     C23264  -3.546   9.407   2.907 -0.5519  0.6126 -0.0134
  173MOL0    Cl23265  -3.694   9.310   2.885 -0.0229  0.1946 -0.1399
  173MOL0     C23266  -2.516   9.080   3.068  0.4822  0.3857  0.3712
  173MOL0     C23267  -2.380   9.046   3.037 -0.5769  0.4382  0.4587
  173MOL0     O23268  -2.201   8.748   3.092  0.2125  0.3098 -0.4874
  173MOL0     C23269  -1.988   8.697   2.845 -0.1531 -0.3123  0.5394
  173MOL0     C23270  -1.851   8.673   2.801  0.7206  0.2101  1.0875
  173MOL0     N23271  -1.267   8.361   2.385  0.0323  0.0273  0.2859
  173MOL0     N23272  -1.236   8.321   2.270  0.2049 -0.3736  0.8104
  173MOL0     C23273  -0.103   8.112   1.712  0.5443  0.0596 -0.9566
  173MOL0     C23274   0.033   8.087   1.683  0.8287 -0.1531 -0.1522
  173MOL0     C23275   0.414   7.928   1.529 -0.3753  0.8971 -0.2780
  173MOL0     C23276   0.501   7.930   1.635  0.6400 -0.1748 -0.1715
  173MOL0     C23277   0.632   7.971   1.608  1.0880 -0.0978  0.3640
  173MOL0     C23278   0.677   7.995   1.481  0.2900  0.0357  0.1494
  173MOL0     O23279   0.804   8.033   1.459 -0.1634  1.2238 -0.0611
  173MOL0     C23280   0.883   8.065   1.575  0.0678  0.1629 -0.6220
  173MOL0     C23281   1.002   8.151   1.534 -1.4101  0.3100 -0.2157
  173MOL0     C23282   1.125   8.121   1.622  0.6350 -0.0031 -0.5070
  173MOL0     C23283   1.233   8.215   1.584 -0.8140 -0.4927  1.0111
  173MOL0     C23284   1.292   8.211   1.447  0.0493 -0.4021 -0.7378
  173MOL0     C23285   1.332   8.197   1.332 -0.0539  0.0534 -0.0071
  173MOL0     C23286   0.589   7.985   1.370  0.8158 -0.0963 -0.3697
  173MOL0     C23287   0.456   7.956   1.396 -0.9114  0.4898  0.3059
  173MOL0     H23288   0.056   7.750   1.762  1.0219 -0.4584 -0.5395
  173MOL0     H23289  -0.192   7.805   1.805  0.7387 -0.6801 -0.7718
  173MOL0     H23290  -0.378   7.882   1.702 -1.2824  0.5465 -0.3181
  173MOL0     H23291  -0.408   7.873   1.877 -1.8051 -0.9898 -1.2800
  173MOL0     H23292  -0.551   8.055   1.674 -0.1374  0.5957  0.0447
  173MOL0     H23293  -0.613   7.910   1.744  0.5480  0.3864 -1.5252
  173MOL0     H23294  -0.609   7.998   1.968 -0.1488  1.3260  0.9136
  173MOL0     H23295  -0.498   8.127   1.938  2.1765 -1.9050 -0.9002
  173MOL0     H23296  -0.665   8.271   1.824 -2.0292  1.5795 -0.2297
  173MOL0     H23297  -0.757   8.128   1.779  0.6320 -0.4141 -0.8856
  173MOL0     H23298  -0.827   8.083   2.004  0.8492  1.1782  3.8882
  173MOL0     H23299  -0.744   8.222   2.074 -1.5468  0.8505  1.7330
  173MOL0     H23300  -0.894   8.364   1.928 -0.3381 -0.8583 -0.2380
  173MOL0     H23301  -0.981   8.209   1.893 -1.2103 -0.2602  0.0789
  173MOL0     H23302  -1.051   8.206   2.123 -1.6184  1.7135  2.0200
  173MOL0     H23303  -0.925   8.329   2.180 -2.0331 -0.5059  2.6128
  173MOL0     H23304  -1.157   8.381   2.016 -1.4373  2.4364  0.0886
  173MOL0     H23305  -1.042   8.507   2.073 -0.1225  0.5158 -1.9424
  173MOL0     H23306  -1.089   8.612   2.304  1.0604 -0.9918  1.2738
  173MOL0     H23307  -1.238   8.506   2.635  2.1878  0.1095  0.2096
  173MOL0     H23308  -1.183   8.657   2.553 -0.1335  0.5662  0.4695
  173MOL0     H23309  -1.464   8.549   2.509  0.2294  0.2275 -0.5611
  173MOL0     H23310  -1.399   8.709   2.477 -2.9455  1.2450  1.8644
  173MOL0     H23311  -1.397   8.761   2.706 -0.2165  0.7628  0.0324
  173MOL0     H23312  -1.366   8.600   2.757 -1.7827 -3.9220 -1.4538
  173MOL0     H23313  -1.609   8.534   2.725  2.7882 -0.1103  1.4177
  173MOL0     H23314  -1.637   8.696   2.647 -0.3025 -1.6150 -0.9857
  173MOL0     H23315  -1.692   8.815   3.061 -1.0344 -3.1378  0.6580
  173MOL0     H23316  -2.010   8.969   3.174 -0.8911 -1.8686  2.0977
  173MOL0     H23317  -1.943   8.834   3.254  0.9613 -0.5155 -0.2744
  173MOL0     H23318  -1.834   8.959   3.201  0.1271 -0.5680  2.6301
  173MOL0     H23319  -2.435   8.760   2.861 -1.3611 -0.0531  0.3592
  173MOL0     H23320  -2.660   8.825   2.887 -0.8189  0.1697  1.0933
  173MOL0     H23321  -2.889   9.062   2.899  0.1017  0.6554  0.1477
  173MOL0     H23322  -2.858   8.895   2.958  0.8038 -0.0890 -0.2830
  173MOL0     H23323  -2.940   8.977   3.177 -1.9787  0.5714 -0.2480
  173MOL0     H23324  -2.957   9.139   3.122  0.1584  1.9289 -2.5497
  173MOL0     H23325  -3.185   9.014   3.123 -1.8731  2.2561 -0.4267
  173MOL0     H23326  -3.112   8.919   2.987 -0.5335 -0.2666  0.0692
  173MOL0     H23327  -3.172   9.229   3.007 -0.2011 -1.3258  1.3831
  173MOL0     H23328  -3.094   9.140   2.871  0.7922  0.6751  0.5264
  173MOL0     H23329  -3.370   9.054   2.983 -1.5457  2.2519  0.1230
  173MOL0     H23330  -3.298   9.022   2.835  3.2589 -2.0814  1.0736
  173MOL0     H23331  -3.339   9.247   2.764 -0.9731 -0.1886 -0.4780
  173MOL0     H23332  -3.485   9.152   2.820 -0.0286 -0.0987 -0.4429
  173MOL0     H23333  -3.337   9.364   2.980  0.1315  1.2478 -2.0288
  173MOL0     H23334  -3.463   9.260   3.049 -0.9143 -0.3907 -1.4671
  173MOL0     H23335  -3.498   9.446   2.817  2.3185 -0.8731  0.7598
  173MOL0     H23336  -3.558   9.482   2.986  0.3151 -0.8844  1.6187
  173MOL0     H23337  -2.546   9.168   3.124  0.4248 -0.7253  2.1870
  173MOL0     H23338  -2.302   9.114   3.071 -1.4264  0.4830  2.4439
  173MOL0     H23339  -2.066   8.656   2.782 -2.0417 -0.7361  3.0191
  173MOL0     H23340  -1.830   8.610   2.715 -1.5005  0.5440  0.2305
  173MOL0     H23341  -0.151   8.208   1.699 -2.2018 -1.0090  0.3998
  173MOL0     H23342   0.091   8.177   1.667 -1.1354  0.6774 -3.7562
  173MOL0     H23343   0.470   7.906   1.736  0.8957  1.2717  0.2864
  173MOL0     H23344   0.692   7.973   1.698  2.3552 -2.6327 -0.3475
  173MOL0     H23345   0.836   8.130   1.649  1.6916  0.4104  0.2480
  173MOL0     H23346   0.908   7.968   1.618 -1.6466 -0.3123 -0.6104
  173MOL0     H23347   0.981   8.258   1.531 -0.9500  0.4652  1.1192
  173MOL0     H23348   1.025   8.119   1.432 -3.0771  0.0777 -0.5492
  173MOL0     H23349   1.160   8.019   1.604 -0.4201 -1.1159  3.0099
  173MOL0     H23350   1.091   8.133   1.725  1.9364 -1.0542  0.0683
  173MOL0     H23351   1.316   8.205   1.655  0.7543  1.6245 -0.3834
  173MOL0     H23352   1.202   8.319   1.592 -1.2589 -0.4916 -0.5206
  173MOL0     H23353   1.377   8.175   1.238  0.8555 -2.6155  0.9562
  173MOL0     H23354   0.635   8.001   1.273 -0.0162  3.4952 -0.3144
  173MOL0     H23355   0.382   7.955   1.316 -0.9654 -0.0325  0.3548
  174MOL0     O23356   1.300   5.932   0.955  0.3700 -0.2343 -0.4955
  174MOL0     C23357   1.182   5.958   0.973 -0.2161 -0.4119 -0.4547
  174MOL0     O23358   1.100   6.030   0.883  0.2365  0.2240  0.1091
  174MOL0     C23359   1.147   6.104   0.775 -0.2793 -0.5673  0.1981
  174MOL0     C23360   1.279   6.106   0.722 -0.1232 -0.1134 -0.2018
  174MOL0     C23361   1.309   6.175   0.603 -0.7006  0.1743  1.8076
  174MOL0     C23362   1.209   6.237   0.529  0.2144  0.3421 -0.1244
  174MOL0     O23363   1.250   6.297   0.414 -0.2789 -0.2161  1.1332
  174MOL0     C23364   1.245   6.207   0.297 -0.4969  0.1038 -0.3047
  174MOL0     C23365   1.266   6.290   0.173 -0.5001  0.9067  0.2321
  174MOL0     C23366   1.225   6.438   0.178 -0.3863  0.3405  0.1114
  174MOL0     C23367   1.077   6.458   0.211  0.1684  0.3539  0.9371
  174MOL0     C23368   1.030   6.607   0.186  0.6126 -0.4452  1.7080
  174MOL0     C23369   0.882   6.615   0.216 -0.6350 -0.6059 -0.1768
  174MOL0     C23370   0.815   6.744   0.161  0.4782 -0.6634 -0.0244
  174MOL0     C23371   0.665   6.747   0.191 -0.1244  0.4172  0.7603
  174MOL0     N23372   0.609   6.877   0.197 -0.6881  0.3764 -0.2720
  174MOL0     C23373   0.498   6.921   0.261  0.4139  0.1384  0.4958
  174MOL0     C23374   0.484   7.057   0.226 -0.4163 -0.2336  0.0412
  174MOL0     C23375   0.397   7.156   0.279  0.1229  0.2236  0.1649
  174MOL0     C23376   0.258   7.116   0.230 -0.1425 -0.1564 -0.1709
  174MOL0     C23377   0.158   7.186   0.317 -0.4120 -0.3175 -0.8200
  174MOL0     C23378   0.022   7.198   0.254  0.3654 -0.1151 -0.0302
  174MOL0     O23379  -0.060   7.288   0.338 -0.6263 -0.7783 -0.4650
  174MOL0     C23380  -0.194   7.269   0.341  0.0483 -0.6200  0.2954
  174MOL0     C23381  -0.273   7.273   0.224  0.1361 -0.5248 -0.9265
  174MOL0     C23382  -0.412   7.268   0.227  0.1420  0.5321 -0.4559
  174MOL0     C23383  -0.485   7.310   0.102  0.4019 -0.8658 -0.1257
  174MOL0     C23384  -0.477   7.241   0.351 -1.1307  0.0390  0.2754
  174MOL0     C23385  -0.618   7.249   0.368  0.5499  0.3199 -1.2655
  174MOL0     O23386  -0.664   7.342   0.450  1.1603  0.1773  0.0503
  174MOL0     C23387  -0.790   7.316   0.507  0.5726  0.7087  0.1089
  174MOL0     C23388  -0.858   7.192   0.521 -0.6686 -0.8230  0.7180
  174MOL0     C23389  -0.980   7.187   0.581 -0.7384  0.0135 -0.1025
  174MOL0     C23390  -1.050   7.296   0.623  0.2909  0.1271  0.0732
  174MOL0     O23391  -1.169   7.295   0.697 -0.0616  0.0671  0.5599
  174MOL0     C23392  -1.236   7.171   0.715 -0.0975 -0.1707  0.4875
  174MOL0     C23393  -1.361   7.198   0.796  1.2833 -0.6311  0.3784
  174MOL0     C23394  -1.429   7.062   0.828 -0.4521 -1.2555  0.0703
  174MOL0     C23395  -1.538   7.050   0.725 -0.0043 -0.4626 -0.7154
  174MOL0     C23396  -1.615   6.922   0.751 -0.9356 -0.9867 -0.4676
  174MOL0     C23397  -1.732   6.903   0.645 -0.8019  0.7702 -0.3001
  174MOL0     C23398  -1.794   6.770   0.647 -0.1747  0.1632  1.0406
  174MOL0     C23399  -1.885   6.748   0.526  0.1544  0.8984  0.2018
  174MOL0    Cl23400  -1.949   6.588   0.549  0.1314  0.1314 -0.2280
  174MOL0     C23401  -0.995   7.411   0.599  0.0608 -0.8988 -1.1096
  174MOL0     C23402  -0.863   7.423   0.545 -0.7233  0.2150 -0.8723
  174MOL0     O23403  -0.689   7.181   0.296 -0.6844  0.0956 -0.3283
  174MOL0     C23404  -0.397   7.231   0.465  0.3684  0.3667  0.1473
  174MOL0     C23405  -0.256   7.248   0.463  0.2519  0.1537  0.8135
  174MOL0     N23406   0.580   7.091   0.131 -0.3512  0.0209 -0.3895
  174MOL0     N23407   0.643   6.977   0.109 -0.1340 -0.3087  0.2415
  174MOL0     C23408   1.073   6.221   0.566 -0.6716  0.2832 -0.2957
  174MOL0     C23409   1.050   6.161   0.694  0.5236  0.3531  0.3449
  174MOL0     C23410   1.129   5.890   1.102 -0.3256  0.4918  0.7979
  174MOL0     C23411   1.205   5.807   1.183  0.2615 -0.0298 -0.0635
  174MOL0     C23412   1.151   5.738   1.288  0.1982 -0.3710 -0.1394
  174MOL0     C23413   1.011   5.743   1.317 -0.2532 -0.3800  0.8403
  174MOL0     O23414   0.933   5.659   1.389 -0.6056 -0.0637  0.1230
  174MOL0     C23415   0.952   5.684   1.535 -0.4037 -0.1618 -0.2815
  174MOL0     C23416   0.821   5.662   1.614 -0.6496 -0.0945 -0.2449
  174MOL0     C23417   0.713   5.767   1.585 -1.3031  0.8971  0.5895
  174MOL0     C23418   0.598   5.699   1.497  0.1975 -0.4717  0.2020
  174MOL0     C23419   0.512   5.802   1.435 -0.7180 -0.4181 -0.5013
  174MOL0     C23420   0.440   5.895   1.399 -0.4619  0.4191 -0.3337
  174MOL0     C23421   0.934   5.805   1.217  0.5698  0.5111 -0.0361
  174MOL0     C23422   0.987   5.876   1.110  0.3485 -0.0888 -0.5237
  174MOL0     H23423   1.364   6.061   0.772 -0.3129 -1.9920 -1.4869
  174MOL0     H23424   1.412   6.200   0.576 -0.8710 -0.1703  0.8044
  174MOL0     H23425   1.323   6.131   0.303 -0.6394 -0.0204 -0.0471
  174MOL0     H23426   1.143   6.167   0.305 -0.4254  0.1066  0.6375
  174MOL0     H23427   1.376   6.290   0.171 -0.4032  0.9973  2.5597
  174MOL0     H23428   1.217   6.232   0.094  1.1808 -0.0652 -0.1458
  174MOL0     H23429   1.289   6.488   0.252 -0.0576 -0.2965  0.2696
  174MOL0     H23430   1.235   6.486   0.081 -3.3198  0.2024 -0.3431
  174MOL0     H23431   1.014   6.394   0.149  1.2631 -0.4630  0.6315
  174MOL0     H23432   1.056   6.438   0.316 -0.1628  2.0107  1.2235
  174MOL0     H23433   1.086   6.684   0.239 -2.7278  2.8668  0.7988
  174MOL0     H23434   1.052   6.627   0.081  1.8514  1.4032  2.2762
  174MOL0     H23435   0.827   6.534   0.168 -1.7934 -1.0554  1.7987
  174MOL0     H23436   0.870   6.602   0.324  0.3946  0.2288  0.0553
  174MOL0     H23437   0.861   6.834   0.202  0.5595 -0.6910 -0.0532
  174MOL0     H23438   0.837   6.759   0.055  3.2601 -0.2701  0.5189
  174MOL0     H23439   0.636   6.691   0.280 -1.7965  2.1331  1.3538
  174MOL0     H23440   0.602   6.692   0.120 -0.7986  0.4108  1.3556
  174MOL0     H23441   0.429   6.869   0.327  0.2333  0.1797  0.3367
  174MOL0     H23442   0.412   7.168   0.387 -0.4520  3.0787  0.0174
  174MOL0     H23443   0.427   7.253   0.238  0.2697 -0.8947 -2.5695
  174MOL0     H23444   0.243   7.007   0.232 -0.2671 -0.1272  0.7054
  174MOL0     H23445   0.243   7.153   0.128 -1.7548 -3.2786 -1.2150
  174MOL0     H23446   0.192   7.283   0.356 -1.5107 -1.1362  2.5322
  174MOL0     H23447   0.140   7.135   0.412  0.4919 -1.6610 -1.3304
  174MOL0     H23448  -0.019   7.096   0.257  2.3474 -1.0875 -2.1034
  174MOL0     H23449   0.041   7.238   0.154  2.7987  0.5571  0.6251
  174MOL0     H23450  -0.209   7.295   0.140  1.4034  2.3416  0.6318
  174MOL0     H23451  -0.423   7.371   0.037 -1.2318 -1.8412 -2.7810
  174MOL0     H23452  -0.535   7.223   0.058 -0.0032 -0.5986 -0.2037
  174MOL0     H23453  -0.574   7.371   0.121  0.3939 -0.8391 -0.2541
  174MOL0     H23454  -0.811   7.095   0.513  0.9702 -0.0421  0.6358
  174MOL0     H23455  -1.015   7.087   0.605  3.0546 -1.1293  1.3416
  174MOL0     H23456  -1.266   7.124   0.621  1.2028  0.8579 -0.4689
  174MOL0     H23457  -1.180   7.097   0.773 -2.3508 -0.3313  2.6651
  174MOL0     H23458  -1.344   7.249   0.891 -4.2742  0.1355  1.3172
  174MOL0     H23459  -1.436   7.256   0.740  1.5237 -0.5730  0.1149
  174MOL0     H23460  -1.476   7.076   0.926 -0.5129  0.7981 -0.2089
  174MOL0     H23461  -1.365   6.973   0.829 -1.9212 -2.3695 -1.0335
  174MOL0     H23462  -1.605   7.135   0.740  0.2820 -0.4500  0.5766
  174MOL0     H23463  -1.489   7.055   0.627  0.7584  4.4204 -0.3070
  174MOL0     H23464  -1.662   6.930   0.850 -2.0057  1.3152 -1.0941
  174MOL0     H23465  -1.544   6.840   0.739  3.8141  2.8898 -2.1338
  174MOL0     H23466  -1.808   6.978   0.667  1.1057  2.2265  1.9787
  174MOL0     H23467  -1.694   6.911   0.543 -0.6159  0.0246 -0.2973
  174MOL0     H23468  -1.863   6.753   0.730 -0.0755 -2.1254  0.7386
  174MOL0     H23469  -1.721   6.688   0.642 -1.7321 -1.2249 -0.5558
  174MOL0     H23470  -1.832   6.747   0.431 -1.0857 -0.2557 -0.5078
  174MOL0     H23471  -1.962   6.826   0.523 -2.4273 -1.5192 -1.2798
  174MOL0     H23472  -1.053   7.501   0.620 -3.7607 -3.1147 -1.2728
  174MOL0     H23473  -0.820   7.523   0.543 -2.4180  0.9733 -0.9518
  174MOL0     H23474  -0.441   7.213   0.563 -1.5571 -0.6570 -0.8523
  174MOL0     H23475  -0.214   7.249   0.563 -0.2017  1.9529  1.0325
  174MOL0     H23476   0.997   6.265   0.504 -1.6386 -1.5658 -0.5037
  174MOL0     H23477   0.949   6.159   0.735  1.6837  1.2051  3.5701
  174MOL0     H23478   1.313   5.805   1.175  0.2484 -0.7888 -0.0530
  174MOL0     H23479   1.222   5.695   1.359 -3.1460 -0.6670  3.3379
  174MOL0     H23480   1.030   5.620   1.577  0.5448  2.1719  1.7671
  174MOL0     H23481   0.976   5.791   1.546 -0.8088 -0.0226 -0.7055
  174MOL0     H23482   0.852   5.673   1.719  1.1734 -5.1104 -0.0146
  174MOL0     H23483   0.784   5.560   1.604 -2.3434  0.5050 -0.3982
  174MOL0     H23484   0.768   5.835   1.520 -0.3312 -1.1206 -0.8266
  174MOL0     H23485   0.681   5.834   1.665  2.3266  3.1804  0.3265
  174MOL0     H23486   0.538   5.633   1.561 -0.3826 -0.0341  0.1051
  174MOL0     H23487   0.636   5.639   1.414  0.9626  1.2735 -0.7614
  174MOL0     H23488   0.383   5.977   1.359  1.5646  1.2516 -1.6994
  174MOL0     H23489   0.826   5.796   1.223  0.6981 -4.4496 -0.9209
  174MOL0     H23490   0.920   5.924   1.039 -1.4859 -0.5024  0.8660
  175MOL0     O23491   5.255   7.823  11.085 -0.0486 -0.6185  0.4981
  175MOL0     C23492   5.299   7.843  10.970  0.5961 -0.0036  0.2084
  175MOL0     O23493   5.226   7.840  10.856  0.3238 -0.3176  0.2876
  175MOL0     C23494   5.089   7.799  10.863  0.3338 -0.7884 -0.0971
  175MOL0     C23495   5.002   7.863  10.777  0.5652  0.2541 -0.2461
  175MOL0     C23496   4.869   7.821  10.762 -0.2194 -0.5446 -0.2259
  175MOL0     C23497   4.818   7.719  10.850 -0.2462 -0.3652 -0.3984
  175MOL0     O23498   4.692   7.670  10.847  0.0440 -0.1195 -0.4264
  175MOL0     C23499   4.603   7.708  10.732 -0.2581  0.5866 -0.6519
  175MOL0     C23500   4.478   7.621  10.728 -0.3885  0.1417  0.1131
  175MOL0     C23501   4.385   7.645  10.609 -0.1326  0.1967 -0.6397
  175MOL0     C23502   4.265   7.548  10.622  0.5503  0.1544 -0.0556
  175MOL0     C23503   4.182   7.553  10.495 -0.4650 -0.0999  0.0870
  175MOL0     C23504   4.058   7.455  10.515  0.3216  0.7037  0.5057
  175MOL0     C23505   3.975   7.425  10.390 -0.5499 -0.5055 -0.0686
  175MOL0     C23506   3.830   7.393  10.422  0.3006  0.8159  0.2027
  175MOL0     N23507   3.764   7.341  10.303 -0.2099 -1.0976 -0.5280
  175MOL0     C23508   3.771   7.395  10.180  0.3698 -0.6792  0.3282
  175MOL0     C23509   3.689   7.323  10.098  1.0453 -0.1809 -1.2627
  175MOL0     C23510   3.645   7.328   9.954 -0.1793  0.3219 -0.1406
  175MOL0     C23511   3.504   7.387   9.947  0.6118 -0.4996 -0.3117
  175MOL0     C23512   3.452   7.399   9.800 -0.0615 -0.2838 -0.7309
  175MOL0     C23513   3.315   7.453   9.793 -0.6162  0.6764  0.4778
  175MOL0     O23514   3.236   7.360   9.705 -0.4683  0.2184 -1.1684
  175MOL0     C23515   3.102   7.368   9.723  0.0784  0.6835  0.5442
  175MOL0     C23516   3.030   7.480   9.774 -0.7203  0.5114  0.4307
  175MOL0     C23517   2.894   7.490   9.778  0.3676  0.1489 -0.4190
  175MOL0     C23518   2.837   7.617   9.840  0.3508 -0.0312 -0.0597
  175MOL0     C23519   2.824   7.381   9.729  0.5162  0.5346  0.3186
  175MOL0     C23520   2.673   7.375   9.745  0.3638 -0.4455 -0.6036
  175MOL0     O23521   2.606   7.492   9.752 -0.1751  0.2638  0.0657
  175MOL0     C23522   2.466   7.504   9.770  0.5623  0.6568  0.4847
  175MOL0     C23523   2.376   7.425   9.698  0.2194 -0.5208  0.5465
  175MOL0     C23524   2.238   7.444   9.718  0.1182  0.7633 -0.2735
  175MOL0     C23525   2.192   7.546   9.805 -0.0817  0.8242  0.5129
  175MOL0     O23526   2.058   7.573   9.844 -0.2133  0.2729  0.5294
  175MOL0     C23527   1.941   7.505   9.791 -0.3482 -0.1259  0.1289
  175MOL0     C23528   1.820   7.559   9.862 -0.4000  0.3784  1.1768
  175MOL0     C23529   1.695   7.485   9.824  0.6431 -0.2996  0.0293
  175MOL0     C23530   1.601   7.486   9.944 -0.6296  0.0252  1.0316
  175MOL0     C23531   1.452   7.444   9.919 -0.3807  0.2723 -0.0268
  175MOL0     C23532   1.426   7.304   9.850  0.9669 -0.4377 -0.4709
  175MOL0     C23533   1.273   7.300   9.831 -0.3660 -0.5466 -0.7449
  175MOL0     C23534   1.251   7.206   9.716  0.2532 -0.3378 -0.8327
  175MOL0    Cl23535   1.072   7.170   9.710  0.2431 -0.1306 -0.1075
  175MOL0     C23536   2.289   7.629   9.867  1.5379  0.1210  0.4559
  175MOL0     C23537   2.423   7.608   9.850 -1.5688 -0.5278 -0.4390
  175MOL0     O23538   2.620   7.264   9.738  0.1351 -0.0868 -0.1759
  175MOL0     C23539   2.889   7.265   9.685  0.1197 -0.1082  0.2907
  175MOL0     C23540   3.023   7.258   9.676  0.0531 -0.3030 -0.2755
  175MOL0     N23541   3.652   7.215  10.174  0.3732  0.1419 -0.6868
  175MOL0     N23542   3.708   7.223  10.292 -0.0099 -0.6088  0.3985
  175MOL0     C23543   4.897   7.660  10.948 -0.4284 -0.4210  0.1623
  175MOL0     C23544   5.037   7.699  10.950  0.0965  0.0872  0.2189
  175MOL0     C23545   5.441   7.888  10.949  1.1447  0.5125 -0.7356
  175MOL0     C23546   5.518   7.929  11.060 -0.3468 -0.2714 -0.5900
  175MOL0     C23547   5.650   7.961  11.045 -0.5646 -0.6031  0.4149
  175MOL0     C23548   5.707   7.952  10.921 -0.7495 -0.0733 -1.1556
  175MOL0     O23549   5.839   7.983  10.894  0.1738  0.3188  0.6470
  175MOL0     C23550   5.929   8.017  11.004  0.0351 -1.9882 -0.8310
  175MOL0     C23551   6.083   8.034  10.972 -0.4018 -0.9681 -0.7902
  175MOL0     C23552   6.151   7.911  10.905  0.9993 -0.2302 -0.5616
  175MOL0     C23553   6.186   7.941  10.761  0.0202 -0.1978 -0.2357
  175MOL0     C23554   6.285   8.052  10.753 -0.1310 -0.0117 -0.8417
  175MOL0     C23555   6.355   8.143  10.758 -0.6094  0.3817  0.6059
  175MOL0     C23556   5.628   7.927  10.809  0.0782 -0.2825  0.4521
  175MOL0     C23557   5.497   7.885  10.821 -0.2853  0.0815  0.8147
  175MOL0     H23558   5.041   7.933  10.704  1.1838  1.3400  1.0824
  175MOL0     H23559   4.811   7.882  10.694  0.0260 -1.3887 -1.2293
  175MOL0     H23560   4.575   7.813  10.746 -0.0346  0.4774  0.7619
  175MOL0     H23561   4.665   7.694  10.643  0.1921 -0.1378 -0.2332
  175MOL0     H23562   4.500   7.515  10.712 -0.7992  0.0920 -0.1497
  175MOL0     H23563   4.429   7.634  10.824  2.2059  0.0866  1.5309
  175MOL0     H23564   4.344   7.746  10.609  1.3181  0.8126 -0.5431
  175MOL0     H23565   4.432   7.635  10.511 -0.1052 -1.3924 -0.4973
  175MOL0     H23566   4.295   7.443  10.625 -0.6395 -0.4885 -4.2816
  175MOL0     H23567   4.212   7.569  10.716  0.2598  0.1413 -0.2151
  175MOL0     H23568   4.160   7.660  10.486  3.8536  1.1967  1.8798
  175MOL0     H23569   4.243   7.536  10.406  0.0065 -0.3860  0.4602
  175MOL0     H23570   4.102   7.362  10.551  0.3029  1.1110  1.6319
  175MOL0     H23571   3.997   7.486  10.600  1.3943 -1.0200  1.9906
  175MOL0     H23572   3.983   7.516  10.330 -0.1278  0.6677  1.6900
  175MOL0     H23573   4.031   7.346  10.340  1.3267  0.7043  0.0362
  175MOL0     H23574   3.779   7.483  10.456 -1.1701  0.7448 -1.6239
  175MOL0     H23575   3.821   7.326  10.508  3.6041 -1.0984 -0.7538
  175MOL0     H23576   3.840   7.475  10.156  1.2771 -1.3011  0.8125
  175MOL0     H23577   3.714   7.388   9.894  0.6383  0.0482  0.4973
  175MOL0     H23578   3.645   7.227   9.913 -0.7581  0.6902 -1.0625
  175MOL0     H23579   3.507   7.483   9.998 -0.5638 -1.4128  1.5840
  175MOL0     H23580   3.433   7.332  10.010 -0.1900  1.5992  0.7034
  175MOL0     H23581   3.452   7.298   9.758 -0.6689 -0.2493 -0.8115
  175MOL0     H23582   3.524   7.456   9.741  1.2349 -0.7746  0.3152
  175MOL0     H23583   3.298   7.554   9.755  1.1506  0.2582 -1.6081
  175MOL0     H23584   3.279   7.457   9.896 -2.5199  3.9821 -0.1780
  175MOL0     H23585   3.090   7.562   9.812  0.8934  0.3867 -1.6698
  175MOL0     H23586   2.910   7.686   9.883  0.8372 -0.4249 -0.2510
  175MOL0     H23587   2.763   7.656   9.771 -0.8009  0.1462  1.2243
  175MOL0     H23588   2.774   7.594   9.927  0.4721 -1.0221 -0.2199
  175MOL0     H23589   2.407   7.356   9.621 -3.1696 -0.4688 -1.0810
  175MOL0     H23590   2.162   7.378   9.678  2.6366 -1.6070 -1.4029
  175MOL0     H23591   1.922   7.529   9.686 -1.4494  0.6510  0.4916
  175MOL0     H23592   1.953   7.397   9.805 -2.3749 -0.2920  0.8804
  175MOL0     H23593   1.833   7.549   9.971  3.1929 -1.0270  0.7438
  175MOL0     H23594   1.810   7.665   9.839 -1.9974  0.0748  0.3131
  175MOL0     H23595   1.711   7.378   9.806 -0.1045 -0.4145 -0.0029
  175MOL0     H23596   1.643   7.536   9.743 -1.0376  0.3475  1.4473
  175MOL0     H23597   1.634   7.419  10.023 -0.9364 -0.8553  0.4281
  175MOL0     H23598   1.591   7.582   9.995 -1.5272 -0.1782  1.2574
  175MOL0     H23599   1.403   7.521   9.859 -2.9177  0.4388  2.1025
  175MOL0     H23600   1.413   7.447  10.021  3.2851  2.8372  1.5262
  175MOL0     H23601   1.476   7.297   9.753  1.2536 -1.7645 -0.2572
  175MOL0     H23602   1.459   7.226   9.920  0.7880  1.0652  1.3481
  175MOL0     H23603   1.235   7.402   9.828  0.7904  0.0747  2.4678
  175MOL0     H23604   1.232   7.246   9.916  1.5527 -2.8800 -1.1919
  175MOL0     H23605   1.314   7.118   9.733 -0.1874 -0.0813  2.9347
  175MOL0     H23606   1.278   7.260   9.625 -0.0978  2.2168  0.4829
  175MOL0     H23607   2.247   7.705   9.932  2.0012  2.1817 -1.5612
  175MOL0     H23608   2.486   7.677   9.904 -2.6423  0.4906 -0.4577
  175MOL0     H23609   2.832   7.179   9.651 -0.8476 -0.6076  2.9108
  175MOL0     H23610   3.072   7.167   9.644 -0.1097 -0.7671  0.7377
  175MOL0     H23611   4.870   7.576  11.012 -0.8491 -0.8972 -0.6209
  175MOL0     H23612   5.094   7.642  11.023  1.2303  1.3677  0.3888
  175MOL0     H23613   5.474   7.949  11.158 -1.5502 -0.6246 -1.0407
  175MOL0     H23614   5.707   7.972  11.137 -0.5311 -0.6354  0.3978
  175MOL0     H23615   5.899   8.112  11.048 -1.3617 -1.5703 -2.5562
  175MOL0     H23616   5.925   7.935  11.077 -0.6489 -0.5967  0.7506
  175MOL0     H23617   6.139   8.042  11.065  0.1072 -1.2524 -1.0637
  175MOL0     H23618   6.102   8.128  10.920  0.9487  0.7506  2.5279
  175MOL0     H23619   6.080   7.828  10.904 -0.1539  0.5963  2.3689
  175MOL0     H23620   6.246   7.887  10.953  0.4469 -0.1930  0.5850
  175MOL0     H23621   6.096   7.962  10.703 -0.6906 -0.3166  0.7934
  175MOL0     H23622   6.235   7.852  10.719  1.2578  1.5689 -2.8039
  175MOL0     H23623   6.428   8.217  10.785 -2.0419  1.7700  0.7880
  175MOL0     H23624   5.682   7.924  10.715  0.1924  2.3987  0.3393
  175MOL0     H23625   5.451   7.841  10.733 -0.1590 -2.2011  1.8238
  176MOL0     O23626   3.561  10.489   5.460  0.2241 -0.3852 -0.1066
  176MOL0     C23627   3.605  10.405   5.540  0.4521 -1.3931  1.0106
  176MOL0     O23628   3.532  10.321   5.616  0.3714 -0.6256  0.3328
  176MOL0     C23629   3.398  10.327   5.595  0.1654  0.0940 -1.0413
  176MOL0     C23630   3.323  10.440   5.625 -0.0626 -0.8664  1.4424
  176MOL0     C23631   3.188  10.454   5.578  0.2231 -0.7351 -0.6426
  176MOL0     C23632   3.123  10.340   5.529 -0.0206  0.3251  0.3346
  176MOL0     O23633   2.987  10.332   5.506 -0.5412 -0.0804 -0.0526
  176MOL0     C23634   2.897  10.446   5.525 -0.2289 -0.7124  0.2058
  176MOL0     C23635   2.753  10.413   5.481 -0.7834  0.2390  0.3299
  176MOL0     C23636   2.702  10.294   5.547 -0.0391  0.5494 -0.0207
  176MOL0     C23637   2.568  10.250   5.495  0.3134  0.6729  0.4083
  176MOL0     C23638   2.495  10.169   5.609  0.3206 -0.0888 -0.2268
  176MOL0     C23639   2.368  10.100   5.555 -0.3091  0.3215  0.3070
  176MOL0     C23640   2.278  10.033   5.660  0.7011  0.1275  0.6957
  176MOL0     C23641   2.147   9.972   5.618  0.0790  1.3572 -0.0116
  176MOL0     N23642   2.035  10.058   5.591 -0.4109  0.0568 -0.3272
  176MOL0     C23643   1.907  10.047   5.643  0.3890 -0.7439 -0.2673
  176MOL0     C23644   1.846  10.160   5.600 -0.9325  0.0573  0.1938
  176MOL0     C23645   1.702  10.203   5.609  0.5348  0.6909 -0.3462
  176MOL0     C23646   1.684  10.318   5.699 -0.1803 -0.8042 -0.2912
  176MOL0     C23647   1.543  10.366   5.712  0.6147  0.2050  0.6757
  176MOL0     C23648   1.450  10.261   5.781  0.0633  0.0471  0.9382
  176MOL0     O23649   1.422  10.167   5.678  0.0799  0.2274  0.2196
  176MOL0     C23650   1.313  10.156   5.598  0.3526 -0.2126 -0.5884
  176MOL0     C23651   1.207  10.245   5.597  0.0259  0.6903 -0.2692
  176MOL0     C23652   1.100  10.236   5.507 -0.3062 -1.0985 -1.0411
  176MOL0     C23653   0.989  10.342   5.537  0.5315  1.1124 -0.1902
  176MOL0     C23654   1.094  10.133   5.418  0.9250  0.7609 -0.7398
  176MOL0     C23655   0.976  10.110   5.336  0.6217  0.1488 -0.1061
  176MOL0     O23656   0.927  10.217   5.256  0.0149 -0.6057  0.2462
  176MOL0     C23657   0.800  10.201   5.194 -0.6728 -0.3359  0.3245
  176MOL0     C23658   0.805  10.173   5.068  0.2133  0.7473 -0.1621
  176MOL0     C23659   0.693  10.154   4.992  0.4580  0.7804 -0.1260
  176MOL0     C23660   0.563  10.170   5.052  0.3569 -0.6144 -0.0869
  176MOL0     O23661   0.456  10.165   4.970  0.0188  0.5384  0.7330
  176MOL0     C23662   0.335  10.130   5.025  1.2411  0.4250 -0.4162
  176MOL0     C23663   0.240  10.099   4.916 -1.1539 -0.9744 -0.3849
  176MOL0     C23664   0.094  10.071   4.961 -1.0288 -0.3133 -0.5169
  176MOL0     C23665  -0.014  10.082   4.855 -0.0711 -0.7400 -0.0127
  176MOL0     C23666  -0.139  10.022   4.899 -0.2833 -1.4881 -0.7354
  176MOL0     C23667  -0.252  10.071   4.816  0.7714  0.0394 -0.6402
  176MOL0     C23668  -0.387  10.003   4.874  0.1954 -0.8362  0.0550
  176MOL0     C23669  -0.483   9.974   4.752  0.2266 -0.1357 -0.3829
  176MOL0    Cl23670  -0.650   9.934   4.816 -0.2542 -0.4698 -0.4408
  176MOL0     C23671   0.552  10.201   5.189 -0.0865  1.8927  0.0601
  176MOL0     C23672   0.679  10.222   5.249 -1.0955 -0.2149 -0.2847
  176MOL0     O23673   0.917  10.002   5.351  0.9085 -0.7360  0.3210
  176MOL0     C23674   1.199  10.036   5.424  1.2503  0.4145 -0.1343
  176MOL0     C23675   1.301  10.048   5.511 -0.7795 -0.1862 -0.3027
  176MOL0     N23676   1.942  10.238   5.539 -0.0748  0.0190 -0.2354
  176MOL0     N23677   2.051  10.178   5.528  0.5202  0.2844  0.1316
  176MOL0     C23678   3.196  10.226   5.506 -0.0893  0.7559 -1.5039
  176MOL0     C23679   3.336  10.217   5.544  0.5274  0.3602 -0.5367
  176MOL0     C23680   3.752  10.385   5.535 -0.3326  0.4866  0.6212
  176MOL0     C23681   3.847  10.488   5.509 -0.4474  0.0676 -0.2771
  176MOL0     C23682   3.984  10.449   5.505  0.3103 -0.2013  0.2813
  176MOL0     C23683   4.031  10.322   5.534  0.2643 -0.0311  0.8045
  176MOL0     O23684   4.165  10.279   5.518 -0.4402 -0.5496 -0.1347
  176MOL0     C23685   4.253  10.350   5.613  0.5300 -0.1359 -0.2976
  176MOL0     C23686   4.380  10.373   5.537  0.3855 -0.4786 -0.0640
  176MOL0     C23687   4.383  10.512   5.466 -0.7172 -0.2181  0.6124
  176MOL0     C23688   4.521  10.527   5.393  0.3697 -0.3090 -0.5248
  176MOL0     C23689   4.629  10.550   5.490  0.7614 -0.0283 -0.2583
  176MOL0     C23690   4.727  10.557   5.565  0.5102  0.2223  0.4227
  176MOL0     C23691   3.935  10.227   5.564  0.5581  0.5299 -0.7999
  176MOL0     C23692   3.799  10.250   5.556  0.5094  0.2491 -0.1488
  176MOL0     H23693   3.374  10.520   5.677  1.2984 -2.3780  2.5210
  176MOL0     H23694   3.133  10.542   5.609  0.3296 -1.1286  0.7539
  176MOL0     H23695   2.891  10.463   5.633 -2.0154  0.2174  0.0026
  176MOL0     H23696   2.937  10.535   5.476  0.8873 -1.2343  0.1472
  176MOL0     H23697   2.691  10.501   5.498  1.0678  1.1254  3.1614
  176MOL0     H23698   2.765  10.376   5.378  2.1912 -0.4224  0.8213
  176MOL0     H23699   2.765  10.210   5.518 -1.8416 -0.4935 -1.1095
  176MOL0     H23700   2.704  10.307   5.656 -0.7522  1.0160 -0.0596
  176MOL0     H23701   2.498  10.329   5.467  1.7124  1.8544  0.0707
  176MOL0     H23702   2.573  10.193   5.402 -1.2795  0.2761  0.5365
  176MOL0     H23703   2.562  10.092   5.650 -0.0929  0.3310  1.3117
  176MOL0     H23704   2.461  10.238   5.687 -2.1130 -0.0310 -1.2379
  176MOL0     H23705   2.317  10.192   5.525  2.5929  2.1627  0.6309
  176MOL0     H23706   2.393  10.035   5.471 -2.6331 -0.6710  0.2849
  176MOL0     H23707   2.341   9.954   5.701  0.4071 -0.6832 -0.3575
  176MOL0     H23708   2.252  10.105   5.738 -1.9643  3.5363 -2.9100
  176MOL0     H23709   2.115   9.914   5.705 -2.1748  2.5029 -0.0106
  176MOL0     H23710   2.160   9.905   5.532  0.7809  2.2253 -0.5947
  176MOL0     H23711   1.857   9.974   5.706  0.6616 -2.6466 -2.1536
  176MOL0     H23712   1.680  10.230   5.505  2.5540  2.1626 -0.4369
  176MOL0     H23713   1.650  10.110   5.633  1.5844 -0.1362 -1.1783
  176MOL0     H23714   1.745  10.401   5.663  1.4865 -0.9653  1.9103
  176MOL0     H23715   1.726  10.293   5.797  3.6440 -1.0644 -1.8080
  176MOL0     H23716   1.504  10.410   5.620  2.3557 -1.7828 -1.1082
  176MOL0     H23717   1.545  10.450   5.782 -0.2374  2.1573 -1.5229
  176MOL0     H23718   1.360  10.317   5.806 -1.3663 -0.8301 -1.8044
  176MOL0     H23719   1.490  10.213   5.871  2.4183 -2.1873 -1.1351
  176MOL0     H23720   1.193  10.326   5.668  0.2302  1.6042 -1.2333
  176MOL0     H23721   0.960  10.347   5.642 -0.1891  0.1245 -0.3248
  176MOL0     H23722   1.033  10.436   5.503  2.2085  0.5376  0.2921
  176MOL0     H23723   0.896  10.317   5.484  1.7118 -0.7262 -1.5380
  176MOL0     H23724   0.905  10.150   5.034  0.2163 -0.3762  0.5271
  176MOL0     H23725   0.699  10.116   4.890  2.9205  2.5379 -0.7219
  176MOL0     H23726   0.344  10.047   5.095 -0.2468  0.0890 -0.5961
  176MOL0     H23727   0.297  10.217   5.079  0.3881  0.8179 -1.6052
  176MOL0     H23728   0.259  10.179   4.844 -2.2751 -1.1234 -0.8732
  176MOL0     H23729   0.286  10.010   4.874  0.8990 -1.7038  3.0441
  176MOL0     H23730   0.069  10.145   5.038  0.8386 -0.1571  0.0106
  176MOL0     H23731   0.094   9.970   5.002  1.6823 -1.3464 -2.6808
  176MOL0     H23732  -0.022  10.182   4.811 -0.8792 -1.2790 -1.1236
  176MOL0     H23733   0.021  10.027   4.767  2.2601 -1.1129  1.0617
  176MOL0     H23734  -0.155  10.045   5.005 -2.5579 -1.3324 -1.0625
  176MOL0     H23735  -0.129   9.913   4.899 -1.6145 -1.6500  0.6706
  176MOL0     H23736  -0.250  10.180   4.809  3.0401  0.0376 -0.7454
  176MOL0     H23737  -0.242  10.027   4.716 -1.1873 -0.0887 -0.8285
  176MOL0     H23738  -0.449  10.057   4.946  0.3563 -2.5889  1.5912
  176MOL0     H23739  -0.371   9.905   4.920 -1.1669 -0.3048  1.7976
  176MOL0     H23740  -0.461   9.885   4.694 -2.3688  0.2245 -2.0782
  176MOL0     H23741  -0.498  10.059   4.685 -1.7881 -1.2366 -1.4506
  176MOL0     H23742   0.464  10.210   5.251  1.1676 -3.2948  3.2154
  176MOL0     H23743   0.687  10.253   5.353 -0.2499 -0.8129 -0.1591
  176MOL0     H23744   1.199   9.947   5.363  3.2022 -0.3412  0.9027
  176MOL0     H23745   1.386   9.980   5.509 -0.1701  0.5468  0.0373
  176MOL0     H23746   3.151  10.140   5.458 -1.9415  0.4582  0.5973
  176MOL0     H23747   3.384  10.119   5.537  1.1249  0.3458  2.5051
  176MOL0     H23748   3.830  10.595   5.500  0.8291  0.2669 -0.5211
  176MOL0     H23749   4.063  10.518   5.478 -0.0389 -0.2655 -0.9638
  176MOL0     H23750   4.215  10.443   5.655 -0.1538 -0.5087 -0.0752
  176MOL0     H23751   4.270  10.288   5.702  1.4431  0.7407  0.1452
  176MOL0     H23752   4.398  10.293   5.464  0.0166  0.5303 -1.3098
  176MOL0     H23753   4.457  10.364   5.614  0.7747  1.7540 -0.1318
  176MOL0     H23754   4.382  10.597   5.535 -1.0314 -0.4378  0.8773
  176MOL0     H23755   4.304  10.535   5.394 -1.1188  0.9830  1.4064
  176MOL0     H23756   4.516  10.611   5.323  0.7917 -2.0798 -2.8105
  176MOL0     H23757   4.548  10.435   5.339 -0.6465 -0.4388 -0.8352
  176MOL0     H23758   4.818  10.543   5.620 -0.9618 -3.7491  2.2514
  176MOL0     H23759   3.956  10.130   5.608 -3.7207  0.4462  1.6903
  176MOL0     H23760   3.729  10.168   5.572  0.3316  0.0340 -1.7832
  177MOL0     O23761   3.855   0.982   5.040  0.0279 -0.1622  0.5370
  177MOL0     C23762   3.930   1.012   4.944 -0.7518  0.4556 -0.5475
  177MOL0     O23763   3.893   1.039   4.820  0.4449  0.0236 -1.0428
  177MOL0     C23764   3.761   1.006   4.785 -0.3595 -1.1024 -0.1943
  177MOL0     C23765   3.745   0.915   4.678 -0.1069 -0.2264 -0.7313
  177MOL0     C23766   3.618   0.883   4.622  0.5102 -0.0902 -0.4442
  177MOL0     C23767   3.502   0.952   4.673 -0.6938  0.4780  0.5305
  177MOL0     O23768   3.372   0.928   4.632  0.4663 -0.7748  0.1482
  177MOL0     C23769   3.333   0.798   4.592  0.4209 -0.5403  0.6849
  177MOL0     C23770   3.189   0.812   4.549 -0.1785 -0.1106 -0.0001
  177MOL0     C23771   3.154   0.705   4.454  0.5560  1.2893 -0.9268
  177MOL0     C23772   2.996   0.693   4.451 -0.1709 -0.0084  0.9052
  177MOL0     C23773   2.948   0.580   4.357  0.0363  0.0870  0.3042
  177MOL0     C23774   2.797   0.552   4.363  0.1076 -0.6387  0.0142
  177MOL0     C23775   2.717   0.678   4.344 -0.8842  0.5095  0.0634
  177MOL0     C23776   2.568   0.667   4.317 -0.8219 -1.2883  0.0164
  177MOL0     N23777   2.494   0.599   4.417 -0.3510 -1.0683 -0.4957
  177MOL0     C23778   2.471   0.641   4.548  0.8774  0.1282 -0.0121
  177MOL0     C23779   2.414   0.532   4.610 -0.1412 -0.2848 -0.4316
  177MOL0     C23780   2.327   0.545   4.732  0.7790 -0.0560 -0.5672
  177MOL0     C23781   2.189   0.602   4.700  0.0329  0.2627  1.2627
  177MOL0     C23782   2.109   0.492   4.626 -0.6980  0.8351 -0.1610
  177MOL0     C23783   1.965   0.548   4.623 -0.0739  0.1552 -0.1712
  177MOL0     O23784   1.878   0.456   4.563  0.5228  0.0249  1.2531
  177MOL0     C23785   1.756   0.498   4.523 -0.2860  0.2611  0.1022
  177MOL0     C23786   1.703   0.626   4.523  0.6017  0.0061  0.3970
  177MOL0     C23787   1.567   0.649   4.476 -0.3941  0.7812  0.6360
  177MOL0     C23788   1.518   0.793   4.486  0.0896  0.3981 -1.0789
  177MOL0     C23789   1.494   0.546   4.428  1.2039 -0.1794  0.6144
  177MOL0     C23790   1.347   0.551   4.379 -0.1268 -0.4056 -0.7019
  177MOL0     O23791   1.284   0.429   4.394 -0.2752  0.0959  0.5116
  177MOL0     C23792   1.146   0.432   4.355 -0.6405  0.4290 -0.7087
  177MOL0     C23793   1.089   0.317   4.289  0.5344 -0.6439 -0.0420
  177MOL0     C23794   0.954   0.314   4.255  0.2916  0.2371  0.2066
  177MOL0     C23795   0.871   0.417   4.290 -0.4159 -0.2197  0.3911
  177MOL0     O23796   0.751   0.415   4.229 -0.0148 -0.1040 -1.1664
  177MOL0     C23797   0.641   0.493   4.285  0.5680  0.2816  0.0572
  177MOL0     C23798   0.509   0.422   4.265 -0.0380  0.2831  0.2945
  177MOL0     C23799   0.465   0.434   4.119 -0.0974  0.1807  0.4056
  177MOL0     C23800   0.332   0.379   4.076 -0.5085 -0.3068  0.4068
  177MOL0     C23801   0.286   0.429   3.941 -0.4992 -0.3603 -0.1970
  177MOL0     C23802   0.155   0.369   3.904 -1.0602  0.4126 -0.8674
  177MOL0     C23803   0.068   0.434   3.799  0.3436 -0.1494 -0.3064
  177MOL0     C23804  -0.082   0.401   3.819 -0.7505  0.8399 -0.2226
  177MOL0    Cl23805  -0.150   0.373   3.656 -0.2427  0.4118  0.1794
  177MOL0     C23806   0.918   0.522   4.365  0.8186 -0.2594 -0.4955
  177MOL0     C23807   1.049   0.530   4.399  0.1150 -0.5775 -0.5305
  177MOL0     O23808   1.292   0.652   4.339 -0.0064 -0.1948 -0.7090
  177MOL0     C23809   1.552   0.411   4.427 -0.1911  0.1477 -0.4534
  177MOL0     C23810   1.678   0.395   4.475 -0.4030 -0.4193 -0.9844
  177MOL0     N23811   2.404   0.426   4.522 -0.5712 -0.6532 -0.1314
  177MOL0     N23812   2.439   0.478   4.409 -0.2241  0.0311 -1.0761
  177MOL0     C23813   3.516   1.051   4.774 -0.3156 -0.1989 -0.4167
  177MOL0     C23814   3.642   1.075   4.834  0.6962 -0.3420  0.3293
  177MOL0     C23815   4.071   1.015   4.973  0.5316  0.0323 -0.6866
  177MOL0     C23816   4.167   1.020   4.870 -0.1089  0.3552  0.4443
  177MOL0     C23817   4.301   1.064   4.894  0.2663  0.1752  0.5298
  177MOL0     C23818   4.345   1.085   5.023  0.2456  0.5868  0.1597
  177MOL0     O23819   4.463   1.130   5.057  0.5512 -0.2437  0.0551
  177MOL0     C23820   4.571   1.147   4.961 -0.5945 -0.0036  0.1138
  177MOL0     C23821   4.696   1.183   5.046 -0.1101 -0.3310 -0.2735
  177MOL0     C23822   4.833   1.152   4.984 -0.5569 -0.4828 -0.6482
  177MOL0     C23823   4.853   1.241   4.859 -0.0727 -1.3783  0.6368
  177MOL0     C23824   4.997   1.263   4.823  1.5899  0.5026 -0.0225
  177MOL0     C23825   5.111   1.302   4.796  0.4780 -0.5180 -0.6700
  177MOL0     C23826   4.253   1.076   5.127 -0.9084  0.3970 -0.2036
  177MOL0     C23827   4.123   1.029   5.107 -0.1240 -0.9433  0.6131
  177MOL0     H23828   3.833   0.861   4.643  1.0473 -0.3875  2.1572
  177MOL0     H23829   3.607   0.813   4.539 -1.2127 -1.8582  1.1826
  177MOL0     H23830   3.398   0.780   4.506  0.3038  1.2484  0.1802
  177MOL0     H23831   3.347   0.737   4.682  1.9069  0.7247  1.3615
  177MOL0     H23832   3.125   0.803   4.638 -0.0125  0.8323  0.2262
  177MOL0     H23833   3.180   0.912   4.506  0.2604  0.0243  0.2101
  177MOL0     H23834   3.198   0.731   4.358 -0.1627  1.8540 -1.1100
  177MOL0     H23835   3.189   0.608   4.491 -1.5833  0.0733 -1.8505
  177MOL0     H23836   2.957   0.690   4.553 -0.2246  0.1426  0.8888
  177MOL0     H23837   2.967   0.791   4.413  3.3981  0.9452  0.2240
  177MOL0     H23838   2.985   0.600   4.256  2.8207 -2.4423  0.6976
  177MOL0     H23839   2.995   0.487   4.390  0.0769 -0.0159 -0.0371
  177MOL0     H23840   2.767   0.504   4.270  1.8458 -0.6076 -0.5989
  177MOL0     H23841   2.763   0.505   4.456 -0.4717 -0.1416  0.0560
  177MOL0     H23842   2.731   0.729   4.439  2.7393  0.0161 -0.0633
  177MOL0     H23843   2.765   0.743   4.270  0.2994 -1.2092 -0.7497
  177MOL0     H23844   2.555   0.613   4.223  1.2483 -2.1163  0.1592
  177MOL0     H23845   2.521   0.762   4.289 -0.3101 -1.5053 -1.6613
  177MOL0     H23846   2.475   0.741   4.589  1.6462 -0.7465  2.1845
  177MOL0     H23847   2.314   0.449   4.784 -1.4334  0.7907  0.5590
  177MOL0     H23848   2.375   0.615   4.801 -0.4952  0.6362 -0.3650
  177MOL0     H23849   2.183   0.691   4.637 -1.0336 -0.1140  0.8114
  177MOL0     H23850   2.134   0.626   4.792 -4.2924  0.5081 -1.1486
  177MOL0     H23851   2.111   0.399   4.684  0.5047  1.5602  1.0050
  177MOL0     H23852   2.146   0.462   4.528  1.9651 -1.3213  1.3590
  177MOL0     H23853   1.975   0.641   4.567 -0.8756 -0.9887 -2.3121
  177MOL0     H23854   1.922   0.586   4.717  1.4082  4.9180 -1.1590
  177MOL0     H23855   1.768   0.710   4.546  3.8007 -2.3488  0.6588
  177MOL0     H23856   1.521   0.839   4.387 -0.8429  0.3896 -1.1217
  177MOL0     H23857   1.416   0.803   4.523 -0.5885  2.3056 -3.2513
  177MOL0     H23858   1.589   0.848   4.549  0.0120 -0.6337 -0.0627
  177MOL0     H23859   1.157   0.239   4.257  0.5590  0.2493 -2.3636
  177MOL0     H23860   0.922   0.227   4.197  0.4732 -0.4320  1.0884
  177MOL0     H23861   0.658   0.505   4.393 -1.0318  2.2809  0.1651
  177MOL0     H23862   0.637   0.595   4.246  1.3238  1.1752  2.1565
  177MOL0     H23863   0.511   0.324   4.312 -0.1182  0.2622  0.2547
  177MOL0     H23864   0.435   0.469   4.331  0.6634 -0.2647  1.5094
  177MOL0     H23865   0.553   0.407   4.060  1.4297 -0.1804  2.7189
  177MOL0     H23866   0.463   0.543   4.108 -2.7366  0.4820  2.7603
  177MOL0     H23867   0.340   0.270   4.084 -0.5810 -0.5330 -1.8541
  177MOL0     H23868   0.253   0.399   4.149 -1.7129 -2.6591 -0.1216
  177MOL0     H23869   0.356   0.406   3.859  0.3015 -0.9539  0.6326
  177MOL0     H23870   0.268   0.536   3.945  3.2140  0.5505 -2.5332
  177MOL0     H23871   0.182   0.277   3.853 -0.9907 -0.7134  1.0986
  177MOL0     H23872   0.098   0.335   3.991 -1.4866  1.0352 -0.8951
  177MOL0     H23873   0.095   0.395   3.701 -0.5256  0.7489 -0.9190
  177MOL0     H23874   0.096   0.540   3.797  2.8389 -0.7541 -0.9937
  177MOL0     H23875  -0.109   0.491   3.874  3.8698  1.8740  0.7301
  177MOL0     H23876  -0.100   0.317   3.888  0.1179  1.1850  0.4407
  177MOL0     H23877   0.857   0.606   4.396  1.1411 -0.4896  0.8476
  177MOL0     H23878   1.084   0.620   4.449 -1.2102  0.3717 -1.2702
  177MOL0     H23879   1.487   0.330   4.396  0.2378  0.1371 -1.3496
  177MOL0     H23880   1.716   0.294   4.472  0.8304 -0.0032 -0.1601
  177MOL0     H23881   3.431   1.115   4.797  0.6031  1.9446 -2.5650
  177MOL0     H23882   3.662   1.163   4.894  1.6120 -1.7717  2.2258
  177MOL0     H23883   4.133   1.017   4.767 -2.0440  2.1000  0.9563
  177MOL0     H23884   4.367   1.088   4.811 -1.6110 -0.9319 -1.3843
  177MOL0     H23885   4.591   1.056   4.903  2.0969  0.6552 -0.1311
  177MOL0     H23886   4.553   1.222   4.883 -2.5383 -0.6015 -0.0696
  177MOL0     H23887   4.690   1.128   5.141  0.2746 -1.3537 -0.8172
  177MOL0     H23888   4.692   1.289   5.072  0.9468 -0.6659  1.4376
  177MOL0     H23889   4.840   1.044   4.966  0.5020 -0.7636  1.2081
  177MOL0     H23890   4.905   1.169   5.065 -2.0494  0.7546  0.4850
  177MOL0     H23891   4.802   1.338   4.866 -0.5921 -1.4584 -1.4290
  177MOL0     H23892   4.816   1.195   4.767  3.6773 -1.9834 -0.7680
  177MOL0     H23893   5.215   1.329   4.797 -0.3945  3.4147  1.5299
  177MOL0     H23894   4.301   1.085   5.225 -1.2918 -0.0164  0.0225
  177MOL0     H23895   4.059   1.041   5.195  0.7933  0.8448  1.0900
  178MOL0     O23896   4.269   2.658   0.622 -0.9648 -0.3730 -0.1288
  178MOL0     C23897   4.292   2.744   0.710  0.1750 -0.3012  0.7601
  178MOL0     O23898   4.199   2.806   0.782 -0.4402 -0.2776  0.1325
  178MOL0     C23899   4.065   2.803   0.779 -0.1144  0.7026  0.1330
  178MOL0     C23900   3.985   2.714   0.708  0.8232 -0.0667 -0.0555
  178MOL0     C23901   3.847   2.727   0.706  0.4525 -0.0424 -0.4770
  178MOL0     C23902   3.775   2.817   0.786  0.6249 -0.8322 -0.1763
  178MOL0     O23903   3.639   2.825   0.765 -0.8025 -0.2170 -0.1890
  178MOL0     C23904   3.556   2.911   0.846 -1.2400  0.1583  1.0604
  178MOL0     C23905   3.404   2.901   0.836 -0.1244  0.4883  0.1543
  178MOL0     C23906   3.355   2.925   0.695  0.2259 -0.6496 -0.0466
  178MOL0     C23907   3.391   3.076   0.649  0.2971 -0.1263 -0.1488
  178MOL0     C23908   3.318   3.112   0.517  1.0379  0.1781 -0.6426
  178MOL0     C23909   3.377   3.222   0.433 -1.4687 -0.5233  0.7282
  178MOL0     C23910   3.281   3.270   0.319 -0.9018 -0.4704 -0.5939
  178MOL0     C23911   3.349   3.342   0.203 -0.4106  0.0600  0.8605
  178MOL0     N23912   3.254   3.412   0.116 -0.1841  0.5886  0.5404
  178MOL0     C23913   3.222   3.545   0.144  0.2814 -0.2886  0.2942
  178MOL0     C23914   3.123   3.581   0.056 -0.5451 -0.3064  0.1143
  178MOL0     C23915   3.060   3.716   0.052 -0.3425 -0.0380 -0.0232
  178MOL0     C23916   2.949   3.723   0.151 -0.0871 -0.2823 -0.1760
  178MOL0     C23917   2.990   3.769   0.302 -0.4530 -0.2347  0.4244
  178MOL0     C23918   2.880   3.786   0.411  0.4143  0.1488  0.3283
  178MOL0     O23919   2.749   3.740   0.369 -0.7230 -0.2776 -0.0911
  178MOL0     C23920   2.648   3.743   0.461  0.5660  0.7505  0.4921
  178MOL0     C23921   2.622   3.836   0.564 -0.3364  0.6635 -1.0077
  178MOL0     C23922   2.504   3.831   0.640  0.0180 -0.4789 -1.5427
  178MOL0     C23923   2.492   3.945   0.747  0.4069  0.0362  0.6644
  178MOL0     C23924   2.410   3.731   0.615  1.1403  0.3634 -0.1027
  178MOL0     C23925   2.282   3.717   0.696 -0.7053  0.8655 -0.5176
  178MOL0     O23926   2.222   3.598   0.686 -0.1025  0.3474 -0.5751
  178MOL0     C23927   2.095   3.587   0.738 -0.5916 -0.1776 -0.1347
  178MOL0     C23928   2.061   3.466   0.802  0.1557 -1.3076 -0.0131
  178MOL0     C23929   1.928   3.433   0.838 -0.6316  0.0302  0.4785
  178MOL0     C23930   1.824   3.522   0.811  0.5858 -0.0350  0.2076
  178MOL0     O23931   1.696   3.500   0.858  0.7565 -0.0836 -0.7415
  178MOL0     C23932   1.613   3.424   0.771  0.8189 -0.3013 -0.0418
  178MOL0     C23933   1.490   3.384   0.854  0.0591  0.1500 -0.0683
  178MOL0     C23934   1.361   3.382   0.778 -0.2797 -0.8604  0.0795
  178MOL0     C23935   1.244   3.345   0.870 -1.4045  1.0730 -0.0062
  178MOL0     C23936   1.122   3.295   0.790  0.7152 -0.0668 -0.2600
  178MOL0     C23937   0.989   3.284   0.877 -0.9619 -0.4171  0.3166
  178MOL0     C23938   0.861   3.244   0.815 -0.6979 -1.1854  0.5934
  178MOL0     C23939   0.817   3.096   0.831 -0.5709  0.2219  0.0406
  178MOL0    Cl23940   0.659   3.049   0.733  0.4940  0.0244  0.1402
  178MOL0     C23941   1.857   3.646   0.753  0.9401  0.2228  0.1611
  178MOL0     C23942   1.985   3.673   0.702 -0.1683 -0.6241  0.0586
  178MOL0     O23943   2.248   3.817   0.757  0.5721  0.3850 -0.8929
  178MOL0     C23944   2.442   3.630   0.518  1.2218  0.0521  0.5226
  178MOL0     C23945   2.551   3.640   0.437 -0.3996  0.5580  0.0169
  178MOL0     N23946   3.100   3.464  -0.020 -0.1315 -0.0152 -0.4211
  178MOL0     N23947   3.175   3.367   0.015  0.1400  0.5762 -0.0948
  178MOL0     C23948   3.852   2.896   0.870  0.3636  0.4900  0.0026
  178MOL0     C23949   3.997   2.888   0.869 -0.4405 -0.6873 -0.3590
  178MOL0     C23950   4.431   2.768   0.738 -0.5637 -0.7218 -0.9396
  178MOL0     C23951   4.456   2.836   0.856  0.3361  0.5795  0.2558
  178MOL0     C23952   4.585   2.851   0.896 -0.4569 -0.4900 -0.4737
  178MOL0     C23953   4.697   2.804   0.819  0.5262  0.2726  0.6003
  178MOL0     O23954   4.820   2.833   0.871  0.2898 -0.6428  0.2710
  178MOL0     C23955   4.930   2.814   0.777  0.7583  0.2077 -0.0373
  178MOL0     C23956   5.047   2.864   0.859 -0.1670 -0.8041 -0.0584
  178MOL0     C23957   5.083   2.795   0.990 -0.2649  0.0430  1.0072
  178MOL0     C23958   5.169   2.662   0.960  0.3190 -0.5788  0.3314
  178MOL0     C23959   5.203   2.600   1.083 -0.0284 -0.3738  0.3589
  178MOL0     C23960   5.222   2.553   1.190  0.9503 -0.6114 -0.3158
  178MOL0     C23961   4.674   2.733   0.694 -0.1498  0.1166 -0.3521
  178MOL0     C23962   4.541   2.717   0.661 -1.2659  0.1901  0.3208
  178MOL0     H23963   4.028   2.636   0.645  1.3609  1.0081 -1.0733
  178MOL0     H23964   3.778   2.667   0.648 -2.0004 -1.2169  3.2548
  178MOL0     H23965   3.588   2.899   0.950  1.1598  0.6192  0.4422
  178MOL0     H23966   3.600   3.011   0.837 -0.0515 -0.5552 -1.9890
  178MOL0     H23967   3.366   2.803   0.864 -0.7018  0.0665 -1.9539
  178MOL0     H23968   3.355   2.980   0.894  0.4317  1.6784 -0.9312
  178MOL0     H23969   3.395   2.849   0.627  0.6622  0.8022 -1.4824
  178MOL0     H23970   3.246   2.909   0.699 -0.2203  1.9445  0.0050
  178MOL0     H23971   3.362   3.145   0.729 -0.5110 -0.1742 -0.3903
  178MOL0     H23972   3.498   3.088   0.631  0.5316 -1.1353  0.5116
  178MOL0     H23973   3.309   3.024   0.452  0.7736  0.8323 -1.5248
  178MOL0     H23974   3.215   3.140   0.543  0.3385 -2.4196 -0.3361
  178MOL0     H23975   3.401   3.303   0.503  0.5492 -0.0921 -0.3867
  178MOL0     H23976   3.466   3.183   0.383 -3.2249 -3.4064 -0.3871
  178MOL0     H23977   3.223   3.190   0.273 -1.7713  0.6637 -1.5412
  178MOL0     H23978   3.212   3.338   0.370 -0.0885 -1.2286  1.6533
  178MOL0     H23979   3.398   3.277   0.130 -0.2232 -1.5723  2.3661
  178MOL0     H23980   3.424   3.416   0.233 -1.7688  1.3714  1.1433
  178MOL0     H23981   3.276   3.610   0.212 -0.6497  0.6383  0.1626
  178MOL0     H23982   3.123   3.805   0.056 -0.7367  0.2271  0.4516
  178MOL0     H23983   3.011   3.719  -0.046  0.9371  0.9035 -0.6682
  178MOL0     H23984   2.911   3.621   0.162 -2.5496  0.2790 -2.2979
  178MOL0     H23985   2.858   3.774   0.120 -2.7680 -4.1479  0.5646
  178MOL0     H23986   3.053   3.857   0.283  1.5284 -1.8541 -0.9122
  178MOL0     H23987   3.062   3.699   0.344  0.4345  0.0283 -0.6216
  178MOL0     H23988   2.871   3.889   0.447 -2.5538 -0.9020  3.0805
  178MOL0     H23989   2.920   3.722   0.490 -0.5308 -0.3117  0.4443
  178MOL0     H23990   2.703   3.908   0.571  2.1829 -2.0812  0.6766
  178MOL0     H23991   2.564   4.023   0.720  1.4554 -0.4288  2.0427
  178MOL0     H23992   2.399   4.003   0.750  0.3303  0.0248 -0.6620
  178MOL0     H23993   2.513   3.912   0.849 -4.0191 -0.2846  1.6881
  178MOL0     H23994   2.134   3.386   0.789 -3.5263 -4.5829 -3.1958
  178MOL0     H23995   1.904   3.337   0.882 -2.7655  0.6938  0.8545
  178MOL0     H23996   1.589   3.475   0.677  1.1560 -3.5635 -2.0748
  178MOL0     H23997   1.666   3.329   0.758  0.6020 -0.1550 -2.4558
  178MOL0     H23998   1.505   3.282   0.893  1.5684  0.9433  1.5598
  178MOL0     H23999   1.488   3.447   0.943  1.2677 -1.4876  1.1851
  178MOL0     H24000   1.363   3.301   0.705 -0.7034 -1.4119  0.6742
  178MOL0     H24001   1.345   3.475   0.722  0.0060 -1.5710 -1.2115
  178MOL0     H24002   1.274   3.272   0.946  0.4949  4.3200  2.6429
  178MOL0     H24003   1.221   3.432   0.932 -2.2454  0.7328  0.1629
  178MOL0     H24004   1.138   3.191   0.759  1.1745  0.5897 -2.4097
  178MOL0     H24005   1.101   3.358   0.703 -1.8211  3.4900  2.6090
  178MOL0     H24006   1.009   3.206   0.951 -1.3111 -0.6181  0.2027
  178MOL0     H24007   0.971   3.374   0.937 -1.8248  0.8847 -1.7602
  178MOL0     H24008   0.865   3.274   0.710 -2.5645 -1.8930  0.2712
  178MOL0     H24009   0.779   3.298   0.865 -0.8897 -0.8585 -0.0730
  178MOL0     H24010   0.806   3.072   0.937 -0.4613 -0.9044 -0.1989
  178MOL0     H24011   0.894   3.026   0.800 -2.6384 -1.4388 -1.6983
  178MOL0     H24012   1.781   3.718   0.722 -1.8606 -2.6292 -0.0495
  178MOL0     H24013   2.012   3.770   0.660  1.1281 -0.1662  1.8208
  178MOL0     H24014   2.377   3.546   0.496 -0.3617  0.1788  3.9959
  178MOL0     H24015   2.569   3.568   0.358  0.0855 -0.0326  0.6514
  178MOL0     H24016   3.821   2.969   0.944  1.6815  1.9724 -0.8414
  178MOL0     H24017   4.056   2.955   0.932 -1.3415 -2.5517  2.7024
  178MOL0     H24018   4.383   2.874   0.927 -0.8852 -2.4329  0.7877
  178MOL0     H24019   4.612   2.910   0.983 -0.6854  0.8745 -1.2985
  178MOL0     H24020   4.944   2.714   0.734 -2.3808 -1.4799  2.4072
  178MOL0     H24021   4.919   2.877   0.688 -0.4847 -1.3587 -1.0376
  178MOL0     H24022   5.032   2.971   0.880 -0.7583 -0.9844  0.4501
  178MOL0     H24023   5.133   2.862   0.791 -0.3579 -0.9288 -0.2990
  178MOL0     H24024   4.993   2.764   1.044 -1.4657  0.0425 -0.8953
  178MOL0     H24025   5.137   2.868   1.051  0.4641  2.7750 -2.5892
  178MOL0     H24026   5.258   2.692   0.904 -0.5469  0.5857 -0.4759
  178MOL0     H24027   5.111   2.591   0.900  0.2396 -2.4245  2.4608
  178MOL0     H24028   5.250   2.501   1.280  1.4605 -0.4580 -0.3837
  178MOL0     H24029   4.754   2.702   0.628 -0.2029 -0.3074 -0.2209
  178MOL0     H24030   4.518   2.688   0.559 -0.1096  1.4999 -0.3415
  179MOL0     O24031   9.586   1.272   5.244 -0.1617 -0.1483 -0.5712
  179MOL0     C24032   9.692   1.251   5.304 -0.1813  0.4022  0.1277
  179MOL0     O24033   9.700   1.177   5.420 -0.4542 -0.2478 -0.3178
  179MOL0     C24034   9.578   1.143   5.479 -0.1095  0.2830 -0.4028
  179MOL0     C24035   9.503   1.055   5.405  0.2671 -0.1516  0.0959
  179MOL0     C24036   9.378   1.012   5.448 -0.1798 -0.3388 -0.1731
  179MOL0     C24037   9.332   1.048   5.571  0.4915  0.4494 -0.5217
  179MOL0     O24038   9.204   1.015   5.623 -0.0769  0.0030  0.1435
  179MOL0     C24039   9.126   0.926   5.550 -0.3302 -0.4449  0.1315
  179MOL0     C24040   9.025   0.860   5.636 -0.5854 -0.0398 -0.6347
  179MOL0     C24041   8.924   0.779   5.556 -0.0879 -0.2151 -0.0439
  179MOL0     C24042   8.808   0.718   5.636  0.2332 -0.4276  0.7647
  179MOL0     C24043   8.698   0.680   5.536  0.5118  0.6619  0.2172
  179MOL0     C24044   8.625   0.572   5.605  0.5112 -0.3272  0.6404
  179MOL0     C24045   8.477   0.550   5.542 -0.3213  0.4151  0.8350
  179MOL0     C24046   8.488   0.492   5.399  0.1714  0.5240  0.0716
  179MOL0     N24047   8.371   0.415   5.367 -0.3418 -0.2614  1.1413
  179MOL0     C24048   8.248   0.466   5.374 -1.3092 -0.3923 -0.4920
  179MOL0     C24049   8.165   0.362   5.351 -0.9058  0.6409  0.3012
  179MOL0     C24050   8.017   0.368   5.362  0.2173 -0.0326 -0.3448
  179MOL0     C24051   7.949   0.293   5.250 -0.0572  0.0645 -0.4485
  179MOL0     C24052   7.795   0.316   5.260 -0.2883 -0.0541  0.5502
  179MOL0     C24053   7.722   0.222   5.155  0.3162  0.4704  0.2861
  179MOL0     O24054   7.589   0.281   5.125  0.2360 -0.2097 -0.1371
  179MOL0     C24055   7.476   0.228   5.189  0.4055 -0.0696  0.2898
  179MOL0     C24056   7.464   0.211   5.322  0.1310  0.3783 -0.1246
  179MOL0     C24057   7.345   0.179   5.394  0.8278 -0.0754 -0.0340
  179MOL0     C24058   7.361   0.156   5.546  0.2377 -0.4218  0.7679
  179MOL0     C24059   7.224   0.164   5.319  0.0734 -0.2050  0.6626
  179MOL0     C24060   7.083   0.141   5.368  0.9458 -0.1609 -0.7085
  179MOL0     O24061   6.983   0.131   5.276 -0.2995  0.5871 -0.4687
  179MOL0     C24062   6.855   0.081   5.302 -0.3442 -0.2106 -0.3178
  179MOL0     C24063   6.746   0.152   5.255 -0.6350 -0.6937 -0.5834
  179MOL0     C24064   6.618   0.110   5.286  0.5556 -0.3876  0.6345
  179MOL0     C24065   6.591  -0.004   5.351 -0.4496  0.3291  0.0275
  179MOL0     O24066   6.461  -0.029   5.376  0.4267  0.2592 -0.4348
  179MOL0     C24067   6.430  -0.115   5.485 -0.1954  0.5902  0.3941
  179MOL0     C24068   6.289  -0.086   5.534 -0.8530 -0.6274  0.7070
  179MOL0     C24069   6.272   0.063   5.574 -0.1526  0.4476 -0.0413
  179MOL0     C24070   6.336   0.096   5.705 -0.5854  0.2231  0.6844
  179MOL0     C24071   6.341   0.240   5.741 -0.0645 -0.7752 -0.0984
  179MOL0     C24072   6.469   0.313   5.719  0.4009  0.3823  0.4624
  179MOL0     C24073   6.520   0.301   5.578  0.4378  0.1976  0.2033
  179MOL0     C24074   6.636   0.390   5.556 -0.0431  0.1381 -0.1494
  179MOL0    Cl24075   6.584   0.557   5.553  0.2689  0.2800 -0.1201
  179MOL0     C24076   6.698  -0.083   5.394 -0.0334 -1.0649 -0.2457
  179MOL0     C24077   6.833  -0.042   5.361  0.4712  0.6279 -0.4533
  179MOL0     O24078   7.066   0.121   5.489  0.4312  0.2486  0.3866
  179MOL0     C24079   7.230   0.194   5.178  0.1588  1.1421 -0.6292
  179MOL0     C24080   7.356   0.219   5.118  0.3322  0.5350 -0.7707
  179MOL0     N24081   8.245   0.248   5.334  0.3506 -0.4973  0.1726
  179MOL0     N24082   8.366   0.288   5.337  0.0267  0.0640  0.6180
  179MOL0     C24083   9.407   1.138   5.646 -0.8723  0.0555  0.4741
  179MOL0     C24084   9.531   1.183   5.603 -0.2714  0.2447 -0.4249
  179MOL0     C24085   9.816   1.277   5.227 -0.0511 -0.3408 -0.0953
  179MOL0     C24086   9.845   1.377   5.121 -0.0445 -0.0818 -0.7739
  179MOL0     C24087   9.971   1.391   5.065 -0.1809  0.5545  0.4701
  179MOL0     C24088  10.074   1.305   5.122  1.0010 -0.7418 -0.5418
  179MOL0     O24089  10.204   1.300   5.081 -0.5066  0.2963  0.3276
  179MOL0     C24090  10.250   1.387   4.977 -0.2803 -0.3997  0.5175
  179MOL0     C24091  10.398   1.409   5.014 -0.3505 -0.2511 -0.5323
  179MOL0     C24092  10.486   1.285   4.972 -0.9678 -0.2794 -0.4579
  179MOL0     C24093  10.569   1.226   5.084  0.6414  0.2813  0.0423
  179MOL0     C24094  10.498   1.165   5.188  0.1485 -0.2861  0.1117
  179MOL0     C24095  10.436   1.129   5.276  0.6841  0.1882  0.1451
  179MOL0     C24096  10.054   1.218   5.222  0.1500 -0.4507 -0.0149
  179MOL0     C24097   9.931   1.209   5.273  0.2937  0.7963  0.3983
  179MOL0     H24098   9.564   1.024   5.321  1.9984  3.4274 -0.1834
  179MOL0     H24099   9.334   0.941   5.378  1.5733 -0.4447 -1.2590
  179MOL0     H24100   9.090   0.975   5.459  2.6991  0.4882 -0.7043
  179MOL0     H24101   9.190   0.844   5.516 -1.2934 -1.8426  1.5122
  179MOL0     H24102   9.083   0.800   5.708 -0.5708 -1.3149 -1.6647
  179MOL0     H24103   8.970   0.939   5.687  2.5600  1.9334 -0.0129
  179MOL0     H24104   8.889   0.845   5.477  0.9409 -0.5078 -0.7654
  179MOL0     H24105   8.981   0.696   5.515  0.4541 -1.2718  2.6299
  179MOL0     H24106   8.860   0.642   5.694 -2.4154 -3.0769 -0.0825
  179MOL0     H24107   8.754   0.782   5.707 -0.8371  2.1367 -2.1109
  179MOL0     H24108   8.643   0.771   5.513  0.2406  0.8744  1.6141
  179MOL0     H24109   8.727   0.640   5.438 -1.4829 -2.1850  0.6547
  179MOL0     H24110   8.687   0.483   5.598  1.1372  0.2051 -1.3411
  179MOL0     H24111   8.595   0.592   5.708 -1.0219  1.1390 -0.0369
  179MOL0     H24112   8.424   0.469   5.594  1.5014 -1.3713  0.0548
  179MOL0     H24113   8.420   0.642   5.531 -0.9040  0.0629  0.8333
  179MOL0     H24114   8.563   0.412   5.402  1.9708  2.1551  0.3739
  179MOL0     H24115   8.521   0.566   5.326  0.9063 -1.2756 -1.4966
  179MOL0     H24116   8.221   0.560   5.421  1.3178  0.2009 -0.0616
  179MOL0     H24117   7.983   0.336   5.461  0.1353  1.3307  0.0996
  179MOL0     H24118   7.983   0.472   5.358  2.3612  0.8021  1.1573
  179MOL0     H24119   7.969   0.187   5.265  0.3180  0.5522  3.5643
  179MOL0     H24120   7.979   0.331   5.152 -0.0839 -0.4299 -0.6475
  179MOL0     H24121   7.771   0.419   5.233 -1.8682 -0.0059  1.9307
  179MOL0     H24122   7.754   0.298   5.360  1.3680  0.1775  1.3013
  179MOL0     H24123   7.709   0.122   5.199 -0.3463  1.0665  1.4865
  179MOL0     H24124   7.775   0.221   5.060  1.1103  0.9597  0.7141
  179MOL0     H24125   7.559   0.204   5.375  0.0911  0.7978  0.0031
  179MOL0     H24126   7.373   0.254   5.591 -1.4001  0.5404 -0.7677
  179MOL0     H24127   7.274   0.106   5.591 -1.9699  3.5106  1.2704
  179MOL0     H24128   7.446   0.090   5.566  0.3036 -0.4708  0.3261
  179MOL0     H24129   6.765   0.244   5.200 -0.5755 -1.0841 -1.2255
  179MOL0     H24130   6.542   0.175   5.244  2.3222 -1.0631 -4.1828
  179MOL0     H24131   6.424  -0.217   5.446 -1.6712  0.6239  0.4783
  179MOL0     H24132   6.497  -0.118   5.571 -1.5090  1.1057  1.4793
  179MOL0     H24133   6.210  -0.107   5.461 -2.9002  0.3310  2.5429
  179MOL0     H24134   6.258  -0.143   5.622  0.5590 -0.1327  1.5595
  179MOL0     H24135   6.166   0.083   5.591 -0.6900 -0.2547 -2.3338
  179MOL0     H24136   6.307   0.121   5.488  1.4029 -2.1635 -1.3024
  179MOL0     H24137   6.270   0.047   5.777  1.0966 -1.7719  0.9344
  179MOL0     H24138   6.431   0.044   5.706  0.3035  1.7797  1.0747
  179MOL0     H24139   6.315   0.254   5.847  0.5076  1.2234 -0.1790
  179MOL0     H24140   6.260   0.281   5.679 -1.0977 -1.8783  0.4758
  179MOL0     H24141   6.453   0.419   5.745  0.5551  0.7789 -1.0034
  179MOL0     H24142   6.545   0.276   5.789 -0.8158 -0.5987  1.3009
  179MOL0     H24143   6.438   0.323   5.510  1.3213  2.8764 -0.1075
  179MOL0     H24144   6.560   0.199   5.567 -0.9738 -0.5017  1.3053
  179MOL0     H24145   6.681   0.378   5.457 -0.2800  1.9182 -0.5221
  179MOL0     H24146   6.712   0.380   5.634  1.0974  2.3983 -0.8538
  179MOL0     H24147   6.691  -0.180   5.443  0.7200 -1.4313 -0.8445
  179MOL0     H24148   6.914  -0.114   5.369 -0.8494 -0.8741 -0.1018
  179MOL0     H24149   7.151   0.204   5.105  0.8206  1.5714 -1.3095
  179MOL0     H24150   7.361   0.237   5.011  1.5603 -1.1302 -1.0356
  179MOL0     H24151   9.363   1.178   5.736 -2.7369  1.6607 -1.0772
  179MOL0     H24152   9.574   1.262   5.663 -2.5563  2.0205 -0.9485
  179MOL0     H24153   9.764   1.440   5.085 -0.8091 -2.0617 -2.7283
  179MOL0     H24154   9.984   1.469   4.991 -3.5228 -1.2199 -2.3028
  179MOL0     H24155  10.251   1.342   4.877  3.1248  2.1102 -0.8014
  179MOL0     H24156  10.190   1.479   4.978  0.0346 -0.1755 -0.3668
  179MOL0     H24157  10.411   1.434   5.120 -0.4257 -1.6262 -0.1778
  179MOL0     H24158  10.435   1.492   4.953  0.3395  0.3085  0.6021
  179MOL0     H24159  10.559   1.302   4.892  0.4912 -3.8348 -0.0404
  179MOL0     H24160  10.415   1.208   4.939 -1.2711  0.4458 -1.5803
  179MOL0     H24161  10.638   1.301   5.124 -2.3189  2.6789  1.0356
  179MOL0     H24162  10.631   1.146   5.042 -0.2293 -0.4843  0.1766
  179MOL0     H24163  10.353   1.101   5.338  0.0276  1.1947 -0.2583
  179MOL0     H24164  10.142   1.158   5.243  1.3667  0.8711 -1.0940
  179MOL0     H24165   9.916   1.130   5.345 -1.1489 -0.7560 -1.5085
  180MOL0     O24166   1.406   7.619   1.537 -0.2062  0.3012  0.1738
  180MOL0     C24167   1.298   7.660   1.491 -0.2860 -0.0768  0.0897
  180MOL0     O24168   1.275   7.715   1.369 -0.2564 -0.6294  0.1976
  180MOL0     C24169   1.389   7.728   1.285  0.5190 -0.2848 -0.2039
  180MOL0     C24170   1.470   7.846   1.301  0.5826 -0.1725  0.4689
  180MOL0     C24171   1.568   7.874   1.198  0.5754 -0.6085  0.8094
  180MOL0     C24172   1.593   7.775   1.099 -0.6103  0.0309  0.5322
  180MOL0     O24173   1.691   7.802   1.005 -0.8874  0.5955  0.2909
  180MOL0     C24174   1.820   7.740   1.021  0.5556  0.2762  0.8573
  180MOL0     C24175   1.905   7.812   1.130  0.8248  0.6529 -0.0588
  180MOL0     C24176   1.938   7.951   1.075  0.3176  0.4697 -0.1660
  180MOL0     C24177   2.033   8.026   1.174  0.3474  0.1290  0.2934
  180MOL0     C24178   2.085   8.157   1.102  0.3497 -0.1081  0.6008
  180MOL0     C24179   2.156   8.254   1.199 -0.4572 -0.7145  1.0529
  180MOL0     C24180   2.292   8.194   1.254  0.3062  0.2141  0.0095
  180MOL0     C24181   2.374   8.309   1.316  0.5099  0.2894  0.2002
  180MOL0     N24182   2.423   8.393   1.207  0.2023 -0.2860 -0.9847
  180MOL0     C24183   2.530   8.373   1.127 -0.0712  0.3882 -0.1363
  180MOL0     C24184   2.567   8.483   1.064 -0.5692 -0.1398  0.4523
  180MOL0     C24185   2.675   8.499   0.958  0.6024  0.1741  0.8236
  180MOL0     C24186   2.628   8.424   0.833  0.0840 -0.1040 -0.1421
  180MOL0     C24187   2.538   8.504   0.735  0.9056  0.5542 -0.1994
  180MOL0     C24188   2.388   8.532   0.788  0.1514  0.1419  0.6518
  180MOL0     O24189   2.308   8.583   0.680  0.4610  0.0584 -0.8648
  180MOL0     C24190   2.170   8.616   0.699 -0.2316 -0.3609  0.1602
  180MOL0     C24191   2.107   8.614   0.826 -0.2237 -0.0385 -0.1360
  180MOL0     C24192   1.971   8.614   0.824  0.7323 -0.3199 -0.5493
  180MOL0     C24193   1.915   8.586   0.960  0.8786  0.3039  0.4333
  180MOL0     C24194   1.893   8.643   0.708  0.3446 -0.0479 -0.7347
  180MOL0     C24195   1.745   8.657   0.699 -0.3727 -0.1870  0.7580
  180MOL0     O24196   1.668   8.610   0.796 -0.2426 -0.5076  0.0705
  180MOL0     C24197   1.532   8.618   0.801 -0.0005  0.5117  0.3834
  180MOL0     C24198   1.482   8.626   0.930  0.2847 -0.2233 -0.5410
  180MOL0     C24199   1.343   8.624   0.959 -0.0318 -0.6709 -0.6511
  180MOL0     C24200   1.254   8.596   0.861  0.8907  0.4077  0.3417
  180MOL0     O24201   1.127   8.564   0.897  0.1063 -0.3241 -0.3700
  180MOL0     C24202   1.054   8.501   0.796  0.1542  0.5396 -0.4073
  180MOL0     C24203   0.906   8.463   0.848 -1.0552  0.2213  0.1038
  180MOL0     C24204   0.921   8.335   0.918  0.2815  0.6180 -0.5407
  180MOL0     C24205   0.781   8.266   0.949 -0.6389 -0.1902 -0.0146
  180MOL0     C24206   0.801   8.144   1.053 -0.6284 -0.0182 -0.4648
  180MOL0     C24207   0.924   8.061   1.013  0.1693  0.3061 -0.6794
  180MOL0     C24208   0.942   7.955   1.115  0.3816  0.2847  0.4623
  180MOL0     C24209   1.050   7.850   1.078  0.5618  0.3207 -0.1440
  180MOL0    Cl24210   1.041   7.713   1.195 -0.2167  0.0601  0.1942
  180MOL0     C24211   1.301   8.609   0.730 -0.0380 -0.3450 -0.1461
  180MOL0     C24212   1.439   8.616   0.699  0.0166  0.1034  0.5340
  180MOL0     O24213   1.705   8.719   0.599 -0.0419 -0.1787  0.7072
  180MOL0     C24214   1.967   8.669   0.591  0.6128 -0.5033  0.0438
  180MOL0     C24215   2.104   8.656   0.598  0.4653 -0.0334  0.6458
  180MOL0     N24216   2.482   8.584   1.111  0.0735  0.5023 -0.5391
  180MOL0     N24217   2.397   8.527   1.194  0.1775  0.5384  1.1385
  180MOL0     C24218   1.518   7.660   1.085  0.1961  0.1413 -0.2390
  180MOL0     C24219   1.410   7.640   1.173  0.3363 -0.3669  0.0525
  180MOL0     C24220   1.183   7.655   1.582 -0.4688 -0.2205 -0.4246
  180MOL0     C24221   1.064   7.709   1.544  0.4278 -0.4923  0.4194
  180MOL0     C24222   0.950   7.700   1.614 -0.5743 -0.0807 -0.8393
  180MOL0     C24223   0.948   7.634   1.740 -0.6702 -0.2737  0.3022
  180MOL0     O24224   0.842   7.630   1.823 -0.1253  0.4332  0.1946
  180MOL0     C24225   0.707   7.662   1.777 -0.3091  0.3023  0.1758
  180MOL0     C24226   0.612   7.582   1.860 -0.0954 -0.3899 -0.0574
  180MOL0     C24227   0.467   7.634   1.865 -0.3317 -0.2155  0.4465
  180MOL0     C24228   0.386   7.564   1.977  0.2466 -0.8842  0.6893
  180MOL0     C24229   0.358   7.425   1.939  0.5229  0.2426 -0.9606
  180MOL0     C24230   0.328   7.315   1.902  0.1102  0.5256  0.7956
  180MOL0     C24231   1.069   7.579   1.783  0.4555 -0.5260 -0.1514
  180MOL0     C24232   1.183   7.591   1.706  0.0542  0.0973 -0.4290
  180MOL0     H24233   1.429   7.922   1.366 -1.0079  0.1883 -0.8780
  180MOL0     H24234   1.617   7.971   1.197 -0.7804  0.0894  0.4792
  180MOL0     H24235   1.803   7.637   1.056  2.2943 -0.0949  0.6823
  180MOL0     H24236   1.876   7.739   0.927  1.9268 -0.5657  1.6575
  180MOL0     H24237   1.851   7.799   1.225  0.0935  0.4188 -0.4990
  180MOL0     H24238   1.999   7.756   1.142  0.5435  0.4418  1.4627
  180MOL0     H24239   1.981   7.943   0.975 -0.9348  1.8861 -0.8587
  180MOL0     H24240   1.842   8.003   1.070 -0.4422 -0.2300  3.8119
  180MOL0     H24241   1.972   8.060   1.258 -0.0328  0.5781 -0.1504
  180MOL0     H24242   2.107   7.962   1.222  1.8713  0.4474 -1.4747
  180MOL0     H24243   2.158   8.132   1.024  0.5472  2.4679 -0.1241
  180MOL0     H24244   2.003   8.207   1.050  1.6199  3.2926  1.6416
  180MOL0     H24245   2.178   8.341   1.136  0.1238 -1.0832  0.7338
  180MOL0     H24246   2.096   8.288   1.284 -0.5293  1.4889  0.1959
  180MOL0     H24247   2.273   8.116   1.329  1.1907  0.3684  0.4000
  180MOL0     H24248   2.353   8.138   1.183  0.7005 -2.1559  2.0932
  180MOL0     H24249   2.457   8.266   1.374  1.9663 -1.0900 -2.6753
  180MOL0     H24250   2.314   8.364   1.388 -1.1916  0.9742 -1.6458
  180MOL0     H24251   2.582   8.282   1.099 -0.4418  0.3673 -0.7822
  180MOL0     H24252   2.701   8.603   0.937 -0.1003  0.2701  0.3805
  180MOL0     H24253   2.768   8.450   0.988  0.0423 -0.7616  1.0424
  180MOL0     H24254   2.589   8.323   0.848  0.0643 -0.4691 -2.3040
  180MOL0     H24255   2.724   8.407   0.783  0.7301  1.4142  0.5302
  180MOL0     H24256   2.527   8.454   0.638 -0.4716 -0.7531  0.5904
  180MOL0     H24257   2.568   8.607   0.712  0.4287  0.6156 -0.5665
  180MOL0     H24258   2.391   8.599   0.874  1.5848 -1.4776  1.9258
  180MOL0     H24259   2.341   8.437   0.816 -3.0920  1.4232  0.0288
  180MOL0     H24260   2.165   8.585   0.914 -0.5119 -0.5884 -0.1224
  180MOL0     H24261   1.830   8.518   0.958  2.0172 -1.1373 -0.1030
  180MOL0     H24262   1.986   8.546   1.033  0.6103  0.3724  0.7376
  180MOL0     H24263   1.873   8.679   1.000  0.2218 -0.0710  0.6270
  180MOL0     H24264   1.548   8.630   1.017 -0.0964  0.6296 -0.2776
  180MOL0     H24265   1.307   8.644   1.060 -1.7393  1.4870 -1.6210
  180MOL0     H24266   1.042   8.568   0.711  0.0128  1.0873  0.0373
  180MOL0     H24267   1.107   8.412   0.761  0.6030 -0.3627  2.3119
  180MOL0     H24268   0.874   8.539   0.919  2.8543 -0.3353  2.7813
  180MOL0     H24269   0.825   8.462   0.774 -0.5142 -0.5225 -0.5019
  180MOL0     H24270   0.957   8.355   1.019  3.0537 -3.3661 -0.4813
  180MOL0     H24271   0.986   8.265   0.865 -2.7966 -2.0071 -1.2227
  180MOL0     H24272   0.715   8.349   0.972 -2.4900 -0.8781 -2.3850
  180MOL0     H24273   0.728   8.239   0.857 -2.9619  1.2125  0.8243
  180MOL0     H24274   0.712   8.081   1.044 -0.6658  0.1802 -1.7468
  180MOL0     H24275   0.822   8.169   1.157  2.7625 -0.0911 -1.0333
  180MOL0     H24276   0.907   8.011   0.917  0.3344 -0.9878 -0.0671
  180MOL0     H24277   1.013   8.123   1.020 -0.0302  0.3887  2.7422
  180MOL0     H24278   0.846   7.903   1.127  1.2025 -1.1616  1.0637
  180MOL0     H24279   0.973   8.013   1.202  2.8824 -0.1514 -0.0744
  180MOL0     H24280   1.148   7.893   1.056  1.2603 -1.2135 -0.1762
  180MOL0     H24281   1.020   7.805   0.983  4.1073 -1.3521 -0.6072
  180MOL0     H24282   1.234   8.593   0.646 -0.9935  2.0527  0.0797
  180MOL0     H24283   1.465   8.604   0.594  0.0327  0.6328  0.4740
  180MOL0     H24284   1.932   8.700   0.493  0.2513  2.6770  1.0692
  180MOL0     H24285   2.161   8.649   0.506 -0.6397  1.6131 -0.2019
  180MOL0     H24286   1.530   7.577   1.015 -0.1460 -0.3730  0.2970
  180MOL0     H24287   1.351   7.549   1.168  0.5594 -0.5569  0.8329
  180MOL0     H24288   1.055   7.761   1.449 -0.8851 -0.1067  0.7347
  180MOL0     H24289   0.868   7.750   1.564  0.2017  1.0920 -0.9797
  180MOL0     H24290   0.692   7.770   1.785  1.1252  0.6913 -1.5312
  180MOL0     H24291   0.687   7.629   1.674 -3.1874 -1.4271  1.1674
  180MOL0     H24292   0.651   7.577   1.962 -0.3295  3.1277  0.3318
  180MOL0     H24293   0.613   7.479   1.823 -1.0577 -1.0064  1.5169
  180MOL0     H24294   0.420   7.613   1.768 -0.9010  1.7190  0.2576
  180MOL0     H24295   0.448   7.741   1.877 -2.8419 -0.5639  0.2125
  180MOL0     H24296   0.287   7.608   1.990 -0.9451 -2.5853 -1.8983
  180MOL0     H24297   0.444   7.577   2.069 -1.0175  1.5580  1.2255
  180MOL0     H24298   0.299   7.218   1.868  2.2917 -0.1607  0.7287
  180MOL0     H24299   1.074   7.541   1.884 -2.7773 -1.5168 -0.2591
  180MOL0     H24300   1.278   7.554   1.745 -0.6577  0.4816  1.7931
  181MOL0     O24301   9.680   0.432   6.664  0.2685 -0.2640 -0.2483
  181MOL0     C24302   9.729   0.323   6.699 -0.7565  0.2428  0.5353
  181MOL0     O24303   9.664   0.201   6.688  0.3073 -0.4194  0.1483
  181MOL0     C24304   9.530   0.204   6.651  0.6646  0.2024 -0.6638
  181MOL0     C24305   9.429   0.206   6.746  0.2470 -0.3095 -0.0527
  181MOL0     C24306   9.298   0.221   6.702 -0.0093  0.3153  0.7792
  181MOL0     C24307   9.259   0.233   6.568 -0.2119  0.5919  0.0269
  181MOL0     O24308   9.127   0.247   6.541 -0.3951 -0.3847 -0.0550
  181MOL0     C24309   9.088   0.270   6.400  0.0606  0.1165  0.1337
  181MOL0     C24310   8.938   0.290   6.394  0.8401  0.1918 -0.3063
  181MOL0     C24311   8.900   0.420   6.477  0.7395 -0.5606  0.4351
  181MOL0     C24312   8.853   0.383   6.619 -1.2740  0.3746 -0.3835
  181MOL0     C24313   8.784   0.498   6.688  0.2637 -0.0081 -0.0226
  181MOL0     C24314   8.724   0.458   6.832  0.2912  0.1689 -0.3919
  181MOL0     C24315   8.624   0.343   6.828 -0.0112  0.0449  0.0615
  181MOL0     C24316   8.503   0.368   6.738  0.4286 -0.7205 -0.6112
  181MOL0     N24317   8.424   0.489   6.774 -0.6426 -0.0250 -0.1658
  181MOL0     C24318   8.332   0.491   6.874 -0.3843 -0.5872  1.0133
  181MOL0     C24319   8.298   0.621   6.882  0.2730 -0.0480  0.7775
  181MOL0     C24320   8.195   0.694   6.975  0.5455  0.0616  0.0127
  181MOL0     C24321   8.257   0.767   7.105  0.5633  0.4456  0.7760
  181MOL0     C24322   8.156   0.867   7.155  0.3003  1.0047 -0.1919
  181MOL0     C24323   8.198   0.918   7.298  0.0370  0.5661  0.2429
  181MOL0     O24324   8.221   0.808   7.381  0.2924  0.1852  0.8464
  181MOL0     C24325   8.118   0.765   7.468  0.2346 -1.0651  0.0886
  181MOL0     C24326   7.982   0.803   7.472  0.5405  0.2114  0.6374
  181MOL0     C24327   7.889   0.754   7.561 -0.2234 -1.4083  0.1753
  181MOL0     C24328   7.746   0.802   7.544  0.1069 -0.4324 -0.0974
  181MOL0     C24329   7.935   0.661   7.652 -0.1976 -0.0561 -0.2081
  181MOL0     C24330   7.839   0.595   7.745  0.4567 -0.3508  0.5455
  181MOL0     O24331   7.889   0.545   7.864  0.5495 -0.0768 -0.0659
  181MOL0     C24332   7.824   0.447   7.945  0.3769 -0.3369 -0.6626
  181MOL0     C24333   7.679   0.452   7.964  0.2427 -0.5242 -0.0344
  181MOL0     C24334   7.627   0.362   8.062 -0.1796 -0.6130 -0.3726
  181MOL0     C24335   7.697   0.246   8.104 -0.7722  0.2242  0.3916
  181MOL0     O24336   7.647   0.150   8.185 -1.1521  0.6783  0.3600
  181MOL0     C24337   7.511   0.103   8.150 -0.3529  0.4459  0.4342
  181MOL0     C24338   7.512   0.023   8.020  0.3379 -0.9471  0.9939
  181MOL0     C24339   7.365  -0.023   7.973  0.7808 -0.2273 -0.3003
  181MOL0     C24340   7.288  -0.105   8.079  0.3153  0.4638  0.9772
  181MOL0     C24341   7.158  -0.161   8.011 -0.5915 -0.3966  0.0511
  181MOL0     C24342   7.059  -0.238   8.109 -0.2904 -0.1460 -0.1934
  181MOL0     C24343   6.952  -0.309   8.016 -0.0748  0.2585 -0.1880
  181MOL0     C24344   6.852  -0.381   8.103  0.6780  0.2615 -0.6857
  181MOL0    Cl24345   6.743  -0.245   8.163  0.0029 -0.3066 -0.0188
  181MOL0     C24346   7.835   0.240   8.074 -0.0506 -0.0445  0.3189
  181MOL0     C24347   7.895   0.333   7.989  0.1821  0.9524  0.0620
  181MOL0     O24348   7.725   0.563   7.700 -0.0818 -0.1265  0.3724
  181MOL0     C24349   8.073   0.624   7.659  0.2846  0.1620 -0.6739
  181MOL0     C24350   8.160   0.681   7.571 -0.0554  0.6778 -0.3402
  181MOL0     N24351   8.358   0.695   6.772  0.1496 -0.0916  0.1899
  181MOL0     N24352   8.445   0.618   6.717  0.0587  0.0195 -0.3610
  181MOL0     C24353   9.358   0.222   6.475 -0.1375  0.1551  0.3705
  181MOL0     C24354   9.495   0.211   6.520  0.1223  0.0577  0.3863
  181MOL0     C24355   9.873   0.312   6.724  0.5965 -0.0102 -0.3376
  181MOL0     C24356   9.949   0.201   6.687 -0.7594  0.2633 -0.8676
  181MOL0     C24357  10.077   0.188   6.735 -0.3858  0.1056 -1.2914
  181MOL0     C24358  10.140   0.290   6.802  0.0633 -0.6575 -0.0505
  181MOL0     O24359  10.273   0.283   6.836 -0.6627 -0.4225  0.1712
  181MOL0     C24360  10.357   0.198   6.757  0.7954  0.5345  0.4922
  181MOL0     C24361  10.507   0.242   6.752 -0.7151  0.4638  0.3144
  181MOL0     C24362  10.555   0.281   6.891 -0.8127 -0.1177  0.7375
  181MOL0     C24363  10.696   0.331   6.880 -0.5196 -0.3742 -0.1905
  181MOL0     C24364  10.754   0.384   7.009  0.0069 -0.2114 -0.3627
  181MOL0     C24365  10.786   0.433   7.120 -0.5633  0.2084 -1.3461
  181MOL0     C24366  10.075   0.409   6.827 -0.0869  0.4135 -0.6773
  181MOL0     C24367   9.937   0.421   6.797 -0.4929 -0.0754 -0.7182
  181MOL0     H24368   9.453   0.203   6.852  0.3619  1.2812 -0.0155
  181MOL0     H24369   9.218   0.188   6.767  0.3024 -0.2420  0.8821
  181MOL0     H24370   9.145   0.352   6.356 -0.3991  1.4516  1.8988
  181MOL0     H24371   9.107   0.179   6.342  0.9963 -0.7513  1.7071
  181MOL0     H24372   8.910   0.315   6.291 -2.8553  0.8873  0.7121
  181MOL0     H24373   8.891   0.197   6.427  1.2404  0.8491  2.2883
  181MOL0     H24374   8.974   0.500   6.490 -1.5626  1.8609 -0.5013
  181MOL0     H24375   8.816   0.468   6.427  0.8241 -0.6178  0.2366
  181MOL0     H24376   8.798   0.288   6.627 -2.2800  0.9552 -0.1931
  181MOL0     H24377   8.942   0.354   6.675  0.1983 -3.5286 -4.1933
  181MOL0     H24378   8.864   0.572   6.697  0.1071  0.4334 -1.9189
  181MOL0     H24379   8.710   0.534   6.617 -0.6276 -0.9718  0.3820
  181MOL0     H24380   8.803   0.431   6.903 -1.5183  0.6303  1.8959
  181MOL0     H24381   8.674   0.544   6.877 -2.5494 -1.0501 -1.0157
  181MOL0     H24382   8.667   0.247   6.802  2.7005  1.4475 -0.9887
  181MOL0     H24383   8.591   0.341   6.933 -1.9767  0.4073 -0.5063
  181MOL0     H24384   8.436   0.282   6.732  0.0866 -0.7133  1.8727
  181MOL0     H24385   8.540   0.382   6.636  2.0227  0.7733  0.1149
  181MOL0     H24386   8.298   0.406   6.932  1.2031 -1.1642  1.1409
  181MOL0     H24387   8.144   0.772   6.918 -0.0595  0.2729  0.8256
  181MOL0     H24388   8.123   0.618   7.005  0.4951 -0.1157 -0.5422
  181MOL0     H24389   8.334   0.829   7.058 -0.7895  1.0543 -0.7634
  181MOL0     H24390   8.290   0.683   7.168 -0.0939 -1.5195 -1.3454
  181MOL0     H24391   8.054   0.827   7.157  1.4370 -2.8562 -3.8432
  181MOL0     H24392   8.157   0.954   7.088 -0.9163  0.5268 -0.8771
  181MOL0     H24393   8.133   0.989   7.349  0.9986  1.6670 -0.0110
  181MOL0     H24394   8.293   0.971   7.286  0.6448 -0.6108 -0.3186
  181MOL0     H24395   7.937   0.870   7.400 -4.2109 -1.2949  1.8420
  181MOL0     H24396   7.700   0.823   7.641  2.6548 -2.9768  1.8236
  181MOL0     H24397   7.736   0.888   7.478  1.2165 -0.6853 -0.6147
  181MOL0     H24398   7.680   0.723   7.507 -0.1892 -0.2599  0.0570
  181MOL0     H24399   7.614   0.529   7.925  0.8914 -1.2937 -2.8124
  181MOL0     H24400   7.527   0.368   8.102  1.3959  0.6530  3.8478
  181MOL0     H24401   7.490   0.036   8.234 -0.2396  0.5873  0.5746
  181MOL0     H24402   7.444   0.189   8.164  0.7698  1.4332 -0.1283
  181MOL0     H24403   7.555   0.079   7.937  2.0142 -1.4608  1.4717
  181MOL0     H24404   7.577  -0.064   8.012  2.0535  0.4759 -2.9471
  181MOL0     H24405   7.373  -0.079   7.880  0.0144 -1.2920  0.2392
  181MOL0     H24406   7.301   0.061   7.943  0.6708  0.2383  1.1331
  181MOL0     H24407   7.342  -0.196   8.105 -0.6726 -1.0969 -1.8841
  181MOL0     H24408   7.272  -0.050   8.172 -1.4473 -2.4828  2.5408
  181MOL0     H24409   7.196  -0.235   7.939  3.2504  2.3037 -1.0086
  181MOL0     H24410   7.106  -0.073   7.973  1.4454  1.3845  1.1214
  181MOL0     H24411   7.115  -0.318   8.157 -0.3390  0.7379  1.4231
  181MOL0     H24412   7.010  -0.164   8.174  0.3868  1.1399 -1.0882
  181MOL0     H24413   6.996  -0.380   7.945 -0.4157  0.6733 -0.8259
  181MOL0     H24414   6.899  -0.229   7.964 -1.5905 -0.3866  0.2958
  181MOL0     H24415   6.893  -0.443   8.183 -0.0397 -0.4928 -0.8866
  181MOL0     H24416   6.784  -0.445   8.045  0.4102  1.8213 -2.1637
  181MOL0     H24417   7.897   0.158   8.109  1.4083  0.6453 -0.5264
  181MOL0     H24418   7.999   0.323   7.962 -0.1254  1.2260 -1.2940
  181MOL0     H24419   8.114   0.557   7.734 -2.6709 -0.0491  0.9166
  181MOL0     H24420   8.266   0.659   7.564  0.0082  1.2927 -1.6533
  181MOL0     H24421   9.349   0.236   6.368 -0.9328 -2.2782  0.0832
  181MOL0     H24422   9.569   0.212   6.440 -0.9612 -0.1431 -0.6320
  181MOL0     H24423   9.910   0.127   6.618 -3.9763 -0.0395  1.0909
  181MOL0     H24424  10.135   0.097   6.722  2.1986  1.9414 -3.8275
  181MOL0     H24425  10.368   0.102   6.808  0.0509  0.8363  1.2525
  181MOL0     H24426  10.330   0.177   6.654  4.7513 -3.4966 -0.0234
  181MOL0     H24427  10.530   0.323   6.683 -2.2140  1.4533  0.9238
  181MOL0     H24428  10.563   0.155   6.718  1.6919  1.7136  0.8621
  181MOL0     H24429  10.560   0.186   6.946  3.0844 -1.4854 -1.5622
  181MOL0     H24430  10.499   0.367   6.930 -0.3895  0.8860 -0.7894
  181MOL0     H24431  10.693   0.413   6.807 -0.8955  0.7551  1.0415
  181MOL0     H24432  10.756   0.242   6.859 -0.3894  0.2015 -2.5490
  181MOL0     H24433  10.810   0.488   7.209  0.3314 -1.5758 -0.4247
  181MOL0     H24434  10.122   0.496   6.873 -2.2234  2.1909 -1.6480
  181MOL0     H24435   9.890   0.513   6.830 -1.7741 -1.6995  2.3279
  182MOL0     O24436   7.520   8.174   0.805  0.7608  0.6398 -0.4393
  182MOL0     C24437   7.516   8.233   0.913  0.0125  0.1313  0.3657
  182MOL0     O24438   7.623   8.275   0.979 -0.2153 -0.8387 -0.4055
  182MOL0     C24439   7.754   8.243   0.933  1.3561  0.0156 -0.3484
  182MOL0     C24440   7.819   8.142   1.001  0.0243  0.6174 -0.4615
  182MOL0     C24441   7.949   8.108   0.965 -0.5699 -0.9163  0.2149
  182MOL0     C24442   8.016   8.181   0.865  0.4926 -0.7120 -0.3722
  182MOL0     O24443   8.145   8.136   0.845  0.0325  0.2941  0.4819
  182MOL0     C24444   8.220   8.159   0.722  0.7783  0.4618 -0.2234
  182MOL0     C24445   8.300   8.292   0.737 -0.4615 -0.0398 -0.3047
  182MOL0     C24446   8.393   8.323   0.624 -0.6037  0.4774  0.1661
  182MOL0     C24447   8.516   8.230   0.625 -0.0809  1.3477 -0.5572
  182MOL0     C24448   8.606   8.275   0.517 -0.0953  0.6474  0.1496
  182MOL0     C24449   8.733   8.182   0.505 -0.0747  0.0593 -0.4192
  182MOL0     C24450   8.837   8.251   0.418  0.9250  0.0773 -0.2951
  182MOL0     C24451   8.952   8.151   0.382  0.7871  0.7538  0.6652
  182MOL0     N24452   8.929   8.031   0.301  0.2062  0.0445 -0.4350
  182MOL0     C24453   8.846   8.021   0.196 -0.0131  0.1551  0.1092
  182MOL0     C24454   8.871   7.894   0.149 -0.7449  0.5635  0.5251
  182MOL0     C24455   8.809   7.836   0.032  0.1297 -0.6033  0.0743
  182MOL0     C24456   8.699   7.726   0.052  0.9090 -0.2823 -0.4864
  182MOL0     C24457   8.624   7.732   0.185 -0.2598 -0.1994 -0.7293
  182MOL0     C24458   8.536   7.605   0.196 -0.6811 -0.6576  0.1882
  182MOL0     O24459   8.472   7.574   0.077 -1.0935  0.2209  0.0898
  182MOL0     C24460   8.383   7.472   0.067  1.1116 -0.8923  0.3030
  182MOL0     C24461   8.358   7.381   0.173  0.5276  0.0958 -0.1267
  182MOL0     C24462   8.255   7.287   0.163 -0.0741  0.5797 -0.0636
  182MOL0     C24463   8.222   7.206   0.291  0.6639  0.7045 -0.2987
  182MOL0     C24464   8.167   7.293   0.049 -0.9667 -0.3408 -0.5911
  182MOL0     C24465   8.043   7.210   0.034 -0.1247  1.6753 -0.2682
  182MOL0     O24466   7.929   7.279   0.020  0.9349 -0.1862 -0.2899
  182MOL0     C24467   7.810   7.211   0.006 -0.1179  0.3302  0.0630
  182MOL0     C24468   7.765   7.163  -0.122  0.2232  0.5745  0.4453
  182MOL0     C24469   7.637   7.117  -0.133  0.0825  0.5784 -0.2891
  182MOL0     C24470   7.560   7.099  -0.019  0.0476  0.8156  0.5723
  182MOL0     O24471   7.436   7.059  -0.038  0.1820 -0.2046 -0.1482
  182MOL0     C24472   7.355   7.027   0.077  0.6747  0.2007  0.0141
  182MOL0     C24473   7.218   6.983   0.028 -0.1235 -0.2545 -0.0221
  182MOL0     C24474   7.151   7.103  -0.030 -0.4559  0.5248  0.7455
  182MOL0     C24475   7.018   7.067  -0.093  0.2994 -0.0040 -1.3588
  182MOL0     C24476   6.955   7.193  -0.147 -0.4877 -0.0796 -1.0448
  182MOL0     C24477   6.805   7.186  -0.146  0.9874  0.9828 -0.0704
  182MOL0     C24478   6.758   7.066  -0.233  0.5774  0.6090 -0.2825
  182MOL0     C24479   6.601   7.062  -0.237  0.1445 -0.3577  0.2064
  182MOL0    Cl24480   6.531   7.205  -0.312 -0.5154 -0.0650 -0.0768
  182MOL0     C24481   7.613   7.122   0.103  0.3605  0.0951  0.2169
  182MOL0     C24482   7.735   7.177   0.115 -1.3266 -0.8064  0.1580
  182MOL0     O24483   8.059   7.091   0.022 -0.4285  0.2887 -0.0453
  182MOL0     C24484   8.196   7.386  -0.049  0.2650 -0.2242 -0.1017
  182MOL0     C24485   8.298   7.470  -0.048 -0.2104 -1.0505  0.2905
  182MOL0     N24486   8.947   7.823   0.245  0.3126 -0.2964  0.3002
  182MOL0     N24487   8.983   7.911   0.335  0.2800 -0.6026  0.2176
  182MOL0     C24488   7.951   8.283   0.797 -0.1363  0.3362  0.3226
  182MOL0     C24489   7.823   8.326   0.841  0.1192  1.1491  0.2921
  182MOL0     C24490   7.385   8.262   0.976 -0.3721  0.5463  0.1339
  182MOL0     C24491   7.262   8.190   0.948 -0.7088  1.3740  0.1888
  182MOL0     C24492   7.150   8.231   1.017 -0.1482  0.0242 -0.2868
  182MOL0     C24493   7.147   8.340   1.097 -0.4183 -0.6173  0.5597
  182MOL0     O24494   7.032   8.382   1.149  0.1580  0.2419  1.0445
  182MOL0     C24495   6.999   8.507   1.203  0.1185 -0.4484 -0.3449
  182MOL0     C24496   6.999   8.505   1.360 -0.5313  0.2502  0.3994
  182MOL0     C24497   6.881   8.578   1.427  0.0771 -0.3268  0.0280
  182MOL0     C24498   6.857   8.721   1.364  0.2003 -0.1388  0.1341
  182MOL0     C24499   6.971   8.807   1.392 -0.5020 -0.4026 -0.0185
  182MOL0     C24500   7.066   8.894   1.402 -0.1462 -0.4298  0.4622
  182MOL0     C24501   7.269   8.400   1.125  0.4125  0.1366 -0.5745
  182MOL0     C24502   7.385   8.367   1.067  0.5144 -1.3149  0.7113
  182MOL0     H24503   7.769   8.091   1.083 -0.3440 -0.2192 -1.1772
  182MOL0     H24504   7.996   8.023   1.014 -0.0030 -1.0225 -0.4922
  182MOL0     H24505   8.278   8.070   0.697  0.4291  0.3918 -0.8015
  182MOL0     H24506   8.144   8.177   0.645 -0.5096  0.3901  0.9746
  182MOL0     H24507   8.227   8.372   0.751 -0.6740 -0.0963 -1.0336
  182MOL0     H24508   8.361   8.289   0.827 -0.5355  0.6871 -0.2278
  182MOL0     H24509   8.339   8.308   0.530  2.2625 -1.3975 -1.3006
  182MOL0     H24510   8.424   8.426   0.642  0.1804  0.8861 -3.0287
  182MOL0     H24511   8.568   8.243   0.720 -3.0632 -1.5677  1.7005
  182MOL0     H24512   8.480   8.129   0.605  0.2288  1.1533 -0.1342
  182MOL0     H24513   8.558   8.277   0.419  2.6498  1.6119 -1.3008
  182MOL0     H24514   8.638   8.377   0.542  1.3159  0.7978 -1.9754
  182MOL0     H24515   8.769   8.175   0.608 -1.6335 -0.6256  0.1041
  182MOL0     H24516   8.694   8.086   0.473 -1.6270  0.5994 -0.2015
  182MOL0     H24517   8.787   8.283   0.326  1.9199  2.4323 -0.0871
  182MOL0     H24518   8.884   8.333   0.472 -1.0470  0.4589  0.9522
  182MOL0     H24519   9.007   8.123   0.473  3.7130  1.3669 -0.7867
  182MOL0     H24520   9.014   8.215   0.318  3.4059  2.2384  4.3463
  182MOL0     H24521   8.781   8.098   0.155  1.7308  1.4275 -0.3839
  182MOL0     H24522   8.763   7.912  -0.032  0.0448 -0.3633  0.4229
  182MOL0     H24523   8.897   7.818  -0.031 -1.8730  2.6233 -4.2218
  182MOL0     H24524   8.751   7.629   0.058  3.0761  0.8997  3.1396
  182MOL0     H24525   8.638   7.734  -0.039  0.1821  0.5307  0.0668
  182MOL0     H24526   8.564   7.823   0.198  1.3978  0.5434  2.8606
  182MOL0     H24527   8.700   7.735   0.263 -1.1045  2.5458  0.1025
  182MOL0     H24528   8.473   7.613   0.285  1.3460 -0.1264  1.6411
  182MOL0     H24529   8.603   7.524   0.223 -1.0802 -1.8659 -2.2017
  182MOL0     H24530   8.414   7.389   0.265  0.1798  0.5003  0.0515
  182MOL0     H24531   8.315   7.168   0.332 -0.3247 -0.9314  0.5163
  182MOL0     H24532   8.184   7.273   0.369  1.4846  2.3911 -1.2849
  182MOL0     H24533   8.145   7.129   0.279 -1.1292  2.4385 -0.5522
  182MOL0     H24534   7.830   7.171  -0.209  1.2505 -0.0757  1.1259
  182MOL0     H24535   7.600   7.094  -0.233  0.0501 -3.8032  0.5210
  182MOL0     H24536   7.404   6.944   0.130 -0.6658 -0.7162 -0.1233
  182MOL0     H24537   7.352   7.114   0.144 -0.7227  2.3102 -2.5904
  182MOL0     H24538   7.231   6.920  -0.061 -3.1777 -0.6151 -0.3157
  182MOL0     H24539   7.165   6.945   0.115  0.9167  0.9255  1.1774
  182MOL0     H24540   7.216   7.147  -0.107 -1.6232  1.3427  0.2028
  182MOL0     H24541   7.134   7.179   0.047 -1.4969  1.4040 -0.3172
  182MOL0     H24542   7.019   6.988  -0.168 -3.4031 -1.9628  0.3966
  182MOL0     H24543   6.948   7.032  -0.017 -0.3199 -0.8216 -2.2968
  182MOL0     H24544   6.992   7.224  -0.246  1.5392  1.1956  0.0375
  182MOL0     H24545   6.979   7.274  -0.078 -0.3790 -0.8546 -0.1652
  182MOL0     H24546   6.762   7.177  -0.046  1.3783  1.5777  0.1591
  182MOL0     H24547   6.766   7.279  -0.187 -0.7587 -0.6513 -2.3904
  182MOL0     H24548   6.792   6.970  -0.194 -1.8524  0.4512  1.7078
  182MOL0     H24549   6.794   7.069  -0.336  2.2417 -0.6337  0.2376
  182MOL0     H24550   6.559   7.045  -0.137 -1.4825  3.4115  0.3219
  182MOL0     H24551   6.566   6.977  -0.297  0.3881 -2.9594  3.4818
  182MOL0     H24552   7.565   7.107   0.199  0.3520 -0.7492  0.0874
  182MOL0     H24553   7.786   7.193   0.209 -1.5840 -1.3604  0.3971
  182MOL0     H24554   8.134   7.381  -0.138  0.3489 -0.3729 -0.1513
  182MOL0     H24555   8.313   7.550  -0.120 -0.4417  0.4853  1.8743
  182MOL0     H24556   8.016   8.337   0.729  0.5835 -0.2216  0.5577
  182MOL0     H24557   7.776   8.414   0.799  0.4604  1.5490  0.7477
  182MOL0     H24558   7.257   8.110   0.875  3.6156 -1.2216  2.3635
  182MOL0     H24559   7.056   8.181   1.000 -0.0572 -1.2790  2.4893
  182MOL0     H24560   7.064   8.588   1.167 -0.2723 -1.8396 -4.8216
  182MOL0     H24561   6.904   8.531   1.155  1.4033  0.7139 -2.4649
  182MOL0     H24562   7.094   8.544   1.399 -0.5345  0.0393  0.6202
  182MOL0     H24563   7.005   8.402   1.397 -3.3355 -0.8339 -1.8704
  182MOL0     H24564   6.881   8.582   1.537  1.1750 -0.2474  0.0315
  182MOL0     H24565   6.794   8.524   1.390 -0.2490 -0.4512  0.9333
  182MOL0     H24566   6.765   8.766   1.402 -0.4124 -1.1859 -0.0747
  182MOL0     H24567   6.851   8.713   1.255  4.1259  1.9981 -0.4188
  182MOL0     H24568   7.145   8.965   1.414  2.3616 -2.4904 -2.3328
  182MOL0     H24569   7.268   8.472   1.206 -5.3431 -1.0176  0.9183
  182MOL0     H24570   7.474   8.425   1.085 -1.3243  1.5160  1.3648
  183MOL0     O24571   7.701   2.028   2.642 -0.4807  0.8856 -0.4552
  183MOL0     C24572   7.717   1.937   2.726 -0.4398 -0.1857 -0.2701
  183MOL0     O24573   7.652   1.825   2.737 -0.0221 -0.2367 -0.5004
  183MOL0     C24574   7.564   1.788   2.646 -0.0813  0.1096 -0.1053
  183MOL0     C24575   7.464   1.870   2.586 -0.2261  0.1769 -0.3233
  183MOL0     C24576   7.374   1.806   2.499  0.2747 -0.2282  0.1375
  183MOL0     C24577   7.362   1.665   2.479  0.4951 -0.6828  0.1685
  183MOL0     O24578   7.266   1.605   2.397 -0.9036  0.1171  0.5577
  183MOL0     C24579   7.167   1.682   2.322  0.2662  0.2193 -0.5003
  183MOL0     C24580   7.048   1.681   2.408  0.7094  0.1634 -0.3030
  183MOL0     C24581   6.986   1.544   2.447 -0.0999 -0.4500  0.1486
  183MOL0     C24582   7.028   1.492   2.590 -0.4414 -0.2176  0.6126
  183MOL0     C24583   6.940   1.364   2.609  0.3625 -0.2904 -0.6830
  183MOL0     C24584   6.984   1.240   2.542 -0.6643  0.0636  1.1022
  183MOL0     C24585   6.895   1.125   2.596 -0.7926 -0.8220  1.6207
  183MOL0     C24586   6.880   1.007   2.511  0.0517  0.4494  1.2506
  183MOL0     N24587   6.787   1.037   2.397 -0.3426  0.0267 -1.0080
  183MOL0     C24588   6.656   1.010   2.396  0.6061  0.8370 -0.8913
  183MOL0     C24589   6.623   1.023   2.265  0.5098 -0.1107 -0.8948
  183MOL0     C24590   6.477   0.997   2.226 -0.2612  0.0779  0.9028
  183MOL0     C24591   6.462   0.938   2.088  0.2916  0.1777  0.1477
  183MOL0     C24592   6.309   0.915   2.043  0.1047  0.2610  0.8308
  183MOL0     C24593   6.289   0.838   1.917 -0.2729 -0.0734  0.4228
  183MOL0     O24594   6.152   0.807   1.894 -0.2401 -1.0831  0.5885
  183MOL0     C24595   6.095   0.699   1.954 -0.5125  0.5504  0.5804
  183MOL0     C24596   5.960   0.679   1.936  0.4615 -0.3826  0.5195
  183MOL0     C24597   5.884   0.570   1.974  0.3088  0.5084 -0.6767
  183MOL0     C24598   5.738   0.568   1.931  0.3465  0.8276  0.6711
  183MOL0     C24599   5.949   0.462   2.045 -0.6604 -0.2314 -0.4589
  183MOL0     C24600   5.887   0.333   2.084 -0.6592  0.8380 -0.4472
  183MOL0     O24601   5.758   0.332   2.077 -0.3629  0.1249  0.3028
  183MOL0     C24602   5.669   0.239   2.139 -0.3660  0.7242 -0.6262
  183MOL0     C24603   5.695   0.160   2.250 -0.3898 -0.0085  0.4552
  183MOL0     C24604   5.589   0.083   2.298  0.4173  0.1841  1.0184
  183MOL0     C24605   5.457   0.088   2.240  0.2227 -0.3250  0.2131
  183MOL0     O24606   5.353   0.032   2.300  0.0900  0.3017  0.8052
  183MOL0     C24607   5.250  -0.030   2.211 -0.3117 -0.3079  0.6020
  183MOL0     C24608   5.189  -0.155   2.284  0.2652  0.8753 -0.3198
  183MOL0     C24609   5.033  -0.163   2.263 -0.5439 -0.0722  0.0205
  183MOL0     C24610   4.975  -0.301   2.295 -0.1326 -0.2511  0.7841
  183MOL0     C24611   5.039  -0.422   2.221 -0.6843 -0.1659  0.3452
  183MOL0     C24612   4.952  -0.547   2.195  0.3479 -0.5637 -0.9352
  183MOL0     C24613   5.008  -0.637   2.096  0.5144 -0.1923  0.9122
  183MOL0     C24614   4.918  -0.764   2.083  0.3888 -0.2396 -0.3132
  183MOL0    Cl24615   4.943  -0.855   2.232  0.2454  0.3757  0.0710
  183MOL0     C24616   5.443   0.155   2.123 -0.1021  0.2235 -1.0112
  183MOL0     C24617   5.545   0.230   2.075 -1.2976 -0.3523  0.1839
  183MOL0     O24618   5.966   0.245   2.127 -0.1202  0.1641 -0.4368
  183MOL0     C24619   6.086   0.485   2.076 -1.2310 -0.4595  0.0004
  183MOL0     C24620   6.157   0.597   2.036  0.1935 -0.5477 -0.1523
  183MOL0     N24621   6.732   1.062   2.199 -0.5994  0.9243  0.3125
  183MOL0     N24622   6.833   1.060   2.273 -0.5903  0.9421 -0.1024
  183MOL0     C24623   7.457   1.591   2.542 -0.9865 -0.5636 -0.0117
  183MOL0     C24624   7.555   1.647   2.629 -0.1265 -0.3271  0.2919
  183MOL0     C24625   7.813   1.968   2.840 -0.6784 -0.3420 -0.4089
  183MOL0     C24626   7.893   2.084   2.828 -0.4690 -0.2583  0.1795
  183MOL0     C24627   8.008   2.104   2.908  1.1138  0.2018 -0.3681
  183MOL0     C24628   8.035   2.023   3.011  0.3640  0.6741  1.0034
  183MOL0     O24629   8.140   2.055   3.095  0.8523 -0.2548  0.4067
  183MOL0     C24630   8.205   1.941   3.153  0.4273 -0.3054  0.9146
  183MOL0     C24631   8.349   1.990   3.160 -0.5425  0.4923  1.4373
  183MOL0     C24632   8.427   1.994   3.020 -0.1456  0.4365  0.0478
  183MOL0     C24633   8.377   2.104   2.919  0.2175  0.1280 -0.6194
  183MOL0     C24634   8.485   2.140   2.817  0.1141  0.1472  0.3995
  183MOL0     C24635   8.560   2.159   2.729 -0.5308 -0.5521 -0.1413
  183MOL0     C24636   7.944   1.910   3.032 -0.5012  1.4008 -0.2272
  183MOL0     C24637   7.833   1.883   2.946 -0.1539  0.7322 -0.0433
  183MOL0     H24638   7.457   1.977   2.604 -1.6383  0.2256 -1.0706
  183MOL0     H24639   7.315   1.878   2.442  0.2265 -0.1674  0.2654
  183MOL0     H24640   7.196   1.785   2.300  0.4620  0.4858  0.9122
  183MOL0     H24641   7.148   1.626   2.230  1.1408 -1.3380  0.2332
  183MOL0     H24642   7.078   1.732   2.500  2.1809  0.6168 -1.0036
  183MOL0     H24643   6.969   1.733   2.354 -0.0009  1.8633  2.1945
  183MOL0     H24644   6.879   1.567   2.442  0.4755  2.4200 -0.7564
  183MOL0     H24645   7.007   1.468   2.372 -1.7589 -1.3127  0.5101
  183MOL0     H24646   7.136   1.477   2.584 -0.0828  2.6229 -2.4989
  183MOL0     H24647   6.999   1.569   2.663 -1.1446  3.0341 -2.8072
  183MOL0     H24648   6.949   1.349   2.717  2.4057 -1.7191 -0.9974
  183MOL0     H24649   6.841   1.374   2.564 -0.2559  0.4523  0.7613
  183MOL0     H24650   6.975   1.247   2.434  1.3084  1.8800  0.9949
  183MOL0     H24651   7.091   1.230   2.565 -0.5761  3.7186  3.0693
  183MOL0     H24652   6.947   1.101   2.689  1.8823 -0.3424  0.3552
  183MOL0     H24653   6.793   1.157   2.621 -0.7322  1.1853 -0.4133
  183MOL0     H24654   6.841   0.917   2.559  1.1202 -1.2162 -0.8369
  183MOL0     H24655   6.977   0.974   2.474 -0.6528 -2.0157  1.4631
  183MOL0     H24656   6.593   0.981   2.480 -0.3873 -0.6123 -2.0837
  183MOL0     H24657   6.441   0.926   2.302 -0.3023  2.9077  3.7478
  183MOL0     H24658   6.414   1.086   2.231 -0.2116  0.1466  0.3538
  183MOL0     H24659   6.510   0.842   2.105  0.6831  0.6705  2.0985
  183MOL0     H24660   6.531   0.986   2.018  0.8864 -2.2607 -1.0380
  183MOL0     H24661   6.251   1.008   2.040 -1.8325 -0.9045 -1.4184
  183MOL0     H24662   6.269   0.858   2.128  2.4727 -2.1992  0.4492
  183MOL0     H24663   6.346   0.745   1.904 -5.9724 -3.7596 -2.5500
  183MOL0     H24664   6.322   0.907   1.839  0.2314  0.5420  1.1682
  183MOL0     H24665   5.902   0.753   1.881  0.7473 -1.8949 -1.9979
  183MOL0     H24666   5.711   0.648   1.861  0.1504  0.3308  0.1674
  183MOL0     H24667   5.710   0.482   1.870  0.4753 -0.5716  2.5142
  183MOL0     H24668   5.673   0.582   2.018 -1.9919 -1.6090 -0.5333
  183MOL0     H24669   5.796   0.168   2.289  0.3299 -1.8715 -0.8814
  183MOL0     H24670   5.608   0.028   2.390  5.3253  0.1517  0.2516
  183MOL0     H24671   5.166   0.039   2.200 -0.4454 -0.6892 -1.0918
  183MOL0     H24672   5.273  -0.049   2.106 -2.0341  1.1641 -0.0897
  183MOL0     H24673   5.231  -0.249   2.248  0.5135  1.2319 -0.9844
  183MOL0     H24674   5.188  -0.131   2.391 -3.5566  1.7552 -0.3893
  183MOL0     H24675   5.007  -0.124   2.164 -1.2256  2.4582  1.1046
  183MOL0     H24676   4.988  -0.093   2.334  1.8368 -0.5500  2.1262
  183MOL0     H24677   4.991  -0.307   2.402  1.8590  1.1575  0.6150
  183MOL0     H24678   4.867  -0.288   2.279 -0.4347 -0.5011  2.4911
  183MOL0     H24679   5.137  -0.449   2.262 -0.5092  1.0035  0.7516
  183MOL0     H24680   5.066  -0.393   2.119 -0.8946 -2.2832 -0.3531
  183MOL0     H24681   4.933  -0.595   2.291 -0.9832 -3.4217 -2.5077
  183MOL0     H24682   4.853  -0.515   2.161  0.2358  1.6803  1.2296
  183MOL0     H24683   5.103  -0.676   2.134  1.2135  1.0578  0.5232
  183MOL0     H24684   5.016  -0.581   2.002 -0.5348 -1.3573  0.1061
  183MOL0     H24685   4.957  -0.824   2.000 -1.7362  1.6391 -2.8026
  183MOL0     H24686   4.812  -0.745   2.066 -0.0918 -0.5037  1.9863
  183MOL0     H24687   5.349   0.152   2.068 -0.0551  0.1568 -1.0878
  183MOL0     H24688   5.531   0.277   1.978 -2.0265  0.3824  0.6319
  183MOL0     H24689   6.131   0.408   2.138  2.7032  1.9619  0.5111
  183MOL0     H24690   6.262   0.604   2.061 -0.1326  1.9839  0.7429
  183MOL0     H24691   7.445   1.484   2.535  0.4632 -0.7081 -0.5378
  183MOL0     H24692   7.629   1.587   2.681 -0.3676  0.9619  2.2318
  183MOL0     H24693   7.883   2.166   2.757  4.0435 -1.2533 -2.0527
  183MOL0     H24694   8.071   2.191   2.898 -0.3072  1.2882 -0.1026
  183MOL0     H24695   8.155   1.910   3.245 -0.1888 -1.4881  0.2078
  183MOL0     H24696   8.199   1.851   3.090  0.4103  0.7538 -0.6683
  183MOL0     H24697   8.402   1.918   3.224  2.4552 -0.6688 -2.0612
  183MOL0     H24698   8.352   2.090   3.204  0.4259  1.6603 -1.1068
  183MOL0     H24699   8.425   1.896   2.973  0.8691  1.8542 -3.2872
  183MOL0     H24700   8.533   1.997   3.048 -0.0610 -3.4279  0.5872
  183MOL0     H24701   8.349   2.190   2.982 -0.6952 -1.4020  1.1783
  183MOL0     H24702   8.294   2.062   2.862  0.6211 -2.9290  0.8066
  183MOL0     H24703   8.634   2.161   2.651 -0.6846 -1.5010 -0.3284
  183MOL0     H24704   7.963   1.839   3.111  1.8818  0.3798 -1.6254
  183MOL0     H24705   7.760   1.804   2.965  0.2666 -0.8001 -3.8072
  184MOL0     O24706   5.600   9.367   8.471 -0.0081  0.1715 -0.6455
  184MOL0     C24707   5.684   9.304   8.415 -1.5375  0.3545  0.8039
  184MOL0     O24708   5.676   9.265   8.283  0.0870  0.7818  0.6037
  184MOL0     C24709   5.566   9.288   8.208 -0.0420  0.1425  0.4116
  184MOL0     C24710   5.574   9.358   8.088 -0.0624 -0.8618 -0.4149
  184MOL0     C24711   5.454   9.399   8.015  0.3487 -0.8549 -0.7951
  184MOL0     C24712   5.331   9.376   8.074  0.4033 -0.2204  0.2399
  184MOL0     O24713   5.221   9.428   8.013  0.1669  0.2207  0.2113
  184MOL0     C24714   5.127   9.479   8.111  0.1046  0.1464  0.1326
  184MOL0     C24715   5.032   9.586   8.048  0.4431  0.7640  0.4072
  184MOL0     C24716   4.898   9.537   7.980 -0.4301  0.6036  0.1679
  184MOL0     C24717   4.834   9.649   7.898 -0.5582  0.6779  0.2760
  184MOL0     C24718   4.701   9.594   7.839 -0.6577  0.0705  0.0234
  184MOL0     C24719   4.599   9.521   7.925  0.7102  0.8419  0.1116
  184MOL0     C24720   4.573   9.589   8.052  0.1803 -0.2878 -0.6091
  184MOL0     C24721   4.444   9.570   8.117 -0.1704 -0.6951 -0.4869
  184MOL0     N24722   4.391   9.693   8.187  0.1931 -0.3274  0.3629
  184MOL0     C24723   4.449   9.771   8.288  0.0018  0.1642  0.8236
  184MOL0     C24724   4.352   9.859   8.333 -0.5026  0.0341  0.3410
  184MOL0     C24725   4.365   9.943   8.463  0.9855  0.1786  0.1342
  184MOL0     C24726   4.436  10.073   8.449  0.0113 -0.2038 -0.5689
  184MOL0     C24727   4.378  10.173   8.356  0.0438 -0.4242  0.0675
  184MOL0     C24728   4.254  10.261   8.409 -0.3008 -0.6447 -0.3607
  184MOL0     O24729   4.149  10.167   8.439  0.2880  0.0086 -0.1955
  184MOL0     C24730   4.027  10.213   8.473 -0.4144 -0.2605  0.3566
  184MOL0     C24731   3.989  10.347   8.482  0.9002  0.0318 -0.1746
  184MOL0     C24732   3.858  10.387   8.522  0.8180  0.2171 -0.4418
  184MOL0     C24733   3.822  10.538   8.518 -0.0459 -0.1175  0.3533
  184MOL0     C24734   3.763  10.287   8.556  0.3985  0.0307  0.8935
  184MOL0     C24735   3.639  10.321   8.623  1.7903 -0.0266 -0.7248
  184MOL0     O24736   3.632  10.416   8.717  0.8889 -0.7843  0.1868
  184MOL0     C24737   3.506  10.473   8.736 -0.0949 -0.7574  0.0041
  184MOL0     C24738   3.474  10.601   8.678 -0.0614 -0.2653 -0.4121
  184MOL0     C24739   3.349  10.655   8.689  0.6711 -0.4831  0.4010
  184MOL0     C24740   3.252  10.592   8.758 -0.4841 -0.6930 -0.1704
  184MOL0     O24741   3.131  10.651   8.743 -0.2542  0.3563 -0.9000
  184MOL0     C24742   3.028  10.563   8.741 -0.4826  0.2297 -0.4748
  184MOL0     C24743   2.894  10.624   8.699  0.4891 -0.5350 -0.3713
  184MOL0     C24744   2.792  10.513   8.702 -0.2738  0.5967 -0.6975
  184MOL0     C24745   2.649  10.552   8.651 -0.2438 -0.9040  0.1873
  184MOL0     C24746   2.549  10.450   8.692 -1.1093  1.0064 -0.1868
  184MOL0     C24747   2.450  10.409   8.576  0.0856 -0.1210 -0.6188
  184MOL0     C24748   2.366  10.527   8.527  0.4406 -0.8310  0.0177
  184MOL0     C24749   2.251  10.469   8.448  0.0744 -0.3201  0.0820
  184MOL0    Cl24750   2.129  10.591   8.402 -0.1573  0.3007 -0.0809
  184MOL0     C24751   3.283  10.470   8.817  0.2630  0.1115 -0.3171
  184MOL0     C24752   3.410  10.412   8.808  0.7726  1.5053  0.1950
  184MOL0     O24753   3.544  10.270   8.566 -0.1161  0.5835 -0.5542
  184MOL0     C24754   3.801  10.156   8.534 -0.0915  0.2376  0.0982
  184MOL0     C24755   3.932  10.118   8.489  0.7208 -1.0782  0.8786
  184MOL0     N24756   4.254   9.856   8.240  1.0134  0.2003  0.1201
  184MOL0     N24757   4.276   9.754   8.166  0.4232 -0.7923 -0.7207
  184MOL0     C24758   5.323   9.295   8.186 -0.0900 -0.2113  0.6615
  184MOL0     C24759   5.437   9.243   8.252  0.1559  0.1019 -0.4687
  184MOL0     C24760   5.809   9.253   8.489  0.0312 -0.8142  0.2062
  184MOL0     C24761   5.862   9.328   8.604  0.2727  0.3344  0.1681
  184MOL0     C24762   5.989   9.300   8.660 -0.5173  0.0860  0.1836
  184MOL0     C24763   6.067   9.203   8.604  0.4197 -0.2087  0.5844
  184MOL0     O24764   6.183   9.142   8.659  0.0458 -0.5362  0.5427
  184MOL0     C24765   6.278   9.218   8.742  0.5607  0.0442 -0.1265
  184MOL0     C24766   6.402   9.132   8.792 -0.1200 -0.1162 -0.5953
  184MOL0     C24767   6.507   9.103   8.681 -0.6120 -0.0147  0.7007
  184MOL0     C24768   6.635   9.037   8.733  0.3856  0.2002  0.3342
  184MOL0     C24769   6.601   8.918   8.817 -0.2495 -0.0208  0.5227
  184MOL0     C24770   6.574   8.814   8.869 -0.4802  0.2048  0.0989
  184MOL0     C24771   6.006   9.118   8.512  0.4435 -0.3761  1.0664
  184MOL0     C24772   5.886   9.143   8.447  0.1422  0.6552 -0.6531
  184MOL0     H24773   5.671   9.398   8.061 -0.8152  0.5693 -1.1415
  184MOL0     H24774   5.478   9.455   7.925 -2.0814 -2.7173 -2.7409
  184MOL0     H24775   5.065   9.394   8.142 -0.3006 -0.5915 -2.4286
  184MOL0     H24776   5.178   9.527   8.195 -0.0501 -2.7656  2.0489
  184MOL0     H24777   5.007   9.652   8.132  1.6458 -1.0578  2.3130
  184MOL0     H24778   5.083   9.652   7.976 -3.1815 -0.3645 -3.5951
  184MOL0     H24779   4.919   9.445   7.925  1.7420  0.4229  1.1646
  184MOL0     H24780   4.836   9.502   8.063 -1.7758 -2.2539 -1.8859
  184MOL0     H24781   4.826   9.732   7.969  0.5251  1.1863 -0.1806
  184MOL0     H24782   4.897   9.671   7.811 -1.7523 -1.8294 -1.3154
  184MOL0     H24783   4.652   9.673   7.781  2.1145 -1.4924 -5.0513
  184MOL0     H24784   4.732   9.523   7.763 -0.9800 -0.7368  0.6310
  184MOL0     H24785   4.504   9.514   7.871  0.5026 -0.1391  0.5601
  184MOL0     H24786   4.623   9.415   7.942 -0.5417  0.6251  0.6845
  184MOL0     H24787   4.641   9.547   8.127  1.3457 -0.6823 -1.8464
  184MOL0     H24788   4.580   9.698   8.042  1.8929 -0.2667  0.4035
  184MOL0     H24789   4.453   9.500   8.201 -1.4015  0.3885  0.6022
  184MOL0     H24790   4.359   9.539   8.055 -0.9869 -0.7113  0.6042
  184MOL0     H24791   4.551   9.759   8.324  0.1172 -1.5185  0.0484
  184MOL0     H24792   4.268   9.962   8.509  0.2498 -1.8427 -0.4272
  184MOL0     H24793   4.421   9.879   8.532  0.0161  1.2737  2.0026
  184MOL0     H24794   4.538  10.058   8.413 -0.8450 -0.5135 -3.0570
  184MOL0     H24795   4.444  10.123   8.546 -1.3994  2.9204 -1.9256
  184MOL0     H24796   4.357  10.124   8.261 -0.3002  1.5607 -0.9341
  184MOL0     H24797   4.452  10.252   8.340 -0.6665  0.4245  0.8379
  184MOL0     H24798   4.216  10.336   8.340  0.0174  2.2467  2.3408
  184MOL0     H24799   4.273  10.310   8.505 -3.6858 -1.0969  0.6922
  184MOL0     H24800   4.063  10.425   8.463  2.1539 -0.3519  2.6737
  184MOL0     H24801   3.861  10.603   8.597 -0.7839 -0.6695  1.1885
  184MOL0     H24802   3.854  10.587   8.425  0.0385 -0.2418  0.3168
  184MOL0     H24803   3.719  10.571   8.536  0.6954  1.7025  1.5208
  184MOL0     H24804   3.555  10.660   8.637 -0.2390 -0.0531 -0.4606
  184MOL0     H24805   3.312  10.744   8.639  0.8774 -0.5825  0.0672
  184MOL0     H24806   3.060  10.483   8.674 -0.5909 -1.8214  1.7927
  184MOL0     H24807   3.008  10.514   8.837 -1.1299 -3.7684 -2.4633
  184MOL0     H24808   2.870  10.709   8.764  1.6862 -1.4712  1.3865
  184MOL0     H24809   2.903  10.667   8.599  0.4989 -0.3877 -0.3072
  184MOL0     H24810   2.789  10.481   8.807  0.7538  1.2436 -0.4484
  184MOL0     H24811   2.828  10.435   8.635 -0.0146  2.0380 -2.3155
  184MOL0     H24812   2.626  10.650   8.695  2.3144 -0.3506  0.4411
  184MOL0     H24813   2.656  10.554   8.542 -0.5266  0.9924  0.1566
  184MOL0     H24814   2.496  10.478   8.784  0.7997  0.1409  1.2563
  184MOL0     H24815   2.593  10.356   8.726  1.4990  0.8988 -3.3917
  184MOL0     H24816   2.505  10.368   8.492  1.9482 -0.1162  0.5398
  184MOL0     H24817   2.397  10.317   8.602 -0.5050 -0.0110 -1.4141
  184MOL0     H24818   2.426  10.598   8.469 -1.7485  1.6387  0.5846
  184MOL0     H24819   2.320  10.591   8.603  1.2565  2.8894 -2.3410
  184MOL0     H24820   2.194  10.412   8.523 -0.5486 -0.8940 -0.8092
  184MOL0     H24821   2.288  10.399   8.372  2.3084  1.7205 -0.8188
  184MOL0     H24822   3.198  10.422   8.864  0.9026  0.2165  0.9845
  184MOL0     H24823   3.414  10.308   8.839 -0.7740  0.0785 -3.7510
  184MOL0     H24824   3.728  10.078   8.553  1.1460 -1.0381 -0.3006
  184MOL0     H24825   3.961  10.014   8.476  0.7325 -0.8348 -1.4248
  184MOL0     H24826   5.229   9.267   8.233 -1.1632  1.7947 -0.1444
  184MOL0     H24827   5.427   9.169   8.331  1.0036  0.9141  0.4105
  184MOL0     H24828   5.818   9.417   8.648  0.4980 -0.1003  1.3015
  184MOL0     H24829   6.032   9.363   8.738  0.2043 -1.5171  1.1164
  184MOL0     H24830   6.316   9.313   8.702  2.5656 -0.6996 -0.1454
  184MOL0     H24831   6.219   9.261   8.823 -1.3877  3.0690 -2.8812
  184MOL0     H24832   6.357   9.035   8.816 -1.5736  0.2220 -1.7599
  184MOL0     H24833   6.456   9.184   8.870  2.7881  0.3850 -2.7663
  184MOL0     H24834   6.535   9.201   8.642  2.7570 -0.4290  1.7733
  184MOL0     H24835   6.463   9.045   8.599  1.4518 -0.6628  0.0070
  184MOL0     H24836   6.701   9.106   8.788 -1.2003  1.9836  0.1201
  184MOL0     H24837   6.689   9.008   8.643  1.9360  0.6917  1.0747
  184MOL0     H24838   6.536   8.720   8.903  1.2223 -0.5379  0.0314
  184MOL0     H24839   6.062   9.033   8.474  4.2262  1.7443  1.3154
  184MOL0     H24840   5.832   9.080   8.376 -2.7471  2.1676  0.0323
  185MOL0     O24841   2.194   2.242   1.717 -0.4517 -1.0345  0.1108
  185MOL0     C24842   2.161   2.322   1.636  0.2639  0.8016  0.3348
  185MOL0     O24843   2.034   2.340   1.582 -1.2848  0.0739 -0.0107
  185MOL0     C24844   1.926   2.268   1.621 -0.0213 -0.2510  0.9487
  185MOL0     C24845   1.896   2.234   1.754 -0.5968 -0.0860 -1.0820
  185MOL0     C24846   1.777   2.163   1.788 -0.3032  0.0119  0.1813
  185MOL0     C24847   1.678   2.124   1.692 -0.9256  0.4409 -0.2108
  185MOL0     O24848   1.554   2.076   1.715  0.1503  0.0476  0.0593
  185MOL0     C24849   1.546   1.979   1.824  0.7256  0.4226  0.3161
  185MOL0     C24850   1.407   1.910   1.817 -0.0198  0.2338  1.0688
  185MOL0     C24851   1.387   1.845   1.680 -0.3972 -0.0803  0.1003
  185MOL0     C24852   1.265   1.757   1.675  0.1765 -0.0076  0.1335
  185MOL0     C24853   1.197   1.745   1.540  0.4026 -0.2219  0.2681
  185MOL0     C24854   1.086   1.638   1.549 -0.0795  0.3087  0.3593
  185MOL0     C24855   0.952   1.700   1.579  0.5511  0.5852  0.5865
  185MOL0     C24856   0.829   1.596   1.550  0.3577 -0.6166 -0.6811
  185MOL0     N24857   0.705   1.674   1.581  0.2034  0.0137  0.1356
  185MOL0     C24858   0.655   1.791   1.533  0.6157 -0.8299  0.0180
  185MOL0     C24859   0.537   1.820   1.595 -0.3580 -0.1059 -0.5739
  185MOL0     C24860   0.447   1.935   1.558 -0.1709 -0.5077  0.6389
  185MOL0     C24861   0.511   2.076   1.587 -0.5879  0.8064  0.2694
  185MOL0     C24862   0.515   2.092   1.744  0.3653  0.3761 -0.6963
  185MOL0     C24863   0.384   2.080   1.819  0.9980  0.5797  0.1667
  185MOL0     O24864   0.297   2.183   1.763  0.1014 -0.1235 -0.9283
  185MOL0     C24865   0.161   2.158   1.750 -0.8317 -0.6157 -0.4533
  185MOL0     C24866   0.090   2.096   1.850  0.5907 -0.3425 -0.2636
  185MOL0     C24867  -0.050   2.070   1.841  0.2589 -0.1326 -0.0839
  185MOL0     C24868  -0.104   1.975   1.947  0.3898 -0.9530  0.6467
  185MOL0     C24869  -0.123   2.117   1.728 -0.6413  0.9162  0.4809
  185MOL0     C24870  -0.265   2.091   1.702  0.1655  0.2638  0.1120
  185MOL0     O24871  -0.324   2.133   1.592 -0.3083 -0.6761  0.0200
  185MOL0     C24872  -0.454   2.109   1.567 -0.0959  0.4648  0.4546
  185MOL0     C24873  -0.517   1.992   1.590  0.1522  0.0366 -0.7142
  185MOL0     C24874  -0.651   1.982   1.542  0.1243  0.9784 -0.3928
  185MOL0     C24875  -0.725   2.084   1.475 -0.3270 -0.3100 -0.2048
  185MOL0     O24876  -0.855   2.074   1.434 -0.3079  0.5981  0.5504
  185MOL0     C24877  -0.885   1.940   1.387  0.4282  0.2702  1.3449
  185MOL0     C24878  -1.006   1.946   1.296 -0.2239  0.2313 -0.1094
  185MOL0     C24879  -1.037   1.803   1.259 -0.6838  0.4140 -0.6789
  185MOL0     C24880  -1.181   1.801   1.195 -0.0554 -0.8567 -0.1456
  185MOL0     C24881  -1.208   1.663   1.145 -0.0921 -0.1631  0.2663
  185MOL0     C24882  -1.358   1.653   1.107  0.2865 -0.7246  0.1556
  185MOL0     C24883  -1.447   1.600   1.224  0.4593 -0.1377 -0.1987
  185MOL0     C24884  -1.577   1.549   1.179  0.5573  0.3235 -0.7693
  185MOL0    Cl24885  -1.695   1.529   1.313  0.2831 -0.1071  0.2591
  185MOL0     C24886  -0.650   2.205   1.455 -0.5251  0.8862  0.7218
  185MOL0     C24887  -0.521   2.218   1.502  0.8280 -0.7833 -0.5257
  185MOL0     O24888  -0.320   2.032   1.792 -0.6073  0.8223  0.4112
  185MOL0     C24889  -0.052   2.187   1.634 -0.0502  0.2441  0.3433
  185MOL0     C24890   0.091   2.207   1.643  0.5623 -0.3598 -1.0965
  185MOL0     N24891   0.512   1.718   1.680  0.4675 -0.7343 -0.6742
  185MOL0     N24892   0.610   1.632   1.666 -0.3226 -0.2629  0.1386
  185MOL0     C24893   1.708   2.156   1.562 -0.0929 -0.0115 -0.3472
  185MOL0     C24894   1.834   2.228   1.521  0.4628 -0.0355  0.1462
  185MOL0     C24895   2.257   2.421   1.586  0.0349  0.1868 -0.5272
  185MOL0     C24896   2.392   2.419   1.629 -0.2440  0.2853  0.2203
  185MOL0     C24897   2.494   2.499   1.581  0.4943 -0.0957 -0.0622
  185MOL0     C24898   2.471   2.591   1.484 -0.4282 -0.0539 -0.6210
  185MOL0     O24899   2.560   2.687   1.432 -0.2849  0.1804 -0.2040
  185MOL0     C24900   2.670   2.735   1.502 -0.6134  0.7061 -0.7748
  185MOL0     C24901   2.731   2.848   1.419  0.4690  0.5079 -0.0840
  185MOL0     C24902   2.831   2.792   1.328 -0.5293  0.3079  0.5149
  185MOL0     C24903   2.853   2.876   1.193 -0.2797 -0.3267 -0.9996
  185MOL0     C24904   2.949   2.813   1.105  0.8152 -0.3811 -1.1427
  185MOL0     C24905   3.016   2.748   1.030  0.3088 -0.5400 -0.5360
  185MOL0     C24906   2.333   2.595   1.445 -0.0582 -0.3828  0.7411
  185MOL0     C24907   2.226   2.516   1.490 -0.2501 -0.0599  0.3006
  185MOL0     H24908   1.959   2.274   1.833 -1.1619 -2.7272  0.8263
  185MOL0     H24909   1.752   2.152   1.893  1.1846 -2.4696  0.3456
  185MOL0     H24910   1.620   1.899   1.815  0.2842  0.2562 -2.4039
  185MOL0     H24911   1.569   2.028   1.920 -0.1523 -2.3673  2.0616
  185MOL0     H24912   1.397   1.833   1.893  1.1934 -0.0063  1.0032
  185MOL0     H24913   1.329   1.986   1.827 -0.7095  0.2538 -2.7562
  185MOL0     H24914   1.371   1.927   1.609 -0.1453 -1.3267 -1.4306
  185MOL0     H24915   1.473   1.785   1.649  2.0012  1.7692  2.6040
  185MOL0     H24916   1.299   1.657   1.703  0.1150 -0.9224 -2.7069
  185MOL0     H24917   1.189   1.793   1.745 -0.2823 -0.3221 -0.1993
  185MOL0     H24918   1.155   1.842   1.509 -1.2173 -0.5542  1.3056
  185MOL0     H24919   1.267   1.710   1.463 -0.6469  1.4890 -1.5737
  185MOL0     H24920   1.069   1.599   1.448 -0.4588  1.7314 -0.1508
  185MOL0     H24921   1.112   1.559   1.620 -0.0053 -0.1188 -0.1289
  185MOL0     H24922   0.949   1.712   1.687  2.2186  4.6817  0.3573
  185MOL0     H24923   0.931   1.798   1.534 -1.1918 -0.5268 -1.1929
  185MOL0     H24924   0.828   1.503   1.607 -0.4213  1.3273  2.7882
  185MOL0     H24925   0.830   1.576   1.443  2.1716  0.5541 -0.9180
  185MOL0     H24926   0.708   1.855   1.463  0.2735 -2.2332 -1.6133
  185MOL0     H24927   0.427   1.938   1.451 -0.0992 -0.6127  0.6228
  185MOL0     H24928   0.357   1.909   1.615  1.5371 -3.9824  1.9852
  185MOL0     H24929   0.462   2.163   1.542 -0.5689  0.8993  0.4299
  185MOL0     H24930   0.611   2.068   1.543 -1.4422  0.6284 -1.7697
  185MOL0     H24931   0.566   2.185   1.767  2.0985 -0.7579  0.2875
  185MOL0     H24932   0.579   2.014   1.786  0.2302  1.4855  1.7201
  185MOL0     H24933   0.409   2.110   1.921 -0.5089  3.2845 -0.1756
  185MOL0     H24934   0.345   1.978   1.809 -3.4194  2.0914 -0.5216
  185MOL0     H24935   0.144   2.058   1.936 -2.4651 -0.9527  1.5327
  185MOL0     H24936  -0.039   1.974   2.035 -1.9708  1.7189  2.5886
  185MOL0     H24937  -0.203   1.992   1.989  1.1048  1.9287  1.3815
  185MOL0     H24938  -0.103   1.875   1.903 -1.9943 -1.6723  2.0239
  185MOL0     H24939  -0.476   1.908   1.645 -1.8425 -0.5116  0.0324
  185MOL0     H24940  -0.698   1.886   1.555 -1.7612  1.9282  0.2030
  185MOL0     H24941  -0.805   1.903   1.321 -0.0515  1.9065 -0.2524
  185MOL0     H24942  -0.896   1.875   1.474 -2.8089 -0.1449  0.7551
  185MOL0     H24943  -1.090   1.990   1.351  0.4669  0.7240  0.5603
  185MOL0     H24944  -0.983   2.009   1.210  0.4356  0.1243 -0.0167
  185MOL0     H24945  -1.023   1.744   1.350  0.2602  0.0558 -1.0440
  185MOL0     H24946  -0.971   1.756   1.186  0.4050 -0.6771  0.9281
  185MOL0     H24947  -1.253   1.829   1.271  0.1133 -0.7326 -0.0305
  185MOL0     H24948  -1.192   1.871   1.111 -0.4449 -0.8226 -0.0650
  185MOL0     H24949  -1.183   1.599   1.231 -0.2295  2.2060  2.1672
  185MOL0     H24950  -1.145   1.643   1.058  0.1119 -1.5747  0.7094
  185MOL0     H24951  -1.397   1.750   1.074  1.1221 -1.5393 -3.7137
  185MOL0     H24952  -1.358   1.576   1.029 -0.0201 -0.9111  0.3371
  185MOL0     H24953  -1.466   1.682   1.293 -0.7627  0.0863 -0.7679
  185MOL0     H24954  -1.392   1.528   1.285  1.0910 -0.4026 -1.0538
  185MOL0     H24955  -1.567   1.453   1.128  1.6570 -1.7987  3.0447
  185MOL0     H24956  -1.612   1.621   1.104 -0.3200  2.5496  1.6268
  185MOL0     H24957  -0.696   2.278   1.389 -1.2656  0.1583  0.4037
  185MOL0     H24958  -0.477   2.313   1.471 -2.8073  0.9875 -0.8693
  185MOL0     H24959  -0.095   2.218   1.539  1.8734 -1.8384 -1.3319
  185MOL0     H24960   0.149   2.262   1.570 -0.0811 -0.1836 -1.4818
  185MOL0     H24961   1.638   2.134   1.483 -0.8703 -0.1065  0.3520
  185MOL0     H24962   1.853   2.231   1.414 -0.5248  2.2346 -0.0216
  185MOL0     H24963   2.414   2.352   1.712 -1.2076 -1.5294 -0.9067
  185MOL0     H24964   2.594   2.495   1.621  1.1454 -0.9637 -1.6952
  185MOL0     H24965   2.644   2.772   1.602 -0.3287  0.0183 -0.4353
  185MOL0     H24966   2.743   2.654   1.517 -0.2318  0.4439 -3.6211
  185MOL0     H24967   2.784   2.914   1.488 -0.1578 -0.0995  1.0222
  185MOL0     H24968   2.647   2.899   1.371 -1.9862 -1.5938  1.7007
  185MOL0     H24969   2.790   2.694   1.302 -0.2835  0.1209  0.8331
  185MOL0     H24970   2.922   2.780   1.387 -0.3288 -0.2951  0.0920
  185MOL0     H24971   2.887   2.973   1.231 -2.7013 -0.2201  1.2006
  185MOL0     H24972   2.751   2.882   1.155 -0.2199 -0.2309 -1.1438
  185MOL0     H24973   3.060   2.688   0.953  0.2064 -0.3769 -0.7228
  185MOL0     H24974   2.325   2.671   1.367  1.7462 -1.1521 -0.2823
  185MOL0     H24975   2.122   2.533   1.462 -1.3931 -0.4868  3.7208
  186MOL0     O24976   3.545   3.650   2.071 -0.3047  0.1142  0.3924
  186MOL0     C24977   3.549   3.555   2.157 -0.6298 -1.1387 -0.3654
  186MOL0     O24978   3.664   3.480   2.195 -0.2300  0.4484  0.0060
  186MOL0     C24979   3.788   3.540   2.175  0.9397  0.9913  0.3818
  186MOL0     C24980   3.845   3.561   2.046 -1.1768  0.2693  0.5506
  186MOL0     C24981   3.984   3.596   2.040  1.0963  0.3360 -0.5404
  186MOL0     C24982   4.053   3.614   2.158 -0.5025 -0.6310 -0.2564
  186MOL0     O24983   4.182   3.648   2.162 -0.0300  0.0071  0.7281
  186MOL0     C24984   4.204   3.788   2.154  1.3084 -0.1958 -1.1031
  186MOL0     C24985   4.334   3.826   2.087  0.3048  0.5130  0.4438
  186MOL0     C24986   4.454   3.758   2.144 -0.2226 -0.6028 -1.2023
  186MOL0     C24987   4.596   3.813   2.100  0.9150  0.4391 -0.1626
  186MOL0     C24988   4.709   3.769   2.194  0.6056  0.4707 -0.0507
  186MOL0     C24989   4.836   3.828   2.146  0.5084  1.0312 -0.2565
  186MOL0     C24990   4.964   3.768   2.211  0.5826 -0.3487 -0.3689
  186MOL0     C24991   5.088   3.844   2.163 -1.5856 -0.4565  0.6070
  186MOL0     N24992   5.121   3.820   2.023  0.9427 -0.3100  0.4241
  186MOL0     C24993   5.073   3.722   1.946  0.5064 -0.6128  0.3341
  186MOL0     C24994   5.084   3.781   1.821  0.9844  0.9624 -0.0344
  186MOL0     C24995   5.033   3.712   1.698  0.3310 -0.3610  0.5258
  186MOL0     C24996   4.957   3.804   1.603  0.6210 -0.1907 -0.3450
  186MOL0     C24997   4.885   3.740   1.480  0.2245 -0.6579  0.4037
  186MOL0     C24998   4.861   3.853   1.368  0.6959  0.4629  0.1793
  186MOL0     O24999   4.819   3.975   1.426 -0.1587 -0.6894  0.8952
  186MOL0     C25000   4.686   3.997   1.403  0.5809 -0.4449  0.3011
  186MOL0     C25001   4.659   4.132   1.392 -0.9831 -1.2015 -0.1127
  186MOL0     C25002   4.532   4.186   1.367  0.6471  0.6084 -0.0415
  186MOL0     C25003   4.525   4.341   1.344  0.3321 -0.6264  0.4054
  186MOL0     C25004   4.422   4.092   1.359 -0.1282  0.1913 -0.6967
  186MOL0     C25005   4.280   4.123   1.322 -0.3080 -0.3786 -0.5326
  186MOL0     O25006   4.194   4.018   1.328 -0.2819  0.4760  0.2544
  186MOL0     C25007   4.077   4.011   1.263 -0.0839  1.1013 -0.1463
  186MOL0     C25008   3.991   3.910   1.299 -0.5034  0.2146  0.5249
  186MOL0     C25009   3.871   3.883   1.231  0.6328 -0.4987 -0.4128
  186MOL0     C25010   3.824   3.960   1.123 -0.7215 -0.3843 -0.0696
  186MOL0     O25011   3.705   3.933   1.066 -0.3363  0.4773 -0.0836
  186MOL0     C25012   3.654   4.035   0.979  0.6518 -0.4376  0.3455
  186MOL0     C25013   3.531   3.968   0.907 -1.0269 -0.3966 -0.3946
  186MOL0     C25014   3.402   3.946   1.005  0.2357 -0.7732 -0.3054
  186MOL0     C25015   3.278   3.900   0.931  0.0178  0.0836  0.2133
  186MOL0     C25016   3.159   3.853   1.025  0.1010 -0.5916  0.2180
  186MOL0     C25017   3.122   3.948   1.134 -0.2216  0.3697  0.5776
  186MOL0     C25018   2.992   3.907   1.196 -0.1482  0.9079 -0.4497
  186MOL0     C25019   3.011   3.795   1.300 -0.0045 -0.3485 -0.0830
  186MOL0    Cl25020   2.851   3.760   1.365 -0.4284  0.2273 -0.0769
  186MOL0     C25021   3.910   4.068   1.091 -0.0631 -0.1584  0.9018
  186MOL0     C25022   4.029   4.094   1.164  0.0941  0.3968 -0.9077
  186MOL0     O25023   4.265   4.235   1.280 -0.7489  0.5093  0.2030
  186MOL0     C25024   4.450   3.953   1.375  0.8289  0.1930 -0.4877
  186MOL0     C25025   4.581   3.912   1.391 -0.6110  0.8172 -0.3489
  186MOL0     N25026   5.120   3.910   1.833 -0.3843 -0.1920  0.2102
  186MOL0     N25027   5.148   3.930   1.950 -0.3179 -0.2540 -0.0820
  186MOL0     C25028   3.992   3.590   2.280  0.5305  0.2398 -0.1283
  186MOL0     C25029   3.857   3.557   2.289  0.6309  0.5447  1.3005
  186MOL0     C25030   3.413   3.517   2.206  1.4711 -0.3096  0.3867
  186MOL0     C25031   3.296   3.561   2.134  0.1816  1.0143 -0.3452
  186MOL0     C25032   3.176   3.514   2.175 -0.0154 -0.4402  1.4638
  186MOL0     C25033   3.159   3.434   2.293 -0.1283  1.1494  0.2114
  186MOL0     O25034   3.029   3.386   2.322 -0.9411 -0.6471  0.1506
  186MOL0     C25035   3.006   3.288   2.421  1.2146  0.1639  0.4952
  186MOL0     C25036   2.849   3.241   2.424  0.2956 -0.7389 -0.3235
  186MOL0     C25037   2.783   3.207   2.289 -1.3223 -0.3985 -0.2243
  186MOL0     C25038   2.625   3.213   2.284  0.7857  0.6879  0.5386
  186MOL0     C25039   2.585   3.343   2.332 -0.2368 -0.0486  0.6892
  186MOL0     C25040   2.569   3.451   2.376 -0.4949  0.0022  0.4506
  186MOL0     C25041   3.276   3.388   2.361 -0.1237 -0.2683  0.2056
  186MOL0     C25042   3.398   3.440   2.316  0.1093 -0.3196 -0.3318
  186MOL0     H25043   3.775   3.553   1.964  0.2503 -4.7761 -0.4689
  186MOL0     H25044   4.038   3.613   1.947  0.5017 -0.5290 -1.0640
  186MOL0     H25045   4.126   3.848   2.107 -1.7503 -1.9142  1.3623
  186MOL0     H25046   4.193   3.823   2.258  1.2908  1.9291 -1.7769
  186MOL0     H25047   4.324   3.794   1.983  0.9324  3.2885 -0.5518
  186MOL0     H25048   4.346   3.935   2.091 -0.2711  0.7565 -2.4220
  186MOL0     H25049   4.445   3.784   2.250  0.5782  0.6542 -1.4242
  186MOL0     H25050   4.445   3.652   2.119 -1.2554 -1.1200  1.0574
  186MOL0     H25051   4.606   3.783   1.995 -0.7499 -2.3684  0.3528
  186MOL0     H25052   4.598   3.921   2.117 -0.2111  0.2566  1.3205
  186MOL0     H25053   4.683   3.787   2.298 -1.1989 -2.0215  0.0155
  186MOL0     H25054   4.705   3.659   2.194 -0.9610  0.4956 -0.5923
  186MOL0     H25055   4.841   3.813   2.037  1.0960  0.3800 -0.1472
  186MOL0     H25056   4.833   3.934   2.174  0.6414  0.4461  2.1238
  186MOL0     H25057   4.951   3.768   2.320  2.7834  2.2509  0.0011
  186MOL0     H25058   4.970   3.661   2.192  0.4820 -0.5065  0.4255
  186MOL0     H25059   5.178   3.829   2.224 -0.6568  1.9654 -0.0671
  186MOL0     H25060   5.068   3.951   2.175 -0.9598 -0.2492 -0.1100
  186MOL0     H25061   5.041   3.628   1.988 -2.1111  0.7101  1.5404
  186MOL0     H25062   5.120   3.672   1.647 -0.1573  0.4048 -0.9708
  186MOL0     H25063   4.962   3.631   1.717 -1.4321  0.6983 -1.1376
  186MOL0     H25064   5.030   3.870   1.555 -0.7932  1.8158  0.1711
  186MOL0     H25065   4.893   3.865   1.667  2.0789 -0.2230  1.2101
  186MOL0     H25066   4.790   3.688   1.497  1.2591 -3.3729 -1.4159
  186MOL0     H25067   4.952   3.662   1.441 -2.0728 -3.7735  2.2161
  186MOL0     H25068   4.815   3.811   1.278  1.6033 -0.9414  0.3533
  186MOL0     H25069   4.962   3.875   1.334  2.1203  0.1515  3.7882
  186MOL0     H25070   4.749   4.191   1.404 -0.6348 -2.0491  1.7012
  186MOL0     H25071   4.533   4.365   1.238 -1.3271 -0.2916  0.3249
  186MOL0     H25072   4.439   4.378   1.401  0.7547 -1.0503  1.3386
  186MOL0     H25073   4.610   4.374   1.405  1.7359 -1.1389 -1.1955
  186MOL0     H25074   4.019   3.849   1.384 -0.8229  0.1289  0.5691
  186MOL0     H25075   3.812   3.806   1.279 -0.2098  2.1732  3.2666
  186MOL0     H25076   3.617   4.122   1.033  1.5258  1.5634 -2.0764
  186MOL0     H25077   3.721   4.066   0.898 -0.8803  1.0240 -0.4077
  186MOL0     H25078   3.509   4.035   0.823  1.5092  3.5714  1.8073
  186MOL0     H25079   3.565   3.871   0.869 -2.0603 -0.0531 -2.3673
  186MOL0     H25080   3.378   4.035   1.064 -0.7131 -1.0520 -0.2411
  186MOL0     H25081   3.422   3.863   1.074 -1.3746 -1.9434 -1.1663
  186MOL0     H25082   3.228   3.987   0.889 -1.8613 -0.5752  0.9538
  186MOL0     H25083   3.306   3.839   0.845  0.7795  1.5129 -0.5764
  186MOL0     H25084   3.167   3.753   1.068  0.9448 -0.9636 -0.7591
  186MOL0     H25085   3.077   3.845   0.953  0.7136 -1.0068 -0.4428
  186MOL0     H25086   3.204   3.946   1.206  0.1015 -1.9809  0.2235
  186MOL0     H25087   3.114   4.052   1.100  0.8587  0.2481 -0.1078
  186MOL0     H25088   2.923   3.874   1.118  1.6043 -0.6414 -1.4392
  186MOL0     H25089   2.962   3.996   1.252  1.9867 -0.0395  2.4753
  186MOL0     H25090   3.061   3.843   1.384 -2.1857  1.6375  0.1747
  186MOL0     H25091   3.062   3.705   1.264 -2.1599 -1.4656 -0.5582
  186MOL0     H25092   3.881   4.146   1.021 -2.3772 -2.8677 -1.4393
  186MOL0     H25093   4.092   4.174   1.126 -0.8076  1.6535  0.1491
  186MOL0     H25094   4.374   3.876   1.367  2.4651 -1.4092 -1.4191
  186MOL0     H25095   4.601   3.806   1.381  1.3012  1.1378 -0.3085
  186MOL0     H25096   4.048   3.593   2.373 -2.2780 -2.6343  1.8627
  186MOL0     H25097   3.842   3.533   2.394  4.1099 -3.2042  1.1842
  186MOL0     H25098   3.309   3.622   2.045  1.9567  0.9062 -0.2107
  186MOL0     H25099   3.097   3.530   2.103  1.2711 -2.1133 -0.4318
  186MOL0     H25100   3.069   3.200   2.405  0.2395 -1.0002  2.6119
  186MOL0     H25101   3.035   3.321   2.521  1.1803 -1.1392  0.9589
  186MOL0     H25102   2.813   3.340   2.454  4.9324  1.6619 -1.6395
  186MOL0     H25103   2.824   3.163   2.496 -3.2395 -0.0029 -0.5436
  186MOL0     H25104   2.822   3.111   2.254  0.1478  0.3517 -0.7250
  186MOL0     H25105   2.816   3.283   2.217  1.0935  2.0340  3.1348
  186MOL0     H25106   2.578   3.128   2.334  0.5309  1.3827  1.4923
  186MOL0     H25107   2.591   3.206   2.180 -2.3595  0.2716  1.4830
  186MOL0     H25108   2.551   3.553   2.405  0.0742  0.8582 -1.9654
  186MOL0     H25109   3.274   3.317   2.443 -0.8560 -1.2988 -0.6768
  186MOL0     H25110   3.484   3.406   2.372  1.2686  1.1151 -1.1613
  187MOL0     O25111   1.273   4.298  11.036 -0.4145 -0.1591  0.2189
  187MOL0     C25112   1.300   4.185  10.993  0.0107 -0.4863  0.4417
  187MOL0     O25113   1.211   4.089  10.958 -0.5717 -0.1321  0.1829
  187MOL0     C25114   1.078   4.110  10.964  0.1155  0.2837  0.7669
  187MOL0     C25115   1.015   4.212  10.886  0.3411  0.5319  0.3571
  187MOL0     C25116   0.875   4.233  10.892 -0.1689 -0.2095 -0.4928
  187MOL0     C25117   0.793   4.143  10.972 -0.2814  0.1830  1.2124
  187MOL0     O25118   0.653   4.151  10.980 -0.1505  0.1558 -0.5384
  187MOL0     C25119   0.601   4.282  10.951  0.9855 -1.2133  0.4878
  187MOL0     C25120   0.468   4.317  11.029 -0.9300  0.2884  0.8798
  187MOL0     C25121   0.347   4.287  10.944  0.4367 -0.0764  0.2445
  187MOL0     C25122   0.204   4.335  10.989  0.2468 -0.4158  0.1926
  187MOL0     C25123   0.095   4.308  10.888 -0.7474  0.1337 -0.2197
  187MOL0     C25124   0.066   4.157  10.894  0.1316  0.3197 -0.5250
  187MOL0     C25125  -0.053   4.120  10.816  0.2327 -0.9507  0.5537
  187MOL0     C25126  -0.057   4.134  10.656  0.0036 -0.1963  0.7220
  187MOL0     N25127  -0.183   4.124  10.587 -0.3411  0.3226 -0.7726
  187MOL0     C25128  -0.286   4.043  10.633  0.4811 -0.3835 -0.0159
  187MOL0     C25129  -0.377   4.041  10.534  0.4477 -0.7026  0.3347
  187MOL0     C25130  -0.501   3.962  10.523  0.4809  0.3881  0.3740
  187MOL0     C25131  -0.561   3.916  10.653  0.4936  0.3334 -0.5048
  187MOL0     C25132  -0.601   4.025  10.755  0.2094 -0.4345  0.0215
  187MOL0     C25133  -0.708   4.118  10.707  0.1661 -0.3515  0.0398
  187MOL0     O25134  -0.764   4.190  10.813 -0.0065  0.1248 -0.0755
  187MOL0     C25135  -0.903   4.199  10.830 -0.6510  0.1430  0.6445
  187MOL0     C25136  -0.992   4.118  10.770  0.4869  0.0687  0.5057
  187MOL0     C25137  -1.127   4.139  10.786 -0.8667  0.8665 -0.1105
  187MOL0     C25138  -1.231   4.056  10.718 -0.6459  0.9476 -0.5941
  187MOL0     C25139  -1.167   4.262  10.865  0.5684 -0.1554 -0.8876
  187MOL0     C25140  -1.304   4.304  10.904  0.3216  0.9590 -1.0001
  187MOL0     O25141  -1.316   4.395  11.003  0.2076  0.0026  0.4390
  187MOL0     C25142  -1.444   4.441  11.040 -0.5470  0.3535 -0.7557
  187MOL0     C25143  -1.498   4.400  11.156  1.3309 -0.0682  0.2259
  187MOL0     C25144  -1.610   4.464  11.204 -0.3621 -0.1217  0.2041
  187MOL0     C25145  -1.673   4.566  11.146 -0.3804  0.4382 -0.0472
  187MOL0     O25146  -1.785   4.630  11.202 -0.2532 -0.3955 -0.0864
  187MOL0     C25147  -1.798   4.770  11.192  0.6987  0.4368 -0.3330
  187MOL0     C25148  -1.920   4.835  11.251  0.2613 -0.2014  0.0999
  187MOL0     C25149  -2.057   4.776  11.212 -0.1297  0.1074  0.6241
  187MOL0     C25150  -2.184   4.841  11.276  0.3349  0.0055  0.6682
  187MOL0     C25151  -2.316   4.792  11.222  0.9742  1.1018 -0.0457
  187MOL0     C25152  -2.438   4.807  11.319 -1.8034 -0.3391  0.0361
  187MOL0     C25153  -2.433   4.932  11.410  0.8461 -1.3119 -0.7371
  187MOL0     C25154  -2.573   4.966  11.477 -0.6920  0.1910  0.4895
  187MOL0    Cl25155  -2.656   4.817  11.539  0.3238  0.0256 -0.1444
  187MOL0     C25156  -1.619   4.595  11.020 -0.0711 -0.3500  0.2635
  187MOL0     C25157  -1.512   4.533  10.962  0.1854  0.1250  0.2905
  187MOL0     O25158  -1.397   4.248  10.844 -0.1730  1.2457 -0.5840
  187MOL0     C25159  -1.070   4.338  10.925 -0.1763 -0.1999 -0.3110
  187MOL0     C25160  -0.939   4.307  10.901 -0.5446  0.1108  0.1250
  187MOL0     N25161  -0.332   4.130  10.437  0.0608 -0.1212 -0.4047
  187MOL0     N25162  -0.217   4.179  10.469 -1.0142 -0.7611  0.2658
  187MOL0     C25163   0.860   4.044  11.042 -0.0725  0.4163  0.5794
  187MOL0     C25164   1.000   4.025  11.033  0.6238  0.6218 -0.5569
  187MOL0     C25165   1.441   4.155  10.973  0.1751 -0.6074  0.3355
  187MOL0     C25166   1.533   4.250  11.004  0.5480  0.5653 -0.0076
  187MOL0     C25167   1.662   4.213  10.988  0.7085 -0.3269  0.8218
  187MOL0     C25168   1.706   4.085  10.943  0.0296 -0.1057 -0.5153
  187MOL0     O25169   1.843   4.071  10.933  0.2535  0.1278 -0.2334
  187MOL0     C25170   1.904   4.026  10.809  0.3998  0.4948 -0.3407
  187MOL0     C25171   2.051   4.034  10.811  0.1754 -0.1454 -0.5927
  187MOL0     C25172   2.131   3.984  10.695 -0.0512  0.1137  0.2148
  187MOL0     C25173   2.130   4.055  10.564 -0.1380 -0.6859  0.0878
  187MOL0     C25174   2.091   4.201  10.577  0.1139  0.2090  0.4853
  187MOL0     C25175   2.079   4.322  10.586 -0.7142 -0.1219 -0.8627
  187MOL0     C25176   1.609   3.990  10.916 -0.0845  0.4628 -1.1867
  187MOL0     C25177   1.484   4.034  10.918 -0.0836  0.8302 -0.8791
  187MOL0     H25178   1.076   4.282  10.830 -0.9318  3.8649  2.8124
  187MOL0     H25179   0.829   4.319  10.843 -2.8631  0.4459  2.8360
  187MOL0     H25180   0.676   4.358  10.978  1.7271 -1.6603 -0.2581
  187MOL0     H25181   0.586   4.297  10.844 -2.1151 -0.4504  0.9506
  187MOL0     H25182   0.458   4.254  11.118  1.7868 -0.0915  0.9870
  187MOL0     H25183   0.471   4.423  11.054  1.3821  0.3530  0.5260
  187MOL0     H25184   0.365   4.329  10.845  1.1261 -1.8792 -0.4508
  187MOL0     H25185   0.334   4.178  10.950  0.4468 -0.0036  2.6234
  187MOL0     H25186   0.183   4.293  11.087  1.3159  0.7165  0.9339
  187MOL0     H25187   0.205   4.442  11.009  2.6258 -1.1003  5.4267
  187MOL0     H25188   0.005   4.361  10.919  1.3346  2.0729  3.1522
  187MOL0     H25189   0.142   4.328  10.791  3.1638 -2.1180  0.9577
  187MOL0     H25190   0.155   4.107  10.853 -1.0488 -2.1797 -0.2359
  187MOL0     H25191   0.049   4.119  10.995 -0.2510 -2.3032 -1.4853
  187MOL0     H25192  -0.084   4.017  10.838 -0.5298 -2.3008 -5.1352
  187MOL0     H25193  -0.138   4.180  10.851 -0.7987 -2.2243  0.3491
  187MOL0     H25194   0.013   4.062  10.612  1.7999  2.5853 -1.3298
  187MOL0     H25195  -0.024   4.237  10.638  0.0392  0.2012  2.7637
  187MOL0     H25196  -0.286   3.970  10.714  0.9932 -0.9921 -0.5494
  187MOL0     H25197  -0.566   4.033  10.472  1.2612  1.0510  0.2926
  187MOL0     H25198  -0.484   3.874  10.460  0.7124  0.8925 -0.2751
  187MOL0     H25199  -0.485   3.856  10.704 -0.6849 -0.5386  0.2762
  187MOL0     H25200  -0.653   3.858  10.641  0.9639 -1.3856  2.8308
  187MOL0     H25201  -0.516   4.076  10.800  1.6799 -2.6587 -0.0516
  187MOL0     H25202  -0.654   3.972  10.835  1.1197  1.5690  2.0686
  187MOL0     H25203  -0.778   4.056  10.649  1.1335 -0.5146 -0.9811
  187MOL0     H25204  -0.668   4.193  10.638  1.2995 -0.4860  0.5383
  187MOL0     H25205  -0.971   4.026  10.716  2.1248  0.5476  0.2591
  187MOL0     H25206  -1.183   3.982  10.653  0.1657 -0.6818  1.7215
  187MOL0     H25207  -1.276   4.001  10.801  1.7186  0.3036  0.3485
  187MOL0     H25208  -1.308   4.106  10.659 -1.8087  0.1993  0.2403
  187MOL0     H25209  -1.453   4.326  11.222  0.3579 -2.3793 -1.5915
  187MOL0     H25210  -1.643   4.434  11.303 -2.4138  0.9261 -0.1061
  187MOL0     H25211  -1.718   4.820  11.248 -1.1346  0.5134  2.3809
  187MOL0     H25212  -1.797   4.803  11.088  0.5842 -0.3213 -0.5770
  187MOL0     H25213  -1.910   4.803  11.355  2.6683 -0.9512 -0.2989
  187MOL0     H25214  -1.908   4.943  11.242  1.2688 -0.3997 -1.3628
  187MOL0     H25215  -2.051   4.673  11.247  0.9967  0.7244  2.3885
  187MOL0     H25216  -2.058   4.781  11.103  0.4371  0.9398  0.6482
  187MOL0     H25217  -2.174   4.813  11.381 -0.3933 -0.4756  0.6238
  187MOL0     H25218  -2.168   4.948  11.263  0.4859 -0.3659 -3.2455
  187MOL0     H25219  -2.302   4.685  11.203 -0.6041  0.6747  1.0560
  187MOL0     H25220  -2.332   4.846  11.128 -1.5957  2.5983  1.1693
  187MOL0     H25221  -2.528   4.802  11.257 -0.8442 -0.3296 -1.3895
  187MOL0     H25222  -2.449   4.720  11.384  1.5475 -1.6854 -1.0212
  187MOL0     H25223  -2.406   5.020  11.351  1.4471 -1.4120 -0.6181
  187MOL0     H25224  -2.370   4.911  11.497 -0.8636  1.2480  1.3172
  187MOL0     H25225  -2.632   5.022  11.403 -0.8855  0.6999  1.0235
  187MOL0     H25226  -2.543   5.029  11.562 -1.8049  2.3151 -0.6021
  187MOL0     H25227  -1.670   4.677  10.970 -1.2285  1.9186  4.6317
  187MOL0     H25228  -1.476   4.586  10.874  1.3361  0.1225  0.7441
  187MOL0     H25229  -1.090   4.429  10.981  0.5517  0.0019 -0.3658
  187MOL0     H25230  -0.851   4.365  10.929  2.8020 -3.5528 -1.7099
  187MOL0     H25231   0.797   3.978  11.100  0.7257 -0.6144  0.3188
  187MOL0     H25232   1.042   3.950  11.099 -1.1114 -1.4878 -1.7122
  187MOL0     H25233   1.510   4.353  11.028 -2.1614 -0.4413  2.4208
  187MOL0     H25234   1.742   4.284  11.005  4.7134 -4.0901 -0.4321
  187MOL0     H25235   1.867   3.927  10.782 -1.1324  0.8277  0.4094
  187MOL0     H25236   1.877   4.086  10.722 -1.1441 -1.3265 -1.1661
  187MOL0     H25237   2.085   3.964  10.887 -1.6366 -1.3022 -0.7781
  187MOL0     H25238   2.081   4.136  10.833 -2.8575  0.5235  0.9742
  187MOL0     H25239   2.102   3.879  10.682  0.7462 -0.4530  2.5230
  187MOL0     H25240   2.231   3.972  10.738 -0.2917 -0.8185  0.5493
  187MOL0     H25241   2.074   4.004  10.485 -3.0739  3.8495 -1.1898
  187MOL0     H25242   2.228   4.048  10.517 -1.2197 -0.1570 -2.4003
  187MOL0     H25243   2.066   4.428  10.593 -1.9195 -0.3589  1.6618
  187MOL0     H25244   1.626   3.893  10.870  1.5286 -1.1992  2.5049
  187MOL0     H25245   1.407   3.970  10.877 -2.3544  2.3051  0.8516
  188MOL0     O25246   8.396   9.087   3.430  0.0534 -0.0970  0.4761
  188MOL0     C25247   8.392   9.210   3.442  0.1994  0.1524  0.1737
  188MOL0     O25248   8.498   9.294   3.462  0.0254  0.1314  0.1790
  188MOL0     C25249   8.623   9.240   3.468 -0.5961 -0.3301  0.6234
  188MOL0     C25250   8.717   9.329   3.517  0.9832  0.4520 -0.3115
  188MOL0     C25251   8.858   9.303   3.523  0.2174  0.3840  0.1128
  188MOL0     C25252   8.904   9.182   3.470 -1.0808 -0.5621  0.7396
  188MOL0     O25253   9.044   9.169   3.471  0.5995 -0.1235  0.2016
  188MOL0     C25254   9.097   9.054   3.404  0.7988  0.7176 -0.3317
  188MOL0     C25255   9.225   9.008   3.475  0.1582  0.0093  0.4256
  188MOL0     C25256   9.335   9.113   3.477  0.6700 -0.0935  0.1201
  188MOL0     C25257   9.470   9.051   3.529 -0.2705  0.0230 -0.2003
  188MOL0     C25258   9.597   9.146   3.510  0.3336  0.4744 -0.9922
  188MOL0     C25259   9.722   9.088   3.564  0.2641 -0.5465 -0.3527
  188MOL0     C25260   9.848   9.181   3.588  0.6232 -0.4173 -0.6146
  188MOL0     C25261   9.975   9.089   3.601 -0.4350  0.5184 -0.3287
  188MOL0     N25262  10.019   9.022   3.481  1.0029 -0.1173 -1.1069
  188MOL0     C25263  10.060   9.082   3.364  0.1428  0.1955  0.9267
  188MOL0     C25264  10.094   8.981   3.274 -0.7030 -0.2978 -0.3281
  188MOL0     C25265  10.167   8.979   3.138 -1.4123 -0.2702  0.2483
  188MOL0     C25266  10.113   9.083   3.044 -0.9138 -0.1428  0.3551
  188MOL0     C25267   9.971   9.055   2.985 -0.4203  0.1919 -0.4977
  188MOL0     C25268   9.921   9.186   2.930 -0.2338 -0.0247  0.1439
  188MOL0     O25269   9.890   9.277   3.038  0.6559  0.3625 -0.7280
  188MOL0     C25270   9.758   9.319   3.035 -0.7966 -0.7332 -0.1824
  188MOL0     C25271   9.736   9.454   3.045 -0.0062  0.3743 -0.9985
  188MOL0     C25272   9.599   9.502   3.069 -0.3474 -0.1916  0.4153
  188MOL0     C25273   9.590   9.652   3.077  0.3523 -0.3998 -0.2533
  188MOL0     C25274   9.491   9.407   3.082 -1.1924  0.5225  0.0698
  188MOL0     C25275   9.350   9.447   3.102 -0.0055 -0.0375 -0.2936
  188MOL0     O25276   9.251   9.349   3.091  0.3401 -0.4403 -0.5102
  188MOL0     C25277   9.126   9.399   3.088 -0.2277  0.0310 -0.3203
  188MOL0     C25278   9.055   9.405   2.963  0.0737 -0.7675  0.1006
  188MOL0     C25279   8.915   9.440   2.968  0.4195  0.0107  0.7396
  188MOL0     C25280   8.852   9.471   3.084 -0.1155  0.2510 -0.4952
  188MOL0     O25281   8.717   9.506   3.077 -0.1367  0.7143 -0.1161
  188MOL0     C25282   8.627   9.400   3.109  0.3889  0.0084  0.2343
  188MOL0     C25283   8.491   9.450   3.054  0.1030 -0.4884  0.4549
  188MOL0     C25284   8.437   9.581   3.114  0.1299 -0.3695 -0.7676
  188MOL0     C25285   8.320   9.608   3.016 -0.2483  0.4967  0.3975
  188MOL0     C25286   8.280   9.752   3.033  0.8158  0.4354  0.7015
  188MOL0     C25287   8.180   9.761   3.149  0.2869  0.3366 -0.6688
  188MOL0     C25288   8.149   9.907   3.188  0.4386  0.5528  0.0675
  188MOL0     C25289   8.044   9.915   3.290  1.2442 -0.6279 -0.7261
  188MOL0    Cl25290   7.891   9.861   3.237 -0.6581 -0.3499 -0.7895
  188MOL0     C25291   8.924   9.471   3.202 -0.7622 -0.0135 -0.3209
  188MOL0     C25292   9.052   9.433   3.202 -0.0219  0.9991 -0.5207
  188MOL0     O25293   9.331   9.552   3.154 -0.0461 -0.0125  0.7561
  188MOL0     C25294   9.519   9.270   3.072  0.3874  0.2044  0.3353
  188MOL0     C25295   9.653   9.231   3.055 -0.3282  0.5888  0.1854
  188MOL0     N25296  10.062   8.865   3.335  0.5725  0.1781 -0.7819
  188MOL0     N25297  10.018   8.889   3.461 -0.9721  0.1820  0.2719
  188MOL0     C25298   8.813   9.097   3.409  0.1477  0.8396  0.6684
  188MOL0     C25299   8.675   9.122   3.410  0.2192 -0.3830  0.0142
  188MOL0     C25300   8.260   9.274   3.415  0.3442  0.7238 -0.3701
  188MOL0     C25301   8.251   9.413   3.422 -0.2663 -0.2118 -1.2156
  188MOL0     C25302   8.115   9.474   3.422 -0.6329  0.3383  0.5628
  188MOL0     C25303   8.002   9.389   3.399 -0.0323 -0.8162  0.7922
  188MOL0     O25304   7.877   9.452   3.396 -0.3680  0.3318  0.0339
  188MOL0     C25305   7.845   9.498   3.267  0.5757  0.2912 -0.4055
  188MOL0     C25306   7.706   9.571   3.252  0.1127  0.0314 -0.3113
  188MOL0     C25307   7.588   9.486   3.299 -0.1027 -0.0682 -0.0316
  188MOL0     C25308   7.537   9.363   3.224  0.9670 -0.3399 -1.0366
  188MOL0     C25309   7.624   9.246   3.242 -0.6464 -0.6724 -1.2519
  188MOL0     C25310   7.694   9.153   3.275  0.8608  0.8670  0.3756
  188MOL0     C25311   8.016   9.252   3.380  0.8148  0.4384  1.0165
  188MOL0     C25312   8.140   9.198   3.399  0.0240 -0.6822  0.2243
  188MOL0     H25313   8.678   9.421   3.560  2.7387 -0.1021  2.7401
  188MOL0     H25314   8.925   9.379   3.562 -1.5129  1.5837  0.8817
  188MOL0     H25315   9.027   8.969   3.405  1.0237  0.5321 -0.1683
  188MOL0     H25316   9.119   9.072   3.298 -2.2722 -1.4415 -1.4969
  188MOL0     H25317   9.214   8.982   3.580  3.0718 -1.7430  0.4193
  188MOL0     H25318   9.250   8.925   3.408  0.0868  0.8755 -0.7065
  188MOL0     H25319   9.341   9.149   3.374  0.4771  2.5638  0.9688
  188MOL0     H25320   9.318   9.196   3.547 -0.2160  1.8606 -2.2784
  188MOL0     H25321   9.468   9.027   3.635 -1.8881  0.5009 -0.1019
  188MOL0     H25322   9.488   8.967   3.460 -1.2442  1.8747 -2.8957
  188MOL0     H25323   9.617   9.154   3.403  0.9582 -2.8260 -1.2199
  188MOL0     H25324   9.575   9.243   3.555  1.7110  0.6230 -0.5989
  188MOL0     H25325   9.703   9.042   3.662  0.7446  2.3567  1.2158
  188MOL0     H25326   9.744   9.008   3.493 -1.0179  0.8201 -2.3708
  188MOL0     H25327   9.863   9.253   3.507  1.7652 -0.8247 -0.7907
  188MOL0     H25328   9.833   9.227   3.686  0.1339  1.1157 -1.3738
  188MOL0     H25329   9.945   9.008   3.668  0.1011  1.5959  1.2774
  188MOL0     H25330  10.062   9.140   3.643 -0.9325  0.7908  0.3958
  188MOL0     H25331  10.076   9.186   3.338  2.4380 -0.3028  0.1606
  188MOL0     H25332  10.272   8.998   3.164 -0.3968 -3.4949 -0.9346
  188MOL0     H25333  10.170   8.887   3.079 -4.0612  0.4248 -1.1116
  188MOL0     H25334  10.185   9.091   2.962 -1.4815  1.1805 -0.0420
  188MOL0     H25335  10.101   9.174   3.103 -1.0021  0.4442 -0.5454
  188MOL0     H25336   9.914   9.017   3.070 -2.1815 -2.9961 -2.8728
  188MOL0     H25337   9.981   8.980   2.906 -1.4526 -0.5099  0.0197
  188MOL0     H25338   9.838   9.172   2.860 -2.2707  2.2542  1.9287
  188MOL0     H25339  10.006   9.236   2.883  0.3735 -0.9241  0.2504
  188MOL0     H25340   9.813   9.528   3.028  0.7592 -0.8131 -3.0566
  188MOL0     H25341   9.676   9.693   3.024  0.2514 -2.4055 -2.0989
  188MOL0     H25342   9.495   9.694   3.043  1.4968  3.1118  0.4073
  188MOL0     H25343   9.604   9.670   3.184  1.7955  1.4520 -0.6984
  188MOL0     H25344   9.107   9.364   2.877  2.3544  0.3885  0.8484
  188MOL0     H25345   8.877   9.426   2.868 -0.9686  0.8648  1.1187
  188MOL0     H25346   8.648   9.305   3.058  2.6481  0.8609 -0.5358
  188MOL0     H25347   8.626   9.369   3.214  2.1835 -0.0861  0.2495
  188MOL0     H25348   8.510   9.471   2.949 -2.6238 -0.7406 -0.1508
  188MOL0     H25349   8.409   9.378   3.062 -0.0578 -0.1252  2.9217
  188MOL0     H25350   8.514   9.659   3.113 -1.2889  1.1301 -3.0102
  188MOL0     H25351   8.391   9.575   3.212 -0.9936  1.5274 -1.1287
  188MOL0     H25352   8.343   9.574   2.914 -2.0870 -2.4137  0.8296
  188MOL0     H25353   8.234   9.546   3.042 -2.6179  1.8726 -3.2855
  188MOL0     H25354   8.249   9.791   2.936  3.5322  2.4869  0.5205
  188MOL0     H25355   8.366   9.816   3.054 -0.3910  1.6032  2.2614
  188MOL0     H25356   8.094   9.696   3.130  0.2378  0.2796 -0.2671
  188MOL0     H25357   8.223   9.714   3.238 -2.6597 -4.4933 -1.4564
  188MOL0     H25358   8.104   9.948   3.097  2.2899  3.0061  0.1452
  188MOL0     H25359   8.241   9.961   3.210  1.3294 -1.2259  0.8685
  188MOL0     H25360   8.040  10.022   3.314  1.3185 -0.7943  0.0694
  188MOL0     H25361   8.066   9.859   3.381 -1.4524  2.3346  2.0377
  188MOL0     H25362   8.882   9.497   3.298  2.5672 -0.7506  1.4868
  188MOL0     H25363   9.113   9.413   3.290  0.0771  0.5536 -0.6843
  188MOL0     H25364   9.442   9.194   3.088  0.5784 -0.0143  0.2189
  188MOL0     H25365   9.674   9.125   3.058 -0.2815  0.6021  0.3376
  188MOL0     H25366   8.849   9.003   3.367  0.0013 -0.9620  4.2018
  188MOL0     H25367   8.623   9.044   3.357  2.5547 -1.3031 -1.0823
  188MOL0     H25368   8.338   9.475   3.437 -1.2369  0.6559  1.6101
  188MOL0     H25369   8.096   9.581   3.430 -1.9305  0.2472 -0.7905
  188MOL0     H25370   7.918   9.562   3.217 -1.2509  0.9018 -2.4965
  188MOL0     H25371   7.832   9.413   3.200 -1.7149 -0.3097  0.7112
  188MOL0     H25372   7.687   9.599   3.148 -3.4999  0.0470  0.2044
  188MOL0     H25373   7.704   9.667   3.305  2.3441  0.6636 -1.2702
  188MOL0     H25374   7.505   9.558   3.296  0.1535  0.2759  0.8236
  188MOL0     H25375   7.611   9.458   3.402  0.0109  0.0382 -0.0265
  188MOL0     H25376   7.520   9.386   3.119 -4.0344  1.9971  0.0027
  188MOL0     H25377   7.440   9.340   3.270  0.4405  1.1917 -1.3232
  188MOL0     H25378   7.760   9.072   3.299 -2.2735 -2.0653  0.0233
  188MOL0     H25379   7.935   9.184   3.355  1.5985  0.3538 -1.7046
  188MOL0     H25380   8.157   9.094   3.375  1.6972  0.0182 -2.0376
  189MOL0     O25381   9.736   1.968  11.294 -0.0730 -0.2224  0.2318
  189MOL0     C25382   9.806   2.056  11.250 -0.1165  0.3130  0.0216
  189MOL0     O25383   9.765   2.178  11.208  0.2312  0.9149 -0.7611
  189MOL0     C25384   9.633   2.208  11.182  0.4629  0.5636 -0.3008
  189MOL0     C25385   9.600   2.346  11.182  0.3358  0.6385 -0.6223
  189MOL0     C25386   9.473   2.390  11.151 -0.0242  0.4728 -0.1516
  189MOL0     C25387   9.383   2.304  11.082  0.1552  0.3243 -0.5144
  189MOL0     O25388   9.260   2.340  11.037  0.0369  0.5077 -0.2839
  189MOL0     C25389   9.234   2.303  10.902  0.2422 -0.2170  0.7107
  189MOL0     C25390   9.095   2.262  10.875  0.7016  0.4966 -0.2555
  189MOL0     C25391   9.071   2.106  10.875 -0.1978  1.1209 -0.3661
  189MOL0     C25392   8.922   2.093  10.841 -0.4454 -0.2358  0.3829
  189MOL0     C25393   8.867   1.954  10.815  0.6309 -0.2796 -0.8382
  189MOL0     C25394   8.731   1.922  10.878 -0.1832  0.9473  0.3843
  189MOL0     C25395   8.624   2.003  10.810 -1.0668 -0.1526  0.0575
  189MOL0     C25396   8.485   1.957  10.851  0.5333 -0.1651  1.1005
  189MOL0     N25397   8.441   2.017  10.981  0.1092 -0.2413 -0.2023
  189MOL0     C25398   8.319   2.000  11.032  0.0408 -0.6514 -0.2013
  189MOL0     C25399   8.319   2.085  11.139  0.3323 -0.1846 -0.1510
  189MOL0     C25400   8.205   2.106  11.240  0.0287 -0.6549  0.6876
  189MOL0     C25401   8.125   1.984  11.269  0.0509  0.0226  0.3284
  189MOL0     C25402   8.015   2.020  11.366 -0.3506 -0.4699  0.2606
  189MOL0     C25403   7.967   1.899  11.447  0.5676 -0.1057 -0.2174
  189MOL0     O25404   7.877   1.944  11.543  0.2296 -0.8518 -0.1512
  189MOL0     C25405   7.743   1.965  11.518 -0.0300 -0.1264 -1.1505
  189MOL0     C25406   7.653   1.955  11.626  0.1573 -1.1615  0.4863
  189MOL0     C25407   7.513   1.979  11.606 -0.6557  0.8305  0.2464
  189MOL0     C25408   7.429   2.001  11.729  0.8584  0.3361  0.3846
  189MOL0     C25409   7.458   1.996  11.475  0.5270 -0.7082 -0.0646
  189MOL0     C25410   7.317   2.004  11.437 -0.6416  0.0244 -0.4470
  189MOL0     O25411   7.212   1.968  11.526  0.0804 -0.2095 -0.2602
  189MOL0     C25412   7.081   1.971  11.484  0.5600 -0.1363 -0.3533
  189MOL0     C25413   7.034   1.907  11.374  0.1621 -0.1800 -0.0693
  189MOL0     C25414   6.897   1.898  11.342  0.2471 -0.6954 -0.2493
  189MOL0     C25415   6.799   1.946  11.428  0.0649  0.2281  0.1454
  189MOL0     O25416   6.665   1.907  11.404 -0.3902 -0.3512 -0.4616
  189MOL0     C25417   6.557   1.970  11.477  0.0832  0.9847  0.1417
  189MOL0     C25418   6.436   1.963  11.385  0.3091  0.2983 -0.3145
  189MOL0     C25419   6.325   2.041  11.459  0.6759 -0.5957  0.5279
  189MOL0     C25420   6.202   2.053  11.373  0.3573 -0.5339  0.0770
  189MOL0     C25421   6.106   2.166  11.434  0.2791 -0.7053  0.6240
  189MOL0     C25422   5.997   2.190  11.327 -0.1195  0.0601  0.7742
  189MOL0     C25423   5.899   2.313  11.374  0.1669  0.6075 -0.2779
  189MOL0     C25424   5.782   2.342  11.280 -0.2600  0.3370 -0.5376
  189MOL0    Cl25425   5.685   2.201  11.237  0.2225 -0.1686 -0.2342
  189MOL0     C25426   6.848   2.009  11.550 -0.1723 -0.1202 -0.1561
  189MOL0     C25427   6.986   2.016  11.575 -0.0433 -0.0215  0.0530
  189MOL0     O25428   7.293   2.062  11.327 -0.1324  0.1702  0.4442
  189MOL0     C25429   7.549   1.998  11.368 -0.9059 -0.0832  0.1000
  189MOL0     C25430   7.690   1.979  11.392  0.8753 -0.0794  0.7460
  189MOL0     N25431   8.446   2.139  11.156  0.5015 -0.0963 -0.7686
  189MOL0     N25432   8.517   2.097  11.063 -0.3805  0.2624  0.1320
  189MOL0     C25433   9.413   2.163  11.082  0.0240 -1.1199 -0.3267
  189MOL0     C25434   9.535   2.119  11.139  0.0418 -0.0894  0.8132
  189MOL0     C25435   9.950   2.016  11.241  0.3895 -0.5567  0.3681
  189MOL0     C25436   9.994   1.889  11.277  0.7890 -0.2432  0.4410
  189MOL0     C25437  10.126   1.873  11.298 -0.6615  0.3293  0.0203
  189MOL0     C25438  10.220   1.973  11.267  1.3600  0.3296  0.2679
  189MOL0     O25439  10.347   1.948  11.273  0.5464  0.3596 -0.1994
  189MOL0     C25440  10.406   1.868  11.169 -0.0936  0.3133 -0.2829
  189MOL0     C25441  10.411   1.939  11.031  0.5481 -0.0128 -0.6169
  189MOL0     C25442  10.451   1.850  10.915 -0.3076 -0.0011  0.0340
  189MOL0     C25443  10.503   1.932  10.796  0.8468  0.2111  0.1846
  189MOL0     C25444  10.392   1.993  10.725 -0.5947 -0.4621  0.0900
  189MOL0     C25445  10.301   2.043  10.663  0.1934 -0.1245  0.0213
  189MOL0     C25446  10.186   2.096  11.221  0.0492 -0.3825 -0.4931
  189MOL0     C25447  10.042   2.117  11.206 -0.2793  1.3923 -0.0763
  189MOL0     H25448   9.676   2.412  11.224  0.7869 -1.4717  2.1907
  189MOL0     H25449   9.461   2.498  11.153  1.4480  0.6450  0.3840
  189MOL0     H25450   9.238   2.397  10.848  2.8552 -0.5599  0.1996
  189MOL0     H25451   9.309   2.239  10.855  2.6401 -0.3110  4.2468
  189MOL0     H25452   9.025   2.312  10.942  1.1430 -0.0289  0.6114
  189MOL0     H25453   9.062   2.291  10.775 -3.2162 -0.3346  0.6142
  189MOL0     H25454   9.124   2.059  10.791 -3.5177 -1.2455 -1.3329
  189MOL0     H25455   9.102   2.051  10.964 -2.1724  1.2618  0.4546
  189MOL0     H25456   8.859   2.124  10.926 -2.3103  0.4066 -1.1515
  189MOL0     H25457   8.898   2.158  10.756 -1.7462 -1.6854 -0.4204
  189MOL0     H25458   8.852   1.940  10.708  0.6085  1.4131 -1.0832
  189MOL0     H25459   8.945   1.883  10.841  0.6759  0.0266 -0.1144
  189MOL0     H25460   8.703   1.818  10.858 -1.6788  1.2080  0.9946
  189MOL0     H25461   8.746   1.933  10.985  0.1183 -3.5103  0.9907
  189MOL0     H25462   8.632   2.112  10.823 -2.5068 -0.0913  0.5815
  189MOL0     H25463   8.636   1.990  10.702  1.8401 -0.9453  0.4022
  189MOL0     H25464   8.498   1.849  10.866  1.2602 -0.3111 -0.3926
  189MOL0     H25465   8.407   1.969  10.775  1.1168 -3.1757 -0.1448
  189MOL0     H25466   8.241   1.933  10.997  0.2195  0.4009 -2.9275
  189MOL0     H25467   8.243   2.149  11.333  1.9290  0.1985 -0.4104
  189MOL0     H25468   8.141   2.177  11.188  0.8944 -0.2114  0.1963
  189MOL0     H25469   8.196   1.915  11.316 -0.8596  0.0540  1.8286
  189MOL0     H25470   8.091   1.933  11.179  0.6842  0.6912 -0.3028
  189MOL0     H25471   7.934   2.053  11.301 -0.8416 -1.4386  0.3536
  189MOL0     H25472   8.051   2.093  11.439 -2.4334 -1.1680  2.1070
  189MOL0     H25473   8.056   1.859  11.497  1.2040  2.5370  0.9290
  189MOL0     H25474   7.925   1.817  11.389 -0.4080  0.4539 -0.3317
  189MOL0     H25475   7.704   1.957  11.722  1.8420 -0.9140 -0.3663
  189MOL0     H25476   7.389   2.103  11.738 -0.0243 -0.0354  0.8095
  189MOL0     H25477   7.338   1.942  11.723  0.8712  0.4599 -1.5604
  189MOL0     H25478   7.481   1.976  11.822 -0.1294 -0.0421  0.8445
  189MOL0     H25479   7.094   1.869  11.292  1.2364  0.7191  0.2845
  189MOL0     H25480   6.869   1.839  11.254 -0.6944 -1.8897  0.8072
  189MOL0     H25481   6.544   1.924  11.576  0.9078 -0.6394 -0.4603
  189MOL0     H25482   6.571   2.074  11.506 -1.9944  0.7618  2.2556
  189MOL0     H25483   6.452   2.000  11.283  0.6373  2.4165  0.4627
  189MOL0     H25484   6.405   1.858  11.383  0.4398  0.2479 -2.7120
  189MOL0     H25485   6.361   2.141  11.483 -2.0004  0.0163  2.3677
  189MOL0     H25486   6.302   2.004  11.559  0.8640 -0.8914  0.4642
  189MOL0     H25487   6.230   2.080  11.271 -0.8030 -1.7018 -0.5824
  189MOL0     H25488   6.149   1.957  11.368  2.6033 -1.7418 -2.7191
  189MOL0     H25489   6.175   2.250  11.448 -0.3109 -0.3681  1.5973
  189MOL0     H25490   6.075   2.134  11.533 -1.4149 -0.3502  0.2402
  189MOL0     H25491   6.044   2.222  11.234 -1.6839  2.8851  0.8123
  189MOL0     H25492   5.938   2.099  11.318 -0.9178  0.6497 -0.1532
  189MOL0     H25493   5.953   2.408  11.382  0.1818  0.5232  0.6639
  189MOL0     H25494   5.871   2.276  11.473 -0.3773  0.7228 -0.3853
  189MOL0     H25495   5.830   2.377  11.188 -1.5478  0.0315 -1.3604
  189MOL0     H25496   5.714   2.420  11.318 -2.7614 -1.0082 -1.9613
  189MOL0     H25497   6.783   2.047  11.628 -1.6786  0.6521 -1.7280
  189MOL0     H25498   7.021   2.058  11.670  0.0702 -2.7242  1.2919
  189MOL0     H25499   7.504   2.007  11.270 -2.5698  0.8000  0.9084
  189MOL0     H25500   7.752   1.986  11.303  2.3792 -2.4936  1.5091
  189MOL0     H25501   9.338   2.100  11.035 -1.7965  0.3873  0.4091
  189MOL0     H25502   9.549   2.011  11.139 -1.8151 -0.3673  0.2894
  189MOL0     H25503   9.930   1.802  11.285  1.9147 -1.1752 -0.2301
  189MOL0     H25504  10.162   1.774  11.324  0.5402  0.0495 -2.4631
  189MOL0     H25505  10.506   1.830  11.196  0.8986  1.3226 -2.3398
  189MOL0     H25506  10.349   1.775  11.162  2.3530 -1.4750  1.4432
  189MOL0     H25507  10.480   2.023  11.032  1.3997 -0.6362  2.3421
  189MOL0     H25508  10.309   1.968  11.003 -0.9085 -3.3463  0.6773
  189MOL0     H25509  10.377   1.778  10.880  1.6395 -1.4732 -1.2078
  189MOL0     H25510  10.540   1.791  10.935  0.2953 -0.5327 -3.5486
  189MOL0     H25511  10.558   1.873  10.722 -0.7507  1.9421 -2.5174
  189MOL0     H25512  10.569   2.008  10.839  0.6668  0.1471  0.5766
  189MOL0     H25513  10.215   2.087  10.615  1.4088  1.7802 -0.5060
  189MOL0     H25514  10.267   2.164  11.198  0.7879 -0.4918  1.5469
  189MOL0     H25515  10.001   2.207  11.160 -2.0932 -0.5844 -2.6120
  190MOL0     O25516   9.965   3.155   7.790  0.0037 -0.3411  0.1338
  190MOL0     C25517  10.009   3.158   7.675  0.2147 -0.1807 -0.4927
  190MOL0     O25518   9.944   3.204   7.572 -0.2442 -0.1852 -0.0182
  190MOL0     C25519   9.821   3.249   7.584 -0.1355  0.1192 -0.6434
  190MOL0     C25520   9.794   3.370   7.637  0.3411 -0.2378  0.1253
  190MOL0     C25521   9.663   3.416   7.665 -0.4086 -0.1220 -0.7034
  190MOL0     C25522   9.557   3.326   7.636  0.5680 -0.1832 -0.5476
  190MOL0     O25523   9.436   3.374   7.672 -0.1156  0.7004  0.0860
  190MOL0     C25524   9.325   3.287   7.642 -0.4789  0.0019 -0.6147
  190MOL0     C25525   9.192   3.359   7.686  0.0239 -0.0136 -0.6404
  190MOL0     C25526   9.070   3.322   7.588 -0.0033 -0.6592 -0.4017
  190MOL0     C25527   9.064   3.405   7.463  0.4649 -0.2603 -0.9266
  190MOL0     C25528   8.928   3.389   7.393  0.1379  0.0073  1.2806
  190MOL0     C25529   8.932   3.468   7.257 -0.5435 -0.3842 -0.0202
  190MOL0     C25530   8.799   3.480   7.189 -0.6250  0.1763 -0.3333
  190MOL0     C25531   8.753   3.343   7.143  0.7368 -0.1573  0.5220
  190MOL0     N25532   8.639   3.365   7.041  0.2094  0.6397  0.0897
  190MOL0     C25533   8.656   3.443   6.931 -0.3895 -0.1014 -0.1008
  190MOL0     C25534   8.525   3.441   6.879 -0.0423 -0.3569 -0.1076
  190MOL0     C25535   8.473   3.523   6.757 -0.0862 -0.3488 -0.0653
  190MOL0     C25536   8.369   3.449   6.674 -0.1625 -0.5345 -0.1076
  190MOL0     C25537   8.334   3.533   6.556 -1.0760 -0.1323 -0.1399
  190MOL0     C25538   8.220   3.471   6.480  1.5417 -0.6204  0.3011
  190MOL0     O25539   8.102   3.446   6.562 -0.0464  0.2951  0.7082
  190MOL0     C25540   7.992   3.419   6.471 -0.0487 -0.1578  0.1662
  190MOL0     C25541   7.998   3.382   6.330 -0.4692 -0.1112 -0.1578
  190MOL0     C25542   7.886   3.394   6.252  0.3822  0.4964 -0.0378
  190MOL0     C25543   7.904   3.372   6.102  0.2380  0.3250  0.1576
  190MOL0     C25544   7.761   3.403   6.321  0.8429  0.8720  0.0114
  190MOL0     C25545   7.630   3.386   6.252  0.0947  0.6605 -0.0544
  190MOL0     O25546   7.546   3.294   6.299 -0.3787  0.0190 -0.5242
  190MOL0     C25547   7.421   3.296   6.250 -0.7238  0.0306 -0.1180
  190MOL0     C25548   7.386   3.261   6.117  0.8194 -0.1806 -0.3975
  190MOL0     C25549   7.259   3.257   6.066 -0.4012  0.7212  0.1204
  190MOL0     C25550   7.155   3.299   6.138  0.1740  0.7422  0.0540
  190MOL0     O25551   7.041   3.320   6.067 -0.2675  0.5476 -0.2867
  190MOL0     C25552   6.919   3.350   6.148 -0.8337  0.4295 -0.0593
  190MOL0     C25553   6.803   3.359   6.053  0.1731 -0.2359 -0.5602
  190MOL0     C25554   6.763   3.226   6.006 -0.2450  0.4310 -0.2194
  190MOL0     C25555   6.647   3.233   5.900  0.4852  1.3897 -0.4476
  190MOL0     C25556   6.582   3.100   5.857 -0.0092  1.0723 -0.2260
  190MOL0     C25557   6.684   3.006   5.792  0.1508  0.6512  0.1144
  190MOL0     C25558   6.741   3.043   5.657 -0.8418  0.0550  0.3368
  190MOL0     C25559   6.794   2.910   5.598 -0.6345 -0.3223  0.7305
  190MOL0    Cl25560   6.849   2.936   5.425 -0.1032 -0.6391 -0.2616
  190MOL0     C25561   7.179   3.335   6.280 -0.4497  0.3162  0.5591
  190MOL0     C25562   7.310   3.332   6.333  0.0016  0.5659  0.2558
  190MOL0     O25563   7.594   3.480   6.190 -0.1425  0.0669 -0.1596
  190MOL0     C25564   7.761   3.413   6.459  0.1939 -0.0923 -0.5026
  190MOL0     C25565   7.873   3.433   6.530  0.0525  0.5644  0.1928
  190MOL0     N25566   8.443   3.365   6.958 -0.3987 -0.4197 -0.2981
  190MOL0     N25567   8.505   3.330   7.064 -0.6909  0.2096 -0.8409
  190MOL0     C25568   9.584   3.195   7.581 -0.4767  1.1883 -0.6362
  190MOL0     C25569   9.721   3.164   7.545 -0.2516  0.3553  0.0546
  190MOL0     C25570  10.147   3.103   7.653  0.2217  0.0197 -0.1362
  190MOL0     C25571  10.201   3.028   7.759  0.4392  0.3893 -0.6078
  190MOL0     C25572  10.326   2.966   7.743  0.5731  0.1475 -0.4332
  190MOL0     C25573  10.393   2.975   7.623 -0.4363 -0.2308 -0.2029
  190MOL0     O25574  10.512   2.917   7.601 -0.2460 -0.1096  0.0325
  190MOL0     C25575  10.558   2.802   7.688  0.9519 -0.5007 -0.3246
  190MOL0     C25576  10.645   2.841   7.808 -0.4554  0.8988  0.2825
  190MOL0     C25577  10.778   2.919   7.774  0.1993  0.2593 -0.0457
  190MOL0     C25578  10.900   2.841   7.729  0.6032  0.2263  0.2050
  190MOL0     C25579  10.875   2.755   7.615 -0.8640 -0.3279 -0.9427
  190MOL0     C25580  10.854   2.705   7.512  0.5587  0.3381  0.4975
  190MOL0     C25581  10.342   3.046   7.515  0.2103  0.3841 -0.4854
  190MOL0     C25582  10.218   3.108   7.533  0.6784 -0.0850  0.6021
  190MOL0     H25583   9.880   3.435   7.649 -0.9018  1.8009 -1.2329
  190MOL0     H25584   9.653   3.518   7.700 -1.6072 -1.1046  2.1026
  190MOL0     H25585   9.318   3.269   7.535  2.9246  0.4258 -1.0163
  190MOL0     H25586   9.333   3.193   7.697  0.0002  0.7983  0.7197
  190MOL0     H25587   9.178   3.333   7.792  0.2523 -0.2669 -0.6740
  190MOL0     H25588   9.213   3.466   7.697  1.1599 -0.4744  4.6866
  190MOL0     H25589   9.067   3.215   7.564  1.8109 -0.3463 -2.2289
  190MOL0     H25590   8.983   3.340   7.652 -1.0079 -4.7235 -0.3258
  190MOL0     H25591   9.079   3.511   7.483  2.3351 -0.5323 -0.6134
  190MOL0     H25592   9.137   3.375   7.387 -0.5765 -1.8636 -1.3616
  190MOL0     H25593   8.908   3.285   7.368  0.4136  0.1138  0.6081
  190MOL0     H25594   8.854   3.429   7.463 -0.5140  1.5196 -0.2050
  190MOL0     H25595   8.972   3.568   7.279  0.9630 -0.9575 -0.0838
  190MOL0     H25596   9.015   3.419   7.206 -1.1684 -1.9091  0.3662
  190MOL0     H25597   8.724   3.527   7.253  0.3012  0.7141  0.3834
  190MOL0     H25598   8.824   3.543   7.102  2.8077 -1.2055 -0.5326
  190MOL0     H25599   8.716   3.284   7.227  1.0725  0.6058  1.2138
  190MOL0     H25600   8.837   3.285   7.104 -0.2893 -1.0138 -0.4795
  190MOL0     H25601   8.745   3.498   6.903 -0.9546  1.9147  1.7295
  190MOL0     H25602   8.444   3.620   6.800  2.3891  1.4867 -2.2346
  190MOL0     H25603   8.561   3.536   6.695 -0.2992  0.8354 -0.1401
  190MOL0     H25604   8.283   3.441   6.742 -0.1103  2.8744  0.5526
  190MOL0     H25605   8.409   3.355   6.635 -2.8849 -1.2726 -1.3880
  190MOL0     H25606   8.413   3.538   6.481 -2.2517  0.5948 -1.3774
  190MOL0     H25607   8.315   3.637   6.585  1.8139  0.0370  1.5714
  190MOL0     H25608   8.257   3.375   6.441  1.7740 -0.1221 -0.7384
  190MOL0     H25609   8.193   3.542   6.402  0.2950 -2.6545 -1.2388
  190MOL0     H25610   8.092   3.365   6.279 -0.8943  1.1533 -1.4448
  190MOL0     H25611   8.009   3.354   6.077  0.0228 -0.7334 -0.0285
  190MOL0     H25612   7.850   3.285   6.066  2.9163 -0.7025 -1.7140
  190MOL0     H25613   7.861   3.458   6.049 -3.1225 -1.6229 -0.5648
  190MOL0     H25614   7.464   3.220   6.054  2.7078 -0.9405  2.2909
  190MOL0     H25615   7.261   3.237   5.959  1.0427 -0.2830  0.2928
  190MOL0     H25616   6.904   3.282   6.232  2.7404  0.0060  0.3975
  190MOL0     H25617   6.909   3.453   6.184 -1.0597  0.0587  0.9723
  190MOL0     H25618   6.719   3.396   6.113  1.0466 -0.1871  0.6664
  190MOL0     H25619   6.828   3.423   5.968  1.4729  1.5024  1.0478
  190MOL0     H25620   6.727   3.170   6.092  0.8769  1.0313  0.6595
  190MOL0     H25621   6.855   3.189   5.960 -1.4726  0.1653 -2.6538
  190MOL0     H25622   6.579   3.313   5.933  2.3814  2.4335  1.1328
  190MOL0     H25623   6.693   3.263   5.806  0.9692 -0.5070 -0.8460
  190MOL0     H25624   6.499   3.110   5.785  1.5288  2.1536 -1.9498
  190MOL0     H25625   6.528   3.057   5.941  1.7294  0.0965  0.4295
  190MOL0     H25626   6.760   2.986   5.868 -1.8519 -2.7089  1.4632
  190MOL0     H25627   6.631   2.911   5.782  0.5797  0.3650  0.5109
  190MOL0     H25628   6.828   3.110   5.661 -0.9823  0.1918  1.6960
  190MOL0     H25629   6.660   3.089   5.601 -1.0054  0.6179  1.0214
  190MOL0     H25630   6.716   2.833   5.593  0.2409 -1.1941 -3.4991
  190MOL0     H25631   6.878   2.873   5.657 -0.2965 -3.8118 -1.6297
  190MOL0     H25632   7.106   3.375   6.351 -1.4439 -2.1487  1.0273
  190MOL0     H25633   7.344   3.370   6.429  1.9790 -0.9187  0.2027
  190MOL0     H25634   7.664   3.414   6.507  1.3478 -2.3037  2.1373
  190MOL0     H25635   7.854   3.463   6.632 -1.1063  0.9725 -0.1268
  190MOL0     H25636   9.505   3.129   7.546 -1.7912  3.2853 -1.8147
  190MOL0     H25637   9.746   3.070   7.497 -2.3592  1.0228 -2.5949
  190MOL0     H25638  10.146   3.021   7.852 -0.4027  2.8222 -0.8517
  190MOL0     H25639  10.347   2.894   7.821 -2.8413 -1.9627 -1.2308
  190MOL0     H25640  10.474   2.741   7.723 -0.5195  1.3338 -0.5098
  190MOL0     H25641  10.603   2.729   7.621 -3.4056 -2.1380 -1.8162
  190MOL0     H25642  10.657   2.747   7.861  1.1542 -0.5110 -2.3540
  190MOL0     H25643  10.592   2.911   7.874  3.1788  1.9714  2.3283
  190MOL0     H25644  10.799   2.966   7.871 -1.5130  0.0080  0.4968
  190MOL0     H25645  10.742   2.990   7.700 -0.6695 -1.8384 -1.7409
  190MOL0     H25646  10.939   2.778   7.810 -0.7097 -0.7922  0.0823
  190MOL0     H25647  10.988   2.904   7.716  1.7774 -0.8868  2.1716
  190MOL0     H25648  10.853   2.661   7.414 -2.1720  1.7090 -0.1861
  190MOL0     H25649  10.395   3.050   7.420  1.4946  0.7237  0.2130
  190MOL0     H25650  10.180   3.175   7.456  0.8262 -0.6839  0.0007
  191MOL0     O25651   0.925   8.135   8.932 -0.1876 -0.9132 -0.2539
  191MOL0     C25652   1.001   8.225   8.934 -0.4850 -0.3951  0.1494
  191MOL0     O25653   1.014   8.321   9.026  0.2016 -0.5803 -0.8885
  191MOL0     C25654   0.918   8.339   9.120 -1.0495  0.6589 -0.3096
  191MOL0     C25655   0.949   8.339   9.256 -0.9160 -0.2176  0.8016
  191MOL0     C25656   0.857   8.352   9.356  0.0437  0.6398  0.3176
  191MOL0     C25657   0.721   8.355   9.316 -0.3666 -0.3586  0.1873
  191MOL0     O25658   0.639   8.366   9.420 -0.2671  0.0997 -0.7762
  191MOL0     C25659   0.498   8.375   9.398 -0.3446  0.2091  0.0720
  191MOL0     C25660   0.422   8.340   9.528  0.0926 -0.1434 -0.1289
  191MOL0     C25661   0.289   8.412   9.547  0.2248 -0.3288  1.0080
  191MOL0     C25662   0.200   8.388   9.429 -0.0028 -0.1361 -0.0036
  191MOL0     C25663   0.060   8.452   9.460 -1.2771 -1.1000 -0.2714
  191MOL0     C25664  -0.015   8.368   9.571  0.0676 -0.1342  0.3433
  191MOL0     C25665  -0.158   8.402   9.582  0.9129 -0.9349  0.5820
  191MOL0     C25666  -0.213   8.373   9.720  0.2232  0.6909  0.5547
  191MOL0     N25667  -0.356   8.342   9.715  0.4096 -0.7089  0.5019
  191MOL0     C25668  -0.463   8.434   9.732 -0.0315 -0.4826 -0.1291
  191MOL0     C25669  -0.575   8.362   9.704  0.0077 -0.1027  0.2456
  191MOL0     C25670  -0.714   8.422   9.710  1.0249  0.6008 -0.0308
  191MOL0     C25671  -0.736   8.520   9.596 -0.3888  0.0128 -0.9981
  191MOL0     C25672  -0.785   8.450   9.466  0.1743 -0.0930  0.2835
  191MOL0     C25673  -0.925   8.393   9.469  0.2543  0.2027  0.6811
  191MOL0     O25674  -1.018   8.493   9.522 -0.1649 -0.7419  0.1890
  191MOL0     C25675  -1.156   8.481   9.508  0.0072 -0.1311  0.2891
  191MOL0     C25676  -1.215   8.380   9.439  0.1977  0.8992 -0.8695
  191MOL0     C25677  -1.354   8.376   9.419 -0.1561 -0.1040 -0.2552
  191MOL0     C25678  -1.411   8.280   9.329 -0.1295 -0.0529  0.1714
  191MOL0     C25679  -1.438   8.477   9.475 -0.7191 -0.8301 -0.8698
  191MOL0     C25680  -1.586   8.483   9.471  0.3549  1.1749 -0.0952
  191MOL0     O25681  -1.640   8.602   9.436 -0.2666  0.5811 -0.1013
  191MOL0     C25682  -1.779   8.610   9.413 -0.2023 -0.0926 -0.7067
  191MOL0     C25683  -1.859   8.652   9.517 -0.0164  0.6149 -0.9380
  191MOL0     C25684  -2.001   8.672   9.498 -0.3875 -0.3367 -0.3893
  191MOL0     C25685  -2.058   8.638   9.374  0.5941  0.1671  0.6346
  191MOL0     O25686  -2.193   8.647   9.354  0.3299  0.2591  0.5175
  191MOL0     C25687  -2.260   8.522   9.314  0.4285 -0.0916  0.0193
  191MOL0     C25688  -2.276   8.417   9.424  0.2370  0.2443  0.2950
  191MOL0     C25689  -2.375   8.459   9.535 -0.2140 -0.6291 -0.4820
  191MOL0     C25690  -2.397   8.363   9.645  0.1447  0.3740  0.4376
  191MOL0     C25691  -2.530   8.387   9.720  0.5130 -0.4653  0.8013
  191MOL0     C25692  -2.518   8.330   9.862  0.3722 -0.2219 -0.4808
  191MOL0     C25693  -2.504   8.179   9.868 -0.0165 -0.2562  0.3377
  191MOL0     C25694  -2.509   8.120  10.007 -0.1804  0.3132  0.3025
  191MOL0    Cl25695  -2.351   8.159  10.090 -0.2451 -0.5113  0.2042
  191MOL0     C25696  -1.969   8.598   9.272  0.1449 -0.6013 -0.1569
  191MOL0     C25697  -1.831   8.582   9.295 -0.1601  0.5889 -0.6956
  191MOL0     O25698  -1.644   8.379   9.503  0.4495 -0.4075  0.1066
  191MOL0     C25699  -1.372   8.576   9.564 -0.4198  0.4308  0.3101
  191MOL0     C25700  -1.231   8.575   9.572 -0.3361  1.2534  0.0499
  191MOL0     N25701  -0.541   8.234   9.667 -0.2749  0.2143  0.1226
  191MOL0     N25702  -0.410   8.222   9.684  0.5753  0.5306 -0.4185
  191MOL0     C25703   0.687   8.366   9.179 -1.4930 -0.0980  0.3517
  191MOL0     C25704   0.791   8.367   9.081 -0.1393  0.2331 -0.0040
  191MOL0     C25705   1.086   8.240   8.815 -1.1587  0.5071  0.7967
  191MOL0     C25706   1.055   8.191   8.687 -0.1163 -0.1735  0.1770
  191MOL0     C25707   1.136   8.215   8.570 -0.3992 -0.2430 -0.6453
  191MOL0     C25708   1.246   8.301   8.588  0.7822 -0.2098 -0.0465
  191MOL0     O25709   1.332   8.337   8.489  0.4605 -0.3766 -0.3927
  191MOL0     C25710   1.305   8.299   8.356 -0.1368  0.2577  0.2593
  191MOL0     C25711   1.414   8.366   8.264 -0.1024  0.7219  0.0473
  191MOL0     C25712   1.531   8.273   8.239  0.4606  0.2063  0.3156
  191MOL0     C25713   1.629   8.344   8.146 -0.8288 -0.5884 -0.3610
  191MOL0     C25714   1.754   8.270   8.137  0.6353  0.3616 -0.4102
  191MOL0     C25715   1.852   8.196   8.158  0.4655  0.3600  0.3057
  191MOL0     C25716   1.280   8.347   8.715 -0.0900 -0.6518 -0.1805
  191MOL0     C25717   1.201   8.320   8.824 -0.3492 -0.1065  0.5766
  191MOL0     H25718   1.048   8.323   9.297 -1.7979  1.3146  3.7731
  191MOL0     H25719   0.883   8.345   9.461  0.8354  2.8874  0.3072
  191MOL0     H25720   0.465   8.475   9.369 -0.3548  0.1524 -0.1112
  191MOL0     H25721   0.470   8.298   9.326  3.3560 -2.2241  0.9270
  191MOL0     H25722   0.408   8.233   9.544 -1.9798 -0.0787 -1.2639
  191MOL0     H25723   0.488   8.377   9.607  0.3723 -0.8835 -0.0058
  191MOL0     H25724   0.243   8.366   9.635  0.1886 -1.4084  0.4491
  191MOL0     H25725   0.312   8.516   9.570  0.0810 -0.1677  0.4430
  191MOL0     H25726   0.244   8.443   9.345  0.3719 -3.3691 -2.1143
  191MOL0     H25727   0.177   8.284   9.405 -3.2890  0.6245 -0.6702
  191MOL0     H25728   0.072   8.561   9.462 -0.8737 -1.1467  1.2256
  191MOL0     H25729   0.003   8.430   9.370 -0.8927  0.3752 -0.9076
  191MOL0     H25730  -0.006   8.264   9.541 -1.3929  0.3512 -2.0385
  191MOL0     H25731   0.026   8.387   9.671 -1.3880 -3.2486  1.6555
  191MOL0     H25732  -0.173   8.502   9.541  1.3007 -1.4040 -0.7702
  191MOL0     H25733  -0.210   8.331   9.518 -0.8609  1.4266 -0.7627
  191MOL0     H25734  -0.201   8.461   9.784 -1.2983  2.4142 -1.3854
  191MOL0     H25735  -0.159   8.292   9.770  2.1709  2.9941  2.4765
  191MOL0     H25736  -0.453   8.540   9.752  0.9797 -0.6171  0.1395
  191MOL0     H25737  -0.789   8.343   9.700  1.3358  0.5888 -2.8921
  191MOL0     H25738  -0.718   8.477   9.804  1.4076 -1.5608  1.3482
  191MOL0     H25739  -0.637   8.562   9.575  0.0652 -0.5848 -0.1268
  191MOL0     H25740  -0.802   8.603   9.621 -2.9113 -1.8360 -1.1361
  191MOL0     H25741  -0.721   8.374   9.421  0.4859  0.1272  0.3553
  191MOL0     H25742  -0.791   8.524   9.386 -1.7628  2.6651  2.7616
  191MOL0     H25743  -0.931   8.308   9.538 -1.5042 -0.6427 -0.4356
  191MOL0     H25744  -0.950   8.358   9.369  1.5046 -2.6064  1.2466
  191MOL0     H25745  -1.154   8.302   9.393  0.8714  0.5448  0.5854
  191MOL0     H25746  -1.333   8.262   9.253 -0.0751  2.4162 -0.4418
  191MOL0     H25747  -1.458   8.195   9.379 -1.4219 -0.5265 -1.7145
  191MOL0     H25748  -1.496   8.326   9.279 -1.0940 -1.2988  0.6292
  191MOL0     H25749  -1.816   8.682   9.612  3.0025  0.9786 -2.2954
  191MOL0     H25750  -2.058   8.714   9.581 -0.1253 -0.8474  0.0553
  191MOL0     H25751  -2.363   8.537   9.282 -0.0475  0.9613  1.9257
  191MOL0     H25752  -2.212   8.478   9.225 -0.9604 -0.0846 -0.7685
  191MOL0     H25753  -2.314   8.335   9.362 -0.8964  1.5216 -0.7547
  191MOL0     H25754  -2.180   8.403   9.475  0.2232 -1.4418 -0.0735
  191MOL0     H25755  -2.471   8.485   9.489 -1.0131 -1.6531  0.5388
  191MOL0     H25756  -2.337   8.554   9.573 -1.3443  0.0887 -1.1136
  191MOL0     H25757  -2.404   8.264   9.599 -0.6182  1.4039 -1.7615
  191MOL0     H25758  -2.314   8.362   9.717  0.1789  0.2373  0.3950
  191MOL0     H25759  -2.611   8.356   9.653  0.4087 -0.7468  1.0516
  191MOL0     H25760  -2.544   8.496   9.723 -1.6800 -0.6764  0.1643
  191MOL0     H25761  -2.435   8.375   9.917  1.2808 -1.9438 -0.3607
  191MOL0     H25762  -2.610   8.364   9.909  1.1482  0.4282  0.6207
  191MOL0     H25763  -2.406   8.158   9.824 -0.0983  0.5528 -0.2396
  191MOL0     H25764  -2.590   8.138   9.814  0.1485 -2.1115  1.3831
  191MOL0     H25765  -2.505   8.010  10.002 -4.2441  0.0693 -1.2722
  191MOL0     H25766  -2.594   8.151  10.067  0.7336  0.1465  1.7389
  191MOL0     H25767  -2.006   8.585   9.171 -0.4889  1.0834 -0.1739
  191MOL0     H25768  -1.758   8.545   9.224 -2.5022 -4.0757 -1.0697
  191MOL0     H25769  -1.419   8.663   9.610  0.1330  0.7628  0.2595
  191MOL0     H25770  -1.172   8.654   9.619 -0.7076  2.5209 -1.5299
  191MOL0     H25771   0.583   8.371   9.146 -0.8305 -1.9759 -2.3379
  191MOL0     H25772   0.755   8.374   8.979 -0.3541  0.0441  0.0586
  191MOL0     H25773   0.970   8.123   8.684 -1.5696  1.5153  1.0304
  191MOL0     H25774   1.100   8.172   8.477 -0.7278 -1.3312 -0.0256
  191MOL0     H25775   1.300   8.189   8.357 -1.0227  0.2422  3.0589
  191MOL0     H25776   1.210   8.348   8.333 -0.2993 -0.2581 -0.1904
  191MOL0     H25777   1.447   8.454   8.321  1.3604 -0.7056  1.5378
  191MOL0     H25778   1.382   8.400   8.165  1.4692 -0.2563 -0.8288
  191MOL0     H25779   1.495   8.179   8.195 -1.0104  0.9809 -0.2368
  191MOL0     H25780   1.582   8.244   8.331 -1.2003 -2.5249  0.4794
  191MOL0     H25781   1.646   8.445   8.186 -0.6137 -1.0734  0.8089
  191MOL0     H25782   1.589   8.361   8.046 -0.5654  2.2682 -0.0837
  191MOL0     H25783   1.937   8.132   8.167 -1.4838 -3.1242 -2.9644
  191MOL0     H25784   1.360   8.420   8.727  2.1631 -3.0188 -0.1209
  191MOL0     H25785   1.237   8.371   8.913 -0.2179 -2.1366  1.7554
  192MOL0     O25786   8.363   1.515   1.281  0.3238  0.1646 -0.2398
  192MOL0     C25787   8.436   1.418   1.306  0.4177  0.1513  0.1893
  192MOL0     O25788   8.391   1.291   1.272 -0.5589 -0.3547  0.2206
  192MOL0     C25789   8.274   1.254   1.212 -0.0651  0.2994  1.2431
  192MOL0     C25790   8.190   1.335   1.135 -0.2746  1.0992 -0.3935
  192MOL0     C25791   8.094   1.278   1.051  0.3713  0.0070  0.5301
  192MOL0     C25792   8.074   1.136   1.029 -0.0042 -0.0862 -0.0794
  192MOL0     O25793   7.991   1.074   0.946  0.2595  0.0854  0.4618
  192MOL0     C25794   7.899   1.162   0.874  0.4086 -0.1257  0.1021
  192MOL0     C25795   7.843   1.082   0.753  0.1575  0.0468  0.0591
  192MOL0     C25796   7.735   0.974   0.791  0.1989 -1.0811 -0.0618
  192MOL0     C25797   7.683   0.906   0.661  0.5408  0.0063  0.6648
  192MOL0     C25798   7.539   0.845   0.701 -0.3087 -0.4789  0.1499
  192MOL0     C25799   7.439   0.952   0.723  0.0672 -0.7352 -0.6717
  192MOL0     C25800   7.302   0.890   0.718 -0.6396 -0.3868 -0.5517
  192MOL0     C25801   7.276   0.777   0.824  0.1054  0.0776  0.1903
  192MOL0     N25802   7.131   0.743   0.818 -0.2151  0.3436  0.4931
  192MOL0     C25803   7.057   0.707   0.702 -0.1488 -0.4177 -1.0804
  192MOL0     C25804   6.926   0.695   0.740  0.6320  0.3568  0.0174
  192MOL0     C25805   6.806   0.657   0.656 -1.6268  0.6010 -0.1880
  192MOL0     C25806   6.746   0.786   0.592 -0.1508  0.5426  0.4301
  192MOL0     C25807   6.585   0.782   0.592 -1.1853  0.4799 -0.0125
  192MOL0     C25808   6.538   0.883   0.487  0.9217 -0.0444 -0.4046
  192MOL0     O25809   6.395   0.882   0.456  0.0356 -0.1273  0.1490
  192MOL0     C25810   6.300   0.926   0.545  0.8191  0.5272 -0.1492
  192MOL0     C25811   6.169   0.932   0.497 -0.4182  0.2922  0.0303
  192MOL0     C25812   6.056   0.952   0.571 -0.2288  0.4953  0.0187
  192MOL0     C25813   5.925   0.912   0.510 -0.1114  0.4178  0.7250
  192MOL0     C25814   6.075   0.999   0.704  0.5732  0.2164 -0.2653
  192MOL0     C25815   5.963   1.056   0.778  0.0672 -0.5995 -0.1502
  192MOL0     O25816   5.874   1.132   0.712 -0.3233  0.2671  0.3050
  192MOL0     C25817   5.754   1.153   0.770 -0.4727  0.2852  0.4902
  192MOL0     C25818   5.748   1.266   0.853  0.4501  0.0387 -0.3653
  192MOL0     C25819   5.636   1.297   0.933  0.2898  0.1650  0.9721
  192MOL0     C25820   5.526   1.211   0.932  0.2627 -1.0878 -0.9043
  192MOL0     O25821   5.416   1.233   1.012 -0.1636 -1.0706  0.1310
  192MOL0     C25822   5.416   1.353   1.098 -0.5962 -1.3302  0.4828
  192MOL0     C25823   5.300   1.350   1.189 -0.2267  1.2153  0.1602
  192MOL0     C25824   5.166   1.368   1.111 -0.3532  0.3613  0.5516
  192MOL0     C25825   5.045   1.309   1.178  0.4992  0.8713 -0.0088
  192MOL0     C25826   5.009   1.400   1.294 -0.5655  0.2459 -0.2479
  192MOL0     C25827   4.885   1.350   1.377  0.4916  0.0712 -0.4648
  192MOL0     C25828   4.914   1.227   1.459 -0.0935  0.0395  0.3703
  192MOL0     C25829   4.792   1.201   1.543 -0.0222 -0.1857 -0.4631
  192MOL0    Cl25830   4.752   1.288   1.684 -0.3610 -0.3627  0.0621
  192MOL0     C25831   5.534   1.089   0.858 -0.6064 -0.9370 -0.5650
  192MOL0     C25832   5.651   1.060   0.786 -0.4129 -0.5880  0.2546
  192MOL0     O25833   5.962   1.039   0.900 -0.2807 -0.4555  0.0865
  192MOL0     C25834   6.206   1.002   0.757 -0.1648  0.4916  0.1721
  192MOL0     C25835   6.315   0.967   0.680  0.5855  0.1916 -0.2370
  192MOL0     N25836   6.920   0.730   0.869  0.6008 -0.4498  0.1467
  192MOL0     N25837   7.032   0.757   0.907 -0.2414  0.2129  0.2055
  192MOL0     C25838   8.162   1.061   1.109  0.2935 -0.6651  0.2018
  192MOL0     C25839   8.263   1.117   1.193  0.0163  0.1488  0.6596
  192MOL0     C25840   8.578   1.442   1.338  0.9664 -0.2513 -0.3623
  192MOL0     C25841   8.677   1.343   1.341  1.0401 -0.1780  1.2947
  192MOL0     C25842   8.803   1.371   1.397 -0.2517 -0.2429 -0.5384
  192MOL0     C25843   8.835   1.497   1.452 -0.3549  0.5399 -0.7418
  192MOL0     O25844   8.958   1.519   1.514 -0.1262  0.0544  0.4736
  192MOL0     C25845   9.033   1.637   1.481 -1.1761 -0.0177  0.1536
  192MOL0     C25846   9.185   1.609   1.482  0.3342 -0.3622 -0.0304
  192MOL0     C25847   9.261   1.743   1.483  0.5580  0.1583  0.0449
  192MOL0     C25848   9.412   1.726   1.497 -0.0810 -0.7621  0.4129
  192MOL0     C25849   9.456   1.713   1.639 -0.7767  0.5799  0.0322
  192MOL0     C25850   9.485   1.717   1.754  0.4254 -0.6978  0.4676
  192MOL0     C25851   8.729   1.591   1.455 -0.2957  0.9163 -0.2799
  192MOL0     C25852   8.606   1.571   1.392 -0.3891 -0.3625  0.4115
  192MOL0     H25853   8.200   1.441   1.153 -0.6166  0.8509  1.4955
  192MOL0     H25854   8.020   1.347   1.011 -0.8466 -1.6100 -0.0958
  192MOL0     H25855   7.816   1.197   0.935  1.5728 -0.8653  2.2502
  192MOL0     H25856   7.946   1.252   0.834 -2.6377  0.6997 -1.9654
  192MOL0     H25857   7.799   1.161   0.692  1.0813  0.8820  0.4334
  192MOL0     H25858   7.923   1.029   0.700 -0.9126 -0.3139 -1.2620
  192MOL0     H25859   7.785   0.894   0.847  1.7725 -0.7718 -0.9803
  192MOL0     H25860   7.658   1.014   0.858  0.8514  0.4803 -0.2104
  192MOL0     H25861   7.677   0.992   0.594  2.8860  0.7410  1.2925
  192MOL0     H25862   7.747   0.832   0.612 -0.2543  1.4500 -2.8537
  192MOL0     H25863   7.512   0.774   0.623 -1.7766 -0.9295  1.0299
  192MOL0     H25864   7.540   0.788   0.794 -0.5578  3.0730  2.5368
  192MOL0     H25865   7.444   1.000   0.821 -1.2253 -1.5210 -0.1925
  192MOL0     H25866   7.447   1.020   0.638  1.6454  0.4903  0.3954
  192MOL0     H25867   7.231   0.970   0.742  0.4828 -0.1222  2.2496
  192MOL0     H25868   7.280   0.869   0.613 -0.6000  0.0371 -0.6454
  192MOL0     H25869   7.308   0.807   0.924  0.5748  0.2385 -0.0033
  192MOL0     H25870   7.337   0.688   0.803 -3.1380 -1.9313 -1.4677
  192MOL0     H25871   7.096   0.691   0.602  3.0738 -1.1760  0.1681
  192MOL0     H25872   6.843   0.584   0.583 -1.0941 -0.8242  1.4331
  192MOL0     H25873   6.733   0.612   0.724 -0.4738  3.6148  3.3786
  192MOL0     H25874   6.786   0.796   0.491  0.6285  1.2980  0.7994
  192MOL0     H25875   6.780   0.865   0.660  0.3414  0.4183  0.3341
  192MOL0     H25876   6.547   0.807   0.691 -1.8277 -2.3679  0.5411
  192MOL0     H25877   6.558   0.678   0.570  1.3594 -0.3651  0.5571
  192MOL0     H25878   6.572   0.845   0.390 -4.0789 -3.5612 -1.1525
  192MOL0     H25879   6.575   0.984   0.503  0.4625 -0.0673  0.8710
  192MOL0     H25880   6.153   0.910   0.392 -0.2525 -4.3584  0.7704
  192MOL0     H25881   5.926   0.929   0.402 -1.3369 -0.0691  0.6176
  192MOL0     H25882   5.911   0.805   0.526  0.4865  0.2948  0.4680
  192MOL0     H25883   5.836   0.960   0.551 -2.0650 -1.4391 -1.0968
  192MOL0     H25884   5.829   1.337   0.840 -1.0752  1.3563 -4.6017
  192MOL0     H25885   5.640   1.396   0.978  1.0676 -0.1453  1.6088
  192MOL0     H25886   5.505   1.365   1.160 -0.8044 -1.6908  0.8485
  192MOL0     H25887   5.405   1.440   1.033 -0.9987 -1.7799 -0.0598
  192MOL0     H25888   5.312   1.247   1.224 -1.0353  1.5490  1.5011
  192MOL0     H25889   5.309   1.399   1.286 -2.6636  1.3446  0.3860
  192MOL0     H25890   5.177   1.319   1.013  0.2062  0.5172  0.5335
  192MOL0     H25891   5.156   1.475   1.091  2.2673  0.2411 -2.0532
  192MOL0     H25892   4.958   1.303   1.113 -0.3186 -3.7698  1.2071
  192MOL0     H25893   5.068   1.205   1.204 -1.3415 -0.3984 -2.9592
  192MOL0     H25894   4.977   1.500   1.262 -2.7444  0.0593  1.1997
  192MOL0     H25895   5.102   1.415   1.351  0.7413  0.2307 -2.2661
  192MOL0     H25896   4.855   1.431   1.443  1.5620 -1.3186  1.8654
  192MOL0     H25897   4.813   1.318   1.302  2.2456 -0.4091 -2.0373
  192MOL0     H25898   4.997   1.230   1.530 -0.9986  0.0288  1.4629
  192MOL0     H25899   4.922   1.141   1.392 -0.1861 -0.0455  0.4683
  192MOL0     H25900   4.804   1.096   1.571 -0.5787 -0.3983 -1.0101
  192MOL0     H25901   4.708   1.211   1.473 -0.0430  0.1302 -0.3926
  192MOL0     H25902   5.453   1.017   0.862 -1.1253 -0.4765 -2.1742
  192MOL0     H25903   5.679   0.964   0.744  2.3402  1.1509 -2.2614
  192MOL0     H25904   6.219   1.028   0.861 -3.3374 -1.0115  1.0487
  192MOL0     H25905   6.411   0.967   0.730  0.3558  0.9647  0.2162
  192MOL0     H25906   8.155   0.954   1.092 -2.8600 -0.2763 -1.8224
  192MOL0     H25907   8.309   1.042   1.257 -0.5909  0.5438  1.5755
  192MOL0     H25908   8.661   1.245   1.298  0.3745  1.5331 -2.8591
  192MOL0     H25909   8.875   1.290   1.402  1.0056  0.8881  0.6998
  192MOL0     H25910   9.011   1.668   1.379  2.6424 -0.8793 -1.1266
  192MOL0     H25911   9.016   1.720   1.550  2.2565  1.2757 -0.3268
  192MOL0     H25912   9.217   1.548   1.397  0.8932 -0.6871  0.4109
  192MOL0     H25913   9.196   1.544   1.569 -1.8115 -1.1315 -0.2690
  192MOL0     H25914   9.228   1.792   1.575 -0.1970 -0.3918  0.0796
  192MOL0     H25915   9.231   1.809   1.401  0.0836  1.1525  0.9847
  192MOL0     H25916   9.459   1.821   1.470  1.4077 -0.9961  2.0387
  192MOL0     H25917   9.452   1.649   1.430 -0.4286  1.4776 -2.5897
  192MOL0     H25918   9.509   1.724   1.858  1.7360  0.2045  0.1234
  192MOL0     H25919   8.747   1.683   1.509 -0.8157  0.2294  1.1201
  192MOL0     H25920   8.532   1.650   1.397 -0.8320 -0.6875 -0.7717
  193MOL0     O25921  10.072   3.537   7.795 -0.2035 -0.0888 -0.1557
  193MOL0     C25922  10.188   3.562   7.772 -0.4533  0.3059  0.1847
  193MOL0     O25923  10.229   3.664   7.684 -1.0343 -0.3568  0.5165
  193MOL0     C25924  10.141   3.741   7.607 -0.2322 -0.1420  0.2055
  193MOL0     C25925  10.173   3.873   7.584 -0.3856 -0.2884  0.3569
  193MOL0     C25926  10.099   3.950   7.495 -0.1929 -0.3573  0.5679
  193MOL0     C25927   9.982   3.905   7.430 -0.4837 -0.5488 -0.5114
  193MOL0     O25928   9.912   3.987   7.352 -0.2713 -0.6383  0.7716
  193MOL0     C25929   9.780   3.969   7.319  0.3490 -0.6444 -0.0396
  193MOL0     C25930   9.727   4.085   7.242 -1.2779 -0.3154 -0.2575
  193MOL0     C25931   9.580   4.067   7.193  0.0235 -0.5822  0.2061
  193MOL0     C25932   9.537   3.925   7.151 -0.5347 -0.1666  0.1368
  193MOL0     C25933   9.387   3.933   7.118 -0.0802 -0.2773  0.0010
  193MOL0     C25934   9.346   3.795   7.074 -0.7350 -1.3893  0.0652
  193MOL0     C25935   9.204   3.800   7.046 -0.2550  0.5223 -1.1447
  193MOL0     C25936   9.181   3.840   6.904  0.4402 -0.1082 -0.1994
  193MOL0     N25937   9.046   3.818   6.856  0.6743  0.2254 -0.0962
  193MOL0     C25938   8.927   3.864   6.913  0.3492  0.3422  0.3897
  193MOL0     C25939   8.827   3.811   6.836 -0.1962 -0.2892  0.3594
  193MOL0     C25940   8.679   3.827   6.853 -0.0295 -0.2833 -0.5225
  193MOL0     C25941   8.614   3.874   6.722  0.2406  0.0361  0.4496
  193MOL0     C25942   8.485   3.947   6.749  0.4873  0.2935 -0.8576
  193MOL0     C25943   8.416   4.000   6.624  0.7695 -0.8013  0.3314
  193MOL0     O25944   8.274   4.022   6.651  0.2401 -1.1020  0.6864
  193MOL0     C25945   8.198   4.028   6.533  0.0909  0.0708 -0.4002
  193MOL0     C25946   8.138   3.916   6.470  0.6460  0.2208 -0.3755
  193MOL0     C25947   8.050   3.931   6.362 -0.2240 -0.0326  0.1924
  193MOL0     C25948   8.009   3.807   6.286 -0.2677  1.8320 -0.1121
  193MOL0     C25949   8.020   4.073   6.310 -0.2012  1.1291  0.2077
  193MOL0     C25950   7.938   4.106   6.191  0.1034 -0.7468  0.7608
  193MOL0     O25951   7.921   4.234   6.150 -0.7567  0.4109  0.5064
  193MOL0     C25952   7.857   4.259   6.032  0.2138  0.3221  0.4407
  193MOL0     C25953   7.794   4.380   6.036 -0.0158 -0.0642  0.5028
  193MOL0     C25954   7.745   4.432   5.911  0.2683  0.0615  0.4157
  193MOL0     C25955   7.745   4.371   5.792 -0.0715  1.5267 -0.0587
  193MOL0     O25956   7.705   4.436   5.680 -0.1333 -0.0442 -0.2118
  193MOL0     C25957   7.618   4.359   5.587 -0.3739  0.8823  0.2350
  193MOL0     C25958   7.487   4.336   5.659  0.2449 -0.1738 -0.3291
  193MOL0     C25959   7.406   4.462   5.690 -0.0424 -0.6385 -0.9332
  193MOL0     C25960   7.263   4.425   5.732  0.2877 -0.7124 -0.0759
  193MOL0     C25961   7.177   4.548   5.762  0.2392  0.3085 -0.8522
  193MOL0     C25962   7.043   4.537   5.829  0.1921 -0.5130 -0.4636
  193MOL0     C25963   6.975   4.675   5.842  0.6310 -0.5602 -0.1904
  193MOL0     C25964   6.840   4.664   5.926 -0.7765  0.2275 -0.6723
  193MOL0    Cl25965   6.755   4.816   5.891  0.2464 -0.2086 -0.1907
  193MOL0     C25966   7.800   4.237   5.794  0.1826 -0.3041 -0.3832
  193MOL0     C25967   7.870   4.194   5.909 -0.3163 -0.4041  0.5306
  193MOL0     O25968   7.867   4.016   6.149  0.1361  0.2187  0.5095
  193MOL0     C25969   8.086   4.181   6.372 -0.3106  0.1665  0.6784
  193MOL0     C25970   8.169   4.155   6.482  0.6154 -0.6939 -0.0840
  193MOL0     N25971   8.889   3.734   6.741  0.9958 -0.0109  0.1883
  193MOL0     N25972   9.014   3.738   6.748 -0.2816 -0.2414  0.3753
  193MOL0     C25973   9.939   3.781   7.467  0.9051  0.1766 -0.1389
  193MOL0     C25974  10.019   3.694   7.550  0.0833 -0.1453 -0.7605
  193MOL0     C25975  10.295   3.483   7.838  0.0854 -0.4183  0.3252
  193MOL0     C25976  10.262   3.364   7.911  1.0738 -0.3453  0.2416
  193MOL0     C25977  10.369   3.296   7.980  0.6712  0.6711 -0.0615
  193MOL0     C25978  10.504   3.351   7.969  0.9545  0.0634 -0.0180
  193MOL0     O25979  10.587   3.268   8.037  0.5418  0.0789 -0.3086
  193MOL0     C25980  10.702   3.329   8.093 -1.1453  0.6315 -1.1295
  193MOL0     C25981  10.773   3.224   8.176 -0.5144  0.3009  0.1689
  193MOL0     C25982  10.878   3.278   8.267  0.7365  0.0624 -1.0418
  193MOL0     C25983  10.967   3.159   8.334  0.0918 -0.7461  0.2245
  193MOL0     C25984  10.889   3.109   8.444 -0.2973 -0.2812 -0.8298
  193MOL0     C25985  10.826   3.048   8.531 -0.6763 -0.7806  0.6616
  193MOL0     C25986  10.534   3.465   7.895  0.4758 -0.2890  0.1863
  193MOL0     C25987  10.427   3.531   7.830 -0.3271 -0.2448  0.2249
  193MOL0     H25988  10.245   3.929   7.643  0.7322 -0.9199 -0.3781
  193MOL0     H25989  10.141   4.049   7.479  1.2827 -1.3203 -2.1965
  193MOL0     H25990   9.776   3.878   7.258  2.0670 -0.9987  0.3332
  193MOL0     H25991   9.721   3.977   7.410 -0.2531  5.0416 -0.5541
  193MOL0     H25992   9.744   4.169   7.309  0.4383 -1.9265  1.4499
  193MOL0     H25993   9.793   4.094   7.155 -0.5460 -1.7976  0.1025
  193MOL0     H25994   9.511   4.110   7.267  0.5790 -0.0267  0.4102
  193MOL0     H25995   9.590   4.119   7.098  0.6778  1.0576  1.1366
  193MOL0     H25996   9.588   3.897   7.058 -2.5452  1.4181 -1.5511
  193MOL0     H25997   9.559   3.849   7.226  0.5759  0.0182  0.0109
  193MOL0     H25998   9.323   3.966   7.200  0.7239  0.3645  0.3959
  193MOL0     H25999   9.370   4.003   7.036 -0.7735  0.9801  1.1769
  193MOL0     H26000   9.409   3.758   6.992  1.7259 -1.9483  2.0603
  193MOL0     H26001   9.364   3.739   7.167  1.9864 -0.6057  0.1031
  193MOL0     H26002   9.172   3.697   7.064 -1.8883  1.3324  1.2238
  193MOL0     H26003   9.145   3.861   7.116  1.0253 -0.3500  0.7840
  193MOL0     H26004   9.244   3.777   6.841 -0.7312 -0.8571 -0.6490
  193MOL0     H26005   9.213   3.943   6.886  1.6064 -0.3773  0.2496
  193MOL0     H26006   8.917   3.924   7.003  0.9724  1.8075 -0.4707
  193MOL0     H26007   8.638   3.729   6.876 -0.7398  0.8605  4.0313
  193MOL0     H26008   8.663   3.895   6.937 -0.2690 -1.5431  0.4794
  193MOL0     H26009   8.590   3.783   6.666  0.9693 -1.9787  3.1891
  193MOL0     H26010   8.683   3.945   6.674 -0.5784  0.7118  0.2589
  193MOL0     H26011   8.490   4.024   6.825 -0.9305  0.4117 -0.8651
  193MOL0     H26012   8.424   3.872   6.801  3.5797 -1.9747 -0.2145
  193MOL0     H26013   8.432   3.931   6.541  1.0473 -0.8477  0.4234
  193MOL0     H26014   8.455   4.102   6.614 -1.0060  0.0568  1.5380
  193MOL0     H26015   8.174   3.822   6.510  0.2025 -0.1669 -0.8851
  193MOL0     H26016   8.095   3.740   6.288 -0.9429  0.9497 -0.0785
  193MOL0     H26017   7.918   3.760   6.326  0.9501  1.8097  2.8899
  193MOL0     H26018   7.999   3.813   6.177  2.3504 -2.9283 -0.8569
  193MOL0     H26019   7.790   4.449   6.120  0.4521  2.1195 -1.1784
  193MOL0     H26020   7.711   4.535   5.913 -0.3352 -0.1171 -0.1005
  193MOL0     H26021   7.598   4.411   5.493 -3.7028 -0.3127  0.1428
  193MOL0     H26022   7.660   4.260   5.566 -0.2019  1.0653 -0.3156
  193MOL0     H26023   7.429   4.273   5.590 -1.3278  2.1684 -1.2794
  193MOL0     H26024   7.520   4.274   5.743 -0.5204  0.2629  0.3043
  193MOL0     H26025   7.407   4.533   5.607  2.5370  1.0646  0.4091
  193MOL0     H26026   7.457   4.509   5.774  2.2603 -2.0585 -1.4431
  193MOL0     H26027   7.230   4.370   5.644  0.7756  0.2067 -0.8578
  193MOL0     H26028   7.262   4.351   5.812  1.2426 -0.5071  0.1292
  193MOL0     H26029   7.156   4.582   5.660 -1.1644 -1.8745 -1.3489
  193MOL0     H26030   7.236   4.619   5.821 -1.5105 -1.5689  3.5805
  193MOL0     H26031   6.975   4.474   5.771 -0.3268 -2.5011  2.1356
  193MOL0     H26032   7.056   4.486   5.925 -3.0351 -1.2340 -0.3019
  193MOL0     H26033   6.952   4.716   5.743  4.7668 -0.3665 -1.2552
  193MOL0     H26034   7.049   4.738   5.892  0.5824  3.1004 -4.1841
  193MOL0     H26035   6.853   4.647   6.033  1.9699 -1.4668 -1.1904
  193MOL0     H26036   6.781   4.580   5.889 -1.6201  1.2519 -1.7673
  193MOL0     H26037   7.808   4.190   5.697 -1.8468 -1.9514  0.1820
  193MOL0     H26038   7.932   4.106   5.897  1.7799  1.2075 -1.3256
  193MOL0     H26039   8.073   4.279   6.329  2.2286 -0.4402 -1.7594
  193MOL0     H26040   8.206   4.244   6.531  2.9751 -1.7892  0.2688
  193MOL0     H26041   9.852   3.747   7.412  0.8944 -0.3944  0.2278
  193MOL0     H26042   9.989   3.591   7.563 -2.8616  0.8261  1.1464
  193MOL0     H26043  10.159   3.329   7.913  0.5741  0.8204 -1.9595
  193MOL0     H26044  10.358   3.203   8.034  1.4806  1.4547  1.5385
  193MOL0     H26045  10.778   3.374   8.028 -0.4915 -2.6983 -2.8983
  193MOL0     H26046  10.674   3.400   8.171  0.7944  1.1277 -0.8278
  193MOL0     H26047  10.807   3.148   8.105 -1.2581  1.4683 -1.5244
  193MOL0     H26048  10.693   3.186   8.240  1.3092 -1.6729  1.4080
  193MOL0     H26049  10.844   3.338   8.352  1.6564 -3.4166  2.0824
  193MOL0     H26050  10.942   3.347   8.212 -0.6494  2.9108  0.6845
  193MOL0     H26051  11.058   3.195   8.384 -1.0864 -0.2440  2.1185
  193MOL0     H26052  10.996   3.084   8.260  0.7951 -0.1783 -0.0888
  193MOL0     H26053  10.751   3.005   8.594 -2.5277  3.4498  1.6943
  193MOL0     H26054  10.636   3.500   7.885  0.6440 -0.5448  0.9343
  193MOL0     H26055  10.448   3.627   7.786 -1.2801  0.7745  1.8798
  194MOL0     O26056   5.793   4.299   1.813 -0.4532 -0.2060  0.0842
  194MOL0     C26057   5.851   4.368   1.900  0.7266  0.5429  0.0500
  194MOL0     O26058   5.803   4.485   1.940  0.4172 -0.0716  0.2002
  194MOL0     C26059   5.704   4.539   1.866 -0.1998 -0.6710 -0.6530
  194MOL0     C26060   5.742   4.622   1.764  0.7090 -0.3738 -0.9212
  194MOL0     C26061   5.634   4.669   1.689  0.2475  0.0618  0.2857
  194MOL0     C26062   5.496   4.656   1.717 -0.6078  1.0467 -0.4075
  194MOL0     O26063   5.406   4.726   1.640  0.4758  0.3953  0.1776
  194MOL0     C26064   5.281   4.660   1.633  0.0150  0.3700  0.5922
  194MOL0     C26065   5.196   4.740   1.542 -0.0140  0.3825 -0.3470
  194MOL0     C26066   5.048   4.692   1.567  0.2747 -0.0530 -0.1539
  194MOL0     C26067   4.966   4.717   1.436  0.5668  0.1924 -0.8762
  194MOL0     C26068   4.810   4.732   1.464 -0.3765  0.3448 -0.7524
  194MOL0     C26069   4.740   4.717   1.334  0.3494  0.1579 -0.1595
  194MOL0     C26070   4.589   4.717   1.359  0.0745  0.5248  0.1639
  194MOL0     C26071   4.513   4.682   1.228  0.1418  0.3142  0.9500
  194MOL0     N26072   4.365   4.694   1.254 -0.1513 -0.2984 -0.3853
  194MOL0     C26073   4.270   4.598   1.235  0.1055  0.3380 -0.0366
  194MOL0     C26074   4.159   4.661   1.269 -0.3232  0.2084 -0.3560
  194MOL0     C26075   4.019   4.600   1.277 -0.6835  0.5391  0.3716
  194MOL0     C26076   3.991   4.473   1.182  0.1034  0.0764  0.2687
  194MOL0     C26077   3.842   4.462   1.160  0.2312 -0.5844 -0.5367
  194MOL0     C26078   3.802   4.545   1.044  0.6457 -0.0376  0.6501
  194MOL0     O26079   3.687   4.479   0.991  0.1383 -0.5288  0.1029
  194MOL0     C26080   3.556   4.511   1.021 -0.3747 -0.7977  0.4468
  194MOL0     C26081   3.466   4.420   0.965 -0.4041 -0.8294  0.5175
  194MOL0     C26082   3.323   4.425   0.978  0.1584  0.1223 -0.6511
  194MOL0     C26083   3.246   4.304   0.921 -0.1342  0.2937  0.7775
  194MOL0     C26084   3.281   4.537   1.057 -0.0411 -0.8818 -0.3303
  194MOL0     C26085   3.139   4.558   1.078 -1.0530  0.1786 -0.4315
  194MOL0     O26086   3.090   4.641   1.172 -0.6329 -0.3085 -0.2184
  194MOL0     C26087   2.953   4.644   1.190  0.0657 -0.1320  0.4343
  194MOL0     C26088   2.870   4.744   1.122  0.2626  0.8933 -0.6124
  194MOL0     C26089   2.732   4.746   1.150  0.0031 -0.1448 -0.6688
  194MOL0     C26090   2.673   4.648   1.231 -0.7867  0.0113 -0.4077
  194MOL0     O26091   2.543   4.623   1.260  0.4835  0.2351 -0.6670
  194MOL0     C26092   2.442   4.713   1.209  0.0767  0.6893  0.0839
  194MOL0     C26093   2.304   4.656   1.247 -0.2684 -0.2797 -0.0046
  194MOL0     C26094   2.286   4.625   1.393  0.5148  0.1172  0.5322
  194MOL0     C26095   2.157   4.539   1.416  0.2531  0.8637 -0.9185
  194MOL0     C26096   2.025   4.613   1.407  0.8761 -0.2229 -1.0377
  194MOL0     C26097   1.999   4.725   1.510 -0.1643 -0.0764  0.3878
  194MOL0     C26098   1.860   4.778   1.490  0.7430  0.9483 -0.2164
  194MOL0     C26099   1.822   4.880   1.603 -0.2110  0.2982 -0.4303
  194MOL0    Cl26100   1.899   5.033   1.560 -0.1324  0.1686 -0.0148
  194MOL0     C26101   2.761   4.555   1.293 -0.0872  0.0501  0.4093
  194MOL0     C26102   2.899   4.554   1.274 -0.5601  0.3795 -0.4583
  194MOL0     O26103   3.069   4.507   0.985  0.1767  0.3140 -0.5614
  194MOL0     C26104   3.370   4.633   1.119 -0.7771 -0.4527  0.3950
  194MOL0     C26105   3.507   4.620   1.100  0.6988 -0.3306  0.8162
  194MOL0     N26106   4.184   4.794   1.301  0.0035 -0.2798 -0.5522
  194MOL0     N26107   4.312   4.809   1.303  0.0537 -0.3769  0.5133
  194MOL0     C26108   5.469   4.582   1.835  0.1655  0.3553  0.3178
  194MOL0     C26109   5.572   4.509   1.895  0.8241 -0.0306 -0.4296
  194MOL0     C26110   5.993   4.332   1.963  0.0429 -0.4521 -0.2644
  194MOL0     C26111   6.064   4.221   1.912 -0.0542  0.1031  0.2450
  194MOL0     C26112   6.195   4.196   1.963 -0.1049 -0.4479 -0.1421
  194MOL0     C26113   6.260   4.290   2.052  0.2844  0.6720  0.4465
  194MOL0     O26114   6.394   4.272   2.055  0.2475  0.4547 -0.1984
  194MOL0     C26115   6.468   4.385   2.112 -0.5484 -0.2386  0.0532
  194MOL0     C26116   6.622   4.349   2.095 -1.0951  0.2574  0.6194
  194MOL0     C26117   6.719   4.471   2.102  0.9466  0.2386 -0.1054
  194MOL0     C26118   6.779   4.493   2.236 -0.3829  0.2644 -0.6381
  194MOL0     C26119   6.849   4.619   2.230 -0.1986  0.0659 -0.0527
  194MOL0     C26120   6.914   4.718   2.208 -0.0397 -0.3687 -0.8473
  194MOL0     C26121   6.190   4.395   2.104  0.8240 -0.4244  0.7913
  194MOL0     C26122   6.053   4.417   2.054 -0.2681  0.2483 -0.3937
  194MOL0     H26123   5.846   4.640   1.740  0.5105  0.5902 -1.1297
  194MOL0     H26124   5.666   4.716   1.596  0.1660  1.5160  0.9744
  194MOL0     H26125   5.291   4.568   1.576  0.7795  0.8605 -0.0930
  194MOL0     H26126   5.234   4.636   1.729 -1.2965 -2.3562 -0.6472
  194MOL0     H26127   5.207   4.844   1.574  1.0732  0.6537 -1.5127
  194MOL0     H26128   5.236   4.722   1.442  2.8689 -1.1344  0.9839
  194MOL0     H26129   5.045   4.583   1.578  0.1876 -0.3110 -2.2025
  194MOL0     H26130   5.014   4.750   1.653 -1.5311  1.8511 -2.0379
  194MOL0     H26131   4.991   4.817   1.401 -1.3912  1.3282  0.7622
  194MOL0     H26132   4.985   4.649   1.353  1.3791  0.3753 -0.8443
  194MOL0     H26133   4.770   4.662   1.538 -0.7914  0.1740 -1.1260
  194MOL0     H26134   4.786   4.832   1.502 -1.0354  0.3519 -1.1649
  194MOL0     H26135   4.758   4.808   1.275  1.0522 -1.2075 -2.1650
  194MOL0     H26136   4.778   4.626   1.288 -0.6320 -0.2375 -0.2117
  194MOL0     H26137   4.565   4.646   1.439  0.0538  1.2731  0.8348
  194MOL0     H26138   4.567   4.816   1.398 -0.9056 -0.2753  1.7588
  194MOL0     H26139   4.535   4.579   1.201 -2.2152  0.2355 -0.9972
  194MOL0     H26140   4.535   4.743   1.140  2.1700 -0.4568  0.8849
  194MOL0     H26141   4.288   4.491   1.225 -2.1568  0.0869 -2.3637
  194MOL0     H26142   3.989   4.568   1.377  1.2932 -1.4353  0.3897
  194MOL0     H26143   3.952   4.683   1.251 -1.8117 -0.3430  0.3717
  194MOL0     H26144   4.031   4.381   1.226  0.5711 -1.8551 -3.7509
  194MOL0     H26145   4.036   4.475   1.082  1.2638 -0.1210  0.7654
  194MOL0     H26146   3.793   4.493   1.253 -1.1562 -1.2739 -1.0202
  194MOL0     H26147   3.815   4.356   1.153 -1.0800 -0.2624 -0.5521
  194MOL0     H26148   3.877   4.555   0.965  1.2585 -1.1572  1.0679
  194MOL0     H26149   3.782   4.649   1.071  2.0032  0.6642 -0.8423
  194MOL0     H26150   3.516   4.341   0.910 -1.6638 -3.1125  2.4516
  194MOL0     H26151   3.305   4.215   0.898  2.0553  1.7594  0.4225
  194MOL0     H26152   3.167   4.276   0.991 -0.3201  0.6508  0.7111
  194MOL0     H26153   3.206   4.333   0.823 -0.1915  0.8752  0.9675
  194MOL0     H26154   2.920   4.812   1.054 -0.6991  1.1637 -1.0539
  194MOL0     H26155   2.663   4.806   1.091 -2.6347 -3.2797 -1.0547
  194MOL0     H26156   2.448   4.813   1.253  0.7835 -0.1894  2.1053
  194MOL0     H26157   2.460   4.713   1.101  2.4693 -3.8904  0.2247
  194MOL0     H26158   2.221   4.723   1.224 -0.8905 -1.3003 -0.8323
  194MOL0     H26159   2.297   4.565   1.186 -1.0451  0.0739 -0.4579
  194MOL0     H26160   2.268   4.717   1.450  0.1002 -0.1315  0.8023
  194MOL0     H26161   2.376   4.573   1.427  1.1574 -0.0878 -1.3592
  194MOL0     H26162   2.160   4.443   1.365  1.5187 -0.0846  0.8346
  194MOL0     H26163   2.163   4.513   1.522  2.7465  2.4787 -0.5684
  194MOL0     H26164   1.950   4.535   1.421  0.0472  0.9279  1.5712
  194MOL0     H26165   2.016   4.654   1.306 -0.3454 -2.8702 -2.0909
  194MOL0     H26166   2.018   4.711   1.617 -1.9555 -0.6637  0.6596
  194MOL0     H26167   2.065   4.808   1.483 -0.1943 -0.0451  0.4096
  194MOL0     H26168   1.788   4.697   1.490 -0.4286  1.8431 -3.2513
  194MOL0     H26169   1.872   4.831   1.395  2.1523  1.7648  0.3765
  194MOL0     H26170   1.855   4.832   1.695 -1.5076 -2.3124 -1.2186
  194MOL0     H26171   1.714   4.895   1.601 -0.3837 -0.5626  1.0640
  194MOL0     H26172   2.709   4.484   1.356 -0.1287  0.3480  0.7097
  194MOL0     H26173   2.967   4.485   1.323  2.2355  3.9597  1.1379
  194MOL0     H26174   3.328   4.706   1.187  0.4291  0.6948 -0.0516
  194MOL0     H26175   3.564   4.706   1.132 -1.1179  1.0454  0.5097
  194MOL0     H26176   5.366   4.568   1.864 -0.8517 -0.6825 -3.2915
  194MOL0     H26177   5.537   4.443   1.973  0.7184 -1.3957 -1.5951
  194MOL0     H26178   6.018   4.149   1.846 -0.6441  0.8198 -0.1409
  194MOL0     H26179   6.250   4.109   1.930 -1.6364 -0.7043 -2.2207
  194MOL0     H26180   6.449   4.472   2.048 -1.1611 -0.7425 -0.4650
  194MOL0     H26181   6.446   4.418   2.214  1.9012  3.0502 -0.3159
  194MOL0     H26182   6.637   4.314   1.993 -0.2198  1.6365  0.2467
  194MOL0     H26183   6.643   4.281   2.178  0.6649  2.8289  2.4631
  194MOL0     H26184   6.661   4.558   2.072 -2.7770 -2.1692 -0.6553
  194MOL0     H26185   6.800   4.458   2.029  0.8482  1.1172 -0.3734
  194MOL0     H26186   6.844   4.413   2.273  0.8739  1.4131 -0.2756
  194MOL0     H26187   6.699   4.497   2.310  0.1618  1.4070 -0.0837
  194MOL0     H26188   6.970   4.808   2.196  0.7232 -0.0684  3.5497
  194MOL0     H26189   6.233   4.477   2.160  0.2852 -0.7850  1.7574
  194MOL0     H26190   6.010   4.515   2.076  0.9001  1.1000 -1.7056
  195MOL0     O26191   7.700   0.695   4.551  0.1877 -0.6048  0.5663
  195MOL0     C26192   7.762   0.804   4.558 -0.4489 -0.0438  0.8150
  195MOL0     O26193   7.705   0.929   4.560  0.3364  0.8845  0.6427
  195MOL0     C26194   7.575   0.947   4.515  0.0405 -0.2735 -0.1439
  195MOL0     C26195   7.524   1.072   4.541 -0.4364  0.8641  0.2297
  195MOL0     C26196   7.404   1.121   4.489  0.6802  1.7260  0.2774
  195MOL0     C26197   7.316   1.029   4.431 -0.1365 -0.4061 -0.0648
  195MOL0     O26198   7.194   1.067   4.383  0.3891  0.1083  0.0625
  195MOL0     C26199   7.149   1.201   4.389 -0.3675 -0.0412 -0.0620
  195MOL0     C26200   7.012   1.217   4.317 -0.5786 -0.5024  0.2537
  195MOL0     C26201   6.894   1.150   4.397  0.2170 -0.7106 -0.7014
  195MOL0     C26202   6.747   1.172   4.344 -0.3037 -0.3611 -0.7296
  195MOL0     C26203   6.648   1.113   4.449  0.6059  0.1913 -0.4785
  195MOL0     C26204   6.514   1.134   4.385  1.4658  0.5329  0.3115
  195MOL0     C26205   6.398   1.074   4.469 -0.4777 -0.1348  0.1366
  195MOL0     C26206   6.386   1.132   4.611  0.6450  0.3034  0.4182
  195MOL0     N26207   6.274   1.070   4.679  0.1317  0.2795  0.6401
  195MOL0     C26208   6.141   1.101   4.659  0.1620  0.3551 -0.1965
  195MOL0     C26209   6.069   1.017   4.743 -0.3960  0.5784 -0.3602
  195MOL0     C26210   5.924   1.021   4.764  0.3859  0.8536 -0.1269
  195MOL0     C26211   5.875   0.890   4.829 -0.7596 -0.6709  0.2209
  195MOL0     C26212   5.725   0.906   4.866  0.4035 -0.4905  0.1593
  195MOL0     C26213   5.675   0.772   4.905 -0.4889  0.6636 -0.1644
  195MOL0     O26214   5.543   0.785   4.951  0.1176 -0.7870  0.3833
  195MOL0     C26215   5.481   0.679   5.020 -0.2119  0.1808  1.2028
  195MOL0     C26216   5.352   0.706   5.070 -0.4888  0.1542 -0.2423
  195MOL0     C26217   5.281   0.607   5.148  0.0169 -0.1852 -0.4415
  195MOL0     C26218   5.151   0.657   5.211  0.1961 -0.0010 -0.0759
  195MOL0     C26219   5.342   0.482   5.171  0.1095 -0.4704 -0.1521
  195MOL0     C26220   5.272   0.378   5.245 -0.2150 -0.4721 -0.2546
  195MOL0     O26221   5.134   0.367   5.237  0.1408 -0.7199  0.1609
  195MOL0     C26222   5.086   0.259   5.305  0.7672  0.2952  0.0876
  195MOL0     C26223   5.032   0.284   5.431  0.1600 -0.5665 -0.4627
  195MOL0     C26224   4.975   0.179   5.495 -0.0237  0.1072 -1.0023
  195MOL0     C26225   4.953   0.056   5.436  0.0788  0.2698  0.0876
  195MOL0     O26226   4.877  -0.051   5.481 -0.0504 -0.7889  0.1833
  195MOL0     C26227   4.820  -0.044   5.621 -0.7671 -0.6117 -0.8586
  195MOL0     C26228   4.694   0.045   5.641  0.2666  0.5732  1.0822
  195MOL0     C26229   4.567  -0.017   5.575 -0.1304 -0.0908 -0.5857
  195MOL0     C26230   4.441   0.037   5.641 -0.3001 -0.1834 -0.6909
  195MOL0     C26231   4.313  -0.024   5.573  0.8149 -0.3126 -0.2600
  195MOL0     C26232   4.172   0.015   5.643  0.4126 -0.2412 -0.1098
  195MOL0     C26233   4.166   0.163   5.664 -0.0024  0.3408 -0.0718
  195MOL0     C26234   4.020   0.186   5.698 -0.4380 -0.6210 -0.3917
  195MOL0    Cl26235   3.980   0.363   5.752  0.1483  0.0553  0.0010
  195MOL0     C26236   5.013   0.038   5.305  0.2453  0.6133  0.3669
  195MOL0     C26237   5.089   0.138   5.242  0.6333 -0.1363  0.0979
  195MOL0     O26238   5.344   0.301   5.308  0.4223 -0.5915 -0.3996
  195MOL0     C26239   5.468   0.459   5.111 -0.6342 -0.3721  0.2827
  195MOL0     C26240   5.540   0.557   5.041  0.1909 -0.0290  0.2896
  195MOL0     N26241   6.162   0.945   4.818  0.7893  0.6572 -0.5204
  195MOL0     N26242   6.282   0.973   4.768  0.2410  0.3949 -0.3010
  195MOL0     C26243   7.363   0.899   4.415 -0.3724  0.0128 -1.7774
  195MOL0     C26244   7.488   0.859   4.453  0.2357 -0.5409 -0.2498
  195MOL0     C26245   7.911   0.796   4.569 -1.1086 -0.7057 -0.1075
  195MOL0     C26246   7.981   0.917   4.604  0.0763 -0.3659  0.0999
  195MOL0     C26247   8.117   0.909   4.631  0.3451  0.3507  0.4770
  195MOL0     C26248   8.190   0.795   4.606 -0.2675  0.2979 -0.4968
  195MOL0     O26249   8.318   0.789   4.654  0.3386  0.6802  0.1483
  195MOL0     C26250   8.387   0.663   4.646 -0.0675  0.2882  0.2303
  195MOL0     C26251   8.527   0.664   4.720  0.0806  0.8198  1.0852
  195MOL0     C26252   8.590   0.535   4.707  0.4529  0.9294 -0.8760
  195MOL0     C26253   8.719   0.527   4.785 -0.0527  0.8804 -0.8923
  195MOL0     C26254   8.722   0.558   4.932  0.7912  0.7006  0.1635
  195MOL0     C26255   8.719   0.613   5.039  0.3079 -0.1381  0.0463
  195MOL0     C26256   8.121   0.680   4.566  0.1001  0.2116  0.5184
  195MOL0     C26257   7.985   0.678   4.543  0.2580 -0.3822  0.5756
  195MOL0     H26258   7.599   1.132   4.592 -1.0910 -0.5273  2.9801
  195MOL0     H26259   7.380   1.226   4.496  2.0195  2.1802 -1.3628
  195MOL0     H26260   7.143   1.232   4.494 -1.1005 -0.5043  0.0374
  195MOL0     H26261   7.228   1.264   4.347  2.0962 -3.4083 -0.8706
  195MOL0     H26262   6.983   1.322   4.311  1.8051  0.1216 -3.0094
  195MOL0     H26263   7.023   1.189   4.212 -1.7422  1.6273 -0.4954
  195MOL0     H26264   6.915   1.042   4.393 -0.9902 -0.9988  0.2935
  195MOL0     H26265   6.891   1.179   4.502 -0.2694 -1.8151 -0.3885
  195MOL0     H26266   6.722   1.277   4.325 -1.7708 -0.0564  2.2510
  195MOL0     H26267   6.729   1.118   4.251 -1.2518 -0.6587 -0.3881
  195MOL0     H26268   6.671   1.007   4.468 -1.5326 -0.5341 -1.5817
  195MOL0     H26269   6.656   1.158   4.549 -1.3596 -1.3655  0.4630
  195MOL0     H26270   6.498   1.243   4.379  1.7126  0.5272 -0.5702
  195MOL0     H26271   6.509   1.084   4.289 -0.5087  1.2873 -0.0301
  195MOL0     H26272   6.300   1.090   4.424 -0.2749 -0.3213 -0.3832
  195MOL0     H26273   6.412   0.965   4.472 -1.2023 -0.2246  0.3234
  195MOL0     H26274   6.364   1.239   4.603  1.9040  0.6114  0.7711
  195MOL0     H26275   6.484   1.134   4.661  1.4510  1.4953 -1.1186
  195MOL0     H26276   6.110   1.186   4.600  0.3759  0.4965 -0.1099
  195MOL0     H26277   5.906   1.099   4.838  0.8899 -1.1412  2.2379
  195MOL0     H26278   5.879   1.040   4.666 -0.4124 -0.0417  0.0423
  195MOL0     H26279   5.936   0.882   4.919  0.4382  2.7113 -0.1549
  195MOL0     H26280   5.898   0.804   4.766  0.5188 -1.3169  1.5290
  195MOL0     H26281   5.669   0.925   4.773 -0.2561 -3.1823 -0.0903
  195MOL0     H26282   5.702   0.990   4.931 -2.1392 -0.0657 -1.1521
  195MOL0     H26283   5.744   0.739   4.983 -0.4879 -0.0867 -0.4752
  195MOL0     H26284   5.682   0.707   4.818 -1.7724 -1.0875  0.9749
  195MOL0     H26285   5.314   0.808   5.066  1.9397  1.1584  0.1911
  195MOL0     H26286   5.060   0.612   5.169  1.1453 -0.8949 -1.2439
  195MOL0     H26287   5.144   0.627   5.316  1.3977  0.5325  0.1671
  195MOL0     H26288   5.142   0.766   5.210 -0.6212 -0.0608 -0.3036
  195MOL0     H26289   5.021   0.386   5.468 -0.2152 -1.5108  2.3077
  195MOL0     H26290   4.937   0.194   5.595  0.5422  1.9294 -1.0204
  195MOL0     H26291   4.796  -0.147   5.652  1.6174 -1.7713 -2.5976
  195MOL0     H26292   4.891  -0.007   5.696 -1.7564 -2.1416  0.9329
  195MOL0     H26293   4.664   0.061   5.746 -0.6958 -0.2772  0.9517
  195MOL0     H26294   4.708   0.140   5.589  1.4654  0.8763  1.9187
  195MOL0     H26295   4.566  -0.126   5.574 -0.1880 -0.1053  0.3090
  195MOL0     H26296   4.563   0.012   5.470  0.9610 -0.3331 -0.7050
  195MOL0     H26297   4.438   0.016   5.748 -0.9373  1.7671 -0.2865
  195MOL0     H26298   4.426   0.144   5.622  2.0616  0.2907 -0.1765
  195MOL0     H26299   4.309  -0.133   5.572 -1.3160 -0.2748 -0.0167
  195MOL0     H26300   4.312  -0.001   5.466  2.2101  1.6132  0.0877
  195MOL0     H26301   4.098  -0.018   5.568 -0.0653  0.5629 -0.0077
  195MOL0     H26302   4.150  -0.030   5.739  1.0966  0.1712  0.2447
  195MOL0     H26303   4.185   0.210   5.567  1.4227  0.4164  0.2292
  195MOL0     H26304   4.231   0.204   5.741  0.6460 -1.2548  0.2809
  195MOL0     H26305   3.992   0.115   5.776  0.3697  1.2202  1.6828
  195MOL0     H26306   3.964   0.159   5.608 -1.3828  0.0356 -0.0127
  195MOL0     H26307   5.005  -0.061   5.259 -1.2946  1.4061 -1.1986
  195MOL0     H26308   5.130   0.142   5.142  0.4593  2.4916  0.0568
  195MOL0     H26309   5.495   0.356   5.130 -2.1241 -0.5254  1.8582
  195MOL0     H26310   5.632   0.526   4.992  0.6905 -0.4081  1.4276
  195MOL0     H26311   7.311   0.814   4.373 -0.7091  0.0161 -1.3712
  195MOL0     H26312   7.515   0.756   4.429 -0.1284 -0.6048 -0.3970
  195MOL0     H26313   7.926   1.009   4.622  2.0715  0.9395 -0.1945
  195MOL0     H26314   8.162   0.992   4.684  0.9719 -0.9083  1.9738
  195MOL0     H26315   8.330   0.578   4.686 -0.3944 -0.4490 -1.6744
  195MOL0     H26316   8.389   0.636   4.540  0.7075 -0.6398  0.4630
  195MOL0     H26317   8.516   0.696   4.825 -0.3000 -0.0699  1.3260
  195MOL0     H26318   8.588   0.737   4.667 -0.6854  2.0683  1.8661
  195MOL0     H26319   8.614   0.512   4.603  3.2257 -2.9890  0.3933
  195MOL0     H26320   8.526   0.457   4.750  0.0305  2.5544  1.6169
  195MOL0     H26321   8.784   0.603   4.740  0.9456  1.2435  1.0285
  195MOL0     H26322   8.760   0.427   4.768  0.0311  0.7602 -0.0388
  195MOL0     H26323   8.696   0.663   5.131 -1.8425 -0.4865 -0.2487
  195MOL0     H26324   8.174   0.586   4.555 -0.1265  0.2079 -0.6833
  195MOL0     H26325   7.936   0.597   4.491 -0.1233 -1.2277  2.1761
  196MOL0     O26326   2.791   2.149   1.687  0.0354  0.3107  0.2982
  196MOL0     C26327   2.820   2.064   1.601 -0.0067  0.8126  0.4709
  196MOL0     O26328   2.743   1.961   1.565 -0.0755  0.5732  0.0822
  196MOL0     C26329   2.630   1.927   1.639 -0.2907  1.2097 -0.0060
  196MOL0     C26330   2.524   2.010   1.666  0.1280  0.6384  0.0060
  196MOL0     C26331   2.404   1.953   1.730 -1.0956 -0.2385  0.7385
  196MOL0     C26332   2.391   1.815   1.752 -0.7837  0.1526  0.3330
  196MOL0     O26333   2.283   1.752   1.805  0.4130  0.1375  0.0483
  196MOL0     C26334   2.165   1.830   1.844  0.0452 -0.3116 -0.6147
  196MOL0     C26335   2.041   1.758   1.888 -0.7578 -0.4681  0.4468
  196MOL0     C26336   1.960   1.705   1.764 -0.9137  0.5371  0.3664
  196MOL0     C26337   1.887   1.817   1.693  0.2914  0.1210  0.0317
  196MOL0     C26338   1.807   1.779   1.568  0.4165 -0.1552  0.1900
  196MOL0     C26339   1.716   1.659   1.603  0.7738  0.3291  1.1416
  196MOL0     C26340   1.747   1.533   1.524  0.7112  0.0479  0.7947
  196MOL0     C26341   1.702   1.396   1.600  0.3192  0.6022  0.4552
  196MOL0     N26342   1.558   1.384   1.603 -0.4600  0.1461 -0.2084
  196MOL0     C26343   1.501   1.313   1.697 -0.0411  0.8754  0.2507
  196MOL0     C26344   1.368   1.313   1.667 -0.0261  0.1366 -0.3733
  196MOL0     C26345   1.262   1.242   1.754 -0.0999 -0.1986  0.2821
  196MOL0     C26346   1.122   1.254   1.685  0.7473  0.0202  1.1629
  196MOL0     C26347   1.103   1.180   1.544 -0.4091 -0.4865 -0.1532
  196MOL0     C26348   0.973   1.212   1.481  0.0901 -0.2437 -0.1757
  196MOL0     O26349   0.857   1.193   1.574 -0.5871 -0.3420 -0.0692
  196MOL0     C26350   0.733   1.213   1.528  0.2396  0.5071 -0.4237
  196MOL0     C26351   0.630   1.226   1.627  0.2100 -0.8661 -0.2919
  196MOL0     C26352   0.493   1.238   1.585 -0.8063  1.6691  0.1953
  196MOL0     C26353   0.392   1.242   1.699 -0.3763 -0.5789 -0.0945
  196MOL0     C26354   0.465   1.261   1.448  0.5034  0.0078  0.0311
  196MOL0     C26355   0.326   1.265   1.386  0.4385 -0.5792  0.3926
  196MOL0     O26356   0.216   1.298   1.464  0.1533  0.0564 -0.2617
  196MOL0     C26357   0.091   1.298   1.407 -0.3869 -0.1154  0.1624
  196MOL0     C26358   0.036   1.418   1.388 -0.4477 -0.4739  0.3255
  196MOL0     C26359  -0.084   1.433   1.330 -0.0691  0.2268 -0.1632
  196MOL0     C26360  -0.161   1.318   1.294  1.1467  0.4901  0.7212
  196MOL0     O26361  -0.280   1.332   1.229 -0.1465 -0.0712  0.0890
  196MOL0     C26362  -0.384   1.227   1.228  0.4483  0.0102 -0.0341
  196MOL0     C26363  -0.514   1.269   1.151  0.1242 -0.0424  0.6085
  196MOL0     C26364  -0.626   1.169   1.166 -0.7232 -0.6620  0.0803
  196MOL0     C26365  -0.678   1.175   1.307  0.8090  0.5482 -1.1066
  196MOL0     C26366  -0.831   1.192   1.332  0.3768 -0.9056 -0.0527
  196MOL0     C26367  -0.858   1.211   1.479 -0.8722 -0.5829  0.5431
  196MOL0     C26368  -1.003   1.229   1.513  0.0024  0.1719 -0.3375
  196MOL0     C26369  -1.021   1.269   1.660 -0.0093  0.2336  0.1410
  196MOL0    Cl26370  -0.935   1.159   1.780  0.1099  0.0677  0.7483
  196MOL0     C26371  -0.119   1.197   1.328 -0.2297  0.0248 -0.3857
  196MOL0     C26372   0.014   1.192   1.381  0.0191  0.0723 -0.3025
  196MOL0     O26373   0.321   1.231   1.267  0.6636 -0.3252 -0.4156
  196MOL0     C26374   0.574   1.259   1.357  0.7712  0.4461 -0.2273
  196MOL0     C26375   0.704   1.229   1.396  0.1207 -0.8849  0.2508
  196MOL0     N26376   1.350   1.385   1.552  0.9406 -0.9276  0.8279
  196MOL0     N26377   1.469   1.427   1.511  1.0246  0.6216  0.5072
  196MOL0     C26378   2.501   1.730   1.721  0.9071 -0.6294  0.0848
  196MOL0     C26379   2.612   1.783   1.658  0.3623 -0.6068  0.4837
  196MOL0     C26380   2.955   2.070   1.537 -0.4537 -0.6456  0.0222
  196MOL0     C26381   3.062   2.142   1.592 -0.1809  0.7262 -0.4034
  196MOL0     C26382   3.190   2.149   1.542  0.0403 -0.7890  0.2620
  196MOL0     C26383   3.217   2.099   1.414  0.0470  0.9297 -0.0636
  196MOL0     O26384   3.340   2.105   1.357  0.3503  0.5647 -0.3659
  196MOL0     C26385   3.429   2.202   1.400  0.4659 -0.4950 -0.0735
  196MOL0     C26386   3.547   2.201   1.302  0.3941  0.0942  0.4596
  196MOL0     C26387   3.672   2.262   1.366  0.7277  0.4459  0.3623
  196MOL0     C26388   3.786   2.225   1.278 -0.0507  0.4704  0.6378
  196MOL0     C26389   3.917   2.265   1.319  1.2276 -0.0900 -0.0966
  196MOL0     C26390   4.031   2.295   1.355  0.0589 -1.1727  0.1683
  196MOL0     C26391   3.114   2.023   1.350 -1.3566  0.2442  0.2965
  196MOL0     C26392   2.993   2.007   1.415 -0.6783  0.4071 -0.3093
  196MOL0     H26393   2.529   2.119   1.665  2.4852  0.6265  1.6150
  196MOL0     H26394   2.340   2.036   1.760  0.5509  1.7208 -0.8106
  196MOL0     H26395   2.188   1.894   1.929  2.5263  0.1516 -1.5624
  196MOL0     H26396   2.144   1.908   1.770  1.3066  1.6882  1.0412
  196MOL0     H26397   2.058   1.684   1.967 -0.0303 -0.1008  0.6341
  196MOL0     H26398   1.977   1.830   1.940 -0.9613 -2.4682  3.2433
  196MOL0     H26399   2.032   1.652   1.702  0.1697  0.8717  1.3070
  196MOL0     H26400   1.891   1.629   1.802  0.7166 -0.6986  0.9776
  196MOL0     H26401   1.827   1.867   1.769  0.1391 -1.1636  0.7746
  196MOL0     H26402   1.962   1.891   1.663  0.1830 -0.1230 -0.8699
  196MOL0     H26403   1.747   1.863   1.532 -0.1832  0.4850  2.4948
  196MOL0     H26404   1.872   1.763   1.482 -1.1459  2.0227 -1.5078
  196MOL0     H26405   1.710   1.647   1.712  0.5179  3.2427  1.5168
  196MOL0     H26406   1.618   1.680   1.561  0.2001 -1.5918  1.3955
  196MOL0     H26407   1.706   1.543   1.423  2.0637  1.8571  0.3631
  196MOL0     H26408   1.855   1.529   1.507  0.4779 -0.0140 -0.8574
  196MOL0     H26409   1.736   1.404   1.704 -1.3249 -0.1912  1.0895
  196MOL0     H26410   1.751   1.312   1.550  1.1444  1.9309 -1.0513
  196MOL0     H26411   1.559   1.264   1.774 -0.4709  1.2339  0.8107
  196MOL0     H26412   1.295   1.138   1.758 -5.2595 -2.1260  0.6825
  196MOL0     H26413   1.263   1.284   1.855 -0.5100  0.2637  0.1007
  196MOL0     H26414   1.098   1.361   1.676 -4.3639 -0.9005  0.7378
  196MOL0     H26415   1.049   1.219   1.758 -0.3526 -0.5336 -0.1593
  196MOL0     H26416   1.122   1.073   1.558  0.0102 -0.3060  0.7501
  196MOL0     H26417   1.188   1.204   1.479  0.9716 -4.6225 -0.1905
  196MOL0     H26418   0.960   1.156   1.388  1.2984 -0.5469 -0.1785
  196MOL0     H26419   0.968   1.319   1.458  1.9170  0.9710  4.0096
  196MOL0     H26420   0.660   1.229   1.731 -1.3128  1.5597  0.1779
  196MOL0     H26421   0.341   1.339   1.704  2.0277  0.7154  1.3995
  196MOL0     H26422   0.310   1.172   1.681  0.4883 -0.9998 -2.8136
  196MOL0     H26423   0.442   1.231   1.795 -0.1680 -0.0360 -0.1359
  196MOL0     H26424   0.092   1.507   1.414 -1.9628  0.3356  0.9185
  196MOL0     H26425  -0.139   1.527   1.336  1.4907  1.0906  2.2910
  196MOL0     H26426  -0.357   1.126   1.197 -0.5929 -0.0903 -0.6838
  196MOL0     H26427  -0.423   1.212   1.329 -0.4516  0.8461 -0.2357
  196MOL0     H26428  -0.545   1.370   1.178  0.0137 -0.3949  1.8599
  196MOL0     H26429  -0.488   1.282   1.045 -0.8304  0.4752  0.4276
  196MOL0     H26430  -0.596   1.067   1.141  2.7488  0.0373  0.8687
  196MOL0     H26431  -0.702   1.196   1.092 -1.4582 -3.4742 -0.3116
  196MOL0     H26432  -0.648   1.082   1.356  2.6947  1.7633  0.1928
  196MOL0     H26433  -0.630   1.257   1.361 -1.7847  1.1136  0.5394
  196MOL0     H26434  -0.872   1.096   1.300  0.3753 -1.2217  0.8810
  196MOL0     H26435  -0.874   1.277   1.278  2.0409 -0.2669 -0.4354
  196MOL0     H26436  -0.816   1.130   1.539  0.8896 -0.8182 -0.9346
  196MOL0     H26437  -0.796   1.290   1.522 -0.4997 -1.0753  0.9351
  196MOL0     H26438  -1.051   1.133   1.493 -0.5951  0.9461 -3.1600
  196MOL0     H26439  -1.045   1.307   1.447  0.8977 -0.1345 -1.2968
  196MOL0     H26440  -1.126   1.282   1.689  0.4666  1.2295  1.4753
  196MOL0     H26441  -0.972   1.366   1.663  6.3836 -2.5575  1.0928
  196MOL0     H26442  -0.174   1.105   1.313  2.2683 -1.6996  0.3637
  196MOL0     H26443   0.072   1.105   1.412 -0.0396  1.1641  3.2935
  196MOL0     H26444   0.553   1.294   1.256 -1.4379 -0.0948 -0.0114
  196MOL0     H26445   0.784   1.242   1.324 -1.4995  0.7599 -1.3514
  196MOL0     H26446   2.490   1.625   1.743  2.9719 -1.0532 -0.6866
  196MOL0     H26447   2.699   1.723   1.631  0.3632  0.2982 -1.7340
  196MOL0     H26448   3.039   2.191   1.686 -1.6900  1.6647 -1.2265
  196MOL0     H26449   3.249   2.209   1.610  0.5574  1.5601 -2.1180
  196MOL0     H26450   3.378   2.297   1.413 -1.1713 -1.5282  1.5581
  196MOL0     H26451   3.468   2.183   1.500 -1.6006  0.5261  0.9968
  196MOL0     H26452   3.510   2.252   1.213 -2.1946  2.4815  2.7072
  196MOL0     H26453   3.555   2.096   1.271  0.7604  0.8803 -2.3540
  196MOL0     H26454   3.692   2.228   1.468 -0.9056 -0.0740  0.5425
  196MOL0     H26455   3.651   2.369   1.375 -0.4788  0.1962  0.6682
  196MOL0     H26456   3.779   2.276   1.182  1.5987 -1.0083 -0.3339
  196MOL0     H26457   3.786   2.118   1.256  2.2979  0.8632 -1.7718
  196MOL0     H26458   4.129   2.332   1.373 -1.6246  3.4607  1.2372
  196MOL0     H26459   3.132   1.987   1.249 -0.5161  3.4876 -0.8060
  196MOL0     H26460   2.916   1.943   1.373 -0.8703  1.6365 -1.8827
  197MOL0     O26461   9.476  10.300   7.384 -0.9194 -0.2182 -0.2709
  197MOL0     C26462   9.445  10.193   7.439 -0.8355 -0.0219  0.9296
  197MOL0     O26463   9.321  10.161   7.497 -0.6039 -0.2340 -0.5336
  197MOL0     C26464   9.204  10.222   7.456 -0.2548 -0.2414 -0.7827
  197MOL0     C26465   9.114  10.234   7.556  0.0255 -0.5543 -0.6738
  197MOL0     C26466   8.992  10.305   7.537  0.5903  0.9333  0.5583
  197MOL0     C26467   8.963  10.358   7.405  0.6694 -0.0329  0.3034
  197MOL0     O26468   8.840  10.429   7.378  0.3810  0.2264  0.2897
  197MOL0     C26469   8.854  10.535   7.285  0.6554  0.0713 -0.2487
  197MOL0     C26470   8.758  10.653   7.306 -0.2843  0.3258  0.3018
  197MOL0     C26471   8.609  10.618   7.297 -0.4166  0.5189  0.2040
  197MOL0     C26472   8.520  10.738   7.314  0.4616  0.2632 -0.0823
  197MOL0     C26473   8.374  10.730   7.258 -0.2258  0.8306 -0.3150
  197MOL0     C26474   8.365  10.715   7.102 -0.5015  0.3509 -0.4444
  197MOL0     C26475   8.213  10.738   7.072 -0.3837  0.1175 -0.4686
  197MOL0     C26476   8.182  10.889   7.066 -0.9442 -0.0261  0.1995
  197MOL0     N26477   8.034  10.906   7.030 -0.2952  0.0257  0.1690
  197MOL0     C26478   7.937  10.873   7.117  0.0919 -0.2100 -0.7058
  197MOL0     C26479   7.825  10.869   7.043 -0.2126 -0.5337  0.5209
  197MOL0     C26480   7.683  10.822   7.079 -0.2079  0.2163  0.4291
  197MOL0     C26481   7.638  10.854   7.222  0.3399  0.1636 -0.8569
  197MOL0     C26482   7.499  10.786   7.249  0.1145 -0.1532  0.2466
  197MOL0     C26483   7.388  10.861   7.182  0.6128 -0.6068  0.7245
  197MOL0     O26484   7.267  10.811   7.239 -0.5113  0.2395 -0.2375
  197MOL0     C26485   7.160  10.887   7.263 -0.9077 -1.1576 -0.3259
  197MOL0     C26486   7.132  11.009   7.198 -0.4989  0.2369  0.1825
  197MOL0     C26487   7.014  11.074   7.222  0.3526 -0.5510  0.1250
  197MOL0     C26488   6.985  11.198   7.136  0.0046 -0.6995 -0.1742
  197MOL0     C26489   6.924  11.039   7.328 -0.1475  0.3499  0.1126
  197MOL0     C26490   6.788  11.098   7.360 -0.2414 -0.2038 -1.0396
  197MOL0     O26491   6.723  11.052   7.470 -0.3767 -0.2488  0.3733
  197MOL0     C26492   6.618  11.131   7.517 -0.4796 -0.0372  0.9804
  197MOL0     C26493   6.513  11.180   7.441  0.0770  0.0654 -0.3813
  197MOL0     C26494   6.409  11.246   7.510 -0.0617 -0.6322 -0.2052
  197MOL0     C26495   6.405  11.260   7.648  0.6509  1.0420  0.6556
  197MOL0     O26496   6.298  11.319   7.711 -0.1013  0.3868 -0.6101
  197MOL0     C26497   6.172  11.290   7.658 -0.8275 -0.6210 -0.1358
  197MOL0     C26498   6.061  11.312   7.778 -0.1301  0.3262  0.3597
  197MOL0     C26499   5.924  11.261   7.727  0.4670  1.4686 -0.8878
  197MOL0     C26500   5.813  11.375   7.730 -0.8587  1.2019  0.6580
  197MOL0     C26501   5.701  11.333   7.638  0.2739 -0.1315 -0.1494
  197MOL0     C26502   5.571  11.422   7.641 -0.0848 -0.1831  0.0530
  197MOL0     C26503   5.494  11.409   7.765  0.1397 -0.2798 -0.7150
  197MOL0     C26504   5.360  11.491   7.776 -0.2802  0.1666 -0.5188
  197MOL0    Cl26505   5.311  11.497   7.942  0.2314  0.0779 -0.0503
  197MOL0     C26506   6.510  11.217   7.724 -0.4501 -0.1525 -0.4420
  197MOL0     C26507   6.616  11.162   7.653  0.1421  0.1905  0.3735
  197MOL0     O26508   6.742  11.169   7.275  0.0445  0.1228  0.3518
  197MOL0     C26509   6.969  10.927   7.403 -0.1124 -1.0045 -1.0816
  197MOL0     C26510   7.078  10.853   7.366 -0.8649  0.4295 -0.5662
  197MOL0     N26511   7.857  10.913   6.917 -0.0940 -0.8140  0.4826
  197MOL0     N26512   7.985  10.925   6.902  0.5034  0.3264 -0.1313
  197MOL0     C26513   9.052  10.327   7.303 -0.5298  0.5693 -0.2778
  197MOL0     C26514   9.178  10.268   7.327  0.1288  0.6085  0.9243
  197MOL0     C26515   9.556  10.099   7.460 -0.1097  0.7541 -0.1719
  197MOL0     C26516   9.688  10.124   7.411  0.2811  0.6643  0.2528
  197MOL0     C26517   9.788  10.032   7.432 -0.4786 -0.5462 -0.0967
  197MOL0     C26518   9.771   9.910   7.485 -0.3697  1.2987  0.2563
  197MOL0     O26519   9.868   9.811   7.500  0.0623  0.2567  0.2726
  197MOL0     C26520  10.004   9.844   7.464  0.3461 -0.5168 -0.4975
  197MOL0     C26521  10.095   9.733   7.518 -0.4497 -0.2061  0.0464
  197MOL0     C26522  10.067   9.602   7.434  0.1218  0.9730  0.7370
  197MOL0     C26523  10.191   9.507   7.441  0.3279 -0.4037 -0.2297
  197MOL0     C26524  10.166   9.388   7.353 -0.4436  0.7327  0.9305
  197MOL0     C26525  10.149   9.286   7.293 -0.4427 -0.0721  0.2861
  197MOL0     C26526   9.641   9.879   7.522  0.1193 -0.2911  0.3744
  197MOL0     C26527   9.533   9.971   7.514  0.2606 -0.2765 -0.4650
  197MOL0     H26528   9.128  10.201   7.659  1.2288 -0.5626 -0.8280
  197MOL0     H26529   8.920  10.309   7.618  0.1031 -3.0540  0.5086
  197MOL0     H26530   8.954  10.577   7.298  0.2433  1.7292 -1.9943
  197MOL0     H26531   8.851  10.488   7.187  0.8958  0.4683 -0.4478
  197MOL0     H26532   8.787  10.697   7.402 -3.4410  1.3661  0.9174
  197MOL0     H26533   8.790  10.732   7.237  0.4569 -0.1350  0.1191
  197MOL0     H26534   8.580  10.571   7.203  0.1003 -2.0397  1.2582
  197MOL0     H26535   8.588  10.539   7.369 -1.3761 -0.3887 -1.0208
  197MOL0     H26536   8.522  10.784   7.413 -1.6024  0.7714 -0.2283
  197MOL0     H26537   8.567  10.826   7.269  0.4266  2.7305  4.1521
  197MOL0     H26538   8.317  10.644   7.294  0.7111 -0.6712 -2.2558
  197MOL0     H26539   8.313  10.817   7.284 -1.3052 -0.2022  0.7992
  197MOL0     H26540   8.427  10.786   7.046  0.7062 -1.1717 -1.1188
  197MOL0     H26541   8.402  10.617   7.070  0.8455  0.0902  1.7205
  197MOL0     H26542   8.191  10.695   6.973  1.2878 -2.9471  0.3943
  197MOL0     H26543   8.155  10.693   7.153 -0.0657 -0.7517 -0.7148
  197MOL0     H26544   8.252  10.929   6.993  1.3577  1.4125  2.9949
  197MOL0     H26545   8.205  10.931   7.164 -0.9306  2.0215 -0.6376
  197MOL0     H26546   7.946  10.844   7.222 -2.7085  0.9663 -0.0515
  197MOL0     H26547   7.605  10.851   7.007 -2.1611 -1.7681  1.6371
  197MOL0     H26548   7.679  10.713   7.076 -1.6331  0.2334 -1.9591
  197MOL0     H26549   7.631  10.963   7.228  0.1204  0.2540 -2.3205
  197MOL0     H26550   7.716  10.809   7.284  1.6673 -1.1384 -3.2879
  197MOL0     H26551   7.491  10.803   7.356  1.4607  0.2686  0.3033
  197MOL0     H26552   7.493  10.677   7.244  2.2123 -0.4082  1.8686
  197MOL0     H26553   7.384  10.842   7.075 -2.7290 -1.7656  0.9307
  197MOL0     H26554   7.409  10.967   7.200  0.4985 -0.7354  1.6924
  197MOL0     H26555   7.205  11.035   7.122  0.7184 -0.2020  1.1651
  197MOL0     H26556   7.051  11.209   7.050  0.2713  1.4180  0.2346
  197MOL0     H26557   6.885  11.187   7.094 -1.4250  4.2084  1.2099
  197MOL0     H26558   6.983  11.287   7.200 -0.6094 -1.4969  0.9610
  197MOL0     H26559   6.517  11.167   7.333  1.4372 -1.3401 -0.2001
  197MOL0     H26560   6.323  11.273   7.449  0.1612  2.3622  0.6792
  197MOL0     H26561   6.154  11.362   7.577 -0.4805  1.2956  1.4018
  197MOL0     H26562   6.164  11.189   7.618  3.2033 -1.0844 -0.1138
  197MOL0     H26563   6.093  11.246   7.860  3.3107  0.0718 -1.0232
  197MOL0     H26564   6.055  11.417   7.807  1.6943  0.2884  1.0023
  197MOL0     H26565   5.886  11.184   7.795 -1.9865  4.0093  0.8195
  197MOL0     H26566   5.937  11.215   7.629 -0.1556 -0.3147 -0.1728
  197MOL0     H26567   5.778  11.410   7.827 -0.0775  2.1864  0.5955
  197MOL0     H26568   5.848  11.471   7.692  1.1861  0.0350 -0.5928
  197MOL0     H26569   5.671  11.230   7.657  2.2976 -0.7255  0.0166
  197MOL0     H26570   5.736  11.329   7.534  0.1259  0.7890 -0.2504
  197MOL0     H26571   5.592  11.528   7.627  0.4781 -0.3496 -0.4479
  197MOL0     H26572   5.504  11.391   7.561  0.1946 -1.0193  0.1330
  197MOL0     H26573   5.563  11.458   7.835  2.1992 -2.1327 -1.3362
  197MOL0     H26574   5.484  11.304   7.792  1.0811 -0.4732 -1.0736
  197MOL0     H26575   5.280  11.442   7.721 -2.2345  2.4515  0.1509
  197MOL0     H26576   5.364  11.595   7.744 -1.3939  1.3472  2.7531
  197MOL0     H26577   6.516  11.220   7.832  1.5307 -0.1505 -0.5119
  197MOL0     H26578   6.709  11.126   7.697  0.4072  1.1249  0.5852
  197MOL0     H26579   6.918  10.877   7.485  1.4714 -2.9788 -1.2396
  197MOL0     H26580   7.097  10.756   7.410 -0.6553 -0.6014 -2.7866
  197MOL0     H26581   9.028  10.355   7.201 -0.1881 -1.0400 -0.8267
  197MOL0     H26582   9.254  10.261   7.250  0.6612  0.6239  1.4480
  197MOL0     H26583   9.718  10.214   7.358  0.1922  0.3392 -0.3617
  197MOL0     H26584   9.884  10.081   7.431  0.1784 -1.8028 -0.6334
  197MOL0     H26585   9.998   9.861   7.356  2.7630 -1.4620 -0.8496
  197MOL0     H26586  10.037   9.939   7.508  0.2912  0.6779 -2.8439
  197MOL0     H26587  10.052   9.702   7.613 -0.8489 -0.3195 -0.1703
  197MOL0     H26588  10.195   9.777   7.530 -0.6308 -0.4185  3.1974
  197MOL0     H26589  10.045   9.628   7.330  3.6119  0.3213 -0.3158
  197MOL0     H26590   9.982   9.548   7.475  0.0526 -1.4155 -2.1916
  197MOL0     H26591  10.210   9.468   7.542 -0.9421  0.8786  0.5473
  197MOL0     H26592  10.276   9.563   7.402  0.2713  0.4919  0.8652
  197MOL0     H26593  10.129   9.191   7.247 -0.4546 -0.0814  0.3113
  197MOL0     H26594   9.623   9.781   7.564 -0.3730  0.1962  1.3209
  197MOL0     H26595   9.435   9.948   7.555  0.1230  0.9558 -0.0612
  198MOL0     O26596   7.646   1.290   6.615 -0.3000  0.2037 -0.3888
  198MOL0     C26597   7.712   1.223   6.695 -0.0446 -0.0633 -0.2048
  198MOL0     O26598   7.654   1.150   6.802 -0.2987 -0.4825 -0.5557
  198MOL0     C26599   7.517   1.133   6.804  0.1043  0.3358 -0.9588
  198MOL0     C26600   7.446   1.101   6.692  0.0236 -0.5290 -0.4700
  198MOL0     C26601   7.307   1.080   6.695 -0.6742  1.2044 -0.1347
  198MOL0     C26602   7.247   1.062   6.824 -0.1736  0.1763  0.2064
  198MOL0     O26603   7.114   1.029   6.843  0.1937  1.0220  0.4631
  198MOL0     C26604   7.032   1.023   6.728 -0.5703  0.1487 -1.1853
  198MOL0     C26605   6.892   0.988   6.777  0.4593  0.3799 -1.0945
  198MOL0     C26606   6.783   1.007   6.678  0.0116  1.1067  0.5429
  198MOL0     C26607   6.644   0.952   6.718  0.3431  0.2723 -0.3754
  198MOL0     C26608   6.543   1.011   6.617 -0.1119  0.2156  0.4164
  198MOL0     C26609   6.405   1.013   6.669 -0.2539  0.3151  0.2160
  198MOL0     C26610   6.308   1.053   6.570  0.1003  0.3014 -0.1795
  198MOL0     C26611   6.167   1.004   6.589  0.3959 -0.5694 -0.4364
  198MOL0     N26612   6.136   0.866   6.581 -0.0606  0.3059 -0.2226
  198MOL0     C26613   6.104   0.787   6.473  1.1544 -0.3861  0.4226
  198MOL0     C26614   6.085   0.664   6.528  0.3363 -0.5862 -0.0091
  198MOL0     C26615   6.029   0.546   6.452 -0.1271  0.0295  0.2662
  198MOL0     C26616   5.940   0.459   6.539 -0.7185 -0.3482 -0.3276
  198MOL0     C26617   5.831   0.394   6.455 -0.0334 -0.0568  0.2049
  198MOL0     C26618   5.761   0.272   6.515 -0.0271  0.7839  0.3966
  198MOL0     O26619   5.865   0.173   6.534 -0.3324 -0.3366 -0.3233
  198MOL0     C26620   5.828   0.069   6.617  0.8107  0.2934 -0.5127
  198MOL0     C26621   5.931   0.005   6.682  0.0060  0.4448 -0.2996
  198MOL0     C26622   5.913  -0.116   6.757  0.1163  0.3160 -0.9651
  198MOL0     C26623   6.035  -0.199   6.795 -0.4349  0.1124 -0.3915
  198MOL0     C26624   5.775  -0.165   6.771 -0.3254  0.5567 -0.5209
  198MOL0     C26625   5.738  -0.281   6.855  0.1657  0.6498 -0.0175
  198MOL0     O26626   5.605  -0.328   6.843 -0.2907 -0.4927 -0.7674
  198MOL0     C26627   5.556  -0.418   6.933  0.2581 -0.5299 -0.6059
  198MOL0     C26628   5.595  -0.456   7.064 -0.2534 -0.2126 -0.1526
  198MOL0     C26629   5.517  -0.543   7.142  0.2204  0.0294 -0.6790
  198MOL0     C26630   5.398  -0.595   7.092  0.1365 -1.0083 -0.1020
  198MOL0     O26631   5.317  -0.662   7.180  0.0175  0.5838 -0.0399
  198MOL0     C26632   5.367  -0.787   7.230 -0.0446  0.5852 -0.0026
  198MOL0     C26633   5.382  -0.890   7.120 -0.1319  0.2218 -0.1676
  198MOL0     C26634   5.260  -0.916   7.031  0.7254 -0.5472 -0.4308
  198MOL0     C26635   5.277  -1.008   6.911  0.2587  0.7571 -0.3798
  198MOL0     C26636   5.134  -1.055   6.856 -0.0676 -0.2696  0.5026
  198MOL0     C26637   5.149  -1.171   6.752  0.1541 -0.0582  0.2491
  198MOL0     C26638   5.233  -1.289   6.794  0.2125 -0.3409  0.1010
  198MOL0     C26639   5.162  -1.353   6.921 -0.1270 -0.3753  1.1368
  198MOL0    Cl26640   5.203  -1.269   7.074  0.4478  0.0566 -0.2062
  198MOL0     C26641   5.359  -0.560   6.958 -0.0536 -0.4247 -0.1013
  198MOL0     C26642   5.435  -0.470   6.888  0.8635 -0.1150 -1.2032
  198MOL0     O26643   5.825  -0.331   6.926  0.3539 -0.6999 -0.3351
  198MOL0     C26644   5.679  -0.109   6.700 -0.2921 -0.0735  1.1357
  198MOL0     C26645   5.706   0.005   6.621  0.0069 -0.2150 -0.6980
  198MOL0     N26646   6.101   0.677   6.665  0.0279 -0.3409  0.0392
  198MOL0     N26647   6.140   0.792   6.695  0.5796 -1.1298  0.3264
  198MOL0     C26648   7.319   1.095   6.936  0.5050  0.6131 -0.3403
  198MOL0     C26649   7.453   1.128   6.926  0.7639 -0.0586 -0.3910
  198MOL0     C26650   7.854   1.243   6.699  1.3164  0.3746 -0.1373
  198MOL0     C26651   7.930   1.199   6.809 -0.9076 -0.0196  0.3995
  198MOL0     C26652   8.065   1.212   6.813  0.1638 -0.5607  0.3658
  198MOL0     C26653   8.131   1.278   6.705 -0.3225  0.3522 -0.7196
  198MOL0     O26654   8.265   1.302   6.696 -0.1006  0.0803 -0.3574
  198MOL0     C26655   8.342   1.253   6.812 -0.7707 -0.4874  0.3848
  198MOL0     C26656   8.492   1.265   6.796 -0.4840 -0.1916  0.3850
  198MOL0     C26657   8.541   1.411   6.794  0.0076 -0.5953  0.3574
  198MOL0     C26658   8.654   1.444   6.696 -0.0885  0.4115  0.1710
  198MOL0     C26659   8.790   1.401   6.739 -0.4612 -0.0016  0.0430
  198MOL0     C26660   8.899   1.364   6.777  0.2980  0.2670  1.2644
  198MOL0     C26661   8.059   1.314   6.594 -0.1802 -0.6095  0.7608
  198MOL0     C26662   7.922   1.290   6.582  0.0874  0.0040 -0.4277
  198MOL0     H26663   7.488   1.111   6.593 -1.8238 -0.3621 -1.2866
  198MOL0     H26664   7.250   1.073   6.603  0.5575  1.0052 -0.9152
  198MOL0     H26665   7.038   1.121   6.679  0.1092  1.3528  1.1564
  198MOL0     H26666   7.065   0.948   6.656 -0.4640  0.6010 -1.6092
  198MOL0     H26667   6.899   0.888   6.820 -0.0253  0.7275 -0.1821
  198MOL0     H26668   6.868   1.056   6.859 -1.4690 -3.2555  1.6487
  198MOL0     H26669   6.775   1.115   6.670  2.6417  1.3135 -0.4953
  198MOL0     H26670   6.813   0.959   6.584 -1.2341  1.2462  0.0622
  198MOL0     H26671   6.647   0.843   6.721  0.3256  0.2825  0.1859
  198MOL0     H26672   6.611   0.994   6.814 -0.2063  1.0358 -0.8890
  198MOL0     H26673   6.573   1.111   6.585  2.4679 -0.6666 -0.1769
  198MOL0     H26674   6.563   0.948   6.530  2.3023  2.1951 -0.6150
  198MOL0     H26675   6.385   0.908   6.692  2.8890 -0.2063  1.0443
  198MOL0     H26676   6.400   1.078   6.756 -1.0148  0.2886  0.1969
  198MOL0     H26677   6.313   1.162   6.565 -0.1839  0.3418  0.2760
  198MOL0     H26678   6.327   1.011   6.471 -0.5518 -3.4773  1.1327
  198MOL0     H26679   6.092   1.050   6.524  1.1276 -0.1097 -0.9697
  198MOL0     H26680   6.144   1.048   6.686  1.9918  1.9918 -1.1182
  198MOL0     H26681   6.080   0.822   6.372 -2.2776 -2.2750  0.4170
  198MOL0     H26682   5.979   0.567   6.357  2.0732 -2.8615 -1.7066
  198MOL0     H26683   6.118   0.489   6.425  0.0594  0.0160  0.8911
  198MOL0     H26684   5.891   0.505   6.625 -0.0862 -0.6581  0.2152
  198MOL0     H26685   6.014   0.384   6.570  1.3603  1.4137 -0.7890
  198MOL0     H26686   5.875   0.353   6.364  1.4396 -0.6525  1.1464
  198MOL0     H26687   5.753   0.466   6.427 -0.4968 -0.7844 -0.4349
  198MOL0     H26688   5.676   0.250   6.451  0.1741  4.3924 -1.3579
  198MOL0     H26689   5.716   0.304   6.609  0.9233  0.3716  1.0114
  198MOL0     H26690   6.035   0.034   6.677  0.3816 -0.0401  2.6046
  198MOL0     H26691   6.047  -0.205   6.904 -3.2049  3.8876  0.3013
  198MOL0     H26692   6.030  -0.301   6.757 -0.2204  0.2455 -0.7807
  198MOL0     H26693   6.130  -0.156   6.761 -0.3617 -0.7826 -1.3556
  198MOL0     H26694   5.686  -0.412   7.102  0.0272  0.5460 -1.6291
  198MOL0     H26695   5.547  -0.548   7.246 -1.0483  3.9959  0.0500
  198MOL0     H26696   5.464  -0.770   7.278  0.1958  0.1200 -0.3229
  198MOL0     H26697   5.308  -0.834   7.310 -0.7589 -1.0033 -1.3960
  198MOL0     H26698   5.456  -0.856   7.047  1.1656  1.2097  1.5475
  198MOL0     H26699   5.423  -0.983   7.162  1.0671  2.4498  4.2259
  198MOL0     H26700   5.228  -0.812   7.014  1.6450 -0.1173  0.3731
  198MOL0     H26701   5.175  -0.950   7.092  1.6428  1.5995  2.2814
  198MOL0     H26702   5.345  -0.966   6.837  1.0795 -1.4424 -0.9441
  198MOL0     H26703   5.328  -1.097   6.947  3.4677  2.7606  0.3791
  198MOL0     H26704   5.082  -0.974   6.803 -2.7275 -2.0942  0.1718
  198MOL0     H26705   5.065  -1.085   6.935 -1.0054 -3.7549 -1.4549
  198MOL0     H26706   5.049  -1.202   6.723  0.4248 -1.6846  0.9775
  198MOL0     H26707   5.202  -1.130   6.666  0.3600 -1.8069 -0.5003
  198MOL0     H26708   5.337  -1.261   6.811  0.9046 -1.9825 -1.1552
  198MOL0     H26709   5.249  -1.371   6.723 -1.8519 -1.0564  0.3952
  198MOL0     H26710   5.207  -1.453   6.921 -0.7319 -0.6958 -0.8192
  198MOL0     H26711   5.053  -1.357   6.913 -0.1527  1.9929 -0.8172
  198MOL0     H26712   5.267  -0.608   6.924  0.0054  0.9478 -2.3621
  198MOL0     H26713   5.403  -0.433   6.791 -2.5924  1.4353  0.3739
  198MOL0     H26714   5.578  -0.149   6.690 -0.8697  1.2248  1.6101
  198MOL0     H26715   5.627   0.044   6.557 -1.6865  1.6354  2.2880
  198MOL0     H26716   7.256   1.095   7.024  0.0673 -1.4591 -0.6229
  198MOL0     H26717   7.521   1.147   7.008 -0.8016  0.3302  0.8721
  198MOL0     H26718   7.877   1.160   6.896  0.2733 -0.4313  0.9671
  198MOL0     H26719   8.096   1.199   6.917  1.9792  2.3119  0.2893
  198MOL0     H26720   8.305   1.294   6.907 -2.0977 -1.0310  0.1120
  198MOL0     H26721   8.338   1.144   6.824 -0.9042 -0.4292  0.8972
  198MOL0     H26722   8.525   1.222   6.701  0.8201  1.7990 -0.1165
  198MOL0     H26723   8.550   1.206   6.868  0.8430  0.2127 -0.3227
  198MOL0     H26724   8.565   1.447   6.894 -0.6809 -0.6172  0.5354
  198MOL0     H26725   8.457   1.473   6.763  2.2465  1.9906 -0.8895
  198MOL0     H26726   8.664   1.551   6.675  2.8677 -0.0330 -1.2530
  198MOL0     H26727   8.643   1.393   6.600  0.5081 -1.7954  1.2189
  198MOL0     H26728   8.995   1.332   6.814  0.9576  1.5533  0.7209
  198MOL0     H26729   8.113   1.353   6.508 -0.2723 -1.4533  0.3043
  198MOL0     H26730   7.876   1.299   6.484 -1.1836 -0.6109  0.0954
  199MOL0     O26731   5.086   7.879   4.857 -0.5652  0.3190 -0.5031
  199MOL0     C26732   5.025   7.833   4.761  0.4700 -0.5850 -0.1805
  199MOL0     O26733   4.900   7.884   4.720 -0.3809  0.2933  0.7196
  199MOL0     C26734   4.851   7.995   4.788  0.7943  0.3700 -0.1272
  199MOL0     C26735   4.918   8.118   4.808  0.9555 -0.3502 -0.7470
  199MOL0     C26736   4.857   8.239   4.867 -1.0211  0.2338 -0.1375
  199MOL0     C26737   4.724   8.225   4.909 -0.4776  0.2107 -0.6578
  199MOL0     O26738   4.660   8.327   4.971  0.5093 -0.6773 -0.4137
  199MOL0     C26739   4.716   8.457   4.999 -0.2692  0.2184 -1.1618
  199MOL0     C26740   4.631   8.531   5.102  0.2275 -0.8327 -0.3022
  199MOL0     C26741   4.485   8.531   5.053 -0.0169  0.2267 -0.3480
  199MOL0     C26742   4.399   8.645   5.093  0.4519 -0.0824 -0.5768
  199MOL0     C26743   4.345   8.619   5.237  1.1943 -0.4723  0.5095
  199MOL0     C26744   4.251   8.731   5.283 -0.5559  0.4212  0.6087
  199MOL0     C26745   4.202   8.696   5.426 -0.7220  0.8345 -0.6835
  199MOL0     C26746   4.116   8.800   5.492 -0.1715 -0.6926 -0.4565
  199MOL0     N26747   3.990   8.830   5.419  0.2940 -0.0901  0.2095
  199MOL0     C26748   3.868   8.776   5.427  0.5000  0.3905  0.2013
  199MOL0     C26749   3.788   8.870   5.364  0.1575 -0.5766  0.2139
  199MOL0     C26750   3.635   8.855   5.351  0.1553  0.4835  0.3266
  199MOL0     C26751   3.547   8.959   5.288  0.8502 -0.8098 -0.3559
  199MOL0     C26752   3.494   9.065   5.391  0.9622  0.3845  0.2638
  199MOL0     C26753   3.399   9.158   5.327  0.0964  0.2580  0.7806
  199MOL0     O26754   3.275   9.099   5.286  0.2270 -0.0703 -0.5103
  199MOL0     C26755   3.163   9.172   5.287  0.0797 -0.6461 -1.1289
  199MOL0     C26756   3.047   9.105   5.251 -0.3742  0.5957 -0.2813
  199MOL0     C26757   2.921   9.167   5.252  1.8687 -0.3365  1.1723
  199MOL0     C26758   2.804   9.077   5.218  0.4051 -0.3723 -0.4454
  199MOL0     C26759   2.907   9.301   5.292  0.4481 -0.0552  0.0695
  199MOL0     C26760   2.776   9.374   5.309  0.7099  0.5839 -0.1425
  199MOL0     O26761   2.665   9.308   5.348 -0.7857  0.4542  0.2257
  199MOL0     C26762   2.531   9.350   5.325 -0.6757 -0.0468 -0.0022
  199MOL0     C26763   2.427   9.298   5.390 -0.3797  0.8683  0.1575
  199MOL0     C26764   2.292   9.309   5.352  0.1867  0.5331  0.0246
  199MOL0     C26765   2.260   9.394   5.240  0.9404  0.1698 -1.0925
  199MOL0     O26766   2.122   9.401   5.229 -0.1753  0.1830  0.2714
  199MOL0     C26767   2.062   9.499   5.145  0.6918  0.2574 -0.3070
  199MOL0     C26768   1.913   9.463   5.123 -0.8885  0.1990  0.5879
  199MOL0     C26769   1.844   9.451   5.257  1.0728  0.3656  0.0006
  199MOL0     C26770   1.692   9.448   5.238  0.2643 -0.3911  0.9077
  199MOL0     C26771   1.611   9.386   5.356 -0.6232  0.6616  0.4872
  199MOL0     C26772   1.620   9.465   5.479  0.2908 -0.2184  0.0102
  199MOL0     C26773   1.534   9.598   5.470  0.8251 -0.3118  0.0593
  199MOL0     C26774   1.611   9.732   5.456  0.1137 -0.5578  0.1096
  199MOL0    Cl26775   1.732   9.745   5.577  0.2506  0.2775  0.0693
  199MOL0     C26776   2.360   9.453   5.174 -0.6679  0.5307 -1.0114
  199MOL0     C26777   2.497   9.427   5.210  0.3750 -0.8040  0.0661
  199MOL0     O26778   2.776   9.491   5.299 -0.0110 -0.3272 -0.3370
  199MOL0     C26779   3.026   9.381   5.321  0.7020 -0.5258 -0.3620
  199MOL0     C26780   3.155   9.309   5.319  0.1720  0.2227 -0.0386
  199MOL0     N26781   3.860   8.979   5.328 -0.0612  0.4761  0.0050
  199MOL0     N26782   3.981   8.955   5.366  0.0501 -0.1990 -0.1819
  199MOL0     C26783   4.652   8.106   4.888  0.5586 -0.2345 -0.3042
  199MOL0     C26784   4.709   7.999   4.818 -0.9516 -0.5355  0.4637
  199MOL0     C26785   5.098   7.739   4.667 -0.1471 -0.3250  0.7699
  199MOL0     C26786   5.036   7.667   4.567 -1.1931  0.3897  0.6341
  199MOL0     C26787   5.109   7.582   4.480 -0.2343 -0.0360 -0.2912
  199MOL0     C26788   5.243   7.567   4.492 -0.4718 -0.3023 -0.2041
  199MOL0     O26789   5.311   7.478   4.398 -0.1503  0.2536 -0.2984
  199MOL0     C26790   5.422   7.395   4.456  0.3698  0.6681 -0.2253
  199MOL0     C26791   5.422   7.265   4.376  0.1375 -1.0442 -0.2840
  199MOL0     C26792   5.532   7.168   4.431  0.1226 -0.7785  0.2675
  199MOL0     C26793   5.558   7.053   4.329  0.2649  0.0175 -0.9898
  199MOL0     C26794   5.446   6.955   4.338 -0.3295 -0.7269  0.0386
  199MOL0     C26795   5.350   6.881   4.348  0.2341 -0.1513  0.3166
  199MOL0     C26796   5.310   7.633   4.594 -0.0753  0.3862 -0.4518
  199MOL0     C26797   5.239   7.713   4.682  0.8817  0.1147 -0.6731
  199MOL0     H26798   5.013   8.134   4.757  2.3333 -2.1710  1.0980
  199MOL0     H26799   4.916   8.330   4.860 -0.3722 -0.2808 -2.4239
  199MOL0     H26800   4.813   8.427   5.038 -0.4366  0.6293 -0.4199
  199MOL0     H26801   4.720   8.517   4.908 -0.2452  0.9552 -0.6752
  199MOL0     H26802   4.640   8.484   5.200 -1.3551 -1.0862 -0.2410
  199MOL0     H26803   4.666   8.634   5.114 -0.1867 -0.7482  0.2071
  199MOL0     H26804   4.488   8.511   4.946 -0.3074  0.9791 -0.5061
  199MOL0     H26805   4.430   8.442   5.084  2.7218 -0.8914  1.7612
  199MOL0     H26806   4.450   8.742   5.088 -0.6089  0.5241 -0.0769
  199MOL0     H26807   4.311   8.653   5.029 -0.6143 -0.0051  0.8453
  199MOL0     H26808   4.294   8.522   5.244 -3.0521  1.4225 -0.9995
  199MOL0     H26809   4.431   8.621   5.306  0.7726 -0.0503  1.0279
  199MOL0     H26810   4.306   8.825   5.274 -1.0893  0.5928 -1.3237
  199MOL0     H26811   4.168   8.736   5.212 -1.4522  1.3400  1.6785
  199MOL0     H26812   4.138   8.607   5.431 -4.5270  3.3678 -0.1383
  199MOL0     H26813   4.285   8.683   5.496 -2.9328  1.7734  2.3296
  199MOL0     H26814   4.178   8.889   5.507  0.3052 -1.3817  2.2911
  199MOL0     H26815   4.098   8.763   5.594  2.0135  0.4939  0.4377
  199MOL0     H26816   3.851   8.688   5.488  1.9622 -0.0544  0.0174
  199MOL0     H26817   3.624   8.753   5.312 -1.4469 -0.2624  2.5507
  199MOL0     H26818   3.603   8.845   5.455  1.7316  0.8357  0.8845
  199MOL0     H26819   3.468   8.916   5.225  0.4458 -2.5375  1.2257
  199MOL0     H26820   3.598   9.025   5.218  0.6429 -0.2022  0.0576
  199MOL0     H26821   3.576   9.120   5.439 -0.0498  3.1009 -0.9452
  199MOL0     H26822   3.439   9.014   5.471  0.6938 -0.0576 -0.1950
  199MOL0     H26823   3.442   9.198   5.235 -1.2505 -2.1630 -1.0247
  199MOL0     H26824   3.390   9.244   5.395 -3.1244  0.6730 -0.0076
  199MOL0     H26825   3.078   9.004   5.224 -1.0399 -0.0529  1.2465
  199MOL0     H26826   2.840   8.977   5.191  2.4826  0.4529 -0.9278
  199MOL0     H26827   2.742   9.074   5.308 -0.0136 -1.6680 -0.7504
  199MOL0     H26828   2.734   9.116   5.144  1.8357 -2.2419 -2.9620
  199MOL0     H26829   2.447   9.222   5.466  0.9332  0.6224 -0.4134
  199MOL0     H26830   2.205   9.251   5.380 -0.3744  0.3690 -1.8828
  199MOL0     H26831   2.080   9.597   5.191 -0.4927 -1.2321  3.7748
  199MOL0     H26832   2.102   9.492   5.044 -1.0200 -0.5972 -0.9631
  199MOL0     H26833   1.854   9.529   5.058 -0.3356  0.0579 -0.0735
  199MOL0     H26834   1.905   9.364   5.076 -3.4181 -0.3894  2.0611
  199MOL0     H26835   1.850   9.549   5.304 -1.5562  1.3367 -1.4930
  199MOL0     H26836   1.877   9.362   5.312 -1.8589  0.1885  1.6702
  199MOL0     H26837   1.649   9.546   5.216  0.2678 -0.4198  0.7713
  199MOL0     H26838   1.671   9.390   5.147 -0.6737  4.3606 -2.3061
  199MOL0     H26839   1.658   9.293   5.390 -0.2541  1.8573  3.5497
  199MOL0     H26840   1.505   9.381   5.332 -0.3343  0.4192 -0.8012
  199MOL0     H26841   1.593   9.403   5.564  2.6331 -0.2090  0.8267
  199MOL0     H26842   1.725   9.486   5.502 -0.0652  1.9935 -0.1478
  199MOL0     H26843   1.474   9.601   5.561 -0.5616  1.1485 -0.8475
  199MOL0     H26844   1.461   9.592   5.388  0.7932 -1.2138  0.1360
  199MOL0     H26845   1.542   9.817   5.458  2.3689  1.3580  1.2556
  199MOL0     H26846   1.653   9.733   5.355 -0.0963 -0.6980  0.0194
  199MOL0     H26847   2.346   9.521   5.091  1.8539 -0.9794 -2.7834
  199MOL0     H26848   2.561   9.479   5.139 -0.6118  0.3814  0.0097
  199MOL0     H26849   3.026   9.487   5.344 -0.9953 -0.6210  0.2132
  199MOL0     H26850   3.229   9.386   5.337  0.8169 -0.0589 -1.3858
  199MOL0     H26851   4.555   8.097   4.935 -0.1277  2.2678 -1.0899
  199MOL0     H26852   4.654   7.906   4.824 -0.6941 -0.7275 -0.1122
  199MOL0     H26853   4.928   7.676   4.562 -1.2170  4.3122  3.6401
  199MOL0     H26854   5.065   7.523   4.400 -1.8874 -1.6818  1.7513
  199MOL0     H26855   5.513   7.455   4.460 -0.6081  2.2110 -0.3422
  199MOL0     H26856   5.410   7.369   4.562 -2.2483  0.3102 -0.5442
  199MOL0     H26857   5.444   7.291   4.272  0.3286 -2.1568 -0.5393
  199MOL0     H26858   5.319   7.228   4.377 -1.0839  2.0796  0.3483
  199MOL0     H26859   5.486   7.137   4.525 -1.4352 -0.4343 -0.3427
  199MOL0     H26860   5.628   7.220   4.441  1.8865 -3.3527 -1.7545
  199MOL0     H26861   5.643   7.004   4.377  0.5860  0.1213 -1.4506
  199MOL0     H26862   5.562   7.088   4.226 -0.2262  0.8243 -0.7471
  199MOL0     H26863   5.253   6.836   4.351  1.0067 -1.9016  0.1317
  199MOL0     H26864   5.417   7.617   4.605  0.6537  0.7845 -4.8649
  199MOL0     H26865   5.288   7.761   4.766  2.4305 -0.8661 -0.9886
  200MOL0     O26866   6.614   0.245   3.795  0.7123  0.0009  0.6827
  200MOL0     C26867   6.638   0.311   3.891 -0.0608 -0.8666  0.5630
  200MOL0     O26868   6.556   0.395   3.963 -0.8128  0.0690  0.0669
  200MOL0     C26869   6.421   0.389   3.928  0.1896 -0.6672 -0.2470
  200MOL0     C26870   6.334   0.346   4.027 -1.0583 -0.2514  0.0858
  200MOL0     C26871   6.195   0.362   4.021 -0.5333  0.1048  0.6318
  200MOL0     C26872   6.136   0.393   3.894  0.0727  0.0924  0.0432
  200MOL0     O26873   5.996   0.383   3.880  0.5365 -0.4196  0.1634
  200MOL0     C26874   5.963   0.320   3.754  0.1668 -0.0703 -0.4506
  200MOL0     C26875   5.822   0.282   3.746 -0.3164  0.4096 -0.4823
  200MOL0     C26876   5.721   0.393   3.721  0.3386  0.5934 -0.5170
  200MOL0     C26877   5.591   0.319   3.722  0.4133 -0.5681  0.1959
  200MOL0     C26878   5.463   0.402   3.750 -0.6768 -1.4425 -0.3785
  200MOL0     C26879   5.341   0.313   3.777  0.5684  0.1213 -0.7287
  200MOL0     C26880   5.305   0.314   3.926  0.5934 -0.4081  0.3584
  200MOL0     C26881   5.240   0.452   3.976 -0.2257 -0.2127  0.6143
  200MOL0     N26882   5.180   0.443   4.114 -0.6799  0.0859 -0.1001
  200MOL0     C26883   5.210   0.349   4.211 -0.0169 -0.3549  0.3150
  200MOL0     C26884   5.134   0.385   4.320  0.9132 -0.6182  0.3163
  200MOL0     C26885   5.124   0.315   4.457 -0.3078  0.0989 -0.0523
  200MOL0     C26886   4.985   0.254   4.484  0.6039  0.4143 -0.0966
  200MOL0     C26887   4.859   0.334   4.434  0.0695  1.1107 -0.3920
  200MOL0     C26888   4.737   0.252   4.435  0.5936  0.2484 -0.0638
  200MOL0     O26889   4.653   0.287   4.326 -0.2408  0.1096 -0.1903
  200MOL0     C26890   4.535   0.225   4.328 -0.7227 -0.0458 -0.2349
  200MOL0     C26891   4.423   0.301   4.362  0.5947 -0.0164 -0.1019
  200MOL0     C26892   4.296   0.239   4.379 -0.2534  0.4462  0.3692
  200MOL0     C26893   4.194   0.346   4.416 -0.1986 -0.0993  0.6230
  200MOL0     C26894   4.275   0.108   4.333 -0.4636 -0.3927 -0.2821
  200MOL0     C26895   4.139   0.045   4.317  0.3227  0.8751 -0.0366
  200MOL0     O26896   4.031   0.122   4.331 -1.0937  0.8589 -0.0168
  200MOL0     C26897   3.903   0.075   4.318  0.2027  0.3113  0.8579
  200MOL0     C26898   3.806   0.144   4.251  0.0882 -0.7337  1.2070
  200MOL0     C26899   3.673   0.100   4.251 -0.6497  0.0325  0.2266
  200MOL0     C26900   3.638  -0.017   4.312 -0.0559  0.4234  0.4115
  200MOL0     O26901   3.508  -0.058   4.317  0.0431 -0.8289  0.2806
  200MOL0     C26902   3.410   0.040   4.320  0.1808 -0.8728  0.7720
  200MOL0     C26903   3.286  -0.040   4.377  0.6151 -0.7748 -0.2073
  200MOL0     C26904   3.161   0.050   4.399 -0.7517 -0.1022  0.0750
  200MOL0     C26905   3.048   0.003   4.308 -0.2244  0.7459 -0.6262
  200MOL0     C26906   2.931   0.103   4.323 -1.3205  0.8378  0.0726
  200MOL0     C26907   2.804   0.084   4.244 -0.7727  0.0591 -0.7693
  200MOL0     C26908   2.700   0.192   4.294  0.1921  0.7952 -0.3345
  200MOL0     C26909   2.567   0.168   4.221 -0.2883  0.8258 -0.7366
  200MOL0    Cl26910   2.588   0.257   4.070  0.3707  0.1186 -0.2614
  200MOL0     C26911   3.728  -0.086   4.389 -0.0394  0.5476  0.5814
  200MOL0     C26912   3.861  -0.033   4.401 -0.5116  0.3533 -0.2747
  200MOL0     O26913   4.139  -0.073   4.289 -0.3309  0.7678  0.6083
  200MOL0     C26914   4.391   0.033   4.291  0.0130  0.6503  0.5714
  200MOL0     C26915   4.518   0.097   4.281  0.5477  0.1496  0.2269
  200MOL0     N26916   5.076   0.509   4.291 -0.3773 -0.1666 -0.7433
  200MOL0     N26917   5.106   0.542   4.172  0.6236  0.5122  0.1539
  200MOL0     C26918   6.224   0.422   3.796 -0.7398 -1.1263  0.7215
  200MOL0     C26919   6.362   0.435   3.808  0.3104  0.7027 -0.6221
  200MOL0     C26920   6.786   0.315   3.918 -0.0539 -0.2530 -1.0012
  200MOL0     C26921   6.870   0.225   3.866 -0.4078  0.3873  0.8272
  200MOL0     C26922   7.013   0.239   3.881 -0.4159  0.2430 -0.0361
  200MOL0     C26923   7.073   0.341   3.951 -0.0094  0.4716  0.9093
  200MOL0     O26924   7.207   0.371   3.962  0.0425 -0.7542  0.3101
  200MOL0     C26925   7.301   0.297   3.874  0.2437 -0.2256 -0.2905
  200MOL0     C26926   7.445   0.349   3.872 -0.7695 -0.2346 -0.0867
  200MOL0     C26927   7.528   0.269   3.972 -0.2093  0.1227 -0.4266
  200MOL0     C26928   7.662   0.334   4.001  0.9117  0.4903 -0.1439
  200MOL0     C26929   7.753   0.250   4.078 -0.2121 -0.8528 -0.3132
  200MOL0     C26930   7.833   0.177   4.134  0.3273 -0.0491  0.5947
  200MOL0     C26931   6.984   0.441   3.997  0.2734 -0.8220 -0.6639
  200MOL0     C26932   6.845   0.424   3.979 -0.3175  0.3028 -0.3703
  200MOL0     H26933   6.368   0.311   4.123  1.7935 -3.2535 -1.8059
  200MOL0     H26934   6.129   0.310   4.090  0.1591 -3.7660 -1.3327
  200MOL0     H26935   5.979   0.388   3.669  0.4851 -0.7631 -0.9509
  200MOL0     H26936   6.030   0.234   3.749  1.8902  0.5670  5.0585
  200MOL0     H26937   5.816   0.204   3.669 -2.2038  1.5929 -1.5939
  200MOL0     H26938   5.791   0.228   3.836 -2.0537  5.3926  2.2479
  200MOL0     H26939   5.724   0.463   3.805 -0.2348 -1.9671  1.8040
  200MOL0     H26940   5.741   0.436   3.622 -1.1168  1.8536 -0.3016
  200MOL0     H26941   5.581   0.273   3.623 -1.8653  0.0863  0.0661
  200MOL0     H26942   5.599   0.237   3.794  1.5528  0.6578  1.5201
  200MOL0     H26943   5.491   0.461   3.838  0.1723 -0.4463 -1.2987
  200MOL0     H26944   5.442   0.460   3.659 -0.7963  0.0461  0.5598
  200MOL0     H26945   5.259   0.350   3.715 -0.0524 -1.2828 -0.7833
  200MOL0     H26946   5.352   0.214   3.733  0.7240 -0.5418  0.7192
  200MOL0     H26947   5.233   0.238   3.956  0.0396 -0.4786 -1.0838
  200MOL0     H26948   5.390   0.282   3.988  2.3509 -0.8087 -2.0684
  200MOL0     H26949   5.164   0.470   3.900  1.4290  4.3183 -0.2516
  200MOL0     H26950   5.308   0.536   3.961 -0.9153  0.2520  0.0744
  200MOL0     H26951   5.263   0.257   4.192 -0.5330 -0.8761  1.3093
  200MOL0     H26952   5.210   0.248   4.464 -1.0087 -0.9548 -1.1186
  200MOL0     H26953   5.143   0.390   4.535  1.0815 -0.6690  0.3745
  200MOL0     H26954   4.986   0.248   4.594  0.7752  2.8483  0.0802
  200MOL0     H26955   4.975   0.159   4.430 -0.6087 -0.7494  1.9953
  200MOL0     H26956   4.861   0.367   4.330 -0.2341  0.4148 -0.6220
  200MOL0     H26957   4.842   0.427   4.489 -2.2663  0.1818  0.5849
  200MOL0     H26958   4.690   0.265   4.533  2.7624  4.3564  0.6936
  200MOL0     H26959   4.759   0.146   4.422  0.4512  0.1388  0.5723
  200MOL0     H26960   4.438   0.407   4.378 -4.4346  0.9951 -0.3440
  200MOL0     H26961   4.107   0.312   4.472  0.8659 -0.7928  1.9127
  200MOL0     H26962   4.237   0.421   4.483  0.8160 -0.0073 -0.1168
  200MOL0     H26963   4.164   0.399   4.325  0.2786  1.5315  1.3792
  200MOL0     H26964   3.839   0.236   4.204  1.4699 -1.8634 -0.1532
  200MOL0     H26965   3.604   0.161   4.193  0.4300 -0.5311 -1.7560
  200MOL0     H26966   3.414   0.129   4.383 -1.9550 -0.7473  0.8053
  200MOL0     H26967   3.394   0.075   4.217  0.5188  0.2096  1.0825
  200MOL0     H26968   3.272  -0.132   4.319  0.0952 -2.7472  2.8459
  200MOL0     H26969   3.326  -0.073   4.473  1.8350  0.9693 -0.0546
  200MOL0     H26970   3.176   0.156   4.378 -1.1462 -0.0605 -0.0018
  200MOL0     H26971   3.129   0.041   4.503 -1.4977  2.5034  0.1362
  200MOL0     H26972   3.093  -0.010   4.209  1.1058 -0.4734  0.1087
  200MOL0     H26973   3.019  -0.096   4.344  0.9827 -0.0242 -1.6850
  200MOL0     H26974   2.982   0.192   4.284  1.9369 -1.1407 -0.6319
  200MOL0     H26975   2.915   0.110   4.431 -2.7127 -1.0969  0.0404
  200MOL0     H26976   2.821   0.084   4.136 -2.5900  0.4717 -1.0852
  200MOL0     H26977   2.754  -0.009   4.273  0.0946  0.2739  1.6250
  200MOL0     H26978   2.729   0.296   4.275 -1.7610  1.5568  0.5470
  200MOL0     H26979   2.686   0.170   4.400  0.2828 -1.7649 -0.7961
  200MOL0     H26980   2.490   0.219   4.280 -2.6529 -0.7017 -2.3173
  200MOL0     H26981   2.543   0.063   4.205 -1.6930  1.1984 -1.2466
  200MOL0     H26982   3.696  -0.179   4.435 -0.4510 -0.3744 -1.4468
  200MOL0     H26983   3.933  -0.089   4.460 -0.7052 -1.2445 -1.4831
  200MOL0     H26984   4.373  -0.070   4.262 -1.3721  0.8131  0.7867
  200MOL0     H26985   4.606   0.038   4.254 -0.4216 -1.6628  0.8529
  200MOL0     H26986   6.187   0.452   3.699  0.5125  1.8862  1.0528
  200MOL0     H26987   6.429   0.481   3.737  3.5930 -0.8517  1.2647
  200MOL0     H26988   6.836   0.139   3.809 -1.3993  1.5131 -0.3491
  200MOL0     H26989   7.071   0.161   3.832 -0.3700  1.2752 -1.7042
  200MOL0     H26990   7.291   0.189   3.894 -3.6993  0.2856  1.4045
  200MOL0     H26991   7.252   0.321   3.780  0.1570 -3.5332 -1.2301
  200MOL0     H26992   7.438   0.457   3.887  0.1198 -0.1480 -0.2458
  200MOL0     H26993   7.492   0.338   3.774  1.8414 -0.8322  1.1540
  200MOL0     H26994   7.542   0.166   3.937  1.9667  0.7964 -1.7672
  200MOL0     H26995   7.476   0.265   4.069 -0.3769 -1.2217 -0.5581
  200MOL0     H26996   7.641   0.432   4.047 -3.4793 -0.7998  1.0938
  200MOL0     H26997   7.699   0.358   3.901  0.6548  0.2247 -0.3021
  200MOL0     H26998   7.897   0.111   4.188  0.4305 -1.0085 -0.6629
  200MOL0     H26999   7.010   0.525   4.061  0.9964 -0.2836 -1.6428
  200MOL0     H27000   6.777   0.502   4.013  0.5380  0.5513  0.8541
  201MOL0     O27001   9.849   0.569  11.171  0.1126  0.4166  0.2143
  201MOL0     C27002   9.883   0.691  11.200 -0.4353 -0.1132  0.5316
  201MOL0     O27003   9.803   0.791  11.263 -0.3191 -0.5167 -0.2119
  201MOL0     C27004   9.668   0.779  11.278  0.3430  0.3766 -0.7190
  201MOL0     C27005   9.589   0.896  11.262  0.7863 -0.8712  1.0276
  201MOL0     C27006   9.454   0.898  11.293 -0.2551 -0.1754 -0.2824
  201MOL0     C27007   9.395   0.779  11.340 -0.1456 -0.3802 -0.0076
  201MOL0     O27008   9.264   0.798  11.356  0.1127 -0.5226 -0.0165
  201MOL0     C27009   9.181   0.700  11.411  0.0261 -1.4040  0.1240
  201MOL0     C27010   9.052   0.763  11.435  0.8949 -0.9111 -0.6646
  201MOL0     C27011   8.941   0.672  11.492  0.5861  0.0146  0.1099
  201MOL0     C27012   8.911   0.526  11.423  0.3816  0.1807 -0.3121
  201MOL0     C27013   8.802   0.450  11.502  0.5423  1.2698  0.3425
  201MOL0     C27014   8.774   0.316  11.453  0.4027  0.7526  0.5052
  201MOL0     C27015   8.892   0.218  11.439  0.1186 -0.0640 -0.2486
  201MOL0     C27016   8.835   0.082  11.457  0.0206  0.5327 -0.6404
  201MOL0     N27017   8.933  -0.026  11.430  0.6000  0.1990 -0.2841
  201MOL0     C27018   9.035  -0.066  11.516  0.3152  0.5980  0.4781
  201MOL0     C27019   9.075  -0.179  11.446 -0.0327 -0.1848 -0.6937
  201MOL0     C27020   9.176  -0.267  11.491 -0.9212  0.0410  0.4181
  201MOL0     C27021   9.276  -0.216  11.596 -0.3014 -0.8772 -0.0173
  201MOL0     C27022   9.377  -0.318  11.655 -0.3497 -0.5072  0.5789
  201MOL0     C27023   9.518  -0.271  11.681 -0.4021  0.1519 -0.3621
  201MOL0     O27024   9.599  -0.388  11.696 -0.0050 -0.4751  0.1152
  201MOL0     C27025   9.734  -0.360  11.717  0.1061 -0.3541 -1.2297
  201MOL0     C27026   9.814  -0.458  11.770  0.0512 -0.3792  0.5292
  201MOL0     C27027   9.949  -0.435  11.794  0.0220  0.0642  0.6750
  201MOL0     C27028  10.029  -0.550  11.851 -0.3221 -0.6223 -0.9971
  201MOL0     C27029  10.013  -0.317  11.756  0.4243 -0.7392 -0.8154
  201MOL0     C27030  10.157  -0.306  11.766  0.2802 -1.3822  0.0349
  201MOL0     O27031  10.223  -0.390  11.685  0.6247 -0.4095  0.0191
  201MOL0     C27032  10.358  -0.371  11.667  0.0884 -0.2218 -0.5191
  201MOL0     C27033  10.416  -0.265  11.594  1.0792 -0.0673 -0.1924
  201MOL0     C27034  10.561  -0.251  11.580  0.4186  0.1707 -0.3510
  201MOL0     C27035  10.642  -0.351  11.640  0.3101  0.0935 -0.8316
  201MOL0     O27036  10.779  -0.339  11.642 -0.1568  0.0539  0.3130
  201MOL0     C27037  10.834  -0.439  11.558 -0.0489 -0.2370  0.1363
  201MOL0     C27038  10.976  -0.461  11.599  0.0459 -0.7850 -0.0887
  201MOL0     C27039  11.058  -0.524  11.485 -0.0937 -0.2869 -0.6203
  201MOL0     C27040  11.193  -0.571  11.536 -0.5606  0.2587 -0.4000
  201MOL0     C27041  11.248  -0.670  11.428  0.3099 -0.1875  0.6631
  201MOL0     C27042  11.397  -0.707  11.455 -0.1469 -0.7602  0.3844
  201MOL0     C27043  11.446  -0.800  11.332  0.1804 -0.1205 -0.5829
  201MOL0     C27044  11.596  -0.846  11.349 -0.6709  0.1360 -0.4263
  201MOL0    Cl27045  11.721  -0.722  11.366  0.3016  0.5570  0.2097
  201MOL0     C27046  10.583  -0.453  11.713  0.7490  0.3576 -0.2816
  201MOL0     C27047  10.436  -0.460  11.729 -0.5644  0.2803 -0.3781
  201MOL0     O27048  10.208  -0.211  11.831 -0.3218  0.3520  0.4768
  201MOL0     C27049   9.930  -0.219  11.702  0.9009  0.0420  0.3796
  201MOL0     C27050   9.790  -0.240  11.681 -0.6057 -0.5909  0.1647
  201MOL0     N27051   9.008  -0.195  11.326 -0.0912  0.1460  0.5656
  201MOL0     N27052   8.927  -0.095  11.308  0.2579  0.1339 -0.4575
  201MOL0     C27053   9.473   0.659  11.361  0.4718  0.2964 -0.3103
  201MOL0     C27054   9.610   0.658  11.331  0.0425  0.7905  1.3363
  201MOL0     C27055  10.025   0.733  11.163 -0.3638  0.6115 -0.4007
  201MOL0     C27056  10.114   0.644  11.105  0.5687  0.7512 -0.1141
  201MOL0     C27057  10.245   0.687  11.072  0.6263 -0.1128 -1.0554
  201MOL0     C27058  10.281   0.816  11.090  0.0447 -1.1494  0.4221
  201MOL0     O27059  10.401   0.869  11.043 -0.2788  0.3873  0.1673
  201MOL0     C27060  10.508   0.774  11.009  0.6725 -0.2153  0.0292
  201MOL0     C27061  10.629   0.860  10.966 -0.2170 -0.4226  0.1029
  201MOL0     C27062  10.669   0.948  11.082 -0.0710  0.4041  0.3607
  201MOL0     C27063  10.816   0.948  11.106 -0.2807 -0.5909 -0.1893
  201MOL0     C27064  10.844   1.030  11.225  0.3352 -0.5060 -0.8335
  201MOL0     C27065  10.867   1.093  11.329  0.6778  0.1267  0.2698
  201MOL0     C27066  10.188   0.909  11.141  0.9437 -0.5814  0.0803
  201MOL0     C27067  10.065   0.867  11.187  0.0181  0.0243 -0.6441
  201MOL0     H27068   9.631   0.987  11.222 -1.2671 -0.3642 -0.1371
  201MOL0     H27069   9.394   0.989  11.292 -0.4597 -0.2287  2.0230
  201MOL0     H27070   9.174   0.609  11.350 -1.5780 -2.3025  1.5653
  201MOL0     H27071   9.224   0.661  11.504 -3.1186 -1.9016  1.5097
  201MOL0     H27072   9.082   0.831  11.515  0.4750 -0.6018 -0.7669
  201MOL0     H27073   9.016   0.818  11.347 -0.3192  0.2637  0.5198
  201MOL0     H27074   8.981   0.642  11.589  2.1060 -0.1293 -0.5302
  201MOL0     H27075   8.845   0.725  11.498 -0.8512 -2.4854  0.7183
  201MOL0     H27076   8.884   0.546  11.319  0.9416  5.4620  0.2696
  201MOL0     H27077   9.007   0.475  11.434 -0.8876 -1.7907  3.2349
  201MOL0     H27078   8.840   0.445  11.605 -0.0135  0.0651  0.5123
  201MOL0     H27079   8.709   0.505  11.491  0.3726  0.5657 -2.5807
  201MOL0     H27080   8.695   0.269  11.513 -1.1862 -1.7831 -3.1984
  201MOL0     H27081   8.739   0.334  11.351  1.8364  0.1696 -0.1127
  201MOL0     H27082   8.921   0.226  11.333  2.2350  2.3883  0.4124
  201MOL0     H27083   8.973   0.228  11.512  1.0080  0.9844 -1.3367
  201MOL0     H27084   8.739   0.082  11.404 -0.6385 -1.6462  0.4532
  201MOL0     H27085   8.817   0.068  11.564  1.8722 -4.5289 -0.7313
  201MOL0     H27086   9.074  -0.033  11.611  0.5975 -2.9076  1.7334
  201MOL0     H27087   9.120  -0.350  11.535  1.8144 -2.7922 -0.9953
  201MOL0     H27088   9.227  -0.308  11.402 -2.8433 -1.7562  0.0570
  201MOL0     H27089   9.209  -0.182  11.675 -1.5420 -0.9291 -1.0155
  201MOL0     H27090   9.337  -0.130  11.570  0.5571 -1.2874  0.5967
  201MOL0     H27091   9.382  -0.396  11.579 -2.3991 -1.6430  1.5074
  201MOL0     H27092   9.344  -0.375  11.743  2.4919  0.4024  2.3860
  201MOL0     H27093   9.519  -0.211  11.773 -1.4335  0.7458 -0.7204
  201MOL0     H27094   9.546  -0.208  11.596 -0.4652 -0.2703 -0.6959
  201MOL0     H27095   9.770  -0.554  11.796 -0.1690 -0.4769 -0.1601
  201MOL0     H27096   9.964  -0.636  11.867 -0.4429 -0.4246 -0.3976
  201MOL0     H27097  10.118  -0.574  11.792 -0.5272 -0.3419 -1.4232
  201MOL0     H27098  10.055  -0.518  11.953 -3.7242  0.0737 -0.2245
  201MOL0     H27099  10.342  -0.198  11.553 -0.4234 -1.3436  0.3064
  201MOL0     H27100  10.599  -0.164  11.529  2.0950 -0.4079 -0.1439
  201MOL0     H27101  10.787  -0.537  11.562 -0.1572 -0.3525 -2.5011
  201MOL0     H27102  10.824  -0.408  11.454  1.1360  0.3228  0.1632
  201MOL0     H27103  11.027  -0.370  11.633 -3.5332  0.0279  4.1026
  201MOL0     H27104  10.962  -0.521  11.690  0.4319 -3.4415 -1.6728
  201MOL0     H27105  11.076  -0.456  11.401 -0.9145 -0.8515 -1.2727
  201MOL0     H27106  10.992  -0.606  11.454 -1.3009  0.3827  0.0924
  201MOL0     H27107  11.259  -0.485  11.547  1.0596 -1.0164  0.1811
  201MOL0     H27108  11.175  -0.614  11.635  0.6677 -0.5530 -0.5036
  201MOL0     H27109  11.240  -0.617  11.333  0.4308 -0.0137  0.7508
  201MOL0     H27110  11.188  -0.762  11.419  0.3179 -0.2773  1.4491
  201MOL0     H27111  11.456  -0.615  11.456 -1.9461  0.4580 -0.0449
  201MOL0     H27112  11.422  -0.765  11.545 -0.6508 -2.4012 -0.4777
  201MOL0     H27113  11.438  -0.734  11.246  2.5625 -1.2591 -1.7734
  201MOL0     H27114  11.369  -0.876  11.317 -1.6996  1.1235  2.0597
  201MOL0     H27115  11.625  -0.908  11.265 -3.3292  0.8360 -1.9903
  201MOL0     H27116  11.600  -0.923  11.427  1.0643  0.2883 -0.3327
  201MOL0     H27117  10.651  -0.524  11.758 -0.2442 -0.9985 -0.8543
  201MOL0     H27118  10.392  -0.536  11.794  2.0661 -0.1119  1.0702
  201MOL0     H27119   9.975  -0.124  11.674 -1.8773  0.6994 -2.3080
  201MOL0     H27120   9.748  -0.164  11.617  3.2981  1.5063 -0.1814
  201MOL0     H27121   9.432   0.563  11.393  2.0313 -1.0538 -2.0937
  201MOL0     H27122   9.664   0.565  11.343  0.2548  0.7480  0.1770
  201MOL0     H27123  10.101   0.538  11.088 -0.2900  0.9188 -0.5771
  201MOL0     H27124  10.315   0.619  11.024  0.7712 -0.8086  0.0966
  201MOL0     H27125  10.540   0.711  11.093 -1.0360 -0.1696  0.7520
  201MOL0     H27126  10.484   0.708  10.926  1.2823 -0.0330 -0.3013
  201MOL0     H27127  10.604   0.925  10.882  0.6060 -0.8014 -0.4474
  201MOL0     H27128  10.705   0.789  10.933 -0.8444 -0.3286 -1.6325
  201MOL0     H27129  10.613   0.908  11.166  0.9177 -2.1471 -0.1128
  201MOL0     H27130  10.627   1.047  11.058 -1.7923 -0.8086 -2.1107
  201MOL0     H27131  10.862   1.003  11.022 -2.0163  2.0166  0.4353
  201MOL0     H27132  10.867   0.852  11.116 -1.1273 -0.9352  0.9465
  201MOL0     H27133  10.897   1.146  11.418 -0.8522  0.5843  0.5431
  201MOL0     H27134  10.232   1.007  11.160  1.9590 -0.7540 -1.2253
  201MOL0     H27135   9.990   0.932  11.230 -1.6664 -1.2762 -1.4739
  202MOL0     O27136   4.595   8.430   4.241  0.1222  0.1054 -0.3016
  202MOL0     C27137   4.616   8.380   4.135  0.6281 -0.6917 -0.2480
  202MOL0     O27138   4.527   8.352   4.048  0.8882 -0.0850 -0.0770
  202MOL0     C27139   4.390   8.355   4.065 -0.3011  0.3466 -0.0566
  202MOL0     C27140   4.311   8.307   3.959 -0.6271 -0.2662 -0.2965
  202MOL0     C27141   4.171   8.300   3.971  0.4190 -0.1617  0.0195
  202MOL0     C27142   4.108   8.368   4.078 -0.5048 -0.0270  0.1732
  202MOL0     O27143   3.979   8.401   4.085 -0.1060 -0.3951 -0.4481
  202MOL0     C27144   3.900   8.389   3.970  0.2243  0.7812  0.5843
  202MOL0     C27145   3.753   8.425   3.993  0.9612 -0.4244  0.2239
  202MOL0     C27146   3.665   8.401   3.875 -0.7499  0.2186 -0.0145
  202MOL0     C27147   3.526   8.464   3.891 -0.7731  0.2997 -0.2167
  202MOL0     C27148   3.436   8.387   3.795  0.1109 -0.2106 -0.5589
  202MOL0     C27149   3.298   8.456   3.755 -0.6138 -0.8274  0.4249
  202MOL0     C27150   3.208   8.478   3.876  0.0385 -0.9525 -0.3820
  202MOL0     C27151   3.060   8.502   3.834 -0.7891 -0.2077 -0.7253
  202MOL0     N27152   2.960   8.508   3.940 -0.2938  0.2102  0.2971
  202MOL0     C27153   2.982   8.590   4.046  0.2643 -0.2400 -0.5952
  202MOL0     C27154   2.884   8.561   4.132 -0.6760  0.1395 -0.6794
  202MOL0     C27155   2.848   8.627   4.264  0.3996  0.7544  0.1735
  202MOL0     C27156   2.705   8.600   4.317  0.5654 -0.0082 -0.7558
  202MOL0     C27157   2.604   8.684   4.226  0.0435  0.0660 -0.5879
  202MOL0     C27158   2.459   8.661   4.262 -0.4688  0.5077 -0.1036
  202MOL0     O27159   2.386   8.749   4.186 -0.1096 -0.0576  0.0245
  202MOL0     C27160   2.251   8.736   4.175 -0.2192 -0.1976  0.5110
  202MOL0     C27161   2.190   8.818   4.080  1.0990 -0.2266  0.3377
  202MOL0     C27162   2.052   8.816   4.053  0.2858  0.4341  0.4401
  202MOL0     C27163   2.006   8.912   3.941  0.5750  0.1453  0.8950
  202MOL0     C27164   1.965   8.739   4.139  0.1197  0.1506  0.1977
  202MOL0     C27165   1.824   8.711   4.113  0.2792 -0.1183  0.0361
  202MOL0     O27166   1.755   8.774   4.016 -0.0723  0.7030  0.0440
  202MOL0     C27167   1.622   8.791   4.016 -0.1883  0.0879 -0.4211
  202MOL0     C27168   1.537   8.732   3.923  0.2936 -0.5312 -0.0853
  202MOL0     C27169   1.399   8.761   3.921 -0.1841 -0.0652 -0.3189
  202MOL0     C27170   1.344   8.824   4.026  0.2736  0.0093  0.0837
  202MOL0     O27171   1.208   8.853   4.016 -0.3283 -0.6002  0.0345
  202MOL0     C27172   1.124   8.909   4.122 -1.2021 -0.8839  0.0589
  202MOL0     C27173   1.116   8.811   4.237 -0.5229 -0.1671  0.1885
  202MOL0     C27174   0.977   8.788   4.285 -0.1316  0.2506  0.3775
  202MOL0     C27175   0.935   8.910   4.365 -0.4318 -1.7895 -0.0501
  202MOL0     C27176   0.780   8.931   4.374 -0.3712 -0.5503  1.0425
  202MOL0     C27177   0.730   9.040   4.463 -0.6733 -0.1781  0.4589
  202MOL0     C27178   0.575   9.061   4.443 -0.2340 -0.2275 -0.0704
  202MOL0     C27179   0.488   8.966   4.525 -0.3612 -0.2257  0.0507
  202MOL0    Cl27180   0.518   8.991   4.708  0.5043 -0.4209  0.2419
  202MOL0     C27181   1.429   8.883   4.121 -0.0673 -0.6097 -1.1426
  202MOL0     C27182   1.567   8.868   4.119 -0.2816  0.6656  1.0862
  202MOL0     O27183   1.769   8.633   4.191  0.0321 -0.5655 -0.0552
  202MOL0     C27184   2.035   8.656   4.227  0.7026 -0.1377 -0.3745
  202MOL0     C27185   2.168   8.661   4.252 -0.4837 -0.2982  0.4539
  202MOL0     N27186   2.815   8.453   4.088 -0.0352 -0.0163  0.1533
  202MOL0     N27187   2.864   8.410   3.971  0.1952 -0.3494 -0.4182
  202MOL0     C27188   4.190   8.417   4.180  0.6952  0.1468  1.3602
  202MOL0     C27189   4.325   8.404   4.180 -0.3463 -0.2210  0.7178
  202MOL0     C27190   4.755   8.349   4.093 -0.0871  0.6010 -0.3632
  202MOL0     C27191   4.861   8.433   4.137  0.3051 -0.2057 -0.1705
  202MOL0     C27192   4.993   8.406   4.095  0.2267 -0.5568 -0.0518
  202MOL0     C27193   5.015   8.306   4.006  0.7278 -0.5219  0.1073
  202MOL0     O27194   5.148   8.295   3.971  0.9519  0.3954 -0.4053
  202MOL0     C27195   5.200   8.173   3.910  0.3518 -0.1109 -0.1187
  202MOL0     C27196   5.350   8.172   3.903 -0.0319 -0.0218 -0.0490
  202MOL0     C27197   5.402   8.033   3.882 -0.5612  0.3930 -0.0082
  202MOL0     C27198   5.551   8.036   3.867  0.7779 -0.3401  0.7392
  202MOL0     C27199   5.607   7.902   3.850  1.0850  0.3290  0.4682
  202MOL0     C27200   5.659   7.791   3.859 -0.0503  0.3986  0.4948
  202MOL0     C27201   4.909   8.229   3.958  0.0770 -0.2717  0.0639
  202MOL0     C27202   4.783   8.249   4.002  0.4038 -0.3956  0.0224
  202MOL0     H27203   4.360   8.275   3.867  3.3310 -0.4227  1.6708
  202MOL0     H27204   4.113   8.277   3.882 -0.4775 -0.2800  0.6201
  202MOL0     H27205   3.941   8.447   3.887  0.0739  0.9208  0.6075
  202MOL0     H27206   3.895   8.283   3.946 -2.3390  0.7780  0.9056
  202MOL0     H27207   3.731   8.368   4.084  2.7693 -0.5994  0.5797
  202MOL0     H27208   3.744   8.533   4.009  0.4241 -0.1157 -1.8580
  202MOL0     H27209   3.707   8.455   3.789  0.1727  0.9039  0.8483
  202MOL0     H27210   3.656   8.298   3.837 -1.5826 -0.4009  1.7832
  202MOL0     H27211   3.483   8.455   3.991 -0.8765  0.2548 -0.2652
  202MOL0     H27212   3.553   8.569   3.876 -0.7704  0.1097 -1.7904
  202MOL0     H27213   3.488   8.361   3.702  0.6508 -0.8374 -0.0938
  202MOL0     H27214   3.418   8.294   3.850 -0.7947  1.4259  2.0793
  202MOL0     H27215   3.329   8.555   3.721  1.9785 -1.6331  0.2251
  202MOL0     H27216   3.247   8.401   3.676  1.6575 -1.3911 -0.7323
  202MOL0     H27217   3.211   8.382   3.929  2.8607 -0.2622  0.8668
  202MOL0     H27218   3.242   8.556   3.944  2.4134  0.8799 -3.4183
  202MOL0     H27219   3.026   8.419   3.771 -0.0914 -2.2765  1.5077
  202MOL0     H27220   3.057   8.594   3.774 -0.8085 -0.2769 -0.8317
  202MOL0     H27221   3.071   8.653   4.057  0.1745 -0.0118 -1.1590
  202MOL0     H27222   2.914   8.592   4.344  0.4054 -0.3816 -0.3101
  202MOL0     H27223   2.859   8.734   4.247  0.0230  0.7999  0.2036
  202MOL0     H27224   2.706   8.630   4.422  1.8541 -2.3725 -0.0225
  202MOL0     H27225   2.683   8.493   4.305 -1.9156  0.2379  0.8629
  202MOL0     H27226   2.621   8.674   4.119 -3.1075  0.3226 -1.2264
  202MOL0     H27227   2.619   8.788   4.257 -2.8816  0.8346 -1.4602
  202MOL0     H27228   2.438   8.671   4.369  0.4824 -0.6594  0.2102
  202MOL0     H27229   2.424   8.560   4.240 -0.8947 -0.4015  3.9989
  202MOL0     H27230   2.247   8.886   4.018 -1.8312  0.7208 -1.5483
  202MOL0     H27231   2.080   8.945   3.868 -0.7947  2.4327  0.4330
  202MOL0     H27232   1.925   8.859   3.889  1.2469  0.5562 -0.6177
  202MOL0     H27233   1.961   9.002   3.985  0.1782 -0.4447  1.7372
  202MOL0     H27234   1.591   8.674   3.850 -0.0170 -0.9417  0.0084
  202MOL0     H27235   1.338   8.702   3.854  0.1312 -4.4331  2.8030
  202MOL0     H27236   1.161   9.005   4.160 -0.1591  0.0416 -2.9786
  202MOL0     H27237   1.026   8.927   4.078 -0.3575 -0.7490 -1.8723
  202MOL0     H27238   1.155   8.714   4.205 -1.7439 -0.6328  0.0634
  202MOL0     H27239   1.170   8.847   4.325 -0.1531  0.3794 -0.2551
  202MOL0     H27240   0.966   8.691   4.334 -1.0678 -0.6838 -1.5359
  202MOL0     H27241   0.910   8.777   4.199 -0.5968 -0.0696  0.7727
  202MOL0     H27242   0.976   8.910   4.466 -0.1442  0.4153 -0.1151
  202MOL0     H27243   0.971   9.004   4.322  0.6337 -2.0169  0.3248
  202MOL0     H27244   0.751   8.840   4.428  2.3426 -2.2608 -0.2091
  202MOL0     H27245   0.735   8.935   4.274  0.2218 -2.7522  0.6494
  202MOL0     H27246   0.745   9.031   4.571  0.3831 -0.9173  0.2612
  202MOL0     H27247   0.777   9.131   4.426  0.6625 -0.6736  0.8833
  202MOL0     H27248   0.554   9.037   4.339 -2.5642 -0.4296  0.3838
  202MOL0     H27249   0.540   9.164   4.452  0.7943  0.2375 -1.1926
  202MOL0     H27250   0.508   8.862   4.499 -4.3140 -2.8467  5.4067
  202MOL0     H27251   0.381   8.980   4.508 -0.2225 -0.8970 -1.5389
  202MOL0     H27252   1.379   8.948   4.191 -2.0969 -0.4236 -2.6648
  202MOL0     H27253   1.627   8.924   4.190  0.4668  1.3887 -0.0847
  202MOL0     H27254   1.978   8.587   4.287 -2.0758  1.5122 -0.9600
  202MOL0     H27255   2.207   8.602   4.335  1.5707  2.3884  1.5572
  202MOL0     H27256   4.145   8.464   4.267  1.1589  0.5670  1.3749
  202MOL0     H27257   4.376   8.429   4.272 -3.3435  1.1165  2.1420
  202MOL0     H27258   4.845   8.510   4.212  0.9874  1.4846 -1.6643
  202MOL0     H27259   5.078   8.460   4.135  0.6104 -0.4356 -1.0230
  202MOL0     H27260   5.175   8.082   3.965  0.5721 -0.2433 -0.2354
  202MOL0     H27261   5.155   8.166   3.811 -1.1989  0.9880  0.4748
  202MOL0     H27262   5.390   8.210   3.998 -1.3734 -0.4565  0.7159
  202MOL0     H27263   5.383   8.237   3.822  2.4252 -1.3663 -0.2222
  202MOL0     H27264   5.360   7.986   3.793  0.6924 -1.0873  0.1413
  202MOL0     H27265   5.367   7.971   3.965 -3.2515  1.7706 -0.0147
  202MOL0     H27266   5.602   8.078   3.954  0.0946 -0.7464  1.3425
  202MOL0     H27267   5.570   8.086   3.771 -0.4278  2.2933  1.8002
  202MOL0     H27268   5.718   7.702   3.855  0.5497  0.8323 -1.6499
  202MOL0     H27269   4.928   8.144   3.893 -0.0755 -2.2705  2.5038
  202MOL0     H27270   4.702   8.179   3.978  0.5894 -0.8942  0.8087
  203MOL0     O27271   5.076  11.106   7.937  0.0275  0.8487  0.3906
  203MOL0     C27272   5.072  11.040   8.037  0.0079 -0.2945 -0.6319
  203MOL0     O27273   4.957  11.019   8.111  0.5621 -0.3116 -0.4293
  203MOL0     C27274   4.831  11.047   8.059  0.3427 -0.8617 -1.2982
  203MOL0     C27275   4.800  11.018   7.916 -0.5563 -0.2183 -0.9283
  203MOL0     C27276   4.668  11.032   7.878  0.5524  0.4557 -0.5745
  203MOL0     C27277   4.570  11.090   7.956  0.0831 -0.6626  0.4813
  203MOL0     O27278   4.439  11.120   7.917  0.1625  0.0852  0.4192
  203MOL0     C27279   4.394  11.113   7.777  0.3074 -0.8668  0.4695
  203MOL0     C27280   4.270  11.208   7.757  0.0204  0.6008 -0.2939
  203MOL0     C27281   4.146  11.150   7.827 -1.0421 -0.2870  0.1272
  203MOL0     C27282   4.021  11.243   7.810  0.2168  0.7567 -0.6325
  203MOL0     C27283   3.905  11.153   7.883  0.9510 -0.2625  0.2679
  203MOL0     C27284   3.776  11.230   7.851  0.6732 -0.4081 -0.2622
  203MOL0     C27285   3.651  11.160   7.904  0.7444  0.0016 -0.0979
  203MOL0     C27286   3.626  11.155   8.056 -0.3052 -0.0320  0.8654
  203MOL0     N27287   3.497  11.074   8.079  0.5140 -0.2294  0.6435
  203MOL0     C27288   3.492  10.957   8.146 -0.7068  0.2535  0.4217
  203MOL0     C27289   3.362  10.957   8.183 -0.1026  0.9066  0.8405
  203MOL0     C27290   3.289  10.842   8.249  0.4546  0.4545 -0.5507
  203MOL0     C27291   3.315  10.840   8.401  0.3301 -0.1911 -0.3472
  203MOL0     C27292   3.253  10.961   8.477 -0.6868 -0.0174  0.1845
  203MOL0     C27293   3.099  10.942   8.470  0.2234 -0.4703  0.4932
  203MOL0     O27294   3.020  11.024   8.566 -1.0020  0.8886  0.1958
  203MOL0     C27295   2.884  11.032   8.540  0.5637  0.3696  0.1862
  203MOL0     C27296   2.802  11.021   8.657  0.0590  0.1050  0.4232
  203MOL0     C27297   2.667  11.048   8.653 -1.1677  0.6135 -0.3661
  203MOL0     C27298   2.588  11.027   8.774  1.0020 -0.4638  0.2876
  203MOL0     C27299   2.612  11.083   8.522 -0.2500  0.0111 -0.2483
  203MOL0     C27300   2.460  11.105   8.508  0.4749 -0.1681  0.8090
  203MOL0     O27301   2.368  11.066   8.594 -0.2677  0.8985 -0.4554
  203MOL0     C27302   2.236  11.077   8.557 -0.0011 -0.2730 -0.4338
  203MOL0     C27303   2.180  11.200   8.554  0.0462  0.3076 -0.2797
  203MOL0     C27304   2.044  11.216   8.514 -0.0628  0.2804  0.4984
  203MOL0     C27305   1.965  11.108   8.491  0.0911  0.2275  0.1280
  203MOL0     O27306   1.838  11.119   8.445 -0.5222 -0.0080 -0.1715
  203MOL0     C27307   1.768  11.249   8.447  1.2518  0.0073 -0.4703
  203MOL0     C27308   1.625  11.216   8.382 -0.3361 -0.8445 -0.6689
  203MOL0     C27309   1.544  11.338   8.367  0.0574 -0.4916  0.2614
  203MOL0     C27310   1.407  11.298   8.310 -0.9111  0.6550 -0.2737
  203MOL0     C27311   1.314  11.413   8.293 -0.0057 -0.7852 -0.5288
  203MOL0     C27312   1.176  11.372   8.268  0.3995 -0.1573  0.7139
  203MOL0     C27313   1.104  11.460   8.166 -0.7545 -0.6159  0.0324
  203MOL0     C27314   0.956  11.438   8.186 -0.6427 -1.2367  0.2081
  203MOL0    Cl27315   0.885  11.281   8.154 -0.2341 -0.2038 -0.0867
  203MOL0     C27316   2.028  10.983   8.487  0.3499  0.3681  0.6444
  203MOL0     C27317   2.161  10.965   8.524 -1.1087 -0.9714  0.0614
  203MOL0     O27318   2.431  11.166   8.406  0.3078 -0.0156  0.1057
  203MOL0     C27319   2.695  11.092   8.408  0.4370 -0.2998  0.7276
  203MOL0     C27320   2.821  11.063   8.418 -0.3176  0.1714  0.1020
  203MOL0     N27321   3.285  11.061   8.134 -0.8787 -0.5036  0.2334
  203MOL0     N27322   3.378  11.138   8.081  0.3285  0.0890  0.0703
  203MOL0     C27323   4.599  11.101   8.090  0.4343 -0.4129  0.0938
  203MOL0     C27324   4.725  11.087   8.148  0.1902 -0.7105  0.2010
  203MOL0     C27325   5.185  10.956   8.070 -0.4363 -0.1293 -0.0909
  203MOL0     C27326   5.311  10.974   8.006 -0.0940  0.0322 -0.7148
  203MOL0     C27327   5.426  10.897   8.042  0.5859  0.3940  0.4653
  203MOL0     C27328   5.423  10.797   8.139  0.4700  0.5264  0.3135
  203MOL0     O27329   5.531  10.737   8.194  0.5864  0.3639  0.6074
  203MOL0     C27330   5.661  10.748   8.132  0.7700  0.3503  0.9732
  203MOL0     C27331   5.758  10.651   8.200 -0.5603  0.4688  0.2869
  203MOL0     C27332   5.764  10.674   8.354  0.5213  0.6876 -0.4107
  203MOL0     C27333   5.868  10.589   8.418 -0.2243  0.5896 -0.0692
  203MOL0     C27334   5.822  10.458   8.438  0.4648  0.4551  0.5692
  203MOL0     C27335   5.773  10.350   8.446  0.7965  0.7245 -0.3134
  203MOL0     C27336   5.299  10.774   8.197 -0.1558 -0.5564  0.6992
  203MOL0     C27337   5.194  10.865   8.173 -0.4244  0.4260 -0.4698
  203MOL0     H27338   4.876  10.983   7.848  0.4360  0.0099  0.0276
  203MOL0     H27339   4.653  10.998   7.776  1.2719 -0.9445 -0.2388
  203MOL0     H27340   4.471  11.148   7.707  0.2254 -1.1135  0.2577
  203MOL0     H27341   4.370  11.011   7.745  2.7232 -0.9162 -1.5282
  203MOL0     H27342   4.293  11.304   7.804 -0.9269  1.1585 -0.9343
  203MOL0     H27343   4.245  11.223   7.651  0.0437  1.5403 -0.1678
  203MOL0     H27344   4.120  11.049   7.792 -0.6923 -0.9568  1.7244
  203MOL0     H27345   4.168  11.132   7.932  1.2000 -0.9441 -0.3937
  203MOL0     H27346   4.040  11.340   7.856  0.0102 -0.0277  1.2111
  203MOL0     H27347   3.994  11.258   7.705 -1.9317  1.9915  0.0481
  203MOL0     H27348   3.904  11.048   7.854 -0.8012 -0.9234  2.4316
  203MOL0     H27349   3.909  11.151   7.993 -0.7471 -1.9989  0.3422
  203MOL0     H27350   3.782  11.329   7.897  0.0083 -1.1484  1.4907
  203MOL0     H27351   3.776  11.231   7.741  3.6498 -3.8112 -0.4721
  203MOL0     H27352   3.571  11.224   7.868 -0.9792 -1.0606  1.6560
  203MOL0     H27353   3.639  11.063   7.856 -2.1486 -0.8382  2.0304
  203MOL0     H27354   3.598  11.257   8.082 -0.8263  0.1331 -0.2570
  203MOL0     H27355   3.704  11.113   8.120  0.1957 -0.1085  0.2152
  203MOL0     H27356   3.568  10.883   8.164  0.8667  1.8061  0.3794
  203MOL0     H27357   3.185  10.868   8.227  0.6487  3.0354  1.0358
  203MOL0     H27358   3.314  10.743   8.213 -1.9832  0.0852 -1.4526
  203MOL0     H27359   3.422  10.857   8.415  0.2663  2.3698 -2.2328
  203MOL0     H27360   3.285  10.745   8.446 -1.3367  0.3136 -0.3475
  203MOL0     H27361   3.285  11.054   8.429  0.0787 -0.5809 -0.4140
  203MOL0     H27362   3.287  10.964   8.581 -2.3322 -0.9255  0.8026
  203MOL0     H27363   3.078  10.839   8.498 -2.5349  0.5339  2.5221
  203MOL0     H27364   3.058  10.970   8.372 -4.1701 -0.3118  2.1587
  203MOL0     H27365   2.845  10.992   8.752 -3.0531  0.6564  2.1161
  203MOL0     H27366   2.528  10.935   8.776  0.3255 -0.0692  2.7845
  203MOL0     H27367   2.654  11.031   8.862  0.9508  0.4846  0.2911
  203MOL0     H27368   2.511  11.104   8.771 -2.2914 -3.4208 -3.9542
  203MOL0     H27369   2.238  11.291   8.566  0.3433 -0.0116  0.7627
  203MOL0     H27370   2.011  11.319   8.505 -0.9450 -0.0613 -0.3168
  203MOL0     H27371   1.760  11.291   8.548  1.4062 -1.3464  0.1326
  203MOL0     H27372   1.817  11.317   8.376  2.7574 -0.9691 -0.4134
  203MOL0     H27373   1.632  11.167   8.284  0.5256 -1.2345 -0.4230
  203MOL0     H27374   1.580  11.150   8.457 -1.2023 -0.2655 -0.6618
  203MOL0     H27375   1.582  11.408   8.292 -0.0814 -1.3080 -0.5950
  203MOL0     H27376   1.533  11.391   8.462  2.1476 -0.2617  0.4141
  203MOL0     H27377   1.424  11.251   8.212 -1.2540  0.7104 -0.3608
  203MOL0     H27378   1.371  11.221   8.378  0.8587  1.5069  1.7515
  203MOL0     H27379   1.360  11.457   8.204 -2.3483  1.7646 -0.6017
  203MOL0     H27380   1.318  11.492   8.368 -2.0207 -1.0209 -0.1095
  203MOL0     H27381   1.179  11.277   8.215  0.6802  0.4407 -0.3741
  203MOL0     H27382   1.118  11.350   8.358  0.9052 -2.0456  0.6143
  203MOL0     H27383   1.138  11.422   8.069  2.0589  1.0703  0.2455
  203MOL0     H27384   1.136  11.564   8.168  1.0845 -1.0808  3.9944
  203MOL0     H27385   0.899  11.509   8.126  0.6051 -0.3455  0.0500
  203MOL0     H27386   0.944  11.464   8.291  2.5534 -1.2785  0.6694
  203MOL0     H27387   1.957  10.906   8.459 -1.0214  1.9746 -0.5093
  203MOL0     H27388   2.203  10.865   8.524  2.5617  0.4359  0.3255
  203MOL0     H27389   2.654  11.139   8.319 -2.4318  2.0775  3.0577
  203MOL0     H27390   2.882  11.053   8.329 -1.3104  1.4536 -0.7602
  203MOL0     H27391   4.527  11.138   8.162  2.4189  3.4265  0.3770
  203MOL0     H27392   4.750  11.093   8.253  1.2697  1.1847 -0.1228
  203MOL0     H27393   5.315  11.057   7.937  3.0431  0.7553  0.1771
  203MOL0     H27394   5.520  10.918   7.993  1.1835 -2.6415  0.0812
  203MOL0     H27395   5.643  10.723   8.027 -0.3252 -0.7194  1.3982
  203MOL0     H27396   5.706  10.847   8.136  0.7683  0.5118 -1.6775
  203MOL0     H27397   5.858  10.670   8.161 -0.3117  0.1344  0.7554
  203MOL0     H27398   5.733  10.549   8.170 -1.7851  0.9625 -0.4897
  203MOL0     H27399   5.665  10.657   8.397  1.4743  0.2869  1.7824
  203MOL0     H27400   5.786  10.780   8.370 -0.6367  1.1805 -1.9015
  203MOL0     H27401   5.889  10.617   8.521 -1.2299 -2.3439  1.0116
  203MOL0     H27402   5.954  10.589   8.349  0.2994  1.0923  0.5711
  203MOL0     H27403   5.732  10.251   8.446 -0.2098  1.0788 -2.5255
  203MOL0     H27404   5.295  10.705   8.281 -0.6307 -0.4679  0.7514
  203MOL0     H27405   5.102  10.847   8.228 -1.2108  2.1949 -1.1298
  204MOL0     O27406   7.227  10.162   0.727 -0.4888 -0.5781 -0.4461
  204MOL0     C27407   7.314  10.073   0.719  0.6168 -0.3038  0.2829
  204MOL0     O27408   7.285   9.936   0.731  0.3016  0.0175  0.0986
  204MOL0     C27409   7.158   9.884   0.719 -0.2256 -0.4407  0.6081
  204MOL0     C27410   7.052   9.941   0.653 -0.3892  0.5038 -0.1649
  204MOL0     C27411   6.931   9.867   0.642  0.1171 -0.6035  0.3452
  204MOL0     C27412   6.922   9.737   0.688  0.6343 -0.0546  0.7387
  204MOL0     O27413   6.802   9.664   0.687  0.1916  0.5423 -0.5003
  204MOL0     C27414   6.681   9.693   0.620  0.1373  0.0254  0.8595
  204MOL0     C27415   6.611   9.575   0.564 -0.3957  0.3075  0.0961
  204MOL0     C27416   6.473   9.608   0.515 -0.3164 -0.6556 -0.6033
  204MOL0     C27417   6.402   9.490   0.432 -0.3750  0.2346 -0.5637
  204MOL0     C27418   6.257   9.529   0.401  0.5984  0.1445 -0.9179
  204MOL0     C27419   6.242   9.641   0.302 -0.0347  0.8041 -0.2897
  204MOL0     C27420   6.097   9.646   0.256  0.0406 -0.2329 -0.1816
  204MOL0     C27421   5.993   9.716   0.348  0.7150 -0.0552 -0.9026
  204MOL0     N27422   5.870   9.726   0.274 -0.3125 -0.7551  0.7100
  204MOL0     C27423   5.856   9.836   0.188  0.1422  0.2462 -0.2322
  204MOL0     C27424   5.732   9.810   0.131  0.2989 -0.6752  0.1706
  204MOL0     C27425   5.652   9.892   0.033  0.8530  0.0710  0.4321
  204MOL0     C27426   5.507   9.856   0.010  0.6271  0.4466  0.2404
  204MOL0     C27427   5.416   9.844   0.138  0.2481 -0.1635 -0.1798
  204MOL0     C27428   5.268   9.872   0.110 -0.1720 -0.2485  1.1433
  204MOL0     O27429   5.196   9.748   0.080  0.0940 -0.5459  0.5095
  204MOL0     C27430   5.058   9.763   0.055 -0.5295 -0.0132  0.4242
  204MOL0     C27431   4.994   9.644   0.020 -0.3947 -0.1617 -0.7631
  204MOL0     C27432   4.854   9.641  -0.002  1.0746  0.3794 -0.3517
  204MOL0     C27433   4.787   9.510  -0.022  0.3819 -0.6077  0.6611
  204MOL0     C27434   4.774   9.766   0.026 -0.6526  0.5373 -0.1676
  204MOL0     C27435   4.628   9.779  -0.007 -1.5889 -0.2744  1.1859
  204MOL0     O27436   4.560   9.888   0.040 -0.1446  0.0709 -0.3876
  204MOL0     C27437   4.421   9.871   0.031  0.4070  0.0142 -0.6136
  204MOL0     C27438   4.358   9.811   0.143  1.5882 -0.0526 -0.2912
  204MOL0     C27439   4.216   9.792   0.136 -0.9451  0.4800  0.2031
  204MOL0     C27440   4.146   9.838   0.027  0.0507  0.5063  0.1107
  204MOL0     O27441   4.013   9.815   0.017 -0.5868 -0.5271  0.0491
  204MOL0     C27442   3.936   9.803   0.140  0.3902  0.1951  0.3794
  204MOL0     C27443   3.789   9.837   0.140  0.7729  0.1304 -0.6743
  204MOL0     C27444   3.741   9.843   0.283  0.1166  0.3528 -0.3008
  204MOL0     C27445   3.590   9.829   0.290 -0.4377  0.6216 -0.0557
  204MOL0     C27446   3.550   9.829   0.444  0.3562  0.4912  0.0921
  204MOL0     C27447   3.575   9.951   0.531  0.0133 -0.8555 -0.2870
  204MOL0     C27448   3.498  10.073   0.469  0.4082  0.9315 -0.6008
  204MOL0     C27449   3.507  10.196   0.559  0.4878 -0.4449  0.0239
  204MOL0    Cl27450   3.480  10.353   0.454  0.3034 -0.6994  0.0021
  204MOL0     C27451   4.209   9.897  -0.075 -0.2322 -0.3202  0.1714
  204MOL0     C27452   4.348   9.917  -0.076  0.6919 -0.0651 -0.5903
  204MOL0     O27453   4.571   9.688  -0.072 -0.7130  0.1251 -0.6489
  204MOL0     C27454   4.845   9.888   0.055 -0.2437  0.5099 -1.8129
  204MOL0     C27455   4.981   9.881   0.080 -0.9626  0.6442 -0.3428
  204MOL0     N27456   5.688   9.685   0.167 -1.1097  0.1387 -0.6417
  204MOL0     N27457   5.781   9.631   0.240 -0.0597 -0.2218 -0.2492
  204MOL0     C27458   7.026   9.680   0.758  0.0983  0.2118  1.0883
  204MOL0     C27459   7.144   9.757   0.777 -1.0518  0.1028  0.6931
  204MOL0     C27460   7.457  10.110   0.726  0.0536  0.2989  0.6109
  204MOL0     C27461   7.499  10.239   0.755 -0.8308  0.6665 -0.0063
  204MOL0     C27462   7.633  10.277   0.729 -1.0438  0.9849  0.0476
  204MOL0     C27463   7.733  10.178   0.691 -0.5387 -0.5893 -0.5262
  204MOL0     O27464   7.863  10.223   0.677  0.1409  0.0416 -0.3891
  204MOL0     C27465   7.976  10.142   0.635  0.5690 -0.1001 -0.5550
  204MOL0     C27466   8.007  10.029   0.734  0.1891 -0.2621 -0.6921
  204MOL0     C27467   8.085  10.074   0.857  0.4936  0.0545 -0.3499
  204MOL0     C27468   8.138   9.974   0.957  0.2385 -0.0906  0.0411
  204MOL0     C27469   8.276   9.972   0.992 -0.8876 -0.9860  0.3711
  204MOL0     C27470   8.399   9.965   1.002 -0.5769  0.5866 -0.1005
  204MOL0     C27471   7.689  10.046   0.666  0.1345  0.7457  0.0325
  204MOL0     C27472   7.556  10.010   0.687 -0.1415  0.1885 -0.0299
  204MOL0     H27473   7.066  10.039   0.608 -1.3744  1.5033  1.6061
  204MOL0     H27474   6.853   9.903   0.575 -0.9321 -2.5907  0.4434
  204MOL0     H27475   6.609   9.735   0.691 -0.8835  0.5193 -0.4234
  204MOL0     H27476   6.698   9.763   0.538 -1.3456 -1.0658 -0.4404
  204MOL0     H27477   6.659   9.543   0.471 -0.6663 -2.0400  0.6920
  204MOL0     H27478   6.610   9.487   0.629 -0.4778  1.6056  1.9150
  204MOL0     H27479   6.410   9.636   0.600 -1.3576  1.4015 -1.9675
  204MOL0     H27480   6.474   9.695   0.449  1.3869 -1.1409 -1.2936
  204MOL0     H27481   6.452   9.466   0.337 -0.5148  2.3290 -1.2308
  204MOL0     H27482   6.413   9.401   0.494  0.4414 -1.1721 -2.6009
  204MOL0     H27483   6.204   9.437   0.374 -0.2709  0.1702  0.5947
  204MOL0     H27484   6.205   9.557   0.493 -1.5710  0.9502 -2.3094
  204MOL0     H27485   6.262   9.736   0.351  0.3764  0.3152  0.4969
  204MOL0     H27486   6.314   9.638   0.220 -0.3906 -2.1560 -0.5962
  204MOL0     H27487   6.096   9.698   0.159  1.5300  3.1308  1.4391
  204MOL0     H27488   6.064   9.544   0.235  2.3773 -1.3192  1.0608
  204MOL0     H27489   6.022   9.805   0.405  0.9375 -0.2716 -0.6723
  204MOL0     H27490   5.965   9.649   0.429  1.5946  2.2990  1.4980
  204MOL0     H27491   5.912   9.929   0.195  1.7273 -0.8020  2.3929
  204MOL0     H27492   5.662   9.990   0.079  2.3753 -0.4429  1.2743
  204MOL0     H27493   5.700   9.893  -0.066 -2.4005  2.5579 -1.3114
  204MOL0     H27494   5.498   9.761  -0.042  2.0264  0.4177  0.0013
  204MOL0     H27495   5.476   9.935  -0.058  0.1942 -0.6558 -0.8764
  204MOL0     H27496   5.445   9.921   0.210  0.8387  0.7469 -1.3660
  204MOL0     H27497   5.431   9.743   0.177  0.9922  0.0758  0.1602
  204MOL0     H27498   5.256   9.939   0.025  0.7516 -0.8248  0.5402
  204MOL0     H27499   5.225   9.919   0.199 -1.3835  1.1737 -0.1496
  204MOL0     H27500   5.052   9.553   0.019 -2.9348 -1.9127  0.4929
  204MOL0     H27501   4.860   9.428  -0.010  2.3221  1.1187  1.1783
  204MOL0     H27502   4.709   9.515   0.055  0.2287  4.2148  0.4627
  204MOL0     H27503   4.746   9.490  -0.121  0.3117  0.9660  0.3594
  204MOL0     H27504   4.409   9.766   0.228  1.5531  0.7855  0.1883
  204MOL0     H27505   4.178   9.727   0.215  1.3139  0.0720  1.0650
  204MOL0     H27506   3.946   9.700   0.173 -1.7678  0.3196  1.5776
  204MOL0     H27507   3.986   9.864   0.216  0.5160  2.3443 -1.3300
  204MOL0     H27508   3.772   9.934   0.093  0.2915 -0.7890 -2.4717
  204MOL0     H27509   3.730   9.769   0.079 -0.0150 -0.1862  0.3941
  204MOL0     H27510   3.768   9.944   0.316 -0.7153 -0.2346  2.4998
  204MOL0     H27511   3.780   9.775   0.358  1.2792  1.5207  0.1850
  204MOL0     H27512   3.532   9.907   0.239 -2.8073 -0.2892  1.0724
  204MOL0     H27513   3.556   9.730   0.256 -1.9646  0.8307  0.7734
  204MOL0     H27514   3.591   9.740   0.494 -1.7936 -1.5430 -1.5051
  204MOL0     H27515   3.442   9.816   0.456  0.3467 -1.3906 -1.4279
  204MOL0     H27516   3.540   9.955   0.634  0.5974  0.5351 -0.1206
  204MOL0     H27517   3.682   9.970   0.538 -0.0995  0.4955 -1.5867
  204MOL0     H27518   3.391  10.054   0.458  0.1254  1.5650  0.8235
  204MOL0     H27519   3.541  10.082   0.368 -0.3412  0.8998 -0.9311
  204MOL0     H27520   3.604  10.213   0.606  0.2173  1.5984 -0.0725
  204MOL0     H27521   3.424  10.196   0.630 -2.3281  1.4063 -2.9336
  204MOL0     H27522   4.147   9.928  -0.159  3.1286 -1.4325 -2.9952
  204MOL0     H27523   4.401   9.960  -0.161 -1.9550 -1.2646 -2.9979
  204MOL0     H27524   4.785   9.977   0.070  1.8198  1.3229  4.3147
  204MOL0     H27525   5.030   9.975   0.105  1.2481 -0.4938 -0.0976
  204MOL0     H27526   7.018   9.580   0.799 -1.0958  0.1091  0.6245
  204MOL0     H27527   7.215   9.712   0.845 -0.8042  0.7530  0.8674
  204MOL0     H27528   7.419  10.309   0.777 -1.9645 -0.6473  0.1464
  204MOL0     H27529   7.666  10.378   0.751  1.1099  1.3389 -3.9514
  204MOL0     H27530   7.937  10.087   0.548 -0.6060  0.7691 -0.5895
  204MOL0     H27531   8.060  10.208   0.613  1.5548 -0.8916  0.7124
  204MOL0     H27532   8.061   9.951   0.679 -0.2045 -1.9558  1.2132
  204MOL0     H27533   7.914   9.983   0.769  1.9786 -1.9648  2.2731
  204MOL0     H27534   8.024  10.141   0.919  0.7776 -0.0682  0.0695
  204MOL0     H27535   8.178  10.109   0.811  0.2211  0.3251 -0.6956
  204MOL0     H27536   8.118   9.874   0.916 -0.3264  1.8974 -5.3061
  204MOL0     H27537   8.086   9.996   1.051 -0.5711  0.5954 -0.5517
  204MOL0     H27538   8.503   9.942   0.994 -0.7420  0.1603 -1.2921
  204MOL0     H27539   7.751   9.960   0.642  0.1018  0.6687  0.2237
  204MOL0     H27540   7.521   9.909   0.665  1.1876  0.1418 -2.3418
  205MOL0     O27541   1.184  10.379   3.256 -0.6962  0.4388 -1.0458
  205MOL0     C27542   1.254  10.474   3.307  0.0385 -0.2126 -0.2795
  205MOL0     O27543   1.229  10.533   3.434  0.0169  0.1257 -0.3994
  205MOL0     C27544   1.137  10.472   3.517  0.6125  0.1260  0.4719
  205MOL0     C27545   1.160  10.349   3.559 -0.6549 -0.2022  0.0735
  205MOL0     C27546   1.074  10.289   3.644  0.7528  0.4968  0.7146
  205MOL0     C27547   0.959  10.361   3.690  0.3593  1.6478  0.3548
  205MOL0     O27548   0.862  10.309   3.778  0.3707 -0.0957 -0.1379
  205MOL0     C27549   0.882  10.165   3.799 -0.3763  0.3657  0.8964
  205MOL0     C27550   0.755  10.099   3.836  0.2961 -0.0503  0.0739
  205MOL0     C27551   0.641  10.097   3.738  0.0948  0.1273 -0.8066
  205MOL0     C27552   0.517  10.140   3.814 -0.0130 -0.0592  0.4699
  205MOL0     C27553   0.401  10.140   3.716  0.1904  1.1115 -0.7109
  205MOL0     C27554   0.265  10.185   3.791  0.3073 -0.4884 -0.4395
  205MOL0     C27555   0.148  10.144   3.696  0.2642 -0.3207  0.7125
  205MOL0     C27556   0.018  10.200   3.759  0.3395  0.2019  0.7045
  205MOL0     N27557  -0.068  10.201   3.645  0.1907 -0.4249  0.5023
  205MOL0     C27558  -0.172  10.109   3.629 -0.0669  0.2577  0.5098
  205MOL0     C27559  -0.252  10.161   3.527  0.0172 -0.3525 -0.9247
  205MOL0     C27560  -0.378  10.105   3.483  1.1536  0.9404  0.0647
  205MOL0     C27561  -0.510  10.186   3.500  0.2631 -0.1895  0.2096
  205MOL0     C27562  -0.528  10.264   3.631 -0.0118  0.4727  0.4016
  205MOL0     C27563  -0.660  10.349   3.631  0.4178 -0.0935  0.1212
  205MOL0     O27564  -0.653  10.450   3.524 -1.0087  0.1218  0.1019
  205MOL0     C27565  -0.767  10.507   3.481 -0.6297 -0.3628  0.0751
  205MOL0     C27566  -0.746  10.605   3.381  0.1664 -0.3908 -0.4777
  205MOL0     C27567  -0.856  10.683   3.341  0.9751  0.5412  0.3600
  205MOL0     C27568  -0.836  10.779   3.234  0.2491  0.1200 -0.1157
  205MOL0     C27569  -0.982  10.666   3.402  0.8576 -0.2215  0.1835
  205MOL0     C27570  -1.108  10.741   3.352 -0.2125  0.0954 -0.5358
  205MOL0     O27571  -1.199  10.755   3.445 -0.1943 -0.7986  0.1372
  205MOL0     C27572  -1.308  10.836   3.431  0.0957 -0.4753 -0.3809
  205MOL0     C27573  -1.355  10.882   3.556 -0.2521 -0.0388  0.5288
  205MOL0     C27574  -1.463  10.976   3.545 -0.0998 -1.2908  0.2787
  205MOL0     C27575  -1.530  11.012   3.430  0.1500 -0.3694  0.3832
  205MOL0     O27576  -1.641  11.086   3.446  0.0383  0.1446  0.0779
  205MOL0     C27577  -1.754  11.057   3.364  0.6431  0.1550 -0.0031
  205MOL0     C27578  -1.882  11.150   3.369  0.5111 -0.1730  0.2867
  205MOL0     C27579  -1.995  11.085   3.284 -0.1308 -0.7446  0.4249
  205MOL0     C27580  -2.138  11.143   3.287  0.1307  0.5736  0.2170
  205MOL0     C27581  -2.150  11.291   3.250  0.4032 -0.1102 -0.6177
  205MOL0     C27582  -2.283  11.335   3.207 -0.4961  0.8075 -0.4849
  205MOL0     C27583  -2.396  11.307   3.309  0.4297  0.6934  0.6868
  205MOL0     C27584  -2.391  11.392   3.438  0.1181  0.2618 -0.3409
  205MOL0    Cl27585  -2.534  11.339   3.529  0.3329  0.2602 -0.3474
  205MOL0     C27586  -1.477  10.947   3.314 -0.0786  0.5343 -0.0764
  205MOL0     C27587  -1.373  10.859   3.313  0.6657  0.4013  0.1963
  205MOL0     O27588  -1.116  10.780   3.242  1.0607 -1.2091 -0.1515
  205MOL0     C27589  -1.001  10.566   3.495 -0.5954  0.0562  0.2150
  205MOL0     C27590  -0.895  10.484   3.536  0.0789 -0.7745  0.2762
  205MOL0     N27591  -0.187  10.277   3.485 -0.1399 -0.1349  0.4378
  205MOL0     N27592  -0.080  10.302   3.559  0.1356 -1.0562  0.7435
  205MOL0     C27593   0.932  10.485   3.637 -0.1728  0.1389 -0.0327
  205MOL0     C27594   1.026  10.545   3.548  0.6741  0.9860  0.5913
  205MOL0     C27595   1.371  10.523   3.239 -0.5436 -0.7644 -0.2807
  205MOL0     C27596   1.388  10.493   3.101 -0.3903  0.2027 -0.1627
  205MOL0     C27597   1.511  10.533   3.032  0.6529  0.2858 -0.3606
  205MOL0     C27598   1.613  10.601   3.095  0.5421  0.0811  0.0507
  205MOL0     O27599   1.728  10.652   3.033 -0.0096  0.0056 -0.3339
  205MOL0     C27600   1.775  10.594   2.913  0.5573  0.0131 -0.3908
  205MOL0     C27601   1.917  10.628   2.878 -0.2764 -0.2514 -0.5007
  205MOL0     C27602   1.993  10.557   2.769 -0.5726  0.6814 -0.9335
  205MOL0     C27603   2.137  10.603   2.764 -0.3346  1.2079  0.2830
  205MOL0     C27604   2.206  10.524   2.661 -0.0971  0.2385  0.6137
  205MOL0     C27605   2.256  10.452   2.576 -0.4364  0.4077 -0.2038
  205MOL0     C27606   1.583  10.653   3.225  0.4233  0.2667  0.4346
  205MOL0     C27607   1.476  10.600   3.299  0.0399  0.3173  0.0008
  205MOL0     H27608   1.244  10.288   3.527 -1.3408 -0.9712 -0.3020
  205MOL0     H27609   1.110  10.196   3.686  3.7919 -0.6893 -3.7754
  205MOL0     H27610   0.911  10.115   3.706  0.2494  1.4574  0.4879
  205MOL0     H27611   0.969  10.149   3.863 -0.2881 -0.0724  0.6657
  205MOL0     H27612   0.757   9.995   3.870 -2.3569 -0.5952 -1.1879
  205MOL0     H27613   0.732  10.159   3.924  0.0481  0.2990 -0.2270
  205MOL0     H27614   0.659  10.153   3.646  1.4482  1.5908  0.2987
  205MOL0     H27615   0.616   9.996   3.703 -0.3010  0.1409 -0.5743
  205MOL0     H27616   0.493  10.072   3.896  1.6183 -3.3738 -1.5857
  205MOL0     H27617   0.530  10.246   3.839 -2.5482  0.4424  0.0288
  205MOL0     H27618   0.430  10.212   3.638  0.0968  2.0580  0.1000
  205MOL0     H27619   0.397  10.043   3.666 -2.2327  1.2500 -0.8797
  205MOL0     H27620   0.247  10.125   3.881  1.3962  0.0304  0.1415
  205MOL0     H27621   0.277  10.291   3.816  1.2815  0.1245 -3.1935
  205MOL0     H27622   0.170  10.175   3.594 -1.3119 -2.5434 -0.3931
  205MOL0     H27623   0.132  10.036   3.706 -1.1415 -0.2222 -0.2013
  205MOL0     H27624   0.026  10.304   3.792 -0.1055  0.4614  0.0329
  205MOL0     H27625  -0.019  10.135   3.839  1.8249 -0.9309  0.5042
  205MOL0     H27626  -0.201  10.023   3.689 -1.0220  0.2965  0.1054
  205MOL0     H27627  -0.373  10.084   3.376 -2.3785 -1.8882  0.2359
  205MOL0     H27628  -0.389  10.012   3.538  0.7388  0.9403 -0.0124
  205MOL0     H27629  -0.595  10.117   3.489 -1.8749  2.4451 -1.1021
  205MOL0     H27630  -0.505  10.257   3.417  0.1026  2.6984  2.4965
  205MOL0     H27631  -0.441  10.328   3.646  0.5528  1.0802 -4.0201
  205MOL0     H27632  -0.543  10.197   3.717 -3.4183  0.9714  0.3380
  205MOL0     H27633  -0.671  10.396   3.729  0.6405 -0.8004  0.4887
  205MOL0     H27634  -0.739  10.275   3.617  1.8039 -1.7167  0.5905
  205MOL0     H27635  -0.641  10.605   3.353  0.5686 -0.9864  0.9572
  205MOL0     H27636  -0.882  10.731   3.147  2.1326 -2.2421  0.1200
  205MOL0     H27637  -0.883  10.874   3.262 -0.7453  0.4832 -2.7537
  205MOL0     H27638  -0.732  10.798   3.206 -0.0858  2.3247 -0.0700
  205MOL0     H27639  -1.317  10.848   3.652  0.3418 -1.2197 -0.0998
  205MOL0     H27640  -1.495  11.031   3.633  0.0680  2.1192 -1.6080
  205MOL0     H27641  -1.730  11.064   3.257  0.7828  0.4284  0.0447
  205MOL0     H27642  -1.783  10.954   3.383  0.2776  0.4914  1.3442
  205MOL0     H27643  -1.902  11.146   3.477  0.4600  0.7693  0.3172
  205MOL0     H27644  -1.859  11.247   3.325  0.0471 -0.4238 -0.5242
  205MOL0     H27645  -2.017  10.984   3.320 -0.7954 -0.5537  0.5588
  205MOL0     H27646  -1.942  11.071   3.189  0.8036  0.9938  0.6492
  205MOL0     H27647  -2.202  11.085   3.220 -1.2703  1.0732  1.0793
  205MOL0     H27648  -2.183  11.144   3.386 -0.7544  1.4944 -0.1863
  205MOL0     H27649  -2.080  11.312   3.169  1.8962 -2.5902 -0.0715
  205MOL0     H27650  -2.123  11.346   3.341  0.4330 -2.6629  1.0049
  205MOL0     H27651  -2.284  11.442   3.185 -2.2254  0.7341 -0.8790
  205MOL0     H27652  -2.309  11.279   3.116 -0.5314 -0.5809  0.3478
  205MOL0     H27653  -2.385  11.200   3.330  0.4263  0.2049 -1.4842
  205MOL0     H27654  -2.496  11.316   3.264  0.4703 -3.1121 -0.5855
  205MOL0     H27655  -2.394  11.499   3.416  1.4997  0.3472 -0.2315
  205MOL0     H27656  -2.301  11.381   3.500  2.0291  1.3278 -2.7545
  205MOL0     H27657  -1.531  10.974   3.224  0.8060 -0.4356 -0.9329
  205MOL0     H27658  -1.337  10.830   3.215  0.8658  1.6397 -0.1229
  205MOL0     H27659  -1.094  10.572   3.551 -0.0110  0.3593  1.1689
  205MOL0     H27660  -0.908  10.412   3.616  1.2605 -0.9449  0.3316
  205MOL0     H27661   0.838  10.529   3.668  0.0166  0.0006  0.7633
  205MOL0     H27662   1.011  10.642   3.500  2.4392  1.7099  1.4247
  205MOL0     H27663   1.312  10.449   3.037  0.7994  0.9792 -2.1720
  205MOL0     H27664   1.513  10.524   2.924 -0.2017  2.0056 -0.5542
  205MOL0     H27665   1.767  10.486   2.930 -1.0908  0.3726  1.5392
  205MOL0     H27666   1.714  10.612   2.825 -4.3648  3.3395  3.1567
  205MOL0     H27667   1.973  10.621   2.972 -2.0146 -0.0774  0.5978
  205MOL0     H27668   1.926  10.733   2.847  0.2989 -0.6273 -1.6953
  205MOL0     H27669   1.936  10.566   2.676 -3.1505 -0.6589  0.3938
  205MOL0     H27670   1.990  10.453   2.805 -0.7191  1.7301  2.4612
  205MOL0     H27671   2.191  10.585   2.857  1.5915 -1.9480 -1.2749
  205MOL0     H27672   2.157  10.707   2.737  3.9264  0.9208  1.5327
  205MOL0     H27673   2.296  10.392   2.496  2.9453  1.5528  0.4418
  205MOL0     H27674   1.654  10.712   3.282 -1.0968  2.6935 -0.0098
  205MOL0     H27675   1.463  10.628   3.403  0.3794 -1.8602  0.6781
  206MOL0     O27676   7.031   4.201   0.942  0.5693  0.1701  0.1598
  206MOL0     C27677   7.047   4.315   0.986  0.0329 -0.2386 -0.3234
  206MOL0     O27678   6.958   4.412   0.992  0.4522 -0.1792  0.0040
  206MOL0     C27679   6.833   4.398   0.931  0.2952 -0.2502 -0.0761
  206MOL0     C27680   6.785   4.498   0.858 -0.2398  0.4569  0.3479
  206MOL0     C27681   6.662   4.481   0.787 -0.2373 -0.5352  0.2397
  206MOL0     C27682   6.586   4.365   0.783 -0.6704 -0.1241 -0.5414
  206MOL0     O27683   6.461   4.364   0.722  0.1038 -0.8032  0.1308
  206MOL0     C27684   6.368   4.249   0.748  0.3579  0.9170 -0.2171
  206MOL0     C27685   6.239   4.299   0.690 -0.2053 -0.2200 -0.0045
  206MOL0     C27686   6.119   4.220   0.745  0.4086  0.1521 -0.3719
  206MOL0     C27687   5.989   4.259   0.667  1.0429  0.4609 -0.9851
  206MOL0     C27688   5.906   4.138   0.663  0.5159  0.1066  1.1583
  206MOL0     C27689   5.766   4.163   0.618  0.0542  0.3542  0.4761
  206MOL0     C27690   5.775   4.218   0.472 -0.0331  0.3026  0.2114
  206MOL0     C27691   5.645   4.183   0.408 -0.4463  0.1146  0.7952
  206MOL0     N27692   5.530   4.236   0.483  0.0755  0.4940  0.6591
  206MOL0     C27693   5.512   4.374   0.492  0.2235 -0.8170  0.0832
  206MOL0     C27694   5.383   4.380   0.534  0.3633 -0.2221  1.5096
  206MOL0     C27695   5.309   4.507   0.555  0.5162  0.2090 -0.1225
  206MOL0     C27696   5.155   4.468   0.515 -0.2593 -0.4789 -0.4868
  206MOL0     C27697   5.071   4.598   0.521  0.3001  0.3789  0.2942
  206MOL0     C27698   4.926   4.562   0.473  0.6758 -0.5450  0.5335
  206MOL0     O27699   4.844   4.680   0.474 -0.4038 -0.2347 -0.1205
  206MOL0     C27700   4.704   4.670   0.477  0.6211 -0.4916  0.5047
  206MOL0     C27701   4.617   4.556   0.482  0.0290  0.2570  0.1671
  206MOL0     C27702   4.473   4.563   0.469  0.3812  0.4953 -0.1039
  206MOL0     C27703   4.395   4.432   0.453 -0.2277 -0.0454  0.5605
  206MOL0     C27704   4.407   4.690   0.477  0.6565  0.1947 -0.2312
  206MOL0     C27705   4.257   4.714   0.465  0.3446  0.5018 -0.0889
  206MOL0     O27706   4.216   4.840   0.437 -0.5634 -0.4689 -0.1044
  206MOL0     C27707   4.090   4.876   0.472  0.7195 -0.5347  0.3879
  206MOL0     C27708   4.065   4.986   0.567 -0.4765 -0.8553  0.1315
  206MOL0     C27709   3.938   5.024   0.602  0.6652 -0.8593 -0.8812
  206MOL0     C27710   3.832   4.968   0.537 -0.2297  0.9941 -1.2996
  206MOL0     O27711   3.702   5.017   0.551  0.6940  0.3485  0.0279
  206MOL0     C27712   3.681   5.133   0.639 -0.5060  0.5339  0.2000
  206MOL0     C27713   3.546   5.205   0.628  0.5907  0.1564 -0.3511
  206MOL0     C27714   3.514   5.308   0.735  0.4450  0.1053 -0.1042
  206MOL0     C27715   3.377   5.383   0.708  0.5911  0.3783  0.1774
  206MOL0     C27716   3.315   5.461   0.826  0.4440  0.0259  1.0366
  206MOL0     C27717   3.188   5.555   0.796 -0.0467  0.3335 -0.3081
  206MOL0     C27718   3.142   5.615   0.928 -0.2240  0.4502 -0.7700
  206MOL0     C27719   3.231   5.738   0.960  0.4398  1.1509  0.0868
  206MOL0    Cl27720   3.181   5.883   0.856 -0.3466  0.0776  0.0131
  206MOL0     C27721   3.847   4.864   0.447  0.0525 -0.3330 -0.3637
  206MOL0     C27722   3.974   4.823   0.406  0.2006 -0.7345  1.0947
  206MOL0     O27723   4.176   4.627   0.497  0.0083  0.6725  0.3955
  206MOL0     C27724   4.495   4.800   0.474 -0.4308  1.1910  0.7067
  206MOL0     C27725   4.641   4.792   0.482  0.0580  0.5402  0.3743
  206MOL0     N27726   5.332   4.250   0.559  0.3820 -0.9447 -0.6177
  206MOL0     N27727   5.418   4.162   0.525  0.2258 -0.2296  0.1272
  206MOL0     C27728   6.636   4.261   0.862  0.3458 -0.0021 -1.2056
  206MOL0     C27729   6.759   4.279   0.933  0.5354 -0.6690  0.0362
  206MOL0     C27730   7.177   4.351   1.047 -0.1210 -0.1668  0.1731
  206MOL0     C27731   7.287   4.273   1.011 -0.1445 -0.7115 -0.2172
  206MOL0     C27732   7.416   4.317   1.036  0.3291  0.2035 -1.0294
  206MOL0     C27733   7.440   4.427   1.117  0.3056  0.2387  0.1311
  206MOL0     O27734   7.573   4.451   1.154  0.0805 -0.2369  0.1453
  206MOL0     C27735   7.603   4.573   1.224  0.0555 -0.5436 -0.8101
  206MOL0     C27736   7.586   4.691   1.128 -0.5695 -1.0092  0.6532
  206MOL0     C27737   7.679   4.684   1.006 -0.0738 -0.0754 -0.8174
  206MOL0     C27738   7.827   4.697   1.057 -0.0852  0.3998 -0.1366
  206MOL0     C27739   7.855   4.829   1.129 -0.7388 -0.0522 -1.1002
  206MOL0     C27740   7.875   4.926   1.198 -0.3624  0.2828  0.9999
  206MOL0     C27741   7.330   4.501   1.159  0.4450  0.2595 -0.2557
  206MOL0     C27742   7.197   4.460   1.132 -0.1073 -0.6847 -0.3680
  206MOL0     H27743   6.823   4.599   0.841  1.2221  0.4445  3.0246
  206MOL0     H27744   6.626   4.569   0.735 -0.7971 -0.2966  0.9978
  206MOL0     H27745   6.408   4.157   0.706  1.1227  1.2396 -0.2094
  206MOL0     H27746   6.367   4.244   0.858 -0.5903  0.1173 -0.2488
  206MOL0     H27747   6.231   4.404   0.721 -1.3283 -0.5908  1.0693
  206MOL0     H27748   6.247   4.299   0.581  0.3393 -3.6518 -0.0456
  206MOL0     H27749   6.141   4.113   0.737  0.5722  0.2061 -0.6486
  206MOL0     H27750   6.094   4.253   0.846 -1.4422 -2.0071 -0.0287
  206MOL0     H27751   5.946   4.337   0.731 -0.0562 -1.8356  1.2719
  206MOL0     H27752   6.011   4.289   0.565  0.0100 -1.2812 -1.7734
  206MOL0     H27753   5.953   4.066   0.595  2.1461  1.2121  1.0572
  206MOL0     H27754   5.897   4.091   0.761 -1.5188 -1.2329  0.3870
  206MOL0     H27755   5.716   4.066   0.613 -0.9683  0.8974 -0.1623
  206MOL0     H27756   5.715   4.240   0.678 -0.5967 -0.4902  1.0228
  206MOL0     H27757   5.781   4.327   0.470 -1.0631  0.3709  0.2121
  206MOL0     H27758   5.851   4.169   0.409 -0.8847 -0.9438  0.1106
  206MOL0     H27759   5.638   4.076   0.387  0.7646  0.1934 -0.1543
  206MOL0     H27760   5.638   4.229   0.309  0.2285 -1.0013  0.2151
  206MOL0     H27761   5.585   4.454   0.478  0.0762 -0.8733 -1.0598
  206MOL0     H27762   5.327   4.548   0.655  1.1351  2.2906 -1.0314
  206MOL0     H27763   5.338   4.587   0.486 -0.9446 -2.3018 -3.9453
  206MOL0     H27764   5.117   4.387   0.578  1.2156 -0.4851  0.4391
  206MOL0     H27765   5.156   4.438   0.410  1.5424  1.5979 -1.1397
  206MOL0     H27766   5.116   4.670   0.452 -3.0685  1.3159 -1.1672
  206MOL0     H27767   5.068   4.634   0.624 -2.2056 -0.0569  0.4377
  206MOL0     H27768   4.893   4.486   0.544  0.1137 -0.8658 -0.0692
  206MOL0     H27769   4.925   4.519   0.373  1.8905  0.6112 -0.0030
  206MOL0     H27770   4.662   4.458   0.495 -1.5063 -0.4426  0.4080
  206MOL0     H27771   4.310   4.448   0.386 -0.7595 -0.5802  1.0970
  206MOL0     H27772   4.464   4.359   0.408  1.3495  1.3407  0.6311
  206MOL0     H27773   4.355   4.409   0.552  0.3089  1.3223  1.1173
  206MOL0     H27774   4.149   5.035   0.615  0.3557 -2.6526  0.5916
  206MOL0     H27775   3.939   5.093   0.686  3.5384 -2.1241  0.2706
  206MOL0     H27776   3.678   5.105   0.744  1.5085 -0.6857 -0.0114
  206MOL0     H27777   3.757   5.209   0.621 -0.4028  0.0250 -1.7661
  206MOL0     H27778   3.550   5.259   0.534 -3.1363  1.5340  0.0949
  206MOL0     H27779   3.463   5.133   0.624  0.1693  0.6397 -0.3698
  206MOL0     H27780   3.595   5.381   0.739 -2.5574  4.0583 -3.3259
  206MOL0     H27781   3.504   5.262   0.834 -2.6242  2.5931  0.9230
  206MOL0     H27782   3.395   5.444   0.619 -0.5100  1.3295  0.5761
  206MOL0     H27783   3.301   5.315   0.669 -0.3529  2.1508 -1.2339
  206MOL0     H27784   3.396   5.527   0.859 -0.0269  0.6566  0.9502
  206MOL0     H27785   3.297   5.376   0.891  0.7400  1.3161  2.8923
  206MOL0     H27786   3.202   5.640   0.729 -0.2313  1.9146  1.5739
  206MOL0     H27787   3.105   5.491   0.765 -1.2642  1.7450 -0.0605
  206MOL0     H27788   3.144   5.541   1.009 -2.1306  0.6511 -0.4914
  206MOL0     H27789   3.039   5.647   0.911 -0.7168 -1.3556 -1.4188
  206MOL0     H27790   3.335   5.715   0.932  0.4298  1.5501 -0.2925
  206MOL0     H27791   3.237   5.761   1.067 -0.0728  2.1247 -0.0874
  206MOL0     H27792   3.754   4.825   0.408  1.1786 -1.8018 -1.7321
  206MOL0     H27793   3.983   4.745   0.330 -0.0419 -2.9292  3.2029
  206MOL0     H27794   4.451   4.899   0.466 -3.6907 -0.3171 -2.4447
  206MOL0     H27795   4.707   4.877   0.468  0.8876 -0.3990 -1.7198
  206MOL0     H27796   6.577   4.170   0.869  0.3615  0.0802  0.3666
  206MOL0     H27797   6.791   4.196   0.995  0.2959 -0.2523  0.7266
  206MOL0     H27798   7.279   4.183   0.950 -0.3213 -1.4575  0.8676
  206MOL0     H27799   7.502   4.253   1.019 -0.3148 -1.4679  1.3748
  206MOL0     H27800   7.538   4.583   1.312  2.7474 -2.7961  1.6173
  206MOL0     H27801   7.705   4.564   1.262 -1.2136  0.4347  3.4945
  206MOL0     H27802   7.594   4.786   1.182 -2.8016  0.4748 -1.4237
  206MOL0     H27803   7.495   4.687   1.069  0.6162 -0.4978 -1.3010
  206MOL0     H27804   7.653   4.765   0.937 -0.7306 -0.6540 -1.2542
  206MOL0     H27805   7.657   4.590   0.955 -1.1331 -0.6780  0.6621
  206MOL0     H27806   7.884   4.691   0.964  1.6769 -1.4787  0.9796
  206MOL0     H27807   7.855   4.610   1.118  0.6788  1.5349  1.1868
  206MOL0     H27808   7.912   5.015   1.244  2.8969 -0.8517  0.8212
  206MOL0     H27809   7.338   4.583   1.230 -2.7835 -0.6299  1.3195
  206MOL0     H27810   7.119   4.530   1.160  2.1747  0.9320  2.5294
  207MOL0     O27811   4.289   8.886   9.669 -0.4970 -0.0450  0.0469
  207MOL0     C27812   4.325   9.004   9.637 -0.2526  1.0525  0.2431
  207MOL0     O27813   4.296   9.073   9.521  0.2198  0.2960 -0.0473
  207MOL0     C27814   4.225   9.018   9.415 -0.6591 -0.3593 -0.4247
  207MOL0     C27815   4.121   8.924   9.426  0.2494 -0.0402 -0.3656
  207MOL0     C27816   4.057   8.877   9.317 -0.3484  0.0351 -1.2561
  207MOL0     C27817   4.099   8.910   9.186 -1.5980 -0.0385 -0.4204
  207MOL0     O27818   4.046   8.871   9.070 -0.1330  0.1759  0.0840
  207MOL0     C27819   3.923   8.932   9.037  0.2732 -0.2779 -0.1803
  207MOL0     C27820   3.891   8.896   8.894 -0.3962  0.4189  1.2241
  207MOL0     C27821   3.864   8.752   8.878  0.3846  0.0425 -0.5793
  207MOL0     C27822   3.982   8.670   8.821 -0.0821 -0.8817 -0.7365
  207MOL0     C27823   3.941   8.528   8.777 -0.2609 -0.4670 -0.2157
  207MOL0     C27824   3.894   8.437   8.889 -0.4988  0.0632  0.4919
  207MOL0     C27825   4.002   8.414   8.990  0.1447 -0.2476 -0.5016
  207MOL0     C27826   4.140   8.398   8.957  0.0010  0.0897 -0.2294
  207MOL0     N27827   4.168   8.276   8.886  0.5895 -0.5140  0.2472
  207MOL0     C27828   4.194   8.156   8.953 -0.3257 -0.4063  0.2696
  207MOL0     C27829   4.235   8.071   8.861  0.2187  0.1213 -1.1131
  207MOL0     C27830   4.276   7.931   8.887 -0.7932 -0.2926 -0.4183
  207MOL0     C27831   4.149   7.848   8.891  0.1410 -0.2819  0.3925
  207MOL0     C27832   4.078   7.825   8.754 -0.0927 -1.6701  0.8539
  207MOL0     C27833   3.976   7.723   8.759  0.5073  0.1060 -0.0004
  207MOL0     O27834   3.881   7.742   8.869  0.0212  0.1124  0.0398
  207MOL0     C27835   3.743   7.757   8.843 -1.4054 -0.5533 -0.8754
  207MOL0     C27836   3.675   7.651   8.773 -0.6613 -0.0269 -0.8681
  207MOL0     C27837   3.528   7.657   8.758 -0.2549  0.0174 -0.3523
  207MOL0     C27838   3.469   7.532   8.703  0.1577 -0.3306 -0.0229
  207MOL0     C27839   3.458   7.759   8.824  0.6167 -0.9767 -0.4141
  207MOL0     C27840   3.317   7.777   8.815 -0.4840 -0.2474 -0.0960
  207MOL0     O27841   3.259   7.897   8.856  0.2768  0.2274 -0.1109
  207MOL0     C27842   3.142   7.938   8.805 -0.0412  0.5588 -0.0347
  207MOL0     C27843   3.133   8.025   8.691  0.0417  0.5633  0.3377
  207MOL0     C27844   3.017   8.071   8.642  0.2207  0.9504  0.7882
  207MOL0     C27845   2.897   8.034   8.711  1.0226  0.2888 -0.0997
  207MOL0     O27846   2.766   8.069   8.676  0.1706  0.7413 -0.0459
  207MOL0     C27847   2.735   8.068   8.540 -0.2341 -0.2196  0.6659
  207MOL0     C27848   2.693   8.219   8.517 -0.0034 -0.2122  0.3738
  207MOL0     C27849   2.589   8.219   8.404  0.4444 -1.3587  0.2836
  207MOL0     C27850   2.614   8.123   8.289  0.2812 -0.5454 -0.5341
  207MOL0     C27851   2.550   8.170   8.160  0.4779  0.1958 -0.9437
  207MOL0     C27852   2.396   8.170   8.152  0.8483 -0.9597  0.3582
  207MOL0     C27853   2.351   8.175   8.008  0.7419 -0.2565 -0.0003
  207MOL0     C27854   2.195   8.195   8.005  0.0000  0.2838  0.0341
  207MOL0    Cl27855   2.136   8.355   8.061 -0.8108 -0.5039  0.0327
  207MOL0     C27856   2.906   7.946   8.822 -0.1777 -0.5139  0.0238
  207MOL0     C27857   3.024   7.891   8.861  1.3217  0.2129  0.6683
  207MOL0     O27858   3.252   7.688   8.761 -0.6938 -0.2228  0.1266
  207MOL0     C27859   3.530   7.861   8.892 -0.2378 -0.3551  1.0626
  207MOL0     C27860   3.668   7.867   8.888 -0.3820  0.1616  0.5198
  207MOL0     N27861   4.252   8.142   8.747  0.0557 -0.7144  0.7141
  207MOL0     N27862   4.210   8.264   8.757  0.1182  0.4367 -0.5935
  207MOL0     C27863   4.202   9.009   9.172  0.0231  0.4193  0.1022
  207MOL0     C27864   4.269   9.059   9.287  0.4951  0.7662 -0.9245
  207MOL0     C27865   4.372   9.088   9.753  0.2501  0.6338 -0.3411
  207MOL0     C27866   4.448   9.202   9.720  0.7589  0.7259 -0.3231
  207MOL0     C27867   4.495   9.274   9.828 -0.2492  0.1630  0.2520
  207MOL0     C27868   4.471   9.241   9.974 -0.0879 -0.0316  0.7242
  207MOL0     O27869   4.519   9.316  10.074 -0.6013 -0.4000  0.4888
  207MOL0     C27870   4.559   9.458  10.051 -0.3529  0.2398  0.0543
  207MOL0     C27871   4.622   9.527  10.176  0.6274  0.3626  0.1237
  207MOL0     C27872   4.529   9.538  10.298  0.3888 -0.5959  0.8961
  207MOL0     C27873   4.535   9.419  10.394  0.0066 -0.3941 -0.5647
  207MOL0     C27874   4.666   9.429  10.469  0.1963  0.4861  1.6517
  207MOL0     C27875   4.779   9.437  10.519 -0.0295  0.3753 -0.5141
  207MOL0     C27876   4.403   9.122  10.002 -0.3515  0.7898 -0.1372
  207MOL0     C27877   4.362   9.042   9.891  0.3148 -0.0503  0.0300
  207MOL0     H27878   4.079   8.913   9.526  0.6466  4.2733  0.4581
  207MOL0     H27879   3.975   8.806   9.322 -0.8905  0.7235  0.7450
  207MOL0     H27880   3.843   8.909   9.108  1.0351 -1.8023  0.2596
  207MOL0     H27881   3.933   9.039   9.056 -3.2608 -0.1369  1.7981
  207MOL0     H27882   3.800   8.954   8.874  0.3365  0.5466 -2.4581
  207MOL0     H27883   3.971   8.940   8.834 -0.7327  1.2083  1.3365
  207MOL0     H27884   3.838   8.711   8.975  0.4457 -0.9496 -0.9744
  207MOL0     H27885   3.782   8.737   8.807 -0.6109  1.1952  0.2844
  207MOL0     H27886   4.024   8.731   8.740 -3.0734 -0.8269 -2.4273
  207MOL0     H27887   4.053   8.665   8.904 -0.2496 -0.0386 -0.5352
  207MOL0     H27888   3.859   8.543   8.706 -0.6905 -2.2283 -0.1429
  207MOL0     H27889   4.028   8.490   8.723 -0.3163  2.1918 -2.3985
  207MOL0     H27890   3.815   8.485   8.947 -2.2560 -1.9764 -0.0931
  207MOL0     H27891   3.875   8.341   8.840  1.7455 -0.0663 -0.2688
  207MOL0     H27892   3.991   8.489   9.069  1.9689 -1.7982  1.3450
  207MOL0     H27893   3.975   8.322   9.043 -0.5109 -0.6256 -1.4464
  207MOL0     H27894   4.199   8.397   9.049 -0.5536 -0.4660  0.1227
  207MOL0     H27895   4.186   8.481   8.901  1.5323  0.4717  1.4813
  207MOL0     H27896   4.177   8.146   9.059  2.0508 -0.2271  0.7008
  207MOL0     H27897   4.334   7.891   8.804 -3.1813 -0.9577 -1.8922
  207MOL0     H27898   4.331   7.928   8.981  2.6710  1.1777 -2.2201
  207MOL0     H27899   4.083   7.897   8.963 -0.4227 -1.3417  0.6145
  207MOL0     H27900   4.173   7.746   8.924 -2.4445 -1.5619 -1.3666
  207MOL0     H27901   4.159   7.796   8.686 -0.4911 -1.6801  0.3807
  207MOL0     H27902   4.046   7.923   8.717  1.1515 -1.9566 -1.1540
  207MOL0     H27903   4.027   7.626   8.759 -1.8826 -1.2383 -1.8252
  207MOL0     H27904   3.911   7.718   8.671 -2.0338  0.7249  1.7500
  207MOL0     H27905   3.732   7.563   8.745  1.1396  0.2296  1.7205
  207MOL0     H27906   3.540   7.474   8.645 -1.4995 -0.1784 -2.3402
  207MOL0     H27907   3.444   7.464   8.785 -0.2132 -0.9572 -0.6454
  207MOL0     H27908   3.380   7.542   8.639  0.4682 -0.5900 -0.4991
  207MOL0     H27909   3.219   8.060   8.636  0.0437  2.3486  1.4158
  207MOL0     H27910   3.020   8.134   8.554  3.5098  0.5048  0.4575
  207MOL0     H27911   2.817   8.041   8.473  0.5199  0.1122  1.4423
  207MOL0     H27912   2.647   8.004   8.528 -2.0996  1.5871  3.3680
  207MOL0     H27913   2.640   8.248   8.608  1.8453  1.9031  0.8555
  207MOL0     H27914   2.780   8.281   8.491 -0.1086 -0.3392 -0.3185
  207MOL0     H27915   2.584   8.324   8.374  3.7008 -1.3192 -0.4388
  207MOL0     H27916   2.492   8.187   8.444 -0.1295 -0.2407 -0.1729
  207MOL0     H27917   2.720   8.140   8.270 -0.4321  2.0096 -2.8124
  207MOL0     H27918   2.575   8.024   8.315 -2.2976  0.3904 -0.4712
  207MOL0     H27919   2.597   8.108   8.082 -0.3954  1.4752 -2.5629
  207MOL0     H27920   2.583   8.271   8.134 -1.2539  0.8041 -0.8804
  207MOL0     H27921   2.340   8.090   8.202 -0.1533  0.2216  1.1925
  207MOL0     H27922   2.364   8.264   8.199  1.3792  0.1153 -1.3243
  207MOL0     H27923   2.375   8.080   7.960  0.3920  0.7438 -2.3351
  207MOL0     H27924   2.396   8.260   7.954 -0.1700  0.4274  0.2878
  207MOL0     H27925   2.147   8.117   8.064 -0.6959  2.7453  2.9969
  207MOL0     H27926   2.180   8.189   7.896  1.9210 -0.3615 -0.2283
  207MOL0     H27927   2.819   7.917   8.880 -0.5095 -1.1070 -0.7542
  207MOL0     H27928   3.034   7.836   8.955 -0.2817 -0.8091  0.2707
  207MOL0     H27929   3.482   7.951   8.930  1.9005  0.7690  1.2749
  207MOL0     H27930   3.720   7.948   8.938 -1.8406  0.8193  1.0228
  207MOL0     H27931   4.215   9.065   9.080  0.2788 -0.0248 -0.1343
  207MOL0     H27932   4.344   9.138   9.283  1.6226 -0.1874  0.2578
  207MOL0     H27933   4.467   9.230   9.617  0.8609  1.0301 -0.2220
  207MOL0     H27934   4.557   9.359   9.801 -1.2489  0.4649 -1.1595
  207MOL0     H27935   4.646   9.453   9.985  0.3126  1.2962  0.8157
  207MOL0     H27936   4.475   9.518  10.015  0.4619  1.4865  0.1676
  207MOL0     H27937   4.655   9.626  10.143  0.3617  0.0327 -1.1916
  207MOL0     H27938   4.716   9.474  10.196  0.6571 -0.9207 -2.8800
  207MOL0     H27939   4.429   9.542  10.254  1.0754 -1.3162 -0.8063
  207MOL0     H27940   4.542   9.637  10.342 -0.3178  0.7088 -1.6565
  207MOL0     H27941   4.523   9.332  10.329 -2.0377 -0.9144  0.4294
  207MOL0     H27942   4.453   9.418  10.467  0.8369 -1.0406  0.3794
  207MOL0     H27943   4.876   9.429  10.565 -0.2944  0.8570  0.1459
  207MOL0     H27944   4.393   9.085  10.103  0.8673  2.5636  0.6950
  207MOL0     H27945   4.306   8.953   9.917 -1.7641  0.7258 -1.4687
  208MOL0     O27946   1.791   3.436   5.043  0.7008  0.3875  0.2230
  208MOL0     C27947   1.880   3.432   5.124  0.9788 -0.2352 -0.5001
  208MOL0     O27948   1.860   3.433   5.262 -0.0743 -0.1378  0.5492
  208MOL0     C27949   1.733   3.451   5.298  0.1363 -0.0291 -0.2768
  208MOL0     C27950   1.682   3.581   5.306  0.3018 -0.1804  0.3158
  208MOL0     C27951   1.556   3.607   5.360 -0.1245 -0.1158  0.2035
  208MOL0     C27952   1.466   3.504   5.390  0.5123 -0.6152 -0.2897
  208MOL0     O27953   1.353   3.521   5.463 -0.1757  0.1706 -0.3852
  208MOL0     C27954   1.281   3.643   5.433  0.6907  0.5733  0.9554
  208MOL0     C27955   1.135   3.631   5.464 -1.1541  0.1375  0.1835
  208MOL0     C27956   1.043   3.738   5.397 -0.5880  0.2834  0.6820
  208MOL0     C27957   0.893   3.703   5.418 -0.3465  0.0554  0.4215
  208MOL0     C27958   0.785   3.811   5.388 -0.4190 -0.0226 -0.6050
  208MOL0     C27959   0.651   3.750   5.411  1.4784 -0.3503  0.4630
  208MOL0     C27960   0.534   3.842   5.400 -0.2353 -0.1122  0.0887
  208MOL0     C27961   0.398   3.794   5.375 -0.1701 -0.3114  0.2950
  208MOL0     N27962   0.293   3.896   5.397  0.9628  0.1914  0.3406
  208MOL0     C27963   0.242   3.979   5.299 -0.3089 -0.3689 -0.3487
  208MOL0     C27964   0.137   4.037   5.347 -0.2926 -0.7923  0.1236
  208MOL0     C27965   0.063   4.154   5.285  0.4339  0.5604  0.5692
  208MOL0     C27966   0.019   4.113   5.142  0.9621  0.8146 -0.4411
  208MOL0     C27967  -0.072   4.231   5.091  0.3479  0.2165 -0.9749
  208MOL0     C27968  -0.135   4.187   4.957 -0.6009  0.3819  0.4911
  208MOL0     O27969  -0.186   4.299   4.878  0.3159 -0.7546  1.0880
  208MOL0     C27970  -0.270   4.385   4.947 -0.4433 -0.4718 -0.6252
  208MOL0     C27971  -0.388   4.346   5.005  0.2048  1.3616 -0.0423
  208MOL0     C27972  -0.456   4.434   5.093  0.0841 -0.1486 -0.5784
  208MOL0     C27973  -0.579   4.386   5.156 -0.0068 -0.4888  0.2506
  208MOL0     C27974  -0.408   4.565   5.117 -0.4196  0.0812  0.4282
  208MOL0     C27975  -0.464   4.664   5.213  0.1158  0.1218 -0.7190
  208MOL0     O27976  -0.372   4.762   5.258 -0.3669  0.5943  0.4612
  208MOL0     C27977  -0.430   4.877   5.309 -0.4146  0.2773 -0.4759
  208MOL0     C27978  -0.550   4.932   5.263 -0.9401 -0.0741 -0.5976
  208MOL0     C27979  -0.596   5.061   5.310 -0.4606 -0.2834 -0.5085
  208MOL0     C27980  -0.531   5.123   5.418  0.1279 -0.7961 -0.2904
  208MOL0     O27981  -0.595   5.242   5.453  0.2712  0.5403  0.1868
  208MOL0     C27982  -0.534   5.342   5.541 -0.4584  0.0591  0.1365
  208MOL0     C27983  -0.596   5.486   5.519  0.5656  0.1318  0.2342
  208MOL0     C27984  -0.740   5.488   5.564 -0.3034 -0.2978 -0.0710
  208MOL0     C27985  -0.761   5.452   5.712  0.2921 -0.4124 -0.5027
  208MOL0     C27986  -0.893   5.514   5.772  0.0256  0.3631  0.3590
  208MOL0     C27987  -0.910   5.660   5.751 -0.7195 -0.0201  0.4919
  208MOL0     C27988  -1.015   5.722   5.850  0.0073 -0.0538  0.1162
  208MOL0     C27989  -1.042   5.873   5.824  0.5818 -0.8824 -0.1070
  208MOL0    Cl27990  -0.896   5.991   5.852  0.0034 -0.2531  0.2351
  208MOL0     C27991  -0.414   5.071   5.474 -0.1840  1.0180 -0.3174
  208MOL0     C27992  -0.360   4.947   5.417  0.0465 -0.6094  0.4461
  208MOL0     O27993  -0.581   4.649   5.262 -0.1836 -0.2607  0.8997
  208MOL0     C27994  -0.289   4.597   5.053 -0.8952 -0.6697 -0.7630
  208MOL0     C27995  -0.214   4.516   4.966 -0.3887 -0.4644 -0.1008
  208MOL0     N27996   0.118   3.992   5.474  0.0843  0.1017 -0.0769
  208MOL0     N27997   0.214   3.911   5.511 -0.3106 -0.1327  0.0415
  208MOL0     C27998   1.512   3.373   5.375  0.8690  0.4442 -0.5847
  208MOL0     C27999   1.643   3.347   5.333 -0.0291 -0.2567 -0.2024
  208MOL0     C28000   2.017   3.411   5.080  0.6921  0.2054 -0.2919
  208MOL0     C28001   2.127   3.408   5.168 -0.2155  0.7110 -0.4847
  208MOL0     C28002   2.256   3.363   5.128  0.1135 -0.1516  1.6355
  208MOL0     C28003   2.276   3.343   4.988  0.6653 -1.0728  0.3577
  208MOL0     O28004   2.399   3.336   4.936 -0.9034 -0.0769  0.9608
  208MOL0     C28005   2.447   3.462   4.882  0.5997  0.0037  0.1896
  208MOL0     C28006   2.590   3.454   4.837  0.1596  0.1793  1.3042
  208MOL0     C28007   2.607   3.380   4.702 -0.4080 -0.5920  0.8351
  208MOL0     C28008   2.691   3.256   4.716  0.6370  0.1313  0.1154
  208MOL0     C28009   2.832   3.290   4.762 -0.5661 -0.2552  1.0188
  208MOL0     C28010   2.951   3.316   4.785  1.0136  0.2088 -0.0960
  208MOL0     C28011   2.162   3.348   4.910 -0.3993  0.0090  1.6075
  208MOL0     C28012   2.042   3.394   4.944  0.2504  0.0549 -0.0367
  208MOL0     H28013   1.745   3.660   5.267  0.7184 -1.9199 -2.8714
  208MOL0     H28014   1.518   3.706   5.381  0.6040  0.0516  0.7566
  208MOL0     H28015   1.318   3.718   5.504  0.4852 -0.5180  2.2745
  208MOL0     H28016   1.284   3.667   5.327  1.8571 -0.0055  0.8337
  208MOL0     H28017   1.100   3.543   5.408 -1.1244  0.8828 -1.0374
  208MOL0     H28018   1.122   3.631   5.573  1.4361 -1.4339  0.5792
  208MOL0     H28019   1.081   3.833   5.436  3.5557  0.7733 -3.6292
  208MOL0     H28020   1.067   3.740   5.290  3.2173  0.7522  1.3884
  208MOL0     H28021   0.873   3.626   5.342 -2.2186  0.1953  0.7307
  208MOL0     H28022   0.884   3.657   5.516 -3.2530 -0.9582 -0.2299
  208MOL0     H28023   0.803   3.891   5.460  0.4623 -0.5029 -0.2789
  208MOL0     H28024   0.797   3.850   5.287 -1.2746 -0.7701 -1.0099
  208MOL0     H28025   0.623   3.674   5.338 -1.4312 -0.6669  1.7572
  208MOL0     H28026   0.635   3.709   5.511 -2.7074  1.4541  0.7288
  208MOL0     H28027   0.545   3.905   5.488  3.4155  0.8072 -0.8653
  208MOL0     H28028   0.547   3.916   5.320  0.5006 -0.2641  0.0662
  208MOL0     H28029   0.383   3.709   5.443  1.6049 -1.6998 -0.9501
  208MOL0     H28030   0.394   3.762   5.271  1.3112 -3.0825  0.9910
  208MOL0     H28031   0.274   3.992   5.196 -1.2736 -2.5538 -0.9861
  208MOL0     H28032  -0.023   4.181   5.348 -0.1950 -0.6639  0.2652
  208MOL0     H28033   0.126   4.241   5.265  2.0391 -0.6950 -0.0633
  208MOL0     H28034  -0.041   4.022   5.152  0.7676  0.9870 -0.0178
  208MOL0     H28035   0.102   4.096   5.072  0.0201 -3.2207 -0.8283
  208MOL0     H28036  -0.003   4.316   5.088  0.9922 -0.2749 -0.5994
  208MOL0     H28037  -0.151   4.259   5.162  0.2350 -2.5705  0.1395
  208MOL0     H28038  -0.218   4.120   4.984  0.9125 -0.5680  3.1720
  208MOL0     H28039  -0.066   4.129   4.895 -1.6070 -2.0461  1.5188
  208MOL0     H28040  -0.418   4.244   4.982  3.5517  0.4123 -0.8379
  208MOL0     H28041  -0.607   4.284   5.126  0.2837  0.0841 -2.2580
  208MOL0     H28042  -0.566   4.376   5.264 -0.8665 -2.5499  0.2145
  208MOL0     H28043  -0.665   4.450   5.132 -0.0134 -0.2079  1.0094
  208MOL0     H28044  -0.600   4.886   5.179  0.7855  1.4217 -2.5662
  208MOL0     H28045  -0.685   5.103   5.265  0.2075 -1.5604 -3.1853
  208MOL0     H28046  -0.544   5.318   5.648  2.1868 -2.7932 -0.1157
  208MOL0     H28047  -0.427   5.350   5.520  0.2207 -0.9511  2.7523
  208MOL0     H28048  -0.537   5.568   5.562 -1.5196  1.0018  1.5522
  208MOL0     H28049  -0.606   5.488   5.410 -0.6683  0.3305  0.3422
  208MOL0     H28050  -0.796   5.420   5.500  0.6408  0.2991 -1.5822
  208MOL0     H28051  -0.784   5.586   5.541  1.3515  0.8865  1.4839
  208MOL0     H28052  -0.763   5.344   5.731  0.9990 -0.1055  1.6391
  208MOL0     H28053  -0.679   5.498   5.769  1.1314 -0.1520 -1.8897
  208MOL0     H28054  -0.895   5.492   5.879  2.8067  0.3226  0.4643
  208MOL0     H28055  -0.975   5.462   5.720  0.5187 -0.0497 -0.0171
  208MOL0     H28056  -0.818   5.715   5.772 -0.8462  0.1787  0.5298
  208MOL0     H28057  -0.949   5.678   5.650 -2.1665  0.0521  1.0530
  208MOL0     H28058  -0.985   5.710   5.955  0.1486  0.4288  0.1366
  208MOL0     H28059  -1.111   5.673   5.837 -1.1011  1.7765  1.0157
  208MOL0     H28060  -1.119   5.919   5.886 -1.2038  0.1774 -2.9376
  208MOL0     H28061  -1.088   5.887   5.726  1.1411 -0.3796 -0.3041
  208MOL0     H28062  -0.363   5.117   5.558  1.6616  2.0669 -1.9243
  208MOL0     H28063  -0.268   4.899   5.446 -0.3287 -1.8209 -0.2876
  208MOL0     H28064  -0.253   4.699   5.061  0.6869 -1.2525 -0.0712
  208MOL0     H28065  -0.121   4.544   4.918  0.2998 -2.3229  0.0932
  208MOL0     H28066   1.441   3.293   5.389 -1.4537  1.9102 -3.0211
  208MOL0     H28067   1.672   3.243   5.317  0.7448 -0.6507  3.0537
  208MOL0     H28068   2.119   3.425   5.275  0.9941 -1.0622 -0.0554
  208MOL0     H28069   2.328   3.350   5.209  0.3129  0.4004  1.5513
  208MOL0     H28070   2.378   3.478   4.798 -1.3946 -0.5340  1.6382
  208MOL0     H28071   2.437   3.552   4.944 -1.4999  1.6072 -2.2451
  208MOL0     H28072   2.645   3.385   4.902  1.0712 -1.8027 -1.3687
  208MOL0     H28073   2.646   3.548   4.838 -0.0297  0.2912  2.1345
  208MOL0     H28074   2.655   3.441   4.625 -2.6077  2.4026  1.6708
  208MOL0     H28075   2.508   3.350   4.666  0.7673  0.8642 -4.5100
  208MOL0     H28076   2.701   3.207   4.618  2.7330 -1.7413  1.1807
  208MOL0     H28077   2.644   3.188   4.787  3.2904  0.4764  2.3462
  208MOL0     H28078   3.054   3.333   4.807  0.2363  1.7988  2.7503
  208MOL0     H28079   2.178   3.319   4.807 -2.0968  0.3027  1.2301
  208MOL0     H28080   1.976   3.407   4.859  1.2099 -3.1004 -1.4183
  209MOL0     O28081   6.141   1.790   9.364  0.1162  0.2894  0.7262
  209MOL0     C28082   6.189   1.870   9.436 -0.5981 -0.4941  0.0369
  209MOL0     O28083   6.153   2.000   9.442 -0.1575  0.6285  0.3058
  209MOL0     C28084   6.048   2.053   9.377  0.2672 -0.6417 -0.1025
  209MOL0     C28085   5.969   2.156   9.442 -0.6086  0.3874 -0.9857
  209MOL0     C28086   5.861   2.215   9.376 -0.5452 -0.4425 -0.3769
  209MOL0     C28087   5.829   2.182   9.243  0.1275  0.1212 -0.1292
  209MOL0     O28088   5.722   2.238   9.182  0.5720 -0.2911  0.1465
  209MOL0     C28089   5.746   2.307   9.054  0.1570 -0.2505  0.2730
  209MOL0     C28090   5.639   2.422   9.039  0.1989 -0.2222 -0.4344
  209MOL0     C28091   5.502   2.352   9.046  0.5215 -0.1387  0.1740
  209MOL0     C28092   5.398   2.476   9.057  0.2236 -0.2996  1.3281
  209MOL0     C28093   5.379   2.527   8.910  1.0740  0.2818  0.6864
  209MOL0     C28094   5.271   2.636   8.911 -0.0427 -0.2824  0.9293
  209MOL0     C28095   5.307   2.762   8.986 -1.3042  0.0081  0.5913
  209MOL0     C28096   5.227   2.888   8.941  0.1762  0.8949 -0.3251
  209MOL0     N28097   5.086   2.885   8.987 -0.2999 -0.5773 -0.1736
  209MOL0     C28098   4.989   2.816   8.923  0.1290  1.2698 -0.7620
  209MOL0     C28099   4.890   2.808   9.014  0.7733  0.2922 -0.7332
  209MOL0     C28100   4.752   2.758   8.976  0.0159 -0.0521  0.1497
  209MOL0     C28101   4.650   2.866   8.933 -0.6861  0.8418  0.9943
  209MOL0     C28102   4.580   2.931   9.040  0.6948 -1.1447  0.3647
  209MOL0     C28103   4.459   3.028   8.998 -0.0691 -0.6861 -0.7781
  209MOL0     O28104   4.344   2.962   8.949 -0.5691 -0.9253  0.4749
  209MOL0     C28105   4.220   3.016   8.970 -0.4613 -0.6376 -0.4300
  209MOL0     C28106   4.115   2.927   8.939 -0.2576 -0.5011  0.1810
  209MOL0     C28107   3.984   2.972   8.942  0.3773 -1.3351 -0.4738
  209MOL0     C28108   3.883   2.868   8.901  0.3823  0.7380  0.0651
  209MOL0     C28109   3.952   3.103   8.974 -0.2177 -0.4235 -0.1829
  209MOL0     C28110   3.807   3.163   8.973  0.5032  0.0229  0.1290
  209MOL0     O28111   3.696   3.081   8.936 -0.0537 -0.5825  0.1879
  209MOL0     C28112   3.559   3.126   8.934 -0.6405 -0.2697 -0.2256
  209MOL0     C28113   3.507   3.265   8.949 -0.8052 -0.1086  0.5551
  209MOL0     C28114   3.373   3.299   8.963 -0.5091 -0.1645 -1.6364
  209MOL0     C28115   3.273   3.198   8.974 -0.5896 -0.4391  0.1170
  209MOL0     O28116   3.138   3.224   9.003 -0.3710  0.2748  0.2532
  209MOL0     C28117   3.043   3.130   8.968  0.6366 -0.2296 -0.1723
  209MOL0     C28118   2.900   3.161   8.999 -0.0259  0.5744 -0.2458
  209MOL0     C28119   2.885   3.157   9.149 -0.2834 -0.3772 -0.8900
  209MOL0     C28120   2.735   3.185   9.189 -0.1260 -0.2538 -0.9637
  209MOL0     C28121   2.706   3.130   9.327  0.6425  0.6955  0.6898
  209MOL0     C28122   2.558   3.177   9.347 -0.3231 -0.0604 -0.2574
  209MOL0     C28123   2.508   3.162   9.492 -0.0917  0.1265  0.2844
  209MOL0     C28124   2.390   3.258   9.506  0.2654 -0.3702  0.6768
  209MOL0    Cl28125   2.249   3.162   9.433 -0.1342  0.2633  0.3564
  209MOL0     C28126   3.324   3.066   8.956  0.4137 -0.2625  0.1048
  209MOL0     C28127   3.458   3.035   8.940 -0.1463  0.5194  0.2453
  209MOL0     O28128   3.795   3.282   9.001 -0.6306 -0.2576 -0.2374
  209MOL0     C28129   4.059   3.192   8.999  0.2447 -0.1759 -0.4751
  209MOL0     C28130   4.191   3.142   9.003 -1.0584 -0.3714  0.4416
  209MOL0     N28131   4.927   2.878   9.129  0.0873  0.4835 -0.7320
  209MOL0     N28132   5.051   2.922   9.113 -0.4937 -0.2446  0.2980
  209MOL0     C28133   5.903   2.084   9.185  0.0694 -0.4504  0.5338
  209MOL0     C28134   6.013   2.023   9.243 -0.0685  0.3150  0.0038
  209MOL0     C28135   6.327   1.838   9.483  0.5406 -0.2479 -0.2010
  209MOL0     C28136   6.391   1.726   9.443 -0.1394  0.1535  0.4567
  209MOL0     C28137   6.519   1.706   9.497 -0.8659 -0.0780  0.1083
  209MOL0     C28138   6.577   1.788   9.585  0.1777  0.2632 -0.1889
  209MOL0     O28139   6.701   1.751   9.625  0.1341 -0.0169  0.3724
  209MOL0     C28140   6.778   1.832   9.713  0.3799  0.2831 -0.7786
  209MOL0     C28141   6.853   1.755   9.819  0.3408 -0.0978  0.0680
  209MOL0     C28142   6.757   1.675   9.899 -0.5022 -0.4197  0.4639
  209MOL0     C28143   6.853   1.597   9.994 -0.3714  0.5204 -0.8634
  209MOL0     C28144   6.783   1.496  10.073  0.5635  0.4061 -0.2573
  209MOL0     C28145   6.720   1.422  10.141  0.4400 -0.4453 -0.0541
  209MOL0     C28146   6.519   1.910   9.612  0.2221  0.0525  0.1801
  209MOL0     C28147   6.394   1.932   9.565  0.5135  0.1307 -0.3645
  209MOL0     H28148   6.001   2.183   9.543 -0.0122 -3.4202  0.0086
  209MOL0     H28149   5.807   2.279   9.445  0.4365 -3.1277  3.1818
  209MOL0     H28150   5.848   2.346   9.056 -0.4379  1.3771  1.8819
  209MOL0     H28151   5.730   2.232   8.976 -5.1340 -0.6464  1.3316
  209MOL0     H28152   5.640   2.493   9.122  1.7684 -0.5821 -0.1134
  209MOL0     H28153   5.653   2.481   8.948  1.6065  0.5841  0.2626
  209MOL0     H28154   5.490   2.294   8.954  3.7839 -4.4421  2.1027
  209MOL0     H28155   5.493   2.283   9.131 -0.6208  2.2225  2.1049
  209MOL0     H28156   5.305   2.436   9.097  0.3287 -1.2591  0.6534
  209MOL0     H28157   5.431   2.555   9.125  3.8594  0.1575 -0.6889
  209MOL0     H28158   5.472   2.575   8.877  1.2605  1.7216  3.0929
  209MOL0     H28159   5.347   2.450   8.839  0.3944 -1.8368  3.1776
  209MOL0     H28160   5.250   2.659   8.806 -0.7475 -2.5717  0.4986
  209MOL0     H28161   5.184   2.591   8.959 -1.9097  2.0712 -0.0603
  209MOL0     H28162   5.281   2.745   9.091  4.4304 -1.6011  2.1235
  209MOL0     H28163   5.411   2.781   8.956 -0.5442 -2.5430  1.3012
  209MOL0     H28164   5.237   2.899   8.832  0.2008 -0.5739 -0.4993
  209MOL0     H28165   5.276   2.981   8.970  1.8380  0.9812 -3.0528
  209MOL0     H28166   5.004   2.777   8.823  3.1259 -0.0112  0.0997
  209MOL0     H28167   4.770   2.700   8.885  1.0808  0.6538 -0.1114
  209MOL0     H28168   4.715   2.687   9.050  1.7984 -1.6111 -0.3638
  209MOL0     H28169   4.580   2.812   8.867  0.5443  0.3681  0.0349
  209MOL0     H28170   4.691   2.947   8.873  0.7759  0.8057  1.8966
  209MOL0     H28171   4.645   2.995   9.101  0.0059 -1.4004  1.4009
  209MOL0     H28172   4.545   2.866   9.120  1.7753 -0.6452  1.2746
  209MOL0     H28173   4.501   3.090   8.917 -3.2844  0.1330 -1.9681
  209MOL0     H28174   4.437   3.087   9.087 -0.3338 -1.2173 -0.4941
  209MOL0     H28175   4.134   2.829   8.895  1.9907  0.2586 -0.7028
  209MOL0     H28176   3.818   2.857   8.988  2.5134  0.8934  1.7634
  209MOL0     H28177   3.823   2.891   8.813 -0.7442  2.0796  1.1312
  209MOL0     H28178   3.931   2.771   8.883  1.7393  1.1681  1.1945
  209MOL0     H28179   3.569   3.354   8.946 -0.2014 -0.5076  0.9844
  209MOL0     H28180   3.354   3.405   8.973 -1.9228 -0.6366  2.1141
  209MOL0     H28181   3.058   3.119   8.860  1.0503 -2.3430  0.0610
  209MOL0     H28182   3.060   3.036   9.020  2.4715  0.7334  1.0588
  209MOL0     H28183   2.881   3.261   8.958  1.2684 -0.1330 -2.7506
  209MOL0     H28184   2.837   3.088   8.948  0.5096  0.7281 -1.1362
  209MOL0     H28185   2.956   3.218   9.205 -0.8289 -1.9326  1.6879
  209MOL0     H28186   2.893   3.051   9.178 -2.3752 -0.3214  0.0630
  209MOL0     H28187   2.724   3.293   9.198 -0.4424 -0.4001  0.9828
  209MOL0     H28188   2.675   3.136   9.112 -1.1712 -3.5726  1.7083
  209MOL0     H28189   2.775   3.176   9.398  0.9347  3.3447 -1.1905
  209MOL0     H28190   2.722   3.022   9.341  1.4308  0.0688 -3.5997
  209MOL0     H28191   2.552   3.283   9.320  2.0417 -0.0066 -0.8006
  209MOL0     H28192   2.490   3.133   9.274 -1.5376  2.0235 -0.4577
  209MOL0     H28193   2.593   3.183   9.559  2.0203 -2.9630 -1.1575
  209MOL0     H28194   2.476   3.060   9.516 -0.0798  0.3321  1.2226
  209MOL0     H28195   2.404   3.353   9.455  0.7359  0.0405  1.5486
  209MOL0     H28196   2.373   3.286   9.611 -2.1908 -1.1809  0.5701
  209MOL0     H28197   3.263   2.976   8.961 -0.4291  0.3565  1.6791
  209MOL0     H28198   3.486   2.930   8.929 -0.5213  0.5488 -1.2417
  209MOL0     H28199   4.026   3.291   9.028  0.2699 -0.9638  2.6052
  209MOL0     H28200   4.272   3.213   9.015  0.1192 -1.1878 -1.9720
  209MOL0     H28201   5.861   2.058   9.088 -2.2909  5.1425 -0.3333
  209MOL0     H28202   6.077   1.952   9.191  0.3565  1.1446 -0.6482
  209MOL0     H28203   6.336   1.651   9.387 -1.5402  1.3527  0.1728
  209MOL0     H28204   6.566   1.611   9.473 -1.9803 -0.5843 -0.1739
  209MOL0     H28205   6.836   1.904   9.654  1.4557  0.8554  0.8970
  209MOL0     H28206   6.725   1.896   9.785 -0.5186 -1.5119  0.2200
  209MOL0     H28207   6.904   1.828   9.882 -1.8604  1.1153  0.5552
  209MOL0     H28208   6.927   1.698   9.763  1.6317 -0.1167  1.7174
  209MOL0     H28209   6.702   1.598   9.845 -0.2965 -0.1251 -0.1727
  209MOL0     H28210   6.682   1.736   9.951  0.3175  1.1096 -0.0685
  209MOL0     H28211   6.908   1.664  10.060  1.3687 -1.5716 -0.0757
  209MOL0     H28212   6.927   1.534   9.943  0.8371  1.3604 -0.2031
  209MOL0     H28213   6.667   1.353  10.205 -0.7462 -0.7017 -1.2862
  209MOL0     H28214   6.569   1.988   9.668  0.0194  0.4525 -0.1934
  209MOL0     H28215   6.344   2.021   9.604 -0.4440 -0.7824  0.5578
  210MOL0     O28216   1.040   9.118   3.729  0.2503 -1.0722 -0.5674
  210MOL0     C28217   1.091   9.126   3.614  0.1442 -0.6623 -1.6500
  210MOL0     O28218   1.027   9.123   3.502 -0.2978  0.1299  1.2961
  210MOL0     C28219   0.892   9.116   3.504 -0.3795  0.9611  0.4180
  210MOL0     C28220   0.832   9.193   3.402 -0.5333  1.3105 -0.7114
  210MOL0     C28221   0.696   9.183   3.385 -0.0031  0.1776 -0.2796
  210MOL0     C28222   0.617   9.098   3.467  0.5666 -0.5032  0.2007
  210MOL0     O28223   0.483   9.082   3.436  0.2776 -0.4100  0.1133
  210MOL0     C28224   0.410   9.197   3.496  0.2938  0.4786 -0.6997
  210MOL0     C28225   0.262   9.170   3.511 -0.2530 -0.4568 -0.0598
  210MOL0     C28226   0.182   9.293   3.495 -0.0549 -0.0938  0.3199
  210MOL0     C28227   0.030   9.260   3.480 -0.3138 -0.1336 -0.0910
  210MOL0     C28228  -0.050   9.386   3.433 -0.5383 -0.5797 -0.2513
  210MOL0     C28229  -0.188   9.348   3.379 -1.0690 -0.4733 -0.5179
  210MOL0     C28230  -0.256   9.240   3.475  0.2895 -0.1160 -0.3277
  210MOL0     C28231  -0.389   9.206   3.418  0.1925 -0.5183 -0.6233
  210MOL0     N28232  -0.493   9.293   3.468 -0.7161  0.4233  0.7403
  210MOL0     C28233  -0.567   9.364   3.383  0.0035 -0.6570 -0.3539
  210MOL0     C28234  -0.655   9.434   3.455  0.5774  0.0082  0.1593
  210MOL0     C28235  -0.764   9.529   3.406  0.7141 -0.8045  0.6211
  210MOL0     C28236  -0.835   9.465   3.287  0.3069  0.4406 -0.3181
  210MOL0     C28237  -0.911   9.326   3.313  0.6504  0.1182 -1.1870
  210MOL0     C28238  -1.030   9.330   3.409  0.2354  0.3759  0.0254
  210MOL0     O28239  -1.137   9.405   3.350 -0.8354 -0.0136 -0.4718
  210MOL0     C28240  -1.245   9.451   3.418 -0.0092  0.3473 -0.7085
  210MOL0     C28241  -1.250   9.487   3.553  0.1010  0.1197  0.8898
  210MOL0     C28242  -1.373   9.537   3.602 -0.1213 -0.3505  0.0785
  210MOL0     C28243  -1.355   9.600   3.744  0.0861  0.8520  0.2299
  210MOL0     C28244  -1.488   9.555   3.515  0.4426  0.6398 -1.3103
  210MOL0     C28245  -1.622   9.594   3.570  0.0831 -0.1984  0.8447
  210MOL0     O28246  -1.653   9.575   3.705  0.3344 -0.9625 -0.5010
  210MOL0     C28247  -1.741   9.667   3.771 -0.6238  0.1463 -0.5728
  210MOL0     C28248  -1.815   9.614   3.879 -0.0099 -0.9481 -0.4910
  210MOL0     C28249  -1.912   9.699   3.921  0.8347 -0.3276 -0.1954
  210MOL0     C28250  -1.936   9.834   3.892 -0.2654 -0.2248 -0.2223
  210MOL0     O28251  -2.025   9.915   3.961 -0.3364 -0.3988  0.0225
  210MOL0     C28252  -2.150   9.868   3.994  0.3020 -0.4112  0.3650
  210MOL0     C28253  -2.244   9.983   3.960 -0.2183  0.1570  0.6919
  210MOL0     C28254  -2.393   9.971   3.993  0.1563  0.2854 -0.3023
  210MOL0     C28255  -2.464  10.110   3.981  0.3068 -0.6517  0.3673
  210MOL0     C28256  -2.473  10.181   4.120 -0.0669  0.2806  0.6790
  210MOL0     C28257  -2.552  10.312   4.110 -0.0698  0.1197 -0.0932
  210MOL0     C28258  -2.542  10.388   4.252 -0.2780 -0.0747 -1.0715
  210MOL0     C28259  -2.566  10.295   4.379 -0.9843  0.2282 -0.8308
  210MOL0    Cl28260  -2.615  10.395   4.525  0.1808 -0.6912 -0.4689
  210MOL0     C28261  -1.851   9.889   3.794 -0.4551  0.6207  0.1378
  210MOL0     C28262  -1.764   9.798   3.729  0.3660 -0.5190 -0.9378
  210MOL0     O28263  -1.699   9.646   3.486  0.6492  0.3609  1.3316
  210MOL0     C28264  -1.470   9.523   3.385  0.7891 -0.2673  0.4423
  210MOL0     C28265  -1.355   9.455   3.338  0.1060  0.7029 -0.4436
  210MOL0     N28266  -0.643   9.395   3.585 -0.3015 -0.5461  0.2024
  210MOL0     N28267  -0.546   9.313   3.597  0.1097 -0.4367 -0.3983
  210MOL0     C28268   0.683   9.016   3.561  0.8714  0.1878 -0.0010
  210MOL0     C28269   0.822   9.021   3.579 -0.4060 -0.1022  0.2839
  210MOL0     C28270   1.245   9.110   3.602 -0.4396  0.4021 -0.0404
  210MOL0     C28271   1.303   9.118   3.475 -1.2364  0.8034 -0.5666
  210MOL0     C28272   1.446   9.115   3.462  0.4741  0.3812 -0.4572
  210MOL0     C28273   1.517   9.098   3.585 -0.0488  0.9259  0.2246
  210MOL0     O28274   1.651   9.092   3.581  0.2655  0.6383 -0.6307
  210MOL0     C28275   1.713   8.977   3.645 -0.8915 -0.0479 -0.5748
  210MOL0     C28276   1.708   8.850   3.562  1.1311  0.4718 -0.8681
  210MOL0     C28277   1.717   8.863   3.406 -0.3488 -0.7358  0.0216
  210MOL0     C28278   1.828   8.956   3.350 -0.5353  0.1352 -0.0989
  210MOL0     C28279   1.846   8.938   3.202  0.3550 -0.6716 -0.2127
  210MOL0     C28280   1.861   8.929   3.086 -0.8534  0.0669 -0.1048
  210MOL0     C28281   1.459   9.095   3.710  0.2988  0.4997  0.1849
  210MOL0     C28282   1.321   9.091   3.713 -0.2257  0.2297  0.4776
  210MOL0     H28283   0.893   9.258   3.341  0.8707  0.7915  0.0984
  210MOL0     H28284   0.642   9.246   3.314  1.3711  1.6499 -0.0583
  210MOL0     H28285   0.454   9.226   3.592 -0.1759 -0.8361 -0.0492
  210MOL0     H28286   0.420   9.279   3.426 -1.9727  1.0233 -0.4661
  210MOL0     H28287   0.240   9.107   3.424 -0.8515  2.1297 -1.8773
  210MOL0     H28288   0.231   9.114   3.600  1.7405  0.4557  1.2576
  210MOL0     H28289   0.207   9.365   3.574 -1.1221 -1.2867  1.7904
  210MOL0     H28290   0.216   9.331   3.398 -0.3557  2.0982  1.0059
  210MOL0     H28291   0.009   9.178   3.412 -4.7074  1.0398 -0.4446
  210MOL0     H28292   0.000   9.236   3.582 -0.0361 -1.1003 -0.2311
  210MOL0     H28293  -0.065   9.456   3.516 -1.6233  0.3340 -1.1879
  210MOL0     H28294   0.010   9.426   3.351  0.3520 -0.2693  0.5359
  210MOL0     H28295  -0.235   9.446   3.368 -0.9005  0.1930  3.2022
  210MOL0     H28296  -0.175   9.304   3.280 -2.4061  2.4224 -2.1090
  210MOL0     H28297  -0.193   9.151   3.477 -0.3023 -0.6333 -2.1952
  210MOL0     H28298  -0.265   9.274   3.578 -0.3158  1.7469 -0.9525
  210MOL0     H28299  -0.406   9.100   3.441  0.8933 -0.6656 -0.7493
  210MOL0     H28300  -0.382   9.224   3.310 -0.7278  2.5325 -0.2731
  210MOL0     H28301  -0.560   9.367   3.275  2.8273 -0.4669 -0.2364
  210MOL0     H28302  -0.830   9.560   3.488 -0.2212 -3.8263  1.1602
  210MOL0     H28303  -0.715   9.619   3.368 -1.1479  0.1498  0.3407
  210MOL0     H28304  -0.758   9.457   3.210 -0.4201  2.2148 -1.2956
  210MOL0     H28305  -0.905   9.542   3.254 -0.0643  0.6013  0.7937
  210MOL0     H28306  -0.844   9.258   3.366 -2.4508 -1.7265  0.6658
  210MOL0     H28307  -0.958   9.274   3.229 -0.9825  1.1321 -0.9562
  210MOL0     H28308  -0.999   9.375   3.504  1.1376 -0.1467 -0.0157
  210MOL0     H28309  -1.056   9.225   3.417  0.5745  0.1222 -1.8108
  210MOL0     H28310  -1.157   9.484   3.608  0.3566  2.0831  0.6430
  210MOL0     H28311  -1.250   9.623   3.763 -0.1097 -0.7829  4.3265
  210MOL0     H28312  -1.413   9.692   3.750 -1.4044 -0.0452 -0.0440
  210MOL0     H28313  -1.391   9.534   3.824  4.5589 -0.7659  1.2596
  210MOL0     H28314  -1.795   9.520   3.929 -0.1614 -1.3319 -1.1471
  210MOL0     H28315  -1.959   9.662   4.011  0.0309  0.4332 -0.2896
  210MOL0     H28316  -2.173   9.775   3.941 -0.8093 -0.9808  1.7753
  210MOL0     H28317  -2.170   9.850   4.100 -2.2182  1.5391  0.3126
  210MOL0     H28318  -2.200  10.067   4.015  0.6219 -0.5578  1.1241
  210MOL0     H28319  -2.233  10.006   3.853 -2.7626 -1.0205  0.0970
  210MOL0     H28320  -2.407   9.912   4.084  2.0025 -0.8138 -0.6810
  210MOL0     H28321  -2.438   9.913   3.912 -0.6910  0.3905  0.0710
  210MOL0     H28322  -2.396  10.168   3.917  0.5058 -1.4477 -0.1594
  210MOL0     H28323  -2.560  10.109   3.928  0.0492  1.5749  0.6858
  210MOL0     H28324  -2.367  10.206   4.134  1.2812 -2.4768 -3.0020
  210MOL0     H28325  -2.512  10.110   4.194 -1.5550  0.6186  0.2552
  210MOL0     H28326  -2.516  10.375   4.028 -0.4763  1.1935  0.5315
  210MOL0     H28327  -2.656  10.286   4.088  0.4948 -0.7962 -1.9058
  210MOL0     H28328  -2.624  10.460   4.256 -0.5677 -0.3841 -1.3565
  210MOL0     H28329  -2.456  10.455   4.264  0.0926 -0.7964  0.4532
  210MOL0     H28330  -2.476  10.236   4.400 -0.4929  1.0295 -0.6338
  210MOL0     H28331  -2.655  10.234   4.362 -0.9267  0.2865 -1.3474
  210MOL0     H28332  -1.860   9.996   3.780 -1.0858  0.6000  0.3545
  210MOL0     H28333  -1.706   9.839   3.648  0.5561  1.5088  0.1601
  210MOL0     H28334  -1.553   9.536   3.316  0.7761  2.3748  0.8654
  210MOL0     H28335  -1.349   9.411   3.239 -0.6725 -0.0947 -0.1481
  210MOL0     H28336   0.628   8.945   3.622 -0.0458  1.3209  0.5425
  210MOL0     H28337   0.866   8.954   3.651 -2.2909  1.3171  2.9648
  210MOL0     H28338   1.251   9.127   3.380 -0.4947  2.6650 -0.8379
  210MOL0     H28339   1.504   9.136   3.373  2.4644 -0.9037  0.4877
  210MOL0     H28340   1.821   8.989   3.648 -0.4934 -3.0360  2.0456
  210MOL0     H28341   1.689   8.968   3.751  2.3844  0.6340  0.3226
  210MOL0     H28342   1.615   8.802   3.594  2.1774  0.5859  2.7252
  210MOL0     H28343   1.782   8.780   3.600  0.0241 -0.8294 -1.0231
  210MOL0     H28344   1.619   8.887   3.365  0.0957  1.1107 -0.0314
  210MOL0     H28345   1.742   8.763   3.369 -0.4227 -1.3608  1.5872
  210MOL0     H28346   1.918   8.925   3.403 -1.0252 -2.3023 -0.5522
  210MOL0     H28347   1.811   9.061   3.374 -3.6062  0.0552 -1.4127
  210MOL0     H28348   1.878   8.925   2.980 -2.2309 -2.0757 -0.3080
  210MOL0     H28349   1.521   9.094   3.799  2.8129  2.8186 -1.3812
  210MOL0     H28350   1.263   9.102   3.804  1.3781  1.2303  1.4307
  211MOL0     O28351   3.962   0.642   1.499 -0.3276  0.0038 -0.5005
  211MOL0     C28352   4.032   0.573   1.425  1.1131  0.9390  0.2515
  211MOL0     O28353   3.986   0.456   1.369  0.2784  0.2537  0.3447
  211MOL0     C28354   3.865   0.398   1.416 -0.4036 -0.1101 -0.4552
  211MOL0     C28355   3.745   0.462   1.451 -0.7199 -0.6792  0.6493
  211MOL0     C28356   3.638   0.389   1.499  0.5976  0.9905  0.3471
  211MOL0     C28357   3.641   0.251   1.510  0.5071  0.8020  0.6053
  211MOL0     O28358   3.540   0.163   1.524  0.1112 -0.3204 -0.0132
  211MOL0     C28359   3.415   0.215   1.568 -0.4300  0.2045 -0.2909
  211MOL0     C28360   3.310   0.109   1.580 -0.2945 -0.3699 -0.3265
  211MOL0     C28361   3.225   0.081   1.459  0.0737 -0.5913 -0.1661
  211MOL0     C28362   3.281  -0.026   1.369 -0.4915 -0.1560 -0.0599
  211MOL0     C28363   3.213  -0.035   1.233 -0.5422 -0.4254  0.1785
  211MOL0     C28364   3.073  -0.090   1.243 -0.2367 -0.0526 -0.0470
  211MOL0     C28365   2.989  -0.043   1.126 -0.3861  0.0992 -0.1023
  211MOL0     C28366   2.933   0.100   1.165 -0.1357 -0.7605 -0.3584
  211MOL0     N28367   2.812   0.128   1.086 -0.6155 -0.3636  0.1070
  211MOL0     C28368   2.811   0.134   0.945  0.7679 -0.2291 -0.7146
  211MOL0     C28369   2.688   0.184   0.912  0.3014  0.7031 -0.0867
  211MOL0     C28370   2.632   0.195   0.771 -0.1526 -0.5545  0.4754
  211MOL0     C28371   2.629   0.075   0.674  0.7782 -0.3587  0.0348
  211MOL0     C28372   2.594  -0.053   0.753  0.1706 -0.5897 -0.4877
  211MOL0     C28373   2.471  -0.117   0.699 -0.0195  0.6702 -0.4397
  211MOL0     O28374   2.368  -0.038   0.745  0.5611  0.1540 -0.3260
  211MOL0     C28375   2.247  -0.096   0.701 -0.3354  0.4315  0.5452
  211MOL0     C28376   2.227  -0.230   0.658  0.1687 -0.1177  0.1881
  211MOL0     C28377   2.092  -0.274   0.641 -0.0710  0.2781  0.0568
  211MOL0     C28378   2.083  -0.403   0.556  1.1360 -0.5771 -0.5499
  211MOL0     C28379   1.983  -0.196   0.674  0.0116  0.2615  0.1874
  211MOL0     C28380   1.837  -0.235   0.668 -0.6895  0.1434  0.0918
  211MOL0     O28381   1.803  -0.352   0.615 -0.1906 -0.0304  0.2808
  211MOL0     C28382   1.670  -0.387   0.615  0.2734 -0.1028  0.3725
  211MOL0     C28383   1.618  -0.447   0.726  0.0417  0.6526 -0.4963
  211MOL0     C28384   1.487  -0.506   0.723  0.0058  0.4665 -1.3337
  211MOL0     C28385   1.399  -0.479   0.613 -0.0776 -0.2492 -0.5760
  211MOL0     O28386   1.274  -0.533   0.613  0.2320 -0.2581  0.3296
  211MOL0     C28387   1.168  -0.451   0.556 -0.7518 -0.5987 -0.3619
  211MOL0     C28388   1.093  -0.383   0.672 -0.0738  0.7363  0.1823
  211MOL0     C28389   0.998  -0.480   0.753 -0.8211 -0.3519 -0.2916
  211MOL0     C28390   1.089  -0.583   0.827  0.5430 -0.1789  0.4345
  211MOL0     C28391   0.999  -0.641   0.942 -0.4620 -0.4585 -0.5190
  211MOL0     C28392   1.044  -0.782   0.983  0.3745  0.3397 -0.6255
  211MOL0     C28393   1.007  -0.792   1.137 -0.0037  0.0932  0.5360
  211MOL0     C28394   1.045  -0.933   1.189  0.3390 -0.1316  0.7083
  211MOL0    Cl28395   1.227  -0.941   1.206 -0.7705 -0.0095  0.4353
  211MOL0     C28396   1.454  -0.410   0.510  0.5319 -0.1023 -0.2712
  211MOL0     C28397   1.590  -0.365   0.502 -0.1682  0.2388  0.0787
  211MOL0     O28398   1.763  -0.161   0.726  0.1857  0.2578  0.6754
  211MOL0     C28399   2.006  -0.064   0.702  0.1165 -0.4593  0.3912
  211MOL0     C28400   2.134  -0.013   0.724 -0.0946 -0.9615  0.1050
  211MOL0     N28401   2.615   0.184   1.028  0.0824 -0.1997 -0.3146
  211MOL0     N28402   2.688   0.162   1.138 -0.3797  0.3882  0.2679
  211MOL0     C28403   3.767   0.189   1.475  0.7277 -0.7749  0.4422
  211MOL0     C28404   3.874   0.258   1.435 -0.2353 -0.9443  0.5986
  211MOL0     C28405   4.164   0.631   1.397  0.6047 -0.3697  0.3862
  211MOL0     C28406   4.213   0.744   1.461  1.3960  0.5579 -0.0872
  211MOL0     C28407   4.335   0.798   1.430  0.3825 -0.9639  0.3479
  211MOL0     C28408   4.418   0.716   1.353 -0.5098 -0.8157  0.2835
  211MOL0     O28409   4.545   0.769   1.329  0.2466 -0.1596  0.4810
  211MOL0     C28410   4.645   0.688   1.254 -0.5877 -1.3100 -0.2095
  211MOL0     C28411   4.769   0.771   1.242  0.7844 -0.8408 -0.9588
  211MOL0     C28412   4.759   0.860   1.121  0.0794  0.1435  0.1255
  211MOL0     C28413   4.880   0.950   1.112 -0.2096  0.3283  0.0645
  211MOL0     C28414   4.864   1.037   0.996 -0.8759  0.0247 -0.5245
  211MOL0     C28415   4.870   1.122   0.914 -0.4639  1.3397  1.0332
  211MOL0     C28416   4.374   0.600   1.295 -0.1542  0.1610  0.5455
  211MOL0     C28417   4.245   0.558   1.317 -0.7164 -0.1868  0.5322
  211MOL0     H28418   3.735   0.569   1.437  0.3497 -0.6241  0.2537
  211MOL0     H28419   3.546   0.445   1.514 -0.4996 -0.5310 -0.4026
  211MOL0     H28420   3.419   0.258   1.668 -3.2678  2.9913 -1.2066
  211MOL0     H28421   3.374   0.292   1.502 -0.2573 -0.1339 -0.8020
  211MOL0     H28422   3.352   0.012   1.610 -2.6759 -1.4252 -0.2014
  211MOL0     H28423   3.243   0.131   1.664 -1.5677 -0.6710 -1.2438
  211MOL0     H28424   3.134   0.037   1.503 -0.6848  1.7168  0.7295
  211MOL0     H28425   3.201   0.174   1.407 -0.6508 -0.0546  1.0769
  211MOL0     H28426   3.386   0.001   1.349 -0.6055 -0.3238 -0.9174
  211MOL0     H28427   3.278  -0.126   1.413 -1.6675 -0.4680 -0.8209
  211MOL0     H28428   3.215   0.064   1.185  1.9449  0.2207  1.4240
  211MOL0     H28429   3.273  -0.096   1.164 -1.7073 -0.7100 -0.6128
  211MOL0     H28430   3.083  -0.198   1.230 -2.6159 -0.4937  1.0786
  211MOL0     H28431   3.010  -0.076   1.332  0.1717 -0.0099  0.2373
  211MOL0     H28432   3.050  -0.030   1.036 -0.4235  0.1673 -0.1178
  211MOL0     H28433   2.902  -0.108   1.107 -0.5161  0.3876 -0.5077
  211MOL0     H28434   3.012   0.174   1.152  1.3037 -2.3418 -1.0219
  211MOL0     H28435   2.901   0.094   1.270  1.6837 -0.3410  0.2489
  211MOL0     H28436   2.889   0.110   0.873 -0.3978 -1.5385 -1.6070
  211MOL0     H28437   2.526   0.210   0.793  0.2376  2.3472  0.7494
  211MOL0     H28438   2.673   0.280   0.715  0.4236  0.2855  2.1073
  211MOL0     H28439   2.720   0.060   0.616  1.0749 -0.3057  0.4848
  211MOL0     H28440   2.554   0.105   0.600  0.7348 -2.1938 -0.7209
  211MOL0     H28441   2.592  -0.035   0.861  0.3675  1.5973 -0.8122
  211MOL0     H28442   2.684  -0.112   0.731 -1.2831 -2.5270 -1.5558
  211MOL0     H28443   2.474  -0.217   0.745  0.9732  0.5533 -0.7405
  211MOL0     H28444   2.482  -0.128   0.591  2.0938  0.9276 -0.2925
  211MOL0     H28445   2.304  -0.297   0.622 -0.2645 -0.1693 -0.6799
  211MOL0     H28446   2.174  -0.435   0.504 -0.5710 -1.3677 -3.2679
  211MOL0     H28447   2.062  -0.483   0.628  1.8594  0.7177  1.1680
  211MOL0     H28448   2.005  -0.397   0.479  1.3528 -0.3792 -0.7563
  211MOL0     H28449   1.681  -0.468   0.811 -0.9153 -1.3115 -0.2042
  211MOL0     H28450   1.454  -0.574   0.801  0.2919  0.5733 -1.1132
  211MOL0     H28451   1.202  -0.369   0.492  0.8163  1.7203  3.1611
  211MOL0     H28452   1.096  -0.513   0.501 -1.3762  0.1875 -0.4409
  211MOL0     H28453   1.162  -0.331   0.739  0.7054  1.2744 -1.0002
  211MOL0     H28454   1.033  -0.308   0.620 -2.7910 -1.7947 -0.5803
  211MOL0     H28455   0.930  -0.522   0.679 -0.2437 -1.8423 -0.0143
  211MOL0     H28456   0.949  -0.421   0.831  2.6754  0.9302  1.1746
  211MOL0     H28457   1.101  -0.667   0.759 -0.1285  0.8951 -1.0540
  211MOL0     H28458   1.184  -0.539   0.861  1.5272 -0.4768 -1.7542
  211MOL0     H28459   0.894  -0.642   0.912 -0.7010 -0.2114  0.2890
  211MOL0     H28460   1.009  -0.569   1.023  3.2364  0.9837 -2.0311
  211MOL0     H28461   0.996  -0.857   0.919 -2.2701  0.0630  1.5295
  211MOL0     H28462   1.154  -0.783   0.980  0.3854  0.5930 -0.3213
  211MOL0     H28463   0.900  -0.775   1.148 -0.1552 -1.5343  2.1764
  211MOL0     H28464   1.065  -0.719   1.195 -1.0833  1.1330  0.3469
  211MOL0     H28465   1.015  -1.001   1.109 -1.8479  1.4356  0.0905
  211MOL0     H28466   0.993  -0.954   1.283  0.3094  0.8071  0.9074
  211MOL0     H28467   1.399  -0.409   0.417  0.4675 -1.2784 -0.2696
  211MOL0     H28468   1.627  -0.313   0.414  3.0365 -2.2964 -0.2767
  211MOL0     H28469   1.922   0.003   0.712  2.0068  1.9084  1.5018
  211MOL0     H28470   2.143   0.086   0.769 -0.9048 -2.0099  2.7690
  211MOL0     H28471   3.769   0.080   1.479 -1.9498 -0.9864 -1.3948
  211MOL0     H28472   3.969   0.210   1.412  0.4853  0.5295  0.3702
  211MOL0     H28473   4.145   0.811   1.514 -0.8313 -0.1471 -1.8674
  211MOL0     H28474   4.363   0.893   1.476 -1.7437  0.0672 -0.3439
  211MOL0     H28475   4.667   0.601   1.316 -0.5861  1.2523  3.7161
  211MOL0     H28476   4.603   0.670   1.154  1.3120  0.3548 -1.3917
  211MOL0     H28477   4.855   0.705   1.235  0.2923 -1.6800  0.5200
  211MOL0     H28478   4.792   0.826   1.334  3.7085 -2.6683 -0.4855
  211MOL0     H28479   4.670   0.921   1.138 -1.5387 -1.9097 -0.5110
  211MOL0     H28480   4.748   0.791   1.037 -0.0828 -1.6114  1.5287
  211MOL0     H28481   4.977   0.898   1.108 -0.4011 -0.6930  4.2900
  211MOL0     H28482   4.890   1.008   1.204 -1.5921  0.5472  0.0984
  211MOL0     H28483   4.870   1.203   0.843  1.7108 -0.5669 -1.3198
  211MOL0     H28484   4.446   0.542   1.237 -0.9452  0.0980 -0.3880
  211MOL0     H28485   4.204   0.474   1.261 -1.1769  2.1623 -3.0495
  212MOL0     O28486   5.824  10.294   6.170  0.3017 -0.2464  0.2298
  212MOL0     C28487   5.873  10.186   6.190 -0.2649 -0.2353 -0.0167
  212MOL0     O28488   5.824  10.070   6.143 -0.8778 -0.3363  0.0065
  212MOL0     C28489   5.718  10.054   6.063  0.6867  0.0560 -0.2122
  212MOL0     C28490   5.652   9.932   6.078 -0.3422 -1.3047 -0.8848
  212MOL0     C28491   5.524   9.926   6.003 -0.1620 -0.8248 -0.8732
  212MOL0     C28492   5.483  10.030   5.907  0.3263  1.1087 -0.5785
  212MOL0     O28493   5.361  10.033   5.845  0.3243 -0.2957 -0.0101
  212MOL0     C28494   5.351  10.021   5.705 -0.2452  1.0328  0.1714
  212MOL0     C28495   5.219   9.946   5.671  0.5998 -0.5490 -0.0269
  212MOL0     C28496   5.209   9.879   5.533 -0.8249  0.1918 -0.0320
  212MOL0     C28497   5.324   9.772   5.515 -0.3327  0.1810  0.0139
  212MOL0     C28498   5.321   9.688   5.386 -0.6254 -0.6512  0.2148
  212MOL0     C28499   5.459   9.614   5.362  0.3354 -0.2888  1.4250
  212MOL0     C28500   5.444   9.531   5.229 -0.4989 -0.1143  0.3167
  212MOL0     C28501   5.406   9.598   5.102  0.2555  0.3204 -0.3466
  212MOL0     N28502   5.261   9.622   5.081 -1.2124 -0.4964 -0.1293
  212MOL0     C28503   5.187   9.531   5.002 -0.1340 -0.4120 -0.1051
  212MOL0     C28504   5.067   9.584   4.978 -0.4037 -0.4826  0.5938
  212MOL0     C28505   4.957   9.532   4.891  0.4202 -0.6002  0.5114
  212MOL0     C28506   4.948   9.383   4.885  0.1250 -0.9834  0.3633
  212MOL0     C28507   4.826   9.321   4.818  0.1754 -0.1747  0.5122
  212MOL0     C28508   4.702   9.327   4.901  0.1839 -0.5337 -0.3021
  212MOL0     O28509   4.645   9.460   4.906  0.0303  0.1261 -0.5722
  212MOL0     C28510   4.514   9.472   4.856 -0.8365 -0.4629 -1.3232
  212MOL0     C28511   4.502   9.562   4.756  0.1276  0.3690  1.1491
  212MOL0     C28512   4.377   9.602   4.704  0.2409  0.3155 -1.1015
  212MOL0     C28513   4.380   9.694   4.584  0.2422  1.5299  0.1820
  212MOL0     C28514   4.256   9.548   4.769 -0.5601 -0.7323  0.6913
  212MOL0     C28515   4.122   9.572   4.716 -0.6399 -1.2598 -0.7917
  212MOL0     O28516   4.113   9.651   4.599  0.2597  0.7331 -0.3694
  212MOL0     C28517   3.992   9.686   4.568  0.7652 -0.3309  1.4224
  212MOL0     C28518   3.905   9.746   4.657  0.1050  0.2051 -0.1166
  212MOL0     C28519   3.781   9.796   4.617  0.2345  0.4922 -0.1673
  212MOL0     C28520   3.743   9.788   4.481 -0.4161  0.0538 -0.0357
  212MOL0     O28521   3.618   9.834   4.445  0.4742 -0.7754  0.1477
  212MOL0     C28522   3.568   9.809   4.306 -0.1658 -0.1585 -0.2211
  212MOL0     C28523   3.417   9.848   4.298 -0.0525 -1.2628  0.6271
  212MOL0     C28524   3.317   9.773   4.379  0.2944  0.2734 -0.5327
  212MOL0     C28525   3.328   9.620   4.345  0.4693  0.4837 -0.0102
  212MOL0     C28526   3.186   9.561   4.368  0.2512  0.3717 -0.1987
  212MOL0     C28527   3.174   9.421   4.306  0.2882  0.5138  0.8345
  212MOL0     C28528   3.264   9.317   4.390 -0.1627  0.9744  0.2839
  212MOL0     C28529   3.234   9.168   4.357 -0.7522 -0.5038 -0.2315
  212MOL0    Cl28530   3.054   9.141   4.370  0.0533  0.0381  0.0185
  212MOL0     C28531   3.836   9.743   4.389 -0.4674 -0.2042  1.3118
  212MOL0     C28532   3.953   9.685   4.428 -0.2547  0.6115 -0.6160
  212MOL0     O28533   4.028   9.521   4.771 -0.5110  0.3447  0.2354
  212MOL0     C28534   4.278   9.465   4.885 -0.3439 -0.3929  0.5038
  212MOL0     C28535   4.403   9.424   4.921  0.9073  0.1337  0.8493
  212MOL0     N28536   5.054   9.700   5.051  0.3885 -0.1864  0.3722
  212MOL0     N28537   5.176   9.725   5.110 -0.6844 -0.1317  0.1391
  212MOL0     C28538   5.568  10.134   5.892  0.4088 -0.0925  1.3486
  212MOL0     C28539   5.683  10.155   5.971 -0.0020 -0.0528  0.7103
  212MOL0     C28540   5.986  10.183   6.289  0.3817  0.4528 -0.3819
  212MOL0     C28541   6.039  10.304   6.344  0.3446 -0.2576 -0.3247
  212MOL0     C28542   6.146  10.299   6.439  0.2492  0.1910  0.0894
  212MOL0     C28543   6.195  10.184   6.483  0.1265  0.6947  0.0974
  212MOL0     O28544   6.304  10.171   6.565 -0.3479 -0.8600  0.3932
  212MOL0     C28545   6.385  10.292   6.608  0.4654  0.7944  0.6356
  212MOL0     C28546   6.487  10.335   6.495  0.3370 -0.7309 -0.3783
  212MOL0     C28547   6.615  10.235   6.477  0.7196  0.3430  0.1403
  212MOL0     C28548   6.579  10.092   6.412  0.1006  0.9697  0.0654
  212MOL0     C28549   6.599   9.985   6.519 -0.0554 -0.5427  0.9625
  212MOL0     C28550   6.610   9.893   6.591 -0.5325 -0.1092 -0.3454
  212MOL0     C28551   6.141  10.062   6.426  0.1125  0.5177  0.6824
  212MOL0     C28552   6.040  10.062   6.328 -0.0486 -0.1701 -0.8556
  212MOL0     H28553   5.685   9.862   6.154  1.0895  0.1728 -0.0815
  212MOL0     H28554   5.447   9.852   6.018 -2.2297  1.1666 -1.1913
  212MOL0     H28555   5.351  10.115   5.649 -2.2510  1.0346  0.0746
  212MOL0     H28556   5.434   9.953   5.683 -2.6962 -3.0558  2.3008
  212MOL0     H28557   5.198   9.862   5.738 -0.3352  0.0581  0.4692
  212MOL0     H28558   5.132  10.009   5.693  0.5727 -0.5169 -0.2154
  212MOL0     H28559   5.114   9.825   5.525  0.3147 -1.7203 -1.7162
  212MOL0     H28560   5.216   9.957   5.457 -0.4091 -1.0800 -1.3504
  212MOL0     H28561   5.423   9.820   5.514  0.4566 -1.3660 -2.2811
  212MOL0     H28562   5.333   9.712   5.606 -1.3186  0.5130  0.3443
  212MOL0     H28563   5.233   9.623   5.394 -1.8173  0.8296 -0.5646
  212MOL0     H28564   5.304   9.763   5.309 -0.1364 -0.4407  0.3100
  212MOL0     H28565   5.533   9.694   5.361 -1.5932  1.6037 -0.4091
  212MOL0     H28566   5.476   9.558   5.454 -4.1356 -2.8085  1.0301
  212MOL0     H28567   5.545   9.492   5.210  0.9780  3.7821 -0.6502
  212MOL0     H28568   5.393   9.436   5.244  1.6960 -1.2290  1.2562
  212MOL0     H28569   5.443   9.550   5.012  0.4637 -0.3510  0.0927
  212MOL0     H28570   5.456   9.694   5.090  0.2153  0.2202 -1.3871
  212MOL0     H28571   5.226   9.436   4.969  0.1374 -1.4040  2.7614
  212MOL0     H28572   4.868   9.565   4.947  2.0020  2.2574  1.5752
  212MOL0     H28573   4.954   9.580   4.793  0.2573  0.5823  1.0768
  212MOL0     H28574   4.959   9.342   4.986 -0.8053 -2.7594 -0.2170
  212MOL0     H28575   5.032   9.334   4.836  1.7562 -0.9747  2.9665
  212MOL0     H28576   4.843   9.218   4.786  4.8233  0.7160 -0.7397
  212MOL0     H28577   4.819   9.378   4.725 -0.1884 -0.0391  0.6224
  212MOL0     H28578   4.728   9.281   4.997  4.2226  2.5898  0.3911
  212MOL0     H28579   4.632   9.264   4.846  0.6403  0.0550 -1.5964
  212MOL0     H28580   4.592   9.602   4.711  1.1898 -1.4161  1.5840
  212MOL0     H28581   4.360   9.637   4.493 -2.0018  0.2480  1.4102
  212MOL0     H28582   4.309   9.775   4.603 -1.4633 -0.3329  2.1910
  212MOL0     H28583   4.482   9.733   4.581  2.0470 -2.7248 -0.1225
  212MOL0     H28584   3.942   9.757   4.758  0.8299  1.9511 -0.5264
  212MOL0     H28585   3.715   9.850   4.684  0.3502  1.0433 -0.4898
  212MOL0     H28586   3.622   9.873   4.236 -0.8402  0.7260  0.0614
  212MOL0     H28587   3.582   9.702   4.285 -1.2495 -0.5367  0.8663
  212MOL0     H28588   3.417   9.952   4.334  1.8685 -0.9598 -0.1126
  212MOL0     H28589   3.387   9.851   4.193 -0.4492  0.8384  0.7453
  212MOL0     H28590   3.218   9.810   4.350  0.5542  0.5789 -1.0416
  212MOL0     H28591   3.328   9.791   4.486  1.9315  2.5945 -1.0155
  212MOL0     H28592   3.354   9.613   4.239 -0.2907  0.7113 -0.2189
  212MOL0     H28593   3.403   9.569   4.407 -0.5077 -1.0171 -0.0097
  212MOL0     H28594   3.111   9.628   4.325  1.3338  2.5403  1.1267
  212MOL0     H28595   3.170   9.565   4.476 -4.2568 -2.8484 -0.4365
  212MOL0     H28596   3.066   9.400   4.314  0.0910  1.0766 -0.2099
  212MOL0     H28597   3.203   9.413   4.201  1.9450 -0.5285  1.3358
  212MOL0     H28598   3.251   9.332   4.498  4.9496 -3.1223  1.8521
  212MOL0     H28599   3.367   9.340   4.360 -0.0376 -1.0253 -0.9899
  212MOL0     H28600   3.275   9.095   4.427 -1.5890 -0.9182 -0.1573
  212MOL0     H28601   3.267   9.135   4.258 -2.7526 -0.9549 -0.7945
  212MOL0     H28602   3.812   9.748   4.283 -0.0161  0.0478  1.2211
  212MOL0     H28603   4.016   9.631   4.358 -1.9726  0.1998 -1.9214
  212MOL0     H28604   4.192   9.436   4.945  0.1095 -2.4687  0.2042
  212MOL0     H28605   4.419   9.353   5.001 -2.6246 -2.6051 -0.5817
  212MOL0     H28606   5.533  10.208   5.821  2.3311  0.2995  0.7602
  212MOL0     H28607   5.739  10.246   5.955 -0.6096 -0.0130 -1.4634
  212MOL0     H28608   6.002  10.400   6.308  1.4203  0.8380  1.3680
  212MOL0     H28609   6.181  10.399   6.463 -0.4642  0.7660 -1.1273
  212MOL0     H28610   6.308  10.365   6.636 -1.0663 -0.8307  0.8666
  212MOL0     H28611   6.436  10.271   6.703  0.0710  0.6792  0.8224
  212MOL0     H28612   6.525  10.432   6.528 -0.7611 -0.8827  1.5210
  212MOL0     H28613   6.434  10.333   6.400 -0.9262  0.0527  0.2884
  212MOL0     H28614   6.647  10.219   6.580  3.3862  2.8534 -0.1929
  212MOL0     H28615   6.692  10.283   6.418  0.4680 -2.2901 -2.5644
  212MOL0     H28616   6.632  10.070   6.319  0.3266  0.9810  0.1918
  212MOL0     H28617   6.473  10.082   6.385 -0.6227 -1.1322  3.1780
  212MOL0     H28618   6.634   9.820   6.666  0.1533 -0.5057 -0.9385
  212MOL0     H28619   6.171   9.970   6.474  1.1792  1.0753  1.1249
  212MOL0     H28620   6.002   9.969   6.287 -0.3494 -1.0407  1.2554
  213MOL0     O28621   9.379   4.886   9.802 -0.3589 -0.7171 -0.7358
  213MOL0     C28622   9.476   4.843   9.738  0.2599  0.1789  0.2628
  213MOL0     O28623   9.509   4.709   9.729 -0.0618  0.0464 -0.7336
  213MOL0     C28624   9.412   4.618   9.776 -0.3229 -0.3626  0.2597
  213MOL0     C28625   9.404   4.581   9.908 -0.1006 -2.2064 -0.8515
  213MOL0     C28626   9.305   4.494   9.957  0.9389 -0.0525  0.8787
  213MOL0     C28627   9.212   4.442   9.864 -0.0453  0.6644 -0.0565
  213MOL0     O28628   9.102   4.365   9.907  0.6857 -0.0020  0.2425
  213MOL0     C28629   9.056   4.259   9.816 -0.7250  0.2353 -0.2506
  213MOL0     C28630   8.950   4.179   9.889 -0.3337  0.3830  0.9595
  213MOL0     C28631   8.870   4.072   9.804  0.1778 -0.4433  0.1027
  213MOL0     C28632   8.759   4.131   9.705 -0.1632 -0.7813 -0.1763
  213MOL0     C28633   8.652   4.040   9.663  0.4105  0.4654 -0.0958
  213MOL0     C28634   8.572   4.104   9.548  0.3990 -0.2705  0.0440
  213MOL0     C28635   8.452   4.016   9.512  0.0475 -0.4381 -0.8513
  213MOL0     C28636   8.344   4.099   9.450 -0.3646  0.2646 -0.3999
  213MOL0     N28637   8.377   4.158   9.331  0.2925 -0.6917  0.1814
  213MOL0     C28638   8.314   4.133   9.215  0.9993  0.5024  0.0970
  213MOL0     C28639   8.341   4.236   9.133  0.0331  0.1589 -0.3462
  213MOL0     C28640   8.271   4.259   8.997  0.1444  1.2448 -0.4791
  213MOL0     C28641   8.373   4.278   8.883 -0.6337 -0.7780 -1.0264
  213MOL0     C28642   8.399   4.148   8.807 -0.6055 -0.3292 -0.1720
  213MOL0     C28643   8.487   4.060   8.892  0.4922 -0.3213  0.4740
  213MOL0     O28644   8.612   4.129   8.927  0.3436 -0.2446 -0.2496
  213MOL0     C28645   8.666   4.091   9.040  0.3100  0.3376  0.1305
  213MOL0     C28646   8.719   4.181   9.123 -0.3731 -0.0694 -0.3485
  213MOL0     C28647   8.797   4.161   9.240  0.5813 -0.2840  0.2376
  213MOL0     C28648   8.839   4.295   9.308  0.0330  0.4421 -0.8237
  213MOL0     C28649   8.843   4.031   9.259  0.6377 -1.3481  0.0737
  213MOL0     C28650   8.949   3.994   9.349 -0.5505 -0.2370 -0.1503
  213MOL0     O28651   8.966   3.859   9.372  0.1270 -0.4145  0.1463
  213MOL0     C28652   9.055   3.824   9.467  0.5478  0.1867 -0.6042
  213MOL0     C28653   9.013   3.812   9.598 -0.0371 -0.5105 -0.7805
  213MOL0     C28654   9.100   3.764   9.693  0.9438 -0.3114 -0.1996
  213MOL0     C28655   9.240   3.751   9.675 -0.6047  0.2574 -0.4704
  213MOL0     O28656   9.335   3.699   9.768  0.4160 -0.1921  0.3737
  213MOL0     C28657   9.290   3.674   9.904 -0.8020  0.9289 -0.1377
  213MOL0     C28658   9.310   3.793  10.004  0.7142 -0.0488  0.9565
  213MOL0     C28659   9.416   3.894   9.954 -0.0574 -0.2864 -0.3962
  213MOL0     C28660   9.436   4.002  10.048 -0.1174 -0.2840 -0.1056
  213MOL0     C28661   9.548   4.095  10.020 -0.4847 -0.0605 -0.2310
  213MOL0     C28662   9.525   4.193   9.907 -0.1270 -0.3551 -0.3243
  213MOL0     C28663   9.642   4.302   9.897  0.8020 -0.3487  0.7702
  213MOL0     C28664   9.765   4.226   9.836 -1.3779 -0.0453 -0.1708
  213MOL0    Cl28665   9.743   4.244   9.668 -0.2761  0.1593 -0.2994
  213MOL0     C28666   9.280   3.769   9.548  0.0814  0.1617 -0.7932
  213MOL0     C28667   9.191   3.814   9.448  0.6725 -1.1109  0.2879
  213MOL0     O28668   9.015   4.083   9.408  0.4290  0.2563 -0.3088
  213MOL0     C28669   8.786   3.927   9.175  0.3617  0.6579 -0.4972
  213MOL0     C28670   8.696   3.960   9.076  0.1478 -0.2449  0.1451
  213MOL0     N28671   8.418   4.324   9.195  0.1367 -0.0588 -0.1028
  213MOL0     N28672   8.437   4.278   9.315  0.5658 -0.6116 -0.2162
  213MOL0     C28673   9.225   4.476   9.730 -0.4041  0.2372 -0.3525
  213MOL0     C28674   9.333   4.565   9.685  1.2160  0.2044 -0.1279
  213MOL0     C28675   9.560   4.938   9.671 -0.0700  0.2704 -0.4013
  213MOL0     C28676   9.549   5.073   9.692  0.1814  0.4259 -0.0972
  213MOL0     C28677   9.632   5.161   9.625 -0.6978 -0.0845 -0.6020
  213MOL0     C28678   9.732   5.122   9.534  0.7574  0.0892  0.0726
  213MOL0     O28679   9.799   5.214   9.459  0.2639 -0.2687  0.4008
  213MOL0     C28680   9.922   5.180   9.402 -0.3482 -0.6805 -0.4074
  213MOL0     C28681  10.037   5.294   9.402  0.6153  0.7227  0.3004
  213MOL0     C28682  10.181   5.229   9.397 -0.0772 -0.5276  0.6973
  213MOL0     C28683  10.273   5.339   9.327  0.4968 -0.0982  0.4147
  213MOL0     C28684  10.412   5.301   9.329  0.0634 -0.4811 -0.2241
  213MOL0     C28685  10.527   5.280   9.356  0.2222 -0.3743  0.8530
  213MOL0     C28686   9.733   4.986   9.502 -0.7340  0.1824 -0.1760
  213MOL0     C28687   9.647   4.891   9.571  0.4691 -0.6637  0.2163
  213MOL0     H28688   9.474   4.629   9.976 -1.1883 -1.8424  0.0481
  213MOL0     H28689   9.294   4.459  10.059  1.0163  0.2219  0.9822
  213MOL0     H28690   9.000   4.304   9.734  0.4386 -2.1977 -2.5133
  213MOL0     H28691   9.127   4.194   9.764 -2.6650 -2.9064  0.7281
  213MOL0     H28692   8.995   4.116   9.966  2.0326 -0.7620 -1.2087
  213MOL0     H28693   8.884   4.251   9.939 -0.0225  2.6412 -1.6653
  213MOL0     H28694   8.948   4.020   9.748  0.1936  1.4655 -1.7674
  213MOL0     H28695   8.826   4.005   9.879  2.2196 -0.2702  1.5428
  213MOL0     H28696   8.713   4.215   9.758 -3.7102 -1.4592 -1.8781
  213MOL0     H28697   8.816   4.164   9.618  1.3071 -0.5170  0.8435
  213MOL0     H28698   8.698   3.945   9.633  0.9632  0.9281 -0.7361
  213MOL0     H28699   8.585   4.018   9.746 -0.6113  0.5367 -0.8776
  213MOL0     H28700   8.536   4.205   9.564  0.6112  0.1397 -1.8293
  213MOL0     H28701   8.644   4.106   9.465  1.7139  0.5790  1.1716
  213MOL0     H28702   8.476   3.934   9.443 -1.9464  0.3229 -2.5553
  213MOL0     H28703   8.410   3.974   9.604  2.6115 -4.6831 -1.3389
  213MOL0     H28704   8.317   4.182   9.517  0.2307 -0.6983  1.0891
  213MOL0     H28705   8.249   4.044   9.451  0.2860 -0.8758  0.4673
  213MOL0     H28706   8.254   4.046   9.188  0.2932  0.9167  0.3315
  213MOL0     H28707   8.195   4.182   8.978  2.6890 -1.7023  0.3717
  213MOL0     H28708   8.212   4.350   9.006 -1.3152  0.4499 -1.5316
  213MOL0     H28709   8.464   4.330   8.913 -0.6304 -1.7791  0.8363
  213MOL0     H28710   8.334   4.343   8.804  1.8248 -1.5873 -3.0414
  213MOL0     H28711   8.466   4.178   8.726  1.1150  0.4558  1.4607
  213MOL0     H28712   8.309   4.103   8.763 -1.3812  2.1110 -1.2390
  213MOL0     H28713   8.504   3.964   8.843 -3.0667 -0.0920 -1.5425
  213MOL0     H28714   8.420   4.039   8.976 -2.4927 -1.1953 -1.9605
  213MOL0     H28715   8.682   4.276   9.085  0.3272 -0.5015 -2.1723
  213MOL0     H28716   8.785   4.389   9.289 -0.8923  0.8558  3.0467
  213MOL0     H28717   8.830   4.283   9.416 -0.6711  0.6197 -0.8574
  213MOL0     H28718   8.939   4.321   9.272 -0.5033  0.5569 -2.3009
  213MOL0     H28719   8.913   3.837   9.630  1.1029  1.7746  1.3736
  213MOL0     H28720   9.053   3.746   9.789  0.8529 -1.1108 -0.3899
  213MOL0     H28721   9.193   3.625   9.905 -1.5267  2.2564 -1.5532
  213MOL0     H28722   9.363   3.596   9.930 -0.7712  1.0643  0.1783
  213MOL0     H28723   9.214   3.844  10.010  1.6813  1.7243  2.8484
  213MOL0     H28724   9.337   3.760  10.104 -0.3376 -0.7522  1.0238
  213MOL0     H28725   9.391   3.924   9.852 -3.5649 -1.9781 -0.1916
  213MOL0     H28726   9.512   3.843   9.947 -1.1190 -2.1963 -5.1168
  213MOL0     H28727   9.349   4.069  10.053  1.5528  2.4260 -3.2019
  213MOL0     H28728   9.463   3.950  10.140 -0.1030  0.4201  0.2969
  213MOL0     H28729   9.633   4.030   9.996  0.9703  1.6350  0.1771
  213MOL0     H28730   9.572   4.158  10.106 -3.0059  0.6872  0.0101
  213MOL0     H28731   9.523   4.137   9.813  0.6103 -0.1384 -0.4728
  213MOL0     H28732   9.439   4.255   9.934  0.7239  1.4134 -1.4985
  213MOL0     H28733   9.649   4.349   9.995 -1.6987 -0.4429  1.0731
  213MOL0     H28734   9.615   4.376   9.820  1.4529 -1.5052 -0.6160
  213MOL0     H28735   9.784   4.122   9.862 -0.6747  0.3474  0.9621
  213MOL0     H28736   9.855   4.285   9.855 -0.7264 -1.0230 -0.1390
  213MOL0     H28737   9.385   3.758   9.521  0.2706  0.5686 -0.2282
  213MOL0     H28738   9.216   3.821   9.342  0.6706  0.1403  0.3512
  213MOL0     H28739   8.814   3.823   9.183 -1.0681  0.1674 -1.4481
  213MOL0     H28740   8.650   3.890   9.007 -3.2314  2.4241 -0.5863
  213MOL0     H28741   9.161   4.421   9.662 -0.0503  1.0856 -1.3947
  213MOL0     H28742   9.337   4.585   9.579 -2.8668  0.7888 -0.3530
  213MOL0     H28743   9.474   5.100   9.765  1.2828  0.8118  0.9287
  213MOL0     H28744   9.636   5.268   9.642 -2.6494 -0.2613  1.3943
  213MOL0     H28745   9.964   5.098   9.460  0.3348 -1.6202 -2.1443
  213MOL0     H28746   9.907   5.158   9.296 -1.9064  0.9497 -0.5607
  213MOL0     H28747  10.022   5.360   9.489 -2.3163 -0.9147  1.1641
  213MOL0     H28748  10.001   5.351   9.317 -2.3435 -1.2266  0.1170
  213MOL0     H28749  10.178   5.133   9.344 -2.9765 -2.1101  3.4192
  213MOL0     H28750  10.210   5.194   9.496 -1.2362  2.0737  2.0436
  213MOL0     H28751  10.258   5.428   9.389 -2.2490 -0.9555  1.1520
  213MOL0     H28752  10.245   5.376   9.228 -1.1375  1.4611  1.4040
  213MOL0     H28753  10.627   5.255   9.387  1.0983 -0.4333 -1.7798
  213MOL0     H28754   9.808   4.953   9.430  0.8691  1.0256  1.0355
  213MOL0     H28755   9.654   4.784   9.552  0.4016 -0.6192 -0.0635
  214MOL0     O28756   6.382   3.173   6.574 -0.6302 -0.2136 -0.6204
  214MOL0     C28757   6.411   3.097   6.670 -0.4590 -0.0112 -0.3471
  214MOL0     O28758   6.384   2.967   6.678 -0.2346 -0.1144  0.6798
  214MOL0     C28759   6.292   2.924   6.591 -0.9433  0.0717  0.5906
  214MOL0     C28760   6.162   2.908   6.637  0.0435 -0.6050  0.0430
  214MOL0     C28761   6.065   2.854   6.548  0.1529  0.6270 -0.1648
  214MOL0     C28762   6.102   2.800   6.432 -0.1601  0.7648  0.5594
  214MOL0     O28763   5.996   2.750   6.355 -0.1978 -0.8046  0.0562
  214MOL0     C28764   6.024   2.743   6.206 -0.2356 -0.4729 -0.0308
  214MOL0     C28765   5.899   2.684   6.138 -0.7459 -0.0722 -0.0677
  214MOL0     C28766   5.838   2.568   6.209  0.3261 -0.2567 -0.0529
  214MOL0     C28767   5.702   2.545   6.140 -0.9572 -0.4778 -0.2164
  214MOL0     C28768   5.630   2.435   6.216 -0.1481  0.0221 -0.4830
  214MOL0     C28769   5.491   2.417   6.149  0.0033  0.0581  0.1899
  214MOL0     C28770   5.407   2.311   6.226 -0.0470 -1.2107  0.4066
  214MOL0     C28771   5.283   2.284   6.148  0.7460 -0.1798  0.3595
  214MOL0     N28772   5.289   2.165   6.060 -0.3358  0.8127  1.4312
  214MOL0     C28773   5.267   2.169   5.923 -0.3629 -0.4446 -0.5593
  214MOL0     C28774   5.279   2.039   5.890 -0.0344 -0.3447  0.1371
  214MOL0     C28775   5.268   1.978   5.760  0.3072 -0.3395  0.8351
  214MOL0     C28776   5.117   1.957   5.725 -0.1012  0.1958 -0.0978
  214MOL0     C28777   5.050   1.853   5.816 -0.3530 -0.6724  0.3463
  214MOL0     C28778   4.920   1.810   5.757 -0.1050  0.7226  0.9170
  214MOL0     O28779   4.818   1.900   5.794 -0.0245 -0.1254  0.0612
  214MOL0     C28780   4.691   1.877   5.757  0.5743 -0.2801  0.4088
  214MOL0     C28781   4.631   1.757   5.712  0.2491 -0.0330  0.2384
  214MOL0     C28782   4.496   1.756   5.673 -0.1125 -0.1555 -0.5403
  214MOL0     C28783   4.434   1.628   5.632 -0.0033 -0.9609 -0.1031
  214MOL0     C28784   4.421   1.873   5.665  0.0457 -0.0350  0.3921
  214MOL0     C28785   4.274   1.881   5.608 -0.7140  1.0082 -0.2166
  214MOL0     O28786   4.182   1.791   5.648 -0.4339 -0.9838 -0.3387
  214MOL0     C28787   4.046   1.818   5.611 -0.2956 -0.6865  0.3382
  214MOL0     C28788   3.975   1.935   5.648  0.4295 -0.0376 -0.1325
  214MOL0     C28789   3.846   1.958   5.605 -0.3846 -0.4582  0.6935
  214MOL0     C28790   3.791   1.870   5.514 -0.9307 -0.0438 -0.1370
  214MOL0     O28791   3.681   1.914   5.444 -0.2727  0.0229 -0.5441
  214MOL0     C28792   3.557   1.855   5.482 -0.4338  0.2313 -0.9536
  214MOL0     C28793   3.508   1.777   5.365  0.9610  0.3206 -0.5069
  214MOL0     C28794   3.490   1.873   5.244 -0.6337 -0.3827  0.3676
  214MOL0     C28795   3.440   1.799   5.123  0.0184  0.1804 -0.1305
  214MOL0     C28796   3.295   1.740   5.135 -0.4077 -0.0056 -0.0391
  214MOL0     C28797   3.192   1.843   5.178  1.0019 -0.5735  0.6070
  214MOL0     C28798   3.050   1.795   5.159 -0.5008 -0.3829 -0.3188
  214MOL0     C28799   2.996   1.797   5.008 -0.4187  0.1024 -0.6765
  214MOL0    Cl28800   2.990   1.973   4.964  0.0593 -0.2644  0.0007
  214MOL0     C28801   3.853   1.749   5.471  0.1928 -0.8298 -0.0839
  214MOL0     C28802   3.983   1.725   5.528  0.9617 -0.9938  0.1065
  214MOL0     O28803   4.264   1.974   5.527  0.3064  0.6169 -0.0222
  214MOL0     C28804   4.481   1.991   5.705 -0.2498 -0.2749 -0.9568
  214MOL0     C28805   4.613   1.993   5.770  0.3264 -1.3130  0.0896
  214MOL0     N28806   5.316   1.962   5.994  0.2005  0.7047 -0.2920
  214MOL0     N28807   5.326   2.038   6.091  0.0291  0.5619 -0.7626
  214MOL0     C28808   6.240   2.798   6.393  0.3084  0.0200  0.5311
  214MOL0     C28809   6.333   2.867   6.470  0.5087  0.9611  0.5914
  214MOL0     C28810   6.495   3.163   6.776  0.4527  0.9628  0.6422
  214MOL0     C28811   6.578   3.082   6.856 -0.3113 -0.2729  0.1937
  214MOL0     C28812   6.630   3.130   6.975 -0.8617 -1.0921  0.5210
  214MOL0     C28813   6.612   3.257   7.009 -0.4429  0.1596 -0.7224
  214MOL0     O28814   6.668   3.294   7.126 -0.3581  0.1948 -0.5734
  214MOL0     C28815   6.648   3.427   7.174  0.2227 -0.4732 -0.5318
  214MOL0     C28816   6.730   3.457   7.299 -0.6052  0.2864  0.1284
  214MOL0     C28817   6.883   3.477   7.267  0.4723  0.0418  0.2875
  214MOL0     C28818   6.985   3.443   7.375  0.0879  0.3497 -0.7609
  214MOL0     C28819   7.009   3.559   7.463 -0.2350 -0.2420  0.6627
  214MOL0     C28820   7.019   3.640   7.550 -0.0439  0.4034  0.0292
  214MOL0     C28821   6.524   3.335   6.935  0.1165 -0.0052  0.1371
  214MOL0     C28822   6.471   3.293   6.819 -0.1575 -0.1016  0.0071
  214MOL0     H28823   6.142   2.943   6.738  0.2017 -0.6397  0.0873
  214MOL0     H28824   5.959   2.855   6.570 -0.2271 -0.2276 -1.7522
  214MOL0     H28825   6.040   2.838   6.155 -0.1538 -1.7660 -2.5437
  214MOL0     H28826   6.111   2.684   6.176  0.1421 -1.0202  1.9708
  214MOL0     H28827   5.828   2.766   6.142  1.7854  2.3036 -0.7479
  214MOL0     H28828   5.924   2.653   6.037  1.3610 -0.3166  0.4822
  214MOL0     H28829   5.909   2.487   6.189  2.0156  0.4236  2.5898
  214MOL0     H28830   5.817   2.580   6.316 -5.0598  1.7445 -1.0518
  214MOL0     H28831   5.629   2.627   6.141  0.4670  0.8225  0.9366
  214MOL0     H28832   5.719   2.519   6.035 -2.2247  2.3052 -1.2185
  214MOL0     H28833   5.688   2.342   6.220  1.8309  1.2529  1.6421
  214MOL0     H28834   5.624   2.463   6.322  2.2843  1.4711 -0.6496
  214MOL0     H28835   5.441   2.512   6.130 -0.8551 -0.6540 -1.2301
  214MOL0     H28836   5.500   2.368   6.052  0.4989  0.3294  0.0927
  214MOL0     H28837   5.464   2.218   6.226 -1.0914 -1.8708  0.3946
  214MOL0     H28838   5.374   2.357   6.320  0.7582 -0.2655  0.2399
  214MOL0     H28839   5.247   2.367   6.086 -2.1064 -1.7154 -0.2376
  214MOL0     H28840   5.204   2.255   6.218  1.9272 -4.8210  0.0777
  214MOL0     H28841   5.232   2.257   5.870  1.3512  1.2295  0.9274
  214MOL0     H28842   5.305   2.044   5.681 -2.9316 -3.0619 -3.4085
  214MOL0     H28843   5.308   1.876   5.756 -1.9233 -1.2807 -2.6066
  214MOL0     H28844   5.111   1.914   5.625  0.3099  0.4486 -0.2324
  214MOL0     H28845   5.064   2.053   5.726 -0.1370  0.1752 -0.0295
  214MOL0     H28846   5.041   1.907   5.911 -0.8640 -1.0977  0.5439
  214MOL0     H28847   5.106   1.761   5.836  0.6037 -0.1765 -0.0010
  214MOL0     H28848   4.894   1.711   5.794 -2.0592  1.2902  1.2153
  214MOL0     H28849   4.921   1.805   5.648  2.9896 -2.5175  0.9475
  214MOL0     H28850   4.694   1.669   5.702 -1.8330 -1.4646 -0.8384
  214MOL0     H28851   4.500   1.545   5.658  1.6777  1.1094  2.9241
  214MOL0     H28852   4.338   1.626   5.686  0.7921  1.0458  1.5229
  214MOL0     H28853   4.434   1.624   5.523  2.1532  0.6959 -0.2172
  214MOL0     H28854   4.027   2.011   5.707  1.9110 -1.0574 -0.0811
  214MOL0     H28855   3.794   2.051   5.625 -1.9123 -0.2475 -3.2942
  214MOL0     H28856   3.561   1.784   5.565 -0.4932  0.2281 -0.9536
  214MOL0     H28857   3.489   1.938   5.500  3.1948  3.3053 -0.0666
  214MOL0     H28858   3.582   1.704   5.331 -0.8729 -1.0572 -1.7451
  214MOL0     H28859   3.423   1.716   5.394 -0.3173  1.3187 -1.9695
  214MOL0     H28860   3.579   1.928   5.214 -2.0220  1.9852  0.3098
  214MOL0     H28861   3.407   1.943   5.261 -1.2822 -0.9398 -0.3983
  214MOL0     H28862   3.433   1.872   5.042 -1.7457  1.4934  1.1215
  214MOL0     H28863   3.516   1.724   5.102 -1.5594 -1.1018 -1.5465
  214MOL0     H28864   3.312   1.646   5.189  0.6642  0.1279 -0.1158
  214MOL0     H28865   3.266   1.694   5.040 -0.8354  1.5302 -0.6810
  214MOL0     H28866   3.194   1.863   5.285 -1.3277  2.0119  0.2786
  214MOL0     H28867   3.206   1.940   5.128  1.0118 -1.2934 -0.8596
  214MOL0     H28868   2.984   1.856   5.222 -0.0621  0.6788 -0.8593
  214MOL0     H28869   3.048   1.691   5.193  0.8581 -0.5298 -0.6090
  214MOL0     H28870   2.897   1.753   5.019  0.7677 -2.4596  0.6907
  214MOL0     H28871   3.058   1.738   4.940 -3.9878 -0.1436 -4.0412
  214MOL0     H28872   3.828   1.677   5.394 -0.4852 -0.3596 -0.3125
  214MOL0     H28873   4.047   1.643   5.496  1.0968 -0.7663 -0.2109
  214MOL0     H28874   4.421   2.078   5.684 -0.4504 -0.4348 -1.0535
  214MOL0     H28875   4.652   2.087   5.809 -1.9645  0.3555 -1.3931
  214MOL0     H28876   6.279   2.746   6.306  2.7274  0.9173  1.0258
  214MOL0     H28877   6.438   2.866   6.441  0.3530  5.0403 -0.6385
  214MOL0     H28878   6.588   2.977   6.833 -3.6074 -0.3900 -1.2697
  214MOL0     H28879   6.696   3.074   7.040  0.7823  1.9751  1.7045
  214MOL0     H28880   6.681   3.493   7.094 -0.1516  2.3340  1.4614
  214MOL0     H28881   6.543   3.453   7.186 -0.5639 -2.8036 -1.7392
  214MOL0     H28882   6.715   3.373   7.368 -2.3420  1.5883  1.4395
  214MOL0     H28883   6.704   3.548   7.355 -0.8175  0.1902  0.1880
  214MOL0     H28884   6.890   3.583   7.241  2.1643 -0.5629 -2.0593
  214MOL0     H28885   6.922   3.432   7.175  1.2046  2.3959 -0.6314
  214MOL0     H28886   7.078   3.441   7.319  1.4032  0.7324  1.2755
  214MOL0     H28887   6.963   3.354   7.435  0.4454 -0.0245 -1.1875
  214MOL0     H28888   7.012   3.705   7.635 -1.2318 -0.8725  0.9615
  214MOL0     H28889   6.489   3.432   6.971  0.5251 -0.0175  0.5750
  214MOL0     H28890   6.399   3.352   6.763 -1.9280 -2.0383  0.1349
  215MOL0     O28891   8.716   8.712   6.450  0.0791  0.8054 -0.1927
  215MOL0     C28892   8.740   8.787   6.359  0.5292  0.0150  0.6106
  215MOL0     O28893   8.644   8.876   6.303  0.2514  0.7932  0.5549
  215MOL0     C28894   8.514   8.849   6.337 -0.4544  1.0445 -0.3587
  215MOL0     C28895   8.436   8.767   6.256 -0.4440 -0.5653  0.0090
  215MOL0     C28896   8.302   8.758   6.278  0.0227  0.1793 -0.7454
  215MOL0     C28897   8.236   8.804   6.395 -0.8471 -0.1562 -0.9068
  215MOL0     O28898   8.102   8.792   6.416 -0.5260  0.3741 -0.1098
  215MOL0     C28899   8.025   8.912   6.397 -0.1674 -0.3593  0.7413
  215MOL0     C28900   7.900   8.869   6.310  0.0032  0.3445  0.0266
  215MOL0     C28901   7.782   8.821   6.396 -0.5095  0.7753  0.8130
  215MOL0     C28902   7.653   8.823   6.324  0.3848 -0.9970  0.8022
  215MOL0     C28903   7.528   8.803   6.415  0.2054  0.5861 -0.7521
  215MOL0     C28904   7.405   8.830   6.328  0.0326  0.7900  0.1014
  215MOL0     C28905   7.283   8.844   6.415 -0.2624  0.0223  0.1930
  215MOL0     C28906   7.232   8.715   6.477 -0.8129 -0.3411  0.4679
  215MOL0     N28907   7.095   8.711   6.543  0.3511 -0.6071  0.3677
  215MOL0     C28908   6.974   8.699   6.480  0.2483  0.0417 -0.5915
  215MOL0     C28909   6.879   8.714   6.577 -0.4586  0.4633  0.6909
  215MOL0     C28910   6.730   8.712   6.554  0.4980  0.2920 -1.2285
  215MOL0     C28911   6.648   8.693   6.690  0.1145  0.9284 -0.0736
  215MOL0     C28912   6.669   8.552   6.752 -0.9436 -0.1786  0.5720
  215MOL0     C28913   6.557   8.505   6.845 -0.0969 -0.4725  0.6912
  215MOL0     O28914   6.570   8.368   6.872 -0.0547  0.1595 -0.1183
  215MOL0     C28915   6.463   8.282   6.886  0.5890 -0.1410 -0.3777
  215MOL0     C28916   6.464   8.164   6.810  0.7845 -0.3347  0.6848
  215MOL0     C28917   6.353   8.075   6.812 -0.3555 -0.2132 -0.4689
  215MOL0     C28918   6.366   7.945   6.730 -0.7781  0.1554 -0.3714
  215MOL0     C28919   6.225   8.120   6.866 -1.3380 -0.4145 -0.5732
  215MOL0     C28920   6.091   8.052   6.845  0.7967  0.3999 -0.5476
  215MOL0     O28921   5.982   8.137   6.860  0.0959  0.4962  1.0147
  215MOL0     C28922   5.852   8.098   6.887 -0.0567  0.3735 -0.5460
  215MOL0     C28923   5.762   8.207   6.893  0.4735  0.0573 -0.1738
  215MOL0     C28924   5.622   8.178   6.910  0.0712 -0.4825  0.5872
  215MOL0     C28925   5.575   8.045   6.919 -0.5336 -0.5303  0.0774
  215MOL0     O28926   5.447   8.003   6.921 -0.2215 -0.5660  0.1781
  215MOL0     C28927   5.347   8.101   6.917  0.6198 -0.4461  0.1751
  215MOL0     C28928   5.209   8.035   6.942 -0.1673 -0.4447  0.4534
  215MOL0     C28929   5.170   7.940   6.824  0.8885  0.1488  0.8433
  215MOL0     C28930   5.019   7.933   6.829 -0.0835  0.1082 -0.1097
  215MOL0     C28931   4.955   7.819   6.749 -0.1779  0.9804  0.4968
  215MOL0     C28932   4.810   7.793   6.783 -0.1553  0.9789 -0.3611
  215MOL0     C28933   4.748   7.692   6.695  0.4208  0.4469  0.6500
  215MOL0     C28934   4.594   7.676   6.726  0.2472  1.5915 -0.2975
  215MOL0    Cl28935   4.537   7.567   6.593 -0.3627  0.5090  0.1839
  215MOL0     C28936   5.670   7.944   6.911  0.4345  0.7958  0.0824
  215MOL0     C28937   5.810   7.968   6.906  0.8060 -0.1914 -0.4221
  215MOL0     O28938   6.090   7.929   6.843  0.4714 -0.2264  0.0569
  215MOL0     C28939   6.227   8.247   6.947  0.1006  0.4391 -0.2858
  215MOL0     C28940   6.349   8.318   6.955  0.4858 -0.2969  0.2542
  215MOL0     N28941   6.946   8.726   6.698 -0.2780 -0.6289 -0.0948
  215MOL0     N28942   7.086   8.716   6.676  0.5785  0.3802 -0.1317
  215MOL0     C28943   8.323   8.888   6.478  0.5378 -0.0486  0.7589
  215MOL0     C28944   8.461   8.910   6.451  1.0004  0.3874  0.7268
  215MOL0     C28945   8.876   8.809   6.322  0.0290 -0.0802 -0.3931
  215MOL0     C28946   8.917   8.920   6.250 -0.2615  0.4028  0.1060
  215MOL0     C28947   9.053   8.946   6.217 -0.0939  0.4317  0.4498
  215MOL0     C28948   9.150   8.860   6.259  0.3747  0.0600 -0.6941
  215MOL0     O28949   9.274   8.917   6.247  0.2014  0.9148 -0.0916
  215MOL0     C28950   9.373   8.827   6.194 -0.0642 -0.0341 -1.0069
  215MOL0     C28951   9.469   8.927   6.136 -0.7112  0.3883  0.5542
  215MOL0     C28952   9.606   8.863   6.114 -0.4210  1.2804  0.4170
  215MOL0     C28953   9.669   8.897   5.986 -0.5477 -0.4453 -0.1595
  215MOL0     C28954   9.799   8.837   5.981 -0.8724 -0.3297  0.0220
  215MOL0     C28955   9.900   8.773   5.957 -0.3586  0.3803 -0.3470
  215MOL0     C28956   9.105   8.737   6.325 -0.2430 -0.4547 -0.0061
  215MOL0     C28957   8.973   8.705   6.346  0.7393 -0.4920 -0.1550
  215MOL0     H28958   8.472   8.727   6.162  0.7251  0.7135 -0.1096
  215MOL0     H28959   8.249   8.703   6.202  5.0282 -3.6403 -2.0451
  215MOL0     H28960   7.979   8.946   6.490  0.3611 -1.2079  1.3290
  215MOL0     H28961   8.079   8.996   6.353  0.7469 -1.4226 -0.2243
  215MOL0     H28962   7.885   8.967   6.265  0.9075 -0.2104 -1.5733
  215MOL0     H28963   7.930   8.803   6.228  0.3810 -0.6048  0.8970
  215MOL0     H28964   7.812   8.724   6.437  3.5988  1.9577  1.0076
  215MOL0     H28965   7.768   8.883   6.485  0.3530 -0.5784  1.9397
  215MOL0     H28966   7.634   8.915   6.267 -2.5704 -0.7965  1.9238
  215MOL0     H28967   7.654   8.759   6.235 -0.3481 -0.9828  0.7779
  215MOL0     H28968   7.519   8.704   6.462 -2.2825  1.3406  0.5106
  215MOL0     H28969   7.540   8.866   6.503  0.3126 -0.9969  0.4236
  215MOL0     H28970   7.419   8.929   6.282 -0.5155  0.6653 -0.3442
  215MOL0     H28971   7.388   8.766   6.241  3.1626  0.0808 -0.1010
  215MOL0     H28972   7.297   8.915   6.497  0.4922 -1.8951  1.7944
  215MOL0     H28973   7.205   8.893   6.354  1.3677  1.2354 -1.0091
  215MOL0     H28974   7.306   8.698   6.555 -0.2653 -0.3765 -0.0586
  215MOL0     H28975   7.239   8.635   6.404 -2.1800 -2.9591  2.9757
  215MOL0     H28976   6.944   8.689   6.376 -2.0538 -0.7227  0.0720
  215MOL0     H28977   6.720   8.811   6.508  2.7082  1.3007  0.2740
  215MOL0     H28978   6.703   8.636   6.480 -1.4368 -1.1840  0.8636
  215MOL0     H28979   6.540   8.698   6.670 -0.2928  0.4777  1.8079
  215MOL0     H28980   6.675   8.762   6.771 -1.3560 -1.4022  2.5846
  215MOL0     H28981   6.770   8.539   6.792 -2.1985 -1.3048  3.7205
  215MOL0     H28982   6.682   8.481   6.670 -1.0157  0.0280  0.3833
  215MOL0     H28983   6.470   8.535   6.786  2.2231  3.0277 -1.3052
  215MOL0     H28984   6.561   8.566   6.935 -0.7421  0.1006  0.3352
  215MOL0     H28985   6.556   8.139   6.758 -0.1436  0.2993 -1.3693
  215MOL0     H28986   6.296   7.953   6.646  1.6049 -0.3899 -2.5458
  215MOL0     H28987   6.466   7.925   6.691 -0.2114  1.4319  0.3747
  215MOL0     H28988   6.340   7.860   6.794 -1.1786  0.5328 -0.0237
  215MOL0     H28989   5.798   8.306   6.867 -0.2330 -0.0486 -1.7034
  215MOL0     H28990   5.560   8.266   6.901  2.9764  1.6840  0.4814
  215MOL0     H28991   5.362   8.172   6.998  1.1190  0.8751 -1.0467
  215MOL0     H28992   5.342   8.148   6.818 -0.9190  1.2221  0.9893
  215MOL0     H28993   5.220   7.973   7.031 -1.3291 -2.1763 -0.5640
  215MOL0     H28994   5.133   8.114   6.946 -0.0738  0.4173 -5.7594
  215MOL0     H28995   5.203   7.837   6.842 -0.3808 -0.4011  0.1918
  215MOL0     H28996   5.205   7.972   6.726  0.3862 -0.7730  0.3474
  215MOL0     H28997   5.001   7.904   6.933 -1.1520 -0.5906 -0.4718
  215MOL0     H28998   4.964   8.025   6.808  0.0686  0.4110  0.7369
  215MOL0     H28999   5.010   7.726   6.765  0.3023  1.3624  1.1193
  215MOL0     H29000   4.974   7.831   6.642  0.4309 -1.0272  0.3366
  215MOL0     H29001   4.783   7.781   6.888 -3.2180 -0.4603 -1.2231
  215MOL0     H29002   4.753   7.885   6.767 -1.7702 -0.5137 -4.7074
  215MOL0     H29003   4.800   7.597   6.704  0.8818  0.6022 -0.2369
  215MOL0     H29004   4.772   7.722   6.592  0.1243  0.7512  0.6669
  215MOL0     H29005   4.546   7.774   6.724 -0.9471  1.0144 -0.8541
  215MOL0     H29006   4.583   7.628   6.824 -1.5157  0.4166 -1.0293
  215MOL0     H29007   5.640   7.840   6.910  1.9181  0.2659  2.2060
  215MOL0     H29008   5.880   7.885   6.911  3.0485  1.6834  1.8977
  215MOL0     H29009   6.135   8.275   6.997  0.3574 -0.6590  0.8735
  215MOL0     H29010   6.349   8.408   7.016  1.6242  0.4585 -0.8126
  215MOL0     H29011   8.281   8.942   6.563 -0.2165  0.0874  0.3068
  215MOL0     H29012   8.518   8.975   6.517  0.3153  1.1309  0.6001
  215MOL0     H29013   8.847   8.996   6.219 -0.3529  0.9423  1.6080
  215MOL0     H29014   9.084   9.038   6.169  4.2749 -0.8303  0.3899
  215MOL0     H29015   9.419   8.763   6.270 -2.7614 -1.2810 -0.3052
  215MOL0     H29016   9.337   8.772   6.107 -0.9207  0.7982 -1.1846
  215MOL0     H29017   9.473   9.023   6.187 -4.3586  1.6006 -1.0940
  215MOL0     H29018   9.420   8.961   6.044 -2.6173  0.4377  1.5378
  215MOL0     H29019   9.613   8.755   6.127  0.5605  1.1915 -0.6516
  215MOL0     H29020   9.661   8.906   6.199  0.0427  1.7140 -0.0908
  215MOL0     H29021   9.676   9.006   5.974 -1.5614  0.0965  3.2118
  215MOL0     H29022   9.606   8.845   5.913 -1.3554 -0.1331  0.2934
  215MOL0     H29023   9.984   8.713   5.925 -0.2169  0.6635 -0.5115
  215MOL0     H29024   9.180   8.668   6.361  0.6732 -0.2066 -1.3408
  215MOL0     H29025   8.941   8.613   6.394 -1.7129  0.4816  0.2409
  216MOL0     O29026   3.608   6.884   6.063  0.8695  0.5734  0.3872
  216MOL0     C29027   3.691   6.863   5.979 -0.1442 -0.6505  1.5529
  216MOL0     O29028   3.674   6.787   5.863 -0.0114 -0.2202 -0.5055
  216MOL0     C29029   3.548   6.740   5.827 -0.8208  0.5751 -0.8796
  216MOL0     C29030   3.480   6.797   5.720 -0.8777 -0.4594  0.1289
  216MOL0     C29031   3.350   6.746   5.679  0.0223  1.1008  0.3157
  216MOL0     C29032   3.288   6.640   5.747  1.0063 -0.2386 -0.4166
  216MOL0     O29033   3.163   6.587   5.712 -0.3127 -0.0735 -0.7977
  216MOL0     C29034   3.067   6.684   5.664  0.0965 -0.3100  0.0495
  216MOL0     C29035   2.919   6.663   5.713 -0.2653 -0.2184 -1.0030
  216MOL0     C29036   2.823   6.767   5.660 -0.2058  0.2723  0.0048
  216MOL0     C29037   2.680   6.705   5.668  0.5239 -0.6717 -0.7051
  216MOL0     C29038   2.587   6.830   5.653  0.3569  0.4304  0.7279
  216MOL0     C29039   2.452   6.772   5.600 -0.5830 -0.3666 -0.6415
  216MOL0     C29040   2.350   6.887   5.581  0.1786  0.1392  0.1190
  216MOL0     C29041   2.278   6.913   5.716  0.5181 -0.1940  0.4758
  216MOL0     N29042   2.145   6.977   5.696  0.3070 -0.0667  0.5578
  216MOL0     C29043   2.021   6.938   5.747  0.0145  0.7145 -0.6977
  216MOL0     C29044   1.939   7.050   5.731 -0.7535  0.4169  0.9957
  216MOL0     C29045   1.804   7.072   5.770  1.1292  0.5512 -0.6297
  216MOL0     C29046   1.707   7.090   5.649  0.4432  0.8413 -0.8271
  216MOL0     C29047   1.572   7.143   5.699 -0.0228  0.1447 -0.0130
  216MOL0     C29048   1.491   7.065   5.810 -0.0620 -0.2684 -0.5692
  216MOL0     O29049   1.444   6.941   5.758 -0.4688  0.4506 -0.6743
  216MOL0     C29050   1.339   6.879   5.832  0.1599  0.1859 -0.4723
  216MOL0     C29051   1.222   6.838   5.763  0.6417  0.2185  0.7206
  216MOL0     C29052   1.107   6.778   5.825  0.5239 -0.4155  0.5429
  216MOL0     C29053   0.987   6.745   5.746 -0.1884 -0.0224  0.1363
  216MOL0     C29054   1.114   6.750   5.964  0.0095 -0.0597  0.5197
  216MOL0     C29055   1.006   6.676   6.037  0.2695  0.3183  0.3174
  216MOL0     O29056   0.874   6.723   6.022  0.3224 -0.5234  1.2119
  216MOL0     C29057   0.768   6.645   6.052  0.5488  0.3111  0.0548
  216MOL0     C29058   0.765   6.519   6.126  0.2735 -0.1717 -0.3009
  216MOL0     C29059   0.644   6.462   6.183 -0.5081  0.1663 -0.4589
  216MOL0     C29060   0.519   6.535   6.154  0.8936 -0.2055  1.2748
  216MOL0     O29061   0.392   6.499   6.204 -0.3036  0.2769  0.2644
  216MOL0     C29062   0.370   6.361   6.240 -0.0372  0.9768 -0.2763
  216MOL0     C29063   0.364   6.256   6.134 -0.4078 -0.7918 -0.2171
  216MOL0     C29064   0.224   6.238   6.081 -0.7031 -0.4272 -0.3058
  216MOL0     C29065   0.207   6.136   5.971  0.1404  0.2680  0.8818
  216MOL0     C29066   0.065   6.093   5.976  1.0194 -0.2970 -0.3123
  216MOL0     C29067   0.024   5.982   5.860 -0.3964 -0.4507  0.2384
  216MOL0     C29068   0.058   5.846   5.926 -0.1513  0.9076  0.0088
  216MOL0     C29069  -0.043   5.733   5.893  0.3434  0.8267 -0.0510
  216MOL0    Cl29070  -0.088   5.723   5.719 -0.4911 -0.4482 -0.4010
  216MOL0     C29071   0.520   6.647   6.080  0.6541  0.4027 -0.0455
  216MOL0     C29072   0.640   6.697   6.033  0.0477  0.0012  1.1755
  216MOL0     O29073   1.050   6.572   6.089  0.2117  0.0859 -0.5393
  216MOL0     C29074   1.227   6.794   6.036 -0.9272  0.2226  0.9225
  216MOL0     C29075   1.335   6.853   5.971 -0.0450 -0.9769 -0.2359
  216MOL0     N29076   2.012   7.145   5.661 -0.9341  0.1363 -0.0748
  216MOL0     N29077   2.123   7.099   5.627  0.2607  0.9340  0.3801
  216MOL0     C29078   3.360   6.581   5.843  0.2607  1.0793  0.6274
  216MOL0     C29079   3.486   6.630   5.884  0.0438  0.5062 -1.1564
  216MOL0     C29080   3.812   6.949   5.990 -0.0724 -0.0090 -0.0778
  216MOL0     C29081   3.895   6.976   5.876  0.5659  0.5808  0.0850
  216MOL0     C29082   4.017   7.038   5.882  0.8306  0.1438  0.8404
  216MOL0     C29083   4.059   7.079   6.000  0.0892 -0.1600 -0.0800
  216MOL0     O29084   4.180   7.142   6.000  0.0282  0.0357 -0.1877
  216MOL0     C29085   4.235   7.182   6.120  0.0669  0.0283  0.1756
  216MOL0     C29086   4.374   7.237   6.082 -0.0675  0.0505  0.4432
  216MOL0     C29087   4.378   7.356   5.979  0.2210  0.6435  0.7195
  216MOL0     C29088   4.518   7.423   5.974  0.2038 -1.5157 -0.8972
  216MOL0     C29089   4.534   7.501   5.854  0.6088 -0.4035 -0.2509
  216MOL0     C29090   4.566   7.556   5.751  0.3693 -0.6581  0.1649
  216MOL0     C29091   3.987   7.059   6.119  0.0639  0.3540  0.5681
  216MOL0     C29092   3.865   6.995   6.109 -0.3572 -0.0167 -0.8047
  216MOL0     H29093   3.528   6.877   5.665  0.8912 -1.0663  0.7231
  216MOL0     H29094   3.314   6.804   5.595  0.9973  3.0739  1.2050
  216MOL0     H29095   3.097   6.786   5.688  0.2312 -0.5026  0.7374
  216MOL0     H29096   3.074   6.674   5.555 -2.4789 -2.0713 -0.0541
  216MOL0     H29097   2.884   6.562   5.693  4.1854 -1.8826 -1.6657
  216MOL0     H29098   2.925   6.669   5.822  1.1383  0.6870 -1.1012
  216MOL0     H29099   2.832   6.863   5.713 -4.2008  0.3222  0.9216
  216MOL0     H29100   2.851   6.785   5.557 -0.3275  2.8502  0.3632
  216MOL0     H29101   2.676   6.646   5.576  0.0971 -2.6980  0.5568
  216MOL0     H29102   2.647   6.647   5.755 -1.0493  1.3070  0.0854
  216MOL0     H29103   2.575   6.886   5.746 -1.1800  1.8020 -0.2504
  216MOL0     H29104   2.621   6.905   5.581  2.5708 -2.4166 -1.4466
  216MOL0     H29105   2.470   6.716   5.508  0.0878 -0.1745 -0.6317
  216MOL0     H29106   2.415   6.695   5.669 -1.7527  0.0169 -0.8181
  216MOL0     H29107   2.401   6.975   5.539  2.2978 -1.8983 -1.9083
  216MOL0     H29108   2.283   6.844   5.506  1.8153 -0.1571 -1.2375
  216MOL0     H29109   2.341   6.974   5.782  0.1724  0.1238  0.5188
  216MOL0     H29110   2.266   6.817   5.766 -1.7057  0.6497  1.7203
  216MOL0     H29111   1.999   6.842   5.793  1.1374  0.1094 -1.3858
  216MOL0     H29112   1.760   6.985   5.818  2.2091 -0.5075 -1.5079
  216MOL0     H29113   1.817   7.160   5.833  1.3218  0.6563 -0.8165
  216MOL0     H29114   1.695   6.995   5.597  0.8017  0.4232 -0.1547
  216MOL0     H29115   1.738   7.156   5.567  1.1926 -0.4608 -1.6398
  216MOL0     H29116   1.511   7.155   5.609 -0.9911  0.9571  0.7267
  216MOL0     H29117   1.593   7.243   5.737  1.2295 -0.2017  0.2530
  216MOL0     H29118   1.399   7.122   5.827  0.3006  0.8390 -2.1675
  216MOL0     H29119   1.547   7.047   5.903 -1.7450 -0.8970  0.3809
  216MOL0     H29120   1.217   6.836   5.654  1.5651 -0.1184  0.6743
  216MOL0     H29121   0.894   6.789   5.785 -1.5286 -1.1354 -1.6258
  216MOL0     H29122   0.999   6.797   5.650  0.1547 -0.8843 -0.2911
  216MOL0     H29123   0.982   6.638   5.725  1.0374  0.1867 -1.3632
  216MOL0     H29124   0.853   6.457   6.137  0.8119  0.4916 -0.7216
  216MOL0     H29125   0.656   6.364   6.228 -2.9316 -1.2546 -2.6490
  216MOL0     H29126   0.455   6.327   6.300 -2.1197 -1.1219  1.7013
  216MOL0     H29127   0.283   6.351   6.306  0.6941 -1.7947  0.3994
  216MOL0     H29128   0.425   6.290   6.050  0.0132  0.7215  0.6683
  216MOL0     H29129   0.405   6.160   6.168  1.4750  0.0063 -0.0928
  216MOL0     H29130   0.187   6.333   6.042  0.0165 -0.1502 -0.3277
  216MOL0     H29131   0.164   6.209   6.168 -3.0668 -0.7343 -1.9310
  216MOL0     H29132   0.220   6.189   5.876  0.4927 -0.4954  0.5040
  216MOL0     H29133   0.267   6.046   5.984 -1.7132 -1.1781 -0.0465
  216MOL0     H29134   0.017   6.189   5.955  2.9029  0.6514 -0.4704
  216MOL0     H29135   0.031   6.048   6.070  1.3006 -0.4348 -0.2756
  216MOL0     H29136  -0.081   5.979   5.832 -0.1492 -1.3021 -0.6160
  216MOL0     H29137   0.094   5.990   5.776  3.2102 -2.9971  2.6889
  216MOL0     H29138   0.062   5.840   6.035 -0.0620 -0.5329 -0.0660
  216MOL0     H29139   0.160   5.824   5.893  0.6718  1.2831  2.1751
  216MOL0     H29140  -0.133   5.773   5.941  1.2090  2.1390  0.5532
  216MOL0     H29141  -0.029   5.638   5.946  0.2860  0.8287 -0.0319
  216MOL0     H29142   0.421   6.689   6.062 -0.1075 -0.8171  1.1428
  216MOL0     H29143   0.641   6.789   5.977  0.6828 -1.5799 -1.5864
  216MOL0     H29144   1.225   6.776   6.143  4.2868 -0.6257  1.1751
  216MOL0     H29145   1.406   6.898   6.039 -1.4170  0.9767 -0.0199
  216MOL0     H29146   3.318   6.494   5.893 -2.1983  3.1677  2.4571
  216MOL0     H29147   3.524   6.576   5.971 -1.4123 -2.7711 -2.4150
  216MOL0     H29148   3.861   6.950   5.777  0.8904  0.0434  0.1052
  216MOL0     H29149   4.066   7.035   5.786 -0.7002 -6.6260 -0.2288
  216MOL0     H29150   4.172   7.266   6.152  0.7030  0.9505 -0.9138
  216MOL0     H29151   4.238   7.098   6.189 -1.1720 -0.0343  0.1910
  216MOL0     H29152   4.434   7.153   6.045  0.3878  0.5914 -0.0709
  216MOL0     H29153   4.419   7.280   6.172 -1.2768 -0.9528  1.5685
  216MOL0     H29154   4.297   7.423   6.009 -1.6912 -1.9428  1.6428
  216MOL0     H29155   4.362   7.323   5.876 -2.1598  1.7346  0.6680
  216MOL0     H29156   4.595   7.346   5.968  1.2068 -0.5281 -0.9696
  216MOL0     H29157   4.512   7.484   6.064  0.9563 -0.9792 -1.2002
  216MOL0     H29158   4.603   7.610   5.666  0.5085 -1.9723 -0.6390
  216MOL0     H29159   4.020   7.114   6.206  2.4734 -1.0839  0.6482
  216MOL0     H29160   3.804   6.973   6.196 -0.4511 -0.6218 -1.0233
  217MOL0     O29161   2.695   1.551   6.306  0.7624 -0.0797 -0.4824
  217MOL0     C29162   2.737   1.637   6.224  0.2950 -0.4228 -0.7844
  217MOL0     O29163   2.659   1.727   6.160 -0.3649  0.5192  0.1549
  217MOL0     C29164   2.522   1.726   6.159  0.3728 -0.1232  0.3250
  217MOL0     C29165   2.437   1.650   6.069  0.4193 -0.7245 -0.4552
  217MOL0     C29166   2.292   1.644   6.080  0.5774 -1.0828  0.4681
  217MOL0     C29167   2.225   1.728   6.172  0.0734 -0.1618 -0.6169
  217MOL0     O29168   2.086   1.720   6.170 -0.1065 -0.4471 -0.1568
  217MOL0     C29169   2.033   1.729   6.304 -0.2714  0.3219  0.0353
  217MOL0     C29170   1.898   1.674   6.299  0.2302  0.4943 -0.4226
  217MOL0     C29171   1.807   1.764   6.221  0.1827 -0.5327 -0.7100
  217MOL0     C29172   1.659   1.731   6.247 -0.3886  0.1574  0.0331
  217MOL0     C29173   1.566   1.818   6.169 -0.0959 -0.3698 -0.1033
  217MOL0     C29174   1.419   1.806   6.220  0.2840  0.1272 -0.7829
  217MOL0     C29175   1.321   1.891   6.138  0.2865 -0.0515  0.4434
  217MOL0     C29176   1.278   1.821   6.004 -0.0705  0.2080  1.2712
  217MOL0     N29177   1.187   1.919   5.940  0.1255  0.1615 -0.1971
  217MOL0     C29178   1.190   1.951   5.802  0.2744 -0.1757 -0.2143
  217MOL0     C29179   1.124   2.065   5.797  0.6036  0.7625 -0.3971
  217MOL0     C29180   1.086   2.146   5.679  0.6121 -0.1230 -0.0945
  217MOL0     C29181   0.995   2.065   5.600  0.5213 -0.2134 -0.1734
  217MOL0     C29182   0.851   2.094   5.646  0.0877  0.3475 -0.7152
  217MOL0     C29183   0.775   1.998   5.563 -0.0813 -0.1748  0.5172
  217MOL0     O29184   0.651   1.968   5.619 -0.3650  0.8698 -0.5580
  217MOL0     C29185   0.547   2.040   5.586 -0.4822  0.5943 -0.0405
  217MOL0     C29186   0.554   2.153   5.507 -0.0263  0.3566 -0.7242
  217MOL0     C29187   0.444   2.227   5.471  0.4562 -0.3277  0.1606
  217MOL0     C29188   0.470   2.354   5.405 -0.5083  0.2411 -0.4694
  217MOL0     C29189   0.316   2.187   5.506 -0.1839  0.7914 -0.6318
  217MOL0     C29190   0.195   2.253   5.454 -0.1634  0.9564  0.1488
  217MOL0     O29191   0.097   2.163   5.416 -0.9482  0.2376  0.3177
  217MOL0     C29192  -0.003   2.209   5.329 -0.6137 -0.4164  0.1804
  217MOL0     C29193  -0.088   2.315   5.357  0.4436 -0.3981 -0.5052
  217MOL0     C29194  -0.189   2.355   5.262 -0.6405  0.4955  0.0496
  217MOL0     C29195  -0.188   2.308   5.130 -0.5393  0.1666 -0.0657
  217MOL0     O29196  -0.282   2.352   5.033 -0.5065  0.6010 -0.0789
  217MOL0     C29197  -0.368   2.255   4.972 -1.0482  0.2640  0.2151
  217MOL0     C29198  -0.486   2.341   4.923  0.1280 -0.0007  0.0532
  217MOL0     C29199  -0.586   2.375   5.042  0.0775 -0.3874  0.6334
  217MOL0     C29200  -0.732   2.412   5.000 -0.8095  0.4213 -0.0176
  217MOL0     C29201  -0.746   2.547   4.930  0.6456  1.1554  0.5103
  217MOL0     C29202  -0.888   2.590   4.888  0.5832 -0.4291 -0.1724
  217MOL0     C29203  -0.888   2.723   4.798 -0.3485 -0.1158 -1.1645
  217MOL0     C29204  -1.019   2.735   4.722 -0.1420 -0.5871  0.5235
  217MOL0    Cl29205  -1.146   2.785   4.843 -0.0743  0.0750 -0.2366
  217MOL0     C29206  -0.107   2.193   5.103  0.4443 -0.2088  0.2137
  217MOL0     C29207  -0.014   2.150   5.202  0.1007  0.6378  0.3882
  217MOL0     O29208   0.186   2.374   5.444 -0.4397 -0.0171 -0.1522
  217MOL0     C29209   0.303   2.066   5.583  0.0962  0.2458 -0.5050
  217MOL0     C29210   0.416   1.997   5.623 -0.7459  0.9603  0.2249
  217MOL0     N29211   1.063   2.087   5.914  0.1039 -0.3999 -0.5578
  217MOL0     N29212   1.091   1.996   5.999 -0.3870  0.0992  0.4150
  217MOL0     C29213   2.305   1.794   6.268 -0.5842 -0.9700  0.6911
  217MOL0     C29214   2.445   1.808   6.249  0.0150 -0.2654  0.5668
  217MOL0     C29215   2.883   1.635   6.216  0.0599  0.1689 -0.2797
  217MOL0     C29216   2.971   1.580   6.318 -0.0494  0.0967 -0.9381
  217MOL0     C29217   3.111   1.581   6.299 -0.2962 -0.7277  0.1392
  217MOL0     C29218   3.169   1.635   6.185  0.1175  0.1974 -0.7263
  217MOL0     O29219   3.303   1.644   6.164 -0.2662  0.0039  0.8838
  217MOL0     C29220   3.391   1.543   6.215  0.2230  0.4210 -0.2507
  217MOL0     C29221   3.466   1.612   6.328 -0.4144 -0.1297  0.0266
  217MOL0     C29222   3.565   1.502   6.394 -0.3084  0.6129 -0.5883
  217MOL0     C29223   3.645   1.537   6.525 -0.0448  0.2875  0.6814
  217MOL0     C29224   3.554   1.586   6.628 -0.4690  0.1510 -0.1558
  217MOL0     C29225   3.501   1.636   6.726 -0.6889  0.7494 -0.3051
  217MOL0     C29226   3.084   1.699   6.090 -0.4989 -0.2852  0.4982
  217MOL0     C29227   2.949   1.696   6.108 -0.8572  0.1966  0.1158
  217MOL0     H29228   2.497   1.592   5.999 -0.3163 -1.8831 -0.1306
  217MOL0     H29229   2.240   1.581   6.009 -2.3230  0.8233  0.7568
  217MOL0     H29230   2.095   1.677   6.378 -1.4985 -1.8281 -0.3726
  217MOL0     H29231   2.021   1.834   6.332 -4.3477 -0.3120  1.2704
  217MOL0     H29232   1.892   1.577   6.249 -1.9552 -0.4035  1.4052
  217MOL0     H29233   1.870   1.672   6.405  1.6783  4.7592  0.2325
  217MOL0     H29234   1.831   1.868   6.241  0.2561 -0.1268 -2.6929
  217MOL0     H29235   1.828   1.749   6.114  0.7438 -0.2708 -0.6411
  217MOL0     H29236   1.641   1.624   6.235  4.0787 -0.9785  1.6265
  217MOL0     H29237   1.633   1.757   6.350 -1.2600  0.3585 -0.2252
  217MOL0     H29238   1.594   1.921   6.194  2.0403 -1.1692  0.9589
  217MOL0     H29239   1.577   1.814   6.060  0.1635  1.1885 -0.1567
  217MOL0     H29240   1.391   1.700   6.218  2.5933 -0.6901  2.0294
  217MOL0     H29241   1.422   1.825   6.328 -0.8990 -1.8926 -0.3264
  217MOL0     H29242   1.232   1.922   6.193  0.2107  1.9649 -0.7046
  217MOL0     H29243   1.368   1.985   6.107 -2.0728  1.5056  1.3357
  217MOL0     H29244   1.221   1.730   6.025 -0.9080 -0.4647 -2.8749
  217MOL0     H29245   1.355   1.788   5.934 -1.8559 -0.5269 -0.4562
  217MOL0     H29246   1.245   1.902   5.723  0.7838 -0.2717  0.1949
  217MOL0     H29247   1.069   2.251   5.708 -0.2209 -0.1541 -0.4307
  217MOL0     H29248   1.180   2.156   5.625  1.5695  0.5394  1.6063
  217MOL0     H29249   1.015   1.960   5.623  0.1008 -0.3857 -0.5941
  217MOL0     H29250   1.011   2.093   5.495  2.8625  0.4680  0.2987
  217MOL0     H29251   0.829   2.199   5.628 -0.5794  0.3396  0.0328
  217MOL0     H29252   0.830   2.069   5.750  0.1429 -2.3694 -1.2796
  217MOL0     H29253   0.822   1.900   5.577 -0.2968 -0.0769  2.0465
  217MOL0     H29254   0.781   2.028   5.458  2.0534  3.5086  1.5233
  217MOL0     H29255   0.652   2.197   5.494  0.3404  0.0916  0.9041
  217MOL0     H29256   0.445   2.357   5.298  2.1300  0.4743 -1.1418
  217MOL0     H29257   0.420   2.436   5.458  0.8098 -0.8422  2.6595
  217MOL0     H29258   0.576   2.379   5.406 -1.1559  3.4670 -0.4322
  217MOL0     H29259  -0.074   2.389   5.435 -3.9622  0.8081 -0.5808
  217MOL0     H29260  -0.256   2.434   5.292  0.3596  0.8647  1.3962
  217MOL0     H29261  -0.326   2.201   4.887 -2.1716  0.5973 -0.5791
  217MOL0     H29262  -0.410   2.175   5.034 -1.6086  0.5572  0.2184
  217MOL0     H29263  -0.449   2.436   4.883 -0.8351  0.9428  1.3064
  217MOL0     H29264  -0.534   2.282   4.845  1.5116 -0.1524 -0.7122
  217MOL0     H29265  -0.544   2.451   5.110 -2.5283  0.3347  1.5566
  217MOL0     H29266  -0.580   2.278   5.091  0.7566 -1.4048 -1.3717
  217MOL0     H29267  -0.779   2.330   4.944 -1.9576  1.1118 -0.1114
  217MOL0     H29268  -0.793   2.420   5.091 -1.0913 -1.3263 -0.0150
  217MOL0     H29269  -0.687   2.542   4.838  0.1504 -1.8182  0.2741
  217MOL0     H29270  -0.699   2.620   4.997  0.6426  0.6793  1.0356
  217MOL0     H29271  -0.934   2.513   4.825  0.0688 -0.2622 -0.0081
  217MOL0     H29272  -0.953   2.618   4.971 -0.2880  1.1202 -1.3056
  217MOL0     H29273  -0.798   2.722   4.736  0.6901  1.1745  0.2678
  217MOL0     H29274  -0.870   2.812   4.858  0.8958  0.1546 -1.9206
  217MOL0     H29275  -1.040   2.635   4.683  0.9996 -0.6053 -0.0965
  217MOL0     H29276  -1.014   2.813   4.645  0.4320 -1.0638  0.0669
  217MOL0     H29277  -0.096   2.160   5.000  1.7229  1.7532 -0.3272
  217MOL0     H29278   0.041   2.060   5.175 -1.4820 -0.6166  1.1537
  217MOL0     H29279   0.206   2.046   5.626  0.5348  0.6844  0.7257
  217MOL0     H29280   0.405   1.911   5.688  2.1158 -0.3148 -0.8275
  217MOL0     H29281   2.258   1.865   6.335  0.3287  3.3516 -2.7977
  217MOL0     H29282   2.495   1.882   6.311  4.2977  1.6288 -4.3441
  217MOL0     H29283   2.930   1.553   6.414  0.6101  1.2557 -0.3034
  217MOL0     H29284   3.161   1.526   6.379 -0.6853 -1.7094 -0.2863
  217MOL0     H29285   3.337   1.453   6.244  0.5637  0.3632  0.2053
  217MOL0     H29286   3.459   1.523   6.132 -0.3933 -0.0802 -0.6431
  217MOL0     H29287   3.392   1.650   6.399  0.6217 -0.1683  1.1568
  217MOL0     H29288   3.530   1.693   6.291 -1.4156  0.8557  0.4215
  217MOL0     H29289   3.635   1.477   6.314  0.3363 -0.9380  0.4155
  217MOL0     H29290   3.520   1.407   6.422  1.4537 -0.2043 -0.3761
  217MOL0     H29291   3.730   1.601   6.500 -0.8695  0.5084 -1.7865
  217MOL0     H29292   3.687   1.444   6.564  0.8282  1.1162  1.7709
  217MOL0     H29293   3.456   1.689   6.808 -0.2522  1.8381 -0.7494
  217MOL0     H29294   3.126   1.759   6.010 -0.7864 -0.3436  0.2997
  217MOL0     H29295   2.905   1.755   6.028  2.2857  2.3169 -0.2329
  218MOL0     O29296   2.049   6.417   0.198  0.2170 -0.0951  0.0932
  218MOL0     C29297   2.037   6.390   0.317 -0.6236  0.4679 -0.0982
  218MOL0     O29298   1.921   6.398   0.390  0.5866 -0.0967 -0.3389
  218MOL0     C29299   1.823   6.460   0.321 -0.4056  0.0825  0.7832
  218MOL0     C29300   1.839   6.586   0.261 -0.0114 -0.0870 -0.1671
  218MOL0     C29301   1.729   6.653   0.206  0.1783 -0.2496 -0.2576
  218MOL0     C29302   1.611   6.584   0.211  0.8057  0.4919 -0.5267
  218MOL0     O29303   1.496   6.639   0.151 -0.1902 -0.1369 -0.1503
  218MOL0     C29304   1.474   6.782   0.153  0.2008  0.2068  0.5190
  218MOL0     C29305   1.344   6.824   0.100  0.2304  0.1941  0.0331
  218MOL0     C29306   1.275   6.924   0.203 -0.4420  0.3881 -0.1822
  218MOL0     C29307   1.139   6.987   0.161 -0.9634 -0.3676 -0.2542
  218MOL0     C29308   1.071   7.031   0.293 -0.0897 -0.1604  0.0532
  218MOL0     C29309   0.969   7.141   0.260 -0.2426 -0.7782 -0.2782
  218MOL0     C29310   0.880   7.181   0.389 -0.1942  0.0862  0.4042
  218MOL0     C29311   0.775   7.082   0.445  0.0493 -0.1188 -0.2733
  218MOL0     N29312   0.684   7.141   0.542 -0.1473 -0.3441 -0.1345
  218MOL0     C29313   0.614   7.260   0.524 -0.0050  0.0666  0.0956
  218MOL0     C29314   0.539   7.261   0.640 -0.1320 -1.1026 -0.4716
  218MOL0     C29315   0.457   7.375   0.680  0.8647  0.1177  0.1825
  218MOL0     C29316   0.362   7.434   0.585  0.0170 -0.1343  1.3026
  218MOL0     C29317   0.236   7.490   0.655  0.0005  0.2477 -0.4897
  218MOL0     C29318   0.193   7.602   0.577  0.0348 -0.3088 -0.0563
  218MOL0     O29319   0.082   7.653   0.643 -0.0301 -0.2286  0.0692
  218MOL0     C29320  -0.022   7.691   0.561 -0.2914  0.6516  0.6427
  218MOL0     C29321  -0.025   7.814   0.506  0.0689  0.2939  0.4540
  218MOL0     C29322  -0.127   7.846   0.413  0.0753  0.2249 -0.4791
  218MOL0     C29323  -0.107   7.967   0.332 -0.1441  0.2210 -0.8939
  218MOL0     C29324  -0.229   7.754   0.390  0.3162 -0.7496  0.6030
  218MOL0     C29325  -0.341   7.778   0.305 -0.2175  0.1084 -0.3756
  218MOL0     O29326  -0.381   7.676   0.217 -0.3241 -0.5063 -0.2476
  218MOL0     C29327  -0.483   7.699   0.127 -0.4140 -0.1894 -0.1676
  218MOL0     C29328  -0.459   7.698  -0.012  0.9052 -0.7664 -0.1840
  218MOL0     C29329  -0.558   7.709  -0.101  0.7190 -0.9446 -0.3049
  218MOL0     C29330  -0.697   7.713  -0.067  1.0751  0.1275  0.4969
  218MOL0     O29331  -0.792   7.713  -0.163  0.3737  0.0351 -0.1755
  218MOL0     C29332  -0.914   7.780  -0.131  0.3763 -0.3777  0.0991
  218MOL0     C29333  -1.002   7.801  -0.263 -1.2341  0.4191  0.1100
  218MOL0     C29334  -1.112   7.886  -0.227  0.0411 -0.0553 -0.3315
  218MOL0     C29335  -1.223   7.884  -0.332  0.1560 -1.2786  0.3934
  218MOL0     C29336  -1.329   7.975  -0.277 -0.5710  0.0302 -0.3647
  218MOL0     C29337  -1.448   7.991  -0.370  0.3693 -0.1734 -0.0067
  218MOL0     C29338  -1.544   8.106  -0.331 -0.2944  0.8037  0.4413
  218MOL0     C29339  -1.491   8.248  -0.326 -0.4661 -0.2977  0.3064
  218MOL0    Cl29340  -1.603   8.354  -0.233  0.2061 -0.1559  0.4332
  218MOL0     C29341  -0.719   7.729   0.069  0.4570 -0.1582 -0.4591
  218MOL0     C29342  -0.619   7.710   0.168  0.6148 -0.8147 -0.9319
  218MOL0     O29343  -0.415   7.874   0.335 -0.1512 -0.8480 -0.8398
  218MOL0     C29344  -0.217   7.628   0.443 -0.0175  0.0669  1.1769
  218MOL0     C29345  -0.116   7.593   0.530  0.3454 -0.5940 -0.5891
  218MOL0     N29346   0.547   7.145   0.711 -0.2751  0.6403 -0.1893
  218MOL0     N29347   0.629   7.073   0.649  0.0546  0.5668  0.1592
  218MOL0     C29348   1.589   6.465   0.277 -1.1715 -0.2111  0.9601
  218MOL0     C29349   1.701   6.407   0.333 -0.5821 -0.0955  0.1091
  218MOL0     C29350   2.169   6.362   0.380 -0.2077 -0.2926  0.4708
  218MOL0     C29351   2.180   6.287   0.493  0.7730 -0.1511  0.0270
  218MOL0     C29352   2.304   6.280   0.562  0.1560  0.6871  0.0550
  218MOL0     C29353   2.420   6.324   0.509  0.3467 -0.7581  0.3685
  218MOL0     O29354   2.538   6.304   0.580 -0.0365 -0.6207  0.2004
  218MOL0     C29355   2.667   6.332   0.528  0.2571 -0.4901 -0.1985
  218MOL0     C29356   2.772   6.225   0.573  0.3240 -0.2790 -0.4736
  218MOL0     C29357   2.837   6.266   0.709  0.3668  0.4407 -0.1812
  218MOL0     C29358   2.915   6.148   0.774 -0.2178 -0.5742  0.1038
  218MOL0     C29359   3.001   6.203   0.878 -0.0931 -0.2293 -0.2172
  218MOL0     C29360   3.083   6.238   0.960 -0.9099  0.4477  0.4104
  218MOL0     C29361   2.408   6.397   0.394 -0.6906  0.4651  0.4658
  218MOL0     C29362   2.287   6.419   0.329 -0.0419 -0.4450  0.0006
  218MOL0     H29363   1.935   6.635   0.246 -0.5981  0.5062 -2.2854
  218MOL0     H29364   1.736   6.746   0.149  1.2132 -1.8842 -3.0051
  218MOL0     H29365   1.476   6.813   0.258 -2.6456  2.1789  0.0950
  218MOL0     H29366   1.547   6.846   0.102  0.0139 -1.6757 -2.3952
  218MOL0     H29367   1.357   6.868   0.001  0.0339 -0.6237 -0.3602
  218MOL0     H29368   1.281   6.735   0.095  1.7465 -0.8974 -0.0668
  218MOL0     H29369   1.262   6.876   0.301 -1.6856  1.6164  0.2916
  218MOL0     H29370   1.335   7.015   0.210 -1.2274  1.2367 -3.1129
  218MOL0     H29371   1.159   7.071   0.095  2.0750 -2.3814 -2.1457
  218MOL0     H29372   1.082   6.909   0.109 -0.4673 -2.5477  2.2700
  218MOL0     H29373   1.014   6.950   0.338  1.9674 -1.1348  1.0151
  218MOL0     H29374   1.154   7.073   0.351 -0.6866  2.6430 -0.9634
  218MOL0     H29375   1.013   7.236   0.230 -0.7671 -0.5947 -0.4751
  218MOL0     H29376   0.891   7.112   0.189 -1.1482  0.6588  0.0858
  218MOL0     H29377   0.945   7.205   0.473  2.1299 -0.1120 -1.2284
  218MOL0     H29378   0.827   7.272   0.362 -0.5107  0.5407  2.3838
  218MOL0     H29379   0.825   6.997   0.494 -0.1405  0.3353  0.7304
  218MOL0     H29380   0.726   7.039   0.357  2.1046 -3.0094 -0.1701
  218MOL0     H29381   0.612   7.342   0.453 -2.4264  1.0255  1.1961
  218MOL0     H29382   0.397   7.328   0.759  3.2784  0.0918  2.1203
  218MOL0     H29383   0.528   7.442   0.728 -0.1129  0.2528  1.5058
  218MOL0     H29384   0.326   7.362   0.511 -2.2307  2.2019 -0.0225
  218MOL0     H29385   0.428   7.505   0.534 -2.1734  0.1394 -1.4235
  218MOL0     H29386   0.265   7.535   0.750  0.1779 -0.8451 -0.0112
  218MOL0     H29387   0.160   7.412   0.668  0.4357  0.2329  2.8254
  218MOL0     H29388   0.170   7.560   0.479 -1.1546  0.7043 -0.2279
  218MOL0     H29389   0.272   7.677   0.568 -2.7774  2.9367  0.3470
  218MOL0     H29390   0.056   7.881   0.534  2.3725 -1.9802 -0.4017
  218MOL0     H29391  -0.133   7.949   0.227  2.5844 -1.9588 -1.2879
  218MOL0     H29392  -0.164   8.052   0.371  0.6955  1.3924 -2.1083
  218MOL0     H29393  -0.000   7.989   0.332  0.2835 -1.4633  1.4432
  218MOL0     H29394  -0.362   7.681  -0.057  0.3758 -1.0806 -1.2369
  218MOL0     H29395  -0.546   7.709  -0.208 -0.1007 -1.5248 -0.4045
  218MOL0     H29396  -0.968   7.714  -0.063  3.6052 -2.0066  1.3191
  218MOL0     H29397  -0.904   7.882  -0.091  1.5618  0.8416 -3.0052
  218MOL0     H29398  -0.923   7.843  -0.327  1.5296 -0.7205  2.5274
  218MOL0     H29399  -1.042   7.708  -0.305 -0.6022  0.6566 -1.0777
  218MOL0     H29400  -1.067   7.983  -0.201  1.4207 -0.8206  0.2627
  218MOL0     H29401  -1.158   7.839  -0.139 -1.8943  1.3875 -0.4958
  218MOL0     H29402  -1.190   7.930  -0.425 -1.9490  1.6588  0.9432
  218MOL0     H29403  -1.253   7.779  -0.339  2.2988 -1.9713  0.9427
  218MOL0     H29404  -1.281   8.071  -0.260 -1.9768  0.5085  1.2253
  218MOL0     H29405  -1.368   7.931  -0.184  2.8386 -0.8914  0.7714
  218MOL0     H29406  -1.406   8.012  -0.469  3.4141 -0.1783  1.1709
  218MOL0     H29407  -1.505   7.899  -0.385  1.8212 -1.4503  1.8079
  218MOL0     H29408  -1.590   8.087  -0.233  0.7727 -1.6911  0.5221
  218MOL0     H29409  -1.615   8.110  -0.414  1.9624  0.8331 -1.5745
  218MOL0     H29410  -1.486   8.291  -0.426 -1.7163 -0.9064 -0.0322
  218MOL0     H29411  -1.394   8.252  -0.275  0.8410  3.1832 -2.0377
  218MOL0     H29412  -0.816   7.750   0.112  0.3151 -0.9583 -0.3725
  218MOL0     H29413  -0.641   7.730   0.273  1.1045 -1.3261 -0.7231
  218MOL0     H29414  -0.282   7.548   0.410  1.8684 -0.7962 -0.6656
  218MOL0     H29415  -0.104   7.496   0.577  0.7752 -0.7133 -0.9403
  218MOL0     H29416   1.496   6.410   0.286  0.6894 -3.6864  0.5139
  218MOL0     H29417   1.682   6.303   0.359  1.9403 -1.6209 -3.4883
  218MOL0     H29418   2.090   6.236   0.526  0.0714  1.9863  1.6714
  218MOL0     H29419   2.319   6.239   0.662  4.1912 -0.3914 -0.7948
  218MOL0     H29420   2.669   6.344   0.420 -2.0800  1.2656 -0.1309
  218MOL0     H29421   2.708   6.425   0.568  1.7619 -0.4467 -1.7222
  218MOL0     H29422   2.848   6.216   0.494  2.7808 -0.4384  1.7509
  218MOL0     H29423   2.719   6.130   0.583  0.1194 -0.0646  0.5901
  218MOL0     H29424   2.757   6.299   0.776 -0.3170 -0.2080 -0.6578
  218MOL0     H29425   2.909   6.346   0.693  1.4777 -0.3092  0.8842
  218MOL0     H29426   2.982   6.096   0.705  2.9778  1.0127  1.7681
  218MOL0     H29427   2.843   6.082   0.824 -1.6647  1.8575  1.4203
  218MOL0     H29428   3.152   6.277   1.032 -1.4807  0.7502  0.8004
  218MOL0     H29429   2.495   6.437   0.343 -1.8965  0.0881 -2.0146
  218MOL0     H29430   2.275   6.484   0.243  1.4099 -2.1620 -1.5763
  219MOL0     O29431   3.831   0.879  11.291  1.4187 -0.1680 -0.1662
  219MOL0     C29432   3.939   0.921  11.326  0.4164 -0.2488  0.2538
  219MOL0     O29433   3.965   1.032  11.395 -0.1260 -0.7665 -0.1367
  219MOL0     C29434   3.870   1.085  11.474  0.1003  0.3314 -0.1567
  219MOL0     C29435   3.831   1.222  11.453  0.0910  0.7744  0.0232
  219MOL0     C29436   3.741   1.281  11.540  0.0251 -0.2086 -0.6616
  219MOL0     C29437   3.685   1.216  11.651 -0.3702  0.2479 -0.0459
  219MOL0     O29438   3.574   1.274  11.715 -0.9763 -0.3184  0.3889
  219MOL0     C29439   3.481   1.186  11.777  0.0385  0.1737 -0.2401
  219MOL0     C29440   3.353   1.266  11.831  0.7283  0.4163 -0.8055
  219MOL0     C29441   3.246   1.283  11.732 -0.1401 -0.0851  0.7480
  219MOL0     C29442   3.117   1.310  11.795  0.8060 -0.5211 -0.1954
  219MOL0     C29443   2.999   1.326  11.697 -0.5039 -0.9061  0.6164
  219MOL0     C29444   2.879   1.370  11.780 -0.0926  0.2253  0.5694
  219MOL0     C29445   2.744   1.394  11.707  0.0765  0.5946  0.3251
  219MOL0     C29446   2.763   1.490  11.593 -0.8443  0.1387 -0.7575
  219MOL0     N29447   2.638   1.561  11.562  0.0008  0.1065 -0.3199
  219MOL0     C29448   2.512   1.511  11.527  0.6636  0.7991  0.1217
  219MOL0     C29449   2.435   1.623  11.521 -0.1987 -0.4994  0.7592
  219MOL0     C29450   2.292   1.637  11.482 -0.4349 -0.0321  0.2365
  219MOL0     C29451   2.257   1.614  11.335 -0.6757 -0.4659  0.0480
  219MOL0     C29452   2.279   1.469  11.281  0.0672 -0.1107 -0.6422
  219MOL0     C29453   2.176   1.416  11.180  0.2970  0.1967 -0.1000
  219MOL0     O29454   2.163   1.512  11.075 -0.5317 -0.4238  0.4673
  219MOL0     C29455   2.037   1.527  11.022  0.6276  0.2507 -0.8923
  219MOL0     C29456   1.909   1.467  11.057 -0.0705 -1.0086  1.0414
  219MOL0     C29457   1.789   1.495  10.985  0.0285 -0.9965 -0.0195
  219MOL0     C29458   1.658   1.427  11.039  0.0934  0.2077 -0.4196
  219MOL0     C29459   1.793   1.582  10.871  0.6739 -0.2200  0.2471
  219MOL0     C29460   1.685   1.598  10.777  0.3382 -0.2711 -0.3185
  219MOL0     O29461   1.576   1.523  10.794  1.5396 -0.4559  0.5050
  219MOL0     C29462   1.469   1.539  10.707  0.5977 -0.1379  0.0590
  219MOL0     C29463   1.347   1.582  10.765 -0.4442 -0.3749  0.8070
  219MOL0     C29464   1.229   1.585  10.700  0.1314  0.0932  0.4679
  219MOL0     C29465   1.221   1.550  10.568 -0.8086 -0.7786 -0.4266
  219MOL0     O29466   1.093   1.543  10.517  0.1895 -0.2998 -0.1651
  219MOL0     C29467   1.072   1.437  10.421  0.2502 -0.3968 -0.0986
  219MOL0     C29468   1.065   1.498  10.280 -0.0592 -0.6661  0.6775
  219MOL0     C29469   0.929   1.560  10.253 -0.0328 -0.0356  0.1125
  219MOL0     C29470   0.902   1.535  10.099  0.0113 -0.4482 -0.5913
  219MOL0     C29471   0.766   1.600  10.058  0.3206  0.6326 -0.3936
  219MOL0     C29472   0.653   1.568  10.160 -0.3247  0.9231  0.4051
  219MOL0     C29473   0.513   1.610  10.101 -0.0428  0.3961  0.2526
  219MOL0     C29474   0.428   1.706  10.188  0.2268  0.7216  0.3166
  219MOL0    Cl29475   0.330   1.625  10.317  0.2169 -0.0198  0.2875
  219MOL0     C29476   1.347   1.507  10.512 -0.1191  0.4307 -0.1509
  219MOL0     C29477   1.473   1.510  10.574 -1.1088 -0.1862  0.0045
  219MOL0     O29478   1.699   1.684  10.688  0.1991 -0.0661  0.3877
  219MOL0     C29479   1.915   1.636  10.834  0.6648  0.2784 -1.1579
  219MOL0     C29480   2.031   1.611  10.911 -0.5705  0.4371  0.4854
  219MOL0     N29481   2.515   1.731  11.544  0.0635 -0.0556  0.6557
  219MOL0     N29482   2.624   1.703  11.590 -0.8524  0.8115  0.1393
  219MOL0     C29483   3.721   1.085  11.662 -0.6564 -0.3085 -0.1559
  219MOL0     C29484   3.814   1.019  11.578  0.4831 -0.2317  0.1424
  219MOL0     C29485   4.057   0.851  11.281  0.5680  0.0698  0.4862
  219MOL0     C29486   4.186   0.916  11.295  0.2778 -0.0107  0.4282
  219MOL0     C29487   4.295   0.861  11.231 -0.2429 -1.2457  0.3942
  219MOL0     C29488   4.287   0.743  11.167  0.7125 -0.8624 -0.1083
  219MOL0     O29489   4.396   0.682  11.119 -0.6291  0.4113 -0.8304
  219MOL0     C29490   4.466   0.615  11.222  0.6377  0.3105  0.4824
  219MOL0     C29491   4.608   0.589  11.189 -0.9080  0.4461 -0.2861
  219MOL0     C29492   4.710   0.698  11.219 -0.5478 -0.5304  0.4127
  219MOL0     C29493   4.735   0.719  11.373  0.0489 -0.0966 -0.0387
  219MOL0     C29494   4.798   0.841  11.401 -0.1672  0.4555 -0.7704
  219MOL0     C29495   4.844   0.948  11.437  1.3064 -0.0042 -0.0184
  219MOL0     C29496   4.158   0.687  11.149 -0.3503  0.7874  0.1046
  219MOL0     C29497   4.042   0.737  11.205  0.6218 -0.2115  0.0350
  219MOL0     H29498   3.884   1.269  11.370  0.7842  0.6823  0.4100
  219MOL0     H29499   3.699   1.375  11.506 -1.7305 -1.0190 -0.8407
  219MOL0     H29500   3.455   1.118  11.695  0.7986 -0.3714 -0.0339
  219MOL0     H29501   3.518   1.134  11.865 -0.6524  0.1539  0.0473
  219MOL0     H29502   3.316   1.209  11.916 -2.6877  1.0316 -1.7423
  219MOL0     H29503   3.393   1.357  11.877  1.8485  0.1118 -1.1514
  219MOL0     H29504   3.273   1.373  11.676  0.8855 -0.3415  0.8144
  219MOL0     H29505   3.242   1.192  11.671 -0.0830 -1.2259  2.3694
  219MOL0     H29506   3.077   1.226  11.854  0.5932  0.4517  1.0736
  219MOL0     H29507   3.123   1.390  11.869 -0.6534  0.2109 -0.8267
  219MOL0     H29508   3.025   1.406  11.628 -1.4913 -1.6273 -0.6348
  219MOL0     H29509   2.971   1.231  11.650 -0.7126  0.0228 -1.1774
  219MOL0     H29510   2.863   1.285  11.848  0.4445  0.5239  1.0843
  219MOL0     H29511   2.903   1.465  11.829  0.5445  1.1250 -1.3793
  219MOL0     H29512   2.706   1.297  11.672  1.7127 -0.6095  1.7583
  219MOL0     H29513   2.672   1.443  11.773 -1.4592 -0.4617 -0.5084
  219MOL0     H29514   2.797   1.430  11.509 -1.3904 -1.2393 -0.0237
  219MOL0     H29515   2.845   1.557  11.621  0.0079 -1.8659  1.9797
  219MOL0     H29516   2.482   1.407  11.513  1.1364  0.8848 -1.8117
  219MOL0     H29517   2.236   1.584  11.560 -0.4595 -0.9916 -0.4194
  219MOL0     H29518   2.266   1.743  11.489  0.6444  0.2382  0.2835
  219MOL0     H29519   2.315   1.675  11.265 -1.7073  0.4325 -0.0535
  219MOL0     H29520   2.159   1.655  11.308 -0.2882  0.5740  0.2034
  219MOL0     H29521   2.296   1.406  11.369 -0.5885 -0.0478 -0.4638
  219MOL0     H29522   2.370   1.477  11.222  0.3770  0.0112 -0.1508
  219MOL0     H29523   2.086   1.393  11.238 -0.3250 -0.1924 -1.1870
  219MOL0     H29524   2.209   1.324  11.131  3.1437  0.5565  0.9424
  219MOL0     H29525   1.891   1.410  11.149 -1.4441 -1.4005  0.5652
  219MOL0     H29526   1.592   1.509  11.070 -1.4808 -1.6233  1.4342
  219MOL0     H29527   1.607   1.364  10.965  3.3825 -1.2798 -1.5863
  219MOL0     H29528   1.675   1.367  11.129 -0.7005 -0.1545 -0.4964
  219MOL0     H29529   1.352   1.596  10.872  0.8862  0.2604  0.6774
  219MOL0     H29530   1.139   1.606  10.759 -1.0289 -1.7896 -0.5643
  219MOL0     H29531   1.147   1.358  10.424 -0.4053 -1.1717 -2.4410
  219MOL0     H29532   0.976   1.393  10.449 -1.9489  3.2259 -1.1972
  219MOL0     H29533   1.143   1.574  10.265 -1.0106  0.0547 -0.9310
  219MOL0     H29534   1.094   1.420  10.209  0.6010 -2.2981  2.6534
  219MOL0     H29535   0.925   1.664  10.285 -1.7472  0.2027 -0.7362
  219MOL0     H29536   0.853   1.502  10.306 -0.7165  0.3962 -0.3797
  219MOL0     H29537   0.969   1.594  10.035 -0.2690 -0.3527 -0.8022
  219MOL0     H29538   0.915   1.432  10.064  0.8226 -0.1287 -1.2798
  219MOL0     H29539   0.746   1.580   9.952 -1.7709 -0.6249  0.1865
  219MOL0     H29540   0.775   1.709  10.058 -0.2559  0.6896 -1.1570
  219MOL0     H29541   0.653   1.460  10.178 -3.2752  0.7464 -0.1649
  219MOL0     H29542   0.675   1.623  10.252  2.3241  2.2263 -0.9133
  219MOL0     H29543   0.463   1.521  10.061 -2.1298  1.4173  0.4330
  219MOL0     H29544   0.530   1.656  10.003  0.2609  0.0063  0.1206
  219MOL0     H29545   0.349   1.743  10.122  0.1493  1.4278  0.8004
  219MOL0     H29546   0.495   1.785  10.224  3.1790 -0.5179 -2.0212
  219MOL0     H29547   1.334   1.452  10.419 -1.7872 -1.6957  1.2447
  219MOL0     H29548   1.557   1.463  10.524 -0.4997  1.2108 -0.3198
  219MOL0     H29549   1.919   1.701  10.747  0.1205  0.8767 -0.7507
  219MOL0     H29550   2.122   1.658  10.878 -0.5873 -0.3340 -0.7298
  219MOL0     H29551   3.669   1.017  11.729 -0.8278 -2.0386 -1.9269
  219MOL0     H29552   3.825   0.915  11.610 -0.8588  0.3947  2.9343
  219MOL0     H29553   4.214   1.016  11.328 -2.5115  1.1293 -0.3717
  219MOL0     H29554   4.386   0.918  11.248 -1.4985  0.8450  0.4938
  219MOL0     H29555   4.463   0.659  11.323  1.0311  2.1481 -0.2578
  219MOL0     H29556   4.422   0.520  11.252 -1.1554  1.8322  3.0624
  219MOL0     H29557   4.601   0.567  11.082 -2.2636 -0.7764  0.0254
  219MOL0     H29558   4.650   0.501  11.238 -0.1007  0.8413 -0.2480
  219MOL0     H29559   4.673   0.793  11.178  0.9902  2.1798  4.6124
  219MOL0     H29560   4.802   0.679  11.163  0.9255  0.4895  2.3692
  219MOL0     H29561   4.804   0.639  11.404  0.5912  0.0872 -0.7467
  219MOL0     H29562   4.645   0.703  11.432  1.1069 -1.6463  1.2797
  219MOL0     H29563   4.885   1.041  11.472 -2.8615  2.3452 -0.7187
  219MOL0     H29564   4.155   0.601  11.083  0.5086 -0.0111  1.0786
  219MOL0     H29565   3.945   0.699  11.177  0.5843  0.5550 -0.9256
  220MOL0     O29566   2.506   3.002  10.441  0.0970 -0.3275  0.0891
  220MOL0     C29567   2.566   2.942  10.524 -0.1288  0.0308  0.3350
  220MOL0     O29568   2.507   2.855  10.622  0.2834  0.2372  0.1949
  220MOL0     C29569   2.376   2.878  10.650 -0.4284  0.7253 -0.1289
  220MOL0     C29570   2.269   2.888  10.556 -0.4773 -0.6978 -0.5335
  220MOL0     C29571   2.143   2.864  10.595  0.8366  0.0469  0.1566
  220MOL0     C29572   2.106   2.854  10.734 -0.4406  0.3594  0.5098
  220MOL0     O29573   1.980   2.839  10.765  0.0806  0.4259 -0.1883
  220MOL0     C29574   1.956   2.711  10.824 -0.3829  0.0274  0.6905
  220MOL0     C29575   1.841   2.639  10.764 -0.1643 -1.5329  1.1866
  220MOL0     C29576   1.717   2.725  10.782 -0.8390  0.0745 -0.0340
  220MOL0     C29577   1.591   2.649  10.750 -0.2517  0.7118 -0.2347
  220MOL0     C29578   1.469   2.726  10.793 -0.9995 -0.0739  0.2088
  220MOL0     C29579   1.455   2.861  10.724 -0.2392 -0.1114  1.1511
  220MOL0     C29580   1.516   2.978  10.811  0.2361  0.3497  0.2782
  220MOL0     C29581   1.466   3.119  10.778 -0.4947  0.3440  0.4076
  220MOL0     N29582   1.317   3.135  10.772 -0.0998 -0.6304  0.2379
  220MOL0     C29583   1.233   3.172  10.878 -0.2730  0.5483  0.7160
  220MOL0     C29584   1.111   3.181  10.818 -1.1251 -0.6646 -0.3736
  220MOL0     C29585   0.974   3.208  10.879 -0.0935  0.3500  0.7221
  220MOL0     C29586   0.923   3.086  10.961  0.3855  0.6271  1.0367
  220MOL0     C29587   0.916   2.953  10.887  0.2525 -0.4311 -0.7374
  220MOL0     C29588   0.827   2.953  10.768  0.0047  0.3801 -0.3833
  220MOL0     O29589   0.700   2.909  10.810 -0.9443 -0.1600 -0.6667
  220MOL0     C29590   0.597   2.887  10.716 -0.2361  0.2264 -0.6305
  220MOL0     C29591   0.613   2.903  10.582 -0.0447  0.2316  0.9838
  220MOL0     C29592   0.505   2.889  10.494  0.1354  0.4567 -0.8544
  220MOL0     C29593   0.528   2.928  10.350  0.3570  0.2043  1.0569
  220MOL0     C29594   0.378   2.846  10.541  1.0601 -0.3577  0.7968
  220MOL0     C29595   0.258   2.833  10.452 -0.3916 -0.2864 -0.0367
  220MOL0     O29596   0.205   2.709  10.423  0.4879  0.3073 -0.4206
  220MOL0     C29597   0.287   2.594  10.442  0.3834 -0.2641 -0.2613
  220MOL0     C29598   0.240   2.505  10.544  0.4387  0.4924  1.0246
  220MOL0     C29599   0.307   2.380  10.566  0.5997  0.2248 -1.4432
  220MOL0     C29600   0.428   2.360  10.497 -0.5139 -0.3608  0.0967
  220MOL0     O29601   0.520   2.258  10.509 -0.6762  0.6316  0.2229
  220MOL0     C29602   0.535   2.209  10.638 -0.0838 -0.9548  0.2977
  220MOL0     C29603   0.663   2.277  10.699  0.3323  0.0614  0.2229
  220MOL0     C29604   0.649   2.431  10.744  0.2991  0.3574  0.9911
  220MOL0     C29605   0.761   2.454  10.845  0.5506 -0.2552 -0.0208
  220MOL0     C29606   0.903   2.429  10.793 -0.3251  0.1195 -1.1798
  220MOL0     C29607   0.959   2.548  10.717 -0.3443 -0.0620  0.6504
  220MOL0     C29608   1.094   2.510  10.649 -0.2389 -0.2476 -0.1466
  220MOL0     C29609   1.069   2.438  10.515 -0.3366 -0.8515 -0.2876
  220MOL0    Cl29610   0.979   2.525  10.393  0.0806  0.3516 -0.0719
  220MOL0     C29611   0.465   2.451  10.398 -0.4900  0.6519 -0.3545
  220MOL0     C29612   0.398   2.566  10.363  0.7507 -0.2377 -0.4323
  220MOL0     O29613   0.221   2.941  10.399  0.1032 -0.0347 -0.4200
  220MOL0     C29614   0.371   2.811  10.679  0.3419 -0.1865  0.5081
  220MOL0     C29615   0.484   2.839  10.757 -0.1705  0.3041  0.0586
  220MOL0     N29616   1.126   3.152  10.687  0.5243  0.4854 -0.1751
  220MOL0     N29617   1.251   3.143  10.653 -0.4979  0.7945 -0.1650
  220MOL0     C29618   2.205   2.863  10.832  1.0146 -0.0113  0.3113
  220MOL0     C29619   2.340   2.861  10.788 -0.3921  0.3395 -0.1784
  220MOL0     C29620   2.711   2.942  10.536  0.5309 -0.4967  0.2588
  220MOL0     C29621   2.789   3.017  10.442  0.1422 -1.0684  0.1932
  220MOL0     C29622   2.928   3.005  10.454 -0.2343 -0.6316  0.1466
  220MOL0     C29623   2.993   2.919  10.544 -0.5629  0.1486 -0.9996
  220MOL0     O29624   3.134   2.925  10.555 -0.3535  0.0795  0.0517
  220MOL0     C29625   3.198   2.860  10.670  0.7158  0.5343  1.3563
  220MOL0     C29626   3.351   2.856  10.653  0.3966  0.2196 -1.0620
  220MOL0     C29627   3.392   2.763  10.545 -0.4368  0.5405  0.1560
  220MOL0     C29628   3.550   2.768  10.550 -0.2459 -0.2562  0.5053
  220MOL0     C29629   3.600   2.693  10.660 -0.3790 -0.4046 -0.4746
  220MOL0     C29630   3.649   2.628  10.751  0.4165  0.3340  0.8874
  220MOL0     C29631   2.908   2.864  10.642 -0.1994 -0.0856  0.5748
  220MOL0     C29632   2.766   2.869  10.639 -0.2942 -0.6541  0.3548
  220MOL0     H29633   2.296   2.911  10.454  0.7046 -1.2394 -0.3660
  220MOL0     H29634   2.067   2.845  10.519 -1.4786 -2.3730  2.8340
  220MOL0     H29635   2.049   2.655  10.809  0.2263  0.8914  1.1369
  220MOL0     H29636   1.942   2.721  10.932 -1.1705  1.5579  0.4736
  220MOL0     H29637   1.870   2.617  10.661  0.3785 -0.0377  1.0021
  220MOL0     H29638   1.824   2.547  10.821  0.2941 -1.1060  2.0259
  220MOL0     H29639   1.712   2.767  10.882 -0.9815  0.8259 -0.3488
  220MOL0     H29640   1.726   2.807  10.710  0.1747 -1.5004 -1.8088
  220MOL0     H29641   1.584   2.621  10.644  3.2238  0.4600 -0.5072
  220MOL0     H29642   1.599   2.550  10.796 -1.0486  0.9919  0.5310
  220MOL0     H29643   1.386   2.669  10.749  0.4662 -2.8629  0.8095
  220MOL0     H29644   1.455   2.730  10.901  2.4300 -3.4872  0.9903
  220MOL0     H29645   1.516   2.850  10.634 -1.2210 -1.3433  0.6085
  220MOL0     H29646   1.353   2.897  10.705 -0.0416  2.0521  3.6049
  220MOL0     H29647   1.490   2.962  10.916  0.5166 -0.7136  0.1999
  220MOL0     H29648   1.625   2.973  10.806  0.2003 -0.3484  0.0912
  220MOL0     H29649   1.516   3.158  10.689  0.1130 -1.8447 -0.2838
  220MOL0     H29650   1.502   3.181  10.860 -0.6881  4.9515 -2.6451
  220MOL0     H29651   1.254   3.193  10.982 -2.4919  2.9116  0.7898
  220MOL0     H29652   0.961   3.288  10.953 -1.2311 -1.8029  3.0285
  220MOL0     H29653   0.909   3.229  10.794  3.3877  2.8436 -1.5974
  220MOL0     H29654   0.822   3.112  10.996 -0.0804  2.1145 -1.2234
  220MOL0     H29655   0.988   3.077  11.049  0.5072  1.2462  1.0119
  220MOL0     H29656   0.880   2.878  10.959  3.0399  1.1044  2.5513
  220MOL0     H29657   1.019   2.929  10.859  1.7032  2.8670  1.1647
  220MOL0     H29658   0.872   2.881  10.700 -2.0988 -2.8421  1.3617
  220MOL0     H29659   0.812   3.051  10.721 -1.5472  0.2221 -0.2867
  220MOL0     H29660   0.703   2.944  10.537 -1.9045  3.1168 -0.4073
  220MOL0     H29661   0.462   3.015  10.341 -1.2738 -1.0824 -0.2611
  220MOL0     H29662   0.636   2.933  10.337  1.0728 -6.0341  1.3585
  220MOL0     H29663   0.488   2.854  10.279 -0.6148  0.6493  1.1181
  220MOL0     H29664   0.148   2.520  10.600 -0.9751 -0.1798 -0.9999
  220MOL0     H29665   0.258   2.303  10.625  1.5104  0.4182 -0.4070
  220MOL0     H29666   0.449   2.216  10.705  0.0866 -2.2875  0.6963
  220MOL0     H29667   0.559   2.102  10.639  3.0595 -0.3422  0.9748
  220MOL0     H29668   0.709   2.221  10.781  6.1118  2.1435 -1.0974
  220MOL0     H29669   0.731   2.264  10.614  0.5274  1.2921  0.1747
  220MOL0     H29670   0.549   2.443  10.788 -0.5519 -2.9937  0.2377
  220MOL0     H29671   0.651   2.504  10.663  1.3311  3.0183  3.2560
  220MOL0     H29672   0.758   2.556  10.886  2.3561  0.5183 -1.6294
  220MOL0     H29673   0.745   2.395  10.935 -2.8297 -0.3661 -0.5572
  220MOL0     H29674   0.911   2.337  10.735  1.2431  0.5860 -1.7450
  220MOL0     H29675   0.961   2.423  10.886 -1.0333  1.6791 -0.6051
  220MOL0     H29676   0.900   2.587  10.634  3.4988  0.6290 -2.0158
  220MOL0     H29677   0.973   2.637  10.780 -0.7953 -0.2212  0.9870
  220MOL0     H29678   1.166   2.466  10.718  0.4364  2.4850  1.0496
  220MOL0     H29679   1.138   2.608  10.628 -1.5114  0.1737 -0.9932
  220MOL0     H29680   1.005   2.355  10.547  0.3218 -1.3616 -0.2791
  220MOL0     H29681   1.161   2.409  10.464 -0.5653  1.6386 -2.3313
  220MOL0     H29682   0.563   2.435  10.353 -0.7233 -0.8891 -0.3874
  220MOL0     H29683   0.435   2.628  10.282 -0.8488  0.1138 -0.9405
  220MOL0     H29684   0.282   2.774  10.729  1.0899 -2.0658  0.5447
  220MOL0     H29685   0.471   2.823  10.864  1.8465  1.1979  0.4870
  220MOL0     H29686   2.175   2.851  10.936  3.4455  0.5616  1.1333
  220MOL0     H29687   2.420   2.854  10.861 -0.1732 -0.5708 -0.4970
  220MOL0     H29688   2.758   3.089  10.367 -1.4447  0.9299  2.6174
  220MOL0     H29689   3.010   3.050  10.398  1.0046  0.8747  2.9423
  220MOL0     H29690   3.171   2.919  10.758 -0.4619  0.4338  1.0867
  220MOL0     H29691   3.171   2.754  10.679 -1.1086  0.9085  0.8079
  220MOL0     H29692   3.380   2.827  10.754 -0.4394  0.4949 -0.7290
  220MOL0     H29693   3.388   2.955  10.626 -2.0112  1.4462 -0.1990
  220MOL0     H29694   3.355   2.801  10.449  1.3752  0.1362 -0.7524
  220MOL0     H29695   3.357   2.660  10.561  1.3560 -0.1182 -0.0042
  220MOL0     H29696   3.584   2.872  10.554  1.4057 -0.5359 -2.7601
  220MOL0     H29697   3.590   2.731  10.455 -0.9384 -0.6456  0.3590
  220MOL0     H29698   3.702   2.568  10.823  0.7727 -0.7101 -0.2266
  220MOL0     H29699   2.949   2.796  10.716  1.8385  1.8522  1.3460
  220MOL0     H29700   2.717   2.806  10.712  0.6221 -3.1054 -1.0162
  221MOL0     O29701   3.993   1.156   9.598 -0.2177 -0.3563  0.1280
  221MOL0     C29702   4.065   1.127   9.503 -0.1594 -0.6342 -0.4415
  221MOL0     O29703   4.028   1.052   9.394 -0.0431  0.5242  0.1976
  221MOL0     C29704   3.903   1.017   9.367  0.8311  0.1952  0.0447
  221MOL0     C29705   3.870   0.887   9.326 -0.9971 -0.3636  0.0951
  221MOL0     C29706   3.734   0.845   9.309 -0.7580  0.0411  0.3820
  221MOL0     C29707   3.632   0.931   9.339  0.3632  0.3499 -0.6738
  221MOL0     O29708   3.506   0.893   9.310  0.5658 -0.7908 -0.4996
  221MOL0     C29709   3.457   0.940   9.189  0.7536 -0.2782 -0.0113
  221MOL0     C29710   3.322   0.882   9.157 -0.1577 -0.0643 -0.0021
  221MOL0     C29711   3.330   0.729   9.176  0.4446  0.2066 -1.1518
  221MOL0     C29712   3.212   0.672   9.098  0.0518 -0.4542  0.6643
  221MOL0     C29713   3.225   0.522   9.121 -0.4497  0.0797 -0.2428
  221MOL0     C29714   3.107   0.454   9.033  0.4620  0.2269 -0.3819
  221MOL0     C29715   2.970   0.500   9.064  0.0869  0.2249  0.1990
  221MOL0     C29716   2.844   0.418   9.031  0.7156  0.8160  0.8101
  221MOL0     N29717   2.712   0.488   9.064 -0.0972 -0.2338  0.2040
  221MOL0     C29718   2.658   0.589   8.980  0.8663  0.3618 -0.0151
  221MOL0     C29719   2.538   0.615   9.046 -0.0738  0.0377  0.0795
  221MOL0     C29720   2.435   0.706   8.993 -0.2840  0.4254 -0.5466
  221MOL0     C29721   2.333   0.642   8.890 -0.8527  0.4483  0.1251
  221MOL0     C29722   2.201   0.702   8.907  0.6856  1.1328  0.0810
  221MOL0     C29723   2.118   0.625   9.010 -0.1134  0.0561  0.3954
  221MOL0     O29724   2.088   0.487   8.970  0.1882  0.5735  0.4967
  221MOL0     C29725   1.954   0.442   8.989  0.1427  0.4899 -0.1831
  221MOL0     C29726   1.951   0.309   9.047  1.1375 -0.0806 -0.1352
  221MOL0     C29727   1.822   0.241   9.066 -0.2108 -0.5381 -0.4940
  221MOL0     C29728   1.831   0.123   9.151  0.3608  0.2108 -0.3008
  221MOL0     C29729   1.707   0.293   9.002 -0.1078  0.7359 -0.0770
  221MOL0     C29730   1.582   0.212   8.978  0.1872  0.1387  0.1411
  221MOL0     O29731   1.501   0.274   8.888  0.5807  0.3897  0.1434
  221MOL0     C29732   1.395   0.195   8.837 -0.4667  0.3973  0.0843
  221MOL0     C29733   1.320   0.102   8.909 -0.0326 -0.4609  0.7651
  221MOL0     C29734   1.202   0.050   8.854 -0.0206 -0.2807 -0.0109
  221MOL0     C29735   1.160   0.082   8.725  0.3756 -0.1481  0.1689
  221MOL0     O29736   1.043   0.032   8.668  0.0435  0.0198  0.0026
  221MOL0     C29737   0.934   0.029   8.752  0.4801  0.8589  0.4052
  221MOL0     C29738   0.829  -0.082   8.708 -0.2873  0.1350  0.1452
  221MOL0     C29739   0.786  -0.079   8.563  0.0997 -0.3622 -0.6006
  221MOL0     C29740   0.687  -0.188   8.530  0.3332  0.1355 -0.3172
  221MOL0     C29741   0.680  -0.199   8.376 -0.0284 -0.5031 -0.0236
  221MOL0     C29742   0.598  -0.325   8.332 -0.0500  0.0474 -0.1378
  221MOL0     C29743   0.550  -0.325   8.182  0.2820 -0.2398 -0.5915
  221MOL0     C29744   0.471  -0.444   8.140  0.6915 -0.7012 -0.0156
  221MOL0    Cl29745   0.316  -0.446   8.240 -0.5839  0.3996 -0.0149
  221MOL0     C29746   1.246   0.157   8.648  0.3474  0.7222  0.7858
  221MOL0     C29747   1.363   0.214   8.699 -0.7262 -0.0877  0.2776
  221MOL0     O29748   1.572   0.103   9.025  0.1952 -0.1324  0.7117
  221MOL0     C29749   1.720   0.422   8.943 -0.3294  0.8943  0.3223
  221MOL0     C29750   1.840   0.497   8.940  0.0742 -0.7572  0.3210
  221MOL0     N29751   2.520   0.539   9.163 -0.2781  0.2721  0.0524
  221MOL0     N29752   2.631   0.464   9.169  0.4964  0.8513 -0.3860
  221MOL0     C29753   3.662   1.055   9.385 -0.1790  0.6015  0.1184
  221MOL0     C29754   3.800   1.100   9.391  0.3384  0.9304  1.0305
  221MOL0     C29755   4.192   1.193   9.495 -0.5246  0.0404 -0.5130
  221MOL0     C29756   4.227   1.301   9.582 -0.1940 -0.0991 -0.1042
  221MOL0     C29757   4.361   1.350   9.568  0.2202  0.0459 -0.2766
  221MOL0     C29758   4.454   1.322   9.461  0.6508 -0.1620 -0.1331
  221MOL0     O29759   4.573   1.391   9.436  0.3347  0.5751 -0.0976
  221MOL0     C29760   4.677   1.326   9.355  0.1502 -0.4492 -0.3705
  221MOL0     C29761   4.733   1.200   9.418 -0.5853 -0.2781  0.4998
  221MOL0     C29762   4.809   1.231   9.548 -0.4445 -0.0928 -0.0940
  221MOL0     C29763   4.948   1.284   9.547  0.0850  0.3867 -0.1485
  221MOL0     C29764   5.033   1.197   9.464  0.1430  0.2298  0.5384
  221MOL0     C29765   5.109   1.118   9.409 -0.7155  0.4778  0.0329
  221MOL0     C29766   4.404   1.232   9.372 -0.4760 -0.1732 -0.2962
  221MOL0     C29767   4.285   1.169   9.391 -0.3980  0.5487 -1.3760
  221MOL0     H29768   3.947   0.816   9.299 -0.4374 -2.0036  4.9697
  221MOL0     H29769   3.713   0.753   9.255  0.2738 -0.6983  1.2068
  221MOL0     H29770   3.445   1.049   9.197 -0.2993 -0.2286 -1.7392
  221MOL0     H29771   3.531   0.912   9.113 -1.6984 -2.4337 -1.7812
  221MOL0     H29772   3.238   0.933   9.205  0.0124  1.4762 -1.2456
  221MOL0     H29773   3.322   0.900   9.049 -1.1685  1.3274  0.2044
  221MOL0     H29774   3.424   0.686   9.141  1.9167  1.8118  0.5734
  221MOL0     H29775   3.331   0.716   9.285  1.9589  1.9967 -0.9058
  221MOL0     H29776   3.120   0.712   9.140  0.3970  0.6282  0.4081
  221MOL0     H29777   3.218   0.682   8.989  5.3860 -1.5493  0.5687
  221MOL0     H29778   3.320   0.478   9.090  0.0372 -1.2964  2.8598
  221MOL0     H29779   3.212   0.502   9.228 -3.4991  0.5518 -0.4334
  221MOL0     H29780   3.125   0.475   8.927 -1.0089 -0.0299 -0.7042
  221MOL0     H29781   3.123   0.347   9.051 -1.2387 -0.1547 -1.0135
  221MOL0     H29782   2.967   0.505   9.174 -3.4622 -1.5387  0.3335
  221MOL0     H29783   2.967   0.598   9.016 -3.4059 -0.1759 -0.6349
  221MOL0     H29784   2.851   0.326   9.090 -0.8610  0.1190 -0.0145
  221MOL0     H29785   2.830   0.388   8.927 -3.0158 -0.1316  1.4091
  221MOL0     H29786   2.692   0.638   8.889 -0.0666  0.6618 -0.2200
  221MOL0     H29787   2.380   0.742   9.081 -0.4240  0.5227 -0.6736
  221MOL0     H29788   2.485   0.791   8.946  2.2818 -1.2102 -0.9830
  221MOL0     H29789   2.324   0.538   8.922  1.8386  0.4466  1.1275
  221MOL0     H29790   2.375   0.654   8.790  0.2625  4.1737  0.8896
  221MOL0     H29791   2.141   0.693   8.816 -2.9882  0.1248  2.3971
  221MOL0     H29792   2.213   0.804   8.945 -0.3910  0.7704  1.4950
  221MOL0     H29793   2.026   0.678   9.036  0.0784 -0.1945  1.6580
  221MOL0     H29794   2.180   0.633   9.100  1.1935  1.0936 -0.5658
  221MOL0     H29795   2.042   0.266   9.088 -0.3526 -3.1819  0.1790
  221MOL0     H29796   1.929   0.106   9.195 -0.2724 -0.8919  0.7577
  221MOL0     H29797   1.753   0.115   9.228 -0.3216 -0.3870 -1.0317
  221MOL0     H29798   1.817   0.029   9.097 -2.8257 -1.2645  2.6517
  221MOL0     H29799   1.326   0.085   9.016 -0.6188  1.4658  1.1497
  221MOL0     H29800   1.141  -0.011   8.920 -1.9181  0.7840 -0.7165
  221MOL0     H29801   0.945   0.002   8.858 -2.0317  0.4579  0.6341
  221MOL0     H29802   0.877   0.122   8.744 -1.9155 -0.6769 -2.1266
  221MOL0     H29803   0.868  -0.181   8.732 -2.3382 -0.5083  0.9950
  221MOL0     H29804   0.737  -0.074   8.767 -1.2578 -3.4930 -0.6745
  221MOL0     H29805   0.873  -0.102   8.502  2.3486  1.9698  1.5291
  221MOL0     H29806   0.750   0.017   8.527  0.2486 -1.0515 -2.7264
  221MOL0     H29807   0.715  -0.289   8.561 -2.3639 -1.3529 -2.2010
  221MOL0     H29808   0.599  -0.153   8.585  0.2696 -0.8524  0.2379
  221MOL0     H29809   0.777  -0.219   8.329 -1.6656  1.3787 -4.9049
  221MOL0     H29810   0.649  -0.108   8.323 -0.2966  0.2097  1.3161
  221MOL0     H29811   0.658  -0.410   8.366 -0.4389 -0.0850  0.2196
  221MOL0     H29812   0.500  -0.326   8.380 -0.8873  2.2632 -1.6572
  221MOL0     H29813   0.631  -0.315   8.109  0.9046 -3.3988 -0.4972
  221MOL0     H29814   0.493  -0.233   8.170  0.7421  0.5309  2.2573
  221MOL0     H29815   0.520  -0.538   8.163  2.5459  0.4485  1.0127
  221MOL0     H29816   0.445  -0.441   8.034  2.2328  0.0857 -0.3912
  221MOL0     H29817   1.228   0.177   8.542  0.3589  0.8654  0.8107
  221MOL0     H29818   1.428   0.272   8.634  2.8799 -2.8830  1.0442
  221MOL0     H29819   1.641   0.461   8.880 -0.5614  1.1512  0.7708
  221MOL0     H29820   1.849   0.587   8.880 -1.2881 -1.8890 -1.7325
  221MOL0     H29821   3.579   1.117   9.418 -1.4729 -0.6212 -0.7039
  221MOL0     H29822   3.826   1.202   9.415  1.5780  1.6107 -2.6456
  221MOL0     H29823   4.145   1.326   9.649 -0.6495 -3.8756  0.9738
  221MOL0     H29824   4.391   1.434   9.630  0.2006 -1.6540  2.2034
  221MOL0     H29825   4.639   1.294   9.258 -3.9554  1.8824  0.2198
  221MOL0     H29826   4.754   1.403   9.348 -1.2844  1.4231  2.4720
  221MOL0     H29827   4.807   1.156   9.350 -0.0857  1.1135  0.1132
  221MOL0     H29828   4.660   1.119   9.425 -0.3170 -0.7779 -1.6458
  221MOL0     H29829   4.812   1.147   9.618 -0.6226  1.2068  1.5321
  221MOL0     H29830   4.760   1.311   9.604  1.6012  0.1491  1.4727
  221MOL0     H29831   4.991   1.296   9.647  2.4263 -1.4550 -0.8221
  221MOL0     H29832   4.948   1.386   9.506  0.4496  2.0001  3.4449
  221MOL0     H29833   5.165   1.044   9.355 -0.3229  1.2000 -0.5653
  221MOL0     H29834   4.455   1.210   9.279  2.3121  2.4727  0.4411
  221MOL0     H29835   4.259   1.093   9.318 -1.9215  1.7255 -2.1180
  222MOL0     O29836   8.378   4.481   0.411 -0.5223 -0.9000  0.0758
  222MOL0     C29837   8.409   4.372   0.370 -0.1266 -0.1577  0.6349
  222MOL0     O29838   8.326   4.269   0.355  0.8598 -0.3161  0.6811
  222MOL0     C29839   8.191   4.276   0.368  0.1966  0.0473  0.7429
  222MOL0     C29840   8.119   4.374   0.304  0.4292  0.4126 -0.1759
  222MOL0     C29841   7.980   4.369   0.298 -0.7382 -0.6767 -0.1137
  222MOL0     C29842   7.912   4.259   0.348  0.2279  1.3976  0.3396
  222MOL0     O29843   7.774   4.248   0.337 -0.1018 -0.5435  0.0133
  222MOL0     C29844   7.691   4.364   0.320  0.0482 -0.1605 -0.0113
  222MOL0     C29845   7.538   4.341   0.311 -0.2663  0.2722 -0.3457
  222MOL0     C29846   7.505   4.223   0.221  0.2555 -0.6424 -0.5841
  222MOL0     C29847   7.422   4.119   0.290  0.0600 -0.4900  0.0367
  222MOL0     C29848   7.369   4.005   0.207  0.5147  0.1532 -0.5462
  222MOL0     C29849   7.479   3.899   0.163 -0.3207  0.4138 -0.8496
  222MOL0     C29850   7.434   3.833   0.038  0.4452 -0.3344  0.3912
  222MOL0     C29851   7.542   3.745  -0.026  0.4293 -0.1705 -0.1174
  222MOL0     N29852   7.512   3.685  -0.152  0.2272 -0.3097 -0.5399
  222MOL0     C29853   7.404   3.601  -0.178  0.2500  0.7718  0.7002
  222MOL0     C29854   7.397   3.599  -0.312 -0.7271  0.4802  0.2092
  222MOL0     C29855   7.312   3.515  -0.398  0.0565 -0.8797 -0.5986
  222MOL0     C29856   7.168   3.521  -0.350 -0.2287 -0.1421 -0.5998
  222MOL0     C29857   7.085   3.469  -0.465  0.4404 -0.0223  1.1902
  222MOL0     C29858   6.930   3.484  -0.436 -0.6730 -0.5755  0.0093
  222MOL0     O29859   6.892   3.391  -0.327  0.4284 -0.2194  0.7406
  222MOL0     C29860   6.757   3.376  -0.303 -0.2362 -0.2366  0.4175
  222MOL0     C29861   6.717   3.265  -0.234  0.1630  1.0021  0.0900
  222MOL0     C29862   6.583   3.254  -0.192  0.0960  0.3688  0.3327
  222MOL0     C29863   6.554   3.148  -0.082 -0.6083 -0.0233  0.5223
  222MOL0     C29864   6.489   3.348  -0.225  0.4785  0.2218  0.1802
  222MOL0     C29865   6.341   3.347  -0.193 -0.5645  0.0732 -0.4990
  222MOL0     O29866   6.260   3.450  -0.229 -0.1010  0.4059 -0.1436
  222MOL0     C29867   6.130   3.458  -0.196  0.9559 -0.4354 -0.3838
  222MOL0     C29868   6.039   3.361  -0.233  0.1688  0.5088  0.6608
  222MOL0     C29869   5.902   3.370  -0.206  0.2575  0.5047 -0.2248
  222MOL0     C29870   5.855   3.482  -0.143  0.7096 -0.2497  0.6020
  222MOL0     O29871   5.724   3.477  -0.093  0.4544 -0.3012 -0.6167
  222MOL0     C29872   5.624   3.540  -0.170 -0.2417  0.6674 -0.4614
  222MOL0     C29873   5.489   3.463  -0.134 -0.6212  0.2115  0.3182
  222MOL0     C29874   5.363   3.539  -0.172 -0.3323 -0.0238  0.0932
  222MOL0     C29875   5.324   3.560  -0.320 -0.5279 -0.7235 -0.6167
  222MOL0     C29876   5.402   3.673  -0.390  0.5085 -0.3015  0.5296
  222MOL0     C29877   5.409   3.657  -0.539 -0.0697  0.1632  0.1851
  222MOL0     C29878   5.284   3.680  -0.614  1.2521  0.0915  0.4644
  222MOL0     C29879   5.321   3.706  -0.752 -0.4713  0.1684  0.2769
  222MOL0    Cl29880   5.314   3.889  -0.773 -0.5677 -0.4047 -0.2252
  222MOL0     C29881   5.935   3.591  -0.119 -0.1996 -0.9353  0.4997
  222MOL0     C29882   6.072   3.576  -0.139  0.2243 -0.3890 -0.4981
  222MOL0     O29883   6.305   3.252  -0.126  0.2865  0.6802 -0.8190
  222MOL0     C29884   6.533   3.452  -0.301 -0.2185 -0.8211  0.0469
  222MOL0     C29885   6.670   3.468  -0.335  0.4420  0.1074  0.0376
  222MOL0     N29886   7.496   3.671  -0.364  0.4315 -1.0124 -0.2105
  222MOL0     N29887   7.564   3.729  -0.271  0.1699  1.1979 -0.3743
  222MOL0     C29888   7.982   4.160   0.411 -0.2764 -0.0690  0.4151
  222MOL0     C29889   8.120   4.169   0.424 -0.0129  0.4162  1.1152
  222MOL0     C29890   8.560   4.339   0.358 -0.1892  0.5757  0.6680
  222MOL0     C29891   8.662   4.431   0.317 -0.7507 -0.0040  0.1533
  222MOL0     C29892   8.800   4.388   0.296 -0.6638  0.8905 -0.7200
  222MOL0     C29893   8.842   4.259   0.324  0.4890  0.0356 -0.4674
  222MOL0     O29894   8.969   4.230   0.303 -0.6766 -0.3674 -0.7566
  222MOL0     C29895   9.028   4.118   0.378 -0.0561  0.0643 -0.3111
  222MOL0     C29896   9.176   4.102   0.354  0.5223 -0.5272 -0.5153
  222MOL0     C29897   9.246   4.222   0.411 -1.7501 -0.1867  0.2532
  222MOL0     C29898   9.396   4.199   0.423 -0.3595  0.7456  0.1028
  222MOL0     C29899   9.472   4.194   0.298  0.1606  1.0765 -0.4918
  222MOL0     C29900   9.544   4.177   0.199  0.2622 -0.3570 -0.3116
  222MOL0     C29901   8.742   4.161   0.360 -0.0878 -1.2114 -0.4265
  222MOL0     C29902   8.608   4.201   0.373 -0.3236 -0.2116 -0.0990
  222MOL0     H29903   8.168   4.465   0.273  2.3504 -0.0743  1.2683
  222MOL0     H29904   7.927   4.457   0.263  0.1670 -0.4786 -1.0525
  222MOL0     H29905   7.711   4.433   0.403  2.3973 -0.6441 -0.1086
  222MOL0     H29906   7.725   4.405   0.225  2.6839 -1.1129  0.4249
  222MOL0     H29907   7.497   4.325   0.411  0.4291 -1.2280 -0.2691
  222MOL0     H29908   7.500   4.433   0.267  3.2890  3.2980  2.2183
  222MOL0     H29909   7.456   4.269   0.135 -1.2866 -2.5134 -0.7648
  222MOL0     H29910   7.599   4.176   0.193  1.5025  1.0668  0.4837
  222MOL0     H29911   7.478   4.071   0.371 -3.5432 -2.9719  1.3350
  222MOL0     H29912   7.340   4.170   0.342 -0.0525 -0.3570 -0.2690
  222MOL0     H29913   7.298   3.958   0.275 -2.3126  1.5200 -2.3402
  222MOL0     H29914   7.321   4.045   0.117  2.4771  0.8350 -1.3458
  222MOL0     H29915   7.570   3.954   0.136 -0.2134  1.0664  0.7232
  222MOL0     H29916   7.511   3.831   0.242 -1.6652  2.4444  1.5815
  222MOL0     H29917   7.353   3.762   0.061 -1.2181  1.4316  0.2475
  222MOL0     H29918   7.397   3.905  -0.036 -0.2324 -0.4209  0.6385
  222MOL0     H29919   7.579   3.670   0.043  2.7603  1.8179  0.9163
  222MOL0     H29920   7.633   3.804  -0.039  1.5152 -1.7599  0.1390
  222MOL0     H29921   7.345   3.540  -0.111  1.0117 -0.0234  0.6616
  222MOL0     H29922   7.312   3.564  -0.496 -0.7282  2.4250  0.9357
  222MOL0     H29923   7.346   3.411  -0.411 -2.2803 -1.4939 -2.6056
  222MOL0     H29924   7.136   3.625  -0.335  0.3481 -0.2324  1.5258
  222MOL0     H29925   7.156   3.456  -0.263  2.8460 -0.2980 -0.1999
  222MOL0     H29926   7.119   3.366  -0.480 -1.7750 -0.6695  0.1630
  222MOL0     H29927   7.111   3.537  -0.547 -2.1140  2.3449  2.1822
  222MOL0     H29928   6.863   3.460  -0.518 -2.3197 -0.4275  1.2666
  222MOL0     H29929   6.918   3.580  -0.386 -1.9094 -2.6772  4.2714
  222MOL0     H29930   6.794   3.204  -0.188 -0.4884  1.5677  2.0221
  222MOL0     H29931   6.506   3.194   0.005 -0.6001 -0.2396  0.6443
  222MOL0     H29932   6.485   3.070  -0.116 -1.1870  0.7429 -0.0963
  222MOL0     H29933   6.646   3.096  -0.050  0.2519 -0.1019 -1.8858
  222MOL0     H29934   6.083   3.278  -0.287 -0.2190  0.9980 -0.4494
  222MOL0     H29935   5.837   3.294  -0.247  0.0715  1.4005 -1.6734
  222MOL0     H29936   5.626   3.646  -0.144  1.6175  1.0468 -1.9317
  222MOL0     H29937   5.638   3.533  -0.278 -0.3008  0.0902 -0.4329
  222MOL0     H29938   5.489   3.369  -0.191 -4.1643  0.4058 -0.1642
  222MOL0     H29939   5.478   3.438  -0.029 -0.9552  0.7046  0.4037
  222MOL0     H29940   5.354   3.638  -0.125 -0.3934  0.1841 -0.3504
  222MOL0     H29941   5.289   3.475  -0.123  3.2870 -4.7082  0.0950
  222MOL0     H29942   5.339   3.464  -0.371  3.7076 -1.2967  1.3333
  222MOL0     H29943   5.216   3.575  -0.326 -0.4741 -0.3277 -0.6299
  222MOL0     H29944   5.507   3.675  -0.361  0.2355  1.4470  1.5676
  222MOL0     H29945   5.362   3.768  -0.353 -4.4426 -1.6107 -0.7015
  222MOL0     H29946   5.484   3.720  -0.588 -0.5609 -0.8342 -1.9310
  222MOL0     H29947   5.442   3.559  -0.574 -2.6290  0.3403 -3.1480
  222MOL0     H29948   5.220   3.761  -0.578 -1.3316 -1.1473 -1.0571
  222MOL0     H29949   5.209   3.601  -0.612 -1.5194  2.4985 -1.0335
  222MOL0     H29950   5.249   3.666  -0.824  1.1518 -0.0927 -1.2799
  222MOL0     H29951   5.416   3.659  -0.778 -1.4867 -2.3047  0.8201
  222MOL0     H29952   5.895   3.688  -0.091  0.8371 -0.2796 -0.1860
  222MOL0     H29953   6.136   3.661  -0.120 -0.0349 -0.1450 -0.7094
  222MOL0     H29954   6.477   3.540  -0.330  2.3906  1.3753  1.1422
  222MOL0     H29955   6.700   3.563  -0.377  0.0426 -0.5831 -1.9011
  222MOL0     H29956   7.939   4.067   0.447  1.3099 -1.4099 -1.0306
  222MOL0     H29957   8.171   4.079   0.458  0.9123  1.2004  1.8760
  222MOL0     H29958   8.634   4.535   0.308  0.8974  0.3736 -1.1460
  222MOL0     H29959   8.874   4.451   0.248 -0.3960 -0.5222 -2.2701
  222MOL0     H29960   9.005   4.142   0.482  0.7166  1.3917 -0.4228
  222MOL0     H29961   8.977   4.026   0.350 -2.0372  1.0214 -0.0189
  222MOL0     H29962   9.196   4.087   0.247  0.1923  0.8933 -0.8020
  222MOL0     H29963   9.202   4.020   0.422 -1.0006  0.3355  1.1835
  222MOL0     H29964   9.200   4.255   0.505 -0.1763  1.2015  0.5792
  222MOL0     H29965   9.231   4.304   0.340 -1.8005 -1.6796 -1.5176
  222MOL0     H29966   9.409   4.100   0.467 -1.0865  0.8218  0.5216
  222MOL0     H29967   9.436   4.278   0.487  0.9697 -2.1168  3.1248
  222MOL0     H29968   9.604   4.147   0.116 -1.3722  0.0079 -1.6863
  222MOL0     H29969   8.774   4.057   0.368 -0.4389 -1.2644  0.3786
  222MOL0     H29970   8.532   4.126   0.391 -1.5962  1.3866  1.5155
  223MOL0     O29971   8.371   8.356   8.043 -0.2603 -0.6949 -0.0729
  223MOL0     C29972   8.382   8.334   8.160  0.3996 -0.1705 -0.4587
  223MOL0     O29973   8.305   8.244   8.236 -0.3249 -0.2136  0.0858
  223MOL0     C29974   8.223   8.158   8.166  0.1230  0.5418 -0.2732
  223MOL0     C29975   8.212   8.022   8.197 -0.7342  0.3400 -0.3545
  223MOL0     C29976   8.132   7.931   8.131 -0.3842 -0.5143  0.4590
  223MOL0     C29977   8.047   7.980   8.031 -0.4978 -0.3202 -0.4961
  223MOL0     O29978   7.974   7.895   7.961  0.0636 -0.1340  0.1115
  223MOL0     C29979   7.903   7.927   7.844  0.1759  0.2038  0.4165
  223MOL0     C29980   7.835   7.805   7.789 -0.2694 -0.1970  0.0682
  223MOL0     C29981   7.732   7.831   7.676  0.2547  0.0533  0.4676
  223MOL0     C29982   7.794   7.795   7.543  0.2694 -0.1473 -0.2290
  223MOL0     C29983   7.683   7.794   7.426  0.6062  1.1029 -0.6166
  223MOL0     C29984   7.741   7.738   7.294  0.6465  0.5154 -0.8252
  223MOL0     C29985   7.655   7.731   7.170 -0.1466 -0.1189 -0.6903
  223MOL0     C29986   7.734   7.655   7.068  0.1779 -0.1656 -1.2656
  223MOL0     N29987   7.660   7.640   6.941 -0.3968  0.4322 -0.0038
  223MOL0     C29988   7.695   7.702   6.815  0.8541  0.4596  0.5027
  223MOL0     C29989   7.595   7.658   6.733 -0.0310  0.3431 -1.3658
  223MOL0     C29990   7.603   7.678   6.590 -0.1682 -0.0665  0.3085
  223MOL0     C29991   7.674   7.572   6.504  0.3621  0.6016 -0.4528
  223MOL0     C29992   7.654   7.589   6.357 -0.0687 -0.2188  0.2587
  223MOL0     C29993   7.522   7.541   6.304 -0.1276 -0.9086  0.3184
  223MOL0     O29994   7.480   7.585   6.176  0.3223 -0.3299  0.4673
  223MOL0     C29995   7.358   7.536   6.133  0.1197 -0.4908  0.0668
  223MOL0     C29996   7.330   7.558   5.999 -0.3066  0.2131 -1.2601
  223MOL0     C29997   7.220   7.513   5.931  0.3895  0.3717  0.8491
  223MOL0     C29998   7.198   7.539   5.779 -0.5676 -0.0646 -0.5399
  223MOL0     C29999   7.115   7.449   6.010 -0.2917 -0.2049  0.4566
  223MOL0     C30000   6.989   7.397   5.952  1.0246 -0.0544 -0.1462
  223MOL0     O30001   6.974   7.386   5.818  0.6132 -0.0116  0.2871
  223MOL0     C30002   6.849   7.351   5.769 -0.2183 -0.3453 -0.0219
  223MOL0     C30003   6.770   7.248   5.819  0.0992 -0.0998 -0.6076
  223MOL0     C30004   6.640   7.212   5.770  0.6995  0.0422  0.5010
  223MOL0     C30005   6.586   7.284   5.661 -0.5468 -0.2750  0.1697
  223MOL0     O30006   6.464   7.269   5.604 -0.1377 -0.0341 -1.0312
  223MOL0     C30007   6.359   7.236   5.699 -0.3757  0.5469  0.4732
  223MOL0     C30008   6.230   7.239   5.628  0.4619 -0.2647  0.6507
  223MOL0     C30009   6.116   7.202   5.726 -0.0521  0.1805 -0.7166
  223MOL0     C30010   6.008   7.129   5.651  0.3324 -0.1516  0.1670
  223MOL0     C30011   5.887   7.115   5.739  0.0992  0.5225 -0.6724
  223MOL0     C30012   5.789   7.022   5.664  0.0171 -0.4423 -0.6316
  223MOL0     C30013   5.641   7.051   5.723 -0.4437 -0.6076  0.2175
  223MOL0     C30014   5.544   7.112   5.619  0.0032 -0.3305 -0.5581
  223MOL0    Cl30015   5.548   7.028   5.466 -0.0429 -0.1856  0.0947
  223MOL0     C30016   6.666   7.387   5.602  0.7357 -0.2071  1.0072
  223MOL0     C30017   6.796   7.421   5.663  0.0798  0.0610 -0.5204
  223MOL0     O30018   6.904   7.368   6.037  0.2025 -0.1107  0.0205
  223MOL0     C30019   7.148   7.423   6.142  0.1814 -0.6582 -0.2101
  223MOL0     C30020   7.263   7.464   6.199 -0.3558  0.2577 -0.1924
  223MOL0     N30021   7.501   7.595   6.806  0.1903 -0.3926 -0.5906
  223MOL0     N30022   7.539   7.578   6.924 -1.0153 -0.3372  0.6645
  223MOL0     C30023   8.049   8.117   7.995 -0.2363 -0.7793  0.4432
  223MOL0     C30024   8.131   8.200   8.073 -0.2801  0.3761  0.3774
  223MOL0     C30025   8.483   8.406   8.235  0.4214  0.2352 -0.1490
  223MOL0     C30026   8.495   8.403   8.375  0.3769  0.3765 -0.2174
  223MOL0     C30027   8.598   8.467   8.443 -1.2238 -0.5742  0.2661
  223MOL0     C30028   8.701   8.530   8.372  0.4389 -0.3509 -0.1714
  223MOL0     O30029   8.797   8.595   8.455  0.4698  1.0947 -0.4707
  223MOL0     C30030   8.880   8.700   8.400  0.4176  0.0813  0.0042
  223MOL0     C30031   9.008   8.645   8.339  0.0640  0.6980 -0.2928
  223MOL0     C30032   9.091   8.556   8.435  0.0711  0.4329  0.4452
  223MOL0     C30033   9.187   8.466   8.360  0.1124 -0.6199  0.2638
  223MOL0     C30034   9.269   8.392   8.446 -0.5188  0.3521 -0.5551
  223MOL0     C30035   9.340   8.309   8.498 -0.1450 -0.4021 -0.3129
  223MOL0     C30036   8.704   8.531   8.231  0.4705 -0.4812 -0.1676
  223MOL0     C30037   8.590   8.463   8.170 -0.5512  0.2706 -0.6789
  223MOL0     H30038   8.264   7.996   8.289  0.5371  0.8049 -0.9258
  223MOL0     H30039   8.133   7.828   8.163 -0.7189  0.3875  3.7112
  223MOL0     H30040   7.827   7.999   7.877  0.2031  0.4313 -0.0068
  223MOL0     H30041   7.972   7.970   7.771  0.2785 -0.0052  0.3893
  223MOL0     H30042   7.916   7.745   7.747 -2.5945 -0.8660 -3.9646
  223MOL0     H30043   7.792   7.748   7.872 -1.0479 -0.8012 -0.7300
  223MOL0     H30044   7.648   7.763   7.697 -2.2321  2.4959 -1.0079
  223MOL0     H30045   7.689   7.931   7.663 -1.1240 -0.6514 -0.7086
  223MOL0     H30046   7.866   7.876   7.526 -1.7326  1.4864 -1.3577
  223MOL0     H30047   7.843   7.697   7.556 -2.0422 -1.6984 -2.4084
  223MOL0     H30048   7.598   7.729   7.449  2.1134 -0.2718  1.4799
  223MOL0     H30049   7.642   7.895   7.413 -4.9051 -0.9484 -1.8460
  223MOL0     H30050   7.831   7.798   7.276  3.3282 -1.6071  3.6874
  223MOL0     H30051   7.777   7.640   7.325 -0.8608  0.3264  0.4400
  223MOL0     H30052   7.568   7.675   7.205 -1.7370  0.3501 -3.5890
  223MOL0     H30053   7.619   7.831   7.142  1.2595  0.5003 -0.3758
  223MOL0     H30054   7.778   7.563   7.105  0.6419  0.2038 -0.8860
  223MOL0     H30055   7.822   7.717   7.046  0.6892 -0.2477  0.4505
  223MOL0     H30056   7.793   7.741   6.789  1.7372 -1.0008  1.4457
  223MOL0     H30057   7.505   7.697   6.547  1.8330  0.6399 -4.5918
  223MOL0     H30058   7.665   7.768   6.580  1.3454 -1.0232  0.6516
  223MOL0     H30059   7.637   7.474   6.533 -4.4133  2.2369 -0.0773
  223MOL0     H30060   7.781   7.579   6.524 -0.2561  1.1072  3.4629
  223MOL0     H30061   7.742   7.548   6.307  2.2237  1.5246  2.5760
  223MOL0     H30062   7.659   7.695   6.332 -0.1829 -0.3536 -0.3586
  223MOL0     H30063   7.446   7.588   6.368  0.3531 -2.3699  2.0562
  223MOL0     H30064   7.523   7.431   6.307  2.3965 -0.9524 -0.5466
  223MOL0     H30065   7.382   7.623   5.930 -0.4342  1.3750 -0.3082
  223MOL0     H30066   7.279   7.594   5.731  2.3024 -1.5891  2.1768
  223MOL0     H30067   7.209   7.445   5.724  0.0991 -0.0243 -0.4847
  223MOL0     H30068   7.104   7.594   5.765  1.0851  3.2072  0.2698
  223MOL0     H30069   6.807   7.194   5.905 -0.4241 -0.4357 -0.5917
  223MOL0     H30070   6.588   7.128   5.814  0.9568 -0.2409  0.2751
  223MOL0     H30071   6.379   7.133   5.731  1.3811 -0.2780 -2.8065
  223MOL0     H30072   6.364   7.308   5.782  0.2721 -1.0201  1.8512
  223MOL0     H30073   6.201   7.336   5.587 -3.2152 -2.5249 -2.8638
  223MOL0     H30074   6.231   7.175   5.539 -2.7065  1.4483 -0.7683
  223MOL0     H30075   6.078   7.286   5.784  1.1228 -1.0219  1.9614
  223MOL0     H30076   6.149   7.126   5.797 -0.5431 -0.5823 -1.2701
  223MOL0     H30077   5.983   7.186   5.561  1.2795 -1.4221 -0.9315
  223MOL0     H30078   6.047   7.030   5.626  0.5280 -0.4293  1.4616
  223MOL0     H30079   5.847   7.214   5.758 -1.2139 -0.0228 -0.4848
  223MOL0     H30080   5.908   7.079   5.841  2.0101  0.9692 -0.8675
  223MOL0     H30081   5.796   7.036   5.555  0.4430 -1.7501 -0.7892
  223MOL0     H30082   5.811   6.917   5.681 -2.4603 -0.8381  0.4782
  223MOL0     H30083   5.642   7.121   5.807 -1.0211 -1.4569  0.9570
  223MOL0     H30084   5.600   6.955   5.755 -1.6967  0.3219  1.5034
  223MOL0     H30085   5.572   7.215   5.594 -1.0201  1.0223  3.0923
  223MOL0     H30086   5.448   7.107   5.671 -0.2966  1.5256 -0.8383
  223MOL0     H30087   6.635   7.445   5.515 -0.1525  1.1103  2.1642
  223MOL0     H30088   6.847   7.505   5.616  0.2733  2.3345  3.3080
  223MOL0     H30089   7.078   7.361   6.197 -2.4039 -0.2295 -2.7696
  223MOL0     H30090   7.278   7.446   6.305  1.5639  0.0475 -0.4605
  223MOL0     H30091   7.995   8.162   7.913  1.3061  3.2342  1.4214
  223MOL0     H30092   8.139   8.306   8.049  0.2855  0.1980 -0.2496
  223MOL0     H30093   8.419   8.350   8.430  0.9490  0.0311  0.2496
  223MOL0     H30094   8.594   8.466   8.552 -2.6299 -0.5501  0.2335
  223MOL0     H30095   8.817   8.755   8.329 -1.3116 -2.1635 -0.3062
  223MOL0     H30096   8.907   8.763   8.485 -0.8818  1.5083 -0.5856
  223MOL0     H30097   9.065   8.728   8.298  0.0544  1.1449  0.5743
  223MOL0     H30098   8.985   8.592   8.246 -2.0632 -1.6645  1.4599
  223MOL0     H30099   9.033   8.488   8.498 -0.9735 -0.7672 -1.6853
  223MOL0     H30100   9.152   8.625   8.493 -1.1832  1.8280  0.1761
  223MOL0     H30101   9.258   8.529   8.305  1.2211 -1.0530  1.1678
  223MOL0     H30102   9.127   8.400   8.297 -2.2534 -0.6180  2.3678
  223MOL0     H30103   9.412   8.243   8.541 -3.2545 -4.0616 -0.2022
  223MOL0     H30104   8.782   8.571   8.168 -1.5145  2.1671 -1.0997
  223MOL0     H30105   8.582   8.452   8.062 -1.9577 -1.0519 -0.4707
  224MOL0     O30106   5.729   7.165   6.852 -0.0557 -0.5300  0.5417
  224MOL0     C30107   5.767   7.200   6.742 -0.0813 -0.7495  0.2917
  224MOL0     O30108   5.691   7.173   6.628 -0.2090  0.4869 -0.3479
  224MOL0     C30109   5.571   7.112   6.647 -0.1584 -0.1332 -0.4405
  224MOL0     C30110   5.451   7.191   6.652 -0.0788  0.0012  0.2021
  224MOL0     C30111   5.325   7.128   6.653 -0.5213 -1.0227 -0.8703
  224MOL0     C30112   5.317   6.990   6.647 -0.3396  0.1148 -0.3966
  224MOL0     O30113   5.207   6.920   6.650 -0.1115  0.0178  0.5406
  224MOL0     C30114   5.081   6.993   6.648  0.5552  0.7474 -0.5275
  224MOL0     C30115   4.966   6.892   6.657  0.4579 -0.1710 -0.3039
  224MOL0     C30116   4.991   6.758   6.584  0.5877  0.8344  0.3713
  224MOL0     C30117   4.879   6.659   6.612  0.3000 -0.0168  0.5125
  224MOL0     C30118   4.855   6.541   6.511 -0.1464 -0.6122 -1.1725
  224MOL0     C30119   4.723   6.476   6.570 -0.5930 -0.1401  0.3389
  224MOL0     C30120   4.652   6.397   6.464 -0.3942  0.1898  0.1064
  224MOL0     C30121   4.534   6.322   6.524  0.1372 -0.3825  0.3620
  224MOL0     N30122   4.458   6.269   6.404 -0.2614 -0.2819 -0.2982
  224MOL0     C30123   4.516   6.180   6.325  0.5778  0.4374  0.7291
  224MOL0     C30124   4.421   6.143   6.235 -0.5857  0.5086 -0.5918
  224MOL0     C30125   4.430   6.026   6.136  0.6143 -0.6528  0.2701
  224MOL0     C30126   4.449   5.889   6.206  0.5112 -0.6465  0.4106
  224MOL0     C30127   4.434   5.768   6.108  0.7753  0.0183  0.0471
  224MOL0     C30128   4.431   5.635   6.194 -0.1880  0.2292  0.2341
  224MOL0     O30129   4.557   5.620   6.261  0.5616  0.1643  0.3471
  224MOL0     C30130   4.671   5.559   6.210  0.3761 -0.6705  0.4029
  224MOL0     C30131   4.679   5.527   6.071 -0.1637  0.3094  0.3737
  224MOL0     C30132   4.796   5.473   6.015  0.8339 -0.8996  0.2519
  224MOL0     C30133   4.802   5.474   5.871  0.2542  0.1584  0.0557
  224MOL0     C30134   4.905   5.448   6.102  0.1686 -0.0291 -0.1635
  224MOL0     C30135   5.038   5.387   6.061  0.3384 -0.1259  0.0347
  224MOL0     O30136   5.132   5.397   6.159 -0.6379 -0.2218 -0.6465
  224MOL0     C30137   5.258   5.333   6.162  0.5992  0.8310 -0.0647
  224MOL0     C30138   5.334   5.303   6.052  0.3174 -0.7896 -0.2753
  224MOL0     C30139   5.446   5.223   6.055 -0.9807 -0.9690 -0.4109
  224MOL0     C30140   5.484   5.165   6.181 -0.4841  0.1212 -0.4753
  224MOL0     O30141   5.581   5.066   6.210 -0.2582  0.4962  0.4028
  224MOL0     C30142   5.654   5.006   6.102 -0.6530  0.4945 -0.2708
  224MOL0     C30143   5.748   4.898   6.148 -0.1478  0.0939  0.1891
  224MOL0     C30144   5.677   4.773   6.192 -0.1260  0.4448 -0.9945
  224MOL0     C30145   5.659   4.771   6.349  1.1952 -0.5933  1.0680
  224MOL0     C30146   5.792   4.770   6.423 -0.1226 -0.4569 -1.0368
  224MOL0     C30147   5.889   4.660   6.386 -0.2217  0.0577 -0.2149
  224MOL0     C30148   6.006   4.658   6.473  0.0851  0.3002 -0.2632
  224MOL0     C30149   6.113   4.550   6.438 -0.4553  0.0318  0.4492
  224MOL0    Cl30150   6.154   4.567   6.258 -0.1734 -0.3979 -0.2318
  224MOL0     C30151   5.410   5.201   6.296  0.6865  0.5730 -0.2933
  224MOL0     C30152   5.297   5.282   6.291 -0.2824  0.4463 -0.6585
  224MOL0     O30153   5.043   5.337   5.955  0.1574 -0.5024  0.0518
  224MOL0     C30154   4.888   5.469   6.239  0.5441 -0.4178  0.7655
  224MOL0     C30155   4.776   5.523   6.290  0.0908  0.0280 -0.3855
  224MOL0     N30156   4.311   6.217   6.270 -0.5135 -0.5644  0.2470
  224MOL0     N30157   4.335   6.300   6.363  0.3240 -0.1954 -0.3493
  224MOL0     C30158   5.432   6.912   6.652  0.1816 -0.6425  0.0503
  224MOL0     C30159   5.562   6.970   6.655  0.1666  0.2594  0.0393
  224MOL0     C30160   5.913   7.224   6.724 -0.1856 -0.0629  0.2407
  224MOL0     C30161   5.962   7.248   6.595  0.8707 -0.6138 -0.1284
  224MOL0     C30162   6.094   7.285   6.580 -0.1479  0.7611  1.2025
  224MOL0     C30163   6.182   7.291   6.686 -0.6413 -1.2038 -0.5862
  224MOL0     O30164   6.316   7.308   6.653  0.6408 -0.0303  0.0504
  224MOL0     C30165   6.382   7.406   6.738 -0.1299 -0.3515 -0.0534
  224MOL0     C30166   6.498   7.465   6.657 -0.0633  0.0921 -0.0254
  224MOL0     C30167   6.445   7.532   6.535  0.3141  0.3813  0.3962
  224MOL0     C30168   6.532   7.647   6.479 -0.5117  0.5815 -0.1465
  224MOL0     C30169   6.471   7.693   6.357  0.3922  0.5062  0.4493
  224MOL0     C30170   6.400   7.735   6.268  0.5465  0.5191 -0.6912
  224MOL0     C30171   6.133   7.268   6.818  0.2179 -1.2003  1.1262
  224MOL0     C30172   5.999   7.237   6.835  0.5706 -0.1354  0.0834
  224MOL0     H30173   5.469   7.297   6.640 -0.6920  0.3624  2.2209
  224MOL0     H30174   5.238   7.192   6.649 -1.1378 -1.8001 -5.4488
  224MOL0     H30175   5.075   7.064   6.731 -1.2743  1.2840 -1.0728
  224MOL0     H30176   5.079   7.041   6.550  0.1255 -1.2496 -1.5561
  224MOL0     H30177   4.941   6.867   6.760 -2.2910  1.4938 -0.4550
  224MOL0     H30178   4.874   6.947   6.633  0.6352  0.1443 -0.2636
  224MOL0     H30179   5.017   6.780   6.480 -1.9355  1.1709 -0.2637
  224MOL0     H30180   5.080   6.710   6.625  1.3689  0.8543 -1.2540
  224MOL0     H30181   4.899   6.596   6.700  0.9443  0.5962  0.8102
  224MOL0     H30182   4.788   6.714   6.636  0.1063  0.0812 -0.4193
  224MOL0     H30183   4.840   6.571   6.407 -2.8259 -2.7658 -1.5196
  224MOL0     H30184   4.939   6.471   6.513 -2.3765 -3.4627  1.3065
  224MOL0     H30185   4.754   6.406   6.648  1.6991  0.3146 -0.0962
  224MOL0     H30186   4.659   6.553   6.614  3.4135  2.3511  2.4927
  224MOL0     H30187   4.612   6.475   6.397 -0.4989  0.6438  0.6900
  224MOL0     H30188   4.722   6.332   6.411 -0.3498 -0.8914  1.4452
  224MOL0     H30189   4.474   6.403   6.567  1.9544  2.0542 -1.4087
  224MOL0     H30190   4.563   6.246   6.598  1.4806  1.7296  2.1404
  224MOL0     H30191   4.613   6.135   6.339  0.2577 -1.1033 -1.5511
  224MOL0     H30192   4.332   6.041   6.089 -0.6257  0.8224  3.0890
  224MOL0     H30193   4.509   6.039   6.061  0.0536 -2.0121 -0.6091
  224MOL0     H30194   4.366   5.889   6.277  1.5203 -0.6251  1.6309
  224MOL0     H30195   4.538   5.898   6.269 -1.1064 -0.7210  2.8421
  224MOL0     H30196   4.506   5.758   6.026  1.8274  0.2046  0.9370
  224MOL0     H30197   4.337   5.784   6.058  1.1287 -1.5516 -1.2384
  224MOL0     H30198   4.410   5.550   6.128 -3.1471 -0.1429  1.5119
  224MOL0     H30199   4.350   5.641   6.266 -0.9852 -0.4797 -0.5756
  224MOL0     H30200   4.598   5.547   6.002 -0.3686 -0.0501  0.5060
  224MOL0     H30201   4.792   5.368   5.845  1.1243 -0.3303  1.6020
  224MOL0     H30202   4.727   5.541   5.828  1.1132  1.9308  1.1742
  224MOL0     H30203   4.901   5.502   5.833  0.8325 -1.7888 -0.0131
  224MOL0     H30204   5.313   5.348   5.955  1.4351 -0.6974 -0.4953
  224MOL0     H30205   5.497   5.201   5.961 -0.0630  1.7212 -0.6392
  224MOL0     H30206   5.593   4.966   6.020 -0.4597  0.4912 -0.4122
  224MOL0     H30207   5.717   5.081   6.054  1.7065 -1.3062 -0.1278
  224MOL0     H30208   5.799   4.880   6.053 -1.9611  2.9787 -1.4852
  224MOL0     H30209   5.829   4.939   6.209  1.0331 -1.9613  0.0942
  224MOL0     H30210   5.730   4.684   6.157  1.3220  0.9154 -0.1245
  224MOL0     H30211   5.574   4.787   6.160 -0.6650  0.7384  0.7377
  224MOL0     H30212   5.603   4.862   6.371  0.4034 -0.6029 -0.6780
  224MOL0     H30213   5.606   4.683   6.389  3.1044 -1.0034  2.8561
  224MOL0     H30214   5.774   4.764   6.531 -0.5929  0.7256 -1.0334
  224MOL0     H30215   5.856   4.858   6.413  1.3150 -1.3169  0.2097
  224MOL0     H30216   5.835   4.565   6.388  0.2021 -0.1964 -0.8531
  224MOL0     H30217   5.915   4.674   6.281  0.1339 -2.4993 -0.5306
  224MOL0     H30218   5.975   4.639   6.576  0.2734  0.0479 -0.2526
  224MOL0     H30219   6.057   4.755   6.476  0.1916  0.3290  4.4489
  224MOL0     H30220   6.062   4.454   6.451  1.1520 -0.8584  0.3894
  224MOL0     H30221   6.210   4.546   6.487  1.4119  0.8566 -2.8392
  224MOL0     H30222   5.429   5.146   6.387 -1.1549 -0.3575 -0.4231
  224MOL0     H30223   5.237   5.289   6.382 -1.9634  1.3439 -1.7829
  224MOL0     H30224   4.965   5.449   6.313  0.4862  1.2849  1.3355
  224MOL0     H30225   4.763   5.534   6.397  2.3728  2.6110 -0.2769
  224MOL0     H30226   5.419   6.806   6.669  2.0087 -0.9583 -0.2906
  224MOL0     H30227   5.649   6.906   6.664  1.8523  2.5721  1.4811
  224MOL0     H30228   5.895   7.250   6.510  0.2893 -3.2416  0.1637
  224MOL0     H30229   6.135   7.304   6.481 -2.0484 -0.3363  0.1234
  224MOL0     H30230   6.311   7.486   6.763  1.3389  1.5404 -1.5573
  224MOL0     H30231   6.421   7.357   6.827  4.5428  4.7267  1.2399
  224MOL0     H30232   6.572   7.393   6.621 -0.0834  0.7659 -1.5070
  224MOL0     H30233   6.555   7.541   6.710  0.7254  2.2560 -3.6230
  224MOL0     H30234   6.344   7.571   6.551  0.2838  0.2782  0.4566
  224MOL0     H30235   6.436   7.450   6.463 -3.4455  1.8020 -1.0110
  224MOL0     H30236   6.631   7.607   6.454  0.5370  2.5579  0.6693
  224MOL0     H30237   6.546   7.728   6.550 -0.4328 -1.3091  2.0966
  224MOL0     H30238   6.347   7.772   6.183 -2.6575  0.7154  1.2044
  224MOL0     H30239   6.185   7.286   6.911 -0.7737 -2.8300  2.0371
  224MOL0     H30240   5.965   7.209   6.934  3.5702 -1.7704  0.7612
  225MOL0     O30241   7.212   9.237   2.752  0.0154 -0.7829 -0.1163
  225MOL0     C30242   7.144   9.325   2.806  0.6917 -0.8109 -0.2622
  225MOL0     O30243   7.001   9.328   2.814  0.2108  0.5690 -0.6035
  225MOL0     C30244   6.938   9.209   2.773 -1.5025  0.4104  0.1374
  225MOL0     C30245   6.934   9.108   2.864 -0.6498 -0.5700 -0.0723
  225MOL0     C30246   6.861   8.995   2.837  0.0801 -1.2172  0.0409
  225MOL0     C30247   6.784   8.984   2.721  0.2260 -0.4771  0.5458
  225MOL0     O30248   6.701   8.885   2.694 -0.0041 -0.0777 -0.0698
  225MOL0     C30249   6.668   8.796   2.802  0.2775 -0.1260  0.5028
  225MOL0     C30250   6.569   8.675   2.770 -0.1320 -0.6842 -0.8041
  225MOL0     C30251   6.454   8.690   2.674 -0.1190  0.0130  0.9639
  225MOL0     C30252   6.471   8.609   2.543  0.6824 -0.5243  0.0063
  225MOL0     C30253   6.330   8.557   2.499 -0.3355  0.0809  0.2442
  225MOL0     C30254   6.345   8.439   2.398  0.0520 -0.1737  1.0336
  225MOL0     C30255   6.207   8.379   2.345  0.3058 -0.1814 -0.5625
  225MOL0     C30256   6.241   8.280   2.237 -1.1189 -0.0115 -0.5596
  225MOL0     N30257   6.124   8.212   2.189  0.2796  0.6065 -0.7041
  225MOL0     C30258   6.051   8.119   2.258 -0.0113 -0.2920 -0.1767
  225MOL0     C30259   5.936   8.108   2.191  0.2333  0.1302  0.4202
  225MOL0     C30260   5.833   8.006   2.220 -0.1094  0.2703  0.1860
  225MOL0     C30261   5.850   7.877   2.138 -0.4174 -0.2181 -0.5044
  225MOL0     C30262   5.736   7.784   2.169 -0.4347 -0.8085 -0.3034
  225MOL0     C30263   5.761   7.662   2.088  0.2230  0.5548  0.5456
  225MOL0     O30264   5.712   7.694   1.959  0.6757 -0.4119 -0.1324
  225MOL0     C30265   5.588   7.657   1.912 -0.5244  0.5234 -0.0773
  225MOL0     C30266   5.505   7.560   1.977 -0.5631 -0.1080 -0.2823
  225MOL0     C30267   5.388   7.516   1.923 -0.4360  0.2845 -0.3766
  225MOL0     C30268   5.309   7.411   2.004  0.2219 -0.8234  0.2617
  225MOL0     C30269   5.344   7.560   1.796  0.7542  0.1335  0.4323
  225MOL0     C30270   5.222   7.514   1.720  0.6606  0.3733 -0.5842
  225MOL0     O30271   5.160   7.603   1.641 -0.5738  0.1032  0.1635
  225MOL0     C30272   5.048   7.576   1.570 -0.3136  1.5499 -0.0582
  225MOL0     C30273   5.014   7.659   1.459 -0.6836 -0.2791 -0.5026
  225MOL0     C30274   4.901   7.638   1.375 -0.0143  0.3165 -0.5082
  225MOL0     C30275   4.817   7.536   1.411  1.2859  0.5836  0.4804
  225MOL0     O30276   4.707   7.520   1.329  0.1832  0.3161 -0.1419
  225MOL0     C30277   4.666   7.382   1.313 -0.0793  0.2085 -0.3885
  225MOL0     C30278   4.594   7.345   1.189 -0.6746 -1.3020 -0.2200
  225MOL0     C30279   4.441   7.367   1.188  0.6350 -1.2051  0.3586
  225MOL0     C30280   4.359   7.299   1.084  0.3383  0.0533  0.8331
  225MOL0     C30281   4.214   7.344   1.094  0.1152  0.1860  0.1997
  225MOL0     C30282   4.127   7.231   1.148 -0.2192  0.1821  0.0963
  225MOL0     C30283   4.103   7.147   1.021 -0.5174 -0.1021  0.3685
  225MOL0     C30284   3.975   7.074   1.047  0.0175 -0.7054 -0.6501
  225MOL0    Cl30285   3.968   6.927   0.948  0.2114 -0.2928 -0.2983
  225MOL0     C30286   4.849   7.446   1.517  1.2481  0.0899 -0.6152
  225MOL0     C30287   4.961   7.465   1.599 -0.3999 -0.1087 -0.5236
  225MOL0     O30288   5.205   7.393   1.725  0.7630  0.0801 -0.2108
  225MOL0     C30289   5.417   7.666   1.739 -0.2106  0.1930  0.5261
  225MOL0     C30290   5.535   7.710   1.802 -0.5912 -0.4487  0.4990
  225MOL0     N30291   5.942   8.191   2.081 -0.4939  0.3282  0.4267
  225MOL0     N30292   6.055   8.250   2.077 -0.1519 -0.3496 -0.0629
  225MOL0     C30293   6.789   9.090   2.624  0.0451  0.7893 -0.8743
  225MOL0     C30294   6.868   9.205   2.651  0.1278  0.1777 -1.0927
  225MOL0     C30295   7.209   9.447   2.844 -0.0445  0.1391 -0.3078
  225MOL0     C30296   7.335   9.485   2.788  0.1238 -0.9944 -0.2887
  225MOL0     C30297   7.396   9.603   2.825 -0.4416 -0.4595 -0.5675
  225MOL0     C30298   7.357   9.676   2.934  0.6999 -0.1094 -0.2257
  225MOL0     O30299   7.451   9.781   2.958  0.1181 -0.4119 -0.3656
  225MOL0     C30300   7.446   9.850   3.083  0.2551 -0.1335  0.5865
  225MOL0     C30301   7.556   9.952   3.082  0.6918 -0.0594 -0.0828
  225MOL0     C30302   7.540  10.060   2.972 -0.9512 -0.3685 -0.4430
  225MOL0     C30303   7.402  10.128   2.991 -0.5059 -0.1042  0.1812
  225MOL0     C30304   7.401  10.266   2.934 -0.3880  0.0985 -0.1001
  225MOL0     C30305   7.400  10.377   2.893 -0.7284 -0.7161 -0.3179
  225MOL0     C30306   7.242   9.629   3.002 -0.6454 -0.6427 -0.8481
  225MOL0     C30307   7.167   9.518   2.957  0.3502  0.4432  0.4227
  225MOL0     H30308   6.971   9.129   2.964 -1.3827  1.8461 -0.2606
  225MOL0     H30309   6.861   8.929   2.924  0.0265 -0.3991  0.6759
  225MOL0     H30310   6.757   8.744   2.841 -0.1654 -1.1588  0.1706
  225MOL0     H30311   6.618   8.859   2.876 -4.6175 -1.8365 -0.9189
  225MOL0     H30312   6.636   8.593   2.740 -0.9102 -1.9746  0.8552
  225MOL0     H30313   6.528   8.637   2.864 -0.7697 -1.4649 -1.3862
  225MOL0     H30314   6.358   8.656   2.715 -1.2540 -1.4779 -2.5102
  225MOL0     H30315   6.435   8.793   2.643 -1.0104 -0.8532 -1.7217
  225MOL0     H30316   6.506   8.678   2.465  1.2404  0.1148  0.7982
  225MOL0     H30317   6.543   8.527   2.548  2.3585  0.6736 -2.2901
  225MOL0     H30318   6.273   8.518   2.583  1.8248  0.0417  1.7660
  225MOL0     H30319   6.282   8.641   2.447 -1.8425  0.4305  2.0975
  225MOL0     H30320   6.402   8.473   2.312 -1.9783  0.0565 -0.2781
  225MOL0     H30321   6.409   8.361   2.441 -0.6556 -0.0307  2.4170
  225MOL0     H30322   6.151   8.327   2.424 -0.5315  0.1893 -0.8917
  225MOL0     H30323   6.136   8.456   2.313 -3.4999 -3.4956 -0.8860
  225MOL0     H30324   6.315   8.207   2.272 -2.2755 -0.9673 -0.0028
  225MOL0     H30325   6.288   8.327   2.151 -1.2167 -0.3339 -0.7917
  225MOL0     H30326   6.088   8.082   2.354 -0.9253  0.9009  0.6721
  225MOL0     H30327   5.831   7.978   2.326 -2.7428 -1.0578 -0.1127
  225MOL0     H30328   5.737   8.055   2.204 -0.1364 -0.1252 -0.9816
  225MOL0     H30329   5.948   7.835   2.161  0.4127  0.4388 -2.5903
  225MOL0     H30330   5.839   7.901   2.032 -0.2193  2.9638  0.0902
  225MOL0     H30331   5.638   7.824   2.144  0.7996  2.8904  0.1573
  225MOL0     H30332   5.741   7.752   2.274  0.8751  1.3034  0.3303
  225MOL0     H30333   5.710   7.573   2.126 -3.3598  1.7612 -0.9801
  225MOL0     H30334   5.866   7.637   2.073 -0.7254 -2.0524 -3.1178
  225MOL0     H30335   5.534   7.510   2.069 -0.0802  2.1974  0.8853
  225MOL0     H30336   5.205   7.440   1.988  0.6253 -0.4273 -2.1109
  225MOL0     H30337   5.336   7.308   1.978 -0.8495 -0.7121 -1.4847
  225MOL0     H30338   5.335   7.425   2.109  0.8544 -1.0046  0.1360
  225MOL0     H30339   5.081   7.743   1.446 -1.5680  0.6506  0.8020
  225MOL0     H30340   4.886   7.711   1.296  2.6594  1.7085  0.1838
  225MOL0     H30341   4.752   7.316   1.325 -0.5997 -0.6113 -1.0084
  225MOL0     H30342   4.600   7.345   1.393 -1.5461 -1.8952 -2.4155
  225MOL0     H30343   4.644   7.394   1.105 -3.0358 -1.2362 -1.6740
  225MOL0     H30344   4.598   7.235   1.187  1.4516 -1.2583 -0.8820
  225MOL0     H30345   4.439   7.476   1.171  2.0633 -1.3892 -1.3644
  225MOL0     H30346   4.393   7.345   1.283  0.0506  2.7413  1.1804
  225MOL0     H30347   4.381   7.343   0.986 -3.6661  4.8090  1.6302
  225MOL0     H30348   4.366   7.192   1.067 -0.2068  0.3768 -1.8445
  225MOL0     H30349   4.177   7.379   0.998  0.1254  0.8484  0.4338
  225MOL0     H30350   4.200   7.427   1.163  0.1403  0.5867 -0.2737
  225MOL0     H30351   4.172   7.182   1.235  0.2440 -2.6774 -1.6514
  225MOL0     H30352   4.029   7.274   1.176 -0.1297 -0.7713  2.0538
  225MOL0     H30353   4.174   7.064   1.017 -1.0164 -0.5098 -0.2065
  225MOL0     H30354   4.104   7.197   0.924 -1.4080 -0.7253  0.0251
  225MOL0     H30355   3.888   7.136   1.026  0.6856  0.2869 -0.5301
  225MOL0     H30356   3.978   7.042   1.152  1.4001 -0.1119 -0.4939
  225MOL0     H30357   4.792   7.360   1.549 -1.1408  1.4560 -0.9929
  225MOL0     H30358   4.966   7.411   1.693 -1.1025  0.1057 -0.3556
  225MOL0     H30359   5.389   7.711   1.645  3.3722 -0.8511 -1.1868
  225MOL0     H30360   5.600   7.785   1.757  2.0363 -2.7776  0.1574
  225MOL0     H30361   6.728   9.082   2.534  1.2375 -1.4388 -1.5810
  225MOL0     H30362   6.875   9.301   2.601 -0.6137  0.0663 -1.4177
  225MOL0     H30363   7.368   9.425   2.704  3.4428  1.9462 -1.3698
  225MOL0     H30364   7.493   9.612   2.777  1.2083 -2.5721  2.0552
  225MOL0     H30365   7.353   9.905   3.098 -0.0082  0.0401 -1.5042
  225MOL0     H30366   7.459   9.770   3.158 -0.6817 -2.8521 -1.9649
  225MOL0     H30367   7.657   9.909   3.075  0.7095 -0.7981  3.1226
  225MOL0     H30368   7.554   9.998   3.181  0.6169  0.6830 -0.4193
  225MOL0     H30369   7.545  10.006   2.876  0.7474 -1.7697  0.3830
  225MOL0     H30370   7.622  10.130   2.988 -1.9609  1.1053 -1.4760
  225MOL0     H30371   7.364  10.132   3.094 -2.4228 -2.3321 -0.3376
  225MOL0     H30372   7.338  10.062   2.932 -0.1745  1.3380 -1.8944
  225MOL0     H30373   7.403  10.472   2.844  1.7158 -0.4011  0.3003
  225MOL0     H30374   7.210   9.676   3.094  0.2972 -0.6936 -0.4912
  225MOL0     H30375   7.085   9.491   3.021  0.9573 -0.3300  0.9005
  226MOL0     O30376   4.109  10.291   7.536 -0.2354 -0.0251  0.0235
  226MOL0     C30377   4.112  10.404   7.486  0.2122 -0.0995 -0.1728
  226MOL0     O30378   4.227  10.474   7.457 -0.0601  0.2825 -0.9293
  226MOL0     C30379   4.350  10.421   7.486  0.5451 -0.8925 -0.2778
  226MOL0     C30380   4.405  10.322   7.405  0.3976  0.1816 -0.1183
  226MOL0     C30381   4.528  10.262   7.447  1.0507  0.9699  0.1483
  226MOL0     C30382   4.591  10.294   7.562  0.6242  0.2052 -0.8509
  226MOL0     O30383   4.701  10.230   7.617 -0.1548  0.2445 -0.4533
  226MOL0     C30384   4.792  10.155   7.538  0.0743 -0.2629  1.3057
  226MOL0     C30385   4.884  10.265   7.476  0.0281  0.2354 -0.1918
  226MOL0     C30386   4.822  10.347   7.360  0.6608 -1.1370  0.8862
  226MOL0     C30387   4.945  10.409   7.285  0.7785 -0.4353 -0.0308
  226MOL0     C30388   4.901  10.494   7.168 -0.8251 -0.3989 -0.2227
  226MOL0     C30389   4.883  10.644   7.208  0.2812  0.3867 -0.6805
  226MOL0     C30390   4.793  10.714   7.110 -0.4277 -0.2364  1.4340
  226MOL0     C30391   4.773  10.860   7.159 -0.0679 -0.2650 -0.3858
  226MOL0     N30392   4.713  10.949   7.057 -0.3045 -0.0650 -0.0577
  226MOL0     C30393   4.587  10.933   7.006 -0.8698  0.9628 -0.0179
  226MOL0     C30394   4.588  11.017   6.898 -0.5775  0.1373 -0.1646
  226MOL0     C30395   4.472  11.032   6.796 -0.2873  0.0390  0.7839
  226MOL0     C30396   4.444  10.890   6.722  0.0765  0.1399 -0.6543
  226MOL0     C30397   4.579  10.821   6.683  0.8705 -0.8435  0.7048
  226MOL0     C30398   4.658  10.899   6.586  0.8440  0.3127 -0.1725
  226MOL0     O30399   4.579  10.950   6.479  0.5980  0.0763  0.8071
  226MOL0     C30400   4.644  11.011   6.370 -0.3830 -0.2385 -0.9279
  226MOL0     C30401   4.566  11.080   6.276  0.4427  0.8074  0.0284
  226MOL0     C30402   4.628  11.140   6.165  0.1644 -0.7677 -0.0745
  226MOL0     C30403   4.535  11.212   6.065 -0.2050 -0.0494  0.2772
  226MOL0     C30404   4.770  11.142   6.149 -0.3848  0.8222 -0.2823
  226MOL0     C30405   4.840  11.207   6.035  0.7949  0.1373  0.0716
  226MOL0     O30406   4.968  11.231   6.066 -0.7202  0.2085  0.5599
  226MOL0     C30407   5.020  11.338   5.990  0.3620 -0.5515 -0.0781
  226MOL0     C30408   5.092  11.330   5.872 -0.0002 -0.3099 -0.3176
  226MOL0     C30409   5.136  11.442   5.801  0.2466 -0.7899  0.5845
  226MOL0     C30410   5.108  11.574   5.855  0.1787  0.6910 -0.3056
  226MOL0     O30411   5.158  11.692   5.797  0.2261 -0.1592 -0.4634
  226MOL0     C30412   5.266  11.689   5.705 -0.4464 -0.2837  0.1913
  226MOL0     C30413   5.321  11.837   5.673  0.6214  0.5586 -0.1003
  226MOL0     C30414   5.425  11.844   5.563 -0.2156 -0.2997  0.2331
  226MOL0     C30415   5.498  11.973   5.572 -0.6450 -0.0975 -0.5208
  226MOL0     C30416   5.568  12.005   5.443 -0.3886  0.6664 -0.1960
  226MOL0     C30417   5.625  12.148   5.426  0.0523 -0.2035  0.1717
  226MOL0     C30418   5.719  12.155   5.300 -0.1287 -0.2325  0.0718
  226MOL0     C30419   5.785  12.290   5.300 -0.6830  0.0606 -0.2523
  226MOL0    Cl30420   5.683  12.428   5.301  0.6263 -0.0224 -0.1608
  226MOL0     C30421   5.032  11.576   5.975 -0.0989 -0.5136  0.2414
  226MOL0     C30422   5.000  11.469   6.045 -0.1965  0.1557  0.2719
  226MOL0     O30423   4.786  11.221   5.923  0.4065  0.6475  0.2679
  226MOL0     C30424   4.842  11.054   6.237 -0.5111  0.7098 -0.7977
  226MOL0     C30425   4.782  10.983   6.343 -0.9851 -0.2421  0.6245
  226MOL0     N30426   4.712  11.074   6.890 -0.4812  0.3855 -0.0132
  226MOL0     N30427   4.784  11.029   6.981 -0.3415 -0.0301  0.7174
  226MOL0     C30428   4.534  10.395   7.640  0.4194  0.0870  0.7932
  226MOL0     C30429   4.417  10.464   7.602  0.5416  0.1473  0.2429
  226MOL0     C30430   3.975  10.459   7.452 -1.2100  0.4660  0.4204
  226MOL0     C30431   3.963  10.571   7.367 -0.1171 -0.8691  0.3011
  226MOL0     C30432   3.836  10.625   7.342 -0.2315 -0.4562 -1.3140
  226MOL0     C30433   3.724  10.565   7.392 -0.3684  0.1715 -0.4096
  226MOL0     O30434   3.598  10.615   7.369 -0.7253 -0.4882  0.5284
  226MOL0     C30435   3.558  10.608   7.237  0.2148 -0.5182  0.6720
  226MOL0     C30436   3.459  10.723   7.230 -0.4704 -0.2572  0.3770
  226MOL0     C30437   3.334  10.718   7.316 -0.0862 -0.2117  0.2724
  226MOL0     C30438   3.258  10.590   7.300 -0.4713  0.2001  0.1020
  226MOL0     C30439   3.242  10.547   7.162  0.4483  0.3334  0.0329
  226MOL0     C30440   3.239  10.507   7.049  0.4160  0.3922 -0.5491
  226MOL0     C30441   3.737  10.444   7.468 -0.7663  0.3901  0.4364
  226MOL0     C30442   3.861  10.391   7.494 -1.5196 -0.4776 -0.1673
  226MOL0     H30443   4.349  10.296   7.316 -1.4470 -0.0100  1.0545
  226MOL0     H30444   4.566  10.178   7.390  0.3433 -0.5704  1.8231
  226MOL0     H30445   4.859  10.097   7.602  1.7737 -0.2974 -0.4187
  226MOL0     H30446   4.746  10.090   7.463  0.0939  0.1666  0.9196
  226MOL0     H30447   4.909  10.337   7.554 -0.6079  1.0334 -0.6973
  226MOL0     H30448   4.969  10.211   7.433 -1.3875 -2.4056  0.1199
  226MOL0     H30449   4.768  10.285   7.288 -0.0762  3.3280 -2.8858
  226MOL0     H30450   4.750  10.422   7.391 -0.4241 -1.1761 -1.3264
  226MOL0     H30451   5.012  10.467   7.349  1.0620 -0.5897 -0.1833
  226MOL0     H30452   4.994  10.320   7.243  1.4129  0.0024 -0.2428
  226MOL0     H30453   4.981  10.493   7.094  2.0792  0.0095  2.6636
  226MOL0     H30454   4.806  10.451   7.135  0.3344 -3.9037  0.5622
  226MOL0     H30455   4.833  10.648   7.305 -0.1730 -2.8148 -0.6492
  226MOL0     H30456   4.978  10.695   7.224  1.3644 -1.0840 -2.0274
  226MOL0     H30457   4.834  10.726   7.009  0.1176 -1.6538  1.4690
  226MOL0     H30458   4.695  10.666   7.102 -0.5938  0.3447 -0.9828
  226MOL0     H30459   4.861  10.916   7.194  1.1195 -1.7332 -0.9013
  226MOL0     H30460   4.707  10.850   7.246  2.2008  2.1235  1.8174
  226MOL0     H30461   4.517  10.855   7.032  0.7867 -1.6076 -2.6656
  226MOL0     H30462   4.381  11.056   6.852 -0.0109 -1.4293  1.9065
  226MOL0     H30463   4.519  11.104   6.729  0.3329  0.6575  1.8443
  226MOL0     H30464   4.385  10.909   6.631 -0.5678  1.5567  0.0296
  226MOL0     H30465   4.385  10.821   6.782  0.5073 -2.3138 -2.8418
  226MOL0     H30466   4.541  10.730   6.635 -2.3647  0.3427  0.7720
  226MOL0     H30467   4.637  10.792   6.772 -0.4016 -2.3628  1.0841
  226MOL0     H30468   4.744  10.842   6.552  2.0748  2.5800 -1.1123
  226MOL0     H30469   4.701  10.987   6.636 -1.4251  1.2052  0.3439
  226MOL0     H30470   4.458  11.087   6.267  0.5548  3.1808 -0.0767
  226MOL0     H30471   4.442  11.248   6.111 -1.5136 -0.8979 -1.6090
  226MOL0     H30472   4.589  11.299   6.027 -2.4817  0.0528 -3.1662
  226MOL0     H30473   4.510  11.140   5.986  0.3378 -0.0434  0.0983
  226MOL0     H30474   5.082  11.229   5.832 -1.1342  1.1298 -4.0672
  226MOL0     H30475   5.178  11.438   5.701 -2.1587 -0.7266 -0.4916
  226MOL0     H30476   5.352  11.629   5.735  0.1385 -0.6844 -2.1181
  226MOL0     H30477   5.236  11.652   5.607 -0.2231  2.5515 -1.0625
  226MOL0     H30478   5.229  11.892   5.654  1.6583  1.9853 -1.2098
  226MOL0     H30479   5.369  11.868   5.766  2.3330 -1.2691 -0.2938
  226MOL0     H30480   5.370  11.843   5.469  2.0937  1.5348 -1.2644
  226MOL0     H30481   5.499  11.763   5.565  1.9860  1.5761 -0.3009
  226MOL0     H30482   5.427  12.054   5.594  1.5513  2.1767 -1.3300
  226MOL0     H30483   5.574  11.971   5.650  0.1879 -0.9790 -1.3346
  226MOL0     H30484   5.500  11.985   5.360  0.1301 -4.3540  0.2538
  226MOL0     H30485   5.644  11.926   5.439 -0.1139  0.9837 -2.6806
  226MOL0     H30486   5.540  12.218   5.427  2.5396  3.0207  1.1869
  226MOL0     H30487   5.689  12.179   5.509  0.0153  1.8906 -0.5200
  226MOL0     H30488   5.674  12.133   5.203  1.0278  0.4060 -0.6340
  226MOL0     H30489   5.795  12.078   5.310  0.4529  0.5730  2.4402
  226MOL0     H30490   5.841  12.292   5.206  1.3037  1.5992  0.8785
  226MOL0     H30491   5.858  12.303   5.381  0.0831 -0.8876 -0.7553
  226MOL0     H30492   5.004  11.676   6.005 -1.0019 -0.8018  0.3776
  226MOL0     H30493   4.935  11.482   6.130  0.5349  2.1560  0.5892
  226MOL0     H30494   4.949  11.035   6.234 -0.7210 -0.4028 -2.1007
  226MOL0     H30495   4.852  10.919   6.394  0.0420  0.0829 -0.3347
  226MOL0     H30496   4.564  10.421   7.741 -0.0046  2.5171  0.3530
  226MOL0     H30497   4.383  10.544   7.668  0.1418  0.2217 -0.0514
  226MOL0     H30498   4.057  10.613   7.334 -0.1869 -2.7461 -2.6872
  226MOL0     H30499   3.830  10.721   7.292 -2.5011 -0.0183 -0.3113
  226MOL0     H30500   3.641  10.625   7.168  0.1178 -1.4643  0.3117
  226MOL0     H30501   3.505  10.515   7.215  0.3774  0.1182 -3.2644
  226MOL0     H30502   3.435  10.733   7.124  2.4623  2.1814 -0.1870
  226MOL0     H30503   3.500  10.817   7.269 -2.4435  1.0721 -0.6010
  226MOL0     H30504   3.275  10.807   7.292 -2.6713 -1.3189  2.0598
  226MOL0     H30505   3.358  10.735   7.422  1.0879  0.2583 -0.0494
  226MOL0     H30506   3.158  10.610   7.339 -0.3851  0.2003  0.3237
  226MOL0     H30507   3.307  10.519   7.368  3.0838  3.0812  0.9004
  226MOL0     H30508   3.236  10.472   6.948 -3.0140 -2.3972  0.3012
  226MOL0     H30509   3.641  10.412   7.507 -1.6476  2.2900 -0.0566
  226MOL0     H30510   3.863  10.302   7.556 -1.9319  0.8082  1.8025
  227MOL0     O30511   4.336   0.215   7.786  0.7075  0.6404  0.1714
  227MOL0     C30512   4.434   0.170   7.848  0.6429  1.0804  0.5162
  227MOL0     O30513   4.452   0.192   7.986  0.3581 -0.1434  0.0765
  227MOL0     C30514   4.342   0.222   8.064 -0.1651 -0.4673 -0.0728
  227MOL0     C30515   4.238   0.134   8.072  0.2963 -0.9376 -0.3985
  227MOL0     C30516   4.127   0.178   8.137  0.6350 -0.3530  0.2834
  227MOL0     C30517   4.119   0.304   8.191 -0.0917 -0.2423  0.1670
  227MOL0     O30518   4.006   0.339   8.262 -0.8140 -0.6135 -1.2466
  227MOL0     C30519   3.912   0.249   8.319  0.2831  0.1949 -0.1996
  227MOL0     C30520   3.809   0.321   8.409  0.2279 -0.5244  0.2489
  227MOL0     C30521   3.847   0.382   8.536 -0.1464 -0.1442 -0.1109
  227MOL0     C30522   3.878   0.532   8.512  0.0188 -0.3967  0.2866
  227MOL0     C30523   3.945   0.610   8.632 -0.3756 -0.1280 -0.0168
  227MOL0     C30524   3.994   0.753   8.621 -0.1530  1.2294 -0.2225
  227MOL0     C30525   3.917   0.843   8.528  0.3508  0.2896 -0.5096
  227MOL0     C30526   3.978   0.978   8.492  0.3539  0.4277 -0.7724
  227MOL0     N30527   3.881   1.050   8.416  0.6391  0.4660 -0.3650
  227MOL0     C30528   3.770   1.108   8.472  0.1403 -0.1670 -0.0427
  227MOL0     C30529   3.714   1.187   8.377  0.1254  0.2803  0.5988
  227MOL0     C30530   3.610   1.284   8.396  0.4488  0.2110  0.1155
  227MOL0     C30531   3.496   1.261   8.293 -0.1993  0.0710 -0.5301
  227MOL0     C30532   3.429   1.389   8.245  0.5271 -0.2715  0.7194
  227MOL0     C30533   3.328   1.366   8.126  0.9921 -0.8052 -0.0829
  227MOL0     O30534   3.200   1.298   8.150  0.3185  0.3687 -0.3171
  227MOL0     C30535   3.107   1.350   8.236  0.4917  0.8133  0.5688
  227MOL0     C30536   3.017   1.267   8.301 -0.6661  0.0222 -0.6147
  227MOL0     C30537   2.921   1.321   8.386  0.2127  0.4955 -0.2676
  227MOL0     C30538   2.824   1.216   8.437  0.2411 -0.7530  0.1300
  227MOL0     C30539   2.921   1.461   8.409 -1.1514  0.1497 -0.5299
  227MOL0     C30540   2.823   1.525   8.500 -0.0591  0.1819  0.3557
  227MOL0     O30541   2.750   1.445   8.581 -0.0371 -0.3943 -0.4339
  227MOL0     C30542   2.626   1.500   8.625  0.5426  0.2583 -0.4759
  227MOL0     C30543   2.519   1.550   8.545 -0.5557 -0.3999  0.2363
  227MOL0     C30544   2.396   1.588   8.596  0.3957  0.3779 -0.2346
  227MOL0     C30545   2.380   1.599   8.740 -0.7323  0.0580 -0.4614
  227MOL0     O30546   2.262   1.632   8.798 -0.2945 -0.0241  0.3795
  227MOL0     C30547   2.219   1.770   8.774 -0.9936 -0.1319 -0.1012
  227MOL0     C30548   2.103   1.814   8.870 -0.5649 -0.1970  0.4571
  227MOL0     C30549   1.976   1.784   8.799 -0.0239  0.1551 -0.0915
  227MOL0     C30550   1.875   1.726   8.902 -0.6718 -0.7114 -0.0565
  227MOL0     C30551   1.739   1.698   8.837 -0.2912  0.7568  0.1635
  227MOL0     C30552   1.656   1.833   8.823  0.3666  0.0193 -0.4613
  227MOL0     C30553   1.522   1.807   8.771  0.0701  0.4955  0.1496
  227MOL0     C30554   1.422   1.734   8.857 -0.3882 -0.4268  0.0416
  227MOL0    Cl30555   1.265   1.792   8.850 -0.4301 -0.0154 -0.2753
  227MOL0     C30556   2.488   1.562   8.826  0.4319 -0.2847 -0.1684
  227MOL0     C30557   2.611   1.510   8.760 -0.0001  0.5583 -0.9258
  227MOL0     O30558   2.820   1.651   8.497 -0.4158 -0.6493  0.1227
  227MOL0     C30559   2.999   1.545   8.331 -0.6300  0.0904 -0.1993
  227MOL0     C30560   3.088   1.487   8.239  0.8050  0.0934  0.6715
  227MOL0     N30561   3.787   1.169   8.262 -0.3341  0.0223  0.0357
  227MOL0     N30562   3.885   1.081   8.286  0.2090  0.2218  0.5532
  227MOL0     C30563   4.231   0.385   8.192 -0.2824 -0.1484 -0.0553
  227MOL0     C30564   4.352   0.348   8.123  0.3723  0.2734  0.3780
  227MOL0     C30565   4.550   0.121   7.777 -0.3527  0.5326  0.0112
  227MOL0     C30566   4.560   0.120   7.638  1.0995 -0.0029 -0.8263
  227MOL0     C30567   4.673   0.070   7.581 -0.5492  0.1744 -0.7038
  227MOL0     C30568   4.778   0.015   7.652 -0.3762 -0.2131 -0.8596
  227MOL0     O30569   4.876  -0.043   7.582  0.5231 -0.0637  0.0950
  227MOL0     C30570   5.003  -0.081   7.646  0.7515 -0.1916  0.1131
  227MOL0     C30571   5.112  -0.127   7.548  0.7146 -0.7477  0.7337
  227MOL0     C30572   5.218  -0.218   7.607 -0.2456 -0.3719  0.3308
  227MOL0     C30573   5.301  -0.297   7.504  0.0710  0.1646  0.3642
  227MOL0     C30574   5.211  -0.402   7.440 -1.1859  0.4501 -0.0436
  227MOL0     C30575   5.148  -0.479   7.378  0.4761 -0.3287 -0.1035
  227MOL0     C30576   4.777   0.021   7.791 -0.8467 -0.6698 -0.5401
  227MOL0     C30577   4.663   0.072   7.862  0.3098  0.1487 -1.3307
  227MOL0     H30578   4.237   0.041   8.015  0.9343 -2.1131  1.4070
  227MOL0     H30579   4.046   0.106   8.142  0.1427 -0.0257 -1.8429
  227MOL0     H30580   3.869   0.189   8.238  0.9358 -0.8976  0.2428
  227MOL0     H30581   3.952   0.175   8.389  2.3210 -0.1413 -1.5996
  227MOL0     H30582   3.763   0.400   8.350  1.3512 -0.6962 -0.8969
  227MOL0     H30583   3.731   0.249   8.434  1.5527 -1.7656  0.9711
  227MOL0     H30584   3.762   0.373   8.603  0.6199  0.5649  0.9933
  227MOL0     H30585   3.941   0.341   8.574 -1.6229 -2.5719  1.1620
  227MOL0     H30586   3.945   0.530   8.426  0.5603 -2.4558  0.6976
  227MOL0     H30587   3.788   0.583   8.478  0.3277  0.9908  1.4558
  227MOL0     H30588   3.870   0.602   8.712  0.8554 -1.2694  1.0620
  227MOL0     H30589   4.034   0.556   8.666 -0.2217 -0.7304 -1.3110
  227MOL0     H30590   4.008   0.783   8.725  2.2028  0.6058 -0.3002
  227MOL0     H30591   4.097   0.755   8.584  0.1325 -0.0559  0.4496
  227MOL0     H30592   3.903   0.790   8.433 -2.9287  0.4736 -0.2611
  227MOL0     H30593   3.818   0.855   8.575  0.2488 -3.3272  0.4396
  227MOL0     H30594   4.065   0.975   8.425  0.6758 -1.6887 -0.3219
  227MOL0     H30595   3.997   1.033   8.585  0.1316 -0.9133  0.0842
  227MOL0     H30596   3.745   1.095   8.577 -2.1887  0.1780 -0.4821
  227MOL0     H30597   3.571   1.279   8.499  1.7425  1.9218  0.7426
  227MOL0     H30598   3.651   1.385   8.388  0.5663 -0.0190 -3.6686
  227MOL0     H30599   3.431   1.188   8.342 -1.9909  1.4027 -0.7914
  227MOL0     H30600   3.541   1.210   8.207 -0.7366 -1.0729 -0.1425
  227MOL0     H30601   3.503   1.455   8.199 -0.9932  0.7896 -0.3352
  227MOL0     H30602   3.384   1.450   8.324 -1.6527  0.3824 -0.9306
  227MOL0     H30603   3.375   1.308   8.046 -0.8959 -4.3768  1.1547
  227MOL0     H30604   3.312   1.464   8.081  2.0781 -1.8008 -2.8729
  227MOL0     H30605   3.033   1.161   8.280  2.1439  0.1671  0.3219
  227MOL0     H30606   2.814   1.128   8.373 -0.9210 -0.9613  0.5708
  227MOL0     H30607   2.857   1.185   8.536  2.6138  2.0452  0.3366
  227MOL0     H30608   2.723   1.259   8.436  0.1809 -0.4975 -4.7247
  227MOL0     H30609   2.532   1.542   8.437  0.6888 -1.0217  0.4210
  227MOL0     H30610   2.312   1.613   8.531 -0.4920  1.9261  1.4305
  227MOL0     H30611   2.305   1.833   8.798 -0.0743 -1.5785  0.5327
  227MOL0     H30612   2.189   1.776   8.670 -2.8602 -2.7250  0.1959
  227MOL0     H30613   2.128   1.764   8.964  4.1209  2.8758  1.2308
  227MOL0     H30614   2.109   1.922   8.888 -0.8191  0.5815 -3.3150
  227MOL0     H30615   1.985   1.708   8.721 -0.4122 -1.6176  1.4975
  227MOL0     H30616   1.944   1.880   8.757  2.9377  0.3155 -2.2904
  227MOL0     H30617   1.912   1.634   8.947  1.1248 -0.1753 -0.3745
  227MOL0     H30618   1.858   1.806   8.974  0.3629 -0.2716 -0.2822
  227MOL0     H30619   1.693   1.627   8.906 -1.3158  0.5029 -0.7648
  227MOL0     H30620   1.750   1.652   8.738 -2.4098  1.3693 -0.4012
  227MOL0     H30621   1.663   1.893   8.915 -2.4769 -0.7488  0.3628
  227MOL0     H30622   1.713   1.887   8.747  1.3110 -0.9327 -0.4446
  227MOL0     H30623   1.534   1.759   8.673  1.4114 -1.3394  1.1561
  227MOL0     H30624   1.479   1.906   8.754 -0.9016  0.7266  3.2987
  227MOL0     H30625   1.448   1.757   8.961 -0.2377 -0.4967  0.0210
  227MOL0     H30626   1.428   1.626   8.847  1.2411 -0.2348 -1.7943
  227MOL0     H30627   2.477   1.565   8.934  1.5731 -0.5967 -0.0278
  227MOL0     H30628   2.689   1.463   8.819 -2.7667 -2.0272  0.9072
  227MOL0     H30629   3.006   1.652   8.346  3.4353 -0.0765  0.2276
  227MOL0     H30630   3.139   1.551   8.168 -3.6911  0.1515 -3.0018
  227MOL0     H30631   4.227   0.483   8.238  1.2437 -0.2249  0.3134
  227MOL0     H30632   4.438   0.413   8.111 -0.8987  1.7650 -1.2955
  227MOL0     H30633   4.474   0.149   7.578 -0.9431 -2.0673  0.8705
  227MOL0     H30634   4.668   0.060   7.473 -1.5120  1.1558 -0.7688
  227MOL0     H30635   5.035   0.003   7.708 -0.6155  1.1070 -0.8666
  227MOL0     H30636   4.976  -0.166   7.710 -0.5445 -0.5254 -0.8271
  227MOL0     H30637   5.164  -0.036   7.516 -1.6229  1.1304  1.9796
  227MOL0     H30638   5.065  -0.168   7.458 -0.2243 -2.1559  1.8163
  227MOL0     H30639   5.182  -0.295   7.676  1.8895 -0.6418  1.2311
  227MOL0     H30640   5.277  -0.154   7.673  1.1003 -0.8158 -0.4049
  227MOL0     H30641   5.382  -0.344   7.561 -1.1259 -0.9050  1.2184
  227MOL0     H30642   5.342  -0.238   7.420  0.9628 -0.0802  0.6164
  227MOL0     H30643   5.066  -0.539   7.343  0.7818 -0.4199 -0.6773
  227MOL0     H30644   4.860  -0.018   7.848  0.0529  3.4219  1.2522
  227MOL0     H30645   4.683   0.066   7.968  2.8822  0.3626 -1.7328
  228MOL0     O30646   0.128   4.371   6.437 -0.6112  0.5790 -0.1607
  228MOL0     C30647   0.226   4.314   6.383 -0.2430  0.0692 -0.7575
  228MOL0     O30648   0.228   4.192   6.332 -0.0158  0.2613  0.1732
  228MOL0     C30649   0.112   4.122   6.357  0.2630  0.8574  0.6208
  228MOL0     C30650   0.096   4.048   6.474 -0.0506  0.7551 -0.5291
  228MOL0     C30651  -0.021   3.990   6.507  0.5422  0.4235  1.1505
  228MOL0     C30652  -0.138   4.002   6.419 -0.1689 -0.6625 -0.0220
  228MOL0     O30653  -0.263   3.948   6.447 -0.0827 -0.7165 -0.2291
  228MOL0     C30654  -0.283   3.885   6.578 -0.3456 -0.2064  0.3126
  228MOL0     C30655  -0.411   3.806   6.549 -0.3949  0.1769  0.3836
  228MOL0     C30656  -0.475   3.754   6.676 -0.3619  0.1017  0.0792
  228MOL0     C30657  -0.595   3.672   6.640  0.0727  0.6914 -0.4023
  228MOL0     C30658  -0.653   3.602   6.767 -0.1836  0.0280 -0.0224
  228MOL0     C30659  -0.746   3.697   6.847  0.1733 -0.2465  0.0846
  228MOL0     C30660  -0.782   3.629   6.980  0.0182 -0.9206  0.3366
  228MOL0     C30661  -0.836   3.485   6.972  0.2438 -0.2442  0.7918
  228MOL0     N30662  -0.953   3.454   6.883 -0.2869 -0.3216 -0.4455
  228MOL0     C30663  -1.075   3.509   6.901  0.4314 -0.1689 -0.3574
  228MOL0     C30664  -1.150   3.460   6.803 -0.3549  0.3971  0.0585
  228MOL0     C30665  -1.294   3.490   6.780  0.2249  0.0304  0.6342
  228MOL0     C30666  -1.381   3.375   6.815  0.0049  0.3930  0.3451
  228MOL0     C30667  -1.531   3.416   6.796  0.2559  0.4296  0.8525
  228MOL0     C30668  -1.575   3.419   6.649  1.1655  0.7346 -1.1184
  228MOL0     O30669  -1.722   3.423   6.633  0.8060  0.2241  0.0039
  228MOL0     C30670  -1.771   3.491   6.521 -1.0991 -0.8791 -1.2689
  228MOL0     C30671  -1.913   3.482   6.504 -0.0770 -0.9473 -1.0729
  228MOL0     C30672  -1.981   3.532   6.401  0.1616  0.4840 -0.0548
  228MOL0     C30673  -2.127   3.508   6.390  0.0816  0.4978  0.1899
  228MOL0     C30674  -1.919   3.613   6.307 -0.4562 -0.0679  0.3654
  228MOL0     C30675  -1.987   3.684   6.206  0.0458 -0.3141  0.3918
  228MOL0     O30676  -1.920   3.692   6.083  0.3365  0.1485  0.5617
  228MOL0     C30677  -1.982   3.758   5.983 -0.3797 -0.2221 -0.0431
  228MOL0     C30678  -2.043   3.683   5.888 -0.3258  0.4022  0.2331
  228MOL0     C30679  -2.125   3.739   5.792  0.4177 -0.0457  0.7616
  228MOL0     C30680  -2.121   3.869   5.769 -0.1971 -0.1757  0.5544
  228MOL0     O30681  -2.164   3.934   5.658 -0.0622  1.0607 -0.0524
  228MOL0     C30682  -2.115   3.892   5.525 -0.3804  0.2863 -0.2380
  228MOL0     C30683  -2.172   3.970   5.404  0.0539  0.3977  0.1527
  228MOL0     C30684  -2.318   3.954   5.381  0.4713  0.0312 -0.2087
  228MOL0     C30685  -2.374   4.018   5.253 -0.2745  0.1252 -0.1395
  228MOL0     C30686  -2.367   4.170   5.267  0.7618 -1.3598  0.4038
  228MOL0     C30687  -2.443   4.225   5.141 -0.6581  0.4242  0.5612
  228MOL0     C30688  -2.596   4.195   5.145 -1.0587  1.0326  0.2078
  228MOL0     C30689  -2.686   4.291   5.065 -0.2492 -0.4089  0.3418
  228MOL0    Cl30690  -2.645   4.467   5.081 -0.2051 -0.3929 -0.4442
  228MOL0     C30691  -2.058   3.953   5.861 -0.4952  0.3034  0.1620
  228MOL0     C30692  -1.999   3.895   5.980  0.2487 -0.8754  0.7759
  228MOL0     O30693  -2.082   3.749   6.239  0.9551  0.1347  0.5734
  228MOL0     C30694  -1.778   3.630   6.324 -0.4679  0.6263  0.1801
  228MOL0     C30695  -1.700   3.571   6.423  0.1692  0.0976 -0.4683
  228MOL0     N30696  -1.069   3.366   6.740 -0.0198  0.5315 -1.1374
  228MOL0     N30697  -0.958   3.353   6.798  0.6652  0.7811 -0.1529
  228MOL0     C30698  -0.120   4.065   6.304  0.4319 -1.1120  0.1252
  228MOL0     C30699   0.002   4.134   6.270  0.6237  0.3516 -0.5074
  228MOL0     C30700   0.348   4.384   6.383  0.0159  0.0623  0.1777
  228MOL0     C30701   0.366   4.500   6.463 -0.0080 -0.7358 -0.6186
  228MOL0     C30702   0.475   4.588   6.444 -0.4213  0.8762  0.9638
  228MOL0     C30703   0.575   4.557   6.358 -0.6317 -0.9277 -0.3033
  228MOL0     O30704   0.672   4.656   6.344 -1.0446 -0.6978 -0.0336
  228MOL0     C30705   0.796   4.606   6.292  0.0925  0.2372  0.0637
  228MOL0     C30706   0.900   4.709   6.289 -0.0492 -0.5367  0.6809
  228MOL0     C30707   0.996   4.690   6.170  0.1597 -0.2065 -0.9224
  228MOL0     C30708   1.065   4.549   6.163 -0.8590  0.5528  0.2931
  228MOL0     C30709   1.166   4.559   6.054 -0.4417  0.6813  0.0349
  228MOL0     C30710   1.256   4.580   5.970 -0.5800  0.1029  0.6530
  228MOL0     C30711   0.568   4.435   6.288 -0.6811 -0.3123 -0.2416
  228MOL0     C30712   0.451   4.357   6.292  0.4755 -0.2582 -0.6724
  228MOL0     H30713   0.184   4.041   6.537 -0.4682  0.1819  0.0019
  228MOL0     H30714  -0.037   3.946   6.605 -1.4284 -1.1961  0.1862
  228MOL0     H30715  -0.202   3.817   6.605  0.0618  0.5758  1.1409
  228MOL0     H30716  -0.305   3.958   6.658 -3.6205 -1.1781  0.4224
  228MOL0     H30717  -0.488   3.873   6.508 -2.1868 -1.6312  0.6522
  228MOL0     H30718  -0.397   3.733   6.469 -2.9009  0.0420 -0.0067
  228MOL0     H30719  -0.407   3.691   6.735 -0.5130  0.5231  0.7154
  228MOL0     H30720  -0.496   3.839   6.742  1.5794  0.5290  0.2240
  228MOL0     H30721  -0.664   3.745   6.596 -0.3632  1.6589  1.7556
  228MOL0     H30722  -0.570   3.607   6.555 -0.3826 -1.8113  1.2733
  228MOL0     H30723  -0.713   3.512   6.748 -0.1673 -0.1365  0.7032
  228MOL0     H30724  -0.573   3.561   6.829 -0.8885  0.3667  1.1289
  228MOL0     H30725  -0.689   3.790   6.856  1.5355 -1.1334  1.1920
  228MOL0     H30726  -0.834   3.719   6.787  0.6020 -1.3412 -1.0013
  228MOL0     H30727  -0.688   3.619   7.035  0.0536 -0.8207  0.2934
  228MOL0     H30728  -0.858   3.682   7.038 -0.5594 -0.8948 -0.4294
  228MOL0     H30729  -0.864   3.458   7.074  0.8629 -0.8180  0.8168
  228MOL0     H30730  -0.759   3.414   6.940 -0.0779  0.3615 -1.4786
  228MOL0     H30731  -1.102   3.587   6.971 -2.3422 -1.6162  0.3208
  228MOL0     H30732  -1.328   3.586   6.820  0.1896  0.0417  0.5779
  228MOL0     H30733  -1.301   3.505   6.672  1.1632  0.1861  0.5941
  228MOL0     H30734  -1.365   3.357   6.921  2.1808  2.0630  0.3720
  228MOL0     H30735  -1.349   3.292   6.752  0.0956 -0.9446  2.0794
  228MOL0     H30736  -1.551   3.514   6.841  0.8957  2.2912 -2.5858
  228MOL0     H30737  -1.585   3.331   6.840  2.1881 -0.3153  1.9236
  228MOL0     H30738  -1.544   3.322   6.610  2.2361  0.8790 -0.6459
  228MOL0     H30739  -1.529   3.501   6.593  0.4107  3.3763  1.8379
  228MOL0     H30740  -1.970   3.418   6.571  0.0220 -0.6554 -0.7009
  228MOL0     H30741  -2.157   3.510   6.285  1.1740 -1.1521 -0.1933
  228MOL0     H30742  -2.150   3.406   6.421  1.5962 -1.0426 -3.2484
  228MOL0     H30743  -2.175   3.584   6.452  1.9934  0.4628  1.8043
  228MOL0     H30744  -2.036   3.575   5.894  1.5547  0.4973  0.4665
  228MOL0     H30745  -2.178   3.667   5.730 -0.4489 -0.3994  1.8677
  228MOL0     H30746  -2.007   3.908   5.523  0.5374 -3.8771  2.1855
  228MOL0     H30747  -2.139   3.787   5.505 -1.8867  0.7155 -0.7684
  228MOL0     H30748  -2.146   4.075   5.421  0.9525 -0.1942  2.8603
  228MOL0     H30749  -2.122   3.932   5.314 -1.5044 -3.4144  0.6932
  228MOL0     H30750  -2.381   3.991   5.462 -1.2584  0.0318 -1.5021
  228MOL0     H30751  -2.337   3.847   5.378  0.8035 -0.0750  0.9529
  228MOL0     H30752  -2.305   3.984   5.175 -1.5457  1.2933 -1.8531
  228MOL0     H30753  -2.476   3.982   5.236 -0.3403  0.2032  0.0813
  228MOL0     H30754  -2.267   4.211   5.284 -1.0182  3.2503  1.2124
  228MOL0     H30755  -2.427   4.198   5.354  1.2756  2.1223 -0.2013
  228MOL0     H30756  -2.422   4.329   5.113  0.3484 -0.2814 -1.5632
  228MOL0     H30757  -2.412   4.179   5.047  0.5194  0.1163  1.0737
  228MOL0     H30758  -2.626   4.199   5.250 -1.1108  1.3581  0.1831
  228MOL0     H30759  -2.600   4.095   5.101  2.4849  0.5550  0.6925
  228MOL0     H30760  -2.790   4.278   5.097  0.0151  0.8262  1.8393
  228MOL0     H30761  -2.684   4.263   4.959 -1.8156 -0.4903  0.3047
  228MOL0     H30762  -2.048   4.058   5.834 -1.6126  0.2071 -0.7119
  228MOL0     H30763  -1.959   3.944   6.068 -1.4074 -0.3729  1.2858
  228MOL0     H30764  -1.723   3.683   6.246 -3.1790  0.3578 -2.0862
  228MOL0     H30765  -1.593   3.588   6.425 -0.1221  2.4154 -1.6742
  228MOL0     H30766  -0.200   4.064   6.230  1.5921  0.8214 -1.2713
  228MOL0     H30767   0.035   4.191   6.184  2.4559  0.3390  0.1444
  228MOL0     H30768   0.291   4.535   6.532  1.0948  3.7668 -1.3294
  228MOL0     H30769   0.487   4.676   6.507 -2.2603  1.8393  0.0514
  228MOL0     H30770   0.840   4.526   6.353  1.9342 -0.1344 -1.6470
  228MOL0     H30771   0.779   4.569   6.191  0.9124  0.5057 -0.1764
  228MOL0     H30772   0.960   4.699   6.380  0.2711 -0.3099  0.4960
  228MOL0     H30773   0.874   4.815   6.289  1.0112 -0.2274 -1.8950
  228MOL0     H30774   1.077   4.762   6.168  1.8557 -1.6533  3.5803
  228MOL0     H30775   0.947   4.704   6.073  2.9589 -1.9500 -2.7472
  228MOL0     H30776   1.001   4.463   6.141  1.3782 -0.7203 -1.7034
  228MOL0     H30777   1.121   4.528   6.255  0.0614 -2.7691 -0.8916
  228MOL0     H30778   1.322   4.605   5.889  0.2298  2.3126  1.9102
  228MOL0     H30779   0.645   4.417   6.214 -0.8848  0.4971 -0.6589
  228MOL0     H30780   0.431   4.279   6.219 -1.4125 -0.6838  0.2316
  229MOL0     O30781   5.566   2.612   2.260 -0.4316 -0.4166 -0.3839
  229MOL0     C30782   5.529   2.668   2.368 -0.1436  0.2657  0.0356
  229MOL0     O30783   5.404   2.676   2.417  0.7349 -0.4178 -0.0052
  229MOL0     C30784   5.294   2.652   2.325 -0.1754 -0.3365 -0.1303
  229MOL0     C30785   5.254   2.523   2.271 -0.7984 -0.6722 -0.2082
  229MOL0     C30786   5.140   2.506   2.195  0.6330  0.5451 -0.2133
  229MOL0     C30787   5.056   2.614   2.180 -0.0783 -0.2972  0.5083
  229MOL0     O30788   4.945   2.613   2.098 -0.2675 -0.8231 -0.5158
  229MOL0     C30789   4.918   2.493   2.028  0.0456  1.0576  0.1111
  229MOL0     C30790   4.809   2.529   1.920 -0.3155 -0.6038 -1.0431
  229MOL0     C30791   4.687   2.599   1.986 -0.5778  0.2319  0.7732
  229MOL0     C30792   4.593   2.664   1.891 -0.0638 -0.5965 -0.0226
  229MOL0     C30793   4.645   2.806   1.860 -0.4606  0.0669 -0.2346
  229MOL0     C30794   4.551   2.892   1.788  0.1824 -0.2667 -0.6597
  229MOL0     C30795   4.603   3.017   1.721 -1.0312 -0.1201 -0.2245
  229MOL0     C30796   4.487   3.073   1.640  0.5921  0.7068  0.4626
  229MOL0     N30797   4.463   3.024   1.501  0.5401 -0.8464  0.1328
  229MOL0     C30798   4.420   2.897   1.465 -0.3737 -0.3216  0.4913
  229MOL0     C30799   4.433   2.889   1.332  0.7855  0.2677  0.3796
  229MOL0     C30800   4.418   2.772   1.245  0.2676  0.2478  0.2334
  229MOL0     C30801   4.280   2.752   1.172 -0.4135  0.1659  0.2126
  229MOL0     C30802   4.156   2.780   1.259  0.2705  0.4274  0.2959
  229MOL0     C30803   4.019   2.762   1.188 -0.3630  0.1873  0.0389
  229MOL0     O30804   3.917   2.733   1.283 -0.1371  0.1383 -0.3807
  229MOL0     C30805   3.786   2.692   1.235  0.0294 -0.6027  0.1249
  229MOL0     C30806   3.776   2.642   1.108 -1.1216  0.1648  1.0246
  229MOL0     C30807   3.653   2.578   1.066  0.7531  0.0638  0.0309
  229MOL0     C30808   3.664   2.511   0.931 -0.7805  0.2572  0.0158
  229MOL0     C30809   3.537   2.591   1.153 -0.4890 -0.1854  0.4230
  229MOL0     C30810   3.409   2.533   1.131  0.0879 -0.0863  0.6056
  229MOL0     O30811   3.309   2.556   1.229  0.1967 -0.1804 -0.1675
  229MOL0     C30812   3.188   2.493   1.229 -0.2598 -0.3101  0.3794
  229MOL0     C30813   3.115   2.440   1.116 -0.7832 -0.6283 -0.1903
  229MOL0     C30814   2.999   2.374   1.146 -0.0980 -0.1493 -0.0520
  229MOL0     C30815   2.935   2.372   1.274  0.0162  0.6952  0.1065
  229MOL0     O30816   2.823   2.293   1.280 -0.3946  1.2711  0.7042
  229MOL0     C30817   2.703   2.354   1.299  1.4783  0.3609 -0.1433
  229MOL0     C30818   2.605   2.251   1.345 -0.4620  0.4997 -0.4070
  229MOL0     C30819   2.546   2.155   1.239 -1.0010  0.1912 -0.6082
  229MOL0     C30820   2.472   2.044   1.323 -0.3375 -0.3440  0.4602
  229MOL0     C30821   2.392   1.967   1.215 -0.4018  1.2294  0.3059
  229MOL0     C30822   2.383   1.809   1.243  0.4560 -0.8242 -0.6156
  229MOL0     C30823   2.330   1.766   1.383 -0.4116  0.7797 -0.5916
  229MOL0     C30824   2.194   1.814   1.428 -0.2034 -0.8427 -0.3831
  229MOL0    Cl30825   2.075   1.748   1.326  0.1290 -0.8968  0.3113
  229MOL0     C30826   3.011   2.430   1.378 -0.9879 -0.6274  0.1421
  229MOL0     C30827   3.139   2.489   1.364  0.1091  0.4312  0.5185
  229MOL0     O30828   3.403   2.461   1.032  0.0929 -0.6324 -0.3570
  229MOL0     C30829   3.545   2.677   1.270  0.0736  0.3362  0.1305
  229MOL0     C30830   3.672   2.708   1.313 -0.1584 -1.0795  0.4824
  229MOL0     N30831   4.474   3.010   1.288  0.2331 -0.3080 -0.3086
  229MOL0     N30832   4.497   3.088   1.387 -0.5148 -0.1268  0.4865
  229MOL0     C30833   5.079   2.735   2.252 -0.6801 -0.0054  1.0864
  229MOL0     C30834   5.197   2.754   2.326 -0.3483 -0.0638 -0.0985
  229MOL0     C30835   5.645   2.725   2.448  0.9309  0.2998 -0.0881
  229MOL0     C30836   5.628   2.793   2.575  0.3022 -0.1999  0.3951
  229MOL0     C30837   5.739   2.844   2.642  0.2072  0.1673  0.1645
  229MOL0     C30838   5.866   2.842   2.580  0.4326  0.1224 -0.6824
  229MOL0     O30839   5.984   2.878   2.633 -0.3821 -0.2878  0.2203
  229MOL0     C30840   5.977   2.946   2.761 -0.4711 -0.7936  0.2584
  229MOL0     C30841   6.101   3.036   2.772 -0.7939  0.4239  0.6096
  229MOL0     C30842   6.234   2.961   2.790 -0.3984 -0.3460  0.0769
  229MOL0     C30843   6.345   3.042   2.854  0.3983  0.0161  0.7308
  229MOL0     C30844   6.454   2.949   2.871 -0.1323  1.1324 -0.1698
  229MOL0     C30845   6.557   2.885   2.894 -0.2926  0.3204  0.2005
  229MOL0     C30846   5.877   2.769   2.461 -0.6910  0.2263 -0.5838
  229MOL0     C30847   5.774   2.716   2.396  0.6100 -0.1703  0.4711
  229MOL0     H30848   5.334   2.450   2.272  1.1647  1.2450 -3.1923
  229MOL0     H30849   5.127   2.415   2.137  1.6120  1.7396 -2.4318
  229MOL0     H30850   5.007   2.444   1.986  0.8286 -0.5217  3.2912
  229MOL0     H30851   4.869   2.419   2.092  0.6138 -0.2996 -0.9704
  229MOL0     H30852   4.865   2.600   1.860  0.6656 -0.9500 -0.5648
  229MOL0     H30853   4.777   2.445   1.858  0.0775 -0.0170 -2.0677
  229MOL0     H30854   4.632   2.525   2.046 -0.2839  0.1812  0.9858
  229MOL0     H30855   4.724   2.671   2.060  1.1119  1.1013 -0.8443
  229MOL0     H30856   4.577   2.593   1.809 -2.7937  0.8806 -0.8941
  229MOL0     H30857   4.498   2.672   1.944  0.3971  0.2979  0.7013
  229MOL0     H30858   4.686   2.858   1.947  0.0851  2.1512 -1.6787
  229MOL0     H30859   4.742   2.785   1.814 -0.8920 -1.7491 -0.4255
  229MOL0     H30860   4.518   2.829   1.704  1.0607  2.2095 -3.0060
  229MOL0     H30861   4.462   2.919   1.845 -0.7154  1.8848 -2.9281
  229MOL0     H30862   4.636   3.077   1.806 -2.1535 -0.8928  0.7912
  229MOL0     H30863   4.683   2.988   1.652 -0.5223  0.9597 -0.1136
  229MOL0     H30864   4.485   3.183   1.647 -2.3394  0.6750  1.4450
  229MOL0     H30865   4.395   3.060   1.697 -0.0847  2.4093 -0.1567
  229MOL0     H30866   4.384   2.825   1.538  1.1098 -0.6336  0.9417
  229MOL0     H30867   4.494   2.780   1.168 -0.3058 -0.8858 -0.4825
  229MOL0     H30868   4.424   2.677   1.300 -2.3214 -0.8336 -1.1419
  229MOL0     H30869   4.267   2.651   1.132 -0.2649 -0.9134  2.7169
  229MOL0     H30870   4.263   2.826   1.093 -2.5958  1.2786  1.6346
  229MOL0     H30871   4.162   2.877   1.310 -0.3736 -0.8338  2.9904
  229MOL0     H30872   4.161   2.705   1.339 -0.9501  2.2668  2.2028
  229MOL0     H30873   4.033   2.683   1.114  1.6103 -1.4045  1.9648
  229MOL0     H30874   3.991   2.856   1.139 -2.9947  1.0294  2.8559
  229MOL0     H30875   3.846   2.643   1.025 -2.4599 -0.0951 -0.1422
  229MOL0     H30876   3.629   2.407   0.937 -2.2462  0.7398  0.1872
  229MOL0     H30877   3.598   2.567   0.865  0.2771  0.7428 -0.6603
  229MOL0     H30878   3.766   2.502   0.893 -0.4515 -0.8872  1.0930
  229MOL0     H30879   3.150   2.450   1.014  0.1475 -5.6565 -0.6467
  229MOL0     H30880   2.944   2.336   1.061 -0.2918  0.0227 -0.0059
  229MOL0     H30881   2.710   2.442   1.363 -2.3635  0.4140  0.4097
  229MOL0     H30882   2.663   2.396   1.207 -2.6856 -1.2054  0.7299
  229MOL0     H30883   2.650   2.193   1.426 -2.1928 -1.2483 -0.6289
  229MOL0     H30884   2.519   2.308   1.379  0.4422  0.6815  1.7153
  229MOL0     H30885   2.631   2.113   1.184  1.0826  2.6056  0.5784
  229MOL0     H30886   2.486   2.198   1.159  0.5240 -0.4440 -2.1579
  229MOL0     H30887   2.546   1.974   1.364 -0.9114 -2.3888 -1.8198
  229MOL0     H30888   2.404   2.079   1.402 -1.7232  3.2771 -2.0405
  229MOL0     H30889   2.449   1.973   1.122 -1.4985  0.1663 -0.4647
  229MOL0     H30890   2.293   2.012   1.199 -2.9283 -3.4008  1.0154
  229MOL0     H30891   2.310   1.758   1.180 -0.2880  0.5853 -0.9516
  229MOL0     H30892   2.483   1.768   1.232  0.4913 -0.9545  0.1402
  229MOL0     H30893   2.400   1.792   1.463  0.6992  0.1632 -1.3358
  229MOL0     H30894   2.325   1.657   1.368 -1.9281  1.2270 -4.1654
  229MOL0     H30895   2.198   1.920   1.456  0.6192 -1.0500  0.3249
  229MOL0     H30896   2.163   1.773   1.525 -0.3072 -2.5279 -1.0882
  229MOL0     H30897   2.976   2.425   1.480 -2.4785  0.5388 -0.2750
  229MOL0     H30898   3.199   2.523   1.448 -1.3488  2.2913  0.8666
  229MOL0     H30899   3.454   2.695   1.326 -1.1532 -1.3294 -1.2426
  229MOL0     H30900   3.687   2.746   1.414 -0.4883 -0.9462  0.4855
  229MOL0     H30901   5.000   2.808   2.239 -0.1313  0.4607  0.2573
  229MOL0     H30902   5.211   2.847   2.380  0.6735  0.0512 -0.5342
  229MOL0     H30903   5.525   2.803   2.609  0.0727 -1.0736 -0.0046
  229MOL0     H30904   5.731   2.876   2.746 -1.0587 -0.8704  0.4169
  229MOL0     H30905   5.890   3.013   2.760 -2.6735 -3.2619 -3.9805
  229MOL0     H30906   5.955   2.876   2.842 -1.3734 -0.5207  0.2683
  229MOL0     H30907   6.079   3.104   2.855 -1.9481  0.3226  0.4054
  229MOL0     H30908   6.114   3.099   2.684 -1.9047 -0.6720 -0.3970
  229MOL0     H30909   6.269   2.931   2.691 -2.4731  1.2324 -1.2169
  229MOL0     H30910   6.220   2.869   2.847  2.4018  0.2154  1.8686
  229MOL0     H30911   6.308   3.065   2.954  0.5214 -1.4954  1.1453
  229MOL0     H30912   6.360   3.133   2.796  0.1141 -1.4398 -1.8078
  229MOL0     H30913   6.656   2.844   2.899 -1.2244 -2.4214 -1.4366
  229MOL0     H30914   5.973   2.764   2.409  0.0106  0.2488  0.6757
  229MOL0     H30915   5.787   2.671   2.298 -1.1401  1.0937 -0.3910
  230MOL0     O30916   4.456   1.845   3.962 -0.5811  0.0805  0.4009
  230MOL0     C30917   4.504   1.789   3.860 -0.2492 -0.2832 -0.3717
  230MOL0     O30918   4.443   1.701   3.774 -0.3581  0.2594 -0.0425
  230MOL0     C30919   4.311   1.669   3.784  0.7770 -0.4622  0.5184
  230MOL0     C30920   4.265   1.549   3.733 -0.7585  0.1157 -0.4130
  230MOL0     C30921   4.126   1.515   3.730 -0.3728 -0.4283  0.0225
  230MOL0     C30922   4.032   1.597   3.779 -0.2789  0.4251 -0.2523
  230MOL0     O30923   3.905   1.554   3.784  0.1324 -0.4281 -0.2660
  230MOL0     C30924   3.810   1.624   3.867 -0.3810  0.0907 -0.5505
  230MOL0     C30925   3.689   1.533   3.880  0.7770 -0.2944  0.1880
  230MOL0     C30926   3.557   1.598   3.924 -0.6365  0.4220 -0.2184
  230MOL0     C30927   3.504   1.702   3.821 -0.0652 -0.2534 -0.3272
  230MOL0     C30928   3.374   1.778   3.862  0.2932  0.5864 -0.0111
  230MOL0     C30929   3.254   1.677   3.846 -0.8289 -0.6224 -0.5697
  230MOL0     C30930   3.126   1.758   3.888  0.4029 -0.1906 -0.5953
  230MOL0     C30931   2.994   1.678   3.870  0.5836  0.1392 -0.1121
  230MOL0     N30932   2.880   1.770   3.890 -0.0118  0.2361  0.5910
  230MOL0     C30933   2.881   1.879   3.978  0.0458 -0.2743  0.1487
  230MOL0     C30934   2.761   1.932   3.973 -0.4181 -0.2491  0.2036
  230MOL0     C30935   2.716   2.051   4.050  0.0024  0.0994  0.3765
  230MOL0     C30936   2.565   2.075   4.008  0.1679 -0.3278 -0.5290
  230MOL0     C30937   2.505   2.212   4.058  0.4274  0.5313 -0.3137
  230MOL0     C30938   2.347   2.204   4.031  0.2082 -0.5962  0.7762
  230MOL0     O30939   2.294   2.331   3.987  0.7719  0.0514  0.0422
  230MOL0     C30940   2.162   2.365   3.957  1.1866  0.3278  0.3662
  230MOL0     C30941   2.135   2.489   3.903  0.1702 -0.4199 -0.6215
  230MOL0     C30942   2.003   2.515   3.873 -1.1973 -0.4793  0.2859
  230MOL0     C30943   1.981   2.648   3.811  0.2677 -0.0453  0.4131
  230MOL0     C30944   1.894   2.427   3.891 -0.2579  0.7189 -0.1426
  230MOL0     C30945   1.746   2.458   3.888 -0.3873  0.7430  0.6524
  230MOL0     O30946   1.708   2.591   3.867  0.6113  0.3323  0.0415
  230MOL0     C30947   1.578   2.623   3.871 -0.4809 -0.7441  0.0727
  230MOL0     C30948   1.551   2.738   3.943  0.0996  0.1768  0.5624
  230MOL0     C30949   1.416   2.774   3.972 -0.4782  0.0702  0.1890
  230MOL0     C30950   1.308   2.706   3.916 -0.5328 -0.1955 -0.0502
  230MOL0     O30951   1.189   2.732   3.984  0.0042  0.1601  0.6145
  230MOL0     C30952   1.068   2.703   3.909 -0.7545  0.5332 -0.3212
  230MOL0     C30953   0.951   2.683   4.007  0.5528  0.1058 -0.3169
  230MOL0     C30954   0.834   2.658   3.924  0.3264 -0.3215 -0.0902
  230MOL0     C30955   0.705   2.654   4.000  0.3090  0.5407 -0.0042
  230MOL0     C30956   0.594   2.660   3.888 -0.9361 -0.8934 -0.7318
  230MOL0     C30957   0.456   2.632   3.952  0.1934  0.1433  0.7763
  230MOL0     C30958   0.353   2.596   3.847 -0.0405  0.6949  1.7650
  230MOL0     C30959   0.227   2.541   3.910 -0.2225  0.2331 -0.2019
  230MOL0    Cl30960   0.135   2.657   4.026 -0.6048 -0.0533  0.0198
  230MOL0     C30961   1.336   2.586   3.836  1.0479  0.2799 -0.1512
  230MOL0     C30962   1.471   2.545   3.816  0.0285 -0.7168  0.1772
  230MOL0     O30963   1.675   2.359   3.896  1.1593 -0.0621  0.5232
  230MOL0     C30964   1.933   2.299   3.933 -0.3716 -0.3375  0.6786
  230MOL0     C30965   2.061   2.274   3.973 -0.5886  0.6581 -0.1622
  230MOL0     N30966   2.685   1.852   3.886  0.2154 -0.1351 -0.3654
  230MOL0     N30967   2.761   1.764   3.833 -0.1388  0.5023  0.0252
  230MOL0     C30968   4.073   1.719   3.836 -0.7948 -1.7528  0.5558
  230MOL0     C30969   4.207   1.761   3.831 -0.0103 -0.3289 -0.2719
  230MOL0     C30970   4.651   1.814   3.833  0.4804  0.2822 -0.5045
  230MOL0     C30971   4.719   1.899   3.920 -0.2806 -0.5391  0.2118
  230MOL0     C30972   4.860   1.919   3.887 -0.0851  0.1292 -0.4134
  230MOL0     C30973   4.923   1.864   3.773  0.5524 -0.5202  0.2745
  230MOL0     O30974   5.052   1.879   3.736 -0.8379  0.4516 -0.0398
  230MOL0     C30975   5.154   1.941   3.821 -0.0716  0.2637 -0.5985
  230MOL0     C30976   5.279   1.928   3.744  0.0446  0.1892  0.1899
  230MOL0     C30977   5.405   2.000   3.792  0.4047  0.3712  0.3677
  230MOL0     C30978   5.395   2.155   3.778 -0.5207 -0.2260  0.2195
  230MOL0     C30979   5.498   2.214   3.858  0.1102 -0.6180  0.4131
  230MOL0     C30980   5.601   2.263   3.897 -1.0793  0.2695  0.0353
  230MOL0     C30981   4.851   1.782   3.696 -0.2989 -0.9466  0.3934
  230MOL0     C30982   4.715   1.753   3.722  0.0268  0.1979 -0.8319
  230MOL0     H30983   4.336   1.476   3.696 -2.6212 -1.5123 -0.9372
  230MOL0     H30984   4.086   1.431   3.675 -2.1780  0.2262  0.2672
  230MOL0     H30985   3.849   1.653   3.965  0.3887 -1.9731 -0.1761
  230MOL0     H30986   3.786   1.716   3.815  0.5043  0.0780 -0.9963
  230MOL0     H30987   3.677   1.485   3.782 -2.0327  1.2346 -0.3245
  230MOL0     H30988   3.698   1.452   3.953  0.0562  0.7590  1.4870
  230MOL0     H30989   3.486   1.522   3.958 -0.2448  1.4447  3.3380
  230MOL0     H30990   3.573   1.662   4.011 -3.3251  0.8703  0.0387
  230MOL0     H30991   3.582   1.776   3.800 -1.5830  0.9913 -1.7817
  230MOL0     H30992   3.479   1.655   3.726  0.1487 -0.8105 -0.1120
  230MOL0     H30993   3.384   1.797   3.969 -0.7123 -0.1360  0.2261
  230MOL0     H30994   3.360   1.871   3.807 -1.1263  1.9981  2.5531
  230MOL0     H30995   3.246   1.632   3.746  3.8973  0.1060 -1.5197
  230MOL0     H30996   3.274   1.595   3.915  2.8292  2.0497  1.9429
  230MOL0     H30997   3.142   1.786   3.992  0.0422 -2.6730  0.1837
  230MOL0     H30998   3.112   1.847   3.826  0.6161 -0.8430 -1.6043
  230MOL0     H30999   2.992   1.591   3.936 -2.0548  1.4884  1.7486
  230MOL0     H31000   2.988   1.638   3.768  1.7564  1.1160 -0.5801
  230MOL0     H31001   2.957   1.895   4.055 -1.2589 -1.1237  1.6718
  230MOL0     H31002   2.723   2.038   4.158 -4.0969  1.8760  1.0506
  230MOL0     H31003   2.773   2.141   4.028  0.2494 -0.4018 -1.2243
  230MOL0     H31004   2.512   1.983   4.036  1.1689 -1.1541 -1.3042
  230MOL0     H31005   2.553   2.085   3.900 -3.2623 -1.0779 -0.3547
  230MOL0     H31006   2.553   2.301   4.016 -0.2962  1.9451  1.7213
  230MOL0     H31007   2.529   2.225   4.164  2.1013  4.6653 -1.0146
  230MOL0     H31008   2.289   2.165   4.115 -1.0868 -2.9662 -1.0849
  230MOL0     H31009   2.336   2.144   3.940  3.1172  3.7221 -2.8477
  230MOL0     H31010   2.217   2.556   3.879  0.0271  0.2993  0.8023
  230MOL0     H31011   1.936   2.626   3.714  0.3381 -2.6356  0.8925
  230MOL0     H31012   1.930   2.711   3.885 -1.0460 -0.4170 -0.1566
  230MOL0     H31013   2.073   2.706   3.801  1.6011 -2.2328 -0.6891
  230MOL0     H31014   1.622   2.804   3.993 -2.3155  3.2717  0.2307
  230MOL0     H31015   1.399   2.855   4.042  2.4160  1.2139 -0.2781
  230MOL0     H31016   1.048   2.790   3.847 -2.9201  0.9297  0.8355
  230MOL0     H31017   1.081   2.609   3.853  3.3814  0.2752  0.7451
  230MOL0     H31018   0.974   2.604   4.079  1.7504  0.0261 -0.7643
  230MOL0     H31019   0.945   2.775   4.066 -2.6131  0.5114 -1.1179
  230MOL0     H31020   0.849   2.569   3.863 -1.0934 -0.9123  0.3799
  230MOL0     H31021   0.832   2.739   3.850 -0.3780 -0.0008  0.2729
  230MOL0     H31022   0.707   2.565   4.065 -1.0768  1.2945  1.1153
  230MOL0     H31023   0.696   2.732   4.076 -0.6666  0.1289  0.3269
  230MOL0     H31024   0.611   2.578   3.817  0.0561 -2.2325  0.9806
  230MOL0     H31025   0.595   2.755   3.834  1.5179 -0.4656 -0.0566
  230MOL0     H31026   0.484   2.556   4.025  1.0552  0.1589  0.4766
  230MOL0     H31027   0.426   2.727   3.996  0.3508  1.3245 -1.4992
  230MOL0     H31028   0.383   2.512   3.784 -1.0922  1.1711  0.5972
  230MOL0     H31029   0.334   2.686   3.789 -1.3125 -0.0034  1.0458
  230MOL0     H31030   0.251   2.444   3.954 -1.3473 -1.1857 -2.5458
  230MOL0     H31031   0.161   2.513   3.827 -0.5725 -3.3462  1.1379
  230MOL0     H31032   1.252   2.522   3.808  0.5285  0.0886  1.6820
  230MOL0     H31033   1.495   2.453   3.763 -1.0284  0.2243 -2.0940
  230MOL0     H31034   1.861   2.219   3.927 -1.9280  1.0767 -0.6828
  230MOL0     H31035   2.095   2.176   4.006  1.1357  0.4856 -2.2166
  230MOL0     H31036   4.000   1.793   3.868  1.2302  0.3708  0.4755
  230MOL0     H31037   4.236   1.861   3.860 -2.1138  0.3125 -0.1781
  230MOL0     H31038   4.666   1.930   4.009 -0.9814  0.8200 -0.6419
  230MOL0     H31039   4.911   1.975   3.965 -2.5651  0.5534  1.0123
  230MOL0     H31040   5.135   2.039   3.865  1.2529 -0.7836  2.5800
  230MOL0     H31041   5.177   1.874   3.904 -0.6004 -2.0828 -2.2407
  230MOL0     H31042   5.262   1.972   3.645 -0.9698 -0.0665  0.2460
  230MOL0     H31043   5.312   1.825   3.725  1.8239  1.1167 -2.4838
  230MOL0     H31044   5.498   1.969   3.746  1.7692  2.2579  1.6675
  230MOL0     H31045   5.422   1.983   3.899 -0.0530  0.3045  0.4321
  230MOL0     H31046   5.299   2.193   3.813  1.2752  1.6437  3.7635
  230MOL0     H31047   5.415   2.175   3.673  2.3427  3.4588  1.2108
  230MOL0     H31048   5.697   2.301   3.926 -2.2142  2.8935  0.6446
  230MOL0     H31049   4.904   1.728   3.619 -3.1539  0.0343 -2.4691
  230MOL0     H31050   4.645   1.709   3.652 -0.1251 -0.0328 -0.5391
  231MOL0     O31051   3.938   1.894   3.250 -0.3588 -0.7263  0.1592
  231MOL0     C31052   4.027   1.851   3.182 -0.6218 -0.9182  0.4414
  231MOL0     O31053   4.019   1.836   3.041 -0.7439  0.1612  0.0758
  231MOL0     C31054   3.900   1.815   2.983 -0.4840 -0.2092  0.6563
  231MOL0     C31055   3.781   1.768   3.051 -0.0688 -0.0858 -0.4375
  231MOL0     C31056   3.653   1.770   2.997  0.6288  0.2291 -0.0930
  231MOL0     C31057   3.633   1.798   2.858  0.1839  0.4972  0.2547
  231MOL0     O31058   3.517   1.800   2.780 -0.8505  0.2931  0.1031
  231MOL0     C31059   3.410   1.721   2.831  0.0406 -0.1923 -0.3939
  231MOL0     C31060   3.297   1.751   2.730 -0.3778  1.1313  0.7491
  231MOL0     C31061   3.178   1.668   2.771 -0.1519 -0.6705  0.9240
  231MOL0     C31062   3.102   1.729   2.891 -0.1947 -0.2723  0.1346
  231MOL0     C31063   2.977   1.653   2.904 -0.9776 -0.0844  0.1985
  231MOL0     C31064   2.902   1.702   3.025  0.8487 -0.0203 -0.2474
  231MOL0     C31065   2.781   1.609   3.040 -0.2415  0.1197  0.0347
  231MOL0     C31066   2.702   1.637   3.167 -0.3939  0.3447  0.4109
  231MOL0     N31067   2.610   1.517   3.179 -1.3004 -0.1097  0.1147
  231MOL0     C31068   2.589   1.457   3.302 -0.0734  1.0746  0.0660
  231MOL0     C31069   2.479   1.379   3.280  0.1373  0.4468 -0.6270
  231MOL0     C31070   2.419   1.297   3.387 -1.3882 -0.0585 -0.8305
  231MOL0     C31071   2.290   1.230   3.345  0.3814  0.6198 -0.3035
  231MOL0     C31072   2.227   1.139   3.461 -1.3805  0.8496  0.1180
  231MOL0     C31073   2.090   1.103   3.427 -0.1591 -0.8228  0.1388
  231MOL0     O31074   2.090   1.007   3.321 -0.4095  0.5491  0.1090
  231MOL0     C31075   1.965   0.971   3.261  0.3547  0.2725 -1.3167
  231MOL0     C31076   1.962   0.854   3.180  0.9104 -0.3296 -0.3135
  231MOL0     C31077   1.845   0.810   3.124 -0.2337 -0.6465 -0.2391
  231MOL0     C31078   1.860   0.690   3.029 -0.9614 -0.3851  0.3701
  231MOL0     C31079   1.726   0.883   3.151 -0.1348 -0.4414 -0.3150
  231MOL0     C31080   1.606   0.840   3.086 -1.2413 -0.0675  0.1179
  231MOL0     O31081   1.534   0.948   3.038 -0.2789  0.3602 -0.0437
  231MOL0     C31082   1.409   0.932   2.980 -0.8475 -0.2910  0.2604
  231MOL0     C31083   1.320   0.827   3.022 -0.1285 -0.5937 -0.5451
  231MOL0     C31084   1.190   0.826   2.965  0.0850 -0.7661 -0.1940
  231MOL0     C31085   1.148   0.923   2.876 -0.0404  0.6255  1.1045
  231MOL0     O31086   1.028   0.938   2.818 -0.4717  0.4185  0.4332
  231MOL0     C31087   0.912   0.862   2.860  0.4733  0.3409 -0.6668
  231MOL0     C31088   0.798   0.854   2.756 -0.7354 -0.1499  0.3483
  231MOL0     C31089   0.731   0.981   2.723  0.6923 -0.5246 -0.1880
  231MOL0     C31090   0.609   0.978   2.631  0.0565  0.1374  0.4164
  231MOL0     C31091   0.509   0.880   2.682 -0.2514 -1.1872  0.2210
  231MOL0     C31092   0.366   0.915   2.616  1.0361  0.4076 -0.8285
  231MOL0     C31093   0.356   0.885   2.462 -0.5025  0.7502 -0.4941
  231MOL0     C31094   0.238   0.965   2.408  0.8975 -0.5138  0.8342
  231MOL0    Cl31095   0.076   0.888   2.463  0.1960 -0.1081 -0.6663
  231MOL0     C31096   1.235   1.011   2.827 -0.2259 -0.5520  0.1195
  231MOL0     C31097   1.365   1.021   2.884 -0.4411 -0.9557  0.2768
  231MOL0     O31098   1.583   0.719   3.081  0.5767  0.4952  0.2759
  231MOL0     C31099   1.728   0.996   3.239  0.7699  0.6569  0.3241
  231MOL0     C31100   1.844   1.041   3.294 -0.1355 -0.7747  0.2229
  231MOL0     N31101   2.435   1.402   3.151 -0.1077  0.5288 -0.2587
  231MOL0     N31102   2.515   1.480   3.089 -0.5248  0.0080  0.6718
  231MOL0     C31103   3.753   1.843   2.794  0.2818 -0.1668 -0.7978
  231MOL0     C31104   3.877   1.865   2.859  0.9107  1.1571  0.3412
  231MOL0     C31105   4.152   1.872   3.246 -0.9474  0.3419  0.2417
  231MOL0     C31106   4.180   1.866   3.382  0.1936 -0.2194  0.2115
  231MOL0     C31107   4.311   1.879   3.432  0.3989  0.3535 -0.9211
  231MOL0     C31108   4.422   1.898   3.339  0.0999 -0.2175 -0.5659
  231MOL0     O31109   4.552   1.909   3.386  0.7024 -0.1498  0.2691
  231MOL0     C31110   4.624   2.029   3.350  0.7747  0.7400  0.0560
  231MOL0     C31111   4.771   1.983   3.368  0.0293 -0.2794 -0.3544
  231MOL0     C31112   4.876   2.080   3.331 -0.0469 -0.7125  0.1271
  231MOL0     C31113   4.998   2.083   3.433 -0.5882 -0.2241  0.6076
  231MOL0     C31114   4.967   2.138   3.559  0.0441  0.5022 -1.3651
  231MOL0     C31115   4.945   2.209   3.657  0.0333  0.1904  0.4232
  231MOL0     C31116   4.387   1.896   3.209 -0.8504  0.0175  0.3904
  231MOL0     C31117   4.258   1.898   3.158  0.3206 -0.2006 -0.0576
  231MOL0     H31118   3.786   1.730   3.152 -0.9104 -0.9056 -0.6946
  231MOL0     H31119   3.575   1.722   3.055  2.6298 -1.4206  1.3814
  231MOL0     H31120   3.438   1.616   2.834  0.2750 -0.1853 -1.6693
  231MOL0     H31121   3.389   1.744   2.936 -1.3620  0.8033 -0.8531
  231MOL0     H31122   3.279   1.859   2.723 -2.0046  0.8944  0.8344
  231MOL0     H31123   3.326   1.731   2.627 -1.0646  1.3935  0.4975
  231MOL0     H31124   3.108   1.662   2.687  0.3574 -0.2316  0.4650
  231MOL0     H31125   3.200   1.561   2.781 -3.2377 -1.5118 -0.2122
  231MOL0     H31126   3.163   1.715   2.981  1.4347 -3.1917 -1.2531
  231MOL0     H31127   3.081   1.829   2.853 -0.2295 -1.4712 -3.4556
  231MOL0     H31128   2.916   1.661   2.813 -0.5790 -0.0273 -0.0667
  231MOL0     H31129   3.007   1.550   2.927  2.3120  0.4631 -1.0799
  231MOL0     H31130   2.961   1.709   3.117  1.4137  0.2403 -0.6187
  231MOL0     H31131   2.861   1.802   3.010 -0.0340 -0.4356 -0.6721
  231MOL0     H31132   2.721   1.632   2.951  0.7097 -0.0641 -0.6697
  231MOL0     H31133   2.804   1.502   3.036 -1.6168 -0.2638  1.4288
  231MOL0     H31134   2.649   1.733   3.160  1.4269  1.3047 -0.7944
  231MOL0     H31135   2.776   1.651   3.246 -0.8544  1.3984  0.6811
  231MOL0     H31136   2.636   1.482   3.397 -0.9428 -1.3303  1.2202
  231MOL0     H31137   2.499   1.227   3.412 -0.1759  0.4210 -3.0592
  231MOL0     H31138   2.402   1.375   3.462  3.1993  1.1427 -0.7408
  231MOL0     H31139   2.306   1.170   3.255  0.4525  0.0952  0.0510
  231MOL0     H31140   2.232   1.319   3.319  1.2151  1.4340  0.5490
  231MOL0     H31141   2.228   1.191   3.557  0.8102  0.1022  0.5656
  231MOL0     H31142   2.290   1.050   3.459  2.0384  3.0882 -1.8633
  231MOL0     H31143   2.040   1.195   3.396  0.9269  1.7505  5.0608
  231MOL0     H31144   2.031   1.059   3.508 -0.9156 -1.2406 -0.6180
  231MOL0     H31145   2.057   0.803   3.172  1.5914  0.3768  2.2221
  231MOL0     H31146   1.964   0.671   3.000  0.7338  3.5652  3.0431
  231MOL0     H31147   1.825   0.599   3.080  3.9740 -0.7109  3.8510
  231MOL0     H31148   1.803   0.704   2.937  3.1361  2.2803 -2.0717
  231MOL0     H31149   1.347   0.765   3.107 -0.7350  0.6547  0.6074
  231MOL0     H31150   1.117   0.755   3.004 -1.5589  0.4662 -0.8792
  231MOL0     H31151   0.932   0.758   2.884 -0.0765  0.7830  1.9756
  231MOL0     H31152   0.877   0.908   2.953 -0.8013  0.4340 -1.1761
  231MOL0     H31153   0.847   0.811   2.668  0.6555  2.5237 -0.2610
  231MOL0     H31154   0.725   0.782   2.793 -1.7732 -1.0866 -3.1065
  231MOL0     H31155   0.811   1.045   2.687  0.0882  2.3078  3.0265
  231MOL0     H31156   0.704   1.036   2.814  1.4903 -0.9405  0.3042
  231MOL0     H31157   0.568   1.076   2.661  0.5469  0.0022  1.5834
  231MOL0     H31158   0.633   0.966   2.525 -1.3733  2.4089 -0.2587
  231MOL0     H31159   0.500   0.897   2.790 -0.7072  1.0075 -0.1139
  231MOL0     H31160   0.537   0.777   2.661  1.5158 -1.3664  2.8896
  231MOL0     H31161   0.303   0.847   2.674  1.0674  1.5817  0.6536
  231MOL0     H31162   0.336   1.019   2.633 -1.3650 -0.1963 -0.9991
  231MOL0     H31163   0.333   0.780   2.444  0.0698  0.4407  0.5217
  231MOL0     H31164   0.452   0.904   2.411  0.0177 -1.0361 -0.2594
  231MOL0     H31165   0.227   0.970   2.299 -2.7689 -2.1266  1.0048
  231MOL0     H31166   0.250   1.070   2.435 -2.7066  0.2565 -0.1207
  231MOL0     H31167   1.206   1.086   2.754  2.7002  0.9880  0.3807
  231MOL0     H31168   1.427   1.095   2.836 -2.2465  1.1316  1.0120
  231MOL0     H31169   1.639   1.057   3.253  0.5206  0.2419  0.5460
  231MOL0     H31170   1.835   1.122   3.366 -0.0823  0.8784 -1.5255
  231MOL0     H31171   3.747   1.877   2.691 -3.4173  1.3696 -0.2337
  231MOL0     H31172   3.962   1.908   2.805 -0.2572 -0.1337 -2.7839
  231MOL0     H31173   4.097   1.836   3.444  0.2077 -0.6673  0.0154
  231MOL0     H31174   4.338   1.871   3.536  1.0318  2.0821 -0.9212
  231MOL0     H31175   4.601   2.050   3.245 -0.7278 -1.3649 -0.0954
  231MOL0     H31176   4.589   2.111   3.412 -0.8519 -0.0538  0.2328
  231MOL0     H31177   4.782   1.895   3.304  0.2568 -1.6778  1.5132
  231MOL0     H31178   4.775   1.950   3.473  0.2421 -2.4808 -1.0020
  231MOL0     H31179   4.832   2.175   3.300 -0.8245 -1.2217 -0.3809
  231MOL0     H31180   4.925   2.037   3.244 -0.0457  0.6552 -0.5753
  231MOL0     H31181   5.076   2.147   3.391  1.2163 -2.1414  0.9068
  231MOL0     H31182   5.039   1.982   3.438  2.4401  0.8335 -0.6277
  231MOL0     H31183   4.920   2.270   3.742  0.5349  1.7145 -0.4903
  231MOL0     H31184   4.477   1.885   3.149 -0.5927 -1.7629  1.0426
  231MOL0     H31185   4.241   1.904   3.051  1.3119  1.9749 -0.1491
  232MOL0     O31186  10.088   1.644   6.817  0.2874 -0.1078 -0.0484
  232MOL0     C31187  10.198   1.685   6.863  0.2722  0.0049  0.1311
  232MOL0     O31188  10.221   1.730   6.991 -1.0328 -0.1459 -0.3554
  232MOL0     C31189  10.121   1.736   7.082 -0.1446 -0.4311 -0.2805
  232MOL0     C31190  10.061   1.620   7.134  0.4028 -0.4403 -0.4861
  232MOL0     C31191   9.962   1.633   7.227 -0.2303 -0.1331 -0.8367
  232MOL0     C31192   9.917   1.759   7.263 -0.2783  0.1801 -0.2442
  232MOL0     O31193   9.820   1.768   7.367 -0.8948 -0.0226  0.5064
  232MOL0     C31194   9.767   1.900   7.402 -0.6039 -0.1025  0.2845
  232MOL0     C31195   9.688   1.888   7.528  0.4914  0.0700 -0.1237
  232MOL0     C31196   9.533   1.875   7.501  0.5592 -0.5011  0.9382
  232MOL0     C31197   9.459   1.900   7.630  0.2777  0.3995 -0.1838
  232MOL0     C31198   9.314   1.921   7.600  0.0786  1.0574  0.0531
  232MOL0     C31199   9.244   1.972   7.732  0.2335  0.1977 -1.0501
  232MOL0     C31200   9.112   2.040   7.728 -0.1931 -0.0100  0.3255
  232MOL0     C31201   9.059   2.102   7.862 -0.2409  1.0835 -0.3447
  232MOL0     N31202   9.022   2.006   7.964  0.7799 -0.4281 -0.6673
  232MOL0     C31203   8.908   1.926   7.975 -0.4519  0.6956 -0.7926
  232MOL0     C31204   8.916   1.870   8.103 -0.6211 -0.5492  0.2420
  232MOL0     C31205   8.821   1.767   8.149 -0.5835 -0.2104  0.0366
  232MOL0     C31206   8.739   1.801   8.277  0.2228  0.6571 -0.0850
  232MOL0     C31207   8.639   1.916   8.247 -0.4526  0.7350  0.6218
  232MOL0     C31208   8.506   1.908   8.337 -1.0743 -0.4138 -0.2604
  232MOL0     O31209   8.547   1.955   8.473  0.6447  0.2511  0.3662
  232MOL0     C31210   8.452   1.914   8.568  0.3630 -1.2258 -0.7399
  232MOL0     C31211   8.322   1.966   8.565 -0.7688 -0.2319 -0.1881
  232MOL0     C31212   8.222   1.932   8.663  0.2213  0.5565  0.7865
  232MOL0     C31213   8.093   2.013   8.634 -0.0309 -0.2655 -0.6972
  232MOL0     C31214   8.254   1.831   8.764 -0.8855 -0.0980  0.3378
  232MOL0     C31215   8.162   1.787   8.864  0.2221 -0.1080 -0.7486
  232MOL0     O31216   8.205   1.684   8.948 -0.2079  0.6982  0.9001
  232MOL0     C31217   8.118   1.643   9.046 -0.2214 -0.8600  0.6504
  232MOL0     C31218   8.106   1.702   9.168 -0.1708 -0.2794  0.6127
  232MOL0     C31219   8.026   1.660   9.264  0.6623  0.0466  0.0971
  232MOL0     C31220   7.966   1.528   9.253 -0.2992 -0.0310  0.3124
  232MOL0     O31221   7.901   1.469   9.353 -0.2796  0.9553  1.1207
  232MOL0     C31222   7.958   1.459   9.481 -0.4369 -0.9468 -0.0604
  232MOL0     C31223   7.928   1.325   9.552 -0.1515 -0.5123  0.4410
  232MOL0     C31224   7.995   1.333   9.694  0.8354  0.2255  0.4756
  232MOL0     C31225   7.961   1.197   9.768 -0.3036  0.6334 -0.2758
  232MOL0     C31226   8.056   1.170   9.888  0.0675 -0.7160 -0.6177
  232MOL0     C31227   8.189   1.113   9.853 -0.3257 -0.9147 -0.5281
  232MOL0     C31228   8.281   1.090   9.967 -1.0064 -0.4743  0.1784
  232MOL0     C31229   8.425   1.058   9.919  0.1863  0.0080  0.3407
  232MOL0    Cl31230   8.488   0.990  10.073  0.5818 -0.2429 -0.2625
  232MOL0     C31231   7.966   1.465   9.125 -0.2299  0.2045 -0.1109
  232MOL0     C31232   8.046   1.525   9.022  0.5455 -0.4267 -0.5766
  232MOL0     O31233   8.067   1.855   8.881  0.1735 -0.3024 -0.4596
  232MOL0     C31234   8.390   1.785   8.764 -0.9116 -0.5823 -0.3134
  232MOL0     C31235   8.487   1.824   8.670  0.6597  0.5423  0.0292
  232MOL0     N31236   9.036   1.907   8.157 -0.4346 -0.4813 -1.0966
  232MOL0     N31237   9.096   1.993   8.077  0.5834 -0.6336  0.1652
  232MOL0     C31238   9.978   1.876   7.212  0.3705 -0.0283 -1.3947
  232MOL0     C31239  10.080   1.858   7.123 -0.8689 -0.4537  0.2506
  232MOL0     C31240  10.325   1.674   6.775  0.8483 -0.3418  0.3487
  232MOL0     C31241  10.454   1.697   6.818 -0.2693  0.6852  0.6659
  232MOL0     C31242  10.565   1.666   6.741  0.4074 -0.0257  0.0769
  232MOL0     C31243  10.547   1.630   6.610  0.2830 -0.1198  0.3190
  232MOL0     O31244  10.650   1.608   6.521  0.6286  0.2770  0.6353
  232MOL0     C31245  10.776   1.633   6.558 -0.0385 -1.1385 -0.1911
  232MOL0     C31246  10.869   1.605   6.435  0.3122 -0.2020 -0.6993
  232MOL0     C31247  11.015   1.637   6.468  0.7156 -0.0326  0.0532
  232MOL0     C31248  11.075   1.496   6.468 -0.7614  0.3004  0.5414
  232MOL0     C31249  11.114   1.456   6.328  0.0002 -1.1833 -0.2972
  232MOL0     C31250  11.148   1.414   6.218 -0.5893 -0.7156  0.1446
  232MOL0     C31251  10.410   1.614   6.560  0.1897  0.3340  0.1910
  232MOL0     C31252  10.307   1.633   6.645  0.5970 -0.0081  0.3688
  232MOL0     H31253  10.080   1.515   7.114 -1.6491 -1.1745  1.0798
  232MOL0     H31254   9.927   1.544   7.280  0.7482  0.6158  1.1949
  232MOL0     H31255   9.853   1.961   7.430 -0.4013 -1.2946  2.4850
  232MOL0     H31256   9.716   1.949   7.319  0.5569  1.0332  0.2051
  232MOL0     H31257   9.720   1.813   7.602  1.1659 -0.7875 -1.2609
  232MOL0     H31258   9.709   1.984   7.577  0.6236  0.9521 -1.8536
  232MOL0     H31259   9.495   1.943   7.425  1.6843 -1.4305 -0.5132
  232MOL0     H31260   9.512   1.770   7.480  3.4910 -1.3816  1.8702
  232MOL0     H31261   9.470   1.820   7.704 -1.0007  1.9231  1.7668
  232MOL0     H31262   9.493   1.994   7.675 -0.4862  2.0812 -2.9165
  232MOL0     H31263   9.317   1.987   7.513  3.1795 -0.0874 -0.8613
  232MOL0     H31264   9.268   1.824   7.579  0.6176  0.8206 -0.0646
  232MOL0     H31265   9.232   1.883   7.794 -0.7159  0.3868 -0.9585
  232MOL0     H31266   9.302   2.041   7.794 -0.8563 -1.0920  1.5382
  232MOL0     H31267   9.125   2.129   7.667 -0.8177  0.2368  0.5345
  232MOL0     H31268   9.033   1.974   7.690 -0.4201  0.2569  0.3318
  232MOL0     H31269   8.977   2.172   7.845 -0.4963  0.5721 -1.3264
  232MOL0     H31270   9.137   2.159   7.912 -0.0162 -1.9940  3.2783
  232MOL0     H31271   8.821   1.908   7.913 -2.8682  2.8926  1.6568
  232MOL0     H31272   8.747   1.735   8.075 -2.7303  1.1736  1.4667
  232MOL0     H31273   8.875   1.674   8.171 -0.0589  0.3004  0.9570
  232MOL0     H31274   8.791   1.844   8.363 -2.1965  0.4818  1.5654
  232MOL0     H31275   8.688   1.712   8.315 -1.6468  2.0669  0.8383
  232MOL0     H31276   8.602   1.883   8.149  2.5505 -0.4931 -0.2169
  232MOL0     H31277   8.685   2.015   8.247 -2.5976  1.8079  1.1933
  232MOL0     H31278   8.456   1.811   8.338 -4.0800  1.0216 -1.1850
  232MOL0     H31279   8.438   1.983   8.298 -0.4830  0.3342  0.1253
  232MOL0     H31280   8.309   2.052   8.500 -1.0918 -1.0691 -1.2416
  232MOL0     H31281   8.091   2.072   8.541 -0.1568  3.8748  1.6690
  232MOL0     H31282   8.018   1.933   8.628 -2.6809  1.8825  1.0212
  232MOL0     H31283   8.062   2.080   8.715 -1.0010 -1.4320 -0.0739
  232MOL0     H31284   8.161   1.793   9.189 -1.0689  0.5323 -0.4221
  232MOL0     H31285   8.014   1.720   9.353 -1.0086  0.5415 -0.4272
  232MOL0     H31286   8.067   1.468   9.475 -0.4492 -0.9900 -0.3653
  232MOL0     H31287   7.925   1.543   9.543 -0.1172  0.2842 -1.4677
  232MOL0     H31288   7.822   1.304   9.570 -0.4537 -1.9826 -2.5486
  232MOL0     H31289   7.952   1.241   9.486 -2.1871  0.9926 -2.4241
  232MOL0     H31290   7.965   1.420   9.754  2.2416 -0.5109  2.3565
  232MOL0     H31291   8.104   1.327   9.687  0.7520 -0.9432 -0.0489
  232MOL0     H31292   7.857   1.181   9.798  0.5580 -3.5546  1.2453
  232MOL0     H31293   7.974   1.115   9.697 -1.0478 -1.2032  1.5754
  232MOL0     H31294   8.012   1.099   9.959  1.0410 -0.0549  0.6939
  232MOL0     H31295   8.068   1.262   9.947 -0.4300 -0.9532 -0.1362
  232MOL0     H31296   8.185   1.022   9.793  1.7114 -0.5743 -1.2798
  232MOL0     H31297   8.236   1.187   9.788 -0.6223 -1.4547 -1.3740
  232MOL0     H31298   8.247   1.014  10.038 -1.3069 -0.8443 -0.3488
  232MOL0     H31299   8.289   1.185  10.020  0.9333  0.0429 -0.9347
  232MOL0     H31300   8.475   1.142   9.869 -1.0750  0.6327  0.1071
  232MOL0     H31301   8.429   0.973   9.849  0.4432  0.3354 -0.0496
  232MOL0     H31302   7.918   1.368   9.115 -1.7822  0.5483  2.7150
  232MOL0     H31303   8.061   1.483   8.923  1.2146 -3.1389  0.5879
  232MOL0     H31304   8.418   1.713   8.841 -1.6349  0.5065  1.0020
  232MOL0     H31305   8.578   1.764   8.678 -1.2502 -2.3135  2.4348
  232MOL0     H31306   9.946   1.976   7.240  2.3815  0.4446 -0.6212
  232MOL0     H31307  10.134   1.941   7.078  1.3062 -1.2072  1.3257
  232MOL0     H31308  10.462   1.724   6.923  1.3722  0.3461  0.6501
  232MOL0     H31309  10.658   1.681   6.794 -1.0771 -2.2569  3.7184
  232MOL0     H31310  10.780   1.742   6.570 -0.9084 -1.0024 -0.9910
  232MOL0     H31311  10.789   1.569   6.646 -0.6828 -1.5324 -0.3791
  232MOL0     H31312  10.844   1.669   6.350  1.1330  1.7469  0.4531
  232MOL0     H31313  10.850   1.505   6.396 -1.6996  0.6409 -2.0322
  232MOL0     H31314  11.037   1.692   6.560  1.0269 -0.1662  0.0586
  232MOL0     H31315  11.058   1.684   6.379  2.5922  0.9967  1.4458
  232MOL0     H31316  11.009   1.421   6.513  0.8296 -1.1274  0.5822
  232MOL0     H31317  11.169   1.496   6.523  0.9999 -1.0686 -2.2468
  232MOL0     H31318  11.181   1.405   6.117  0.7782 -0.6370  0.5730
  232MOL0     H31319  10.394   1.587   6.456 -3.0580 -1.0062  0.9089
  232MOL0     H31320  10.208   1.610   6.607  0.3524  1.8437 -0.1906
  233MOL0     O31321   7.954   9.858   4.242  0.1143 -0.9549  0.5162
  233MOL0     C31322   7.991   9.743   4.247 -0.1132 -0.1148  0.2992
  233MOL0     O31323   7.910   9.638   4.233 -0.2850 -0.1007 -0.8630
  233MOL0     C31324   7.777   9.651   4.226 -0.2704 -0.3778  0.0271
  233MOL0     C31325   7.692   9.735   4.296  0.1623 -0.0536  0.1435
  233MOL0     C31326   7.554   9.743   4.273 -0.2183 -0.2227 -0.0761
  233MOL0     C31327   7.502   9.645   4.184  0.5194  0.6710 -0.0561
  233MOL0     O31328   7.364   9.627   4.167 -0.7539 -0.8016 -0.5051
  233MOL0     C31329   7.273   9.711   4.244  0.3932  0.2443 -0.8985
  233MOL0     C31330   7.135   9.661   4.222  0.2019  0.6591  0.4936
  233MOL0     C31331   7.040   9.700   4.331 -0.0345 -0.8868 -0.1634
  233MOL0     C31332   6.897   9.665   4.290  0.2742 -0.6711  0.2509
  233MOL0     C31333   6.807   9.709   4.405 -0.4581 -0.5281  0.4122
  233MOL0     C31334   6.711   9.821   4.371  0.0786  0.6250  0.6146
  233MOL0     C31335   6.594   9.789   4.272  0.4777  0.3936 -0.4119
  233MOL0     C31336   6.518   9.914   4.240 -0.7787 -0.7890 -0.9425
  233MOL0     N31337   6.426   9.894   4.134  0.1818  0.0059  0.2355
  233MOL0     C31338   6.299   9.861   4.146  0.1951 -1.1370 -0.7099
  233MOL0     C31339   6.248   9.856   4.018  0.0181  1.3176 -0.1125
  233MOL0     C31340   6.110   9.807   3.969  0.1136 -0.3251 -0.3984
  233MOL0     C31341   6.114   9.655   3.948  0.3158 -0.1152 -0.0804
  233MOL0     C31342   6.217   9.591   3.859  0.0956  0.0054 -0.5090
  233MOL0     C31343   6.202   9.632   3.712 -0.4299  0.0749  0.1547
  233MOL0     O31344   6.079   9.572   3.655 -0.3296  0.1367 -0.7157
  233MOL0     C31345   6.030   9.629   3.543 -0.1489 -0.2099 -0.1899
  233MOL0     C31346   6.089   9.732   3.470  0.9827  0.3446 -0.2403
  233MOL0     C31347   6.029   9.782   3.354 -0.3084 -0.1969 -0.4623
  233MOL0     C31348   6.105   9.892   3.278 -0.0204  0.6845  0.1050
  233MOL0     C31349   5.904   9.721   3.309  0.1744 -0.6557  0.2027
  233MOL0     C31350   5.839   9.752   3.185  0.7081  0.0715  0.6048
  233MOL0     O31351   5.705   9.726   3.195  0.2890  0.1348 -0.7449
  233MOL0     C31352   5.626   9.779   3.095  0.3098 -0.1322 -0.2280
  233MOL0     C31353   5.540   9.693   3.025 -0.2526 -0.7876 -0.9824
  233MOL0     C31354   5.448   9.738   2.932 -0.2235  0.0593 -0.3236
  233MOL0     C31355   5.431   9.874   2.915 -1.2433 -0.7771 -0.2563
  233MOL0     O31356   5.354   9.930   2.823 -0.3596 -0.3330  0.4417
  233MOL0     C31357   5.254   9.853   2.753  0.2650 -1.0568 -0.0617
  233MOL0     C31358   5.132   9.818   2.843  0.1106 -0.5653 -0.1043
  233MOL0     C31359   5.037   9.726   2.769 -0.3222 -0.7785  0.3370
  233MOL0     C31360   4.946   9.809   2.675 -0.8783 -0.7787 -0.2055
  233MOL0     C31361   4.837   9.715   2.626  0.6414 -0.1981  0.3646
  233MOL0     C31362   4.726   9.795   2.553 -0.5455  0.2198  0.6551
  233MOL0     C31363   4.590   9.723   2.558  0.9124  0.8615  0.2858
  233MOL0     C31364   4.479   9.812   2.511  0.2583 -0.3877 -0.1680
  233MOL0    Cl31365   4.454   9.953   2.613  0.2318  0.1918 -0.0985
  233MOL0     C31366   5.519   9.966   2.989 -0.9006 -0.2742 -0.9042
  233MOL0     C31367   5.620   9.916   3.073 -0.1431  0.7511 -0.0506
  233MOL0     O31368   5.892   9.797   3.089  0.0517 -0.1559  0.7145
  233MOL0     C31369   5.848   9.616   3.379  0.6865  0.6898  0.3254
  233MOL0     C31370   5.906   9.575   3.499 -0.1990  0.5010  0.3156
  233MOL0     N31371   6.350   9.883   3.935  0.1257 -0.5977  1.1323
  233MOL0     N31372   6.458   9.904   4.000 -0.4280  0.0235  0.2617
  233MOL0     C31373   7.590   9.562   4.109 -0.4170 -0.2130 -0.0430
  233MOL0     C31374   7.726   9.568   4.129  0.2244  0.2669 -0.8044
  233MOL0     C31375   8.138   9.709   4.262  1.0910  0.1438  0.1455
  233MOL0     C31376   8.182   9.578   4.245 -0.2695  0.9150  0.6794
  233MOL0     C31377   8.309   9.543   4.256  0.8694  0.3449  1.0318
  233MOL0     C31378   8.406   9.637   4.282 -0.0981 -0.6813  0.1398
  233MOL0     O31379   8.548   9.606   4.278  0.0424  0.0042 -0.1022
  233MOL0     C31380   8.593   9.475   4.268 -0.1660  1.3883  0.1808
  233MOL0     C31381   8.593   9.409   4.129 -0.8614  1.1677 -0.0913
  233MOL0     C31382   8.667   9.500   4.031 -0.7491  0.4683  0.2615
  233MOL0     C31383   8.678   9.434   3.893 -0.0433  0.1913  0.3991
  233MOL0     C31384   8.752   9.539   3.823  0.2438  0.2528 -0.7672
  233MOL0     C31385   8.802   9.613   3.737  0.1699  0.0598 -0.6634
  233MOL0     C31386   8.366   9.765   4.301 -0.3536 -0.1491  0.4186
  233MOL0     C31387   8.235   9.811   4.299 -0.3218 -0.2891  0.4202
  233MOL0     H31388   7.741   9.794   4.373  2.0792  1.3049 -2.0009
  233MOL0     H31389   7.490   9.811   4.328  1.1502  2.9132 -2.1101
  233MOL0     H31390   7.297   9.683   4.347 -0.8819  1.1989 -0.3111
  233MOL0     H31391   7.274   9.818   4.220 -1.3770  0.5476  0.2137
  233MOL0     H31392   7.102   9.697   4.125 -0.7220 -4.3867 -1.3997
  233MOL0     H31393   7.133   9.552   4.211 -0.4095  0.7999 -1.0162
  233MOL0     H31394   7.075   9.655   4.425 -1.5522 -0.0121  0.8667
  233MOL0     H31395   7.043   9.810   4.335 -0.8272 -0.8271 -0.8915
  233MOL0     H31396   6.883   9.705   4.189  1.6440 -4.4015 -1.5880
  233MOL0     H31397   6.881   9.559   4.272  1.1396 -0.8658  0.5771
  233MOL0     H31398   6.746   9.619   4.422 -1.2415 -0.4974 -1.8471
  233MOL0     H31399   6.861   9.744   4.493  0.5940  2.8881 -1.4210
  233MOL0     H31400   6.669   9.849   4.468  3.0823  0.6753  2.0129
  233MOL0     H31401   6.765   9.903   4.321 -2.8517  0.2263 -3.7927
  233MOL0     H31402   6.638   9.754   4.177  0.2737  1.2110 -0.8122
  233MOL0     H31403   6.533   9.706   4.309  1.5553  0.6003  1.9677
  233MOL0     H31404   6.587   9.991   4.205  0.1209 -0.2029  1.8564
  233MOL0     H31405   6.471   9.945   4.334 -1.6127 -0.8038 -1.3426
  233MOL0     H31406   6.237   9.853   4.235  1.5642  0.4684  0.4403
  233MOL0     H31407   6.031   9.814   4.045  2.1773 -0.0996  1.8164
  233MOL0     H31408   6.081   9.863   3.879 -0.8232 -1.6508 -0.9554
  233MOL0     H31409   6.020   9.616   3.910 -0.3185  2.8275 -1.9143
  233MOL0     H31410   6.132   9.624   4.051  2.0062 -1.1539 -0.6610
  233MOL0     H31411   6.215   9.482   3.870 -0.2404  0.2036  2.1752
  233MOL0     H31412   6.311   9.623   3.905 -0.4743 -0.6211  1.1737
  233MOL0     H31413   6.294   9.603   3.661  0.8432  5.5075 -1.2241
  233MOL0     H31414   6.185   9.740   3.709 -3.7523 -0.3450 -1.6074
  233MOL0     H31415   6.180   9.780   3.503  0.5329  1.7455 -0.9818
  233MOL0     H31416   6.110   9.864   3.172 -2.1723 -0.5378  0.2654
  233MOL0     H31417   6.061   9.992   3.277 -0.3322  0.5518  0.4311
  233MOL0     H31418   6.202   9.909   3.325  0.5334  1.3830 -1.2383
  233MOL0     H31419   5.548   9.585   3.037 -0.7224 -0.8631 -1.3336
  233MOL0     H31420   5.390   9.676   2.865  0.1689  0.4686 -1.0625
  233MOL0     H31421   5.215   9.923   2.678  2.8355  2.6817  1.7519
  233MOL0     H31422   5.293   9.765   2.701 -1.7404 -3.6371  2.5150
  233MOL0     H31423   5.159   9.756   2.929  0.8853 -2.5048 -1.6617
  233MOL0     H31424   5.079   9.909   2.873 -1.1796 -1.3079 -0.0651
  233MOL0     H31425   4.991   9.653   2.836  0.7042  1.4618  3.7277
  233MOL0     H31426   5.102   9.658   2.713  0.1644 -2.0398  2.3312
  233MOL0     H31427   4.915   9.895   2.735 -0.6843 -2.4836  2.5391
  233MOL0     H31428   5.003   9.845   2.589 -0.2248 -2.0060 -0.3142
  233MOL0     H31429   4.793   9.651   2.703 -1.5421 -1.4597 -1.7817
  233MOL0     H31430   4.886   9.652   2.552  1.1102  0.7566 -0.1519
  233MOL0     H31431   4.722   9.897   2.594  0.4956  1.9113 -2.9700
  233MOL0     H31432   4.766   9.813   2.453  1.2843 -1.2228  1.0703
  233MOL0     H31433   4.571   9.685   2.658  1.0072  0.2989  0.0950
  233MOL0     H31434   4.586   9.636   2.492 -0.7485  0.0219  1.4456
  233MOL0     H31435   4.384   9.758   2.512 -0.8682  1.4205 -1.8721
  233MOL0     H31436   4.489   9.844   2.407 -1.3105  1.3621  0.1570
  233MOL0     H31437   5.520  10.074   2.987 -1.7473 -0.2458 -0.4608
  233MOL0     H31438   5.698   9.972   3.125  1.3587 -0.1408 -1.2807
  233MOL0     H31439   5.763   9.560   3.343  0.4900  1.2283 -0.0455
  233MOL0     H31440   5.878   9.494   3.565  1.4176 -0.3593 -0.0161
  233MOL0     H31441   7.552   9.499   4.029  0.2724  2.3313 -2.5357
  233MOL0     H31442   7.787   9.497   4.073  0.7268  0.8709 -1.0439
  233MOL0     H31443   8.109   9.500   4.225  1.5055 -0.4548 -0.7654
  233MOL0     H31444   8.345   9.442   4.241  0.8799  0.5734 -0.7145
  233MOL0     H31445   8.694   9.473   4.311  0.0277  0.6435 -0.2957
  233MOL0     H31446   8.531   9.418   4.337  1.3029 -2.1247 -1.1730
  233MOL0     H31447   8.488   9.390   4.102 -0.4478 -0.6368 -0.5519
  233MOL0     H31448   8.634   9.308   4.131  0.1829  1.5847 -0.0075
  233MOL0     H31449   8.769   9.512   4.069  0.1693 -1.8856 -1.1812
  233MOL0     H31450   8.628   9.602   4.027 -1.3057  0.2606  0.3741
  233MOL0     H31451   8.584   9.409   3.845  0.6632 -0.2226 -0.8093
  233MOL0     H31452   8.736   9.342   3.898 -0.4636 -0.0640  0.6324
  233MOL0     H31453   8.859   9.653   3.656  1.6568 -1.0514 -0.2119
  233MOL0     H31454   8.439   9.836   4.337 -0.4918  0.0493  0.3080
  233MOL0     H31455   8.202   9.907   4.336  1.7542 -0.5119  3.1421
  234MOL0     O31456   8.568   5.976   7.773  0.0046  0.1842 -0.3733
  234MOL0     C31457   8.559   6.047   7.873 -0.6826 -0.1420  0.3273
  234MOL0     O31458   8.454   6.132   7.902  0.1452  0.1856 -0.4448
  234MOL0     C31459   8.331   6.111   7.845  0.8478  0.7168 -0.1953
  234MOL0     C31460   8.268   5.984   7.839 -0.0831 -0.3597 -0.3982
  234MOL0     C31461   8.129   5.978   7.805 -0.4954  0.2562 -0.0970
  234MOL0     C31462   8.069   6.089   7.752 -0.2733 -0.0952 -0.2843
  234MOL0     O31463   7.941   6.086   7.707  0.4357 -0.2989 -0.0375
  234MOL0     C31464   7.891   5.951   7.668 -1.1275  0.3795 -0.0031
  234MOL0     C31465   7.767   5.956   7.591  0.3212 -0.4653  0.7268
  234MOL0     C31466   7.778   6.042   7.465 -0.1554  0.3799 -0.0008
  234MOL0     C31467   7.650   6.103   7.410 -0.2089  0.1558  0.4333
  234MOL0     C31468   7.528   6.005   7.396  0.1838 -0.0362 -0.7869
  234MOL0     C31469   7.396   6.080   7.399 -0.3030 -0.0971  0.2583
  234MOL0     C31470   7.378   6.154   7.268  0.3465 -0.1273 -0.4083
  234MOL0     C31471   7.232   6.199   7.240  0.2779  1.4696 -1.0723
  234MOL0     N31472   7.224   6.295   7.136 -0.1671 -1.0801 -1.2127
  234MOL0     C31473   7.176   6.263   7.012  0.6799 -0.3217 -0.4037
  234MOL0     C31474   7.134   6.379   6.961  0.8224 -0.2800  0.6041
  234MOL0     C31475   7.056   6.388   6.830  0.4699 -0.1308 -0.4536
  234MOL0     C31476   6.913   6.309   6.840 -0.0656 -0.8694  0.4917
  234MOL0     C31477   6.828   6.356   6.957 -0.3194  0.4628  0.2074
  234MOL0     C31478   6.682   6.295   6.955  0.2457  0.7116 -0.1603
  234MOL0     O31479   6.584   6.390   6.917  0.0986 -0.1320 -0.0847
  234MOL0     C31480   6.452   6.362   6.959  0.5160  0.3700 -0.3805
  234MOL0     C31481   6.416   6.267   7.063 -0.4376  0.6937  0.2688
  234MOL0     C31482   6.282   6.253   7.108 -0.3548 -0.4230  0.1190
  234MOL0     C31483   6.263   6.142   7.201  0.2886  0.1214 -0.3970
  234MOL0     C31484   6.184   6.345   7.071 -0.0854 -0.9878 -0.5631
  234MOL0     C31485   6.041   6.334   7.120 -0.3492 -0.7855  0.4029
  234MOL0     O31486   5.967   6.456   7.126  0.6310  0.6610 -0.4981
  234MOL0     C31487   5.846   6.462   7.194  0.1114 -0.9941  0.4527
  234MOL0     C31488   5.800   6.380   7.292  0.0177  0.9459  0.0596
  234MOL0     C31489   5.677   6.404   7.351  0.4080 -0.2888 -0.0294
  234MOL0     C31490   5.585   6.497   7.285 -1.0346 -0.9765  0.2682
  234MOL0     O31491   5.454   6.498   7.313 -0.1974 -0.5046 -0.4735
  234MOL0     C31492   5.395   6.383   7.266 -0.0139  0.3203  0.5521
  234MOL0     C31493   5.254   6.415   7.272  0.5975  0.1644 -0.1551
  234MOL0     C31494   5.176   6.284   7.261 -0.1827  0.2812 -0.0239
  234MOL0     C31495   5.028   6.316   7.246 -0.1939  1.6016  0.2183
  234MOL0     C31496   4.947   6.185   7.257 -0.5320 -0.1874 -1.0370
  234MOL0     C31497   4.796   6.215   7.250 -0.5439 -0.3132 -0.5448
  234MOL0     C31498   4.705   6.091   7.272 -0.3706 -0.6478  0.7968
  234MOL0     C31499   4.702   6.006   7.147 -0.5578  0.1485  0.6127
  234MOL0    Cl31500   4.578   6.072   7.024  0.4362 -0.5446 -0.3837
  234MOL0     C31501   5.634   6.584   7.190 -0.4279  0.2125  0.0982
  234MOL0     C31502   5.763   6.565   7.149  0.6776 -0.0962  0.1047
  234MOL0     O31503   5.996   6.228   7.140  0.1830 -0.7390 -0.1520
  234MOL0     C31504   6.220   6.448   6.983  0.3063 -0.1887  0.0693
  234MOL0     C31505   6.350   6.448   6.922 -0.8691  0.4177 -0.1466
  234MOL0     N31506   7.181   6.482   7.044  0.2318 -0.3433 -0.0269
  234MOL0     N31507   7.245   6.427   7.147 -0.3220  0.1537  0.1363
  234MOL0     C31508   8.140   6.205   7.740  0.5362  0.0955  0.5296
  234MOL0     C31509   8.267   6.223   7.783 -0.0879  1.2356 -0.3048
  234MOL0     C31510   8.682   6.061   7.948 -0.4500  0.5471  0.4828
  234MOL0     C31511   8.691   6.150   8.054  0.2521  0.3710  1.0213
  234MOL0     C31512   8.807   6.154   8.133 -0.0468  0.0171 -0.3184
  234MOL0     C31513   8.915   6.067   8.107  0.5179  0.4004 -0.0903
  234MOL0     O31514   9.027   6.073   8.191  0.6801 -0.0971  0.0387
  234MOL0     C31515   9.138   5.984   8.162 -0.0890 -0.3105 -0.1788
  234MOL0     C31516   9.120   5.833   8.185 -0.5361 -0.2300 -0.0235
  234MOL0     C31517   9.244   5.755   8.180  0.4707  0.3255  0.3265
  234MOL0     C31518   9.217   5.600   8.156  0.1615 -1.0337 -0.1168
  234MOL0     C31519   9.344   5.530   8.144  0.6879  0.9706 -0.7808
  234MOL0     C31520   9.427   5.449   8.143  0.6826  0.4097  0.1827
  234MOL0     C31521   8.907   5.985   7.994 -0.3424  0.4781  0.0473
  234MOL0     C31522   8.792   5.981   7.917 -0.2013  0.1518 -0.0742
  234MOL0     H31523   8.314   5.895   7.881  0.6318  0.6160  0.9959
  234MOL0     H31524   8.085   5.880   7.815  0.1922 -0.0750 -0.2351
  234MOL0     H31525   7.973   5.900   7.616 -0.2248  1.2325  0.5435
  234MOL0     H31526   7.869   5.897   7.760 -0.2881  1.4075  0.8327
  234MOL0     H31527   7.747   5.852   7.565 -1.3898 -0.0286  0.1695
  234MOL0     H31528   7.684   6.000   7.647 -1.3024 -0.7230 -1.3436
  234MOL0     H31529   7.849   6.123   7.486  2.5859 -2.1249  1.1436
  234MOL0     H31530   7.829   5.996   7.379 -3.7927  0.3296 -2.3238
  234MOL0     H31531   7.610   6.187   7.468  0.4037 -0.5907  1.9889
  234MOL0     H31532   7.675   6.142   7.311  2.1213 -1.3475  0.3614
  234MOL0     H31533   7.541   5.949   7.303 -0.6231 -1.2813 -0.1760
  234MOL0     H31534   7.524   5.928   7.474 -0.7341 -0.1496 -0.9328
  234MOL0     H31535   7.318   6.008   7.424  0.0102 -0.4170  0.3207
  234MOL0     H31536   7.398   6.155   7.478 -2.0484  2.2878 -1.7920
  234MOL0     H31537   7.446   6.239   7.275 -0.6912  0.5770  2.7422
  234MOL0     H31538   7.404   6.089   7.185  1.4686 -0.8361  0.4651
  234MOL0     H31539   7.187   6.239   7.331  1.6137 -1.7939  1.2235
  234MOL0     H31540   7.172   6.111   7.214  0.0171  1.3317 -0.0435
  234MOL0     H31541   7.173   6.163   6.970  0.6898 -0.5454  0.1153
  234MOL0     H31542   7.040   6.494   6.807  3.1443  0.1963 -1.1245
  234MOL0     H31543   7.113   6.343   6.748 -1.2590  1.6032 -2.7420
  234MOL0     H31544   6.943   6.206   6.859 -1.3148 -1.0368  1.7612
  234MOL0     H31545   6.852   6.325   6.751 -4.6567  0.3905  3.4902
  234MOL0     H31546   6.818   6.464   6.965  0.1802  0.4719  0.7522
  234MOL0     H31547   6.877   6.324   7.049  0.4974 -0.1241 -0.4060
  234MOL0     H31548   6.657   6.267   7.058 -4.3906  1.8283 -0.7631
  234MOL0     H31549   6.673   6.201   6.898 -3.1129 -0.6626  2.3217
  234MOL0     H31550   6.487   6.200   7.111  0.9757  1.9343 -0.0275
  234MOL0     H31551   6.254   6.183   7.302  0.6487  2.9867 -1.4386
  234MOL0     H31552   6.181   6.075   7.174  0.2209  0.8425 -2.0804
  234MOL0     H31553   6.354   6.082   7.198  0.8624  0.7338  2.3586
  234MOL0     H31554   5.865   6.298   7.320 -1.8082  0.3159  2.8436
  234MOL0     H31555   5.648   6.350   7.440 -1.2088  1.0340  0.3029
  234MOL0     H31556   5.425   6.368   7.162  0.0057  0.0528  0.5946
  234MOL0     H31557   5.410   6.295   7.330  1.3539  2.2224  3.0594
  234MOL0     H31558   5.224   6.460   7.367  0.3132  1.4448 -0.8254
  234MOL0     H31559   5.226   6.495   7.203 -0.9770  1.4860  1.9023
  234MOL0     H31560   5.188   6.223   7.351 -1.0616 -2.5347 -1.6895
  234MOL0     H31561   5.210   6.224   7.176  0.7356 -0.8152  1.0685
  234MOL0     H31562   4.988   6.389   7.317 -1.4646  0.3631  0.8229
  234MOL0     H31563   5.008   6.360   7.147  2.0269 -1.5559 -1.8257
  234MOL0     H31564   4.966   6.151   7.359  1.6239 -1.5372 -1.8163
  234MOL0     H31565   4.978   6.101   7.194  2.0070 -1.2960  1.4562
  234MOL0     H31566   4.763   6.278   7.333 -0.5148  0.1746 -0.8980
  234MOL0     H31567   4.770   6.270   7.159 -0.9669  0.8187  0.2350
  234MOL0     H31568   4.606   6.120   7.309 -1.2679 -1.3770 -0.9320
  234MOL0     H31569   4.764   6.039   7.348  4.0805 -0.9124 -2.4000
  234MOL0     H31570   4.683   5.901   7.173 -0.8185  0.3735  1.3533
  234MOL0     H31571   4.798   6.013   7.094 -1.1242  0.0481 -0.4525
  234MOL0     H31572   5.560   6.653   7.150  1.8051  2.4775 -0.3347
  234MOL0     H31573   5.790   6.627   7.064 -1.6964  0.2659 -0.4557
  234MOL0     H31574   6.163   6.540   6.968  2.5376  0.9634 -2.1420
  234MOL0     H31575   6.376   6.515   6.840 -1.8591  0.7357 -0.2181
  234MOL0     H31576   8.092   6.288   7.689  1.5902  1.1626  1.2081
  234MOL0     H31577   8.325   6.314   7.770 -0.3889  1.4432 -0.1878
  234MOL0     H31578   8.611   6.221   8.075 -0.1165 -0.4611  2.5820
  234MOL0     H31579   8.821   6.233   8.206  0.1893  0.6988 -1.0997
  234MOL0     H31580   9.156   6.004   8.056 -1.9496  0.4903 -0.3940
  234MOL0     H31581   9.217   6.013   8.232  2.6235 -1.0395 -2.7388
  234MOL0     H31582   9.046   5.792   8.116 -1.8607  1.8946  0.0443
  234MOL0     H31583   9.058   5.830   8.275 -0.5182  2.7749  0.1870
  234MOL0     H31584   9.294   5.767   8.277  1.7526 -2.6187  0.1198
  234MOL0     H31585   9.308   5.788   8.098  1.3981 -3.1584 -0.5198
  234MOL0     H31586   9.175   5.598   8.055 -1.0382  2.6322  0.1634
  234MOL0     H31587   9.157   5.563   8.239 -2.6191  2.0960 -0.5277
  234MOL0     H31588   9.503   5.374   8.132 -1.6985 -1.8480 -2.3549
  234MOL0     H31589   8.994   5.929   7.960 -1.8420 -0.1215 -3.1633
  234MOL0     H31590   8.791   5.914   7.833 -1.8843  2.8370 -2.3924
  235MOL0     O31591  10.388   9.415   6.437 -0.0353 -0.2638  0.7583
  235MOL0     C31592  10.462   9.484   6.510  0.0783 -0.2367 -0.6299
  235MOL0     O31593  10.415   9.594   6.574  0.3751 -0.0291  0.3602
  235MOL0     C31594  10.282   9.615   6.584  0.6580 -0.7180 -0.1584
  235MOL0     C31595  10.196   9.509   6.618  0.0687  0.0610 -0.1487
  235MOL0     C31596  10.061   9.523   6.641 -0.2370 -0.4879  0.1055
  235MOL0     C31597  10.002   9.648   6.627 -0.3920 -0.0787 -0.2272
  235MOL0     O31598   9.866   9.641   6.654 -0.0305  0.2522  0.1235
  235MOL0     C31599   9.787   9.748   6.618 -0.5417  0.1807  0.1002
  235MOL0     C31600   9.639   9.702   6.635  0.3078  0.3034 -0.4242
  235MOL0     C31601   9.600   9.688   6.786 -0.0890 -0.7124  0.3364
  235MOL0     C31602   9.445   9.663   6.787 -0.0057  0.2295 -0.8406
  235MOL0     C31603   9.391   9.621   6.926 -1.0302 -0.8058 -0.0757
  235MOL0     C31604   9.259   9.536   6.927  0.5526 -0.0270  0.2695
  235MOL0     C31605   9.219   9.494   7.068 -0.0135  0.4692 -0.0663
  235MOL0     C31606   9.088   9.402   7.074 -0.0878  0.0929 -0.7151
  235MOL0     N31607   8.960   9.458   7.041 -0.1192  0.3882 -0.3942
  235MOL0     C31608   8.911   9.443   6.909 -0.4214 -0.3168  0.6441
  235MOL0     C31609   8.790   9.496   6.917  0.6895  0.8793 -0.2048
  235MOL0     C31610   8.707   9.511   6.790 -0.1684  1.0902  0.9831
  235MOL0     C31611   8.564   9.547   6.812  0.0362 -0.4938 -0.0572
  235MOL0     C31612   8.481   9.426   6.845 -0.4532  0.7199  0.4708
  235MOL0     C31613   8.334   9.467   6.838  0.3206  0.6725  0.6921
  235MOL0     O31614   8.255   9.353   6.852  0.1336 -0.2814  0.5041
  235MOL0     C31615   8.118   9.364   6.836 -0.0245  0.4508  0.1984
  235MOL0     C31616   8.058   9.244   6.800 -0.0752  1.0162  0.0003
  235MOL0     C31617   7.931   9.224   6.758  0.8763  0.3084  0.2697
  235MOL0     C31618   7.879   9.092   6.714 -0.1803 -0.4727  1.1422
  235MOL0     C31619   7.849   9.345   6.769 -0.9236  0.5003 -0.5334
  235MOL0     C31620   7.705   9.350   6.730  0.2286 -0.0095  0.1443
  235MOL0     O31621   7.656   9.245   6.653 -0.9246  0.1496 -0.4880
  235MOL0     C31622   7.536   9.253   6.589  1.1932 -0.3125 -0.1487
  235MOL0     C31623   7.418   9.260   6.669  0.9500 -0.1926 -0.0528
  235MOL0     C31624   7.293   9.256   6.610  0.7882  0.7559  0.1536
  235MOL0     C31625   7.276   9.246   6.476  0.1100 -0.6516  0.1334
  235MOL0     O31626   7.164   9.227   6.408  0.7720  0.1097 -1.0674
  235MOL0     C31627   7.038   9.245   6.479  0.1755  0.8348 -0.2359
  235MOL0     C31628   6.997   9.118   6.565 -0.4774 -0.5183 -0.4231
  235MOL0     C31629   6.842   9.108   6.590 -0.7364 -0.4582  0.0890
  235MOL0     C31630   6.788   9.229   6.661 -0.9764  1.0183 -0.2443
  235MOL0     C31631   6.659   9.198   6.736  0.3764 -1.0485 -0.3606
  235MOL0     C31632   6.541   9.196   6.638 -0.4111 -0.3493 -0.3443
  235MOL0     C31633   6.406   9.161   6.701  0.5674  0.3206  0.0771
  235MOL0     C31634   6.351   9.249   6.808 -0.0030 -0.3242  0.5450
  235MOL0    Cl31635   6.363   9.431   6.776  0.4817  0.1395 -0.2091
  235MOL0     C31636   7.392   9.243   6.397  0.3110 -0.0408 -0.2265
  235MOL0     C31637   7.521   9.254   6.453 -0.3709 -0.4749  0.9992
  235MOL0     O31638   7.632   9.446   6.774 -0.3166  0.0942 -0.1128
  235MOL0     C31639   7.913   9.468   6.808 -0.4358  0.1891  0.0869
  235MOL0     C31640   8.043   9.481   6.835 -0.3514  0.8248 -0.5104
  235MOL0     N31641   8.762   9.548   7.047 -0.0845 -0.3971  0.7652
  235MOL0     N31642   8.863   9.515   7.122 -0.3281 -0.4308 -0.5341
  235MOL0     C31643  10.085   9.766   6.599  0.5097  0.4428 -0.5718
  235MOL0     C31644  10.226   9.750   6.575  0.7080 -0.5872 -0.3371
  235MOL0     C31645  10.604   9.456   6.535 -0.2729 -0.4369 -0.9682
  235MOL0     C31646  10.685   9.542   6.605 -0.0905  0.2703 -0.7308
  235MOL0     C31647  10.809   9.503   6.653 -0.6423  0.6114  0.2962
  235MOL0     C31648  10.867   9.374   6.607 -0.0758 -0.4194  0.1513
  235MOL0     O31649  11.003   9.342   6.627 -0.1313  0.3456 -0.4514
  235MOL0     C31650  11.027   9.261   6.751  0.2054 -0.3061 -0.8264
  235MOL0     C31651  11.171   9.192   6.731  0.8947 -0.3160  0.1273
  235MOL0     C31652  11.278   9.300   6.757 -0.1265  0.0445  0.3915
  235MOL0     C31653  11.406   9.224   6.740  0.9300  0.3715 -0.6841
  235MOL0     C31654  11.509   9.303   6.803  0.5532 -0.8276 -0.2404
  235MOL0     C31655  11.603   9.361   6.848  0.0057  0.5202  0.8723
  235MOL0     C31656  10.787   9.286   6.526 -0.3255  0.3867 -0.0312
  235MOL0     C31657  10.658   9.336   6.504 -0.2620  0.2914  0.9763
  235MOL0     H31658  10.235   9.408   6.628 -0.3449 -0.7200 -4.3903
  235MOL0     H31659   9.990   9.448   6.672  2.0851 -2.9138 -0.1389
  235MOL0     H31660   9.811   9.829   6.687  0.2249  2.0228 -2.2072
  235MOL0     H31661   9.798   9.778   6.514  1.6794  0.3622  0.3506
  235MOL0     H31662   9.563   9.772   6.600  0.3940  1.4819  1.6329
  235MOL0     H31663   9.615   9.602   6.597  0.2773 -0.3731  1.2593
  235MOL0     H31664   9.651   9.608   6.840  0.8926  0.0611  0.5785
  235MOL0     H31665   9.636   9.779   6.834  0.8111 -1.2304  0.6769
  235MOL0     H31666   9.389   9.747   6.743 -0.7887 -0.2486 -0.7789
  235MOL0     H31667   9.418   9.580   6.721 -4.2005  3.2039 -3.3732
  235MOL0     H31668   9.458   9.553   6.978  0.0718 -0.1369 -0.5982
  235MOL0     H31669   9.393   9.711   6.988 -0.3637 -0.0644 -1.1381
  235MOL0     H31670   9.187   9.610   6.890  1.0618  0.3104 -0.0700
  235MOL0     H31671   9.277   9.463   6.849  2.5596  0.9547 -0.2718
  235MOL0     H31672   9.304   9.436   7.105 -0.5901 -0.7456 -0.5637
  235MOL0     H31673   9.202   9.581   7.133  1.0093  0.8062 -0.2322
  235MOL0     H31674   9.083   9.359   7.174  3.7450  2.3974  0.6996
  235MOL0     H31675   9.097   9.322   6.999 -0.6644 -1.5972  0.9248
  235MOL0     H31676   8.966   9.405   6.823  3.6004  0.6429  2.5670
  235MOL0     H31677   8.754   9.589   6.730 -1.1210  2.2729  1.7212
  235MOL0     H31678   8.715   9.417   6.735  1.5769  1.7549  0.0496
  235MOL0     H31679   8.520   9.584   6.719 -0.9024  2.9066  1.6093
  235MOL0     H31680   8.555   9.621   6.892 -0.0162 -2.4965  1.8733
  235MOL0     H31681   8.505   9.394   6.947 -0.0642 -1.4005 -0.2340
  235MOL0     H31682   8.508   9.343   6.779 -0.2243 -0.9898  2.5950
  235MOL0     H31683   8.309   9.517   6.744  0.5030  0.4413  0.5163
  235MOL0     H31684   8.317   9.536   6.920  0.0061  0.6750  0.6257
  235MOL0     H31685   8.132   9.164   6.803 -1.6701 -0.4990  0.4144
  235MOL0     H31686   7.860   9.099   6.606 -0.0856  1.7156  1.2316
  235MOL0     H31687   7.947   9.007   6.723  0.7227  0.0332 -0.4797
  235MOL0     H31688   7.783   9.071   6.762  0.2668  1.5915  3.0716
  235MOL0     H31689   7.418   9.261   6.778  1.8092  1.0853 -0.0375
  235MOL0     H31690   7.207   9.239   6.676  0.0217 -0.1307 -1.0327
  235MOL0     H31691   7.053   9.333   6.542 -0.4753 -0.1466  1.3642
  235MOL0     H31692   6.957   9.267   6.408 -1.4876  1.2132  1.6603
  235MOL0     H31693   7.013   9.039   6.491  0.1218 -0.2615 -0.5764
  235MOL0     H31694   7.057   9.110   6.656  1.6153 -3.5168 -1.8904
  235MOL0     H31695   6.828   9.019   6.653  1.9613  0.5314  2.3215
  235MOL0     H31696   6.788   9.094   6.496 -3.1937 -5.0392  1.8341
  235MOL0     H31697   6.853   9.259   6.744 -2.5778  1.0014  1.0682
  235MOL0     H31698   6.781   9.316   6.595 -2.1508  0.1437 -1.3386
  235MOL0     H31699   6.647   9.267   6.820 -1.4630 -1.9728  0.2016
  235MOL0     H31700   6.680   9.103   6.787  0.2442  0.7495  3.3971
  235MOL0     H31701   6.531   9.300   6.603 -1.8302  0.4261  2.1364
  235MOL0     H31702   6.564   9.130   6.554  0.9062 -0.4075  0.0278
  235MOL0     H31703   6.416   9.061   6.743  0.4398 -0.8066 -2.3997
  235MOL0     H31704   6.338   9.149   6.616  0.9267  3.6884 -0.8283
  235MOL0     H31705   6.407   9.225   6.899 -0.8207 -1.0868  0.8716
  235MOL0     H31706   6.248   9.223   6.833 -0.4682  1.2487  0.3645
  235MOL0     H31707   7.369   9.226   6.292 -2.4954  2.0193 -0.0867
  235MOL0     H31708   7.608   9.241   6.389 -0.9484  0.5362 -0.0071
  235MOL0     H31709   7.858   9.561   6.798 -0.9296 -0.0651  0.4096
  235MOL0     H31710   8.104   9.570   6.844 -1.0200  1.3016 -0.5989
  235MOL0     H31711  10.034   9.862   6.597 -0.2206  0.1284  0.9654
  235MOL0     H31712  10.285   9.832   6.537  0.1665 -0.4807 -0.9677
  235MOL0     H31713  10.642   9.629   6.654  2.0788  0.5818  0.8191
  235MOL0     H31714  10.858   9.565   6.728 -0.9941  3.0192 -1.3288
  235MOL0     H31715  11.029   9.322   6.842  2.7481  0.5582 -1.3716
  235MOL0     H31716  10.951   9.183   6.761  0.9135 -0.9119  0.0143
  235MOL0     H31717  11.183   9.158   6.628  4.4439 -0.2628  0.4006
  235MOL0     H31718  11.180   9.108   6.801  2.8292 -1.1229 -1.0362
  235MOL0     H31719  11.257   9.340   6.856  0.6169  2.0417 -0.2103
  235MOL0     H31720  11.267   9.377   6.681  0.8589  0.7799  0.9759
  235MOL0     H31721  11.442   9.215   6.637 -0.7647 -3.3788 -1.0966
  235MOL0     H31722  11.403   9.127   6.791  1.7288  0.8820  0.3851
  235MOL0     H31723  11.688   9.414   6.888  0.2921  0.5507  0.2282
  235MOL0     H31724  10.812   9.188   6.487 -2.3772  0.0925 -0.7279
  235MOL0     H31725  10.586   9.268   6.460 -1.0259  0.4604  1.9342
  236MOL0     O31726   1.910   6.476   6.113  0.3067  0.4948 -0.3960
  236MOL0     C31727   1.881   6.372   6.056  0.9008 -0.1545 -0.1612
  236MOL0     O31728   1.957   6.255   6.061  0.0465 -0.3117  0.3843
  236MOL0     C31729   2.068   6.264   6.137 -0.2927 -0.1229  0.4784
  236MOL0     C31730   2.068   6.302   6.269  0.3947  0.4548 -0.7890
  236MOL0     C31731   2.180   6.291   6.346 -0.1494  0.3808 -0.9399
  236MOL0     C31732   2.293   6.233   6.299  0.1273 -0.1188  0.3599
  236MOL0     O31733   2.405   6.250   6.375  0.1116 -0.0720  0.1964
  236MOL0     C31734   2.464   6.126   6.412  0.4336  0.3309  0.7813
  236MOL0     C31735   2.599   6.149   6.493 -0.6173  0.5267  0.2904
  236MOL0     C31736   2.586   6.261   6.590  0.0933 -0.3273 -0.0761
  236MOL0     C31737   2.694   6.281   6.693 -0.3468 -0.6001 -0.5013
  236MOL0     C31738   2.652   6.386   6.796 -0.2990  0.3608  0.3419
  236MOL0     C31739   2.762   6.404   6.897  0.3368  0.2615 -0.4649
  236MOL0     C31740   2.722   6.506   7.008  0.4411 -0.2206 -0.0365
  236MOL0     C31741   2.840   6.545   7.093 -0.3815  0.1049 -0.1224
  236MOL0     N31742   2.789   6.641   7.183 -0.3111  0.6038 -0.2884
  236MOL0     C31743   2.746   6.623   7.314 -0.4241  0.7352 -0.2635
  236MOL0     C31744   2.689   6.741   7.355 -0.0771 -0.6831  0.3517
  236MOL0     C31745   2.619   6.771   7.485  0.2124  0.2493 -0.5709
  236MOL0     C31746   2.715   6.832   7.582  0.0192 -0.7089 -0.3580
  236MOL0     C31747   2.654   6.858   7.713  0.0034 -0.8080 -0.2108
  236MOL0     C31748   2.675   6.744   7.819 -0.4575 -0.6147  0.5872
  236MOL0     O31749   2.590   6.760   7.933  0.0538  0.3450 -0.1517
  236MOL0     C31750   2.452   6.734   7.917 -0.3865 -0.3658 -0.2078
  236MOL0     C31751   2.381   6.760   8.037 -0.2380 -0.2175 -0.9105
  236MOL0     C31752   2.252   6.723   8.058  0.7159  0.1004  0.5122
  236MOL0     C31753   2.177   6.745   8.191  0.4685  0.1402  0.1560
  236MOL0     C31754   2.180   6.658   7.950  0.6539  0.2077 -0.8172
  236MOL0     C31755   2.043   6.607   7.950 -0.6220  0.1765 -0.1107
  236MOL0     O31756   1.967   6.611   7.840 -0.2450 -0.5256  0.0474
  236MOL0     C31757   1.848   6.552   7.845 -0.1842  0.0344 -0.1468
  236MOL0     C31758   1.754   6.627   7.902  0.8137  0.1988 -1.0113
  236MOL0     C31759   1.619   6.594   7.892  0.2501  0.5129 -0.0576
  236MOL0     C31760   1.583   6.478   7.820 -0.1560 -0.0740 -0.4918
  236MOL0     O31761   1.445   6.452   7.801 -0.1812 -1.2137 -0.2963
  236MOL0     C31762   1.402   6.317   7.758  0.6709 -0.0577 -0.6540
  236MOL0     C31763   1.261   6.306   7.708 -0.5092 -0.3077 -0.2811
  236MOL0     C31764   1.147   6.333   7.811  1.1746 -0.2108  0.6165
  236MOL0     C31765   1.008   6.301   7.751 -0.7962 -0.2573  0.2428
  236MOL0     C31766   0.889   6.324   7.850  0.1974 -0.3265 -0.2166
  236MOL0     C31767   0.756   6.283   7.790 -0.0528 -0.3800  0.7016
  236MOL0     C31768   0.635   6.293   7.872  0.5825 -0.2308  0.3610
  236MOL0     C31769   0.582   6.164   7.925  0.4142  1.6521  0.8227
  236MOL0    Cl31770   0.475   6.061   7.824 -0.0365 -0.5190 -0.0985
  236MOL0     C31771   1.686   6.396   7.771 -0.2065 -0.4436 -0.1608
  236MOL0     C31772   1.821   6.431   7.788  0.7538  0.1916  0.7985
  236MOL0     O31773   2.019   6.546   8.050 -0.3883 -0.5730 -0.3953
  236MOL0     C31774   2.251   6.631   7.832 -0.2344 -0.4936 -0.0453
  236MOL0     C31775   2.389   6.658   7.816 -0.8893  0.2786  0.6420
  236MOL0     N31776   2.700   6.831   7.245 -0.1680  0.4877 -0.7838
  236MOL0     N31777   2.758   6.768   7.154 -0.4862 -0.1348  0.5299
  236MOL0     C31778   2.306   6.222   6.155 -0.4502 -0.8208  1.0971
  236MOL0     C31779   2.190   6.227   6.075 -0.3911  0.1661  0.1441
  236MOL0     C31780   1.755   6.384   5.979  0.4442 -0.6150 -0.2793
  236MOL0     C31781   1.658   6.485   6.007 -0.4675 -0.3964 -0.0976
  236MOL0     C31782   1.539   6.492   5.934  0.5565 -0.1882  0.5961
  236MOL0     C31783   1.507   6.393   5.833  0.3594 -1.0494 -0.3022
  236MOL0     O31784   1.391   6.375   5.774  0.0060  0.2665 -0.3201
  236MOL0     C31785   1.285   6.459   5.817  0.2185 -0.3583 -0.5093
  236MOL0     C31786   1.152   6.384   5.792  0.9788 -0.0473 -0.0697
  236MOL0     C31787   1.128   6.372   5.643  0.5987 -0.1555 -0.2069
  236MOL0     C31788   0.993   6.331   5.603  0.4939  0.6192 -0.1937
  236MOL0     C31789   0.992   6.286   5.461  0.0770 -0.8289 -0.6675
  236MOL0     C31790   0.996   6.251   5.345  0.2011  0.0609  0.5914
  236MOL0     C31791   1.596   6.288   5.822  0.9363  0.0070 -0.6364
  236MOL0     C31792   1.720   6.281   5.889  0.2103 -0.3808  0.3542
  236MOL0     H31793   1.983   6.348   6.318  1.1449 -1.0374  2.1411
  236MOL0     H31794   2.176   6.324   6.450  2.0476 -0.1947 -0.6130
  236MOL0     H31795   2.388   6.080   6.476  1.6882  3.1083  4.6624
  236MOL0     H31796   2.480   6.069   6.320  0.1335  0.2203  0.7965
  236MOL0     H31797   2.631   6.058   6.545 -3.5292 -0.3054  0.8071
  236MOL0     H31798   2.673   6.180   6.418 -1.1524  0.6023 -0.2166
  236MOL0     H31799   2.576   6.350   6.528  0.3410  0.6280  1.2195
  236MOL0     H31800   2.494   6.250   6.649 -1.8557  0.7596 -2.7007
  236MOL0     H31801   2.715   6.182   6.736  0.3664 -0.9530 -1.6239
  236MOL0     H31802   2.784   6.312   6.640 -1.2655  2.7925 -0.3254
  236MOL0     H31803   2.632   6.487   6.759 -0.1485  0.1514 -0.3139
  236MOL0     H31804   2.565   6.341   6.845  1.7779 -2.7201  1.4371
  236MOL0     H31805   2.786   6.308   6.941  0.8887  0.0590 -1.1886
  236MOL0     H31806   2.850   6.436   6.840 -0.7384 -1.8690 -3.5731
  236MOL0     H31807   2.677   6.599   6.973  0.3326 -0.0382  0.5780
  236MOL0     H31808   2.640   6.474   7.072 -0.5347  1.1503 -0.5618
  236MOL0     H31809   2.908   6.600   7.026  0.2308  0.5348  0.8326
  236MOL0     H31810   2.883   6.458   7.143 -2.0165 -0.0277  1.1228
  236MOL0     H31811   2.752   6.539   7.383  2.8122 -0.0501 -1.3587
  236MOL0     H31812   2.541   6.845   7.465 -1.3314 -1.1882 -0.0684
  236MOL0     H31813   2.576   6.679   7.526 -0.4579  1.3560  1.3520
  236MOL0     H31814   2.744   6.925   7.531 -1.4880 -0.2071 -0.3342
  236MOL0     H31815   2.809   6.778   7.596  0.0506 -0.9193 -1.2681
  236MOL0     H31816   2.546   6.877   7.710 -0.2091 -1.9756 -0.3101
  236MOL0     H31817   2.699   6.943   7.765 -3.0355  1.2945 -0.6933
  236MOL0     H31818   2.782   6.745   7.842 -0.9316 -1.0151  3.1259
  236MOL0     H31819   2.665   6.656   7.755  2.6115 -0.5312 -0.2100
  236MOL0     H31820   2.422   6.805   8.126 -4.5949 -2.8711  2.9464
  236MOL0     H31821   2.077   6.779   8.162  0.9614  0.3906 -1.3573
  236MOL0     H31822   2.162   6.652   8.246  1.4660  1.6321  3.1341
  236MOL0     H31823   2.227   6.818   8.255 -1.7570  1.9391 -0.0027
  236MOL0     H31824   1.773   6.724   7.948 -0.4296  0.5267 -1.1490
  236MOL0     H31825   1.553   6.664   7.942 -1.0823  1.0123 -2.3734
  236MOL0     H31826   1.465   6.288   7.673  1.4207 -0.7699  0.1236
  236MOL0     H31827   1.420   6.248   7.841 -2.7285 -2.5550 -1.7434
  236MOL0     H31828   1.255   6.383   7.630 -1.5913  0.0324  0.1084
  236MOL0     H31829   1.245   6.212   7.656 -1.3413  0.5197 -1.5897
  236MOL0     H31830   1.152   6.442   7.818 -1.3086  0.2421 -2.3617
  236MOL0     H31831   1.161   6.283   7.907  1.9682  1.1604  1.2489
  236MOL0     H31832   0.990   6.350   7.655 -1.7289 -3.3260 -1.2697
  236MOL0     H31833   1.011   6.196   7.720 -0.7392  0.0286 -0.7635
  236MOL0     H31834   0.891   6.430   7.879  2.4334 -0.4476  0.2887
  236MOL0     H31835   0.897   6.260   7.938  1.0888 -0.9519 -0.7404
  236MOL0     H31836   0.739   6.346   7.702  2.0392 -1.6262 -0.6726
  236MOL0     H31837   0.776   6.185   7.748  1.1624  0.1607 -0.0437
  236MOL0     H31838   0.549   6.328   7.813 -0.5101  0.6940  2.3907
  236MOL0     H31839   0.650   6.359   7.958  1.9564 -2.8615  2.2535
  236MOL0     H31840   0.523   6.183   8.015 -0.8068  1.0844  0.1598
  236MOL0     H31841   0.664   6.094   7.943  1.1970  1.6678 -2.1747
  236MOL0     H31842   1.667   6.305   7.715 -0.4126 -1.9016  2.1245
  236MOL0     H31843   1.895   6.368   7.738 -1.0431 -1.2710 -0.1623
  236MOL0     H31844   2.215   6.564   7.755  1.7374 -1.6593 -0.0202
  236MOL0     H31845   2.445   6.620   7.732  2.9516  0.5834  2.8360
  236MOL0     H31846   2.401   6.196   6.110 -0.6749  3.0776 -2.1224
  236MOL0     H31847   2.192   6.202   5.969 -3.5307  0.8211 -0.1649
  236MOL0     H31848   1.664   6.553   6.091 -2.5466  0.1608 -0.3392
  236MOL0     H31849   1.473   6.567   5.975  1.3347 -0.3952  2.3407
  236MOL0     H31850   1.287   6.474   5.925  1.7346 -1.5828 -0.3288
  236MOL0     H31851   1.289   6.551   5.758  1.0933 -1.4626 -2.2406
  236MOL0     H31852   1.070   6.437   5.840  3.5285  2.4360  1.8944
  236MOL0     H31853   1.163   6.292   5.850  0.9120  0.4492  0.7471
  236MOL0     H31854   1.199   6.298   5.606  2.3798  0.4194  1.9317
  236MOL0     H31855   1.151   6.468   5.597  0.3718  1.6249  3.1365
  236MOL0     H31856   0.918   6.411   5.612  0.6975  1.0418 -1.8739
  236MOL0     H31857   0.945   6.254   5.664 -2.3712  1.3139 -1.3638
  236MOL0     H31858   1.006   6.215   5.245  2.7806  0.4689  0.6528
  236MOL0     H31859   1.558   6.211   5.756 -3.6919  1.7055 -0.3266
  236MOL0     H31860   1.786   6.201   5.856  2.4727  2.2253 -1.9595
  237MOL0     O31861   7.770   9.572   6.128 -0.1153 -0.3693 -0.0060
  237MOL0     C31862   7.785   9.609   6.013  0.6135  0.8106 -0.1098
  237MOL0     O31863   7.701   9.688   5.951 -0.2421 -0.5819 -0.5791
  237MOL0     C31864   7.564   9.677   5.971 -0.6073  0.7641  0.1699
  237MOL0     C31865   7.489   9.783   5.932  0.8277 -0.3257  1.1507
  237MOL0     C31866   7.347   9.769   5.943  0.3469 -0.2801 -0.9272
  237MOL0     C31867   7.282   9.650   5.987 -0.6296  0.0236 -0.4623
  237MOL0     O31868   7.145   9.650   5.984 -0.3599  1.0119  0.7372
  237MOL0     C31869   7.067   9.537   5.986 -0.3352  1.0007 -0.5779
  237MOL0     C31870   6.924   9.576   6.035  0.7474 -0.6975 -0.2232
  237MOL0     C31871   6.845   9.459   6.084 -0.8656  0.0429 -0.6792
  237MOL0     C31872   6.709   9.523   6.145 -0.0206  0.4869  0.2567
  237MOL0     C31873   6.615   9.404   6.151  0.5178  0.5357 -0.4774
  237MOL0     C31874   6.469   9.447   6.172  0.2064 -0.1489  0.4128
  237MOL0     C31875   6.366   9.349   6.254  0.0584 -0.0654  0.1941
  237MOL0     C31876   6.225   9.409   6.293  0.2260 -0.6028  0.8942
  237MOL0     N31877   6.145   9.305   6.369 -0.5594 -0.2174  0.0178
  237MOL0     C31878   6.037   9.232   6.323  0.6690 -0.1240 -0.6370
  237MOL0     C31879   5.994   9.162   6.434 -0.2018 -0.3933  0.5798
  237MOL0     C31880   5.871   9.074   6.455  0.3924  0.4083  0.6366
  237MOL0     C31881   5.743   9.147   6.442 -0.6783 -0.0428 -0.0694
  237MOL0     C31882   5.721   9.267   6.537 -0.1128  0.4523 -0.0178
  237MOL0     C31883   5.569   9.297   6.551  0.5094  0.4769 -0.5064
  237MOL0     O31884   5.504   9.192   6.631 -0.1176  0.1329  0.9862
  237MOL0     C31885   5.372   9.167   6.609 -0.8263 -1.0556  0.6111
  237MOL0     C31886   5.308   9.044   6.623 -0.1506 -0.4461 -0.1122
  237MOL0     C31887   5.167   9.034   6.630  0.0534  0.2436  0.1959
  237MOL0     C31888   5.097   8.899   6.675 -0.2642 -0.5661  0.3358
  237MOL0     C31889   5.092   9.151   6.608  0.4135  0.5643  0.1712
  237MOL0     C31890   4.946   9.151   6.603 -1.3187  0.2780  0.4033
  237MOL0     O31891   4.890   9.241   6.679  0.5265 -0.1294 -0.0443
  237MOL0     C31892   4.756   9.269   6.665  0.4048  0.1501  0.3706
  237MOL0     C31893   4.659   9.190   6.722  0.3425  0.4735 -0.4996
  237MOL0     C31894   4.523   9.212   6.684 -0.3973  0.0109 -0.0345
  237MOL0     C31895   4.489   9.313   6.594 -0.4088 -0.9108 -0.9459
  237MOL0     O31896   4.354   9.335   6.579  0.1908  0.6346  0.1762
  237MOL0     C31897   4.309   9.353   6.442 -0.1732 -0.1842  0.2361
  237MOL0     C31898   4.193   9.459   6.441 -0.1561 -0.0716  0.9264
  237MOL0     C31899   4.069   9.431   6.510  0.0561 -0.4091 -0.3618
  237MOL0     C31900   3.963   9.535   6.491 -0.7800  0.3376 -0.2410
  237MOL0     C31901   3.857   9.527   6.604  0.1559  0.2471 -0.0507
  237MOL0     C31902   3.729   9.602   6.552 -1.0864 -0.3002  0.1967
  237MOL0     C31903   3.628   9.641   6.662  0.5751 -0.0738  0.7718
  237MOL0     C31904   3.484   9.640   6.612 -0.5216  0.1946 -0.3295
  237MOL0    Cl31905   3.476   9.755   6.478 -0.0396 -0.0063 -0.0311
  237MOL0     C31906   4.584   9.389   6.539 -0.8720  0.1556  0.5633
  237MOL0     C31907   4.718   9.368   6.575 -0.3450  0.2124 -0.0123
  237MOL0     O31908   4.891   9.074   6.521  0.1945 -0.6172 -0.0223
  237MOL0     C31909   5.154   9.271   6.586 -0.5765  0.0051 -0.6522
  237MOL0     C31910   5.294   9.278   6.592  0.0552 -0.4304 -0.2370
  237MOL0     N31911   6.065   9.195   6.539  0.2650 -0.3194  0.4856
  237MOL0     N31912   6.155   9.282   6.497 -0.0868  0.2878 -0.3019
  237MOL0     C31913   7.357   9.549   6.029 -0.0905 -0.4371 -0.4078
  237MOL0     C31914   7.495   9.556   6.016  0.3173 -0.6808  0.8602
  237MOL0     C31915   7.911   9.560   5.941 -0.2016 -0.1094 -0.1122
  237MOL0     C31916   7.941   9.595   5.805 -0.3692 -0.3609  0.2411
  237MOL0     C31917   8.066   9.569   5.751  0.1822  0.7460  0.4103
  237MOL0     C31918   8.163   9.503   5.831 -0.8844  1.2590  0.4970
  237MOL0     O31919   8.290   9.464   5.774  0.4865  0.0702 -0.4016
  237MOL0     C31920   8.400   9.444   5.870 -0.5227  0.0139  0.7888
  237MOL0     C31921   8.542   9.454   5.797  0.8698  0.4288 -0.8111
  237MOL0     C31922   8.631   9.410   5.906 -0.4952 -0.0653 -0.0764
  237MOL0     C31923   8.776   9.448   5.889 -0.6254  0.0880  0.5119
  237MOL0     C31924   8.860   9.374   5.978 -0.5831 -0.3098 -1.5437
  237MOL0     C31925   8.951   9.316   6.038  0.1331 -0.9271  0.0200
  237MOL0     C31926   8.128   9.462   5.965  0.1233  0.9336 -0.1292
  237MOL0     C31927   8.003   9.492   6.022  0.1013 -0.1832  0.3018
  237MOL0     H31928   7.529   9.876   5.893 -4.5845  2.3837  1.0086
  237MOL0     H31929   7.285   9.850   5.906  0.4090 -0.9593 -2.6119
  237MOL0     H31930   7.069   9.477   5.894 -2.7620  2.2785 -1.5656
  237MOL0     H31931   7.105   9.476   6.068  4.5188  3.6250 -0.4934
  237MOL0     H31932   6.936   9.645   6.119 -0.3233  1.9597 -2.1147
  237MOL0     H31933   6.864   9.622   5.956 -2.6673 -2.7233  0.9845
  237MOL0     H31934   6.819   9.389   6.004  1.5010 -3.0658  1.0533
  237MOL0     H31935   6.888   9.415   6.174 -2.6334  1.6130  1.0104
  237MOL0     H31936   6.721   9.569   6.243  1.4124 -3.3721  2.0969
  237MOL0     H31937   6.669   9.598   6.077  0.2241 -0.7718 -1.3658
  237MOL0     H31938   6.618   9.335   6.066  1.5375  2.2088 -1.8809
  237MOL0     H31939   6.655   9.353   6.238  1.0290  0.6645 -0.6325
  237MOL0     H31940   6.477   9.544   6.223 -3.2508  1.2381 -1.2925
  237MOL0     H31941   6.435   9.467   6.070  0.2110  3.9625  1.0263
  237MOL0     H31942   6.332   9.268   6.189 -1.1369  2.8826 -3.1389
  237MOL0     H31943   6.414   9.312   6.345  1.5297 -2.6295 -1.4873
  237MOL0     H31944   6.172   9.452   6.208  2.1286  1.0476  0.4705
  237MOL0     H31945   6.249   9.496   6.355  1.5772 -1.1822  1.2361
  237MOL0     H31946   5.999   9.233   6.221  1.7379  3.6101 -1.1405
  237MOL0     H31947   5.871   8.987   6.387 -2.6994 -0.1761  1.2214
  237MOL0     H31948   5.884   9.043   6.559 -3.3891  2.1522  1.7855
  237MOL0     H31949   5.663   9.072   6.450  0.3073 -1.0831  0.4017
  237MOL0     H31950   5.747   9.186   6.340 -0.9598  1.0115  0.3155
  237MOL0     H31951   5.781   9.344   6.489  2.1994 -1.1861  0.0884
  237MOL0     H31952   5.767   9.238   6.632 -2.3958 -2.9059  0.2537
  237MOL0     H31953   5.526   9.315   6.452  1.1060  0.8248 -0.7089
  237MOL0     H31954   5.551   9.386   6.612 -2.7499 -0.5663  0.2444
  237MOL0     H31955   5.374   8.959   6.640  0.8676  0.3495  0.0391
  237MOL0     H31956   5.037   8.861   6.592  0.4431  1.5356 -1.2155
  237MOL0     H31957   5.159   8.813   6.704  0.3091  0.2255  1.5540
  237MOL0     H31958   5.037   8.931   6.761  2.2125 -2.5951  3.0462
  237MOL0     H31959   4.699   9.109   6.782 -1.4019  0.5236  0.8052
  237MOL0     H31960   4.452   9.143   6.727  1.5856 -1.8622  0.4238
  237MOL0     H31961   4.389   9.372   6.370  0.5393 -1.1858  0.7374
  237MOL0     H31962   4.262   9.259   6.411  1.5220 -0.2907 -2.3435
  237MOL0     H31963   4.237   9.543   6.496 -0.0899  0.3495  0.2555
  237MOL0     H31964   4.167   9.491   6.339 -0.1843  1.4879  1.3971
  237MOL0     H31965   4.092   9.413   6.615  2.4274 -2.1492 -1.0991
  237MOL0     H31966   4.031   9.331   6.485  3.5631 -3.1146  3.6322
  237MOL0     H31967   4.011   9.633   6.481 -1.1886  0.2980 -4.4170
  237MOL0     H31968   3.914   9.517   6.395 -1.6912 -0.6671  0.3903
  237MOL0     H31969   3.887   9.577   6.697 -1.1511  1.5299 -0.2829
  237MOL0     H31970   3.825   9.426   6.628 -3.3888  1.4910  1.0157
  237MOL0     H31971   3.756   9.698   6.506  1.1727 -1.0185 -0.1132
  237MOL0     H31972   3.690   9.542   6.470  1.9056  0.2559 -1.8065
  237MOL0     H31973   3.657   9.746   6.675  1.0537  0.1292 -1.4545
  237MOL0     H31974   3.643   9.591   6.758 -0.1350 -2.3047 -0.2021
  237MOL0     H31975   3.415   9.659   6.695  0.1576 -0.0511  0.2987
  237MOL0     H31976   3.448   9.547   6.568 -1.1178  0.8027 -1.1487
  237MOL0     H31977   4.555   9.470   6.473  2.8626  0.5507 -0.8990
  237MOL0     H31978   4.791   9.438   6.536 -1.4547  2.0718  1.1400
  237MOL0     H31979   5.098   9.361   6.563  1.3194  0.5700 -3.7252
  237MOL0     H31980   5.339   9.377   6.594  0.6600 -0.6577 -1.4535
  237MOL0     H31981   7.327   9.457   6.077  0.2810 -1.0402 -1.3139
  237MOL0     H31982   7.549   9.468   6.051 -1.1571 -0.8931  2.7310
  237MOL0     H31983   7.866   9.632   5.736  4.6330  0.6571 -5.4960
  237MOL0     H31984   8.089   9.596   5.649 -5.6810  4.1157 -0.4473
  237MOL0     H31985   8.395   9.515   5.953  3.5576  0.8380  0.5370
  237MOL0     H31986   8.394   9.345   5.916  2.7991 -0.0472  1.3409
  237MOL0     H31987   8.571   9.558   5.780  0.8837  0.6173  0.3108
  237MOL0     H31988   8.555   9.390   5.709  1.5606  1.0568 -1.1782
  237MOL0     H31989   8.635   9.305   5.936  0.2244  0.1891  0.7473
  237MOL0     H31990   8.603   9.464   5.997  0.3111 -1.2690  0.9190
  237MOL0     H31991   8.794   9.556   5.885 -0.7365  0.1299  1.0977
  237MOL0     H31992   8.795   9.416   5.786  0.4519 -0.9961  1.0206
  237MOL0     H31993   9.022   9.260   6.096 -0.9996 -0.4633  1.9431
  237MOL0     H31994   8.199   9.404   6.022 -0.3251  0.1218 -0.3792
  237MOL0     H31995   7.968   9.451   6.116  0.9190  1.1410  1.2239
  238MOL0     O31996   8.023   9.219   0.931 -0.0984 -0.3896  0.2615
  238MOL0     C31997   8.042   9.131   0.848 -0.1018  0.3001  0.3630
  238MOL0     O31998   7.947   9.033   0.821 -0.4849 -0.0206  0.0585
  238MOL0     C31999   7.817   9.068   0.836  0.1621  0.4954 -0.0297
  238MOL0     C32000   7.758   9.044   0.958 -0.3604 -0.5607 -0.0222
  238MOL0     C32001   7.622   9.091   0.977  0.7067 -0.3858  0.8469
  238MOL0     C32002   7.557   9.170   0.885  1.3729 -0.1678 -0.5680
  238MOL0     O32003   7.433   9.224   0.911 -0.5876 -0.3790 -0.6044
  238MOL0     C32004   7.341   9.123   0.969 -0.2546 -0.2311  0.6443
  238MOL0     C32005   7.187   9.163   0.957 -0.4063  0.9969 -0.7061
  238MOL0     C32006   7.095   9.047   1.009 -0.1360  0.2010 -0.1617
  238MOL0     C32007   6.945   9.056   0.962  0.0042 -0.6171 -0.5589
  238MOL0     C32008   6.924   9.002   0.816  0.8172  0.1982 -0.3056
  238MOL0     C32009   6.942   8.850   0.811  0.2682 -0.8746 -0.1236
  238MOL0     C32010   7.062   8.794   0.732 -0.8008 -0.2626  0.0598
  238MOL0     C32011   7.060   8.807   0.578  0.3598  0.5703 -0.7940
  238MOL0     N32012   6.963   8.720   0.504  0.0604 -0.1215  0.2217
  238MOL0     C32013   6.993   8.595   0.463  0.2092  0.0600  0.7572
  238MOL0     C32014   6.875   8.545   0.434 -0.8656  0.1784 -0.3411
  238MOL0     C32015   6.862   8.405   0.386 -0.3727 -0.5800  0.3989
  238MOL0     C32016   6.811   8.402   0.240 -0.6918 -0.0276 -0.0622
  238MOL0     C32017   6.737   8.276   0.207  0.1533 -0.4017 -0.1759
  238MOL0     C32018   6.696   8.266   0.057 -0.0431 -0.5747 -0.0692
  238MOL0     O32019   6.817   8.233  -0.012  0.6405  0.5063  0.2907
  238MOL0     C32020   6.816   8.190  -0.143  0.5061  0.4656 -0.5121
  238MOL0     C32021   6.936   8.157  -0.212  0.3378 -0.7984 -0.3106
  238MOL0     C32022   6.940   8.123  -0.347  0.6842  0.4637  0.8092
  238MOL0     C32023   7.076   8.094  -0.409  0.3419  0.2541  0.2508
  238MOL0     C32024   6.818   8.135  -0.417  0.1948 -0.2746  0.2298
  238MOL0     C32025   6.809   8.117  -0.563 -0.1865  0.8483  0.3399
  238MOL0     O32026   6.709   8.186  -0.626  0.1424  0.2244 -0.0729
  238MOL0     C32027   6.693   8.155  -0.752 -0.5930  0.5824 -0.8394
  238MOL0     C32028   6.626   8.033  -0.785  0.2682 -0.5387  0.4082
  238MOL0     C32029   6.611   8.013  -0.924  0.5276 -0.2103  0.3587
  238MOL0     C32030   6.651   8.102  -1.021  0.0249 -0.3462  0.1600
  238MOL0     O32031   6.617   8.085  -1.153 -0.5701 -0.4827 -0.4044
  238MOL0     C32032   6.533   7.972  -1.205 -0.5788 -0.6359  0.3919
  238MOL0     C32033   6.389   8.007  -1.204  0.1375  0.9371 -0.3674
  238MOL0     C32034   6.358   8.099  -1.317  0.5082 -0.8433  0.0260
  238MOL0     C32035   6.215   8.160  -1.306 -0.3086  1.0671 -0.4180
  238MOL0     C32036   6.162   8.186  -1.450  0.8729  0.7521  0.0786
  238MOL0     C32037   6.029   8.255  -1.458 -0.3671  0.0299 -0.5415
  238MOL0     C32038   5.921   8.187  -1.364 -0.2376 -0.3454 -0.5350
  238MOL0     C32039   5.788   8.191  -1.435  0.4153  0.6389  0.7178
  238MOL0    Cl32040   5.656   8.102  -1.346  0.0788  0.3405  0.4877
  238MOL0     C32041   6.728   8.216  -0.990 -0.4558 -0.0559 -0.0763
  238MOL0     C32042   6.754   8.236  -0.852 -0.2065  0.3042 -0.1349
  238MOL0     O32043   6.872   8.034  -0.622  0.7211  0.9011  0.1311
  238MOL0     C32044   6.697   8.163  -0.352  0.2199  0.2141 -0.4034
  238MOL0     C32045   6.696   8.188  -0.214  0.2778  0.2516 -0.9326
  238MOL0     N32046   6.769   8.632   0.460 -0.0796  0.4879 -0.0472
  238MOL0     N32047   6.828   8.738   0.492 -0.1906 -0.7585 -0.3439
  238MOL0     C32048   7.633   9.212   0.767 -0.5001 -0.1884  0.1021
  238MOL0     C32049   7.755   9.150   0.741  0.5623  1.8933 -0.1405
  238MOL0     C32050   8.161   9.120   0.755  0.1358 -0.7643  0.4776
  238MOL0     C32051   8.281   9.174   0.795  0.0951 -0.3270 -0.1387
  238MOL0     C32052   8.393   9.175   0.708  0.2711 -0.7265  0.0785
  238MOL0     C32053   8.395   9.127   0.577 -0.7371 -0.2196 -0.3687
  238MOL0     O32054   8.524   9.124   0.516  0.3008  0.4044 -0.0802
  238MOL0     C32055   8.521   9.063   0.381 -0.0359  0.0465 -0.4900
  238MOL0     C32056   8.635   9.106   0.286 -0.7539  0.0761 -0.3912
  238MOL0     C32057   8.777   9.097   0.351 -0.4187 -0.5381  0.5917
  238MOL0     C32058   8.896   9.157   0.273  0.2784  0.1671  0.1984
  238MOL0     C32059   8.877   9.301   0.251  0.4100  0.7527  0.2253
  238MOL0     C32060   8.852   9.423   0.233  0.3630  1.1239  0.0898
  238MOL0     C32061   8.276   9.050   0.541 -0.0620 -0.3425  0.0049
  238MOL0     C32062   8.164   9.062   0.620 -0.1806  0.1233  0.0969
  238MOL0     H32063   7.797   8.984   1.040 -0.4724  1.0837  1.2761
  238MOL0     H32064   7.571   9.046   1.062 -0.8958 -0.4593 -0.1082
  238MOL0     H32065   7.370   9.023   0.936  2.1607  0.8616 -0.7892
  238MOL0     H32066   7.359   9.123   1.077 -0.8490 -0.8181  0.7493
  238MOL0     H32067   7.158   9.245   1.023  2.4320 -0.6200  2.8759
  238MOL0     H32068   7.150   9.168   0.854 -3.0665 -2.5557 -0.1366
  238MOL0     H32069   7.132   8.947   0.987  0.0461  0.2181  0.0623
  238MOL0     H32070   7.092   9.051   1.119  1.8647 -0.6156 -0.0356
  238MOL0     H32071   6.877   9.001   1.027 -1.6230  0.6701 -1.1176
  238MOL0     H32072   6.920   9.162   0.956 -0.1619 -0.5736  0.6212
  238MOL0     H32073   6.820   9.024   0.791  1.2915  1.7931 -1.0009
  238MOL0     H32074   6.988   9.056   0.745 -0.0986  0.5092 -0.9132
  238MOL0     H32075   6.934   8.826   0.917 -0.9504  0.9181  0.2473
  238MOL0     H32076   6.853   8.798   0.773  0.2444 -0.9680  0.0544
  238MOL0     H32077   7.157   8.820   0.780 -0.8922 -0.0773  0.1416
  238MOL0     H32078   7.053   8.686   0.739 -1.2012 -0.1800  0.8760
  238MOL0     H32079   7.158   8.787   0.534 -0.4858 -1.0947 -2.0085
  238MOL0     H32080   7.027   8.910   0.563 -3.2907 -0.6941 -2.6659
  238MOL0     H32081   7.085   8.539   0.449  0.5175  0.0778  2.4844
  238MOL0     H32082   6.962   8.361   0.389  0.5336  1.4522  1.8887
  238MOL0     H32083   6.796   8.348   0.453 -0.6591 -2.7637 -1.5872
  238MOL0     H32084   6.895   8.408   0.171  0.6531 -1.0664  1.4174
  238MOL0     H32085   6.746   8.489   0.229  1.2189  1.7111  1.7163
  238MOL0     H32086   6.652   8.272   0.275  0.4680  4.0034  0.7793
  238MOL0     H32087   6.799   8.189   0.231  2.8576  1.3348 -0.4698
  238MOL0     H32088   6.678   8.369   0.022  4.1302  0.9556  1.6617
  238MOL0     H32089   6.608   8.201   0.052  1.3826 -2.7381  1.3976
  238MOL0     H32090   7.027   8.151  -0.154  0.0295  1.5283  0.5374
  238MOL0     H32091   7.082   8.013  -0.482 -1.9777 -0.9970  1.3506
  238MOL0     H32092   7.107   8.188  -0.455 -1.0270  0.6197  0.0313
  238MOL0     H32093   7.141   8.075  -0.323 -3.6604 -4.0914  2.8086
  238MOL0     H32094   6.592   7.968  -0.705 -0.5763  2.0017  2.2512
  238MOL0     H32095   6.547   7.930  -0.953  0.3344 -1.1820  3.3075
  238MOL0     H32096   6.568   7.935  -1.302 -0.1512 -1.1273  0.7233
  238MOL0     H32097   6.554   7.882  -1.146  1.7374 -1.4018 -1.4361
  238MOL0     H32098   6.331   7.916  -1.218 -0.3747  0.9264  1.5521
  238MOL0     H32099   6.360   8.053  -1.109 -1.0045 -2.7628  1.2462
  238MOL0     H32100   6.380   8.062  -1.417  0.6497  0.8576 -0.5933
  238MOL0     H32101   6.428   8.183  -1.311  1.0349 -1.0627 -2.2301
  238MOL0     H32102   6.148   8.095  -1.249 -0.4728  1.9429  0.4039
  238MOL0     H32103   6.232   8.247  -1.242  0.8320 -0.0835  0.9151
  238MOL0     H32104   6.147   8.086  -1.491 -0.4660  0.6833  0.6946
  238MOL0     H32105   6.229   8.243  -1.516 -0.5563  2.5307  0.0961
  238MOL0     H32106   6.044   8.360  -1.433 -1.8216 -0.4850  3.0925
  238MOL0     H32107   5.999   8.247  -1.563  1.0017 -1.0697 -0.8755
  238MOL0     H32108   5.914   8.240  -1.268  1.5919 -1.4509  0.2662
  238MOL0     H32109   5.943   8.081  -1.352 -2.6762 -1.0142 -1.4394
  238MOL0     H32110   5.810   8.139  -1.528 -0.6263 -0.0578  0.8388
  238MOL0     H32111   5.752   8.293  -1.452 -1.7793 -0.0293  1.0341
  238MOL0     H32112   6.764   8.281  -1.069  0.5479 -0.6825 -0.1572
  238MOL0     H32113   6.811   8.325  -0.828 -0.2417  0.4028 -0.4204
  238MOL0     H32114   6.603   8.163  -0.406 -1.7548  3.2720  2.6331
  238MOL0     H32115   6.601   8.205  -0.164 -0.5253 -0.3114 -2.2017
  238MOL0     H32116   7.592   9.288   0.702 -0.9628  2.4724  3.2575
  238MOL0     H32117   7.812   9.172   0.652  1.4080  2.7995  0.5987
  238MOL0     H32118   8.282   9.216   0.895 -1.1266  1.8323 -0.9734
  238MOL0     H32119   8.487   9.216   0.744  1.4797 -3.0797 -0.2218
  238MOL0     H32120   8.528   8.954   0.393  0.5958  0.0663 -0.6242
  238MOL0     H32121   8.430   9.079   0.322  0.0194  1.0644 -0.3182
  238MOL0     H32122   8.610   9.207   0.253 -3.3246 -1.2752 -3.1286
  238MOL0     H32123   8.642   9.051   0.191 -3.4889  2.5232 -2.1617
  238MOL0     H32124   8.803   8.992   0.366  1.7936  0.3110  3.7437
  238MOL0     H32125   8.788   9.139   0.452  3.8447  0.6496 -0.1778
  238MOL0     H32126   8.911   9.117   0.173  3.6235  3.1675 -0.6993
  238MOL0     H32127   8.995   9.147   0.319  1.3487 -1.9510 -2.3275
  238MOL0     H32128   8.830   9.527   0.226 -0.4280  0.8892 -1.1959
  238MOL0     H32129   8.269   9.000   0.445 -1.3842 -2.4702  1.1256
  238MOL0     H32130   8.073   9.021   0.576 -0.1160 -0.7694  0.7811
  239MOL0     O32131   5.712   5.337   1.816  0.2584 -0.3303 -0.2739
  239MOL0     C32132   5.641   5.241   1.791  0.9181 -0.4980 -0.3202
  239MOL0     O32133   5.685   5.116   1.766 -0.7422 -0.3731 -0.6836
  239MOL0     C32134   5.818   5.080   1.787  0.5344 -0.2791 -0.4011
  239MOL0     C32135   5.929   5.151   1.748 -0.0693 -0.3298 -0.1636
  239MOL0     C32136   6.057   5.099   1.763  0.5817  0.1128 -0.3366
  239MOL0     C32137   6.077   4.983   1.834 -0.2706 -0.3921 -0.0734
  239MOL0     O32138   6.205   4.966   1.870 -0.6735  0.1103 -0.0261
  239MOL0     C32139   6.251   4.838   1.844  0.3989  0.0369 -0.4978
  239MOL0     C32140   6.400   4.824   1.849 -0.4180  0.1655  0.4073
  239MOL0     C32141   6.455   4.871   1.984  0.0617  0.7896  0.7734
  239MOL0     C32142   6.580   4.958   1.963 -0.3268  0.2954  0.3784
  239MOL0     C32143   6.635   5.003   2.096 -0.0415  0.2967 -0.1752
  239MOL0     C32144   6.764   5.080   2.070  0.4807  0.5270  0.3348
  239MOL0     C32145   6.821   5.126   2.204  0.4616 -0.8194  0.3847
  239MOL0     C32146   6.952   5.210   2.190  0.5734 -1.1808  0.1013
  239MOL0     N32147   7.010   5.242   2.315 -0.2463  0.1551  0.2502
  239MOL0     C32148   7.051   5.151   2.414 -0.6170  1.6249 -0.0795
  239MOL0     C32149   7.102   5.236   2.513 -0.3455  0.0251  0.4897
  239MOL0     C32150   7.155   5.186   2.647 -0.3899  0.5572 -0.0711
  239MOL0     C32151   7.282   5.249   2.696 -0.3439 -0.5579  0.4677
  239MOL0     C32152   7.405   5.201   2.619  0.0010  0.0042  0.1179
  239MOL0     C32153   7.531   5.267   2.675 -0.5447 -0.1517  0.3182
  239MOL0     O32154   7.560   5.204   2.801 -0.7304  0.3215 -0.1791
  239MOL0     C32155   7.693   5.227   2.842  0.7955  0.6430  0.0630
  239MOL0     C32156   7.732   5.145   2.945 -0.1832  0.1285  0.7788
  239MOL0     C32157   7.866   5.148   2.994 -0.6821 -0.0858  0.6144
  239MOL0     C32158   7.904   5.044   3.093  0.1607 -0.2589  0.8190
  239MOL0     C32159   7.957   5.246   2.949 -0.3123  0.3540  1.1683
  239MOL0     C32160   8.092   5.270   3.019 -0.3586  1.0895 -0.2811
  239MOL0     O32161   8.119   5.212   3.143 -0.3000  0.6625  0.7198
  239MOL0     C32162   8.240   5.217   3.193 -0.4015 -0.2843 -0.4230
  239MOL0     C32163   8.311   5.096   3.220 -0.4868 -0.3817  0.5618
  239MOL0     C32164   8.441   5.109   3.285  0.0126  0.1557  0.6191
  239MOL0     C32165   8.492   5.237   3.310  0.2155  0.5495 -0.7364
  239MOL0     O32166   8.604   5.243   3.390 -0.2193 -0.1303  0.1259
  239MOL0     C32167   8.597   5.323   3.513 -0.0682 -0.1020  0.0949
  239MOL0     C32168   8.742   5.334   3.567 -0.3725 -0.2896 -0.0517
  239MOL0     C32169   8.763   5.423   3.692  0.4981  0.5073  0.2802
  239MOL0     C32170   8.904   5.400   3.743 -0.4318 -0.1518 -1.1035
  239MOL0     C32171   9.000   5.491   3.672  0.4413  0.0349  0.3246
  239MOL0     C32172   9.149   5.477   3.709 -0.7232  0.3191  0.1714
  239MOL0     C32173   9.244   5.543   3.603 -0.4168 -0.0632  0.0476
  239MOL0     C32174   9.265   5.695   3.643 -0.1905 -0.9183 -0.9246
  239MOL0    Cl32175   9.364   5.683   3.797 -0.2878  0.1526  0.1238
  239MOL0     C32176   8.405   5.347   3.291  0.6214 -0.5328  0.2315
  239MOL0     C32177   8.286   5.337   3.231  0.3461 -0.5543 -0.0173
  239MOL0     O32178   8.176   5.323   2.944  0.0968  0.3674 -0.2345
  239MOL0     C32179   7.918   5.334   2.843 -0.1209  0.6955  0.0076
  239MOL0     C32180   7.790   5.316   2.793 -0.1702  0.4144  0.0562
  239MOL0     N32181   7.091   5.367   2.470 -0.1228 -0.4525  0.0508
  239MOL0     N32182   7.041   5.369   2.353 -0.8599 -0.6776  0.7672
  239MOL0     C32183   5.971   4.904   1.865  0.3147 -0.4717  0.6698
  239MOL0     C32184   5.841   4.953   1.842  0.1191 -0.5215  0.1611
  239MOL0     C32185   5.495   5.254   1.782 -0.2065 -0.4963  0.3574
  239MOL0     C32186   5.437   5.354   1.859  0.3138 -0.5381 -0.2665
  239MOL0     C32187   5.298   5.379   1.845 -0.1345  0.3950 -0.2554
  239MOL0     C32188   5.209   5.288   1.773 -1.1706  0.5662  0.2225
  239MOL0     O32189   5.072   5.315   1.767 -0.3246  0.6229 -0.7968
  239MOL0     C32190   4.984   5.200   1.736 -0.1830 -1.2925 -0.7913
  239MOL0     C32191   4.836   5.242   1.752  0.8280  0.6480  0.4596
  239MOL0     C32192   4.742   5.122   1.703  0.4353 -1.1309 -0.0791
  239MOL0     C32193   4.624   5.186   1.649  0.3392 -0.1530  0.5460
  239MOL0     C32194   4.523   5.090   1.595 -0.5577  0.3594 -0.7038
  239MOL0     C32195   4.436   5.019   1.554  0.1774  0.1453 -0.0715
  239MOL0     C32196   5.263   5.185   1.711  0.3826  0.2362  0.6772
  239MOL0     C32197   5.402   5.167   1.718 -0.5254 -0.2129 -0.3920
  239MOL0     H32198   5.941   5.251   1.707 -1.0378 -0.1955 -0.1268
  239MOL0     H32199   6.139   5.165   1.736  1.6523  0.1708  2.7198
  239MOL0     H32200   6.213   4.768   1.919  0.5724  0.6815  0.1916
  239MOL0     H32201   6.215   4.811   1.744  0.2091 -0.0936 -0.3959
  239MOL0     H32202   6.408   4.716   1.832 -3.5079 -0.0825 -0.0729
  239MOL0     H32203   6.435   4.878   1.760 -0.3799 -1.7735 -0.8261
  239MOL0     H32204   6.374   4.921   2.036  0.0493  0.9189  0.6317
  239MOL0     H32205   6.492   4.780   2.032  0.3314  1.0375  1.0421
  239MOL0     H32206   6.651   4.898   1.904 -0.3471 -0.1404  0.7922
  239MOL0     H32207   6.549   5.047   1.908 -1.2262 -0.6584 -0.6872
  239MOL0     H32208   6.564   5.072   2.142  0.8302  0.4003  1.0496
  239MOL0     H32209   6.651   4.920   2.165  0.6696  1.1234  0.6871
  239MOL0     H32210   6.836   5.016   2.018 -0.3462  2.1358 -3.1014
  239MOL0     H32211   6.748   5.173   2.014 -1.0700  0.0581 -0.0550
  239MOL0     H32212   6.736   5.174   2.254 -0.6416 -2.5224  0.2148
  239MOL0     H32213   6.846   5.041   2.268 -0.6520  0.1358  2.1675
  239MOL0     H32214   6.926   5.300   2.133  0.6096 -2.5035 -2.0846
  239MOL0     H32215   7.017   5.151   2.125  1.7553  1.4892 -1.3252
  239MOL0     H32216   7.047   5.043   2.403 -0.6930  1.1370  3.6361
  239MOL0     H32217   7.077   5.205   2.722 -0.6417 -0.4172 -0.0700
  239MOL0     H32218   7.171   5.078   2.654 -0.4873  0.5822  0.5394
  239MOL0     H32219   7.302   5.237   2.803  3.1351  2.2667  0.3227
  239MOL0     H32220   7.261   5.355   2.677  0.5557 -0.7410 -1.7797
  239MOL0     H32221   7.405   5.220   2.512 -3.3835 -2.0192 -0.3806
  239MOL0     H32222   7.402   5.094   2.641 -0.3034  0.2189  1.2028
  239MOL0     H32223   7.508   5.373   2.687 -0.9299 -0.4672  2.9401
  239MOL0     H32224   7.609   5.251   2.600  0.4134  0.5403  1.1445
  239MOL0     H32225   7.675   5.060   2.980 -0.2342  0.0923  0.6074
  239MOL0     H32226   7.998   4.995   3.064  0.8132 -0.6453  3.3701
  239MOL0     H32227   7.923   5.094   3.188 -2.3684 -1.2981  1.9538
  239MOL0     H32228   7.823   4.972   3.108 -0.7118  0.1541 -1.4098
  239MOL0     H32229   8.267   4.999   3.201 -0.5926 -0.4110  0.9547
  239MOL0     H32230   8.505   5.026   3.312  0.2031 -0.4392 -1.4421
  239MOL0     H32231   8.561   5.424   3.489  2.4881  1.1688  1.1279
  239MOL0     H32232   8.532   5.286   3.592  2.4491 -0.1670  2.2706
  239MOL0     H32233   8.771   5.231   3.593  1.3626  0.0292 -0.6517
  239MOL0     H32234   8.806   5.373   3.488 -0.7066  0.4870  0.0531
  239MOL0     H32235   8.681   5.391   3.758  0.7775 -0.3124  0.2423
  239MOL0     H32236   8.748   5.525   3.655  1.2935  0.3028 -0.6196
  239MOL0     H32237   8.907   5.430   3.848  0.3937 -0.6642 -0.9669
  239MOL0     H32238   8.927   5.293   3.745  0.1711 -0.0425  1.6046
  239MOL0     H32239   8.966   5.593   3.690 -1.2696 -0.8610  2.7098
  239MOL0     H32240   8.987   5.478   3.564  0.2994 -0.4934  0.4025
  239MOL0     H32241   9.168   5.515   3.810  0.8851  2.3455 -0.8350
  239MOL0     H32242   9.172   5.370   3.716  0.7575  0.6138  0.2180
  239MOL0     H32243   9.216   5.530   3.498  3.5136 -0.6217 -1.1169
  239MOL0     H32244   9.336   5.485   3.616  0.3575  1.3369  0.9952
  239MOL0     H32245   9.166   5.729   3.673 -0.3789 -1.4448 -0.9404
  239MOL0     H32246   9.313   5.755   3.566 -0.3094 -1.1659 -1.1923
  239MOL0     H32247   8.427   5.448   3.321 -4.1769  0.9622 -0.4325
  239MOL0     H32248   8.226   5.427   3.223 -0.5039 -1.2666 -2.8024
  239MOL0     H32249   7.981   5.419   2.819  1.6125 -0.0093  1.8671
  239MOL0     H32250   7.768   5.385   2.712  1.2896 -0.6750 -1.3228
  239MOL0     H32251   5.978   4.800   1.894  0.5110  0.1336  2.9865
  239MOL0     H32252   5.756   4.895   1.876  0.0104 -0.0737  0.6763
  239MOL0     H32253   5.492   5.417   1.929 -0.3610 -1.2963  0.9816
  239MOL0     H32254   5.273   5.476   1.887  4.0552  1.6351 -0.1391
  239MOL0     H32255   5.007   5.172   1.633 -0.1464 -0.0908 -1.1279
  239MOL0     H32256   5.009   5.116   1.801  0.3640  0.3534  1.2384
  239MOL0     H32257   4.824   5.341   1.707 -1.9751  1.4234  2.6128
  239MOL0     H32258   4.807   5.259   1.856 -1.3342  1.0792 -0.1600
  239MOL0     H32259   4.713   5.061   1.789 -0.4885 -0.3091  0.2038
  239MOL0     H32260   4.792   5.070   1.621 -0.2536 -0.3808 -0.9871
  239MOL0     H32261   4.648   5.242   1.558 -3.2665  2.2956  0.8875
  239MOL0     H32262   4.577   5.255   1.719  0.0487 -1.0875  1.2875
  239MOL0     H32263   4.373   4.948   1.504  1.0418 -0.3613 -0.4685
  239MOL0     H32264   5.204   5.110   1.660 -1.6044  1.7157  0.7120
  239MOL0     H32265   5.441   5.089   1.655  0.6767 -1.0855  1.3500
  240MOL0     O32266   0.818   6.329  10.949  0.3317  0.0399  0.4166
  240MOL0     C32267   0.880   6.406  10.870 -0.2054  0.3824 -0.1841
  240MOL0     O32268   0.822   6.513  10.818 -0.3143 -0.2613 -0.5472
  240MOL0     C32269   0.687   6.524  10.794 -0.3025 -0.4331  0.5524
  240MOL0     C32270   0.634   6.657  10.798  0.2773 -0.5870 -0.8088
  240MOL0     C32271   0.501   6.692  10.756  0.1449  0.0460 -0.1412
  240MOL0     C32272   0.419   6.590  10.709 -0.0821  0.4417 -0.0921
  240MOL0     O32273   0.287   6.631  10.683 -0.0774 -0.2544  0.4332
  240MOL0     C32274   0.183   6.524  10.656 -0.1994 -1.1985 -0.3312
  240MOL0     C32275   0.048   6.583  10.667 -0.0683 -0.0221 -0.5104
  240MOL0     C32276   0.007   6.693  10.557 -0.1577  0.2572  0.1872
  240MOL0     C32277  -0.014   6.632  10.417 -0.4403  1.0560 -0.5781
  240MOL0     C32278  -0.027   6.730  10.303  0.8905 -1.1598 -0.2001
  240MOL0     C32279  -0.103   6.860  10.343  0.6788 -0.3464  0.7356
  240MOL0     C32280  -0.251   6.843  10.381  0.8074 -0.9782  0.6672
  240MOL0     C32281  -0.305   6.980  10.433  0.5114 -0.1510 -0.0091
  240MOL0     N32282  -0.402   6.970  10.542  0.6737 -0.6869  0.9129
  240MOL0     C32283  -0.530   7.043  10.528 -0.7708 -0.4953 -0.5191
  240MOL0     C32284  -0.573   7.069  10.653  0.4728 -0.0849 -0.0266
  240MOL0     C32285  -0.690   7.159  10.687  0.5904  0.4168 -0.0039
  240MOL0     C32286  -0.830   7.104  10.641 -0.9458 -0.7015  0.1604
  240MOL0     C32287  -0.893   7.212  10.550 -0.3305 -0.8093 -0.2328
  240MOL0     C32288  -1.033   7.164  10.511  0.3342  0.0619  0.1713
  240MOL0     O32289  -1.139   7.212  10.594  0.5942  1.0861 -0.8130
  240MOL0     C32290  -1.243   7.130  10.609 -0.8963  0.3391  0.7670
  240MOL0     C32291  -1.311   7.144  10.724  1.2518 -0.8180  0.4192
  240MOL0     C32292  -1.415   7.061  10.756  0.8403  0.6519  0.4981
  240MOL0     C32293  -1.464   7.056  10.898 -0.0046  0.8334 -0.4761
  240MOL0     C32294  -1.473   6.974  10.659 -0.0591  0.5892  0.1652
  240MOL0     C32295  -1.599   6.886  10.673  0.3381 -0.0778 -0.4130
  240MOL0     O32296  -1.609   6.782  10.596  0.3076 -0.2515  0.2558
  240MOL0     C32297  -1.723   6.703  10.588 -0.0805 -0.1920  0.2515
  240MOL0     C32298  -1.777   6.678  10.464 -0.7586  0.3833  1.1441
  240MOL0     C32299  -1.863   6.574  10.449 -0.2377 -0.1584  0.5053
  240MOL0     C32300  -1.925   6.500  10.557 -0.0350 -0.1780  0.0270
  240MOL0     O32301  -2.017   6.402  10.528 -0.1142 -0.7956  0.1610
  240MOL0     C32302  -1.971   6.263  10.510  0.0708 -1.0048 -0.0196
  240MOL0     C32303  -2.097   6.196  10.456 -0.0668 -0.0384  0.3374
  240MOL0     C32304  -2.084   6.039  10.457 -0.5275 -0.1883 -0.0772
  240MOL0     C32305  -2.202   5.955  10.420 -0.0933  0.2329 -0.0427
  240MOL0     C32306  -2.187   5.809  10.481  0.6310 -0.5417  0.7506
  240MOL0     C32307  -2.298   5.707  10.433  0.2993  0.1009  0.0540
  240MOL0     C32308  -2.447   5.756  10.461 -0.5401 -0.4135 -0.2961
  240MOL0     C32309  -2.500   5.836  10.342 -0.2987  0.8858 -0.7836
  240MOL0    Cl32310  -2.682   5.837  10.375 -0.0725  0.3336 -0.1591
  240MOL0     C32311  -1.879   6.532  10.685  0.5383  0.3651 -0.3827
  240MOL0     C32312  -1.777   6.632  10.698  1.3061  0.1851  0.2120
  240MOL0     O32313  -1.668   6.909  10.770  0.0547  0.0768  0.2562
  240MOL0     C32314  -1.401   6.964  10.538  0.1696  0.0214 -0.2901
  240MOL0     C32315  -1.286   7.038  10.519 -0.1926 -0.0551  0.5886
  240MOL0     N32316  -0.480   7.002  10.737 -0.7638 -0.2864  0.6612
  240MOL0     N32317  -0.373   6.953  10.674  0.3482  0.4575 -0.9726
  240MOL0     C32318   0.465   6.453  10.709 -0.1829 -0.5635  0.3931
  240MOL0     C32319   0.600   6.425  10.751  0.2068  0.7302 -0.0043
  240MOL0     C32320   1.031   6.400  10.852  0.6278  0.7584  0.1617
  240MOL0     C32321   1.090   6.505  10.783 -0.8691 -0.3522  0.0555
  240MOL0     C32322   1.235   6.513  10.759  0.5869 -0.2042 -0.5216
  240MOL0     C32323   1.314   6.419  10.803  0.1066  0.0896  0.3433
  240MOL0     O32324   1.446   6.447  10.789 -0.5254  0.0374  0.2056
  240MOL0     C32325   1.530   6.353  10.866  0.7467  0.3350 -1.1722
  240MOL0     C32326   1.670   6.410  10.895  0.8244 -0.2212  0.6513
  240MOL0     C32327   1.745   6.434  10.763  0.1051 -0.7743  0.5522
  240MOL0     C32328   1.895   6.398  10.793  0.0807 -0.4715 -0.1018
  240MOL0     C32329   1.982   6.428  10.679 -0.0322  0.5956 -0.2612
  240MOL0     C32330   2.053   6.444  10.590 -0.1712 -0.0144 -0.2173
  240MOL0     C32331   1.259   6.301  10.864  0.4766 -0.3089  0.3175
  240MOL0     C32332   1.114   6.294  10.889  0.5028  0.7199 -0.5856
  240MOL0     H32333   0.701   6.730  10.842  0.5414 -1.6849  0.6873
  240MOL0     H32334   0.465   6.794  10.751 -1.5117 -0.5064 -0.4126
  240MOL0     H32335   0.193   6.486  10.554 -1.8744  1.0232 -1.4263
  240MOL0     H32336   0.178   6.447  10.733 -0.8816 -0.5413  0.3082
  240MOL0     H32337  -0.024   6.501  10.659  0.8995 -0.7673 -2.0622
  240MOL0     H32338   0.028   6.614  10.770 -5.7258 -2.6028 -0.4377
  240MOL0     H32339  -0.081   6.747  10.591 -0.1876  2.7116 -3.2839
  240MOL0     H32340   0.088   6.766  10.557  0.3657 -0.3166  0.4277
  240MOL0     H32341   0.071   6.564  10.403  0.5216  1.4643  2.5439
  240MOL0     H32342  -0.109   6.577  10.424 -0.2996  1.0276  2.1838
  240MOL0     H32343   0.070   6.767  10.266  1.2203  1.1246  2.6220
  240MOL0     H32344  -0.078   6.688  10.216 -1.2241  2.0026 -0.6533
  240MOL0     H32345  -0.039   6.911  10.416  1.9149 -2.9687  1.5851
  240MOL0     H32346  -0.115   6.923  10.254 -0.8198  0.0154  1.1712
  240MOL0     H32347  -0.315   6.818  10.296  1.9509 -1.7302  0.0011
  240MOL0     H32348  -0.260   6.773  10.465 -0.0760 -1.1334  0.4495
  240MOL0     H32349  -0.351   7.031  10.347 -1.2158 -1.0694  0.3248
  240MOL0     H32350  -0.220   7.038  10.472  0.2267  1.5512 -1.7479
  240MOL0     H32351  -0.571   7.070  10.431 -4.2085  0.4123  1.0413
  240MOL0     H32352  -0.689   7.161  10.797  2.8148 -0.4486  0.0630
  240MOL0     H32353  -0.666   7.258  10.647 -2.2516  1.3881  0.4852
  240MOL0     H32354  -0.899   7.087  10.724  0.5035 -1.4593  1.2609
  240MOL0     H32355  -0.815   7.007  10.593  0.4291  0.2867 -1.4952
  240MOL0     H32356  -0.837   7.233  10.459 -0.9022  1.0624 -0.1867
  240MOL0     H32357  -0.899   7.305  10.606  2.2408 -0.4109 -0.5078
  240MOL0     H32358  -1.030   7.055  10.496 -0.5359  0.1029 -0.3678
  240MOL0     H32359  -1.057   7.201  10.411 -1.5523 -0.8927  0.2186
  240MOL0     H32360  -1.270   7.210  10.800 -1.1038  0.2630  0.8490
  240MOL0     H32361  -1.572   7.076  10.901 -0.8669 -3.0274  1.6686
  240MOL0     H32362  -1.444   6.958  10.942  2.2103  1.7504  0.7018
  240MOL0     H32363  -1.423   7.140  10.956 -3.1431  0.5872  2.4170
  240MOL0     H32364  -1.737   6.730  10.378 -3.5383 -1.0513 -1.2119
  240MOL0     H32365  -1.895   6.535  10.353  2.8455 -1.2981 -0.1475
  240MOL0     H32366  -1.885   6.250  10.443  1.2656 -2.5930  1.7140
  240MOL0     H32367  -1.935   6.219  10.604  2.9975  2.1159  0.5227
  240MOL0     H32368  -2.184   6.230  10.513 -1.0110 -1.2370 -0.3454
  240MOL0     H32369  -2.108   6.230  10.352 -0.1567 -1.3873 -0.1129
  240MOL0     H32370  -2.062   6.021  10.563 -0.5288  0.5176  0.0509
  240MOL0     H32371  -2.004   5.996  10.397 -1.5289  1.7260 -2.9713
  240MOL0     H32372  -2.295   5.997  10.459 -1.1101 -1.1773 -0.8392
  240MOL0     H32373  -2.199   5.959  10.311  0.8040  1.1281  0.0077
  240MOL0     H32374  -2.195   5.819  10.590 -0.7492  0.8870  0.5556
  240MOL0     H32375  -2.091   5.762  10.461  0.3828 -1.7316  2.2079
  240MOL0     H32376  -2.296   5.683  10.326 -0.7863 -0.8329  0.2217
  240MOL0     H32377  -2.275   5.611  10.480 -1.2496 -0.1197  0.4233
  240MOL0     H32378  -2.441   5.826  10.545 -3.0470  0.8561 -1.0811
  240MOL0     H32379  -2.519   5.680  10.493 -2.4324  1.8858  1.2460
  240MOL0     H32380  -2.483   5.787  10.246 -0.6326 -1.0939  0.1057
  240MOL0     H32381  -2.472   5.941  10.337  0.0179  0.9702  1.6668
  240MOL0     H32382  -1.919   6.475  10.768  0.0366  2.0671  0.5953
  240MOL0     H32383  -1.746   6.647  10.801  1.1779 -0.4453  0.3499
  240MOL0     H32384  -1.420   6.913  10.444  2.8895 -0.5636 -0.6181
  240MOL0     H32385  -1.239   7.021  10.423 -1.4399  0.7179 -0.1949
  240MOL0     H32386   0.396   6.382  10.665 -0.5030  0.0279 -0.0571
  240MOL0     H32387   0.620   6.318  10.748  0.4302  0.7298  1.1330
  240MOL0     H32388   1.033   6.584  10.737 -0.6915 -0.0719  0.3127
  240MOL0     H32389   1.282   6.587  10.696 -0.7083  1.0600 -0.0600
  240MOL0     H32390   1.498   6.329  10.968  3.4029  0.4036 -0.2373
  240MOL0     H32391   1.551   6.263  10.807 -2.0242 -0.9363 -0.4025
  240MOL0     H32392   1.723   6.332  10.951  1.3083 -0.4419 -0.1028
  240MOL0     H32393   1.655   6.504  10.949 -0.5053 -0.8212  1.3816
  240MOL0     H32394   1.748   6.539  10.734 -0.5470 -1.0909 -0.7167
  240MOL0     H32395   1.702   6.377  10.681  0.0470  2.0679 -1.5336
  240MOL0     H32396   1.895   6.290  10.813  0.7515 -0.1903  1.5120
  240MOL0     H32397   1.928   6.453  10.881 -0.9314  1.5716 -0.9508
  240MOL0     H32398   2.100   6.455  10.495  1.2328 -0.7240  0.3723
  240MOL0     H32399   1.329   6.226  10.900 -0.2315 -0.9215  0.4295
  240MOL0     H32400   1.075   6.207  10.941  0.1680  1.2892  0.1280
  241MOL0     O32401   0.244   9.453   6.186  0.2048  0.1839 -0.1083
  241MOL0     C32402   0.223   9.409   6.298  0.6232  0.2688 -0.5940
  241MOL0     O32403   0.101   9.379   6.356  0.9715  0.6013 -0.9878
  241MOL0     C32404  -0.012   9.346   6.277  0.2364 -0.0655 -0.0154
  241MOL0     C32405  -0.131   9.361   6.347  0.1869 -0.5510  0.2164
  241MOL0     C32406  -0.255   9.343   6.290 -0.3580  0.2924  0.5414
  241MOL0     C32407  -0.269   9.299   6.155  0.4725  1.0992 -0.1475
  241MOL0     O32408  -0.392   9.266   6.100  0.3818 -0.1242  0.2762
  241MOL0     C32409  -0.493   9.205   6.183 -0.3296 -0.4842  1.0688
  241MOL0     C32410  -0.600   9.139   6.098  0.2746 -0.6559 -0.1780
  241MOL0     C32411  -0.727   9.098   6.173 -0.5760  0.5681  0.7046
  241MOL0     C32412  -0.802   8.985   6.102 -1.4703 -0.4295  0.3668
  241MOL0     C32413  -0.921   8.945   6.191  0.8969  0.0488  0.6444
  241MOL0     C32414  -1.010   8.827   6.136 -0.3392  0.1936  0.3633
  241MOL0     C32415  -1.112   8.786   6.251 -0.7657 -0.1231 -0.2711
  241MOL0     C32416  -1.223   8.888   6.270 -0.6972  0.4295 -0.5253
  241MOL0     N32417  -1.311   8.852   6.382  0.3761 -0.3720  0.6521
  241MOL0     C32418  -1.442   8.805   6.375 -0.3627  0.3557 -0.5183
  241MOL0     C32419  -1.488   8.796   6.504 -1.3180  0.2582  0.3520
  241MOL0     C32420  -1.610   8.720   6.543 -0.5440  0.9060  0.2131
  241MOL0     C32421  -1.739   8.761   6.467  0.5679  0.4818 -0.7654
  241MOL0     C32422  -1.859   8.680   6.517 -0.7221  1.3646 -0.1237
  241MOL0     C32423  -1.969   8.774   6.555  0.1511  0.8415 -0.1131
  241MOL0     O32424  -2.081   8.686   6.584  0.4815 -0.8420  0.2242
  241MOL0     C32425  -2.189   8.748   6.635 -0.2924  0.4989 -0.7803
  241MOL0     C32426  -2.212   8.882   6.623  0.3452 -0.0314 -0.7527
  241MOL0     C32427  -2.339   8.943   6.658  0.1295 -0.5605 -0.4538
  241MOL0     C32428  -2.344   9.097   6.656 -0.1579 -0.6689 -0.1515
  241MOL0     C32429  -2.442   8.859   6.705 -0.1959 -0.0482  0.3425
  241MOL0     C32430  -2.576   8.910   6.762  0.2795 -0.4575  0.1347
  241MOL0     O32431  -2.613   8.841   6.869  0.7879 -0.5546 -0.6893
  241MOL0     C32432  -2.711   8.893   6.960 -0.0847 -0.2989 -0.1978
  241MOL0     C32433  -2.695   8.852   7.095 -0.2945 -0.4154 -0.3086
  241MOL0     C32434  -2.767   8.913   7.199 -0.5274  0.2344  0.6437
  241MOL0     C32435  -2.855   9.020   7.166  0.6358  1.1968 -0.9324
  241MOL0     O32436  -2.930   9.078   7.267  0.5245  0.0303  0.5162
  241MOL0     C32437  -2.875   9.111   7.399 -0.4930  1.0572  0.5105
  241MOL0     C32438  -2.767   9.212   7.405 -0.2323  0.0133 -0.2366
  241MOL0     C32439  -2.848   9.338   7.363  0.3697  0.4443  0.3812
  241MOL0     C32440  -2.747   9.451   7.342 -0.0698  0.3762 -0.1022
  241MOL0     C32441  -2.796   9.579   7.282 -0.3590 -0.5815 -0.5552
  241MOL0     C32442  -2.895   9.651   7.370 -0.0035 -0.8764 -0.3170
  241MOL0     C32443  -2.960   9.764   7.292 -0.0585 -0.4699  0.1842
  241MOL0     C32444  -3.061   9.836   7.378  0.3085 -0.3092 -0.3034
  241MOL0    Cl32445  -3.124   9.971   7.295 -0.3294 -0.1540  0.2961
  241MOL0     C32446  -2.866   9.059   7.039 -1.0098 -0.6797 -0.3667
  241MOL0     C32447  -2.803   8.993   6.937 -0.0978  0.2038 -0.3561
  241MOL0     O32448  -2.615   9.026   6.724  0.1388 -0.4061  1.2992
  241MOL0     C32449  -2.415   8.724   6.717 -0.3423  0.0935  0.1666
  241MOL0     C32450  -2.291   8.662   6.676  0.0916 -0.2488 -0.3814
  241MOL0     N32451  -1.387   8.852   6.587  0.7662 -0.5724 -0.5384
  241MOL0     N32452  -1.285   8.878   6.515  0.6257  0.6648 -0.9024
  241MOL0     C32453  -0.146   9.278   6.083  1.2245 -0.3894  0.5664
  241MOL0     C32454  -0.028   9.297   6.143 -0.0443  0.3086 -0.0830
  241MOL0     C32455   0.335   9.380   6.395  0.6635  0.2147  0.4585
  241MOL0     C32456   0.326   9.275   6.478  0.5139  0.8558 -0.1196
  241MOL0     C32457   0.421   9.237   6.578 -0.5548 -0.8207  0.4819
  241MOL0     C32458   0.542   9.316   6.584 -0.2632  0.6620  0.6274
  241MOL0     O32459   0.633   9.268   6.672 -0.2655 -0.6894  0.7895
  241MOL0     C32460   0.767   9.321   6.674  0.1435 -0.1568 -0.0234
  241MOL0     C32461   0.865   9.222   6.598  0.7102 -0.2888 -0.5764
  241MOL0     C32462   0.918   9.108   6.696  0.1685  0.3520  0.5458
  241MOL0     C32463   1.044   9.047   6.650  0.3695 -0.2728  1.0388
  241MOL0     C32464   1.162   9.115   6.703 -0.0368  0.2647 -0.6904
  241MOL0     C32465   1.262   9.171   6.746  1.5331  0.2242  0.9949
  241MOL0     C32466   0.559   9.429   6.495 -0.1205  0.6744 -0.9496
  241MOL0     C32467   0.447   9.461   6.411 -0.2588  0.3738  0.7256
  241MOL0     H32468  -0.132   9.400   6.448 -1.0019 -1.2143  0.4825
  241MOL0     H32469  -0.346   9.367   6.345 -2.2334 -2.3971 -1.2094
  241MOL0     H32470  -0.440   9.139   6.252  4.4934  1.7611 -0.0844
  241MOL0     H32471  -0.537   9.285   6.244  0.8410  1.0679 -0.0644
  241MOL0     H32472  -0.627   9.210   6.020 -0.3886  0.5821  1.1206
  241MOL0     H32473  -0.561   9.044   6.058 -1.3578 -1.2537 -0.4201
  241MOL0     H32474  -0.706   9.061   6.274 -0.6630  1.3392  1.0124
  241MOL0     H32475  -0.779   9.193   6.186  1.4591  1.7636  0.5322
  241MOL0     H32476  -0.834   9.008   6.000 -2.3950 -1.5317  0.3898
  241MOL0     H32477  -0.738   8.896   6.098 -0.5973  0.2313 -0.7968
  241MOL0     H32478  -0.883   8.913   6.289  2.0854  1.6865  0.7630
  241MOL0     H32479  -0.990   9.029   6.208  1.6472  1.5713 -2.9046
  241MOL0     H32480  -1.064   8.864   6.048  1.2900  4.9863  1.0455
  241MOL0     H32481  -0.940   8.745   6.120  0.2337  0.3539  1.8412
  241MOL0     H32482  -1.157   8.692   6.216  2.2953 -0.9870 -2.2728
  241MOL0     H32483  -1.061   8.764   6.345 -2.3855  0.0954  0.6990
  241MOL0     H32484  -1.280   8.914   6.180  1.0959  1.7762 -1.3232
  241MOL0     H32485  -1.184   8.986   6.297  0.4644 -0.2269  0.2545
  241MOL0     H32486  -1.502   8.768   6.292 -1.4550  0.0661  0.3795
  241MOL0     H32487  -1.596   8.611   6.539 -1.0585  0.7975  1.0162
  241MOL0     H32488  -1.619   8.736   6.651  0.1723 -5.5121  1.6313
  241MOL0     H32489  -1.726   8.735   6.362  3.8333  1.5065 -0.7061
  241MOL0     H32490  -1.766   8.867   6.472 -2.9610 -0.2142 -2.1424
  241MOL0     H32491  -1.841   8.606   6.596 -2.5286 -1.4181 -2.1055
  241MOL0     H32492  -1.894   8.612   6.439 -2.6986 -0.0124  1.8103
  241MOL0     H32493  -1.995   8.836   6.469  0.2238 -1.5495 -1.9617
  241MOL0     H32494  -1.943   8.836   6.641 -1.3840  0.2086  0.8715
  241MOL0     H32495  -2.135   8.953   6.592  0.7935 -0.6828 -1.1485
  241MOL0     H32496  -2.261   9.138   6.598 -1.9152  0.2362 -2.1827
  241MOL0     H32497  -2.427   9.150   6.607  2.3878  4.2166  0.2672
  241MOL0     H32498  -2.327   9.138   6.756  0.4745  0.8771 -0.8499
  241MOL0     H32499  -2.617   8.785   7.130  0.5093  0.3755 -0.5439
  241MOL0     H32500  -2.752   8.876   7.300 -2.2059 -4.4539 -0.5929
  241MOL0     H32501  -2.961   9.145   7.458 -2.2618 -0.5744 -0.9706
  241MOL0     H32502  -2.834   9.026   7.454 -0.6395  0.6272 -0.0348
  241MOL0     H32503  -2.732   9.221   7.508 -0.2533  3.3265 -0.4127
  241MOL0     H32504  -2.686   9.186   7.336 -0.6943 -3.1432  0.2570
  241MOL0     H32505  -2.923   9.365   7.438 -0.8809  0.5157 -0.8570
  241MOL0     H32506  -2.891   9.324   7.264  0.2909  2.8334  0.0274
  241MOL0     H32507  -2.707   9.463   7.443  0.2661 -1.7140  0.0470
  241MOL0     H32508  -2.668   9.413   7.277 -2.2650 -2.3349 -1.4173
  241MOL0     H32509  -2.840   9.555   7.184 -2.7168 -1.0802  0.5500
  241MOL0     H32510  -2.710   9.642   7.260  0.0956 -0.5036  1.3089
  241MOL0     H32511  -2.974   9.590   7.414 -0.4976  1.1043  1.7172
  241MOL0     H32512  -2.840   9.677   7.461  0.5714 -3.1129  0.0237
  241MOL0     H32513  -2.996   9.717   7.200  1.7519  1.5504 -1.6479
  241MOL0     H32514  -2.885   9.836   7.259 -1.1977 -0.0170 -1.5821
  241MOL0     H32515  -3.005   9.859   7.470 -0.2272  1.3618 -0.3681
  241MOL0     H32516  -3.135   9.760   7.405 -1.2925 -0.0052 -3.4054
  241MOL0     H32517  -2.935   9.142   7.025 -1.8635 -1.2174  0.5094
  241MOL0     H32518  -2.816   9.039   6.839 -0.5071 -3.1472 -2.0326
  241MOL0     H32519  -2.485   8.652   6.759  1.0534 -2.5506 -1.7252
  241MOL0     H32520  -2.276   8.555   6.669 -3.9404 -1.0149  0.4960
  241MOL0     H32521  -0.150   9.237   5.983 -0.3268 -2.4389  1.3884
  241MOL0     H32522   0.057   9.290   6.075  0.0125  0.0479  0.0157
  241MOL0     H32523   0.234   9.217   6.478  1.6645 -1.1063  1.6077
  241MOL0     H32524   0.413   9.149   6.641  3.5987 -2.3455 -0.8065
  241MOL0     H32525   0.761   9.422   6.632  0.4340 -0.7684 -1.5983
  241MOL0     H32526   0.811   9.329   6.774 -0.0400 -1.8750  0.2287
  241MOL0     H32527   0.951   9.284   6.572  1.4921 -0.7863  0.7655
  241MOL0     H32528   0.821   9.186   6.504  4.0873 -3.1324 -1.2508
  241MOL0     H32529   0.840   9.031   6.706 -0.8071  1.3431  0.7778
  241MOL0     H32530   0.937   9.159   6.791  0.3282 -1.2226  1.4000
  241MOL0     H32531   1.051   9.042   6.541 -0.2510 -6.2036  0.9272
  241MOL0     H32532   1.037   8.945   6.689 -1.0377 -0.3152  0.7202
  241MOL0     H32533   1.344   9.235   6.772  1.8873  0.2100 -0.0340
  241MOL0     H32534   0.641   9.499   6.483 -0.2996  0.7631 -1.6928
  241MOL0     H32535   0.443   9.539   6.335  0.9294 -1.6892 -1.6165
  242MOL0     O32536   8.633  11.138   1.987  1.2572 -0.0496  0.4887
  242MOL0     C32537   8.667  11.101   1.876 -0.2896 -0.7859 -0.6164
  242MOL0     O32538   8.591  11.069   1.774 -0.3138  0.0995 -0.2263
  242MOL0     C32539   8.455  11.045   1.803 -0.2682  0.4413 -0.8836
  242MOL0     C32540   8.410  10.921   1.849  0.4362  0.6541 -0.5044
  242MOL0     C32541   8.276  10.887   1.851  0.1044 -0.4556 -0.3212
  242MOL0     C32542   8.181  10.988   1.817  0.7896  0.3249 -0.8727
  242MOL0     O32543   8.047  10.962   1.832 -0.3084  0.2109  0.1075
  242MOL0     C32544   8.002  10.913   1.954 -0.4457 -0.2494 -0.4048
  242MOL0     C32545   7.892  10.807   1.942 -0.6290  0.1401 -0.0488
  242MOL0     C32546   7.772  10.860   1.866  0.0391  0.5113 -0.4363
  242MOL0     C32547   7.649  10.764   1.865  1.0234 -0.2972  0.4939
  242MOL0     C32548   7.538  10.825   1.781 -0.5807  0.2756 -0.5526
  242MOL0     C32549   7.420  10.750   1.759  0.4312  0.2207 -0.7233
  242MOL0     C32550   7.327  10.724   1.874  0.2609 -0.4786 -0.0804
  242MOL0     C32551   7.253  10.845   1.915  0.5451 -0.2955  0.1198
  242MOL0     N32552   7.120  10.849   1.861  1.3285 -0.4511 -0.9796
  242MOL0     C32553   7.083  10.805   1.737 -0.2871  0.2835  0.7885
  242MOL0     C32554   6.950  10.799   1.733  0.4817  0.1298 -0.1338
  242MOL0     C32555   6.852  10.749   1.625 -0.6709 -0.2246 -0.6000
  242MOL0     C32556   6.839  10.854   1.521  0.3851 -0.2579 -0.1746
  242MOL0     C32557   6.748  10.782   1.420 -0.5552 -0.1280  0.1847
  242MOL0     C32558   6.746  10.870   1.296  0.9715 -0.8966  0.9374
  242MOL0     O32559   6.669  10.792   1.208 -0.4558 -0.0774 -0.1329
  242MOL0     C32560   6.548  10.828   1.164  0.6244 -0.0811  0.1237
  242MOL0     C32561   6.439  10.869   1.249  0.0344 -0.0971  0.2175
  242MOL0     C32562   6.311  10.896   1.200 -0.5168 -0.8960  1.2402
  242MOL0     C32563   6.211  10.929   1.302 -0.6386 -0.3672  0.4188
  242MOL0     C32564   6.285  10.893   1.061  0.0259  0.2148  0.2541
  242MOL0     C32565   6.149  10.911   1.004 -0.0436 -0.7767 -0.2040
  242MOL0     O32566   6.041  10.904   1.085 -0.1955 -0.5666 -0.6095
  242MOL0     C32567   5.919  10.918   1.030 -0.5207 -0.0026 -0.0475
  242MOL0     C32568   5.863  11.053   1.042  0.5529  0.1310 -0.4047
  242MOL0     C32569   5.734  11.082   0.989  0.2982 -0.1863 -0.7245
  242MOL0     C32570   5.656  10.981   0.942  0.0231  0.3508  0.6057
  242MOL0     O32571   5.529  10.999   0.897 -0.1231 -0.0622  0.3384
  242MOL0     C32572   5.443  11.095   0.961 -0.0070 -0.8266 -0.4110
  242MOL0     C32573   5.300  11.100   0.908 -0.2477  0.4721 -0.2495
  242MOL0     C32574   5.232  11.235   0.940 -0.1376 -0.0490 -0.8271
  242MOL0     C32575   5.090  11.269   0.894  0.7424 -0.5068 -0.4137
  242MOL0     C32576   4.980  11.168   0.934 -0.4745  0.3615  0.7219
  242MOL0     C32577   4.842  11.196   0.870 -1.4536 -0.3303  0.6437
  242MOL0     C32578   4.748  11.084   0.892  0.4742 -0.0189  0.6083
  242MOL0     C32579   4.602  11.112   0.855  1.3624 -0.6378 -0.3475
  242MOL0    Cl32580   4.555  11.224   0.985 -0.1695  0.0259 -0.2150
  242MOL0     C32581   5.703  10.849   0.937  0.0030 -0.0637  0.5616
  242MOL0     C32582   5.835  10.820   0.974  0.6713  0.1880 -0.5591
  242MOL0     O32583   6.145  10.942   0.883  0.2529  0.3965  0.0962
  242MOL0     C32584   6.398  10.856   0.973 -0.6724 -0.3542 -1.0790
  242MOL0     C32585   6.526  10.832   1.026  0.4316 -0.4342  0.2201
  242MOL0     N32586   6.900  10.857   1.854 -0.0051 -0.2718 -0.7315
  242MOL0     N32587   7.002  10.877   1.927 -0.1328  0.2279 -0.5914
  242MOL0     C32588   8.224  11.112   1.776  0.0946 -0.0710 -0.4161
  242MOL0     C32589   8.361  11.130   1.754  0.6881 -0.4643 -0.2500
  242MOL0     C32590   8.809  11.112   1.835  0.0239  0.2970 -0.9443
  242MOL0     C32591   8.863  11.076   1.711  0.2393  0.7493 -0.7421
  242MOL0     C32592   8.999  11.082   1.682 -0.0546 -0.0585 -0.6833
  242MOL0     C32593   9.077  11.134   1.782 -0.0919  0.2046 -0.0487
  242MOL0     O32594   9.213  11.153   1.767  0.1662  0.0556 -0.2092
  242MOL0     C32595   9.262  11.216   1.641  0.5590 -0.3659 -0.1010
  242MOL0     C32596   9.314  11.109   1.546  0.0050  0.1921 -0.0901
  242MOL0     C32597   9.422  11.020   1.600 -0.0489  0.4006 -0.5497
  242MOL0     C32598   9.544  11.079   1.662  0.4128 -0.2989  0.5966
  242MOL0     C32599   9.603  11.176   1.572 -0.1168 -0.9544  0.6093
  242MOL0     C32600   9.641  11.260   1.490 -0.2316  1.4458 -0.0976
  242MOL0     C32601   9.020  11.191   1.897  0.8423 -0.5812  0.3256
  242MOL0     C32602   8.888  11.175   1.929 -0.3837  0.3831  0.0285
  242MOL0     H32603   8.468  10.835   1.881  0.3262 -0.3829 -2.9047
  242MOL0     H32604   8.237  10.787   1.871  1.4833 -0.6092  2.0908
  242MOL0     H32605   8.084  10.866   2.009  0.2277  0.9162 -0.3843
  242MOL0     H32606   7.966  10.999   2.012  1.9889  1.5335 -1.3498
  242MOL0     H32607   7.925  10.717   1.890 -1.0866  0.5283 -1.0307
  242MOL0     H32608   7.858  10.777   2.042 -0.0774 -1.6691 -0.3573
  242MOL0     H32609   7.732  10.952   1.912  2.3490  2.3278 -1.8263
  242MOL0     H32610   7.803  10.881   1.764  1.6921 -3.2908 -0.8703
  242MOL0     H32611   7.673  10.667   1.819  0.3139 -0.6907  0.9297
  242MOL0     H32612   7.607  10.744   1.964 -4.6344 -2.0658 -1.8575
  242MOL0     H32613   7.522  10.921   1.832  0.3067 -0.1620  0.5848
  242MOL0     H32614   7.577  10.848   1.682 -1.8109  2.4387 -0.6015
  242MOL0     H32615   7.353  10.786   1.681  1.0883 -0.6172 -1.7072
  242MOL0     H32616   7.455  10.648   1.736  0.2039 -0.5780  2.1185
  242MOL0     H32617   7.265  10.639   1.844  2.0026 -2.5505  1.8577
  242MOL0     H32618   7.385  10.692   1.960  4.4518  2.9541 -1.3267
  242MOL0     H32619   7.308  10.929   1.872  4.2312 -2.2325  0.6811
  242MOL0     H32620   7.246  10.856   2.024  0.3496 -0.6882  0.1457
  242MOL0     H32621   7.145  10.763   1.658 -0.8656 -3.1374  2.0218
  242MOL0     H32622   6.883  10.650   1.588  0.2596 -1.0053  2.0025
  242MOL0     H32623   6.756  10.743   1.677  0.8465  1.8925  2.7539
  242MOL0     H32624   6.935  10.881   1.475 -0.2333  1.3108 -0.6285
  242MOL0     H32625   6.788  10.940   1.566  0.6401  0.7266 -1.7108
  242MOL0     H32626   6.651  10.783   1.469 -0.6674 -0.1630 -0.0341
  242MOL0     H32627   6.772  10.680   1.387  1.1931  0.2293  0.2665
  242MOL0     H32628   6.846  10.879   1.252  1.4753 -0.6005  2.1231
  242MOL0     H32629   6.715  10.973   1.312 -0.2896 -1.0845 -0.0723
  242MOL0     H32630   6.457  10.860   1.355  0.2800 -2.1976  0.0422
  242MOL0     H32631   6.149  10.842   1.330  0.7776 -1.9726 -1.1895
  242MOL0     H32632   6.258  10.952   1.398  0.2396 -0.2268 -0.0452
  242MOL0     H32633   6.158  11.020   1.273  1.3279  0.2174 -1.4980
  242MOL0     H32634   5.926  11.131   1.084  0.0028 -0.8430  2.5071
  242MOL0     H32635   5.696  11.184   0.985  2.2514  0.6532  0.4953
  242MOL0     H32636   5.439  11.073   1.068  1.0150  1.3065  0.1142
  242MOL0     H32637   5.491  11.193   0.960 -0.3590 -0.6490 -1.4203
  242MOL0     H32638   5.303  11.087   0.799  2.9830  3.0615 -0.6201
  242MOL0     H32639   5.244  11.017   0.953 -1.2371  0.2767 -1.7375
  242MOL0     H32640   5.290  11.317   0.897  1.0508  0.3205  1.3108
  242MOL0     H32641   5.237  11.248   1.049 -0.9002 -1.3072 -0.6217
  242MOL0     H32642   5.067  11.368   0.932  0.8464 -0.9255  0.8016
  242MOL0     H32643   5.087  11.281   0.785 -0.7634  2.7653 -0.1241
  242MOL0     H32644   4.984  11.165   1.043  0.4237  1.0629  0.7231
  242MOL0     H32645   5.006  11.070   0.892 -1.5648  0.8488 -1.2138
  242MOL0     H32646   4.791  11.278   0.923 -1.9904 -0.3700  0.1893
  242MOL0     H32647   4.861  11.214   0.764  1.7031 -1.3239  0.9474
  242MOL0     H32648   4.752  11.049   0.996  0.1547 -1.7472  0.0811
  242MOL0     H32649   4.792  11.011   0.823 -1.6738 -0.2919 -0.5574
  242MOL0     H32650   4.550  11.016   0.856  0.7971 -0.3997 -2.5697
  242MOL0     H32651   4.589  11.167   0.762 -0.9991  0.1341  0.3672
  242MOL0     H32652   5.633  10.772   0.906 -0.1241  0.7254 -1.2751
  242MOL0     H32653   5.871  10.719   0.959 -1.4696 -0.4847 -1.6586
  242MOL0     H32654   6.391  10.854   0.865  0.9613 -0.8382 -1.1988
  242MOL0     H32655   6.613  10.808   0.966 -0.0535 -2.1983  0.1606
  242MOL0     H32656   8.162  11.196   1.749  2.7698  2.8194  1.6121
  242MOL0     H32657   8.387  11.223   1.705 -0.2860 -0.7311 -1.3167
  242MOL0     H32658   8.804  11.030   1.632  2.3301 -2.9235 -0.4114
  242MOL0     H32659   9.037  11.028   1.595 -1.8337 -0.0180 -1.5320
  242MOL0     H32660   9.185  11.276   1.591  1.4195  2.4217  1.7197
  242MOL0     H32661   9.344  11.287   1.652 -1.1595  1.6295  0.6105
  242MOL0     H32662   9.350  11.150   1.451  2.2708  0.8378  0.9872
  242MOL0     H32663   9.232  11.041   1.520 -2.9038  2.5201  2.2368
  242MOL0     H32664   9.447  10.951   1.518  0.6817 -2.4077  1.8688
  242MOL0     H32665   9.369  10.954   1.669  1.8548 -0.4660  0.1446
  242MOL0     H32666   9.623  11.005   1.678  1.2505  0.9164  2.5276
  242MOL0     H32667   9.510  11.120   1.758 -3.4257 -1.9037  0.1394
  242MOL0     H32668   9.668  11.318   1.404 -2.9624  3.6113  0.4038
  242MOL0     H32669   9.094  11.230   1.966  2.0634 -2.1064 -0.0571
  242MOL0     H32670   8.849  11.203   2.026  1.0196 -0.3319  0.8343
  243MOL0     O32671   9.102   2.997   1.722  0.2536  0.2505  1.3458
  243MOL0     C32672   9.109   3.022   1.838 -0.2864 -0.3825  0.4086
  243MOL0     O32673   9.018   2.996   1.936  0.2895  0.4123 -0.4914
  243MOL0     C32674   8.898   2.948   1.900  0.4885 -0.4712  0.0071
  243MOL0     C32675   8.786   2.988   1.972 -0.8057 -0.1506  0.2163
  243MOL0     C32676   8.657   2.942   1.939 -0.1985 -0.1923  0.6013
  243MOL0     C32677   8.638   2.833   1.859  0.3878  0.0677  0.6596
  243MOL0     O32678   8.505   2.787   1.852 -0.3895 -0.8515 -0.2453
  243MOL0     C32679   8.480   2.672   1.772 -0.3049 -0.1397 -0.9932
  243MOL0     C32680   8.327   2.645   1.798 -0.0720 -0.4255 -0.1519
  243MOL0     C32681   8.253   2.725   1.694 -0.0405 -0.4684 -0.2778
  243MOL0     C32682   8.108   2.690   1.703  1.1379  0.0898 -0.5142
  243MOL0     C32683   8.036   2.784   1.600  0.4987 -0.0617  0.0498
  243MOL0     C32684   7.893   2.746   1.572  0.1965 -1.4392  0.6066
  243MOL0     C32685   7.831   2.842   1.460  0.5587 -0.1967 -0.2396
  243MOL0     C32686   7.792   2.988   1.493  0.2583 -0.0524  0.2114
  243MOL0     N32687   7.680   3.005   1.588 -0.0603  0.1118 -0.0413
  243MOL0     C32688   7.692   3.025   1.724 -0.0230  0.0070 -0.4414
  243MOL0     C32689   7.566   3.006   1.778  0.2155  0.7926 -0.2763
  243MOL0     C32690   7.524   3.022   1.920  0.0965  0.2503 -0.3330
  243MOL0     C32691   7.442   3.157   1.947 -0.3710 -0.6138  0.7802
  243MOL0     C32692   7.381   3.143   2.091  1.0505 -0.3099 -0.3611
  243MOL0     C32693   7.349   3.295   2.143 -0.4484  0.2901 -0.0354
  243MOL0     O32694   7.245   3.347   2.068  0.4301 -0.0770  0.2363
  243MOL0     C32695   7.125   3.294   2.096 -0.0309  0.4656 -0.0500
  243MOL0     C32696   7.026   3.317   2.002  0.4344 -0.5187 -0.8416
  243MOL0     C32697   6.898   3.258   2.008  0.0232  0.3352 -0.1186
  243MOL0     C32698   6.815   3.273   1.881  0.1060 -0.2450  0.3413
  243MOL0     C32699   6.859   3.176   2.120  0.2572  0.8193  0.6472
  243MOL0     C32700   6.724   3.110   2.131  0.0742  0.0671  0.2981
  243MOL0     O32701   6.609   3.162   2.067  0.5245 -0.2555 -0.2727
  243MOL0     C32702   6.487   3.100   2.073  0.5852 -0.2948 -0.0430
  243MOL0     C32703   6.385   3.178   2.011 -0.9132  0.2000  0.0907
  243MOL0     C32704   6.259   3.128   2.007 -0.0392  0.0409 -0.2917
  243MOL0     C32705   6.229   2.996   2.038  0.1535  0.4210  0.0298
  243MOL0     O32706   6.107   2.952   2.036  0.5701 -0.5798  0.7844
  243MOL0     C32707   6.102   2.860   1.927 -0.1602  0.1607  0.1530
  243MOL0     C32708   5.951   2.846   1.894 -0.4229 -0.1543 -0.4638
  243MOL0     C32709   5.881   2.988   1.858 -0.5805 -0.4014 -0.6940
  243MOL0     C32710   5.733   2.983   1.819  0.0742 -0.1848  0.6932
  243MOL0     C32711   5.709   2.909   1.689 -0.2517  0.1913  0.1984
  243MOL0     C32712   5.567   2.925   1.640  0.4360 -0.3030  0.2827
  243MOL0     C32713   5.532   3.066   1.584 -0.1741 -0.1854 -0.1593
  243MOL0     C32714   5.412   3.058   1.492  0.0083  0.3346 -0.3292
  243MOL0    Cl32715   5.413   2.926   1.379  0.2446 -0.5921 -0.3452
  243MOL0     C32716   6.331   2.911   2.092 -0.6926 -0.6892  0.2332
  243MOL0     C32717   6.461   2.965   2.112  0.4493  0.0552  0.3844
  243MOL0     O32718   6.719   3.019   2.212  0.5949 -0.2150  0.1631
  243MOL0     C32719   6.955   3.162   2.222 -0.2477 -0.4249  0.6789
  243MOL0     C32720   7.082   3.215   2.205 -1.0462  0.3715 -0.0879
  243MOL0     N32721   7.482   2.986   1.666 -0.1206  0.2004 -0.1911
  243MOL0     N32722   7.551   2.987   1.553  0.0722 -0.0083  0.2560
  243MOL0     C32723   8.752   2.769   1.807  0.2336 -0.9843  0.7563
  243MOL0     C32724   8.875   2.835   1.817 -0.5620 -0.5763 -0.0083
  243MOL0     C32725   9.237   3.075   1.886  0.6843 -0.2181 -0.1569
  243MOL0     C32726   9.298   3.029   2.007  0.6130  0.6243  0.3578
  243MOL0     C32727   9.412   3.087   2.058 -0.1402 -0.3556  0.0233
  243MOL0     C32728   9.476   3.195   1.986  0.6299 -0.0687  0.1205
  243MOL0     O32729   9.593   3.252   2.023  0.4829 -0.3900 -0.1808
  243MOL0     C32730   9.598   3.333   2.139 -0.0699 -0.3059  0.2793
  243MOL0     C32731   9.521   3.459   2.121  0.0998 -0.5379  0.3198
  243MOL0     C32732   9.566   3.559   2.229 -0.6064  0.6015  0.5691
  243MOL0     C32733   9.470   3.674   2.253  0.7191  0.0442 -0.5828
  243MOL0     C32734   9.539   3.772   2.331 -0.6671 -0.9974 -0.1635
  243MOL0     C32735   9.592   3.852   2.403  0.2463 -0.4649  0.5601
  243MOL0     C32736   9.408   3.244   1.868 -0.2131 -1.0211  0.0010
  243MOL0     C32737   9.294   3.185   1.816 -0.1226 -0.4753 -0.2328
  243MOL0     H32738   8.790   3.072   2.040  0.6624 -0.7432  0.9016
  243MOL0     H32739   8.574   3.000   1.976 -0.8372  0.0559 -1.1551
  243MOL0     H32740   8.505   2.698   1.669  1.0646  1.8450 -0.2133
  243MOL0     H32741   8.542   2.588   1.806 -0.6998  0.6408  1.9055
  243MOL0     H32742   8.313   2.540   1.772 -3.8661 -0.1033  0.0523
  243MOL0     H32743   8.298   2.673   1.899 -0.8998  0.4904 -0.6252
  243MOL0     H32744   8.265   2.830   1.725 -1.4825 -0.6770  1.1229
  243MOL0     H32745   8.288   2.705   1.593 -0.5439  1.8555 -0.9743
  243MOL0     H32746   8.092   2.587   1.668  0.0922  0.6731 -1.8285
  243MOL0     H32747   8.065   2.706   1.802  1.0625 -0.6582 -0.4143
  243MOL0     H32748   8.040   2.888   1.632  0.3424 -0.6463  2.1227
  243MOL0     H32749   8.086   2.774   1.503 -0.3854  0.4128 -0.4738
  243MOL0     H32750   7.889   2.646   1.528  0.7492 -0.8393 -0.8779
  243MOL0     H32751   7.821   2.761   1.653  1.9072  3.7232  1.5854
  243MOL0     H32752   7.905   2.824   1.381  0.1034 -3.9969 -0.0015
  243MOL0     H32753   7.733   2.801   1.434 -0.0777 -0.0481  1.7630
  243MOL0     H32754   7.772   3.038   1.398  0.8249 -0.7889 -0.3083
  243MOL0     H32755   7.880   3.040   1.532  1.8782 -0.1286 -3.0269
  243MOL0     H32756   7.783   3.053   1.776 -0.1555 -0.4958  0.0645
  243MOL0     H32757   7.465   2.934   1.946 -0.5884  0.6943 -0.3545
  243MOL0     H32758   7.620   3.023   1.974 -0.8504 -0.8921  1.4645
  243MOL0     H32759   7.373   3.182   1.866  1.6536 -0.3325 -0.9656
  243MOL0     H32760   7.517   3.237   1.949 -1.3282  0.3308 -0.2022
  243MOL0     H32761   7.459   3.104   2.157 -0.0526 -0.9508  0.6196
  243MOL0     H32762   7.294   3.077   2.102  1.8974 -1.6922 -1.6862
  243MOL0     H32763   7.435   3.361   2.127 -1.1864  1.0707 -0.9172
  243MOL0     H32764   7.334   3.315   2.249 -0.6520  3.7407 -0.6025
  243MOL0     H32765   7.065   3.379   1.922  1.3849  2.4887  1.7209
  243MOL0     H32766   6.732   3.345   1.891  0.5473  0.3946 -0.4456
  243MOL0     H32767   6.874   3.302   1.794 -0.6221  1.1368  0.2717
  243MOL0     H32768   6.775   3.176   1.849 -2.2604  0.0379  2.1297
  243MOL0     H32769   6.411   3.281   1.991 -1.0229  0.4114  0.9840
  243MOL0     H32770   6.175   3.185   1.967 -1.4865 -2.1707 -0.5737
  243MOL0     H32771   6.149   2.894   1.834 -1.9282 -0.0143 -0.8488
  243MOL0     H32772   6.136   2.759   1.951  2.2508  0.5540 -1.3071
  243MOL0     H32773   5.942   2.774   1.812 -0.5824 -0.2898 -0.3286
  243MOL0     H32774   5.906   2.797   1.981  2.3845 -0.8819  0.6964
  243MOL0     H32775   5.928   3.039   1.773  3.2521  3.8414  3.3895
  243MOL0     H32776   5.895   3.068   1.931 -0.3196  3.3318 -4.4844
  243MOL0     H32777   5.673   2.931   1.895  0.2661 -0.7647  0.4486
  243MOL0     H32778   5.701   3.087   1.812  2.8340  0.6116 -2.9961
  243MOL0     H32779   5.721   2.803   1.712  0.3941  0.4173  0.9906
  243MOL0     H32780   5.778   2.934   1.608  0.3562 -0.6700  0.4354
  243MOL0     H32781   5.555   2.848   1.564  1.4153 -0.9422  0.7505
  243MOL0     H32782   5.500   2.892   1.720  2.8046 -3.4841  1.1353
  243MOL0     H32783   5.605   3.111   1.516 -3.0803  3.3078 -1.2359
  243MOL0     H32784   5.515   3.140   1.663  1.6458  0.1006  0.0032
  243MOL0     H32785   5.416   3.144   1.424 -0.7684  0.0514 -0.7551
  243MOL0     H32786   5.315   3.051   1.543 -0.2608  0.2036 -0.8455
  243MOL0     H32787   6.324   2.807   2.125  3.7232 -0.7190  1.7712
  243MOL0     H32788   6.538   2.898   2.150 -1.7395 -2.8112  0.1586
  243MOL0     H32789   6.943   3.093   2.304 -0.0971 -0.7566  0.4249
  243MOL0     H32790   7.154   3.189   2.282 -0.5229  0.6275 -0.4944
  243MOL0     H32791   8.733   2.674   1.758 -2.2759  0.3205 -1.0973
  243MOL0     H32792   8.942   2.783   1.749 -2.5916 -1.5652 -1.3913
  243MOL0     H32793   9.252   2.945   2.058 -0.2328  0.6424 -0.3502
  243MOL0     H32794   9.466   3.039   2.139  2.4761 -1.9041 -2.4466
  243MOL0     H32795   9.550   3.275   2.218 -0.6639  1.0270  0.9254
  243MOL0     H32796   9.701   3.345   2.176  0.5810  0.9073 -1.7558
  243MOL0     H32797   9.416   3.430   2.137  0.8781 -3.8929  0.1568
  243MOL0     H32798   9.535   3.513   2.028 -1.4712 -0.7546 -0.0804
  243MOL0     H32799   9.662   3.595   2.188 -0.5819  0.7048  0.7162
  243MOL0     H32800   9.584   3.508   2.324 -0.9300 -0.1973  0.2117
  243MOL0     H32801   9.377   3.630   2.292 -0.4961  0.2733 -3.0323
  243MOL0     H32802   9.444   3.724   2.159  1.9004  0.5379 -0.6619
  243MOL0     H32803   9.639   3.919   2.472  2.0686 -2.0025  0.9095
  243MOL0     H32804   9.457   3.327   1.818 -1.1204 -0.2458  0.3668
  243MOL0     H32805   9.244   3.231   1.731  0.2434  0.2228 -0.0787
  244MOL0     O32806   6.991   9.077  10.815  0.1658  0.1380 -0.1102
  244MOL0     C32807   6.969   9.001  10.723 -0.3175 -0.3582 -0.3440
  244MOL0     O32808   7.067   8.934  10.652 -0.8431  0.1940  0.0025
  244MOL0     C32809   7.208   8.939  10.671 -0.2011 -0.2796 -0.2967
  244MOL0     C32810   7.285   8.813  10.668  0.0668 -0.6443  0.7622
  244MOL0     C32811   7.419   8.810  10.686 -0.7862 -0.5161 -0.6073
  244MOL0     C32812   7.487   8.939  10.707  0.1879 -0.0271  0.7204
  244MOL0     O32813   7.624   8.937  10.703  0.4989  0.0026  0.1189
  244MOL0     C32814   7.693   9.048  10.760 -1.0931  0.6503 -0.4596
  244MOL0     C32815   7.834   9.001  10.820 -0.0586 -0.4665 -0.2783
  244MOL0     C32816   7.932   8.959  10.712 -1.2635 -0.1931  0.2242
  244MOL0     C32817   8.052   8.901  10.784  0.2017  0.0113 -1.4491
  244MOL0     C32818   8.156   8.854  10.681  0.3152 -0.0369  0.1104
  244MOL0     C32819   8.278   8.782  10.726 -0.0430 -0.3119  0.0112
  244MOL0     C32820   8.373   8.759  10.609 -0.1122  0.5847  0.0019
  244MOL0     C32821   8.504   8.696  10.674 -0.0301 -0.0315 -0.4924
  244MOL0     N32822   8.610   8.671  10.578 -0.0555  0.0305  0.2949
  244MOL0     C32823   8.693   8.563  10.581 -0.3811  0.5980  0.8954
  244MOL0     C32824   8.798   8.593  10.504  0.2781  0.0447 -0.4434
  244MOL0     C32825   8.911   8.505  10.449  0.0215  0.7662  0.3407
  244MOL0     C32826   8.888   8.448  10.313 -0.3525 -0.2100 -0.3370
  244MOL0     C32827   8.749   8.390  10.291 -0.9821 -0.0759  0.1103
  244MOL0     C32828   8.728   8.262  10.376  0.7239  0.7884  0.0706
  244MOL0     O32829   8.592   8.221  10.343 -0.2215  0.3580 -0.1189
  244MOL0     C32830   8.498   8.223  10.438  0.8224 -0.2714  0.1933
  244MOL0     C32831   8.386   8.302  10.421  0.2917 -0.0505 -0.5515
  244MOL0     C32832   8.277   8.294  10.516 -0.9382  0.4568 -0.0316
  244MOL0     C32833   8.158   8.382  10.482 -0.2445  0.6687  0.1975
  244MOL0     C32834   8.292   8.205  10.624 -0.5219 -0.3029  0.9673
  244MOL0     C32835   8.187   8.179  10.725 -0.8473  0.3664  0.2700
  244MOL0     O32836   8.166   8.038  10.765  0.5083 -0.2901  0.1043
  244MOL0     C32837   8.047   8.025  10.838 -0.0547  0.1105 -0.4438
  244MOL0     C32838   8.052   8.019  10.978  0.4760  0.1377 -0.0710
  244MOL0     C32839   7.934   8.025  11.060  0.0354  0.1789  0.6289
  244MOL0     C32840   7.802   8.033  10.996 -0.5623 -0.6058  0.8012
  244MOL0     O32841   7.704   8.041  11.084  0.3655  0.0249 -0.1247
  244MOL0     C32842   7.583   7.967  11.056  0.1875  0.5120  0.0943
  244MOL0     C32843   7.461   8.040  11.098  1.4011  0.0800  0.0103
  244MOL0     C32844   7.449   8.035  11.254  0.7466 -0.1919  0.5138
  244MOL0     C32845   7.329   8.125  11.290 -0.7551 -0.3069  1.0400
  244MOL0     C32846   7.297   8.151  11.433 -0.1413  0.5698 -0.0200
  244MOL0     C32847   7.260   8.025  11.513  0.5995  0.9547  0.4647
  244MOL0     C32848   7.125   7.964  11.460  0.2049 -0.8361 -0.2777
  244MOL0     C32849   7.123   7.821  11.408 -0.3883  0.3580 -0.8939
  244MOL0    Cl32850   7.166   7.712  11.545  0.7241 -0.1109 -0.7119
  244MOL0     C32851   7.798   8.033  10.856  0.2639  0.9318  0.4203
  244MOL0     C32852   7.921   8.032  10.783 -0.2639  0.0498 -0.2250
  244MOL0     O32853   8.137   8.278  10.773 -0.3541  0.2637 -0.6692
  244MOL0     C32854   8.400   8.118  10.622 -1.1820 -0.4570 -0.2302
  244MOL0     C32855   8.510   8.128  10.539 -0.1942  0.5504  0.4604
  244MOL0     N32856   8.774   8.724  10.459 -0.3572  0.2316  0.4551
  244MOL0     N32857   8.664   8.770  10.500 -0.9078 -0.1404  0.3242
  244MOL0     C32858   7.412   9.055  10.727 -0.4452  0.1463  0.3072
  244MOL0     C32859   7.273   9.060  10.705 -0.6472  0.4448 -0.5279
  244MOL0     C32860   6.829   8.976  10.692 -0.2128  0.4485  0.0532
  244MOL0     C32861   6.785   8.910  10.570 -0.0951 -0.0518 -0.3230
  244MOL0     C32862   6.650   8.897  10.540 -0.5869 -0.3969  0.7486
  244MOL0     C32863   6.549   8.936  10.627  0.2931  0.1310  0.1793
  244MOL0     O32864   6.411   8.907  10.592  0.4210  0.4470 -0.6054
  244MOL0     C32865   6.310   8.936  10.691  0.2424 -0.4260  0.5946
  244MOL0     C32866   6.171   8.880  10.647 -0.1011  0.2435 -0.2101
  244MOL0     C32867   6.056   8.892  10.752  1.0857  0.3964 -0.7088
  244MOL0     C32868   5.946   8.793  10.711  0.0555  0.4097 -0.8372
  244MOL0     C32869   5.849   8.767  10.818  0.0815  0.8046 -0.0698
  244MOL0     C32870   5.754   8.746  10.890 -0.5520 -0.9615  0.2033
  244MOL0     C32871   6.588   8.997  10.740 -0.2999  0.5905 -0.0974
  244MOL0     C32872   6.719   9.025  10.777 -0.3990  0.0456 -0.2282
  244MOL0     H32873   7.222   8.725  10.657 -0.2576 -0.3843  0.4855
  244MOL0     H32874   7.464   8.712  10.687 -0.1925 -0.2448  0.0381
  244MOL0     H32875   7.711   9.131  10.691 -1.3116 -0.3569 -1.7766
  244MOL0     H32876   7.637   9.094  10.842  1.6471  1.8341  0.9038
  244MOL0     H32877   7.876   9.083  10.879  0.8996 -0.5427 -0.8291
  244MOL0     H32878   7.808   8.922  10.891  1.5431  0.3582  1.2898
  244MOL0     H32879   7.898   8.876  10.649  0.5671 -1.6332  1.0609
  244MOL0     H32880   7.953   9.047  10.650  2.2642 -1.3784 -0.4821
  244MOL0     H32881   8.085   8.987  10.842 -1.6244  0.9530 -1.7434
  244MOL0     H32882   8.026   8.819  10.851 -1.2236  1.4049 -0.2246
  244MOL0     H32883   8.109   8.798  10.600  1.2099 -0.4280 -0.1503
  244MOL0     H32884   8.183   8.954  10.645 -0.4085  0.8866  1.9964
  244MOL0     H32885   8.323   8.842  10.806 -1.2802  1.0307 -0.2471
  244MOL0     H32886   8.249   8.694  10.785 -3.7247  0.9965  0.4385
  244MOL0     H32887   8.329   8.685  10.542 -0.6879  0.6841  0.2605
  244MOL0     H32888   8.389   8.850  10.551 -2.5727 -0.2515 -2.1934
  244MOL0     H32889   8.479   8.599  10.718  0.9320 -0.5906 -1.1451
  244MOL0     H32890   8.537   8.770  10.748 -1.6171 -0.7296  1.0013
  244MOL0     H32891   8.676   8.467  10.630 -3.0752  0.4277 -0.1830
  244MOL0     H32892   9.008   8.554  10.456  0.4527 -0.0764  0.3892
  244MOL0     H32893   8.922   8.424  10.522  3.4562  0.9161  0.1581
  244MOL0     H32894   8.976   8.384  10.306  0.5684  0.1412  4.6464
  244MOL0     H32895   8.909   8.521  10.233 -1.9473 -1.8988 -2.4286
  244MOL0     H32896   8.745   8.365  10.185  3.1527  0.7701 -0.4023
  244MOL0     H32897   8.672   8.466  10.311  0.9051  2.1913 -0.7388
  244MOL0     H32898   8.738   8.283  10.482  2.9392 -1.5616  0.4366
  244MOL0     H32899   8.804   8.189  10.345 -1.1773 -1.5296  0.6135
  244MOL0     H32900   8.375   8.362  10.331  1.1111  0.8675 -0.0639
  244MOL0     H32901   8.071   8.316  10.474  0.5589 -0.7801  2.3208
  244MOL0     H32902   8.137   8.449  10.566 -0.9358  2.4990 -1.3524
  244MOL0     H32903   8.169   8.441  10.391 -1.5570  0.9683  0.2254
  244MOL0     H32904   8.147   8.007  11.029  0.4670 -3.6008 -0.6319
  244MOL0     H32905   7.940   8.030  11.168 -2.2187  4.5743  0.7829
  244MOL0     H32906   7.574   7.955  10.948 -1.2859  0.0188  0.2474
  244MOL0     H32907   7.582   7.866  11.099  0.5105 -0.0153 -1.0763
  244MOL0     H32908   7.477   8.141  11.061  1.6479  0.0829  0.1269
  244MOL0     H32909   7.379   7.986  11.049  2.2143 -2.3358  1.1232
  244MOL0     H32910   7.537   8.074  11.306  0.2579  2.4588 -0.4978
  244MOL0     H32911   7.424   7.936  11.293  2.5866 -0.8931 -0.0135
  244MOL0     H32912   7.351   8.219  11.237 -0.8166 -2.3168 -2.9366
  244MOL0     H32913   7.243   8.081  11.239  0.8459 -0.3663 -1.8051
  244MOL0     H32914   7.225   8.233  11.433  1.8375  2.4513 -1.6895
  244MOL0     H32915   7.389   8.197  11.471  0.5243 -0.0706 -0.7993
  244MOL0     H32916   7.336   7.947  11.507 -0.8954 -0.4894 -0.8172
  244MOL0     H32917   7.247   8.040  11.620 -1.0098 -0.0537  0.4442
  244MOL0     H32918   7.070   8.034  11.396  1.1911  0.6217  0.4140
  244MOL0     H32919   7.071   7.973  11.555 -1.2560  2.2096 -1.2710
  244MOL0     H32920   7.202   7.811  11.334 -1.3082 -3.6844 -1.5443
  244MOL0     H32921   7.023   7.800  11.368 -0.4341 -1.7183  0.1577
  244MOL0     H32922   7.701   8.071  10.825 -0.2969  0.5409  1.6212
  244MOL0     H32923   7.913   8.040  10.675 -3.7221 -0.8097 -0.1353
  244MOL0     H32924   8.403   8.044  10.701  0.4232 -0.7629 -0.5524
  244MOL0     H32925   8.602   8.073  10.554 -0.7311  0.2678  3.4024
  244MOL0     H32926   7.456   9.153  10.745 -0.0343 -0.2646  1.6987
  244MOL0     H32927   7.232   9.160  10.714  0.2463  0.6636  1.6402
  244MOL0     H32928   6.863   8.859  10.515 -1.5605  0.5927 -3.1855
  244MOL0     H32929   6.633   8.842  10.447  0.9495  4.5545 -2.8596
  244MOL0     H32930   6.342   8.888  10.785  0.9899  2.2714  1.8305
  244MOL0     H32931   6.304   9.045  10.696 -0.2191 -0.4279  0.0387
  244MOL0     H32932   6.176   8.774  10.621 -0.3013  0.1623  0.0690
  244MOL0     H32933   6.124   8.928  10.560 -0.7749  0.2855  0.1678
  244MOL0     H32934   6.021   8.996  10.754  0.9706  0.3714 -1.3514
  244MOL0     H32935   6.095   8.866  10.851 -1.1927  0.2178  0.2061
  244MOL0     H32936   5.997   8.697  10.693  0.2469  0.3068  0.2140
  244MOL0     H32937   5.886   8.826  10.625  0.1475  3.8473  0.2729
  244MOL0     H32938   5.666   8.755  10.950 -0.5318  1.1319 -0.0230
  244MOL0     H32939   6.506   9.037  10.799 -1.8961 -0.4863 -1.4914
  244MOL0     H32940   6.746   9.080  10.867  1.4382  0.8554 -1.2214
  245MOL0     O32941   1.682   5.351   3.919 -0.0823  0.4121 -0.3752
  245MOL0     C32942   1.667   5.375   4.041 -0.9908 -0.2685 -0.6702
  245MOL0     O32943   1.763   5.374   4.137 -0.0676  0.6168  0.1060
  245MOL0     C32944   1.896   5.372   4.089  0.5910  0.1126 -0.0628
  245MOL0     C32945   1.969   5.262   4.127 -0.1833 -0.1547 -0.0158
  245MOL0     C32946   2.093   5.247   4.076  0.2282 -0.5802 -0.1732
  245MOL0     C32947   2.147   5.345   3.989 -0.5721 -0.0947 -0.1067
  245MOL0     O32948   2.266   5.311   3.919 -1.5144 -0.5423 -0.4467
  245MOL0     C32949   2.358   5.209   3.966  0.1088 -0.2188 -0.3309
  245MOL0     C32950   2.495   5.249   3.920 -0.4568  0.5776  0.0362
  245MOL0     C32951   2.591   5.138   3.929 -0.1787  0.5061  0.3645
  245MOL0     C32952   2.731   5.172   3.884  0.2910  0.2335  0.6168
  245MOL0     C32953   2.828   5.048   3.895 -0.1911  0.3556 -0.3296
  245MOL0     C32954   2.968   5.097   3.851  0.1631 -0.0465  0.4670
  245MOL0     C32955   3.083   4.993   3.868  0.4361  0.1183  0.2126
  245MOL0     C32956   3.212   5.049   3.822 -0.3488 -0.3534 -0.0016
  245MOL0     N32957   3.320   4.974   3.870  0.5027  0.0083  0.8695
  245MOL0     C32958   3.335   4.841   3.839 -0.3706 -0.6890 -0.2616
  245MOL0     C32959   3.459   4.806   3.884  0.0652 -0.9774 -0.3954
  245MOL0     C32960   3.535   4.681   3.860  0.5445  0.5709 -0.0672
  245MOL0     C32961   3.498   4.576   3.960  0.1550  0.1025 -0.6649
  245MOL0     C32962   3.349   4.529   3.951  0.7212 -0.1383  0.7029
  245MOL0     C32963   3.321   4.394   4.022  0.3045  0.0213  0.6997
  245MOL0     O32964   3.320   4.421   4.168  0.1388  0.0885 -0.3935
  245MOL0     C32965   3.210   4.452   4.240  0.8545  0.1555  0.6247
  245MOL0     C32966   3.242   4.460   4.368 -0.0563  0.8282  0.3220
  245MOL0     C32967   3.147   4.514   4.453 -0.2631  0.2591  0.0772
  245MOL0     C32968   3.189   4.523   4.592  0.4552 -0.3711  0.6061
  245MOL0     C32969   3.026   4.567   4.405  0.5490 -0.5509 -0.2605
  245MOL0     C32970   2.924   4.637   4.492  0.4892  0.0393  0.4525
  245MOL0     O32971   2.963   4.685   4.626  0.4713  0.3135  0.1325
  245MOL0     C32972   2.868   4.766   4.684  0.1265 -0.0574  1.0420
  245MOL0     C32973   2.768   4.719   4.762  0.0228  0.9938 -0.6210
  245MOL0     C32974   2.679   4.806   4.813 -0.2219 -0.2157  0.0841
  245MOL0     C32975   2.675   4.934   4.787 -0.5409 -0.5093 -0.8548
  245MOL0     O32976   2.573   5.009   4.844 -0.4325 -0.5147 -0.5103
  245MOL0     C32977   2.609   5.061   4.975 -0.4355 -1.0286  0.3290
  245MOL0     C32978   2.482   5.059   5.054 -0.0951  0.3790 -0.4380
  245MOL0     C32979   2.485   5.089   5.204  0.0319  0.7310  0.3920
  245MOL0     C32980   2.349   5.075   5.275  0.0944 -0.1963 -0.0852
  245MOL0     C32981   2.358   5.108   5.423 -0.5263 -0.2388 -0.0521
  245MOL0     C32982   2.395   5.247   5.472 -0.5381  0.1051 -0.2537
  245MOL0     C32983   2.274   5.336   5.440  0.1620  0.0864  0.6591
  245MOL0     C32984   2.193   5.384   5.565  0.3976 -0.4047 -0.5756
  245MOL0    Cl32985   2.078   5.527   5.513 -0.0763  0.3841  0.2449
  245MOL0     C32986   2.774   4.990   4.704  0.0407 -0.0963 -0.1221
  245MOL0     C32987   2.882   4.903   4.664  0.0423  1.0199 -0.6089
  245MOL0     O32988   2.809   4.640   4.447  0.6425 -0.6676 -0.0201
  245MOL0     C32989   2.995   4.552   4.267 -0.2858  0.4965 -0.1694
  245MOL0     C32990   3.089   4.507   4.184 -0.3566  0.1587  0.4949
  245MOL0     N32991   3.506   4.915   3.952  0.5082 -0.4597  0.6285
  245MOL0     N32992   3.418   5.010   3.958  0.0204 -0.4927  0.8493
  245MOL0     C32993   2.074   5.456   3.951  0.5737 -0.3780 -0.2745
  245MOL0     C32994   1.946   5.470   3.998 -0.0402 -0.0365 -0.5300
  245MOL0     C32995   1.535   5.396   4.113  0.0301 -0.1200 -0.2731
  245MOL0     C32996   1.419   5.382   4.036 -0.5320 -0.4026 -0.1612
  245MOL0     C32997   1.293   5.401   4.092  0.3198 -0.1412 -0.5607
  245MOL0     C32998   1.282   5.447   4.227  0.8234  0.2783  0.4738
  245MOL0     O32999   1.174   5.482   4.303  0.1965 -0.0098  1.0109
  245MOL0     C33000   1.059   5.531   4.237  1.2284 -0.0528 -0.6209
  245MOL0     C33001   0.986   5.635   4.325  0.3320  0.1120 -0.3001
  245MOL0     C33002   0.917   5.592   4.457  0.2597 -0.9335  0.5910
  245MOL0     C33003   0.754   5.591   4.454 -0.0693 -0.0022  0.1029
  245MOL0     C33004   0.705   5.535   4.331  0.3306 -0.5340  0.2879
  245MOL0     C33005   0.671   5.478   4.228 -0.5878  0.2976 -0.1137
  245MOL0     C33006   1.395   5.450   4.301 -0.0971  0.1437 -0.4423
  245MOL0     C33007   1.526   5.419   4.252 -0.0112  0.0996  0.1942
  245MOL0     H33008   1.938   5.176   4.186 -1.7029  0.2743 -0.1523
  245MOL0     H33009   2.147   5.156   4.099  0.1725 -0.7051 -0.5186
  245MOL0     H33010   2.363   5.196   4.075  2.7500  3.6792  0.2069
  245MOL0     H33011   2.325   5.116   3.919 -1.9259  1.3279 -2.1960
  245MOL0     H33012   2.492   5.269   3.812  0.2441 -2.5701 -0.6423
  245MOL0     H33013   2.526   5.340   3.972  0.4297  0.7937 -0.8341
  245MOL0     H33014   2.591   5.113   4.036  0.9369  0.5976  0.3945
  245MOL0     H33015   2.555   5.051   3.874  1.6444  0.0415 -0.1773
  245MOL0     H33016   2.720   5.214   3.783 -0.0098 -0.1574  0.4837
  245MOL0     H33017   2.759   5.252   3.953 -2.4604  0.9992  0.9905
  245MOL0     H33018   2.840   5.006   3.995  1.1453 -1.9267 -1.3812
  245MOL0     H33019   2.787   4.963   3.839 -1.1195 -0.6834  1.8050
  245MOL0     H33020   2.966   5.139   3.750  0.8034 -2.1554 -0.4629
  245MOL0     H33021   2.997   5.180   3.917 -0.3414  0.1732  0.4243
  245MOL0     H33022   3.100   4.973   3.975  0.2634 -0.3379  0.1573
  245MOL0     H33023   3.060   4.895   3.824  0.0491  0.5468 -0.5510
  245MOL0     H33024   3.220   5.154   3.853  0.0831 -0.7327  1.2173
  245MOL0     H33025   3.218   5.037   3.713  0.7193 -1.5139  0.1612
  245MOL0     H33026   3.278   4.793   3.760 -1.1204  1.5773 -1.1801
  245MOL0     H33027   3.517   4.644   3.758  3.2874 -2.2272  0.2863
  245MOL0     H33028   3.645   4.689   3.861  0.5161  0.9509  0.9947
  245MOL0     H33029   3.507   4.612   4.063 -0.7958  3.3978 -1.5985
  245MOL0     H33030   3.555   4.485   3.938  0.4915  0.2270 -0.3171
  245MOL0     H33031   3.318   4.521   3.847 -1.2872  0.6714  1.2091
  245MOL0     H33032   3.280   4.604   3.991  0.2866  1.1232 -2.1733
  245MOL0     H33033   3.406   4.327   4.005  0.0499 -0.6534  1.9501
  245MOL0     H33034   3.231   4.354   3.975  1.7867 -2.0125 -0.5952
  245MOL0     H33035   3.342   4.423   4.392  0.4944  2.4012  0.5588
  245MOL0     H33036   3.294   4.495   4.602  1.2142  2.5690  1.7217
  245MOL0     H33037   3.198   4.628   4.621  5.4685  0.6385 -3.2737
  245MOL0     H33038   3.111   4.468   4.647 -0.7643  0.4883 -0.2316
  245MOL0     H33039   2.765   4.615   4.793  0.5239  0.9537 -0.6853
  245MOL0     H33040   2.603   4.767   4.879  0.9486 -2.2650  0.3067
  245MOL0     H33041   2.694   5.000   5.008  0.3045  0.4362  1.2417
  245MOL0     H33042   2.643   5.165   4.964 -1.0332 -0.8504  0.1231
  245MOL0     H33043   2.407   5.125   5.011 -2.3362 -1.6607  0.1235
  245MOL0     H33044   2.441   4.958   5.044  1.9576 -0.7425  1.4511
  245MOL0     H33045   2.529   5.189   5.218  0.6636  0.6002 -0.5658
  245MOL0     H33046   2.550   5.013   5.250 -1.7756 -2.2530 -1.6536
  245MOL0     H33047   2.287   5.148   5.222  0.0536 -2.7214 -3.9176
  245MOL0     H33048   2.306   4.974   5.272  1.7677 -1.0099  1.6328
  245MOL0     H33049   2.433   5.037   5.459  3.1436  1.6532 -3.2960
  245MOL0     H33050   2.264   5.093   5.477  0.0416  1.5430  1.5712
  245MOL0     H33051   2.407   5.243   5.581 -0.2012  2.0168 -0.1947
  245MOL0     H33052   2.487   5.284   5.427  1.6044 -3.9957  0.2301
  245MOL0     H33053   2.210   5.285   5.367  0.0484  1.8468 -0.5308
  245MOL0     H33054   2.311   5.425   5.388  4.4891 -1.8733 -0.0969
  245MOL0     H33055   2.264   5.413   5.643 -0.8995  0.6026  0.2802
  245MOL0     H33056   2.136   5.306   5.615 -0.1037  0.1847 -0.2048
  245MOL0     H33057   2.769   5.091   4.666 -1.7626 -0.7808 -1.8765
  245MOL0     H33058   2.971   4.929   4.608 -0.2095 -1.2086 -2.1507
  245MOL0     H33059   2.900   4.585   4.226 -2.9989 -3.7386  1.9354
  245MOL0     H33060   3.069   4.496   4.078 -1.1948  0.3360  0.6317
  245MOL0     H33061   2.113   5.532   3.885 -0.1571  0.1987 -0.0477
  245MOL0     H33062   1.894   5.561   3.969 -0.6784  0.0364  0.7945
  245MOL0     H33063   1.431   5.371   3.928  0.5846 -1.0966  0.0173
  245MOL0     H33064   1.200   5.392   4.037  1.1572 -2.7553 -1.6673
  245MOL0     H33065   1.069   5.574   4.137  1.4292 -0.8978 -0.9703
  245MOL0     H33066   0.995   5.444   4.219  1.2413 -0.0825 -0.5223
  245MOL0     H33067   0.909   5.684   4.265  2.4648  4.2277 -0.0245
  245MOL0     H33068   1.062   5.709   4.352 -2.0445  2.6055  0.0249
  245MOL0     H33069   0.937   5.671   4.530  1.5023  0.5143 -1.2046
  245MOL0     H33070   0.970   5.501   4.486  2.9921  0.4436  0.2771
  245MOL0     H33071   0.713   5.693   4.452 -0.2633 -0.0851 -0.3968
  245MOL0     H33072   0.726   5.537   4.544  2.7987  1.2738  1.9203
  245MOL0     H33073   0.652   5.425   4.137  2.5009  3.4268 -2.8814
  245MOL0     H33074   1.394   5.485   4.404 -1.6740  0.1319 -0.4342
  245MOL0     H33075   1.611   5.419   4.319  0.0132 -1.2559  0.1816
  246MOL0     O33076  10.635   5.625   6.346  0.7850  0.3712 -0.0903
  246MOL0     C33077  10.605   5.522   6.278  0.0022  0.6851  0.1300
  246MOL0     O33078  10.486   5.461   6.280 -0.3593 -0.4060  0.0009
  246MOL0     C33079  10.389   5.515   6.360 -0.2181 -0.5563  0.0598
  246MOL0     C33080  10.321   5.632   6.327  0.3656 -0.4884  0.5790
  246MOL0     C33081  10.207   5.676   6.396  0.0048 -0.3594  0.0791
  246MOL0     C33082  10.160   5.597   6.498  0.6242 -0.2370 -0.1059
  246MOL0     O33083  10.042   5.630   6.552 -0.2095  0.1867  0.4850
  246MOL0     C33084   9.938   5.530   6.529 -0.2248  0.5683  0.2922
  246MOL0     C33085   9.801   5.577   6.586  0.6534  0.2972 -0.1782
  246MOL0     C33086   9.739   5.683   6.501  1.1313 -0.0928  1.1960
  246MOL0     C33087   9.610   5.738   6.572  0.3779  0.7980  0.4915
  246MOL0     C33088   9.539   5.833   6.475 -0.2483 -0.1206  0.5175
  246MOL0     C33089   9.414   5.897   6.540  0.2278  0.5030  0.3171
  246MOL0     C33090   9.346   5.998   6.445 -0.5221  0.5023  0.2353
  246MOL0     C33091   9.195   6.009   6.466  0.9838 -0.3404  0.1716
  246MOL0     N33092   9.114   6.081   6.370 -0.0677 -1.1513 -0.2177
  246MOL0     C33093   9.128   6.059   6.237  0.2094 -0.1622 -0.0977
  246MOL0     C33094   9.045   6.150   6.177  0.5261 -0.0324  1.1554
  246MOL0     C33095   9.043   6.185   6.027 -0.5220  0.7364  0.5630
  246MOL0     C33096   9.173   6.158   5.950  0.3054  0.3079 -0.9159
  246MOL0     C33097   9.294   6.239   6.012  0.3889  0.6660  0.1647
  246MOL0     C33098   9.432   6.178   5.956  0.1802 -0.2301  0.0165
  246MOL0     O33099   9.440   6.043   6.005 -0.5329 -0.5719  0.1737
  246MOL0     C33100   9.564   5.985   5.996 -0.2535  0.2035 -0.5346
  246MOL0     C33101   9.664   6.022   5.906  0.8936  0.1066 -0.3805
  246MOL0     C33102   9.776   5.952   5.888 -0.9186 -0.2629  0.7020
  246MOL0     C33103   9.879   6.007   5.790 -0.5839  0.6608 -0.3333
  246MOL0     C33104   9.785   5.825   5.950 -0.4621  1.0958  0.3247
  246MOL0     C33105   9.903   5.740   5.941  0.0128 -0.2291 -0.4428
  246MOL0     O33106   9.879   5.607   5.957 -0.1809  0.3475 -0.5233
  246MOL0     C33107   9.987   5.522   5.971  0.7489 -0.4301 -0.0861
  246MOL0     C33108  10.021   5.437   5.860 -0.0508  0.4786 -0.6194
  246MOL0     C33109  10.134   5.352   5.858  0.3179 -0.2774  0.0635
  246MOL0     C33110  10.199   5.339   5.979 -0.1836 -0.0775 -0.1320
  246MOL0     O33111  10.310   5.258   5.990  0.2238  1.0108  0.4169
  246MOL0     C33112  10.316   5.144   5.902  0.4678  0.0464 -0.5014
  246MOL0     C33113  10.450   5.078   5.924 -0.1459  0.1274 -0.0778
  246MOL0     C33114  10.447   4.994   6.057 -0.6427 -0.6785 -0.4808
  246MOL0     C33115  10.501   5.080   6.167 -0.4793 -0.4644 -0.5204
  246MOL0     C33116  10.517   4.990   6.295  0.8501 -1.2380  0.1387
  246MOL0     C33117  10.541   5.064   6.425 -0.5104 -0.2743 -0.1100
  246MOL0     C33118  10.690   5.121   6.425  0.4025  0.0751  0.8193
  246MOL0     C33119  10.702   5.178   6.571 -0.9300 -0.6480  0.7076
  246MOL0    Cl33120  10.859   5.260   6.586  0.0207  0.0603  0.4545
  246MOL0     C33121  10.162   5.411   6.101 -0.3202  0.5922  0.1790
  246MOL0     C33122  10.063   5.515   6.088  0.6102 -0.1046 -0.7112
  246MOL0     O33123  10.016   5.787   5.912  0.9026 -0.2851  0.0893
  246MOL0     C33124   9.686   5.785   6.044  0.0325 -0.2930 -0.5505
  246MOL0     C33125   9.574   5.862   6.067  0.1490  0.3257  0.2402
  246MOL0     N33126   8.968   6.210   6.275 -0.0222  0.1513 -0.7440
  246MOL0     N33127   9.003   6.161   6.388 -0.5199 -0.4018 -0.5262
  246MOL0     C33128  10.231   5.486   6.540  0.7809 -0.2398  0.6469
  246MOL0     C33129  10.345   5.446   6.466  0.7966  0.2988 -0.0419
  246MOL0     C33130  10.717   5.464   6.194  0.7918 -0.5958  0.2043
  246MOL0     C33131  10.687   5.417   6.070 -0.0647  0.6925  0.0522
  246MOL0     C33132  10.790   5.367   5.988 -0.0379  0.2183 -0.2833
  246MOL0     C33133  10.923   5.376   6.017 -0.3479  1.1615 -0.1166
  246MOL0     O33134  10.998   5.326   5.917 -0.8469  0.1718 -0.1098
  246MOL0     C33135  11.142   5.322   5.925 -0.8256  0.5981 -0.0061
  246MOL0     C33136  11.198   5.313   5.784 -0.7459 -0.7126  0.9183
  246MOL0     C33137  11.349   5.339   5.793 -0.9504 -0.2942  0.4746
  246MOL0     C33138  11.429   5.310   5.667 -0.4753 -0.4101 -0.3211
  246MOL0     C33139  11.403   5.408   5.558  0.1590 -0.4611 -0.0345
  246MOL0     C33140  11.391   5.505   5.477 -0.2369  0.3755  0.5348
  246MOL0     C33141  10.962   5.439   6.145  1.0887 -1.0597 -0.2519
  246MOL0     C33142  10.850   5.472   6.228 -0.4006  0.1386 -0.1410
  246MOL0     H33143  10.362   5.683   6.240 -1.2571 -0.0828 -0.0003
  246MOL0     H33144  10.149   5.766   6.379  0.5338 -0.4889 -2.7492
  246MOL0     H33145   9.945   5.491   6.427 -0.9292 -1.0839  0.8360
  246MOL0     H33146   9.951   5.437   6.586 -0.2658 -0.4846 -1.3213
  246MOL0     H33147   9.737   5.489   6.602  1.1396  0.3080  2.3712
  246MOL0     H33148   9.812   5.614   6.689  0.1010 -2.2185  0.8675
  246MOL0     H33149   9.795   5.776   6.487 -1.0812  1.0911 -0.3637
  246MOL0     H33150   9.711   5.654   6.399 -1.0828  4.7799  0.1185
  246MOL0     H33151   9.542   5.653   6.582 -0.4424  1.3923  0.0382
  246MOL0     H33152   9.641   5.782   6.667  2.0758  0.0500  0.3309
  246MOL0     H33153   9.607   5.913   6.443 -0.0559 -0.5881 -0.2854
  246MOL0     H33154   9.509   5.788   6.380  1.8584 -0.7047  0.0672
  246MOL0     H33155   9.339   5.818   6.549 -1.7747  2.3812  1.0299
  246MOL0     H33156   9.445   5.954   6.628 -0.6596 -1.6641  2.1075
  246MOL0     H33157   9.389   6.098   6.456 -1.4114  0.8156  1.0321
  246MOL0     H33158   9.352   5.974   6.338 -0.3692  3.4428 -0.5077
  246MOL0     H33159   9.169   6.061   6.559  1.7814  1.1181 -0.3917
  246MOL0     H33160   9.168   5.903   6.477  1.0798 -0.4423 -0.5317
  246MOL0     H33161   9.205   6.000   6.188 -0.4224 -1.8746  0.9169
  246MOL0     H33162   8.966   6.120   5.984  0.5241  0.7343 -1.4183
  246MOL0     H33163   9.005   6.287   6.018 -1.0112  0.7465  2.4486
  246MOL0     H33164   9.163   6.177   5.842 -3.2661  0.0695 -0.7555
  246MOL0     H33165   9.190   6.050   5.959  0.6914  0.3248 -1.3668
  246MOL0     H33166   9.311   6.226   6.120 -0.0083 -4.0251 -0.1050
  246MOL0     H33167   9.289   6.343   5.978 -0.9365  1.2138  1.8904
  246MOL0     H33168   9.511   6.249   5.981  0.6596 -0.6191 -0.3867
  246MOL0     H33169   9.428   6.174   5.847  0.6183 -1.4063  0.0290
  246MOL0     H33170   9.664   6.116   5.852 -0.1048 -1.1513 -2.7370
  246MOL0     H33171   9.848   6.092   5.728  1.2799  2.4112  0.9845
  246MOL0     H33172   9.976   6.016   5.840  0.5779 -1.0199 -2.1206
  246MOL0     H33173   9.903   5.932   5.714 -0.6512 -1.3048  1.4946
  246MOL0     H33174   9.959   5.442   5.771 -0.1588 -0.0936 -0.5822
  246MOL0     H33175  10.149   5.294   5.767  0.7246 -1.0600  0.6161
  246MOL0     H33176  10.237   5.073   5.926  0.1474 -0.2947 -2.3668
  246MOL0     H33177  10.307   5.153   5.793  0.0100 -0.6626 -0.5285
  246MOL0     H33178  10.470   5.009   5.842  1.0320 -0.7047  0.8828
  246MOL0     H33179  10.530   5.152   5.923 -1.2077  1.3586 -1.9626
  246MOL0     H33180  10.506   4.902   6.055  0.4520 -0.0709  1.5833
  246MOL0     H33181  10.342   4.969   6.076 -0.7025  0.5175  0.9059
  246MOL0     H33182  10.596   5.127   6.141 -0.0502 -1.0381 -0.0281
  246MOL0     H33183  10.429   5.160   6.184 -0.3098 -0.2908 -0.6144
  246MOL0     H33184  10.587   4.911   6.267  0.3164 -0.3206 -4.5847
  246MOL0     H33185  10.420   4.941   6.309 -0.1818  0.6059 -0.1293
  246MOL0     H33186  10.458   5.129   6.454 -0.8587 -0.8897  0.2697
  246MOL0     H33187  10.533   4.982   6.497  1.5272  0.4429  1.0504
  246MOL0     H33188  10.704   5.204   6.356 -1.7279 -0.5747 -0.4789
  246MOL0     H33189  10.761   5.040   6.407 -1.4243 -1.0916 -1.7160
  246MOL0     H33190  10.685   5.099   6.645 -1.5361  0.6592  2.0051
  246MOL0     H33191  10.621   5.249   6.592 -2.5112 -2.1132 -0.1871
  246MOL0     H33192  10.218   5.403   6.193  3.4313 -0.3981 -1.9942
  246MOL0     H33193  10.048   5.591   6.163  1.6441  0.6678 -1.2499
  246MOL0     H33194   9.689   5.687   6.090  0.0400 -0.1443 -0.2321
  246MOL0     H33195   9.495   5.823   6.129  0.5092  1.5260  1.4936
  246MOL0     H33196  10.192   5.426   6.622 -2.5743  0.9707  0.1073
  246MOL0     H33197  10.402   5.360   6.499  4.1663  2.3042 -0.2239
  246MOL0     H33198  10.583   5.410   6.039  0.0685 -0.3153 -0.2071
  246MOL0     H33199  10.772   5.329   5.888  1.3686 -0.9843 -0.1000
  246MOL0     H33200  11.183   5.408   5.980 -3.0339  1.0465  1.0529
  246MOL0     H33201  11.173   5.234   5.982  0.9534 -0.0274 -1.8305
  246MOL0     H33202  11.159   5.395   5.722 -2.8382  1.2206  4.4972
  246MOL0     H33203  11.179   5.219   5.732 -1.8227 -0.0314  0.0295
  246MOL0     H33204  11.396   5.273   5.866  0.4086  0.1707  0.0603
  246MOL0     H33205  11.356   5.443   5.829  0.0804 -0.0212 -0.4510
  246MOL0     H33206  11.409   5.205   5.644 -3.4878 -0.8066  3.2442
  246MOL0     H33207  11.536   5.307   5.690 -0.6187 -1.1009  0.3060
  246MOL0     H33208  11.390   5.577   5.398 -2.6977 -0.8480 -0.6577
  246MOL0     H33209  11.064   5.443   6.183  0.2089  3.4528  2.3429
  246MOL0     H33210  10.878   5.527   6.317  2.3694  1.4855 -1.7344
  247MOL0     O33211  10.847   6.669   3.757 -0.5034  0.2176 -0.3295
  247MOL0     C33212  10.800   6.747   3.680  0.3776 -0.4952  0.3886
  247MOL0     O33213  10.838   6.764   3.546  0.3589 -0.2222 -0.0362
  247MOL0     C33214  10.959   6.708   3.502 -0.5535  0.2139 -0.0992
  247MOL0     C33215  10.949   6.622   3.386 -0.8442  0.8297 -0.2745
  247MOL0     C33216  11.066   6.549   3.339  0.0869 -2.0293 -0.0326
  247MOL0     C33217  11.180   6.557   3.414 -0.2144 -0.8397  0.2460
  247MOL0     O33218  11.297   6.497   3.389  0.1541 -0.2766 -0.8891
  247MOL0     C33219  11.315   6.410   3.279 -0.2135 -0.8019  0.0382
  247MOL0     C33220  11.459   6.373   3.265  0.0441  0.4104  0.6292
  247MOL0     C33221  11.480   6.261   3.165 -0.4686 -0.2858 -0.5917
  247MOL0     C33222  11.456   6.303   3.021  0.7596 -0.1579 -0.2464
  247MOL0     C33223  11.508   6.210   2.915 -0.0544  0.0272  0.3341
  247MOL0     C33224  11.659   6.227   2.885  0.8022 -1.0687 -0.0801
  247MOL0     C33225  11.695   6.110   2.799 -0.6063  0.8879  0.9707
  247MOL0     C33226  11.812   6.134   2.705 -0.8417  0.2445  0.5584
  247MOL0     N33227  11.945   6.150   2.764  0.5325 -0.0272  0.2770
  247MOL0     C33228  12.017   6.265   2.776  0.8150 -0.6011 -0.6045
  247MOL0     C33229  12.145   6.224   2.781  0.2617 -0.9454 -0.0612
  247MOL0     C33230  12.271   6.299   2.767  0.8286 -0.2498 -0.4760
  247MOL0     C33231  12.296   6.351   2.614  0.5133 -0.0720  0.1204
  247MOL0     C33232  12.178   6.443   2.565  0.5187  0.0074  0.1287
  247MOL0     C33233  12.141   6.565   2.653  0.3919 -0.3876 -0.7894
  247MOL0     O33234  12.029   6.637   2.590  0.9568 -0.5571 -0.1879
  247MOL0     C33235  11.900   6.606   2.637 -0.2493  0.6277 -0.3323
  247MOL0     C33236  11.857   6.639   2.760  0.2150  0.5575 -0.4185
  247MOL0     C33237  11.728   6.623   2.801  0.1088  0.4652  0.4081
  247MOL0     C33238  11.699   6.688   2.935  0.4873 -0.1517 -0.7084
  247MOL0     C33239  11.634   6.553   2.716 -0.0817 -0.2251  0.2362
  247MOL0     C33240  11.492   6.534   2.750  0.0163 -0.5960  0.1969
  247MOL0     O33241  11.429   6.629   2.824  0.3649 -0.3072 -0.2654
  247MOL0     C33242  11.293   6.656   2.804 -0.6777 -0.0297  0.3011
  247MOL0     C33243  11.193   6.558   2.837  0.7629 -0.2975 -0.2278
  247MOL0     C33244  11.060   6.598   2.833 -0.5788  0.4349 -0.1634
  247MOL0     C33245  11.018   6.723   2.794 -0.0001 -0.3936 -0.2610
  247MOL0     O33246  10.889   6.750   2.793  0.0568 -0.0512 -1.6007
  247MOL0     C33247  10.828   6.880   2.757  0.3029  0.1859  0.8671
  247MOL0     C33248  10.839   7.001   2.852 -0.2776 -0.0170 -0.0096
  247MOL0     C33249  10.721   7.085   2.832 -0.5123 -0.4114  0.1722
  247MOL0     C33250  10.752   7.209   2.911 -0.0444 -0.3641 -0.0133
  247MOL0     C33251  10.637   7.311   2.885 -0.5785 -0.2867  0.8648
  247MOL0     C33252  10.650   7.436   2.981 -0.3930  0.4610  0.2112
  247MOL0     C33253  10.752   7.540   2.945  0.1168 -1.0445 -0.0080
  247MOL0     C33254  10.676   7.662   2.878  0.7126 -0.7522 -0.7159
  247MOL0    Cl33255  10.614   7.783   2.994 -0.4020 -0.7511 -0.2621
  247MOL0     C33256  11.119   6.817   2.771  0.2972  0.1530  0.5275
  247MOL0     C33257  11.249   6.785   2.781 -0.6278  0.7190  0.7040
  247MOL0     O33258  11.440   6.429   2.711 -0.6735 -0.4450 -0.1570
  247MOL0     C33259  11.685   6.512   2.584 -0.0046 -0.1122  0.6351
  247MOL0     C33260  11.820   6.533   2.551  0.1823  0.2651 -0.6480
  247MOL0     N33261  12.146   6.089   2.788 -0.1635 -0.0765  0.4279
  247MOL0     N33262  12.026   6.044   2.776 -0.1817  0.3778 -0.2568
  247MOL0     C33263  11.179   6.632   3.529 -0.8804 -0.5922 -0.3049
  247MOL0     C33264  11.075   6.707   3.580  1.0644  0.2456 -0.7861
  247MOL0     C33265  10.679   6.820   3.732  0.2983  0.4443  0.0425
  247MOL0     C33266  10.620   6.794   3.857 -0.5484 -0.6137  0.5177
  247MOL0     C33267  10.509   6.867   3.903 -0.0363  0.1378 -0.4918
  247MOL0     C33268  10.447   6.975   3.825 -1.1382  0.7887  0.1595
  247MOL0     O33269  10.342   7.045   3.866 -0.3266 -0.0516  0.4844
  247MOL0     C33270  10.246   6.972   3.950 -0.6707  0.1778  0.6126
  247MOL0     C33271  10.109   7.037   3.923 -0.4427  0.4041 -0.3651
  247MOL0     C33272  10.058   7.021   3.774  0.0629 -0.5812  0.3063
  247MOL0     C33273   9.912   7.072   3.766  0.4699 -0.1296 -0.2847
  247MOL0     C33274   9.889   7.136   3.633  0.1224 -0.2638 -0.9115
  247MOL0     C33275   9.866   7.190   3.525 -0.2479  0.0201 -0.0492
  247MOL0     C33276  10.521   7.016   3.712  0.0470 -0.2150 -0.5427
  247MOL0     C33277  10.626   6.930   3.667 -0.2367  0.3221  0.2069
  247MOL0     H33278  10.854   6.624   3.333 -1.8244  0.8209  1.4383
  247MOL0     H33279  11.055   6.483   3.254  2.6720 -0.7275 -1.5146
  247MOL0     H33280  11.258   6.318   3.296 -0.4147 -1.0198 -1.6958
  247MOL0     H33281  11.273   6.455   3.189 -0.9771 -1.4713  0.0470
  247MOL0     H33282  11.511   6.463   3.231 -0.3124  0.5390  0.4182
  247MOL0     H33283  11.497   6.363   3.367 -1.0904  0.1825  1.0411
  247MOL0     H33284  11.580   6.220   3.179 -1.2082 -1.7753  0.6831
  247MOL0     H33285  11.412   6.181   3.198 -1.3961  0.9381  0.5787
  247MOL0     H33286  11.347   6.290   3.016  0.5670  1.2776 -0.0305
  247MOL0     H33287  11.486   6.406   3.001 -0.8320  0.6905  1.4617
  247MOL0     H33288  11.482   6.111   2.954  1.6172 -0.2476  0.8196
  247MOL0     H33289  11.453   6.231   2.823 -0.0720  2.1767  0.7666
  247MOL0     H33290  11.678   6.325   2.840 -3.8608  0.1856  0.2119
  247MOL0     H33291  11.722   6.223   2.975 -0.1340  2.3953  0.8799
  247MOL0     H33292  11.731   6.034   2.869  1.3552 -0.0424 -0.9386
  247MOL0     H33293  11.606   6.075   2.746 -0.0867  0.6535  0.2337
  247MOL0     H33294  11.780   6.227   2.658 -1.4934 -0.0088  0.4915
  247MOL0     H33295  11.808   6.053   2.632  2.3132 -2.3955  2.9961
  247MOL0     H33296  11.984   6.368   2.784  2.2186 -0.2873  3.3166
  247MOL0     H33297  12.269   6.382   2.838 -1.2264 -1.9593  1.6207
  247MOL0     H33298  12.355   6.231   2.786  2.3392  1.1009 -1.8852
  247MOL0     H33299  12.301   6.256   2.559 -1.4422  0.8158 -1.7237
  247MOL0     H33300  12.388   6.410   2.605 -1.2998  2.8223 -0.5792
  247MOL0     H33301  12.086   6.384   2.561 -0.0477  0.9237 -0.6358
  247MOL0     H33302  12.198   6.473   2.462 -2.0116  1.0839 -0.1220
  247MOL0     H33303  12.220   6.641   2.653 -1.9170  2.2367  0.4922
  247MOL0     H33304  12.131   6.538   2.759 -1.9627  1.6983 -0.3808
  247MOL0     H33305  11.923   6.690   2.829 -0.8859 -0.4468  1.4502
  247MOL0     H33306  11.789   6.725   2.984  0.7056 -1.0848 -0.3852
  247MOL0     H33307  11.624   6.766   2.914 -0.4846 -1.0286 -0.5964
  247MOL0     H33308  11.645   6.617   2.998  1.0752  0.0696  0.0688
  247MOL0     H33309  11.221   6.460   2.875 -0.9398 -0.1274  1.6109
  247MOL0     H33310  10.983   6.528   2.864 -1.0532  0.7615 -0.5876
  247MOL0     H33311  10.838   6.914   2.654 -1.4771 -0.0058  0.5970
  247MOL0     H33312  10.724   6.846   2.760  0.2216  0.4136  0.6913
  247MOL0     H33313  10.857   6.960   2.952  1.2842 -1.0894 -0.6841
  247MOL0     H33314  10.932   7.053   2.828  0.4455  0.1002  2.7542
  247MOL0     H33315  10.622   7.040   2.849 -0.6935 -0.9164 -1.9098
  247MOL0     H33316  10.723   7.115   2.727  0.5025 -0.8105  0.0673
  247MOL0     H33317  10.753   7.193   3.019 -1.9000 -1.9820 -0.1644
  247MOL0     H33318  10.845   7.259   2.883 -1.1344  1.3071 -0.8188
  247MOL0     H33319  10.541   7.259   2.895 -0.9324  0.1989  0.0895
  247MOL0     H33320  10.646   7.333   2.778 -0.3933 -0.2009  0.8985
  247MOL0     H33321  10.552   7.484   2.985 -0.2229  1.2165 -2.6705
  247MOL0     H33322  10.670   7.409   3.085 -1.5442  0.6253  0.4857
  247MOL0     H33323  10.812   7.503   2.861  2.2398  0.3939  0.8130
  247MOL0     H33324  10.821   7.553   3.028  0.8666 -1.7606 -0.5118
  247MOL0     H33325  10.603   7.625   2.805 -0.4505  0.4774 -0.2281
  247MOL0     H33326  10.750   7.716   2.818  0.8389  0.5559  0.5350
  247MOL0     H33327  11.098   6.920   2.744  0.5941 -0.3849 -2.1063
  247MOL0     H33328  11.329   6.858   2.769  3.0981 -3.0687  0.3472
  247MOL0     H33329  11.626   6.473   2.502 -0.4781  0.5654  0.6460
  247MOL0     H33330  11.854   6.502   2.453  0.9412  0.7200 -0.5329
  247MOL0     H33331  11.271   6.641   3.587 -0.2574  1.7628 -1.5274
  247MOL0     H33332  11.073   6.748   3.680 -2.7534 -0.7944 -0.2847
  247MOL0     H33333  10.659   6.708   3.912  0.6941 -0.1916  0.3431
  247MOL0     H33334  10.459   6.838   3.995 -0.9065 -0.2981 -1.0854
  247MOL0     H33335  10.240   6.867   3.920  1.6434 -0.5920  2.5169
  247MOL0     H33336  10.288   6.973   4.051  4.3559  0.0073 -1.1719
  247MOL0     H33337  10.111   7.135   3.971  1.7481  0.1169  0.2580
  247MOL0     H33338  10.046   6.981   3.993  2.0096 -1.8691  0.2032
  247MOL0     H33339  10.055   6.921   3.731 -1.7418  1.0970 -4.1482
  247MOL0     H33340  10.126   7.068   3.701 -0.0518 -0.5286  0.2323
  247MOL0     H33341   9.903   7.153   3.840  0.0763 -3.2662  3.4059
  247MOL0     H33342   9.842   6.989   3.770  1.4085 -0.9542 -0.5663
  247MOL0     H33343   9.843   7.250   3.439 -2.9269  0.1285  0.6425
  247MOL0     H33344  10.486   7.093   3.643 -0.9316  1.6900  1.9048
  247MOL0     H33345  10.673   6.954   3.572 -0.2834  2.4933  0.6748
  248MOL0     O33346   8.990   6.468  11.212  0.2631  0.4281  0.6251
  248MOL0     C33347   9.036   6.543  11.122 -0.5073  0.7517  0.2190
  248MOL0     O33348   8.972   6.593  11.016 -0.5005  0.0169 -0.2075
  248MOL0     C33349   8.835   6.576  11.001  0.4503  0.1410  0.8259
  248MOL0     C33350   8.788   6.533  10.877 -0.5337  0.0914 -0.5614
  248MOL0     C33351   8.653   6.524  10.843  0.1661  0.3142  0.3632
  248MOL0     C33352   8.559   6.552  10.940  0.4078 -0.1633  0.1163
  248MOL0     O33353   8.425   6.542  10.922 -0.1331 -0.1226  0.6784
  248MOL0     C33354   8.359   6.466  10.814 -0.3595  0.2673 -1.6647
  248MOL0     C33355   8.213   6.466  10.852  1.0362 -1.0990  0.6813
  248MOL0     C33356   8.127   6.411  10.746 -0.1275  1.0295 -0.5186
  248MOL0     C33357   8.167   6.276  10.680 -0.4450 -0.3341 -0.4817
  248MOL0     C33358   8.061   6.192  10.605  0.4146 -0.4144  0.8279
  248MOL0     C33359   7.951   6.275  10.538  0.4268  0.1661 -1.1180
  248MOL0     C33360   7.845   6.189  10.477 -0.1708  0.4914 -0.2473
  248MOL0     C33361   7.722   6.275  10.427 -0.1241 -0.0183  0.1797
  248MOL0     N33362   7.624   6.186  10.357  1.1396  0.3700 -0.3561
  248MOL0     C33363   7.487   6.184  10.388 -0.2944  0.7652  0.5727
  248MOL0     C33364   7.442   6.082  10.315 -0.7733 -0.0077  0.3735
  248MOL0     C33365   7.306   6.017  10.308 -0.9969  0.3339  1.2526
  248MOL0     C33366   7.217   6.111  10.232 -1.6412  0.0807  0.3349
  248MOL0     C33367   7.089   6.045  10.170  0.6893 -0.7170  1.0069
  248MOL0     C33368   7.006   6.149  10.111  0.3557 -0.8882  0.6235
  248MOL0     O33369   6.954   6.245  10.208 -0.3050 -1.0366 -0.7036
  248MOL0     C33370   6.844   6.325  10.174 -0.1290  0.0242 -0.3886
  248MOL0     C33371   6.854   6.406  10.065 -0.3518  0.1862 -0.1290
  248MOL0     C33372   6.745   6.484  10.022 -0.5769 -0.2490 -0.7261
  248MOL0     C33373   6.756   6.564   9.889 -0.3137 -0.0248 -0.0886
  248MOL0     C33374   6.632   6.490  10.112 -0.6391 -0.4249  0.2046
  248MOL0     C33375   6.500   6.560  10.090  0.2044 -0.3251  0.3148
  248MOL0     O33376   6.434   6.620  10.200 -1.1400  0.6960 -0.0510
  248MOL0     C33377   6.312   6.678  10.177 -0.2245 -0.2327  1.1126
  248MOL0     C33378   6.281   6.765  10.072  0.0327 -0.5638 -0.4523
  248MOL0     C33379   6.155   6.821  10.056 -0.6922 -0.0158 -0.7151
  248MOL0     C33380   6.048   6.776  10.135  1.9038  0.0872 -0.1140
  248MOL0     O33381   5.924   6.821  10.092  0.6533 -0.3210  0.6297
  248MOL0     C33382   5.807   6.771  10.159 -0.2655 -0.0808 -1.2030
  248MOL0     C33383   5.697   6.815  10.065 -0.0133  0.4942  0.9698
  248MOL0     C33384   5.563   6.804  10.137  0.1273 -1.1034  0.7471
  248MOL0     C33385   5.456   6.822  10.022 -0.7722  0.3099 -1.0444
  248MOL0     C33386   5.309   6.776  10.070  0.1389 -0.9199  0.3406
  248MOL0     C33387   5.304   6.627  10.110 -0.7128  0.1636 -0.2441
  248MOL0     C33388   5.166   6.578  10.126  0.8408 -0.7438 -0.0742
  248MOL0     C33389   5.148   6.431  10.175 -0.1859 -0.5973 -0.2583
  248MOL0    Cl33390   5.176   6.309  10.050 -0.4475 -0.0210  0.3351
  248MOL0     C33391   6.072   6.678  10.235  1.2714 -0.6899  0.4475
  248MOL0     C33392   6.207   6.631  10.253 -0.6875 -1.1397  0.2478
  248MOL0     O33393   6.449   6.550   9.975  0.2675  0.1032 -0.9933
  248MOL0     C33394   6.637   6.430  10.237 -0.2026  0.2017  0.6536
  248MOL0     C33395   6.743   6.346  10.267 -0.0349  0.3009  1.0364
  248MOL0     N33396   7.552   6.024  10.243  0.1360  0.1382  0.2785
  248MOL0     N33397   7.658   6.084  10.273  0.3584 -0.8100  0.3063
  248MOL0     C33398   8.596   6.587  11.072 -0.1784 -0.3359  0.2658
  248MOL0     C33399   8.740   6.590  11.105  1.2885 -0.4018 -0.3221
  248MOL0     C33400   9.186   6.564  11.128 -0.0924 -0.2387 -0.2184
  248MOL0     C33401   9.239   6.678  11.070  0.2279  0.2529 -0.8378
  248MOL0     C33402   9.372   6.705  11.075 -0.6455  0.5033 -0.7145
  248MOL0     C33403   9.465   6.629  11.151  0.1212  0.8251 -1.2665
  248MOL0     O33404   9.598   6.643  11.171 -0.3893 -0.1669 -0.0945
  248MOL0     C33405   9.669   6.753  11.107  0.0082  0.0402  0.3700
  248MOL0     C33406   9.668   6.891  11.185  0.0262  0.3363 -0.5030
  248MOL0     C33407   9.793   6.919  11.265 -1.0467  0.2905 -0.4051
  248MOL0     C33408   9.779   7.051  11.342  0.4362  0.6753  0.7874
  248MOL0     C33409   9.684   7.037  11.452  0.1076 -0.2157 -0.5179
  248MOL0     C33410   9.598   7.037  11.541  0.0954  0.0145  0.5285
  248MOL0     C33411   9.414   6.507  11.209  0.8571  0.3194 -0.5435
  248MOL0     C33412   9.275   6.481  11.200  0.0427 -0.1277 -0.7394
  248MOL0     H33413   8.858   6.503  10.799 -0.4119 -0.4638 -0.2400
  248MOL0     H33414   8.616   6.509  10.742  1.7008 -0.8827 -0.0496
  248MOL0     H33415   8.376   6.506  10.713  2.2588  2.2724 -0.5478
  248MOL0     H33416   8.388   6.361  10.814  2.0123  0.8038  0.8763
  248MOL0     H33417   8.185   6.412  10.942 -3.5252  0.6323  0.5852
  248MOL0     H33418   8.193   6.573  10.866  0.8329 -1.0072 -0.2102
  248MOL0     H33419   8.030   6.404  10.796  0.6147  3.1980  1.4205
  248MOL0     H33420   8.123   6.486  10.666 -2.1324  0.7113 -0.7564
  248MOL0     H33421   8.243   6.293  10.604  1.7001 -0.6620  1.4773
  248MOL0     H33422   8.214   6.207  10.752  0.1263  0.0002 -0.5292
  248MOL0     H33423   8.124   6.135  10.536  1.4226 -0.3159  1.6265
  248MOL0     H33424   8.009   6.120  10.670 -1.8904 -0.8951 -1.4292
  248MOL0     H33425   7.902   6.336  10.614  0.8377 -0.8171 -0.0351
  248MOL0     H33426   7.991   6.340  10.460  0.8634  0.4173 -0.6977
  248MOL0     H33427   7.888   6.131  10.395  2.1283 -1.3499  2.0926
  248MOL0     H33428   7.803   6.131  10.559 -1.5099 -1.0169 -1.9350
  248MOL0     H33429   7.762   6.352  10.360  3.0817 -0.8919  0.9537
  248MOL0     H33430   7.667   6.314  10.513  0.3730 -0.1123  0.5467
  248MOL0     H33431   7.419   6.249  10.443 -1.8190  0.8795 -1.3543
  248MOL0     H33432   7.314   5.925  10.250 -1.5058  0.2263  1.3442
  248MOL0     H33433   7.268   5.992  10.408 -1.3222 -2.0345  0.5873
  248MOL0     H33434   7.274   6.152  10.148 -0.7702  1.9933  1.8055
  248MOL0     H33435   7.191   6.188  10.304  1.7553  1.8455 -0.1710
  248MOL0     H33436   7.030   6.005  10.253 -1.7471  0.8072  0.1027
  248MOL0     H33437   7.118   5.969  10.096 -4.0040 -2.4511  0.5928
  248MOL0     H33438   6.915   6.103  10.071  1.3698 -4.2245  1.8480
  248MOL0     H33439   7.070   6.194  10.035 -0.5574 -2.6252 -1.2521
  248MOL0     H33440   6.941   6.394  10.001 -1.7508  0.2355 -2.1279
  248MOL0     H33441   6.836   6.638   9.888 -1.2798  1.1205 -2.7315
  248MOL0     H33442   6.782   6.490   9.812  0.7214  1.3643 -1.1210
  248MOL0     H33443   6.659   6.603   9.858 -0.6600  0.0524  1.0698
  248MOL0     H33444   6.360   6.794  10.004 -0.7115  0.5422 -0.8705
  248MOL0     H33445   6.140   6.882   9.968  0.1072  0.5583 -0.4712
  248MOL0     H33446   5.814   6.663  10.169  1.9128  0.1680  0.9528
  248MOL0     H33447   5.788   6.828  10.251 -2.5065  1.4922 -2.5479
  248MOL0     H33448   5.723   6.916  10.030 -1.0524  0.4971  0.1433
  248MOL0     H33449   5.692   6.746   9.981 -1.4758 -1.9699  2.9589
  248MOL0     H33450   5.538   6.886  10.205 -2.9957 -0.7402 -0.6653
  248MOL0     H33451   5.552   6.716  10.202  1.2093 -1.5820  0.3136
  248MOL0     H33452   5.456   6.930  10.004 -0.9998  0.5981  0.4845
  248MOL0     H33453   5.486   6.778   9.927  0.6259  1.9717 -1.4108
  248MOL0     H33454   5.231   6.792   9.995  0.9334  2.1335  0.0562
  248MOL0     H33455   5.272   6.835  10.154 -1.1182  2.1716 -2.1965
  248MOL0     H33456   5.345   6.569  10.027 -0.9026 -1.8783  1.0369
  248MOL0     H33457   5.357   6.607  10.203  0.3139  1.4456 -0.5239
  248MOL0     H33458   5.133   6.569  10.022  2.8233 -4.0875 -0.5635
  248MOL0     H33459   5.098   6.643  10.181 -0.1855 -2.2896  0.5428
  248MOL0     H33460   5.044   6.419  10.207  0.2625  1.7982  2.5762
  248MOL0     H33461   5.216   6.400  10.254 -0.2127 -0.3013 -0.1166
  248MOL0     H33462   5.992   6.641  10.299  1.2387 -1.5526 -0.0671
  248MOL0     H33463   6.232   6.568  10.337 -1.8321 -2.8879 -0.6675
  248MOL0     H33464   6.549   6.433  10.301  1.5165 -2.7610  3.4601
  248MOL0     H33465   6.728   6.289  10.359  1.5121 -0.4733  0.8348
  248MOL0     H33466   8.520   6.630  11.135  1.7515  4.0659 -0.0418
  248MOL0     H33467   8.768   6.629  11.203 -1.6941 -0.7038  0.7475
  248MOL0     H33468   9.177   6.743  11.010 -0.5019 -0.8112 -1.2721
  248MOL0     H33469   9.398   6.797  11.022  1.5096  0.4967  0.2360
  248MOL0     H33470   9.772   6.720  11.088  1.0254  3.3331 -0.5282
  248MOL0     H33471   9.627   6.770  11.007  1.3700 -0.4449 -0.3180
  248MOL0     H33472   9.578   6.899  11.247  2.1843  0.7270  2.8896
  248MOL0     H33473   9.648   6.963  11.105 -1.2623 -1.3957 -1.8003
  248MOL0     H33474   9.882   6.922  11.202  1.3039 -1.4308  2.5345
  248MOL0     H33475   9.820   6.837  11.332 -0.9897  1.6383  1.3120
  248MOL0     H33476   9.748   7.129  11.272 -1.8111  0.0045  0.9595
  248MOL0     H33477   9.879   7.077  11.378  0.6916 -1.1306  1.4906
  248MOL0     H33478   9.524   7.026  11.618  1.5453 -0.6778  1.8991
  248MOL0     H33479   9.482   6.440  11.261 -0.2844  1.5660  2.8134
  248MOL0     H33480   9.240   6.401  11.264  0.1857 -0.2269 -0.7838
  249MOL0     O33481   6.866  11.044   3.057 -0.1718 -0.2539  0.5717
  249MOL0     C33482   6.799  11.103   2.964 -0.7848  0.5226 -0.8843
  249MOL0     O33483   6.860  11.181   2.863 -0.4305  0.6073 -0.3514
  249MOL0     C33484   6.989  11.170   2.830  0.8233 -0.5744 -0.7040
  249MOL0     C33485   7.027  11.259   2.731  0.4361  0.5828  0.3967
  249MOL0     C33486   7.165  11.288   2.693 -0.0833 -0.0755 -0.0374
  249MOL0     C33487   7.263  11.213   2.748  0.4368 -0.7009  0.6176
  249MOL0     O33488   7.386  11.239   2.699 -0.4390  0.4739 -0.1022
  249MOL0     C33489   7.441  11.153   2.595 -0.5801  0.1066  0.7314
  249MOL0     C33490   7.579  11.210   2.544  0.5599  0.0619 -0.2341
  249MOL0     C33491   7.693  11.210   2.641  0.9912  0.4194  0.2388
  249MOL0     C33492   7.828  11.264   2.579  0.3549 -0.2807  0.0586
  249MOL0     C33493   7.939  11.181   2.649  0.1896  0.1692  0.2080
  249MOL0     C33494   8.072  11.210   2.581 -1.1347  0.9470 -0.0530
  249MOL0     C33495   8.187  11.144   2.661  0.3953  0.3237 -1.0838
  249MOL0     C33496   8.178  10.985   2.679  0.7816 -0.5765  0.1777
  249MOL0     N33497   8.313  10.936   2.713  0.6689 -0.8795  0.2172
  249MOL0     C33498   8.418  10.935   2.630  0.1546  0.0473  0.0134
  249MOL0     C33499   8.528  10.893   2.701 -0.2415 -0.2080 -0.4625
  249MOL0     C33500   8.673  10.878   2.660  0.0054 -0.4665 -0.0894
  249MOL0     C33501   8.694  10.743   2.580 -0.0879 -0.7013 -0.0180
  249MOL0     C33502   8.676  10.622   2.660  0.5155  0.8748 -0.6142
  249MOL0     C33503   8.748  10.613   2.798  0.3740  0.4249  0.1618
  249MOL0     O33504   8.724  10.480   2.852 -0.4100  0.6711  0.2241
  249MOL0     C33505   8.604  10.455   2.902  0.2953  1.0852  0.1029
  249MOL0     C33506   8.563  10.320   2.898  0.6399 -0.4153  0.7880
  249MOL0     C33507   8.434  10.277   2.944 -0.1614 -0.3988  1.2451
  249MOL0     C33508   8.404  10.135   2.931 -0.4464 -0.9080  0.1479
  249MOL0     C33509   8.341  10.376   2.977 -0.1079 -0.1622 -0.4412
  249MOL0     C33510   8.199  10.343   3.023 -0.0022 -0.3532  0.8343
  249MOL0     O33511   8.100  10.448   3.025  0.4495  0.7396  0.0151
  249MOL0     C33512   7.963  10.430   3.049 -0.2443 -0.5628 -0.6203
  249MOL0     C33513   7.910  10.322   3.112 -0.1676  0.2107  0.2444
  249MOL0     C33514   7.784  10.321   3.164 -0.6351 -1.0874 -0.0201
  249MOL0     C33515   7.698  10.432   3.164 -0.5339 -0.1599  0.6538
  249MOL0     O33516   7.580  10.420   3.219  0.4037  0.0806 -0.2187
  249MOL0     C33517   7.482  10.523   3.192 -0.3525 -0.1557  0.9686
  249MOL0     C33518   7.348  10.468   3.210 -0.3250  0.7525 -0.2220
  249MOL0     C33519   7.238  10.561   3.157 -0.2976  0.4544  0.6485
  249MOL0     C33520   7.227  10.703   3.215  0.0060  0.3305 -1.1202
  249MOL0     C33521   7.086  10.754   3.215 -0.4820 -0.3516  1.2060
  249MOL0     C33522   6.974  10.666   3.281  0.7994 -0.4222  0.0407
  249MOL0     C33523   6.842  10.743   3.258  0.6293 -0.5856 -0.5593
  249MOL0     C33524   6.723  10.648   3.270  0.7640  0.2435  0.1648
  249MOL0    Cl33525   6.713  10.568   3.424 -0.1586 -0.4351 -0.0749
  249MOL0     C33526   7.752  10.551   3.097  0.1828  0.2087  0.4170
  249MOL0     C33527   7.884  10.544   3.043  0.0726 -0.8088  0.6273
  249MOL0     O33528   8.183  10.234   3.073 -0.1613  0.3070  0.2593
  249MOL0     C33529   8.390  10.511   2.997  0.7297  0.1050 -0.7282
  249MOL0     C33530   8.523  10.536   2.968 -0.5373 -0.0469  0.2016
  249MOL0     N33531   8.477  10.850   2.824  0.2280  0.5103  0.2091
  249MOL0     N33532   8.349  10.880   2.831 -0.4416  0.6932 -0.1889
  249MOL0     C33533   7.230  11.128   2.858 -0.1340  1.2731  0.6185
  249MOL0     C33534   7.100  11.101   2.889 -0.5852  0.5439 -0.0089
  249MOL0     C33535   6.657  11.076   2.970 -0.0630 -0.0977  1.1616
  249MOL0     C33536   6.605  10.983   3.067  0.3295  0.0949  0.6437
  249MOL0     C33537   6.464  10.958   3.080 -0.4501 -0.0703 -0.2187
  249MOL0     C33538   6.379  11.024   2.980 -0.1741  0.3158  1.5784
  249MOL0     O33539   6.241  11.021   2.984 -0.5850 -0.9649 -0.1636
  249MOL0     C33540   6.172  10.931   3.071  0.3076  0.1970  0.3344
  249MOL0     C33541   6.025  10.973   3.081  0.0458 -0.2490  0.3109
  249MOL0     C33542   5.951  10.849   3.141  0.4690 -0.0482  0.7834
  249MOL0     C33543   5.819  10.894   3.209 -0.3189 -0.3287  0.2212
  249MOL0     C33544   5.720  10.964   3.132  0.3801 -0.6228  0.2001
  249MOL0     C33545   5.642  11.021   3.062  0.4047  0.1726 -0.5120
  249MOL0     C33546   6.432  11.089   2.870  0.3724 -0.9546 -0.3457
  249MOL0     C33547   6.568  11.126   2.869 -0.7666  0.2971  0.1177
  249MOL0     H33548   6.946  11.312   2.681 -0.7346 -1.1357  0.4106
  249MOL0     H33549   7.194  11.355   2.612  1.0975 -2.3070 -1.5531
  249MOL0     H33550   7.450  11.047   2.619  2.5955  0.5413  1.9636
  249MOL0     H33551   7.376  11.156   2.507 -1.2821 -1.5421  1.1653
  249MOL0     H33552   7.597  11.150   2.454 -1.7594 -0.8258 -0.1764
  249MOL0     H33553   7.558  11.315   2.520  1.1582  0.1149 -0.5575
  249MOL0     H33554   7.664  11.281   2.719 -4.6439  1.2291 -2.1317
  249MOL0     H33555   7.693  11.112   2.690 -1.1435  0.8077  1.0989
  249MOL0     H33556   7.826  11.260   2.470 -3.3739  1.7039 -0.0993
  249MOL0     H33557   7.832  11.370   2.603  0.5111  0.1851 -1.9202
  249MOL0     H33558   7.948  11.187   2.757 -0.2404 -3.6728  0.5930
  249MOL0     H33559   7.913  11.076   2.635  0.5386  0.0475  0.4670
  249MOL0     H33560   8.064  11.171   2.479 -1.3130 -1.4214  0.7983
  249MOL0     H33561   8.082  11.319   2.579  1.7146  0.7540 -1.4287
  249MOL0     H33562   8.290  11.160   2.626  2.7043 -3.1564  3.0287
  249MOL0     H33563   8.194  11.191   2.760 -1.5152  2.6568 -1.9578
  249MOL0     H33564   8.154  10.934   2.586 -0.7652  1.3178 -0.5225
  249MOL0     H33565   8.111  10.967   2.764  1.8050  0.8042  1.3428
  249MOL0     H33566   8.425  10.975   2.529  1.7348 -1.7251 -0.6469
  249MOL0     H33567   8.701  10.960   2.593 -0.0924 -0.4452 -0.1041
  249MOL0     H33568   8.742  10.906   2.740  0.1238  0.2828 -0.4466
  249MOL0     H33569   8.795  10.747   2.540 -0.2768  0.8991 -0.3967
  249MOL0     H33570   8.624  10.753   2.495 -0.7445  3.7817  0.7911
  249MOL0     H33571   8.720  10.547   2.593  0.9125  1.1583 -0.6746
  249MOL0     H33572   8.573  10.593   2.681  1.4372 -0.9187  1.8255
  249MOL0     H33573   8.722  10.702   2.856 -0.3694  1.2435 -1.3707
  249MOL0     H33574   8.856  10.623   2.786  0.0612  1.4003 -2.3903
  249MOL0     H33575   8.635  10.254   2.850  0.6051 -0.2086  0.4477
  249MOL0     H33576   8.490  10.079   2.892 -0.9997 -1.3455 -0.4501
  249MOL0     H33577   8.386  10.103   3.034  2.9868 -0.5197  0.9963
  249MOL0     H33578   8.313  10.122   2.873 -0.7740  0.9881  0.1631
  249MOL0     H33579   7.952  10.223   3.128 -4.4075 -1.7214  0.8465
  249MOL0     H33580   7.738  10.239   3.218 -4.0733  1.4395  1.2654
  249MOL0     H33581   7.507  10.607   3.257  2.4009  1.0412 -1.3860
  249MOL0     H33582   7.491  10.548   3.085 -2.3302 -0.3886  0.7037
  249MOL0     H33583   7.343  10.366   3.171  1.9183  0.2859  0.5176
  249MOL0     H33584   7.337  10.452   3.317 -0.4334 -0.4996 -0.4037
  249MOL0     H33585   7.149  10.498   3.166  0.0617 -0.1201  0.2514
  249MOL0     H33586   7.266  10.567   3.052  4.2178  2.1275  1.7050
  249MOL0     H33587   7.263  10.702   3.318 -3.5141 -0.7072  0.2562
  249MOL0     H33588   7.301  10.762   3.161  0.9292  0.9378  0.7066
  249MOL0     H33589   7.072  10.768   3.107  1.3520  1.5143  1.1573
  249MOL0     H33590   7.090  10.852   3.263  2.1142  1.5697 -2.4918
  249MOL0     H33591   6.969  10.567   3.233 -0.8720 -0.1290 -0.4850
  249MOL0     H33592   6.994  10.648   3.387 -0.6477 -0.8535  0.2751
  249MOL0     H33593   6.838  10.791   3.159  3.1341  0.6503 -0.1487
  249MOL0     H33594   6.835  10.822   3.334 -2.2048 -1.4590  0.2083
  249MOL0     H33595   6.730  10.578   3.187  2.3261 -0.3724  0.7951
  249MOL0     H33596   6.628  10.696   3.242  0.2539 -1.1774 -0.6444
  249MOL0     H33597   7.696  10.644   3.096 -0.6305 -0.2665  0.6233
  249MOL0     H33598   7.934  10.632   3.003  0.2247 -0.4737  1.5311
  249MOL0     H33599   8.326  10.582   3.048 -2.1983 -1.1785 -2.3439
  249MOL0     H33600   8.572  10.630   2.992  1.4167 -1.4777  2.2121
  249MOL0     H33601   7.305  11.092   2.928 -0.7213 -0.2809  0.4941
  249MOL0     H33602   7.089  11.030   2.971 -1.5313  1.2648  0.5042
  249MOL0     H33603   6.676  10.960   3.146  1.2395  3.1138  0.8540
  249MOL0     H33604   6.430  10.905   3.168 -0.6605 -1.4165 -1.0910
  249MOL0     H33605   6.181  10.837   3.015 -0.9641  0.5923 -0.5627
  249MOL0     H33606   6.220  10.914   3.168  0.7115  1.7751  0.4436
  249MOL0     H33607   5.977  10.992   2.985 -0.3901  1.1022  0.7743
  249MOL0     H33608   6.017  11.060   3.148  1.3177  0.7316 -0.7622
  249MOL0     H33609   6.011  10.794   3.215  0.1164 -3.9773 -1.5744
  249MOL0     H33610   5.922  10.779   3.063  0.5218 -0.3782  1.0585
  249MOL0     H33611   5.833  10.969   3.288 -1.0211  0.5579 -0.4750
  249MOL0     H33612   5.767  10.802   3.237  0.2415 -0.8956 -0.5510
  249MOL0     H33613   5.572  11.063   2.993 -0.9172 -1.9436 -0.5539
  249MOL0     H33614   6.368  11.117   2.787 -0.0799 -1.6217 -0.2221
  249MOL0     H33615   6.593  11.191   2.785 -1.3859  0.4012  0.0094
  250MOL0     O33616   4.068   8.821   0.954  0.3810  0.5010  0.2760
  250MOL0     C33617   4.091   8.932   0.990 -0.1496  0.2194  0.0718
  250MOL0     O33618   4.003   9.027   1.024 -0.2994 -0.2460 -0.0253
  250MOL0     C33619   3.875   8.988   1.044 -0.4654 -0.3324  0.0961
  250MOL0     C33620   3.797   8.941   0.940 -0.1819 -0.1781 -0.2973
  250MOL0     C33621   3.665   8.903   0.966  0.7880  0.4684 -0.3574
  250MOL0     C33622   3.608   8.923   1.089 -1.2281  0.3901 -0.4830
  250MOL0     O33623   3.471   8.894   1.114  0.2125 -0.3525  0.2787
  250MOL0     C33624   3.395   8.825   1.016 -1.1803 -0.1824 -0.2353
  250MOL0     C33625   3.251   8.790   1.067 -0.3863  0.2296  1.0227
  250MOL0     C33626   3.171   8.913   1.104  0.3576  0.0089 -0.8789
  250MOL0     C33627   3.046   8.890   1.198 -0.2173  0.3268 -0.1915
  250MOL0     C33628   2.931   8.986   1.165 -0.5971 -0.3669  0.2812
  250MOL0     C33629   2.802   8.911   1.197  0.3314  0.4635 -0.0797
  250MOL0     C33630   2.668   8.992   1.203 -0.6273 -0.2924 -0.2849
  250MOL0     C33631   2.559   8.901   1.255 -0.2482  0.5300 -0.4030
  250MOL0     N33632   2.436   8.978   1.275  0.1100 -0.2779  0.6728
  250MOL0     C33633   2.360   9.033   1.181 -0.2817 -0.0209 -0.2680
  250MOL0     C33634   2.252   9.086   1.235 -0.0308 -0.2635 -0.2622
  250MOL0     C33635   2.126   9.140   1.169 -0.0565  0.0788  1.0152
  250MOL0     C33636   2.034   9.018   1.152  0.8554  0.0025 -0.8451
  250MOL0     C33637   1.969   8.974   1.290 -0.5955  0.2147 -0.0192
  250MOL0     C33638   1.852   8.870   1.260  0.4693 -0.5173  0.3810
  250MOL0     O33639   1.773   8.914   1.141  0.6461  0.4899  0.2334
  250MOL0     C33640   1.641   8.966   1.151  0.1094  0.2585 -0.0996
  250MOL0     C33641   1.594   9.031   1.261  0.1460  0.0917  0.2823
  250MOL0     C33642   1.463   9.083   1.268 -0.1417 -0.2487 -0.1304
  250MOL0     C33643   1.419   9.163   1.390 -0.2024  0.0557 -0.7021
  250MOL0     C33644   1.377   9.061   1.161  0.3930  0.1718 -0.3858
  250MOL0     C33645   1.233   9.096   1.156  0.8298 -0.4091 -0.3320
  250MOL0     O33646   1.162   9.045   1.047  0.1348 -0.4831  0.2485
  250MOL0     C33647   1.023   9.055   1.041  0.0857  0.0772  0.5359
  250MOL0     C33648   0.947   8.953   0.989  0.0082 -0.4374  0.1102
  250MOL0     C33649   0.802   8.953   0.985 -0.6418 -0.6179  0.7157
  250MOL0     C33650   0.744   9.078   1.006 -0.2634  0.6032  0.6129
  250MOL0     O33651   0.606   9.091   0.992  0.0533 -0.3379  0.0948
  250MOL0     C33652   0.573   9.126   0.856  0.0915 -0.1690  0.8098
  250MOL0     C33653   0.416   9.143   0.863  0.1250  0.9373  0.0821
  250MOL0     C33654   0.351   9.142   0.728 -0.6130  0.5956  0.6721
  250MOL0     C33655   0.198   9.123   0.734 -0.2792  0.4188 -0.1284
  250MOL0     C33656   0.114   9.154   0.613  0.2171  0.1250  0.1879
  250MOL0     C33657  -0.036   9.128   0.643  0.2075  0.4123  0.2582
  250MOL0     C33658  -0.122   9.203   0.523 -0.2224 -0.4770  0.3999
  250MOL0     C33659  -0.107   9.113   0.403  0.5205 -0.0674  0.0499
  250MOL0    Cl33660  -0.197   9.183   0.263 -0.5190  0.1392 -0.4703
  250MOL0     C33661   0.821   9.186   1.051  0.2578 -0.3194 -1.0697
  250MOL0     C33662   0.956   9.174   1.077 -0.4892 -0.0135 -0.0270
  250MOL0     O33663   1.186   9.167   1.248 -0.7790  0.3407  0.0183
  250MOL0     C33664   1.440   9.008   1.044  0.9937 -0.1213  0.3897
  250MOL0     C33665   1.570   8.954   1.041 -0.0131 -0.6312 -0.0775
  250MOL0     N33666   2.263   9.072   1.372 -0.3848 -0.2316 -0.5698
  250MOL0     N33667   2.379   9.022   1.397  0.2265  0.1254 -0.5894
  250MOL0     C33668   3.678   8.990   1.189 -0.1954  0.4914 -1.0515
  250MOL0     C33669   3.810   9.021   1.163  0.0389  0.5145  0.4710
  250MOL0     C33670   4.231   8.980   1.001 -0.1564 -0.2384 -0.5778
  250MOL0     C33671   4.272   9.089   1.085  0.3106  0.0267 -0.1428
  250MOL0     C33672   4.404   9.128   1.093 -0.2065 -0.0740 -0.0739
  250MOL0     C33673   4.502   9.062   1.022  0.2894 -0.2130 -0.8335
  250MOL0     O33674   4.635   9.093   1.034  0.2623 -0.1833 -0.3878
  250MOL0     C33675   4.684   9.210   1.105 -0.9656 -0.1177  0.0942
  250MOL0     C33676   4.834   9.236   1.065  0.3065 -0.5201  0.6811
  250MOL0     C33677   4.915   9.181   1.182  0.4286 -0.3919  0.1708
  250MOL0     C33678   5.061   9.203   1.154  0.4213  0.2572 -0.1753
  250MOL0     C33679   5.149   9.165   1.264  0.6534  0.3108  0.5061
  250MOL0     C33680   5.210   9.143   1.367  0.8319 -0.1990  0.0556
  250MOL0     C33681   4.466   8.953   0.939  0.4394 -0.5069  0.4119
  250MOL0     C33682   4.332   8.911   0.935  0.0290  0.0848 -0.9361
  250MOL0     H33683   3.841   8.936   0.841  0.1828 -1.9057 -0.0855
  250MOL0     H33684   3.601   8.864   0.887  0.0380 -0.8931  0.8819
  250MOL0     H33685   3.389   8.893   0.930  0.5090  1.4143  0.8440
  250MOL0     H33686   3.450   8.733   0.995 -1.4014 -0.9795  2.2845
  250MOL0     H33687   3.196   8.761   0.977  0.5399  2.1181 -0.2288
  250MOL0     H33688   3.257   8.716   1.148 -2.2758 -1.6591 -0.4548
  250MOL0     H33689   3.234   8.983   1.159 -2.6060  2.2499 -0.0970
  250MOL0     H33690   3.144   8.968   1.013  1.6446 -0.1689 -1.3818
  250MOL0     H33691   3.020   8.783   1.198  3.5590 -0.7395 -1.4827
  250MOL0     H33692   3.071   8.909   1.303 -2.3393 -0.6367  0.5520
  250MOL0     H33693   2.938   9.072   1.232 -0.1015 -1.8042  2.1727
  250MOL0     H33694   2.937   9.009   1.058 -0.2851 -1.7030 -0.0118
  250MOL0     H33695   2.788   8.834   1.120  1.1366 -0.2172  0.4396
  250MOL0     H33696   2.823   8.863   1.293 -0.5374 -0.3744 -0.2863
  250MOL0     H33697   2.690   9.080   1.265  2.1043 -0.2030 -1.2373
  250MOL0     H33698   2.649   9.034   1.104 -0.1932 -0.2308 -0.3426
  250MOL0     H33699   2.587   8.873   1.357 -1.8624  2.5688  0.6980
  250MOL0     H33700   2.550   8.808   1.198  0.1290  0.1131  0.2007
  250MOL0     H33701   2.381   9.018   1.076 -1.3888 -0.2463 -0.4722
  250MOL0     H33702   2.080   9.212   1.236 -0.1597  0.7049  0.2894
  250MOL0     H33703   2.139   9.191   1.073 -0.4124  0.4749  1.1747
  250MOL0     H33704   2.088   8.939   1.100  0.2884  0.5804 -2.3784
  250MOL0     H33705   1.952   9.049   1.087 -1.5408 -0.1529  1.8929
  250MOL0     H33706   1.933   9.064   1.339  1.6260  1.1903 -0.0410
  250MOL0     H33707   2.054   8.940   1.350  2.6529  0.4349 -4.0372
  250MOL0     H33708   1.798   8.864   1.355  3.4916  1.5173  2.3952
  250MOL0     H33709   1.887   8.769   1.237 -2.3618 -1.1573 -1.7831
  250MOL0     H33710   1.671   9.051   1.335  1.9534  2.1700 -2.0216
  250MOL0     H33711   1.330   9.114   1.431  0.7032 -4.6747 -3.5838
  250MOL0     H33712   1.490   9.161   1.473 -1.7247 -1.9586  0.6340
  250MOL0     H33713   1.399   9.266   1.358  1.0890  0.8154  0.8011
  250MOL0     H33714   0.999   8.857   0.981 -0.9046 -1.5060  4.6009
  250MOL0     H33715   0.739   8.869   0.957 -1.7606  0.8273 -1.3771
  250MOL0     H33716   0.625   9.209   0.807  1.4813 -0.3163  1.9882
  250MOL0     H33717   0.589   9.031   0.805 -1.6938 -0.3744  0.5764
  250MOL0     H33718   0.376   9.058   0.920  4.5402 -1.8395 -0.5441
  250MOL0     H33719   0.396   9.241   0.909  0.1556  2.6378 -3.2745
  250MOL0     H33720   0.392   9.071   0.655  0.2161  0.3324  1.3866
  250MOL0     H33721   0.373   9.239   0.682 -1.3259  0.4878  0.0618
  250MOL0     H33722   0.172   9.019   0.755  0.8366  0.0251 -0.6498
  250MOL0     H33723   0.168   9.184   0.820  1.6838 -0.3631  1.1876
  250MOL0     H33724   0.161   9.085   0.542  5.0502 -0.7531  3.7018
  250MOL0     H33725   0.126   9.258   0.581 -0.8279  0.9556  2.3036
  250MOL0     H33726  -0.050   9.020   0.634 -0.7131  0.5397  0.0349
  250MOL0     H33727  -0.058   9.166   0.743 -0.0106 -0.9155  0.7335
  250MOL0     H33728  -0.096   9.306   0.498  2.4408 -0.7743  1.5527
  250MOL0     H33729  -0.225   9.223   0.552 -0.0480 -1.4010  1.7803
  250MOL0     H33730  -0.141   9.009   0.411  0.2182  0.1202  1.5535
  250MOL0     H33731  -0.002   9.105   0.372  1.0823 -2.1185  2.1486
  250MOL0     H33732   0.773   9.283   1.067 -3.1120 -2.2468  2.0555
  250MOL0     H33733   1.018   9.255   1.113 -1.0935  0.5229 -0.1697
  250MOL0     H33734   1.378   8.999   0.956 -1.4569 -5.1472  2.2849
  250MOL0     H33735   1.602   8.907   0.949  1.1352  0.8376 -0.4613
  250MOL0     H33736   3.627   9.016   1.282 -1.6820 -0.0370 -1.6784
  250MOL0     H33737   3.867   9.075   1.238 -1.6353  1.5276  1.0634
  250MOL0     H33738   4.196   9.143   1.141 -0.9438 -1.1088 -0.6784
  250MOL0     H33739   4.426   9.207   1.163 -1.2254 -0.9580  1.3084
  250MOL0     H33740   4.630   9.295   1.063 -0.9962  0.3858  1.1060
  250MOL0     H33741   4.665   9.198   1.213  0.4838  3.7416  0.9388
  250MOL0     H33742   4.856   9.343   1.055  2.4313 -0.8008  1.6431
  250MOL0     H33743   4.861   9.189   0.970  1.4048  0.2137  0.6004
  250MOL0     H33744   4.896   9.076   1.208 -1.0689  0.0123  0.8114
  250MOL0     H33745   4.893   9.247   1.266  1.3129  1.6217 -1.1087
  250MOL0     H33746   5.063   9.310   1.130 -2.4937  0.7100  1.1855
  250MOL0     H33747   5.088   9.132   1.076 -1.9971  0.5401 -1.3487
  250MOL0     H33748   5.252   9.128   1.464 -0.2476 -1.0641  0.4137
  250MOL0     H33749   4.538   8.895   0.883 -0.1443 -2.2533  1.4029
  250MOL0     H33750   4.306   8.826   0.873 -0.5528 -1.3001  1.1060
  251MOL0     O33751   4.236   0.931  10.164 -0.5371 -0.4046 -1.2875
  251MOL0     C33752   4.258   0.936  10.046  0.9332  0.4691 -0.3398
  251MOL0     O33753   4.172   0.885   9.954  0.6773 -0.1337  0.3155
  251MOL0     C33754   4.048   0.838   9.997 -0.7541 -0.2524  0.6787
  251MOL0     C33755   4.016   0.706  10.017  0.7295  0.0566  0.7020
  251MOL0     C33756   3.886   0.668  10.066 -0.4198  0.0001  0.4611
  251MOL0     C33757   3.792   0.769  10.102  0.6082 -0.2757  0.2793
  251MOL0     O33758   3.679   0.733  10.169 -0.2648 -0.2180  0.3257
  251MOL0     C33759   3.593   0.660  10.075 -0.0460  0.3609 -0.0753
  251MOL0     C33760   3.460   0.599  10.125 -0.3089  0.7139  0.2805
  251MOL0     C33761   3.364   0.576  10.004  0.2999  0.1805 -0.3587
  251MOL0     C33762   3.221   0.564  10.048  0.1141 -0.0579  0.5145
  251MOL0     C33763   3.115   0.596   9.939 -1.1542  0.3629  0.6317
  251MOL0     C33764   2.977   0.582  10.010 -0.1729 -1.0584 -0.4491
  251MOL0     C33765   2.867   0.642   9.937  0.6062  0.4144 -0.2356
  251MOL0     C33766   2.896   0.789   9.882  0.2982 -0.2507 -0.1098
  251MOL0     N33767   2.774   0.864   9.844 -0.2108 -0.7971  0.1425
  251MOL0     C33768   2.654   0.824   9.790 -0.5814  0.3174  0.2390
  251MOL0     C33769   2.576   0.938   9.794 -0.8613  0.5574 -0.6268
  251MOL0     C33770   2.445   0.939   9.724 -0.7428  0.8874  0.3474
  251MOL0     C33771   2.421   1.078   9.657 -0.6710 -0.5981 -0.4655
  251MOL0     C33772   2.316   1.067   9.548  0.4435 -0.1119  0.3369
  251MOL0     C33773   2.175   1.044   9.603  0.2566  0.2577  0.1845
  251MOL0     O33774   2.092   1.028   9.501  0.5520 -0.2642  0.0010
  251MOL0     C33775   1.956   1.001   9.515 -0.5759 -0.3118 -0.3983
  251MOL0     C33776   1.889   0.993   9.397 -1.0827 -0.7147  0.8535
  251MOL0     C33777   1.751   0.976   9.393 -0.3729  0.3109 -0.1427
  251MOL0     C33778   1.684   0.987   9.254 -0.5953 -0.7064  0.2319
  251MOL0     C33779   1.680   0.967   9.523 -0.2606 -0.6478 -0.2861
  251MOL0     C33780   1.542   0.921   9.529  0.2898 -0.1073  0.4802
  251MOL0     O33781   1.491   0.894   9.646  0.4202  0.1448 -0.2587
  251MOL0     C33782   1.355   0.864   9.655 -0.4328  0.7851 -0.5405
  251MOL0     C33783   1.326   0.734   9.702  0.0059  0.1493 -0.0504
  251MOL0     C33784   1.195   0.691   9.710 -0.2281  0.2913 -0.2846
  251MOL0     C33785   1.082   0.766   9.675 -0.2124 -0.4552  0.2783
  251MOL0     O33786   0.969   0.701   9.694  0.2479  0.4860  0.0872
  251MOL0     C33787   0.849   0.773   9.675  0.2354  0.4465 -0.0593
  251MOL0     C33788   0.804   0.792   9.530  0.7781 -0.4413  0.0118
  251MOL0     C33789   0.662   0.852   9.525 -0.2778  0.5035  0.5504
  251MOL0     C33790   0.603   0.848   9.382 -0.1694  0.1224  0.4429
  251MOL0     C33791   0.475   0.927   9.379  0.4426  0.4646 -0.2267
  251MOL0     C33792   0.420   0.954   9.246  0.1342  0.1770 -0.5268
  251MOL0     C33793   0.275   1.015   9.264 -0.1000 -0.2833 -0.2839
  251MOL0     C33794   0.253   1.089   9.127 -0.3953  0.3513 -0.9440
  251MOL0    Cl33795   0.128   1.208   9.179  0.2432 -0.3874  0.3262
  251MOL0     C33796   1.117   0.899   9.632  0.1397  0.3900  0.4904
  251MOL0     C33797   1.250   0.945   9.616 -0.6308 -0.6183  0.7374
  251MOL0     O33798   1.474   0.921   9.425  0.6123 -0.3540 -0.8514
  251MOL0     C33799   1.761   0.978   9.639 -1.1112  0.0455 -0.2030
  251MOL0     C33800   1.895   0.978   9.638 -0.2083  0.0118 -0.5464
  251MOL0     N33801   2.645   1.039   9.854 -0.1474  0.3007 -0.4115
  251MOL0     N33802   2.764   0.997   9.869 -0.2491 -0.2535 -1.1007
  251MOL0     C33803   3.836   0.902  10.101  0.5866  0.7434  0.3363
  251MOL0     C33804   3.961   0.933  10.047 -0.4345 -0.8192 -1.0391
  251MOL0     C33805   4.385   0.982  10.002  0.0351 -0.4306 -0.1491
  251MOL0     C33806   4.422   1.005   9.872 -0.6235  1.3254  0.7988
  251MOL0     C33807   4.559   1.039   9.844 -0.1632 -0.2415 -0.5239
  251MOL0     C33808   4.654   1.062   9.939 -0.0520 -0.5001  0.1174
  251MOL0     O33809   4.782   1.098   9.905  0.0878  0.1370  0.9489
  251MOL0     C33810   4.877   1.113  10.005 -0.7574 -0.2648  0.1848
  251MOL0     C33811   5.020   1.157   9.944  0.1263 -0.1182 -0.4100
  251MOL0     C33812   5.062   1.055   9.841 -0.8461 -0.3228 -0.2829
  251MOL0     C33813   5.212   1.035   9.838 -0.1813  0.7996  1.0474
  251MOL0     C33814   5.231   0.934   9.731  0.2407 -0.6835 -0.2239
  251MOL0     C33815   5.247   0.849   9.639  0.1557  0.1476  1.3236
  251MOL0     C33816   4.611   1.032  10.070 -0.8734  0.4534  0.1025
  251MOL0     C33817   4.482   0.993  10.099 -0.3870  0.8660 -0.2367
  251MOL0     H33818   4.080   0.624   9.984  0.3559  0.1846 -0.3861
  251MOL0     H33819   3.867   0.562  10.081 -0.1268 -0.3841 -1.6159
  251MOL0     H33820   3.574   0.725   9.989 -2.4403 -0.3826 -0.1822
  251MOL0     H33821   3.645   0.571  10.038 -0.5727 -0.1990  0.5127
  251MOL0     H33822   3.485   0.507  10.179 -1.8616 -1.1437 -1.9589
  251MOL0     H33823   3.414   0.668  10.196 -0.8382  1.0268 -0.3576
  251MOL0     H33824   3.379   0.667   9.946  1.9705 -0.4251 -0.9222
  251MOL0     H33825   3.382   0.493   9.935 -0.0479  0.1452 -0.4061
  251MOL0     H33826   3.201   0.463  10.087  1.1167 -0.1500  0.8233
  251MOL0     H33827   3.205   0.641  10.124 -1.1551 -1.8528  2.1718
  251MOL0     H33828   3.124   0.693   9.889  1.4076  0.7801  1.7437
  251MOL0     H33829   3.136   0.525   9.859  0.8107  1.6829 -0.1056
  251MOL0     H33830   2.943   0.479  10.022 -1.1505 -1.1532 -3.2111
  251MOL0     H33831   2.977   0.636  10.105  0.2112 -1.9605  0.0749
  251MOL0     H33832   2.833   0.576   9.856 -3.6649 -0.0790  1.6931
  251MOL0     H33833   2.788   0.649  10.012  2.6718  1.5819  1.9501
  251MOL0     H33834   2.956   0.790   9.790 -0.9788  0.6848 -0.9689
  251MOL0     H33835   2.939   0.849   9.962 -1.6448 -0.5436  1.2235
  251MOL0     H33836   2.627   0.728   9.748 -2.1747  0.7024  0.3417
  251MOL0     H33837   2.449   0.869   9.640 -0.4596  2.8988 -1.3745
  251MOL0     H33838   2.371   0.913   9.801  1.0319  2.3948  2.7000
  251MOL0     H33839   2.516   1.114   9.617 -0.3768  1.5435  1.8722
  251MOL0     H33840   2.395   1.151   9.735 -0.2290 -0.4166 -0.4862
  251MOL0     H33841   2.335   0.989   9.474 -0.6727  0.1715 -0.2685
  251MOL0     H33842   2.317   1.167   9.504  0.2135 -0.2070  0.1125
  251MOL0     H33843   2.140   1.135   9.655  2.3942  2.1251 -1.4346
  251MOL0     H33844   2.166   0.964   9.677 -1.9981  0.4004  0.1313
  251MOL0     H33845   1.944   1.013   9.306 -0.4010 -1.6077  1.0522
  251MOL0     H33846   1.624   0.900   9.222 -1.3671  0.2228 -0.9306
  251MOL0     H33847   1.621   1.076   9.247 -0.9546 -1.0402 -1.2162
  251MOL0     H33848   1.754   0.997   9.170  0.6727 -0.7072  1.2605
  251MOL0     H33849   1.404   0.666   9.735 -1.2079 -1.0564  0.4521
  251MOL0     H33850   1.181   0.593   9.755 -1.6238  1.1009  1.1338
  251MOL0     H33851   0.770   0.719   9.728  0.9279 -0.7133 -0.1881
  251MOL0     H33852   0.859   0.870   9.724  0.8107  1.1016 -1.4323
  251MOL0     H33853   0.871   0.855   9.471  0.2599  0.2280  0.1208
  251MOL0     H33854   0.796   0.695   9.482 -2.2225 -0.2035 -0.1844
  251MOL0     H33855   0.673   0.949   9.575  2.7227  0.2582  0.5824
  251MOL0     H33856   0.593   0.786   9.577  0.3857 -0.1635  0.6028
  251MOL0     H33857   0.665   0.904   9.312 -1.5500  1.4142  0.1911
  251MOL0     H33858   0.585   0.753   9.332 -2.3324  1.0271 -0.6446
  251MOL0     H33859   0.494   1.022   9.429  0.9235  1.1109 -1.5850
  251MOL0     H33860   0.397   0.866   9.425 -0.2477  1.8855  0.5426
  251MOL0     H33861   0.502   1.009   9.198  3.2576 -1.8833  1.9542
  251MOL0     H33862   0.407   0.856   9.200  0.4760 -0.6359  1.0487
  251MOL0     H33863   0.264   1.090   9.343  0.0793 -2.2211  1.6751
  251MOL0     H33864   0.199   0.940   9.289  0.3506 -0.5731  0.2177
  251MOL0     H33865   0.214   1.016   9.054 -2.3254  0.5928 -0.2158
  251MOL0     H33866   0.350   1.133   9.103  1.1825 -2.5129 -0.2859
  251MOL0     H33867   1.035   0.960   9.594 -1.0174 -0.8354  0.9425
  251MOL0     H33868   1.275   1.035   9.561  2.4686 -3.1558 -2.4960
  251MOL0     H33869   1.713   0.959   9.735  0.2933 -0.8017  0.3533
  251MOL0     H33870   1.960   0.953   9.722  0.7997 -1.3371 -1.6723
  251MOL0     H33871   3.778   0.982  10.145 -0.9088 -1.0031  1.7315
  251MOL0     H33872   3.997   1.035  10.052 -0.3952 -0.8815  0.9721
  251MOL0     H33873   4.365   0.998   9.780  1.0998  3.3187 -0.5275
  251MOL0     H33874   4.587   1.059   9.741 -0.6251  1.8762 -0.2817
  251MOL0     H33875   4.846   1.188  10.078 -1.7754  1.9113 -2.3016
  251MOL0     H33876   4.892   1.015  10.051  0.5901  0.0833  0.5272
  251MOL0     H33877   5.094   1.177  10.022  1.7777  1.0515 -2.1626
  251MOL0     H33878   5.001   1.250   9.888 -3.1573 -0.0947  0.5690
  251MOL0     H33879   5.030   1.095   9.744  1.7625  0.6571 -0.8166
  251MOL0     H33880   5.005   0.963   9.860  2.5744 -2.2791  1.4667
  251MOL0     H33881   5.258   0.997   9.929  1.6544  1.1287  0.2991
  251MOL0     H33882   5.259   1.132   9.818 -0.6770  0.5104 -2.0561
  251MOL0     H33883   5.272   0.785   9.557 -2.5190  3.3325 -2.3345
  251MOL0     H33884   4.675   1.037  10.158 -0.9732  0.3898  0.1787
  251MOL0     H33885   4.465   0.955  10.199 -4.5322  1.5160 -0.5060
  252MOL0     O33886   1.464   9.925   3.915  0.5399  0.4588 -0.6196
  252MOL0     C33887   1.459   9.989   4.022 -0.0866 -0.1954 -0.1675
  252MOL0     O33888   1.355  10.007   4.110 -0.2313  0.1386 -0.0112
  252MOL0     C33889   1.222   9.981   4.091  0.2414 -0.1729  1.0009
  252MOL0     C33890   1.130  10.040   4.181  0.2329 -0.1172 -0.1187
  252MOL0     C33891   0.994  10.016   4.166 -0.5895 -0.2917 -0.2238
  252MOL0     C33892   0.947   9.929   4.070  0.3233 -0.3085 -0.0299
  252MOL0     O33893   0.815   9.883   4.075 -0.0934 -0.2228  0.6836
  252MOL0     C33894   0.776   9.756   4.026  0.1658  0.5528  0.1135
  252MOL0     C33895   0.639   9.722   4.063 -0.3329 -0.7971  0.3558
  252MOL0     C33896   0.537   9.811   3.994  0.8667  0.1847 -0.0654
  252MOL0     C33897   0.399   9.747   4.036  0.1254  0.2872 -0.1122
  252MOL0     C33898   0.281   9.847   4.020 -0.1026 -0.3486 -0.3549
  252MOL0     C33899   0.143   9.800   4.046 -0.0599 -0.4488 -0.6295
  252MOL0     C33900   0.036   9.913   4.013 -0.1456 -0.2117  0.1273
  252MOL0     C33901  -0.099   9.861   4.051 -0.0574  0.4912 -0.1211
  252MOL0     N33902  -0.194   9.972   4.048 -0.5135  0.2432 -0.7401
  252MOL0     C33903  -0.190  10.086   4.125  0.2560 -0.3884 -0.6442
  252MOL0     C33904  -0.267  10.183   4.056 -0.4400  0.6782 -0.5229
  252MOL0     C33905  -0.289  10.327   4.086 -0.1153  0.1733  0.2899
  252MOL0     C33906  -0.188  10.415   4.018 -0.6405 -0.9567  0.1551
  252MOL0     C33907  -0.059  10.421   4.100 -0.6301  0.2408  0.5102
  252MOL0     C33908  -0.036  10.554   4.171  0.5885 -0.7715  1.1926
  252MOL0     O33909  -0.155  10.561   4.257  0.2873  0.3696  0.3892
  252MOL0     C33910  -0.228  10.668   4.251  0.0853 -0.2818  0.3501
  252MOL0     C33911  -0.179  10.799   4.256  0.5037 -0.1644  0.4942
  252MOL0     C33912  -0.266  10.908   4.272 -0.9790  0.5655  0.0086
  252MOL0     C33913  -0.209  11.044   4.300  0.2591 -0.3519 -0.6734
  252MOL0     C33914  -0.405  10.887   4.255  0.1058  0.0845 -0.3798
  252MOL0     C33915  -0.511  10.992   4.259  0.1258 -0.6175 -0.4994
  252MOL0     O33916  -0.641  10.950   4.295 -0.2941  0.1448 -1.0656
  252MOL0     C33917  -0.762  10.995   4.248 -0.1296  0.0352 -0.4404
  252MOL0     C33918  -0.771  11.103   4.151 -0.5230  0.6109 -0.3731
  252MOL0     C33919  -0.895  11.140   4.113  0.3524  1.1715 -0.3942
  252MOL0     C33920  -1.016  11.061   4.131  0.9863 -0.6543 -0.4946
  252MOL0     O33921  -1.135  11.093   4.065  0.0122  0.0931 -0.5477
  252MOL0     C33922  -1.175  10.986   3.979  0.3402  0.0224 -0.0647
  252MOL0     C33923  -1.322  11.015   3.941  0.9092 -0.2395 -0.2393
  252MOL0     C33924  -1.438  10.987   4.037 -0.3518 -0.9676 -0.4525
  252MOL0     C33925  -1.465  10.835   4.051  0.1332 -0.4805 -1.1751
  252MOL0     C33926  -1.583  10.825   4.153 -0.3985  0.2662  1.2192
  252MOL0     C33927  -1.638  10.684   4.144  0.6662  0.0479 -0.2478
  252MOL0     C33928  -1.538  10.575   4.168 -0.0710 -0.1094 -1.1051
  252MOL0     C33929  -1.598  10.443   4.171  1.0882  0.9338 -0.0479
  252MOL0    Cl33930  -1.464  10.324   4.174  0.0784  0.1367  0.0644
  252MOL0     C33931  -0.996  10.948   4.221  0.9638  0.2143  0.0950
  252MOL0     C33932  -0.875  10.924   4.281  0.0571 -0.1607 -0.3802
  252MOL0     O33933  -0.490  11.106   4.224  0.0055  0.2487 -0.1577
  252MOL0     C33934  -0.449  10.754   4.241  0.3172 -1.2062 -0.4034
  252MOL0     C33935  -0.363  10.646   4.243 -0.0047 -0.1058 -0.4788
  252MOL0     N33936  -0.318  10.122   3.939 -0.1814  0.4609 -0.0811
  252MOL0     N33937  -0.275   9.995   3.934 -0.4304 -0.1172 -0.4689
  252MOL0     C33938   1.039   9.866   3.981 -0.6014  0.3465  0.1721
  252MOL0     C33939   1.177   9.897   3.989  1.4729 -0.2619 -0.0453
  252MOL0     C33940   1.584  10.037   4.073 -0.8612 -1.0339 -0.3507
  252MOL0     C33941   1.705   9.991   4.017 -0.4958 -0.5302 -0.7498
  252MOL0     C33942   1.829  10.043   4.068  0.4818 -0.2535  0.4392
  252MOL0     C33943   1.835  10.130   4.171 -0.1515 -0.3157 -0.0024
  252MOL0     O33944   1.954  10.180   4.203  0.5327 -0.3960 -0.1750
  252MOL0     C33945   1.972  10.249   4.330  0.4879 -0.5872  0.4557
  252MOL0     C33946   2.113  10.243   4.382 -0.6239 -0.9743 -0.2524
  252MOL0     C33947   2.213  10.326   4.302  0.3989 -0.9189  0.0563
  252MOL0     C33948   2.355  10.258   4.299 -0.2470 -0.1549 -0.0939
  252MOL0     C33949   2.430  10.293   4.183 -0.2103 -0.3879 -0.2726
  252MOL0     C33950   2.502  10.328   4.095 -0.8250 -1.0676 -0.3092
  252MOL0     C33951   1.712  10.178   4.218 -0.7929  0.6402  0.5913
  252MOL0     C33952   1.591  10.138   4.170  0.0189  0.2723 -0.4712
  252MOL0     H33953   1.178  10.110   4.249  1.2082 -0.4392 -0.4535
  252MOL0     H33954   0.931  10.078   4.229  1.3348  0.7512  0.7931
  252MOL0     H33955   0.783   9.759   3.917 -2.8245  3.9296 -0.1365
  252MOL0     H33956   0.833   9.671   4.066 -1.4076 -0.2928  0.6739
  252MOL0     H33957   0.627   9.618   4.030  1.1440 -0.2889 -2.0240
  252MOL0     H33958   0.647   9.733   4.172  1.5349  2.6306  0.0094
  252MOL0     H33959   0.538   9.912   4.034 -5.4850  0.4726  0.4125
  252MOL0     H33960   0.547   9.806   3.885 -0.2057  2.3267 -0.3201
  252MOL0     H33961   0.385   9.672   3.958 -3.8205  0.3376  0.3113
  252MOL0     H33962   0.401   9.702   4.136  0.0640 -1.7956 -1.0118
  252MOL0     H33963   0.299   9.933   4.085  1.4451 -0.0541 -1.1466
  252MOL0     H33964   0.280   9.891   3.919 -2.8814  0.5758 -0.0119
  252MOL0     H33965   0.125   9.712   3.984  0.5334  0.4201 -2.0881
  252MOL0     H33966   0.136   9.778   4.153  2.8658  0.2518 -0.2054
  252MOL0     H33967   0.060  10.006   4.066 -2.3585 -0.5111  1.7974
  252MOL0     H33968   0.047   9.924   3.905 -1.4686 -1.3035 -0.1420
  252MOL0     H33969  -0.104   9.817   4.151 -1.5645  0.2342 -0.2830
  252MOL0     H33970  -0.124   9.788   3.974 -3.3513 -1.2432  2.3108
  252MOL0     H33971  -0.140  10.092   4.221  1.3817 -0.2567 -1.2198
  252MOL0     H33972  -0.393  10.346   4.056 -0.7947 -3.2802  0.0399
  252MOL0     H33973  -0.282  10.346   4.194  0.6282 -2.3932  0.7559
  252MOL0     H33974  -0.230  10.512   3.990  1.1063 -1.0770 -3.3816
  252MOL0     H33975  -0.160  10.378   3.919  1.5337  2.1706 -0.5672
  252MOL0     H33976   0.028  10.395   4.038 -0.5572 -1.5449  1.2879
  252MOL0     H33977  -0.068  10.341   4.174  0.3502 -1.6804 -1.3098
  252MOL0     H33978  -0.036  10.641   4.105 -1.0014  0.7815  3.1197
  252MOL0     H33979   0.062  10.552   4.219  0.7005  0.7620  1.0776
  252MOL0     H33980  -0.073  10.824   4.259  0.6095 -0.6279  0.7325
  252MOL0     H33981  -0.276  11.120   4.342 -0.5157 -1.7105  0.6337
  252MOL0     H33982  -0.124  11.038   4.368  0.6859  1.2132 -1.0291
  252MOL0     H33983  -0.161  11.095   4.215  3.5942 -2.0380  0.0568
  252MOL0     H33984  -0.695  11.179   4.134 -0.8336  1.1323  0.4954
  252MOL0     H33985  -0.900  11.235   4.060 -0.0521  1.2846 -0.1616
  252MOL0     H33986  -1.110  10.978   3.891 -0.6007 -4.4986 -0.5671
  252MOL0     H33987  -1.168  10.889   4.028  3.1940  0.1683 -0.0394
  252MOL0     H33988  -1.321  11.122   3.917  5.9528  0.3771  1.5368
  252MOL0     H33989  -1.338  10.957   3.850  1.5956  0.5857 -0.9014
  252MOL0     H33990  -1.527  11.045   4.009  0.7435  1.6842  1.0936
  252MOL0     H33991  -1.419  11.021   4.139 -1.5928 -1.7057  0.0477
  252MOL0     H33992  -1.505  10.802   3.955 -2.0325  1.2740 -0.9872
  252MOL0     H33993  -1.376  10.780   4.081  1.2833  1.3058 -1.1453
  252MOL0     H33994  -1.665  10.894   4.135 -1.3871 -0.9650  0.8736
  252MOL0     H33995  -1.557  10.846   4.258 -0.8620  3.0420  0.8426
  252MOL0     H33996  -1.719  10.681   4.217 -0.6412  0.3974 -1.6614
  252MOL0     H33997  -1.679  10.655   4.047  1.8445  1.2804 -1.1571
  252MOL0     H33998  -1.498  10.598   4.268  1.6389 -0.1873 -1.7297
  252MOL0     H33999  -1.458  10.576   4.093  1.4740  0.0139  0.4550
  252MOL0     H34000  -1.650  10.428   4.076  1.4734  3.6494 -0.7621
  252MOL0     H34001  -1.666  10.434   4.256  0.0916 -1.1546 -0.9845
  252MOL0     H34002  -1.077  10.880   4.243  1.4726 -0.4243  0.0097
  252MOL0     H34003  -0.862  10.836   4.343 -1.4128 -1.5532 -1.9428
  252MOL0     H34004  -0.555  10.741   4.220  0.7769 -4.6069 -1.2629
  252MOL0     H34005  -0.401  10.544   4.240  0.5717 -0.3275 -0.2858
  252MOL0     H34006   1.011   9.792   3.907  1.8154 -0.6556  0.1485
  252MOL0     H34007   1.245   9.856   3.916  1.5184  1.4435 -1.0125
  252MOL0     H34008   1.705   9.915   3.940  0.1300 -0.4801 -0.8035
  252MOL0     H34009   1.922  10.000   4.031  1.2468  0.3023  1.6604
  252MOL0     H34010   1.930  10.350   4.318  0.7864 -0.2946  1.7972
  252MOL0     H34011   1.905  10.217   4.410 -0.9639  1.7553  0.2773
  252MOL0     H34012   2.142  10.139   4.371  0.7521 -0.4326 -2.4338
  252MOL0     H34013   2.119  10.279   4.486 -5.7635 -1.4226  0.4499
  252MOL0     H34014   2.228  10.423   4.351 -0.2708 -0.3476 -0.8505
  252MOL0     H34015   2.181  10.335   4.198  1.7162 -0.0709 -0.3086
  252MOL0     H34016   2.333  10.151   4.299  0.3832 -0.3321  2.3714
  252MOL0     H34017   2.409  10.284   4.390  1.1952  0.0618 -0.9741
  252MOL0     H34018   2.581  10.358   4.030  2.7979 -0.6945  3.7521
  252MOL0     H34019   1.712  10.263   4.287 -1.0125  0.2256  1.1047
  252MOL0     H34020   1.494  10.168   4.208 -0.0857  0.4528 -0.8782
  253MOL0     O34021   0.616   1.255   5.273  0.2589  0.0267 -0.0664
  253MOL0     C34022   0.599   1.339   5.354  0.0484 -0.5606  0.9090
  253MOL0     O34023   0.583   1.313   5.490  1.0279  0.8111  0.6658
  253MOL0     C34024   0.599   1.186   5.541 -0.2147 -0.8203 -0.1648
  253MOL0     C34025   0.690   1.183   5.649  0.2489 -0.0946 -0.2660
  253MOL0     C34026   0.712   1.067   5.724  0.5538 -0.1651 -0.4245
  253MOL0     C34027   0.656   0.945   5.680  0.1100  0.1317  0.2199
  253MOL0     O34028   0.668   0.828   5.743 -0.6989  0.0278  0.1952
  253MOL0     C34029   0.772   0.800   5.837 -0.1952 -0.6352 -0.4255
  253MOL0     C34030   0.914   0.783   5.797 -0.0079 -0.0862 -0.3417
  253MOL0     C34031   0.929   0.712   5.662 -1.0320  0.2039  0.2622
  253MOL0     C34032   0.887   0.562   5.665 -0.6824  0.1165 -0.7120
  253MOL0     C34033   0.935   0.509   5.529  0.3739  0.2962 -0.5720
  253MOL0     C34034   0.823   0.544   5.424 -0.5798 -1.1142  0.0061
  253MOL0     C34035   0.868   0.495   5.288 -0.1541 -0.5762 -0.1070
  253MOL0     C34036   0.771   0.468   5.179 -0.2116 -0.0306  0.5521
  253MOL0     N34037   0.680   0.582   5.156 -0.5146 -0.3839  0.6045
  253MOL0     C34038   0.697   0.716   5.135  0.1400  1.1561  0.4668
  253MOL0     C34039   0.573   0.773   5.151 -0.1276  0.2904 -0.4628
  253MOL0     C34040   0.544   0.926   5.143  0.4045 -0.2804 -0.9828
  253MOL0     C34041   0.567   0.978   4.997  0.5550 -0.3687 -0.5283
  253MOL0     C34042   0.552   1.129   4.981 -0.0657  0.0550  0.1494
  253MOL0     C34043   0.576   1.177   4.827  0.8999 -0.4072 -0.7515
  253MOL0     O34044   0.549   1.320   4.823 -0.1292  0.7073 -0.0471
  253MOL0     C34045   0.662   1.402   4.812  0.6491 -0.0845  0.2737
  253MOL0     C34046   0.665   1.516   4.729 -0.4777 -0.0743  0.5572
  253MOL0     C34047   0.783   1.596   4.713 -0.9160 -0.6930  0.7299
  253MOL0     C34048   0.774   1.721   4.616 -0.4193  0.6256  0.1981
  253MOL0     C34049   0.898   1.569   4.792  1.0809 -0.2834 -0.0971
  253MOL0     C34050   1.029   1.639   4.768  0.4490 -1.1283 -0.4970
  253MOL0     O34051   1.152   1.585   4.779  0.1187 -0.5001  0.3992
  253MOL0     C34052   1.262   1.668   4.784 -0.4015 -0.4847 -0.0923
  253MOL0     C34053   1.314   1.712   4.909 -1.5111 -0.1229 -0.1991
  253MOL0     C34054   1.431   1.789   4.911  0.3090  0.5000  0.2610
  253MOL0     C34055   1.495   1.826   4.792 -0.3438 -0.1584 -0.3130
  253MOL0     O34056   1.618   1.882   4.817 -0.1726 -0.0695 -0.3364
  253MOL0     C34057   1.713   1.902   4.711  0.6814 -0.6206  0.0722
  253MOL0     C34058   1.816   1.992   4.791  0.5048 -0.5361  0.2003
  253MOL0     C34059   1.917   2.050   4.688  0.0914 -0.2193 -0.2114
  253MOL0     C34060   2.038   2.109   4.754  0.0439 -0.0362 -0.0601
  253MOL0     C34061   2.152   2.127   4.650  0.7585 -0.3416 -0.3475
  253MOL0     C34062   2.239   2.006   4.614  0.0741  0.6060  0.4217
  253MOL0     C34063   2.347   2.050   4.520 -0.7217  0.6764  0.3413
  253MOL0     C34064   2.453   1.953   4.475 -0.5486  0.2959  0.1897
  253MOL0    Cl34065   2.571   2.061   4.397 -0.3297 -0.2191 -0.1463
  253MOL0     C34066   1.447   1.776   4.669  0.0683 -0.0783 -0.5332
  253MOL0     C34067   1.326   1.703   4.667  0.5804  0.0912  0.2939
  253MOL0     O34068   1.018   1.763   4.774  0.3416  0.2869 -0.0065
  253MOL0     C34069   0.889   1.463   4.879  0.2584 -0.7722  1.1602
  253MOL0     C34070   0.775   1.376   4.888 -0.2807 -0.5866  0.8971
  253MOL0     N34071   0.481   0.669   5.179  0.3269 -0.7262  0.5399
  253MOL0     N34072   0.544   0.563   5.164 -0.3804 -0.5564 -0.2254
  253MOL0     C34073   0.568   0.956   5.566  0.5154  0.4048 -0.2604
  253MOL0     C34074   0.538   1.073   5.503  0.4525  0.1408  0.2386
  253MOL0     C34075   0.590   1.475   5.303 -0.6911 -0.1758 -0.0423
  253MOL0     C34076   0.558   1.583   5.389 -0.4504  0.4140 -0.7295
  253MOL0     C34077   0.552   1.707   5.350 -0.7104 -0.0904  0.6908
  253MOL0     C34078   0.545   1.741   5.212 -0.5406 -1.2532 -0.0711
  253MOL0     O34079   0.536   1.879   5.195  0.6610 -0.4914 -0.4191
  253MOL0     C34080   0.417   1.941   5.237  0.1615  0.2481 -0.6476
  253MOL0     C34081   0.305   1.911   5.148 -0.2541 -0.1975  0.0802
  253MOL0     C34082   0.337   1.950   5.004  0.1309  0.0336  0.6475
  253MOL0     C34083   0.397   2.094   4.981  0.5717 -0.7468 -0.4261
  253MOL0     C34084   0.419   2.119   4.841 -0.7768 -0.3159 -0.2609
  253MOL0     C34085   0.429   2.157   4.730 -0.2557 -0.3036  0.0051
  253MOL0     C34086   0.589   1.646   5.118 -0.1547  0.2903  0.5068
  253MOL0     C34087   0.613   1.511   5.162 -0.1282 -1.1312 -0.1013
  253MOL0     H34088   0.731   1.280   5.679 -1.3676  0.4128  0.3831
  253MOL0     H34089   0.768   1.081   5.816 -2.0814  2.1325  0.9730
  253MOL0     H34090   0.770   0.888   5.902 -3.1209  0.8583 -2.3055
  253MOL0     H34091   0.754   0.706   5.889  3.0407 -1.8608 -1.3084
  253MOL0     H34092   0.949   0.887   5.789  0.9938 -0.4602 -0.9657
  253MOL0     H34093   0.964   0.718   5.868 -1.6261 -0.8663  0.1288
  253MOL0     H34094   0.870   0.758   5.582  1.2996 -2.9427 -3.6353
  253MOL0     H34095   1.035   0.714   5.634 -1.4872 -1.3273 -1.7640
  253MOL0     H34096   0.951   0.510   5.737  2.5377  1.7775 -2.1506
  253MOL0     H34097   0.782   0.537   5.684 -0.0180 -0.3275  3.1595
  253MOL0     H34098   1.032   0.541   5.492 -0.4081  0.6423 -2.4355
  253MOL0     H34099   0.936   0.400   5.539 -1.0253  0.3570  0.5775
  253MOL0     H34100   0.732   0.486   5.441 -0.7869 -2.1543 -3.8410
  253MOL0     H34101   0.809   0.652   5.423  0.5253 -0.9394  0.8261
  253MOL0     H34102   0.957   0.550   5.254  0.2143 -1.1128 -0.0345
  253MOL0     H34103   0.908   0.396   5.310  2.7857  0.7495  1.1284
  253MOL0     H34104   0.723   0.373   5.203  0.9412 -0.2738  2.0029
  253MOL0     H34105   0.822   0.447   5.084 -0.0736 -0.1023  0.6421
  253MOL0     H34106   0.790   0.766   5.111  0.0270  2.6642  2.8641
  253MOL0     H34107   0.440   0.943   5.173  0.0368 -0.8170 -1.8859
  253MOL0     H34108   0.599   0.963   5.230 -0.2442 -0.7774 -0.3482
  253MOL0     H34109   0.500   0.926   4.928  2.1507 -0.9581 -1.6990
  253MOL0     H34110   0.668   0.946   4.969  0.3151  0.4432 -2.4533
  253MOL0     H34111   0.639   1.170   5.032 -0.2816  1.0588 -0.2817
  253MOL0     H34112   0.452   1.153   5.017 -1.4540 -0.4556 -2.9842
  253MOL0     H34113   0.505   1.119   4.767 -0.8264  1.5651 -0.7560
  253MOL0     H34114   0.679   1.151   4.801  0.8413 -1.1447 -0.2965
  253MOL0     H34115   0.582   1.537   4.662  1.7608 -1.3418 -2.9177
  253MOL0     H34116   0.852   1.707   4.540  1.2566  1.3830  1.6834
  253MOL0     H34117   0.674   1.709   4.574 -0.3664 -0.9390  0.4679
  253MOL0     H34118   0.783   1.821   4.659 -0.3240  0.2868  0.9966
  253MOL0     H34119   1.281   1.675   5.005  2.3919 -2.6916  0.3779
  253MOL0     H34120   1.466   1.829   5.006  1.0590 -1.3294  0.8027
  253MOL0     H34121   1.759   1.807   4.682  0.9892  0.2916 -2.6400
  253MOL0     H34122   1.674   1.966   4.632  2.2347  1.0632  0.6162
  253MOL0     H34123   1.763   2.077   4.834 -2.9975 -0.8640 -2.9216
  253MOL0     H34124   1.878   1.930   4.856  2.6621  0.1522 -1.1187
  253MOL0     H34125   1.872   2.127   4.623 -1.5178 -0.5756  0.4367
  253MOL0     H34126   1.956   1.975   4.619  3.1851  2.9058 -2.2051
  253MOL0     H34127   2.014   2.204   4.804  0.6899 -0.0062  0.2131
  253MOL0     H34128   2.080   2.051   4.837  0.8570  1.3329  0.5230
  253MOL0     H34129   2.228   2.194   4.692 -1.6721  1.0462  2.1984
  253MOL0     H34130   2.122   2.192   4.567  3.4078  0.8209 -0.4937
  253MOL0     H34131   2.293   1.956   4.695  2.3540 -2.8243 -2.8561
  253MOL0     H34132   2.184   1.923   4.568 -2.6076  0.9149  2.7877
  253MOL0     H34133   2.395   2.135   4.570  0.8233 -0.0597  0.1653
  253MOL0     H34134   2.294   2.079   4.430  2.0535  0.0227 -1.6383
  253MOL0     H34135   2.410   1.875   4.412 -2.5098  0.6689  0.9958
  253MOL0     H34136   2.504   1.896   4.554 -0.6735 -0.1717 -0.0618
  253MOL0     H34137   1.496   1.771   4.572  0.9180 -5.2809 -0.1261
  253MOL0     H34138   1.275   1.666   4.578 -3.3129  3.7311  0.7204
  253MOL0     H34139   0.975   1.437   4.940  0.7348  3.0706  2.4247
  253MOL0     H34140   0.787   1.298   4.963  1.0123  1.0885  2.5197
  253MOL0     H34141   0.523   0.862   5.535  3.3039 -1.7113  1.6903
  253MOL0     H34142   0.465   1.087   5.424  1.7859  1.8325 -0.7604
  253MOL0     H34143   0.545   1.558   5.494  1.2596 -0.3357 -0.6628
  253MOL0     H34144   0.543   1.789   5.420 -2.6070 -0.3086  0.7527
  253MOL0     H34145   0.395   1.916   5.341  0.1712  3.0511  0.1058
  253MOL0     H34146   0.434   2.048   5.233 -0.8571  0.4776  0.5370
  253MOL0     H34147   0.225   1.981   5.176  2.0202  2.4553  0.3776
  253MOL0     H34148   0.272   1.807   5.160 -1.3409 -0.0872 -1.6299
  253MOL0     H34149   0.251   1.931   4.938  0.7196 -2.7849  0.5782
  253MOL0     H34150   0.415   1.886   4.964 -1.0030 -0.0555 -1.6164
  253MOL0     H34151   0.496   2.105   5.024 -0.3125  0.6213  1.4098
  253MOL0     H34152   0.328   2.168   5.023  2.3262 -0.1451  1.5726
  253MOL0     H34153   0.417   2.194   4.630 -3.7167 -1.1494 -0.0115
  253MOL0     H34154   0.576   1.669   5.013 -0.3944 -0.6781  0.3152
  253MOL0     H34155   0.631   1.436   5.086 -1.4707 -1.9042  0.3076
  254MOL0     O34156   3.567   2.389   6.551 -0.6493  0.4121 -0.1523
  254MOL0     C34157   3.549   2.452   6.653 -0.1970 -0.2491 -0.4508
  254MOL0     O34158   3.432   2.517   6.686  0.6667  0.0048 -0.3989
  254MOL0     C34159   3.317   2.497   6.617 -0.0060  0.8521 -0.4135
  254MOL0     C34160   3.231   2.601   6.626  0.4715 -0.5921 -0.4982
  254MOL0     C34161   3.107   2.592   6.570  0.9922  0.2181  0.2449
  254MOL0     C34162   3.064   2.471   6.500  0.6931 -0.1283 -0.9823
  254MOL0     O34163   2.940   2.480   6.442 -0.1469  1.1015  0.4613
  254MOL0     C34164   2.874   2.369   6.381  0.4165  0.2822  0.1333
  254MOL0     C34165   2.743   2.408   6.311 -0.5445  0.5378  0.2164
  254MOL0     C34166   2.668   2.281   6.264  0.3015 -0.2853 -0.0451
  254MOL0     C34167   2.516   2.312   6.222  0.3444 -0.5208 -0.3413
  254MOL0     C34168   2.469   2.199   6.132 -0.1283 -0.7349  0.7916
  254MOL0     C34169   2.345   2.229   6.045  0.3792 -0.4990  0.3697
  254MOL0     C34170   2.216   2.260   6.125  0.5127 -1.1355 -0.4756
  254MOL0     C34171   2.156   2.131   6.185  0.2438 -0.0685 -0.1663
  254MOL0     N34172   2.019   2.149   6.234 -1.0256  0.4583  0.4666
  254MOL0     C34173   1.990   2.208   6.356 -0.4966 -0.7680  0.2459
  254MOL0     C34174   1.857   2.219   6.364 -0.2159 -0.6249  0.4907
  254MOL0     C34175   1.780   2.261   6.476 -0.9029  0.4488 -0.3000
  254MOL0     C34176   1.662   2.176   6.516 -0.2863  0.5395 -0.7523
  254MOL0     C34177   1.535   2.229   6.447  0.4785  0.1398  0.0459
  254MOL0     C34178   1.412   2.141   6.468  0.9081  0.0589 -0.0315
  254MOL0     O34179   1.301   2.150   6.368 -0.3116  0.4086 -0.6816
  254MOL0     C34180   1.198   2.233   6.377  0.5617 -0.7584  0.0734
  254MOL0     C34181   1.089   2.209   6.304 -0.0606 -1.0671  0.0320
  254MOL0     C34182   0.968   2.276   6.314 -0.1724 -0.1733  0.5825
  254MOL0     C34183   0.859   2.229   6.228 -0.0443 -0.5659 -0.3209
  254MOL0     C34184   0.965   2.373   6.416 -0.4511 -0.5751  0.4726
  254MOL0     C34185   0.849   2.461   6.439  0.5568 -0.7269  0.4778
  254MOL0     O34186   0.869   2.594   6.459 -0.2939  0.1336 -0.1686
  254MOL0     C34187   0.772   2.678   6.500 -0.6474 -0.5732 -0.7479
  254MOL0     C34188   0.732   2.672   6.634 -0.4156  0.4960  0.3498
  254MOL0     C34189   0.616   2.731   6.676  0.2904 -0.2985 -0.2550
  254MOL0     C34190   0.540   2.810   6.585 -0.4967 -0.2552 -0.1818
  254MOL0     O34191   0.432   2.882   6.617 -0.3132 -0.1432  0.7309
  254MOL0     C34192   0.405   2.903   6.754  0.5570 -1.0767 -0.0041
  254MOL0     C34193   0.289   3.004   6.781 -0.2178  0.5257 -0.2707
  254MOL0     C34194   0.246   3.012   6.939  0.6232 -0.3929  0.2305
  254MOL0     C34195   0.134   3.113   6.953  0.3303 -0.2528 -0.0448
  254MOL0     C34196   0.049   3.134   7.078 -0.1566  0.4167  0.3284
  254MOL0     C34197  -0.020   3.267   7.090  0.1354  0.4239  0.1711
  254MOL0     C34198  -0.151   3.271   7.013  0.6712 -0.0896 -0.3185
  254MOL0     C34199  -0.214   3.403   7.043  0.1504 -0.1665 -0.5412
  254MOL0    Cl34200  -0.378   3.405   6.992 -0.2213  0.1166  0.5167
  254MOL0     C34201   0.581   2.814   6.455 -0.1118  0.5728 -0.2241
  254MOL0     C34202   0.701   2.754   6.407 -0.3807  0.1838  0.2159
  254MOL0     O34203   0.738   2.411   6.427  0.5004  0.1991 -0.1460
  254MOL0     C34204   1.076   2.395   6.504 -0.2556 -0.4823 -0.1611
  254MOL0     C34205   1.199   2.328   6.481 -0.4148  0.1897 -0.4450
  254MOL0     N34206   1.808   2.160   6.248 -0.1217  0.2167 -0.8341
  254MOL0     N34207   1.907   2.120   6.166  0.2336 -0.3231  0.4225
  254MOL0     C34208   3.147   2.364   6.510 -0.9342  0.2196 -0.3537
  254MOL0     C34209   3.270   2.373   6.574 -0.7204  0.8952  0.4929
  254MOL0     C34210   3.652   2.439   6.757 -0.0867 -0.2004  0.0355
  254MOL0     C34211   3.632   2.508   6.876 -0.2874 -0.1564  0.2034
  254MOL0     C34212   3.721   2.482   6.983  0.2337  0.4715  0.5909
  254MOL0     C34213   3.833   2.401   6.970  0.5279  0.2619  0.3362
  254MOL0     O34214   3.924   2.395   7.078 -0.5487 -0.6138 -1.0024
  254MOL0     C34215   4.034   2.299   7.082  0.3504  0.0960  0.7953
  254MOL0     C34216   4.069   2.277   7.234  0.8092  0.1751  0.2129
  254MOL0     C34217   4.147   2.148   7.261 -0.0889 -1.0744  0.7226
  254MOL0     C34218   4.185   2.139   7.409  0.3655 -0.1273 -0.6516
  254MOL0     C34219   4.063   2.118   7.492 -0.5232  0.0820 -0.2200
  254MOL0     C34220   3.972   2.115   7.578  0.6266 -0.6431 -0.0304
  254MOL0     C34221   3.846   2.329   6.853  0.6197 -0.4549 -0.2421
  254MOL0     C34222   3.764   2.350   6.745  0.6367 -1.6279  0.5048
  254MOL0     H34223   3.278   2.693   6.659 -0.1960  0.3156 -1.9411
  254MOL0     H34224   3.040   2.677   6.562  3.1615  1.9584 -0.1867
  254MOL0     H34225   2.932   2.312   6.308 -0.0581 -0.9194  0.6658
  254MOL0     H34226   2.843   2.302   6.462  1.4600 -3.0797 -2.0294
  254MOL0     H34227   2.688   2.479   6.373 -0.4461  2.8155 -2.1339
  254MOL0     H34228   2.777   2.465   6.224 -1.7190 -1.6107 -1.7751
  254MOL0     H34229   2.733   2.248   6.182  1.9366 -2.0944  1.9014
  254MOL0     H34230   2.677   2.206   6.343  2.3715 -0.3478 -0.2757
  254MOL0     H34231   2.448   2.312   6.308 -1.5762 -0.5335 -1.7775
  254MOL0     H34232   2.496   2.400   6.160 -2.1937 -0.7562  0.0031
  254MOL0     H34233   2.550   2.163   6.068  1.3790 -0.2796  2.3507
  254MOL0     H34234   2.431   2.116   6.193 -0.5633 -1.6785 -0.7166
  254MOL0     H34235   2.375   2.316   5.986 -1.0279 -0.0907  0.2127
  254MOL0     H34236   2.323   2.152   5.970  1.1035  1.6240 -2.1657
  254MOL0     H34237   2.233   2.342   6.195  0.6581  0.0522 -1.8473
  254MOL0     H34238   2.143   2.292   6.050 -1.5258 -4.6586 -0.1770
  254MOL0     H34239   2.222   2.108   6.269  1.3307 -1.3567 -1.3247
  254MOL0     H34240   2.152   2.051   6.112 -0.5355 -1.2240  1.0979
  254MOL0     H34241   2.062   2.235   6.432  2.4811  0.7857 -2.8284
  254MOL0     H34242   1.850   2.259   6.560 -0.2462 -3.7623 -0.7002
  254MOL0     H34243   1.755   2.365   6.454  0.2281  1.2166  1.8420
  254MOL0     H34244   1.638   2.190   6.622  0.0839  4.1463 -1.0393
  254MOL0     H34245   1.671   2.069   6.493  0.6732  0.3293  0.5198
  254MOL0     H34246   1.542   2.219   6.338 -0.4706 -1.6986  0.1051
  254MOL0     H34247   1.525   2.332   6.482  1.7309  0.8143 -1.4537
  254MOL0     H34248   1.360   2.156   6.563 -0.9760 -2.2705 -0.6102
  254MOL0     H34249   1.452   2.039   6.468  1.1233  0.1032  2.1783
  254MOL0     H34250   1.100   2.125   6.235 -2.3271 -1.4096  0.0166
  254MOL0     H34251   0.769   2.217   6.288 -0.5006 -0.5834 -0.9958
  254MOL0     H34252   0.841   2.297   6.144 -2.5021 -0.2217  0.4332
  254MOL0     H34253   0.871   2.128   6.188 -0.7313 -0.6349 -0.3497
  254MOL0     H34254   0.800   2.609   6.691 -0.4245  0.6612  0.5447
  254MOL0     H34255   0.583   2.733   6.779 -0.6536  4.5059 -0.4219
  254MOL0     H34256   0.373   2.810   6.801 -0.3746 -0.8016 -0.0687
  254MOL0     H34257   0.496   2.940   6.803  0.1095  3.1251 -1.8909
  254MOL0     H34258   0.335   3.100   6.754  0.7186 -0.1795 -1.2531
  254MOL0     H34259   0.205   2.977   6.717 -1.2097  1.1509  0.7346
  254MOL0     H34260   0.327   3.053   7.000  1.5061 -0.1201 -1.0755
  254MOL0     H34261   0.217   2.916   6.983 -1.9540 -0.8472 -2.1044
  254MOL0     H34262   0.165   3.214   6.925 -1.6930  0.2635 -0.5459
  254MOL0     H34263   0.061   3.068   6.886 -0.0544 -0.4887  0.5211
  254MOL0     H34264   0.122   3.130   7.159  1.6800  1.6427 -1.1945
  254MOL0     H34265  -0.019   3.052   7.105  0.4381  0.3053  1.5557
  254MOL0     H34266  -0.033   3.295   7.195 -2.1164 -0.4845  0.1907
  254MOL0     H34267   0.043   3.342   7.041 -0.7122  0.7824 -0.3972
  254MOL0     H34268  -0.218   3.194   7.053  0.3123  1.3732  2.1301
  254MOL0     H34269  -0.140   3.261   6.904 -0.4030 -3.8804 -0.2128
  254MOL0     H34270  -0.165   3.477   6.979 -1.3055  0.0203 -1.4879
  254MOL0     H34271  -0.203   3.433   7.147 -0.0991  0.0263 -0.5697
  254MOL0     H34272   0.521   2.866   6.381  1.3502 -0.2368 -2.0408
  254MOL0     H34273   0.722   2.764   6.302 -3.7885  3.7284 -0.3559
  254MOL0     H34274   1.068   2.474   6.578  1.9234 -0.8208  0.4982
  254MOL0     H34275   1.286   2.339   6.546  0.8013 -1.4263 -1.7088
  254MOL0     H34276   3.113   2.280   6.450  0.0289  0.4421 -1.2438
  254MOL0     H34277   3.336   2.287   6.586 -0.7781  0.5706 -1.2027
  254MOL0     H34278   3.547   2.572   6.892 -1.6979 -1.0791 -2.8812
  254MOL0     H34279   3.706   2.537   7.075 -3.0316 -1.9361  1.7104
  254MOL0     H34280   4.001   2.203   7.042  0.7716 -1.1296  3.2063
  254MOL0     H34281   4.117   2.332   7.019 -1.7978  0.7398 -1.8802
  254MOL0     H34282   3.974   2.259   7.285  1.6108  0.6816  1.9541
  254MOL0     H34283   4.113   2.366   7.278 -0.6807  0.3577  1.4323
  254MOL0     H34284   4.243   2.147   7.208 -1.1031  0.7528 -1.3469
  254MOL0     H34285   4.085   2.065   7.224 -0.5182  0.9714 -3.7754
  254MOL0     H34286   4.246   2.227   7.434  1.5454 -1.0504 -0.1824
  254MOL0     H34287   4.254   2.054   7.410  2.2146  1.2935 -1.6107
  254MOL0     H34288   3.888   2.127   7.643  0.5044  1.3419 -0.4701
  254MOL0     H34289   3.926   2.257   6.840  3.4908  2.6666 -1.0795
  254MOL0     H34290   3.782   2.285   6.660  4.8742 -0.1077 -0.0240
  255MOL0     O34291   3.946  10.014   1.718 -0.4054 -0.4792 -0.0651
  255MOL0     C34292   4.046  10.052   1.788  0.7828  1.2797 -0.0193
  255MOL0     O34293   4.048  10.067   1.927 -0.5807  0.2843  0.0998
  255MOL0     C34294   3.944  10.029   2.002  0.7238  0.5207  1.9623
  255MOL0     C34295   3.895  10.122   2.088 -0.5089 -0.3753  0.0976
  255MOL0     C34296   3.792  10.086   2.176  0.3507  0.2214  0.4025
  255MOL0     C34297   3.721   9.969   2.155  0.6040  0.5183 -0.5555
  255MOL0     O34298   3.617   9.933   2.228  0.1307 -0.4648  0.9968
  255MOL0     C34299   3.608   9.975   2.364  0.1756  0.5050 -1.0289
  255MOL0     C34300   3.529   9.872   2.449  0.0660 -0.4465 -0.3165
  255MOL0     C34301   3.394   9.842   2.378  0.2209  0.7313 -0.4074
  255MOL0     C34302   3.296   9.774   2.472 -0.3426  0.2365  0.3910
  255MOL0     C34303   3.169   9.715   2.408 -0.6533  0.7607 -0.2046
  255MOL0     C34304   3.076   9.801   2.324 -0.5478 -0.3109  0.6502
  255MOL0     C34305   3.015   9.914   2.398 -0.1890 -0.3525  0.0244
  255MOL0     C34306   2.914   9.878   2.504  0.2598  0.6282 -0.4862
  255MOL0     N34307   2.797   9.824   2.437  0.4652 -0.2947  1.1039
  255MOL0     C34308   2.708   9.900   2.365  1.1518 -0.6133 -0.3666
  255MOL0     C34309   2.639   9.806   2.306  0.5789 -0.2821  0.5356
  255MOL0     C34310   2.515   9.847   2.233  0.2292 -0.3298 -0.2585
  255MOL0     C34311   2.381   9.784   2.291 -0.3729  0.5293  0.4408
  255MOL0     C34312   2.266   9.866   2.241 -0.7528  1.3258  0.3049
  255MOL0     C34313   2.134   9.808   2.267 -0.0478  0.6040  0.2350
  255MOL0     O34314   2.041   9.910   2.240  0.2533  0.9149 -0.0097
  255MOL0     C34315   1.914   9.866   2.201  0.8258 -0.7946 -0.0314
  255MOL0     C34316   1.831   9.964   2.139 -0.3361  1.9232  0.0437
  255MOL0     C34317   1.692   9.950   2.107 -0.0062 -0.1858 -1.1660
  255MOL0     C34318   1.634  10.061   2.033 -0.2325 -0.2595  0.2425
  255MOL0     C34319   1.635   9.828   2.143  0.3434 -0.2602 -0.6068
  255MOL0     C34320   1.488   9.807   2.127 -0.7436  0.4167  1.3947
  255MOL0     O34321   1.441   9.681   2.088 -0.9047 -0.2415  0.1332
  255MOL0     C34322   1.312   9.656   2.089  0.9770 -0.6060 -0.4153
  255MOL0     C34323   1.244   9.679   2.201  0.3083 -0.5931  0.4601
  255MOL0     C34324   1.109   9.653   2.216 -0.2053 -0.6068  0.1610
  255MOL0     C34325   1.037   9.584   2.110  0.1770  0.2437 -0.7026
  255MOL0     O34326   0.912   9.527   2.110  0.2310 -0.1383 -0.1039
  255MOL0     C34327   0.820   9.608   2.193 -0.6966 -0.3709  0.4702
  255MOL0     C34328   0.692   9.527   2.169  0.1041  1.1725 -0.0739
  255MOL0     C34329   0.707   9.381   2.225  0.0005  0.2227 -0.3658
  255MOL0     C34330   0.573   9.313   2.224 -0.5073 -0.1743 -0.2642
  255MOL0     C34331   0.567   9.183   2.309  0.3803 -0.2459 -0.4081
  255MOL0     C34332   0.676   9.086   2.274 -0.5659 -1.1050 -0.3115
  255MOL0     C34333   0.669   8.977   2.379  0.5801  0.2496  0.1113
  255MOL0     C34334   0.769   8.851   2.356 -0.1365  0.5661 -0.2746
  255MOL0    Cl34335   0.723   8.723   2.481  0.0992 -0.4924 -0.0623
  255MOL0     C34336   1.108   9.565   1.997 -0.2785 -0.6978 -0.7209
  255MOL0     C34337   1.245   9.599   1.982  0.3468  1.1101  0.0001
  255MOL0     O34338   1.412   9.903   2.159 -0.6993 -0.5029 -0.2031
  255MOL0     C34339   1.716   9.728   2.204  0.2324  0.1887  0.1376
  255MOL0     C34340   1.850   9.742   2.234  0.0031 -1.1276  0.7733
  255MOL0     N34341   2.684   9.681   2.340  0.2716  0.5377 -0.1490
  255MOL0     N34342   2.777   9.695   2.426 -1.0167 -0.0787  0.2599
  255MOL0     C34343   3.762   9.889   2.056  1.1505 -0.0507 -0.2416
  255MOL0     C34344   3.872   9.913   1.983 -0.5703 -0.6547  0.0864
  255MOL0     C34345   4.175  10.066   1.716  1.0403  0.4289 -1.2484
  255MOL0     C34346   4.298  10.092   1.782 -0.6407  0.6521 -0.5557
  255MOL0     C34347   4.411  10.120   1.711 -0.5477 -0.8570 -0.0960
  255MOL0     C34348   4.406  10.115   1.571  0.1071 -0.1977  0.0288
  255MOL0     O34349   4.522  10.121   1.492 -0.0968 -0.3318  0.6010
  255MOL0     C34350   4.646  10.125   1.556  0.3999  1.0554  0.2231
  255MOL0     C34351   4.761  10.109   1.456  0.7857 -0.1660  0.1174
  255MOL0     C34352   4.777  10.215   1.348  0.9096  0.1015  0.0435
  255MOL0     C34353   4.868  10.169   1.231  0.1271 -0.2316 -0.7090
  255MOL0     C34354   4.995  10.123   1.298  0.8778 -0.0854 -0.5719
  255MOL0     C34355   5.089  10.075   1.359  0.6157 -0.8993  0.1899
  255MOL0     C34356   4.287  10.091   1.503 -0.7406 -0.2430 -0.0903
  255MOL0     C34357   4.171  10.068   1.572 -0.4321 -0.0247  0.1700
  255MOL0     H34358   3.952  10.211   2.111  2.4112 -1.8850 -0.8263
  255MOL0     H34359   3.787  10.166   2.249  3.4397  2.1904 -1.2725
  255MOL0     H34360   3.710   9.990   2.402 -0.0110 -0.3963 -0.1254
  255MOL0     H34361   3.553  10.069   2.373  0.8292  0.6833  2.4030
  255MOL0     H34362   3.596   9.786   2.436  0.5275  0.1825 -2.4553
  255MOL0     H34363   3.516   9.899   2.554 -3.6400  1.8832 -1.1721
  255MOL0     H34364   3.345   9.935   2.348 -0.2069  0.5691 -0.2116
  255MOL0     H34365   3.417   9.775   2.294  1.2834 -2.9264  2.5335
  255MOL0     H34366   3.359   9.692   2.507 -2.0580 -0.1545  2.8596
  255MOL0     H34367   3.266   9.836   2.557  0.5473  0.8595  0.2644
  255MOL0     H34368   3.206   9.622   2.362  2.1083  1.3823  0.5695
  255MOL0     H34369   3.108   9.676   2.490  1.0160  0.1488  0.8032
  255MOL0     H34370   3.141   9.836   2.243 -0.7278 -0.3236  0.4977
  255MOL0     H34371   2.997   9.736   2.286  0.0937 -1.8273  1.7995
  255MOL0     H34372   3.089   9.973   2.453 -1.0262 -0.6488  1.5265
  255MOL0     H34373   2.954   9.980   2.336 -1.4403 -1.0825  0.4435
  255MOL0     H34374   2.892   9.969   2.561 -1.4421  2.0227 -3.1199
  255MOL0     H34375   2.944   9.800   2.575 -2.5757 -1.7016 -1.6137
  255MOL0     H34376   2.703  10.008   2.372 -4.6043 -0.6806  1.1111
  255MOL0     H34377   2.521   9.956   2.234  2.4351 -0.3930 -1.3338
  255MOL0     H34378   2.521   9.814   2.129  0.4041 -1.7121  0.1718
  255MOL0     H34379   2.379   9.774   2.400 -1.8355 -1.9709  0.2652
  255MOL0     H34380   2.368   9.681   2.256  1.9341  0.7668 -1.3818
  255MOL0     H34381   2.268   9.876   2.133 -2.9263 -0.9741 -0.0196
  255MOL0     H34382   2.277   9.961   2.296  0.6223  0.3571  1.8130
  255MOL0     H34383   2.126   9.790   2.375  1.1152  1.6156  0.5062
  255MOL0     H34384   2.112   9.723   2.202  3.8277  1.8127 -3.0560
  255MOL0     H34385   1.875  10.059   2.112  0.2263  0.6345 -4.2271
  255MOL0     H34386   1.571  10.116   2.103 -1.2781 -2.1697  0.8803
  255MOL0     H34387   1.711  10.121   1.983 -0.8336  1.1703  0.9702
  255MOL0     H34388   1.576  10.028   1.947  0.2394  3.1057 -1.5192
  255MOL0     H34389   1.297   9.710   2.290 -0.2031  0.0780  0.5404
  255MOL0     H34390   1.059   9.664   2.312  1.0752 -2.0977  1.0664
  255MOL0     H34391   0.858   9.602   2.295 -0.3326  2.4055  0.5727
  255MOL0     H34392   0.795   9.709   2.160 -0.4626 -0.3018  0.5100
  255MOL0     H34393   0.604   9.576   2.213 -0.5634 -0.6278  0.6811
  255MOL0     H34394   0.670   9.515   2.063 -0.3522 -2.0566  0.2995
  255MOL0     H34395   0.742   9.388   2.329 -1.2598  0.4829  0.0564
  255MOL0     H34396   0.779   9.334   2.158  0.5673  3.9018 -2.5877
  255MOL0     H34397   0.492   9.385   2.240 -1.3952 -0.2402 -3.6841
  255MOL0     H34398   0.540   9.289   2.123 -2.7356 -0.5861  0.5026
  255MOL0     H34399   0.472   9.131   2.297 -2.0038  3.4200  1.1223
  255MOL0     H34400   0.577   9.221   2.411  3.2445  2.1206 -1.4369
  255MOL0     H34401   0.670   9.061   2.168  1.8935  3.9023 -1.9839
  255MOL0     H34402   0.778   9.122   2.293 -1.4052 -0.5516  4.5031
  255MOL0     H34403   0.568   8.937   2.394  0.5778  1.6679  6.6870
  255MOL0     H34404   0.685   9.025   2.475 -2.3836  2.3940 -0.3162
  255MOL0     H34405   0.874   8.879   2.374 -0.4912  0.4164  2.5435
  255MOL0     H34406   0.764   8.810   2.255 -0.2061 -2.3917  0.8334
  255MOL0     H34407   1.058   9.524   1.909 -1.5262 -0.6866 -0.0351
  255MOL0     H34408   1.310   9.585   1.896 -0.9710  2.3458 -1.2484
  255MOL0     H34409   1.673   9.631   2.228  0.5886 -0.1340 -0.5152
  255MOL0     H34410   1.913   9.674   2.291 -0.3227 -2.1731 -0.0750
  255MOL0     H34411   3.704   9.798   2.043 -1.5385  1.0808  2.7039
  255MOL0     H34412   3.909   9.843   1.909 -1.1101 -3.2720  2.1645
  255MOL0     H34413   4.300  10.096   1.890 -0.0596  1.0051 -0.5760
  255MOL0     H34414   4.497  10.130   1.775 -0.2582 -1.1857 -0.4278
  255MOL0     H34415   4.656  10.220   1.609  1.5367  1.3601 -0.5118
  255MOL0     H34416   4.654  10.036   1.620 -1.3182  0.4430 -0.3391
  255MOL0     H34417   4.742  10.013   1.408  2.8572 -0.1335 -0.8811
  255MOL0     H34418   4.850  10.106   1.520  1.3543  1.0963 -0.5789
  255MOL0     H34419   4.820  10.297   1.407  2.1709 -0.9031  0.5835
  255MOL0     H34420   4.681  10.247   1.309  1.9485  0.3088 -2.5389
  255MOL0     H34421   4.893  10.252   1.165 -0.4595  1.2203  0.8443
  255MOL0     H34422   4.813  10.088   1.181  1.1987 -1.0611 -0.5789
  255MOL0     H34423   5.173  10.035   1.413  1.0440 -1.3082 -0.7508
  255MOL0     H34424   4.293  10.086   1.395 -0.7945 -2.1200 -0.0314
  255MOL0     H34425   4.079  10.046   1.518  0.0747 -0.8785 -0.3751
  256MOL0     O34426   3.181  10.049  10.322 -0.0608  0.4196  0.8550
  256MOL0     C34427   3.141  10.132  10.241 -0.0059  0.0531  0.3708
  256MOL0     O34428   3.015  10.154  10.211  0.6407 -0.7772 -0.8269
  256MOL0     C34429   2.907  10.085  10.269 -0.5446 -0.0700 -0.3194
  256MOL0     C34430   2.899   9.973  10.348 -0.6665  0.4766  0.0693
  256MOL0     C34431   2.775   9.943  10.405  0.0327  0.0355  0.2965
  256MOL0     C34432   2.656  10.013  10.376 -0.8743  0.6461  0.6164
  256MOL0     O34433   2.556   9.965  10.451  0.4211  0.2925  0.1214
  256MOL0     C34434   2.422  10.002  10.414  0.3561  0.3282 -0.0456
  256MOL0     C34435   2.380  10.128  10.484  0.6273 -0.0191  0.1033
  256MOL0     C34436   2.249  10.192  10.422  0.0708  0.1288  0.4221
  256MOL0     C34437   2.259  10.241  10.280 -0.2126 -0.1031  0.3593
  256MOL0     C34438   2.128  10.299  10.226  0.3306 -0.5050 -0.2019
  256MOL0     C34439   2.019  10.194  10.214  0.3286  0.0711 -0.5996
  256MOL0     C34440   1.895  10.243  10.143 -0.1714  0.0284  0.0807
  256MOL0     C34441   1.903  10.303  10.007 -0.5687 -0.2971  0.3902
  256MOL0     N34442   1.961  10.218   9.901  0.3930 -0.0440  0.3116
  256MOL0     C34443   1.889  10.126   9.817  1.2537  0.0370 -0.8355
  256MOL0     C34444   1.977  10.070   9.737 -0.6242 -0.7527  0.1643
  256MOL0     C34445   1.965   9.934   9.664 -0.2416  0.1075  0.6366
  256MOL0     C34446   1.992   9.814   9.760  0.8959 -0.5501 -0.1765
  256MOL0     C34447   2.000   9.683   9.685  0.0359  0.5730  0.4336
  256MOL0     C34448   2.107   9.676   9.576 -1.5133  0.2599  0.3657
  256MOL0     O34449   2.227   9.720   9.634  0.1017 -0.8625 -0.0888
  256MOL0     C34450   2.334   9.738   9.548 -0.2046 -0.4056  0.1645
  256MOL0     C34451   2.372   9.673   9.426 -0.8776  0.8935 -0.8950
  256MOL0     C34452   2.491   9.699   9.361  0.5416 -0.0541  0.3262
  256MOL0     C34453   2.504   9.613   9.234 -0.1013 -0.3193  0.1382
  256MOL0     C34454   2.585   9.785   9.417  0.7197  0.1652  0.5462
  256MOL0     C34455   2.718   9.799   9.360 -0.7034  0.1473  0.0051
  256MOL0     O34456   2.782   9.920   9.398  0.7706  0.6413  0.8930
  256MOL0     C34457   2.910   9.947   9.360 -0.3329 -0.7692  0.4350
  256MOL0     C34458   3.018   9.887   9.419  0.0872  1.1312 -0.5374
  256MOL0     C34459   3.156   9.912   9.378 -0.1670  0.3914 -0.0508
  256MOL0     C34460   3.179  10.005   9.277  0.6800  0.1482 -0.6800
  256MOL0     O34461   3.311  10.033   9.245 -0.3590  0.1903  0.1080
  256MOL0     C34462   3.344  10.159   9.185  0.0464 -0.3957 -0.2150
  256MOL0     C34463   3.494  10.159   9.139 -0.4819  0.5683 -0.1005
  256MOL0     C34464   3.571  10.210   9.260 -0.4098 -0.5508  1.1246
  256MOL0     C34465   3.729  10.194   9.236  0.1214 -0.1412  0.0010
  256MOL0     C34466   3.812  10.278   9.332 -0.3948 -0.4499 -0.4808
  256MOL0     C34467   3.965  10.231   9.339 -0.1649 -0.1364  0.3868
  256MOL0     C34468   4.048  10.330   9.429  0.1296  0.7815  0.8346
  256MOL0     C34469   4.042  10.470   9.391  0.2300 -0.1435 -0.0556
  256MOL0    Cl34470   4.174  10.547   9.482  0.1075  0.0673  0.3112
  256MOL0     C34471   3.063  10.070   9.222 -0.3154  0.1882  0.1493
  256MOL0     C34472   2.933  10.041   9.259 -0.4231 -0.1503 -0.9571
  256MOL0     O34473   2.779   9.703   9.323 -0.2539 -0.8002 -0.0770
  256MOL0     C34474   2.551   9.847   9.534 -0.8022  0.6140 -0.4297
  256MOL0     C34475   2.430   9.823   9.602 -0.7100  0.0123 -0.1945
  256MOL0     N34476   2.095  10.132   9.764 -0.2198 -0.2118 -0.1058
  256MOL0     N34477   2.090  10.209   9.869  0.4252 -0.5812  0.9075
  256MOL0     C34478   2.657  10.123  10.292  0.6246  1.0246  0.4802
  256MOL0     C34479   2.786  10.160  10.245 -0.1179 -0.5187  0.0089
  256MOL0     C34480   3.251  10.223  10.194  0.5209  1.2405 -0.1149
  256MOL0     C34481   3.219  10.332  10.100 -1.2521 -0.2915 -0.0092
  256MOL0     C34482   3.321  10.417  10.055  0.0348  0.3515 -1.3574
  256MOL0     C34483   3.449  10.391  10.087 -0.6618 -0.4907 -0.0277
  256MOL0     O34484   3.540  10.480  10.037 -0.4414 -0.0517 -0.2800
  256MOL0     C34485   3.676  10.450  10.076 -0.2662  0.4102 -0.4561
  256MOL0     C34486   3.772  10.536  10.007 -0.7690 -0.3109  0.3370
  256MOL0     C34487   3.919  10.496  10.021  0.6683  0.3594  0.9841
  256MOL0     C34488   3.953  10.425   9.894 -0.3569  1.0234  0.9298
  256MOL0     C34489   4.102  10.398   9.880  0.0567  0.3444 -0.6872
  256MOL0     C34490   4.220  10.384   9.852  0.2045  0.7482  0.7480
  256MOL0     C34491   3.481  10.280  10.171  0.2620  0.0771 -1.2386
  256MOL0     C34492   3.383  10.201  10.227 -0.2895 -0.5869  0.2781
  256MOL0     H34493   2.988   9.925  10.388 -0.9600  0.1075  0.2856
  256MOL0     H34494   2.764   9.864  10.478 -0.0710  0.5844  0.8775
  256MOL0     H34495   2.408  10.006  10.306 -2.7371  0.0594  0.2550
  256MOL0     H34496   2.356   9.924  10.454  2.5557 -0.9503  1.3130
  256MOL0     H34497   2.356  10.109  10.589  1.1659 -4.2095 -0.3527
  256MOL0     H34498   2.456  10.206  10.485  1.0729 -0.0943 -4.4558
  256MOL0     H34499   2.170  10.117  10.436  0.6664 -0.1125  2.8508
  256MOL0     H34500   2.219  10.277  10.484 -1.4032  1.0707 -1.4727
  256MOL0     H34501   2.348  10.304  10.266 -0.3562  0.0820  0.2772
  256MOL0     H34502   2.297  10.157  10.221 -1.7488 -1.6986  1.5281
  256MOL0     H34503   2.098  10.378  10.295  4.6933  1.7388 -0.5331
  256MOL0     H34504   2.140  10.357  10.134 -1.3404  1.8890  0.9965
  256MOL0     H34505   2.057  10.106  10.160  1.1492  0.5847 -0.8818
  256MOL0     H34506   2.002  10.158  10.316 -0.6620 -0.1417 -0.8294
  256MOL0     H34507   1.827  10.158  10.137  2.9989 -2.7004 -0.1342
  256MOL0     H34508   1.844  10.310  10.213  0.7275  0.4300  0.3671
  256MOL0     H34509   1.955  10.397  10.022  0.8125 -0.9961  0.1394
  256MOL0     H34510   1.806  10.345   9.980 -0.1692  0.0348 -0.5626
  256MOL0     H34511   1.795  10.073   9.831 -0.4217  2.6908 -1.3914
  256MOL0     H34512   1.870   9.927   9.611  0.2406 -0.1722 -0.2267
  256MOL0     H34513   2.046   9.928   9.590 -0.9723 -1.8321 -0.0772
  256MOL0     H34514   1.906   9.806   9.827 -0.6352  1.8294 -1.6767
  256MOL0     H34515   2.077   9.835   9.826  1.2035 -3.5476  0.5074
  256MOL0     H34516   1.901   9.659   9.645  0.8919 -0.1641 -1.3627
  256MOL0     H34517   2.014   9.604   9.758 -0.5799 -3.0648 -3.0230
  256MOL0     H34518   2.078   9.738   9.491 -0.7935  1.6659  1.1008
  256MOL0     H34519   2.114   9.574   9.538  0.8556  0.5681 -0.1843
  256MOL0     H34520   2.302   9.602   9.384  0.1198 -0.6362 -0.0650
  256MOL0     H34521   2.607   9.584   9.211 -0.0179 -0.5986  0.8488
  256MOL0     H34522   2.434   9.531   9.246 -0.3392 -0.1076  0.2099
  256MOL0     H34523   2.465   9.673   9.151  0.0616  0.1058  0.3660
  256MOL0     H34524   2.993   9.812   9.493  1.1171  2.2084  0.9726
  256MOL0     H34525   3.237   9.870   9.436 -1.9852 -2.0391  0.8780
  256MOL0     H34526   3.276  10.179   9.102  1.2082  0.6230 -0.9523
  256MOL0     H34527   3.332  10.239   9.259  2.8196 -0.4670  0.4113
  256MOL0     H34528   3.518  10.057   9.108 -0.2274  1.3720 -2.7554
  256MOL0     H34529   3.514  10.225   9.054 -0.4886 -0.2044 -0.7186
  256MOL0     H34530   3.552  10.150   9.350  2.1185 -0.5247  1.7451
  256MOL0     H34531   3.554  10.316   9.280  1.8875  1.1628 -4.3406
  256MOL0     H34532   3.741  10.086   9.248  0.7591  0.0415  1.1597
  256MOL0     H34533   3.751  10.230   9.135 -1.0745 -0.3800 -0.3538
  256MOL0     H34534   3.764  10.287   9.430  1.9637  2.6815  0.5623
  256MOL0     H34535   3.821  10.378   9.289 -0.5255 -0.5131 -0.6572
  256MOL0     H34536   3.963  10.136   9.393 -3.7533  0.6017  1.8588
  256MOL0     H34537   4.001  10.230   9.236 -3.2799  0.4158 -0.8152
  256MOL0     H34538   4.147  10.285   9.419 -0.6823 -1.0101  0.4350
  256MOL0     H34539   4.033  10.325   9.537  0.1235 -0.0520  0.8046
  256MOL0     H34540   3.949  10.521   9.420  1.9608  3.4286 -0.1889
  256MOL0     H34541   4.048  10.495   9.284 -2.5359 -1.1661 -0.5253
  256MOL0     H34542   3.074  10.155   9.156  0.4741  1.2131  1.5407
  256MOL0     H34543   2.854  10.095   9.207 -0.2104 -0.7352 -1.9115
  256MOL0     H34544   2.623   9.914   9.580 -0.0775 -0.4017 -0.0568
  256MOL0     H34545   2.413   9.855   9.704 -3.3917 -0.2482 -0.4826
  256MOL0     H34546   2.567  10.170  10.255  1.0864  3.0295  1.7559
  256MOL0     H34547   2.803  10.257  10.199  0.2566  1.8374  4.5338
  256MOL0     H34548   3.115  10.345  10.072 -1.8017  0.4416  2.1683
  256MOL0     H34549   3.292  10.504   9.996 -3.0566  1.7297  1.8177
  256MOL0     H34550   3.689  10.474  10.182  1.9894 -0.4773 -0.4887
  256MOL0     H34551   3.692  10.344  10.054 -0.4671  0.4957 -1.0482
  256MOL0     H34552   3.762  10.642  10.031  0.9262 -0.0356 -0.0629
  256MOL0     H34553   3.750  10.535   9.900 -0.5292  1.7151  0.2346
  256MOL0     H34554   3.943  10.425  10.100  3.0426 -2.0722 -1.7179
  256MOL0     H34555   3.985  10.583  10.035  1.7313  0.3966 -3.1347
  256MOL0     H34556   3.909  10.479   9.810 -1.3699 -0.6404  0.3502
  256MOL0     H34557   3.912  10.324   9.899  2.8276 -0.6367 -1.7060
  256MOL0     H34558   4.323  10.369   9.827 -0.1292  1.3583 -1.0994
  256MOL0     H34559   3.577  10.244  10.205  0.6202  0.7193 -1.5546
  256MOL0     H34560   3.411  10.126  10.299  1.5653 -0.0854  0.1126
  257MOL0     O34561   9.635   7.130   5.641  0.7031  0.3230  0.3374
  257MOL0     C34562   9.668   7.020   5.690  0.3541  0.8546  0.2935
  257MOL0     O34563   9.629   6.894   5.645  0.1259  0.0991  0.2791
  257MOL0     C34564   9.539   6.885   5.542  0.5259 -0.4102  0.1687
  257MOL0     C34565   9.562   6.804   5.430  0.3277  0.2464  0.3880
  257MOL0     C34566   9.471   6.802   5.323 -0.5907 -0.2173  0.3769
  257MOL0     C34567   9.363   6.890   5.316 -0.3032  0.2158 -0.2843
  257MOL0     O34568   9.267   6.899   5.219 -0.2722  0.4589 -0.2978
  257MOL0     C34569   9.307   6.848   5.091  1.2480 -0.7548 -0.4219
  257MOL0     C34570   9.197   6.885   4.994  0.7501  0.1759  0.5903
  257MOL0     C34571   9.052   6.877   5.050 -0.1913 -0.6357  0.2404
  257MOL0     C34572   8.950   6.856   4.937  0.4955  0.5435  0.1694
  257MOL0     C34573   8.815   6.836   4.983 -0.2572 -0.3730 -0.6411
  257MOL0     C34574   8.786   6.719   5.086 -0.7753 -0.0788 -0.3511
  257MOL0     C34575   8.635   6.694   5.108  0.0464  0.1729  0.3622
  257MOL0     C34576   8.577   6.591   5.007  0.4405  0.4260  0.2822
  257MOL0     N34577   8.432   6.595   5.011  1.1158 -0.3497  0.2071
  257MOL0     C34578   8.352   6.704   5.011  0.0690 -0.1799 -1.2266
  257MOL0     C34579   8.225   6.659   5.029 -0.0106 -0.1917  0.2737
  257MOL0     C34580   8.094   6.734   5.039 -0.2303  0.2354 -0.3123
  257MOL0     C34581   8.027   6.763   4.902 -0.6005 -0.4060  0.2754
  257MOL0     C34582   7.894   6.684   4.884 -0.0374 -0.3246 -0.5397
  257MOL0     C34583   7.836   6.696   4.744 -0.2711 -1.3411 -0.4090
  257MOL0     O34584   7.713   6.640   4.705  0.3628 -0.7519 -0.9607
  257MOL0     C34585   7.698   6.511   4.680  0.8312  0.5259 -0.5026
  257MOL0     C34586   7.788   6.408   4.687  0.0710  0.1478  0.9122
  257MOL0     C34587   7.760   6.275   4.668  0.4658 -0.5954  0.1786
  257MOL0     C34588   7.877   6.178   4.662  0.4434  0.2446 -0.1359
  257MOL0     C34589   7.628   6.235   4.636  0.2629  0.3702 -1.3974
  257MOL0     C34590   7.579   6.097   4.595  0.0371 -0.6233 -0.0382
  257MOL0     O34591   7.449   6.068   4.604 -0.2099  0.1038  0.2481
  257MOL0     C34592   7.415   5.939   4.565 -0.1061 -0.5495  0.4418
  257MOL0     C34593   7.310   5.919   4.466  0.2711  0.5035 -0.6616
  257MOL0     C34594   7.265   5.795   4.439  0.2688  0.6504  0.4448
  257MOL0     C34595   7.322   5.685   4.495  1.9268  0.0376 -0.0383
  257MOL0     O34596   7.266   5.563   4.467  0.1266  0.5839 -0.0197
  257MOL0     C34597   7.347   5.441   4.480 -1.0869 -0.4649 -0.5707
  257MOL0     C34598   7.290   5.329   4.378 -0.2089 -0.3913 -0.1881
  257MOL0     C34599   7.193   5.238   4.450 -0.4395 -0.5889  0.7027
  257MOL0     C34600   7.080   5.204   4.360  0.1235 -0.4035  0.4914
  257MOL0     C34601   7.003   5.097   4.427 -0.2103 -0.2231  0.9321
  257MOL0     C34602   6.865   5.060   4.358  0.3768 -0.4219  0.4198
  257MOL0     C34603   6.781   4.981   4.463  0.5702  0.9602 -0.1687
  257MOL0     C34604   6.668   4.907   4.400 -0.4107  0.4891  0.3103
  257MOL0    Cl34605   6.567   4.806   4.499  0.0363 -0.8855  0.4441
  257MOL0     C34606   7.426   5.693   4.579 -0.3423 -0.7337  0.0872
  257MOL0     C34607   7.477   5.820   4.619 -0.6593 -0.3322  0.0545
  257MOL0     O34608   7.665   6.029   4.538  0.1257 -0.5515 -0.1026
  257MOL0     C34609   7.536   6.335   4.627  0.4571  0.2716 -0.2866
  257MOL0     C34610   7.567   6.475   4.645 -0.1957  0.3186  0.2726
  257MOL0     N34611   8.234   6.518   5.030  0.3964  0.4134 -0.1022
  257MOL0     N34612   8.361   6.481   5.015 -0.6743  0.3223 -0.1515
  257MOL0     C34613   9.341   6.965   5.430  0.3617 -0.7632  0.1914
  257MOL0     C34614   9.423   6.966   5.540 -0.8027 -0.3354  0.4275
  257MOL0     C34615   9.777   7.025   5.797  0.2868  0.3673 -0.4403
  257MOL0     C34616   9.795   6.913   5.887  0.2865 -0.1384  0.1065
  257MOL0     C34617   9.883   6.920   5.995  0.1182 -0.1737 -0.3605
  257MOL0     C34618   9.962   7.029   6.011 -1.1958 -0.3430 -0.5579
  257MOL0     O34619  10.045   7.065   6.112  0.0539 -0.1069  0.4872
  257MOL0     C34620  10.053   6.979   6.227  0.1260 -0.3810  0.2523
  257MOL0     C34621  10.162   7.030   6.316  0.4853  0.7332  0.9434
  257MOL0     C34622  10.306   7.006   6.275  1.0180  0.2181  0.1479
  257MOL0     C34623  10.394   7.046   6.394  0.5465  0.9591  0.0505
  257MOL0     C34624  10.532   7.077   6.354 -0.6382  0.2473  0.2813
  257MOL0     C34625  10.639   7.113   6.316  0.5324  0.5238  0.2775
  257MOL0     C34626   9.947   7.138   5.924 -0.0070 -0.4597 -0.0452
  257MOL0     C34627   9.855   7.139   5.824  0.2079  0.7369 -0.4393
  257MOL0     H34628   9.651   6.742   5.421 -0.1958 -0.8212  2.0242
  257MOL0     H34629   9.484   6.726   5.247  0.6497  1.7049 -1.4355
  257MOL0     H34630   9.410   6.876   5.066  1.2757 -0.7361 -0.2874
  257MOL0     H34631   9.307   6.738   5.095  0.6020 -0.7575 -0.3333
  257MOL0     H34632   9.213   6.989   4.966 -1.1783  0.1570 -0.7398
  257MOL0     H34633   9.221   6.819   4.910  1.0826 -3.1495  3.0868
  257MOL0     H34634   9.049   6.784   5.107 -0.4628 -0.3019  0.7741
  257MOL0     H34635   9.030   6.953   5.126 -0.1622 -0.9154  0.5306
  257MOL0     H34636   8.949   6.940   4.868 -2.4507  0.8100  0.3887
  257MOL0     H34637   8.976   6.774   4.870 -0.8395  1.2329 -1.2537
  257MOL0     H34638   8.789   6.933   5.026  2.0925  0.4837 -1.0196
  257MOL0     H34639   8.756   6.822   4.893 -0.9827 -2.8803  0.1290
  257MOL0     H34640   8.838   6.631   5.046 -0.0458  1.1779 -2.2761
  257MOL0     H34641   8.828   6.749   5.183 -1.3118 -0.6500  0.0641
  257MOL0     H34642   8.633   6.652   5.209  4.4723 -0.9221  0.2039
  257MOL0     H34643   8.581   6.789   5.100  1.1428  0.7797 -0.2499
  257MOL0     H34644   8.620   6.490   5.014 -0.1495 -0.3411 -3.9462
  257MOL0     H34645   8.605   6.622   4.906  0.1287  1.7641  0.5975
  257MOL0     H34646   8.378   6.808   5.027 -0.2303 -0.5941  3.3852
  257MOL0     H34647   8.025   6.687   5.109 -0.8523  2.9388  1.0482
  257MOL0     H34648   8.114   6.825   5.097 -0.7385 -0.4350  0.9406
  257MOL0     H34649   8.094   6.746   4.817 -1.7414  0.2345 -0.7733
  257MOL0     H34650   8.012   6.872   4.904  1.0080 -0.1440  2.4113
  257MOL0     H34651   7.823   6.707   4.963 -0.7946 -1.5877 -0.8294
  257MOL0     H34652   7.913   6.579   4.907 -0.9333  0.0299  2.1345
  257MOL0     H34653   7.916   6.655   4.681  0.0074  0.6267 -1.4036
  257MOL0     H34654   7.825   6.804   4.732 -0.3385 -0.5762  4.6084
  257MOL0     H34655   7.889   6.441   4.709  0.7497 -0.9936 -0.3165
  257MOL0     H34656   7.932   6.190   4.568  2.0710  1.3329  0.8928
  257MOL0     H34657   7.949   6.203   4.741  1.3091 -1.5284 -0.3093
  257MOL0     H34658   7.855   6.071   4.668 -0.8118  0.4900 -0.1512
  257MOL0     H34659   7.269   6.008   4.419 -4.2228  0.1590  2.0391
  257MOL0     H34660   7.173   5.801   4.382 -0.0065 -1.3581  0.5843
  257MOL0     H34661   7.452   5.460   4.454 -2.0090  2.0959 -3.0016
  257MOL0     H34662   7.347   5.405   4.583  2.2182  1.2306  0.1479
  257MOL0     H34663   7.243   5.380   4.293 -2.7638 -1.8200  0.2384
  257MOL0     H34664   7.377   5.276   4.340 -0.2174 -1.3103  1.0391
  257MOL0     H34665   7.148   5.274   4.543 -0.9789 -0.8873  0.5601
  257MOL0     H34666   7.246   5.144   4.471 -0.0379 -1.4302 -3.3733
  257MOL0     H34667   7.008   5.284   4.343 -0.4367 -0.6557  1.5799
  257MOL0     H34668   7.121   5.170   4.265  2.8840 -1.0068  1.7973
  257MOL0     H34669   6.973   5.140   4.523 -0.1489  2.4350 -0.1638
  257MOL0     H34670   7.059   5.005   4.448  0.3643  0.1882  1.2307
  257MOL0     H34671   6.800   5.138   4.317 -2.5762 -3.0225 -0.3213
  257MOL0     H34672   6.880   4.991   4.274 -1.4974 -0.3714 -0.0124
  257MOL0     H34673   6.737   5.049   4.536  1.0343 -0.3700  1.4278
  257MOL0     H34674   6.843   4.913   4.523  1.4435  1.3840 -0.5706
  257MOL0     H34675   6.701   4.834   4.325  1.8474  0.3526  1.3486
  257MOL0     H34676   6.609   4.979   4.343 -0.8026  0.0798  0.1952
  257MOL0     H34677   7.469   5.601   4.617 -1.7323 -1.4309  0.0474
  257MOL0     H34678   7.556   5.821   4.693  0.8790 -0.8620 -1.5176
  257MOL0     H34679   7.433   6.310   4.602  0.0011  0.5192  1.2440
  257MOL0     H34680   7.487   6.547   4.637 -1.0727 -0.6300  0.3736
  257MOL0     H34681   9.264   7.042   5.431  0.4816 -0.6489  1.0176
  257MOL0     H34682   9.395   7.032   5.622 -1.3135  1.4222 -1.1075
  257MOL0     H34683   9.731   6.826   5.874  0.8451 -0.3823 -1.1615
  257MOL0     H34684   9.896   6.834   6.059 -3.4266 -3.5189 -3.5947
  257MOL0     H34685   9.961   6.977   6.287  2.7704  0.2642  4.7076
  257MOL0     H34686  10.079   6.875   6.204  4.8205  0.6729 -0.0774
  257MOL0     H34687  10.141   6.975   6.408 -2.1397 -4.5690 -2.3168
  257MOL0     H34688  10.147   7.138   6.310 -1.4097  0.4372 -0.8184
  257MOL0     H34689  10.329   7.066   6.185  2.4987 -1.4366 -0.6372
  257MOL0     H34690  10.338   6.903   6.257 -0.1314 -0.4909  1.8932
  257MOL0     H34691  10.386   6.965   6.466  0.3903  2.0813  1.3329
  257MOL0     H34692  10.355   7.135   6.446 -2.5633  0.8583 -1.8112
  257MOL0     H34693  10.720   7.163   6.267  1.4228 -0.6596  0.5055
  257MOL0     H34694  10.014   7.217   5.956 -1.8527  0.5759  1.4800
  257MOL0     H34695   9.847   7.227   5.761  0.0903 -0.3678 -2.0393
  258MOL0     O34696   3.909   6.155   8.563 -0.5662  0.3365  0.0003
  258MOL0     C34697   3.963   6.263   8.534 -0.1337 -0.0863  0.0328
  258MOL0     O34698   3.897   6.365   8.482  0.0265 -0.2614 -0.2142
  258MOL0     C34699   3.767   6.354   8.433  0.1518  0.7015  0.8122
  258MOL0     C34700   3.746   6.386   8.297 -0.4955 -0.2058  0.4101
  258MOL0     C34701   3.620   6.399   8.245  0.0927 -0.0726 -0.4179
  258MOL0     C34702   3.503   6.384   8.318 -1.3634  0.0257 -0.7348
  258MOL0     O34703   3.387   6.400   8.247 -0.5292  0.8889  0.4479
  258MOL0     C34704   3.266   6.415   8.317 -0.2487  0.2539  0.1707
  258MOL0     C34705   3.159   6.438   8.209  0.7847 -1.0112 -0.2179
  258MOL0     C34706   3.025   6.462   8.283 -0.1832 -0.3297 -0.1349
  258MOL0     C34707   2.900   6.501   8.199  0.7580 -0.5225 -0.1781
  258MOL0     C34708   2.848   6.402   8.111 -0.1981  0.1483  0.8144
  258MOL0     C34709   2.724   6.466   8.045  0.1938  0.3066 -1.5983
  258MOL0     C34710   2.670   6.379   7.932  0.1183  0.3696  0.2358
  258MOL0     C34711   2.765   6.386   7.805 -0.7643 -0.0179 -0.4726
  258MOL0     N34712   2.691   6.368   7.681 -0.3631 -0.7621  0.0800
  258MOL0     C34713   2.722   6.271   7.589 -0.1390  0.5480 -0.2480
  258MOL0     C34714   2.634   6.293   7.490  0.5365  0.7155  1.2521
  258MOL0     C34715   2.646   6.236   7.354 -0.3742 -0.2394 -0.4992
  258MOL0     C34716   2.526   6.255   7.268  0.4590  0.1188  0.1611
  258MOL0     C34717   2.433   6.147   7.300  0.0657  0.5421  0.6770
  258MOL0     C34718   2.290   6.168   7.227 -0.4666  0.6340  0.0905
  258MOL0     O34719   2.216   6.053   7.252  0.0019 -0.3637  0.2286
  258MOL0     C34720   2.085   6.025   7.217 -0.6163 -0.2126  1.6100
  258MOL0     C34721   2.025   5.907   7.248 -0.7507  0.2995  0.3168
  258MOL0     C34722   1.902   5.865   7.196 -1.0956  0.6127  0.5586
  258MOL0     C34723   1.860   5.727   7.229 -0.3438 -0.7097  0.3148
  258MOL0     C34724   1.829   5.960   7.118  0.1588  0.3790  0.6677
  258MOL0     C34725   1.688   5.932   7.079 -0.1340 -0.0288  1.2687
  258MOL0     O34726   1.617   6.042   7.046  0.1584  0.3981 -0.3912
  258MOL0     C34727   1.488   6.023   6.991  0.0493  0.2837 -0.2236
  258MOL0     C34728   1.378   6.055   7.062 -0.2782 -0.6617 -0.2023
  258MOL0     C34729   1.253   6.021   7.004  0.0715  0.2092 -0.2781
  258MOL0     C34730   1.244   5.969   6.873 -0.1727  0.2616  0.5836
  258MOL0     O34731   1.127   5.937   6.813  0.0413  1.1306 -0.2730
  258MOL0     C34732   1.012   6.032   6.861 -0.0677  0.3703 -0.7880
  258MOL0     C34733   0.902   6.009   6.765 -0.3488 -0.5272 -0.4612
  258MOL0     C34734   0.775   6.090   6.799  0.1902  0.2323  0.2398
  258MOL0     C34735   0.672   6.067   6.689 -0.4351  0.4535 -0.4971
  258MOL0     C34736   0.538   6.134   6.736 -0.3087 -0.1988  1.0939
  258MOL0     C34737   0.421   6.127   6.641  0.2323 -0.3930 -0.5213
  258MOL0     C34738   0.344   5.998   6.667 -0.0855  0.1735  0.3264
  258MOL0     C34739   0.195   5.993   6.627  0.1331  0.1974  0.6637
  258MOL0    Cl34740   0.093   6.125   6.695  0.1319  0.0375  0.3327
  258MOL0     C34741   1.361   5.932   6.805  0.8821  0.0435  0.1825
  258MOL0     C34742   1.482   5.968   6.861  0.4386 -0.1284  1.0738
  258MOL0     O34743   1.644   5.821   7.061  0.3133  0.1581 -0.0949
  258MOL0     C34744   1.881   6.086   7.098 -0.2432  0.0832  0.8761
  258MOL0     C34745   2.014   6.108   7.130  0.3013 -0.1965  0.1340
  258MOL0     N34746   2.550   6.401   7.525  0.3787 -0.1145 -0.3839
  258MOL0     N34747   2.587   6.443   7.640 -0.4497 -0.5586 -0.6698
  258MOL0     C34748   3.517   6.355   8.458 -0.1871 -0.6255  0.5485
  258MOL0     C34749   3.653   6.334   8.515 -0.0183 -0.7768 -0.2872
  258MOL0     C34750   4.116   6.279   8.560  0.4564  0.4577  0.6187
  258MOL0     C34751   4.193   6.192   8.635  0.8829 -0.1501  0.1109
  258MOL0     C34752   4.320   6.224   8.682  0.1739 -0.1776 -0.2304
  258MOL0     C34753   4.383   6.334   8.646 -0.2596 -0.1043 -0.0164
  258MOL0     O34754   4.513   6.360   8.682  0.2879  0.5132 -0.5301
  258MOL0     C34755   4.523   6.401   8.815 -0.1267 -0.1229 -0.2607
  258MOL0     C34756   4.643   6.497   8.822 -0.0018 -0.3473 -0.3194
  258MOL0     C34757   4.620   6.630   8.754  1.1679  1.1174 -0.2679
  258MOL0     C34758   4.519   6.716   8.821  0.1361 -0.8721 -0.0287
  258MOL0     C34759   4.516   6.848   8.759 -0.5854  0.6830  0.2243
  258MOL0     C34760   4.506   6.953   8.702  0.1416  0.6788  0.1858
  258MOL0     C34761   4.316   6.419   8.566  0.1272  0.1591  0.6631
  258MOL0     C34762   4.186   6.393   8.523 -0.5796  0.3294  0.6513
  258MOL0     H34763   3.826   6.394   8.225 -0.9789 -0.7795 -0.2093
  258MOL0     H34764   3.629   6.413   8.138  0.9981 -1.2231 -0.5073
  258MOL0     H34765   3.245   6.337   8.390 -5.0291  1.3654  0.3636
  258MOL0     H34766   3.278   6.513   8.365 -1.0608  0.9527 -0.9777
  258MOL0     H34767   3.180   6.531   8.156 -1.3492 -0.2717  0.1511
  258MOL0     H34768   3.146   6.354   8.141  0.2510  0.0975 -1.5320
  258MOL0     H34769   3.004   6.371   8.340 -0.6590 -1.7951 -2.5203
  258MOL0     H34770   3.034   6.551   8.346 -0.3643  0.6974 -1.5108
  258MOL0     H34771   2.825   6.527   8.274  1.4965 -0.1742  0.4638
  258MOL0     H34772   2.925   6.592   8.144 -4.1343  0.7543 -0.7206
  258MOL0     H34773   2.927   6.372   8.042  0.2297 -1.9488  2.1267
  258MOL0     H34774   2.817   6.313   8.166 -3.7393  2.3162  2.7359
  258MOL0     H34775   2.641   6.469   8.115  2.3735 -1.1426  1.2587
  258MOL0     H34776   2.744   6.572   8.023  0.2375  1.2912  2.4150
  258MOL0     H34777   2.651   6.281   7.976 -1.0105  0.2307 -0.5245
  258MOL0     H34778   2.574   6.423   7.904 -0.3687 -1.3130 -0.8767
  258MOL0     H34779   2.848   6.315   7.813 -1.7940 -1.1586  0.7335
  258MOL0     H34780   2.809   6.485   7.797 -0.6880 -0.0492 -0.4404
  258MOL0     H34781   2.813   6.212   7.598  0.1275  1.1719  1.4628
  258MOL0     H34782   2.725   6.295   7.306  1.9820 -1.9059  1.1220
  258MOL0     H34783   2.679   6.132   7.360 -1.7968 -0.6405  4.4484
  258MOL0     H34784   2.554   6.253   7.163  0.4281  0.3166  0.1482
  258MOL0     H34785   2.472   6.348   7.292 -2.1941 -2.0312  3.6865
  258MOL0     H34786   2.431   6.136   7.409  1.0134 -0.5999  0.6023
  258MOL0     H34787   2.470   6.051   7.265 -3.0184 -1.0259  1.3343
  258MOL0     H34788   2.301   6.178   7.118 -0.4055 -1.3807 -0.1100
  258MOL0     H34789   2.236   6.246   7.282 -2.4288 -1.2099  0.9031
  258MOL0     H34790   2.085   5.830   7.296 -0.8179  1.0390  1.6304
  258MOL0     H34791   1.935   5.654   7.261  0.9327  0.5757  0.3983
  258MOL0     H34792   1.775   5.744   7.295  0.0715  2.1331  0.2394
  258MOL0     H34793   1.831   5.683   7.134  0.9373  2.3940 -1.6643
  258MOL0     H34794   1.382   6.104   7.159 -1.8085  1.3135 -1.0586
  258MOL0     H34795   1.167   6.057   7.059  1.3348  2.6260  0.2697
  258MOL0     H34796   0.980   6.012   6.964  1.6983 -1.4569 -0.5310
  258MOL0     H34797   1.037   6.138   6.849 -0.1719  0.2728 -1.9811
  258MOL0     H34798   0.953   6.042   6.674 -1.7506  0.1075 -1.0553
  258MOL0     H34799   0.870   5.907   6.742 -3.3132  0.0840  0.4938
  258MOL0     H34800   0.791   6.198   6.803 -1.4401  0.4644  1.3516
  258MOL0     H34801   0.731   6.062   6.895 -3.0838  2.2545 -0.5457
  258MOL0     H34802   0.717   6.107   6.598 -2.3020  1.9061 -0.8531
  258MOL0     H34803   0.658   5.958   6.682  0.5640  0.1736  1.1562
  258MOL0     H34804   0.560   6.241   6.744  0.3878 -0.0475 -1.9277
  258MOL0     H34805   0.514   6.107   6.840 -0.5333  0.9305  1.3569
  258MOL0     H34806   0.358   6.217   6.648 -0.0974 -0.7080  4.8531
  258MOL0     H34807   0.464   6.121   6.541  0.6476  1.9768 -0.5517
  258MOL0     H34808   0.338   5.976   6.774 -1.0488 -1.7071 -0.0683
  258MOL0     H34809   0.394   5.912   6.623 -0.8034 -1.1331  1.9470
  258MOL0     H34810   0.154   5.894   6.649  0.7103  0.3043  2.3796
  258MOL0     H34811   0.196   6.012   6.520 -0.9423  2.0707  0.9462
  258MOL0     H34812   1.352   5.890   6.705  2.6940 -1.0515  0.4278
  258MOL0     H34813   1.575   5.949   6.809 -1.5276 -0.9987 -2.4159
  258MOL0     H34814   1.824   6.161   7.043  0.2534 -0.3403 -0.2450
  258MOL0     H34815   2.067   6.194   7.089  2.6833 -1.8027 -0.3538
  258MOL0     H34816   3.425   6.337   8.514  1.5887  0.7841  4.3075
  258MOL0     H34817   3.662   6.295   8.616  2.9127 -1.1308 -0.6131
  258MOL0     H34818   4.159   6.096   8.672  0.0143  0.7064  1.6322
  258MOL0     H34819   4.366   6.144   8.739 -2.0312 -1.2201  0.1753
  258MOL0     H34820   4.425   6.437   8.849 -0.8310  0.6958 -2.9104
  258MOL0     H34821   4.550   6.314   8.875 -0.3600 -0.2514 -0.3421
  258MOL0     H34822   4.728   6.445   8.777  2.2579  2.0312  0.9085
  258MOL0     H34823   4.665   6.511   8.928  0.2873  4.6340 -0.8307
  258MOL0     H34824   4.591   6.617   8.649 -0.5464 -2.3599  0.4757
  258MOL0     H34825   4.715   6.684   8.759  1.7219  0.3948 -2.0634
  258MOL0     H34826   4.558   6.724   8.923 -2.4481 -4.1263  1.4129
  258MOL0     H34827   4.415   6.682   8.816  0.5863 -2.1012 -2.6971
  258MOL0     H34828   4.497   7.042   8.643  0.8765  1.3199  1.0224
  258MOL0     H34829   4.366   6.509   8.532  0.9823 -0.3083  0.6676
  258MOL0     H34830   4.134   6.461   8.456 -4.1962 -0.4627  2.3738
  259MOL0     O34831   2.967   4.088   4.632  0.2718 -0.4162 -0.4810
  259MOL0     C34832   2.982   4.134   4.518  0.3785  0.1435 -0.9414
  259MOL0     O34833   2.890   4.199   4.448  0.2131 -0.9210  0.4328
  259MOL0     C34834   2.755   4.179   4.472  0.2204  0.1804 -0.9966
  259MOL0     C34835   2.701   4.050   4.433 -0.0358 -0.8433  0.0125
  259MOL0     C34836   2.571   4.026   4.472  1.0970 -0.1315 -0.5991
  259MOL0     C34837   2.485   4.130   4.522 -0.1852 -0.0191 -0.9664
  259MOL0     O34838   2.356   4.095   4.563 -0.3805 -0.8884 -0.5207
  259MOL0     C34839   2.272   4.193   4.613  0.6838 -0.1938 -0.7888
  259MOL0     C34840   2.134   4.127   4.606  0.2219 -0.3006 -0.4447
  259MOL0     C34841   2.051   4.172   4.717 -0.0486  0.1309  0.3141
  259MOL0     C34842   1.968   4.284   4.672  0.3228 -0.0593 -0.2323
  259MOL0     C34843   1.889   4.361   4.781 -0.0823 -0.6152  0.5602
  259MOL0     C34844   1.757   4.293   4.828  0.6550  0.2127 -0.4649
  259MOL0     C34845   1.664   4.386   4.919 -0.5891  0.1931  0.2436
  259MOL0     C34846   1.531   4.324   4.958  0.5182  0.8633 -0.1324
  259MOL0     N34847   1.437   4.316   4.844  0.2678  0.0399  0.8232
  259MOL0     C34848   1.417   4.199   4.761  0.5369  0.3499  0.8959
  259MOL0     C34849   1.364   4.242   4.648  0.4356  0.6281  0.6252
  259MOL0     C34850   1.312   4.150   4.539  0.4219  0.1025 -0.3267
  259MOL0     C34851   1.190   4.067   4.595  0.1328  0.3200 -0.5034
  259MOL0     C34852   1.064   4.122   4.532 -0.3135  0.2412  0.0716
  259MOL0     C34853   0.941   4.074   4.618 -1.1659  0.3941  0.9063
  259MOL0     O34854   0.826   4.151   4.611 -0.1869  0.0652 -0.1726
  259MOL0     C34855   0.807   4.260   4.695 -0.0621 -1.1732 -0.1283
  259MOL0     C34856   0.916   4.311   4.773 -0.1178  0.2622  0.7891
  259MOL0     C34857   0.894   4.398   4.878  0.1434 -0.2050  0.1836
  259MOL0     C34858   1.010   4.438   4.962  0.2741  0.2200  0.3866
  259MOL0     C34859   0.767   4.463   4.885  0.9688 -0.3801 -0.3934
  259MOL0     C34860   0.736   4.565   4.989  0.0348 -0.4529  0.7019
  259MOL0     O34861   0.848   4.634   5.054 -0.2153 -0.3305  0.5313
  259MOL0     C34862   0.818   4.682   5.177 -0.3645 -0.6244 -0.1456
  259MOL0     C34863   0.815   4.815   5.204 -0.2064 -0.0571 -0.2626
  259MOL0     C34864   0.796   4.869   5.333  0.4038  0.3976  0.1366
  259MOL0     C34865   0.764   4.779   5.438  0.8800 -0.2397  0.2547
  259MOL0     O34866   0.737   4.837   5.565  0.0950  0.9002 -0.5309
  259MOL0     C34867   0.643   4.767   5.651  0.3006 -0.4985  0.2460
  259MOL0     C34868   0.663   4.814   5.792  0.1445  0.1681  0.0393
  259MOL0     C34869   0.554   4.757   5.887 -0.3111 -0.3400  0.3559
  259MOL0     C34870   0.583   4.800   6.034 -0.5664 -1.1306 -0.1868
  259MOL0     C34871   0.457   4.789   6.123  0.5384 -0.3090  1.5021
  259MOL0     C34872   0.440   4.901   6.225 -0.3111 -0.6244  0.0657
  259MOL0     C34873   0.309   4.883   6.303 -0.0911 -0.0885 -0.6042
  259MOL0     C34874   0.293   5.006   6.391 -0.2172 -0.3976  0.7093
  259MOL0    Cl34875   0.263   5.154   6.292  0.5085  0.1480 -0.2878
  259MOL0     C34876   0.765   4.639   5.411  0.0522 -0.8551 -0.1877
  259MOL0     C34877   0.800   4.595   5.284  0.4154  0.3460 -0.3616
  259MOL0     O34878   0.619   4.588   5.021  0.5418  0.3668  0.9048
  259MOL0     C34879   0.673   4.441   4.783  0.7002  0.0423 -0.7355
  259MOL0     C34880   0.695   4.340   4.688  0.3374  0.2866 -0.7299
  259MOL0     N34881   1.347   4.381   4.654 -0.2680 -0.2695  0.3044
  259MOL0     N34882   1.391   4.425   4.765 -0.0035 -0.1116 -0.9021
  259MOL0     C34883   2.547   4.256   4.550  0.0948 -0.9333  0.1170
  259MOL0     C34884   2.683   4.280   4.532 -0.0989 -0.4634  0.3974
  259MOL0     C34885   3.114   4.112   4.461 -0.0100  0.2926  0.9008
  259MOL0     C34886   3.126   4.101   4.321  0.3519  0.0725 -0.2076
  259MOL0     C34887   3.256   4.083   4.263  0.9323  0.3260  0.2927
  259MOL0     C34888   3.369   4.067   4.343  0.1788  0.8459 -0.4925
  259MOL0     O34889   3.491   4.029   4.290 -0.8072  0.4002  0.1766
  259MOL0     C34890   3.517   4.078   4.155  0.0618  0.0225 -0.1974
  259MOL0     C34891   3.648   4.015   4.099  0.1629 -0.2240 -0.2476
  259MOL0     C34892   3.667   4.033   3.949 -0.8934  0.7309  0.1342
  259MOL0     C34893   3.810   4.044   3.898  0.8678  0.4827  0.5718
  259MOL0     C34894   3.894   4.150   3.949 -0.9328 -0.1651  0.2339
  259MOL0     C34895   3.967   4.230   3.988 -0.1966  0.2534  0.0277
  259MOL0     C34896   3.353   4.067   4.476  0.9366 -0.2225 -0.7102
  259MOL0     C34897   3.229   4.091   4.537 -0.1920 -0.0025 -0.5391
  259MOL0     H34898   2.763   3.972   4.391  2.2817  0.2442  1.2459
  259MOL0     H34899   2.531   3.925   4.470  0.4641  0.1276 -1.3696
  259MOL0     H34900   2.300   4.228   4.713 -1.6811 -0.1501 -0.0720
  259MOL0     H34901   2.260   4.277   4.545 -1.1398 -0.4612 -0.8616
  259MOL0     H34902   2.094   4.147   4.506 -0.9946  2.1363  0.4589
  259MOL0     H34903   2.150   4.019   4.615 -0.4218 -0.3709 -0.0800
  259MOL0     H34904   1.984   4.091   4.749  0.8193 -2.2399 -3.2854
  259MOL0     H34905   2.112   4.194   4.804 -0.6985  0.6224  0.6580
  259MOL0     H34906   2.020   4.363   4.616 -1.7342  1.7207  0.2068
  259MOL0     H34907   1.906   4.243   4.592  2.0670  0.6458 -2.0334
  259MOL0     H34908   1.957   4.378   4.865  0.9595 -1.7455 -0.0089
  259MOL0     H34909   1.857   4.450   4.726 -0.4874 -2.0639 -1.6742
  259MOL0     H34910   1.700   4.258   4.741  1.1474  0.6850 -0.9861
  259MOL0     H34911   1.787   4.200   4.878  1.9793  0.4715 -0.7436
  259MOL0     H34912   1.727   4.420   5.001  0.2232  0.4898 -0.4860
  259MOL0     H34913   1.640   4.477   4.863 -2.9914 -1.6461 -1.9908
  259MOL0     H34914   1.480   4.377   5.039 -2.8360 -1.7078 -0.3638
  259MOL0     H34915   1.548   4.225   4.999  1.4515  1.6643  1.5057
  259MOL0     H34916   1.438   4.095   4.782 -0.6502 -0.5805 -2.0737
  259MOL0     H34917   1.281   4.202   4.448 -1.3990 -0.1389  0.1196
  259MOL0     H34918   1.390   4.085   4.496 -1.3711 -0.9965 -2.1180
  259MOL0     H34919   1.193   4.081   4.703  3.2214 -1.3019 -0.2476
  259MOL0     H34920   1.191   3.962   4.567 -2.2123 -0.3087  1.5331
  259MOL0     H34921   1.071   4.105   4.424  1.8441  1.2258  0.0117
  259MOL0     H34922   1.061   4.231   4.528 -0.9177  0.1874 -1.5769
  259MOL0     H34923   0.967   4.056   4.723 -0.6333 -1.4631  0.4977
  259MOL0     H34924   0.905   3.977   4.581 -0.8905  0.3432  0.7743
  259MOL0     H34925   1.018   4.278   4.759 -0.2719  0.9198 -3.2108
  259MOL0     H34926   1.056   4.527   4.918  1.3992 -0.1996  0.6608
  259MOL0     H34927   0.993   4.455   5.069  0.0389  2.4163  0.0315
  259MOL0     H34928   1.092   4.365   4.963 -0.6206 -0.9379  3.6633
  259MOL0     H34929   0.836   4.895   5.134  1.0689  1.7098  2.0110
  259MOL0     H34930   0.800   4.974   5.359  2.3422 -0.2040  2.6427
  259MOL0     H34931   0.539   4.790   5.629  0.6006 -0.7188 -1.5385
  259MOL0     H34932   0.668   4.661   5.647  0.1275 -0.6443  1.9992
  259MOL0     H34933   0.760   4.780   5.831 -0.3455 -1.3578  0.0001
  259MOL0     H34934   0.657   4.923   5.792  1.3734  0.2701 -1.6655
  259MOL0     H34935   0.553   4.647   5.886  0.9240 -0.3763 -0.6851
  259MOL0     H34936   0.461   4.802   5.851  0.0413 -0.1624 -0.3542
  259MOL0     H34937   0.657   4.741   6.088  0.1373 -2.5717 -2.5818
  259MOL0     H34938   0.617   4.904   6.035 -0.0602 -1.1942  3.6919
  259MOL0     H34939   0.438   4.689   6.164 -3.5712 -0.5320 -0.4656
  259MOL0     H34940   0.371   4.808   6.058  1.2411  4.4337  1.5989
  259MOL0     H34941   0.524   4.904   6.296 -1.7666 -1.7053  1.9470
  259MOL0     H34942   0.424   4.988   6.161 -2.1304 -0.0684  1.1876
  259MOL0     H34943   0.306   4.787   6.357  0.4614 -1.2935 -2.6185
  259MOL0     H34944   0.230   4.882   6.228  0.4290  1.8119 -1.2177
  259MOL0     H34945   0.376   5.020   6.462  1.7131  0.5289 -1.5869
  259MOL0     H34946   0.201   4.995   6.449 -1.4949 -0.5164 -1.2479
  259MOL0     H34947   0.740   4.563   5.485 -2.8857  1.7279  1.7230
  259MOL0     H34948   0.808   4.490   5.261 -0.6732 -0.0248  0.8016
  259MOL0     H34949   0.591   4.512   4.779  1.3523  0.8106 -0.7387
  259MOL0     H34950   0.614   4.307   4.624  2.5559 -1.4782 -2.8498
  259MOL0     H34951   2.493   4.336   4.599  1.0547  0.7844 -1.4820
  259MOL0     H34952   2.736   4.373   4.548 -0.1317 -0.4569  0.4725
  259MOL0     H34953   3.038   4.104   4.258 -0.3714  2.5118  0.7862
  259MOL0     H34954   3.257   4.077   4.154 -1.6209  0.7459  0.1920
  259MOL0     H34955   3.431   4.056   4.092 -2.8919  1.3683  3.0794
  259MOL0     H34956   3.532   4.186   4.167  1.4193 -0.2359  0.7477
  259MOL0     H34957   3.660   3.911   4.129  2.6961  0.2924  0.8372
  259MOL0     H34958   3.732   4.059   4.155  0.8931 -0.4961 -1.1136
  259MOL0     H34959   3.612   4.121   3.916  1.7757  1.5592 -2.5769
  259MOL0     H34960   3.604   3.953   3.908  2.2029 -0.3908 -2.8778
  259MOL0     H34961   3.803   4.049   3.789  1.4947 -0.5793  0.4632
  259MOL0     H34962   3.860   3.947   3.909 -1.3602 -1.1059 -2.0743
  259MOL0     H34963   4.035   4.301   4.031  1.7649 -0.7999 -1.1638
  259MOL0     H34964   3.433   4.043   4.545  2.3549  0.6223 -2.0072
  259MOL0     H34965   3.211   4.093   4.644 -0.5398  0.8872 -0.6012
  260MOL0     O34966   3.110   7.942   5.497 -0.3811  0.2053  0.0777
  260MOL0     C34967   3.009   7.938   5.429 -0.5583  0.1879  0.1618
  260MOL0     O34968   3.000   7.884   5.305 -0.9110 -0.2769 -0.1721
  260MOL0     C34969   3.095   7.789   5.270  0.6015 -0.3657 -0.5599
  260MOL0     C34970   3.126   7.682   5.351 -0.1616 -0.3029  0.0841
  260MOL0     C34971   3.224   7.589   5.309  0.8605 -0.5229  0.1313
  260MOL0     C34972   3.296   7.604   5.186 -0.0582 -0.5686 -0.9460
  260MOL0     O34973   3.391   7.520   5.139 -0.2239  0.1523  0.0915
  260MOL0     C34974   3.425   7.403   5.208  0.3911  0.7989 -0.3129
  260MOL0     C34975   3.559   7.347   5.151  0.0683  1.7792 -0.1334
  260MOL0     C34976   3.685   7.421   5.178 -0.5446 -0.0032 -0.3579
  260MOL0     C34977   3.806   7.341   5.128  0.3128  0.4578  0.2518
  260MOL0     C34978   3.941   7.413   5.141 -0.2145 -0.5340 -0.4076
  260MOL0     C34979   4.065   7.326   5.107 -0.3814  1.1030 -0.5029
  260MOL0     C34980   4.174   7.401   5.046 -0.5248 -0.8067  0.5261
  260MOL0     C34981   4.273   7.330   4.945 -0.9699  0.0186  0.0672
  260MOL0     N34982   4.203   7.279   4.833 -0.7830  0.9049  0.2579
  260MOL0     C34983   4.096   7.330   4.766 -0.2686  0.1670 -0.9872
  260MOL0     C34984   4.065   7.247   4.672  0.0405  0.3988  0.4202
  260MOL0     C34985   3.951   7.253   4.571 -0.5932 -0.1095  0.0999
  260MOL0     C34986   3.820   7.217   4.648  0.4262 -0.0408  0.7111
  260MOL0     C34987   3.690   7.231   4.555 -0.6040 -0.0601  0.0596
  260MOL0     C34988   3.561   7.213   4.637  1.1427  0.2482  0.4820
  260MOL0     O34989   3.442   7.204   4.551  0.8990 -0.7004  0.1540
  260MOL0     C34990   3.325   7.241   4.612 -0.9381  0.5973  0.1086
  260MOL0     C34991   3.306   7.274   4.749  0.3032 -0.6995  0.3363
  260MOL0     C34992   3.176   7.310   4.793 -0.1873 -0.0782  0.1259
  260MOL0     C34993   3.173   7.331   4.939 -0.6912  0.4797 -0.9437
  260MOL0     C34994   3.070   7.331   4.702  0.0942  0.2591 -0.3610
  260MOL0     C34995   2.925   7.361   4.744  1.0764 -0.8602 -0.4822
  260MOL0     O34996   2.892   7.395   4.873 -0.1985 -0.3644  0.3686
  260MOL0     C34997   2.757   7.403   4.905  0.3066  0.1780  0.5985
  260MOL0     C34998   2.715   7.324   5.012  0.8979 -1.0659 -0.6185
  260MOL0     C34999   2.580   7.311   5.042 -0.5743  0.8073 -0.2497
  260MOL0     C35000   2.490   7.387   4.975 -1.0517  0.0518  0.0764
  260MOL0     O35001   2.358   7.376   5.014 -0.1597  0.2652 -0.2237
  260MOL0     C35002   2.244   7.419   4.937 -0.9302  0.2816 -0.4906
  260MOL0     C35003   2.105   7.362   4.974  0.0640 -0.7957  0.2407
  260MOL0     C35004   1.989   7.437   4.916 -0.4717  0.1302 -0.0064
  260MOL0     C35005   1.851   7.365   4.931 -0.4065  0.5867 -0.3305
  260MOL0     C35006   1.733   7.451   4.882 -0.2727  0.2041 -0.0695
  260MOL0     C35007   1.602   7.374   4.910  0.0391 -0.6718 -0.7968
  260MOL0     C35008   1.471   7.446   4.875 -0.6796 -0.5152 -0.4028
  260MOL0     C35009   1.430   7.569   4.954 -0.0221 -0.2555  0.1385
  260MOL0    Cl35010   1.378   7.503   5.111  0.1832  0.2992 -0.4652
  260MOL0     C35011   2.527   7.471   4.873  0.0251  0.1456 -1.0962
  260MOL0     C35012   2.660   7.484   4.834 -0.5177 -0.3685 -0.5569
  260MOL0     O35013   2.860   7.390   4.645  0.0156  0.4164  0.5567
  260MOL0     C35014   3.101   7.311   4.567 -0.2762  0.9883  0.0809
  260MOL0     C35015   3.222   7.259   4.519 -0.5794 -0.4670  0.0241
  260MOL0     N35016   4.141   7.134   4.680 -0.0302  0.1425  0.7927
  260MOL0     N35017   4.225   7.163   4.772 -0.5161  0.0786 -0.2201
  260MOL0     C35018   3.251   7.706   5.101  0.1400  1.1167  0.0744
  260MOL0     C35019   3.148   7.792   5.138 -0.0510 -0.3706 -0.2057
  260MOL0     C35020   2.895   8.014   5.484 -0.0900 -1.2067  0.6209
  260MOL0     C35021   2.907   8.097   5.602 -0.3504  0.8104  0.4391
  260MOL0     C35022   2.799   8.159   5.643 -0.6192  0.6311 -0.0851
  260MOL0     C35023   2.675   8.160   5.579  0.6522 -0.1308 -0.4878
  260MOL0     O35024   2.581   8.231   5.637 -0.4186 -0.3393 -0.5305
  260MOL0     C35025   2.485   8.286   5.555 -0.2478  0.3833  0.1540
  260MOL0     C35026   2.400   8.384   5.630 -0.1631 -0.2573 -0.3271
  260MOL0     C35027   2.327   8.483   5.534  0.1404  0.5848  0.1580
  260MOL0     C35028   2.228   8.574   5.610 -0.4351 -0.0172  0.2076
  260MOL0     C35029   2.110   8.599   5.526 -0.0280  0.3412 -1.3588
  260MOL0     C35030   2.015   8.597   5.454 -0.2375  0.3523  0.1391
  260MOL0     C35031   2.656   8.071   5.469 -0.1948  0.5614 -0.7354
  260MOL0     C35032   2.765   8.005   5.419  0.5598 -0.5976 -1.0050
  260MOL0     H35033   3.084   7.673   5.451  2.8290 -2.6648  1.2910
  260MOL0     H35034   3.252   7.513   5.382 -0.0086 -0.0545  0.9885
  260MOL0     H35035   3.439   7.427   5.314  2.4938 -1.3168 -0.0361
  260MOL0     H35036   3.339   7.335   5.208 -0.1905  1.5207 -0.5904
  260MOL0     H35037   3.577   7.251   5.200  1.4906  0.3919 -3.1720
  260MOL0     H35038   3.543   7.335   5.044 -1.5337  0.1388  0.2328
  260MOL0     H35039   3.693   7.525   5.146  0.5042  0.2945  0.8221
  260MOL0     H35040   3.692   7.424   5.287 -0.8232  1.3139 -0.3647
  260MOL0     H35041   3.799   7.245   5.181 -3.2382  0.2440 -0.3483
  260MOL0     H35042   3.790   7.333   5.020  1.7867  0.0032  0.0574
  260MOL0     H35043   3.923   7.507   5.088  0.7933 -0.2304 -0.2205
  260MOL0     H35044   3.955   7.438   5.247  0.9695 -1.9590 -0.1902
  260MOL0     H35045   4.096   7.259   5.187 -1.0696 -0.1699 -1.2682
  260MOL0     H35046   4.019   7.264   5.029 -3.8249  1.9867  0.6611
  260MOL0     H35047   4.121   7.481   4.993 -0.8268 -1.5005 -0.2319
  260MOL0     H35048   4.235   7.448   5.124  3.3247 -0.4241 -2.4400
  260MOL0     H35049   4.335   7.249   4.985 -2.5336 -1.5625 -0.5303
  260MOL0     H35050   4.343   7.403   4.905 -0.1672 -0.0001  1.4089
  260MOL0     H35051   4.060   7.430   4.785 -1.4135 -0.4466  0.2144
  260MOL0     H35052   3.952   7.353   4.528  3.1603 -0.0196  0.0247
  260MOL0     H35053   3.972   7.181   4.492  2.2611  0.6125  0.0838
  260MOL0     H35054   3.807   7.276   4.739 -0.1174 -0.8903  1.2086
  260MOL0     H35055   3.832   7.112   4.679  3.7563  0.3809  1.1391
  260MOL0     H35056   3.675   7.156   4.476 -1.7011  0.5215 -0.3065
  260MOL0     H35057   3.692   7.329   4.506 -0.0430 -0.4802 -0.8049
  260MOL0     H35058   3.563   7.295   4.710 -0.1679  0.2546  0.5344
  260MOL0     H35059   3.564   7.122   4.698  0.7869  0.4368  0.7901
  260MOL0     H35060   3.384   7.257   4.823  0.0401 -2.0248  0.3234
  260MOL0     H35061   3.119   7.242   4.973  3.4289 -1.1554  2.2313
  260MOL0     H35062   3.268   7.335   4.994 -2.7925  0.5190  3.0579
  260MOL0     H35063   3.120   7.423   4.964 -2.0595 -0.0778 -1.7047
  260MOL0     H35064   2.782   7.262   5.072 -0.3680 -0.5064  1.4811
  260MOL0     H35065   2.535   7.254   5.123  1.1155 -0.9189 -0.4544
  260MOL0     H35066   2.241   7.527   4.926 -2.5768  0.2475 -0.5947
  260MOL0     H35067   2.253   7.385   4.833 -1.9193  0.0125 -0.5033
  260MOL0     H35068   2.094   7.258   4.939  2.1080 -1.1881  0.6646
  260MOL0     H35069   2.102   7.370   5.083  1.4840 -0.2842  0.2527
  260MOL0     H35070   2.009   7.449   4.810 -0.9573  1.3335  0.0292
  260MOL0     H35071   1.985   7.537   4.959  2.8113 -0.0900  1.1094
  260MOL0     H35072   1.850   7.267   4.881  1.8849 -0.9278  2.3152
  260MOL0     H35073   1.839   7.348   5.038  0.1364  2.4641  0.0664
  260MOL0     H35074   1.748   7.479   4.777 -1.3899 -0.7268 -0.4985
  260MOL0     H35075   1.731   7.541   4.945  2.5475  0.1840  0.1888
  260MOL0     H35076   1.603   7.277   4.859 -0.7181 -0.3859 -1.3869
  260MOL0     H35077   1.592   7.362   5.018 -0.6414  0.3215 -0.7335
  260MOL0     H35078   1.380   7.385   4.887  0.2064 -1.7027  0.5652
  260MOL0     H35079   1.469   7.479   4.771 -1.6509  1.0183  0.0618
  260MOL0     H35080   1.346   7.636   4.934 -0.4441  1.4426  5.8039
  260MOL0     H35081   1.523   7.620   4.980  0.0889  0.8590 -2.1681
  260MOL0     H35082   2.447   7.529   4.827 -2.1593 -2.7567 -1.2214
  260MOL0     H35083   2.687   7.559   4.761  1.8649  0.0820  0.6937
  260MOL0     H35084   3.026   7.321   4.490 -1.2501 -1.9791  0.4922
  260MOL0     H35085   3.240   7.223   4.418 -2.2004 -1.2967 -0.0058
  260MOL0     H35086   3.286   7.712   4.998  3.3400  0.9130  1.0404
  260MOL0     H35087   3.106   7.851   5.057 -0.1464 -0.4196 -0.1932
  260MOL0     H35088   3.003   8.096   5.653  0.2970  1.9434 -0.7066
  260MOL0     H35089   2.806   8.225   5.729  0.4336 -1.5371  1.6001
  260MOL0     H35090   2.512   8.324   5.456 -1.2419  0.0502 -0.2643
  260MOL0     H35091   2.414   8.203   5.541  2.0208 -1.7262  0.4444
  260MOL0     H35092   2.462   8.428   5.708 -0.6732 -0.8442  0.4320
  260MOL0     H35093   2.321   8.330   5.684  0.0882  2.0540  2.5640
  260MOL0     H35094   2.270   8.427   5.459 -0.9209 -1.7528  2.5580
  260MOL0     H35095   2.399   8.541   5.476 -0.4803  0.1071 -1.1356
  260MOL0     H35096   2.286   8.661   5.646  2.1715 -1.0434 -1.2064
  260MOL0     H35097   2.182   8.524   5.695 -0.9631  1.4271  0.8085
  260MOL0     H35098   1.935   8.583   5.384 -1.8706  2.3656  1.4941
  260MOL0     H35099   2.559   8.081   5.421 -0.7320  2.6400  0.6023
  260MOL0     H35100   2.752   7.950   5.326 -1.2806 -1.7015 -0.1424
  261MOL0     O35101   0.469   0.810   3.883  1.2062  0.1577  0.5191
  261MOL0     C35102   0.463   0.803   4.003 -0.7111  0.0843  0.0178
  261MOL0     O35103   0.353   0.802   4.080 -0.5732 -0.4601 -0.0116
  261MOL0     C35104   0.221   0.799   4.038  0.2872  0.8237 -0.7739
  261MOL0     C35105   0.174   0.793   3.910  0.0268 -0.4028  0.5481
  261MOL0     C35106   0.040   0.792   3.880  0.4839 -0.7598  0.6088
  261MOL0     C35107  -0.057   0.795   3.980  0.7619  0.4990  0.2797
  261MOL0     O35108  -0.189   0.804   3.940  0.7692 -0.4616 -0.1315
  261MOL0     C35109  -0.277   0.861   4.038  0.2642 -0.3488 -0.0940
  261MOL0     C35110  -0.402   0.929   3.975  0.1359 -0.5866  0.3359
  261MOL0     C35111  -0.486   0.972   4.095 -0.6525  0.0913 -0.6156
  261MOL0     C35112  -0.614   1.037   4.042  0.7074  0.5048 -0.0530
  261MOL0     C35113  -0.705   1.098   4.150  0.1111  0.3094 -0.2146
  261MOL0     C35114  -0.827   1.157   4.086  0.0214  1.1448  0.6215
  261MOL0     C35115  -0.933   1.210   4.194 -0.7404 -1.1138  0.1667
  261MOL0     C35116  -1.068   1.230   4.136  0.4364 -0.6338 -0.0305
  261MOL0     N35117  -1.164   1.287   4.221  0.2395 -0.6618  0.3423
  261MOL0     C35118  -1.215   1.229   4.337  1.1164 -0.0930 -0.7723
  261MOL0     C35119  -1.303   1.318   4.382  0.2266  0.2412 -0.5243
  261MOL0     C35120  -1.399   1.281   4.498  0.1725 -0.5036  0.2836
  261MOL0     C35121  -1.517   1.378   4.523 -0.3766  0.5838 -0.3031
  261MOL0     C35122  -1.601   1.352   4.656 -0.9116  0.5592 -0.5166
  261MOL0     C35123  -1.717   1.452   4.660 -0.6460  0.9034  0.6359
  261MOL0     O35124  -1.761   1.456   4.798 -0.4294 -0.2711  0.2293
  261MOL0     C35125  -1.868   1.528   4.833 -0.0903 -0.5747  0.3419
  261MOL0     C35126  -1.920   1.622   4.745 -0.2950  0.1627  0.2748
  261MOL0     C35127  -2.025   1.695   4.786  0.1540 -0.0552 -0.0363
  261MOL0     C35128  -2.094   1.776   4.690 -0.6081  0.2915 -0.0428
  261MOL0     C35129  -2.076   1.684   4.918  0.9643 -0.0285 -0.5562
  261MOL0     C35130  -2.210   1.743   4.956  0.0434 -0.1894  0.0486
  261MOL0     O35131  -2.290   1.659   5.023 -0.5036 -0.7306  0.2208
  261MOL0     C35132  -2.394   1.710   5.085 -0.6139 -0.5602 -0.0187
  261MOL0     C35133  -2.514   1.729   5.016  0.4792  0.6288  0.7147
  261MOL0     C35134  -2.621   1.797   5.082  0.0805 -0.5828  0.1849
  261MOL0     C35135  -2.611   1.827   5.219 -0.1462  0.5266  0.4322
  261MOL0     O35136  -2.721   1.892   5.270  0.3521 -0.8137  0.2955
  261MOL0     C35137  -2.732   1.958   5.399 -0.4890 -0.2637  0.2815
  261MOL0     C35138  -2.886   1.975   5.435 -0.3129  0.9167  0.0984
  261MOL0     C35139  -2.946   1.833   5.451 -0.2582 -0.8285 -0.1470
  261MOL0     C35140  -3.107   1.832   5.469 -0.2035  0.4608  0.0107
  261MOL0     C35141  -3.146   1.691   5.505  0.5068  0.6805  0.1945
  261MOL0     C35142  -3.278   1.694   5.594  0.3891 -0.0882 -0.6679
  261MOL0     C35143  -3.310   1.548   5.623  0.0635 -0.5768  0.2332
  261MOL0     C35144  -3.427   1.532   5.717 -0.3218  0.2751  0.7199
  261MOL0    Cl35145  -3.584   1.593   5.637  0.0241  0.0871 -0.1222
  261MOL0     C35146  -2.496   1.811   5.286 -0.8044 -0.6795  0.6401
  261MOL0     C35147  -2.386   1.748   5.220  0.4364  0.0984  0.5005
  261MOL0     O35148  -2.235   1.864   4.934  0.2789  0.2818  1.0544
  261MOL0     C35149  -2.029   1.587   5.005 -0.2780  0.2350  0.2310
  261MOL0     C35150  -1.924   1.512   4.956  0.3862  0.1253 -0.0863
  261MOL0     N35151  -1.313   1.427   4.303  0.2407 -0.1281  0.6951
  261MOL0     N35152  -1.225   1.410   4.210  0.3591 -0.1237  0.2291
  261MOL0     C35153  -0.012   0.789   4.111 -0.0398 -0.7138 -0.5209
  261MOL0     C35154   0.126   0.800   4.140  0.5851  0.2926 -0.1489
  261MOL0     C35155   0.588   0.825   4.074 -0.4296  0.2519 -0.5161
  261MOL0     C35156   0.586   0.895   4.195  0.7248 -0.9987 -0.1253
  261MOL0     C35157   0.702   0.922   4.257 -0.2431  1.0449 -0.6956
  261MOL0     C35158   0.827   0.887   4.205 -0.9267  0.4065  0.0840
  261MOL0     O35159   0.931   0.921   4.280 -0.1896  0.3922  0.1957
  261MOL0     C35160   1.076   0.920   4.244 -0.6286  0.5423 -0.0263
  261MOL0     C35161   1.119   1.048   4.166 -0.0813 -0.1247 -0.6685
  261MOL0     C35162   1.270   1.035   4.114  0.1825  0.1226  0.6472
  261MOL0     C35163   1.377   1.032   4.226  0.6861  0.2398  0.5391
  261MOL0     C35164   1.425   1.165   4.250  0.0572 -0.5736 -0.3867
  261MOL0     C35165   1.469   1.272   4.277 -0.0700  0.0074  0.3116
  261MOL0     C35166   0.831   0.816   4.085  0.1335 -0.6072  0.5067
  261MOL0     C35167   0.711   0.793   4.017  0.2358  0.1947  0.6644
  261MOL0     H35168   0.237   0.794   3.822  1.4980 -0.8936  1.5613
  261MOL0     H35169   0.003   0.811   3.780  0.1499 -0.8566  0.7124
  261MOL0     H35170  -0.301   0.778   4.105  1.8622 -0.1627  0.7683
  261MOL0     H35171  -0.223   0.936   4.097 -1.9907  0.0693  1.5869
  261MOL0     H35172  -0.377   1.009   3.904  0.4199 -1.3891 -0.4852
  261MOL0     H35173  -0.462   0.851   3.927 -2.5013  0.2581  2.0332
  261MOL0     H35174  -0.499   0.890   4.167  3.6087  1.6077  2.2923
  261MOL0     H35175  -0.432   1.051   4.149 -0.7467  0.2396 -0.7370
  261MOL0     H35176  -0.591   1.123   3.978 -0.3274  2.1223  1.6644
  261MOL0     H35177  -0.665   0.970   3.972  2.9136 -1.9959  0.5572
  261MOL0     H35178  -0.732   1.022   4.224  0.3892  1.1396  0.7568
  261MOL0     H35179  -0.655   1.172   4.214  0.0031 -1.1602  1.6658
  261MOL0     H35180  -0.802   1.233   4.012 -1.2504  0.7078 -0.3035
  261MOL0     H35181  -0.881   1.081   4.028  0.7565  0.6696  0.5557
  261MOL0     H35182  -0.944   1.142   4.278 -2.8013 -0.2807  0.6417
  261MOL0     H35183  -0.902   1.310   4.226 -0.2232 -1.5262  0.9893
  261MOL0     H35184  -1.114   1.139   4.098 -1.4073  0.7819 -1.3969
  261MOL0     H35185  -1.062   1.290   4.045 -0.1160 -1.2197 -0.4583
  261MOL0     H35186  -1.210   1.126   4.371 -0.7152 -0.0982 -0.4350
  261MOL0     H35187  -1.435   1.178   4.482  1.6878 -1.4821  2.6799
  261MOL0     H35188  -1.340   1.273   4.590 -1.7452 -1.0252  1.5348
  261MOL0     H35189  -1.592   1.362   4.444 -0.5000  0.2596 -0.1215
  261MOL0     H35190  -1.477   1.479   4.515  1.8592 -0.1668  0.6222
  261MOL0     H35191  -1.537   1.359   4.745 -0.0486  2.2959 -1.2246
  261MOL0     H35192  -1.638   1.249   4.653  2.2462 -0.7862  1.4647
  261MOL0     H35193  -1.792   1.410   4.592 -0.4767  0.9244  0.4378
  261MOL0     H35194  -1.688   1.550   4.621 -1.7010  0.6106 -0.9762
  261MOL0     H35195  -1.876   1.642   4.647  0.8265  2.5678  1.1929
  261MOL0     H35196  -2.086   1.882   4.716  2.6252  0.9672 -2.9722
  261MOL0     H35197  -2.036   1.765   4.597 -0.0621  0.9767  0.2084
  261MOL0     H35198  -2.197   1.750   4.668 -1.1069  1.0916  1.2550
  261MOL0     H35199  -2.528   1.695   4.914 -0.5087  2.2477  0.2613
  261MOL0     H35200  -2.716   1.804   5.029  0.1374  0.1467  0.1663
  261MOL0     H35201  -2.683   1.891   5.471  1.1177 -2.7351 -2.8503
  261MOL0     H35202  -2.687   2.057   5.394 -1.0563 -0.0250 -0.0282
  261MOL0     H35203  -2.896   2.026   5.531  2.2544  0.6698  0.5839
  261MOL0     H35204  -2.936   2.038   5.360  1.6726  1.7898 -0.5678
  261MOL0     H35205  -2.881   1.787   5.527  2.2138  0.0920 -1.5904
  261MOL0     H35206  -2.931   1.784   5.354  0.6149  1.0811 -1.0237
  261MOL0     H35207  -3.123   1.899   5.554 -0.0944 -0.1745  0.5401
  261MOL0     H35208  -3.164   1.865   5.381 -0.4937  0.5292  0.2208
  261MOL0     H35209  -3.070   1.647   5.571  0.4809  0.6051  0.1720
  261MOL0     H35210  -3.162   1.626   5.419  0.3260 -0.3840  1.0132
  261MOL0     H35211  -3.257   1.745   5.689  1.1408 -2.0945  0.3169
  261MOL0     H35212  -3.358   1.742   5.539 -0.3097  0.6993  0.9703
  261MOL0     H35213  -3.217   1.510   5.665  3.2156  1.7980 -3.8513
  261MOL0     H35214  -3.329   1.498   5.528 -2.8932 -0.7108  0.7923
  261MOL0     H35215  -3.406   1.587   5.810  0.0388 -0.2891  0.9788
  261MOL0     H35216  -3.446   1.430   5.752 -2.1164 -0.3424 -1.8133
  261MOL0     H35217  -2.491   1.851   5.386  0.8745  1.2179 -0.1391
  261MOL0     H35218  -2.291   1.732   5.269 -1.7928 -0.2935  5.3152
  261MOL0     H35219  -2.060   1.571   5.107 -0.2214 -2.0639 -0.0717
  261MOL0     H35220  -1.881   1.445   5.030 -0.7117  0.1456  0.5819
  261MOL0     H35221  -0.081   0.775   4.193  0.2405  2.1933  0.3049
  261MOL0     H35222   0.146   0.799   4.246 -1.0755  0.0668  0.1995
  261MOL0     H35223   0.499   0.930   4.249  0.9570  1.1814 -1.0678
  261MOL0     H35224   0.700   0.975   4.352  3.0285  0.0949  0.0452
  261MOL0     H35225   1.126   0.882   4.334 -3.9077  1.0842  2.2310
  261MOL0     H35226   1.086   0.839   4.171  0.1915 -0.2694  0.9585
  261MOL0     H35227   1.117   1.146   4.216  2.1551  1.9736 -4.2874
  261MOL0     H35228   1.050   1.059   4.081 -0.6729 -0.7091 -0.2737
  261MOL0     H35229   1.308   1.112   4.046  1.1169 -0.6560  0.2560
  261MOL0     H35230   1.266   0.934   4.071 -1.0406  1.1352 -1.7986
  261MOL0     H35231   1.463   0.969   4.198  1.1683  1.0971  0.0101
  261MOL0     H35232   1.348   0.989   4.322  0.0237  0.6568  0.5258
  261MOL0     H35233   1.518   1.355   4.323  1.8098 -1.4239  1.0326
  261MOL0     H35234   0.923   0.776   4.045 -1.1405 -2.4957 -0.6908
  261MOL0     H35235   0.725   0.741   3.923  0.4713 -0.7973  1.2356
  262MOL0     O35236   3.885   6.657   7.531  0.4095  0.3920 -0.9809
  262MOL0     C35237   3.933   6.606   7.632  0.3850 -0.3910 -0.1637
  262MOL0     O35238   3.868   6.512   7.695 -0.6665 -0.4533  0.3814
  262MOL0     C35239   3.735   6.525   7.726  0.1412  0.0008 -0.4204
  262MOL0     C35240   3.695   6.639   7.798  0.3161 -0.3785 -0.3953
  262MOL0     C35241   3.560   6.658   7.826  0.4952  0.5728 -0.2296
  262MOL0     C35242   3.457   6.561   7.800 -0.2601 -0.6215  0.3842
  262MOL0     O35243   3.323   6.584   7.812  0.2191 -0.1037  0.1217
  262MOL0     C35244   3.281   6.721   7.778 -0.2814 -0.5365 -0.0728
  262MOL0     C35245   3.132   6.736   7.748  0.0462  1.1464  0.1910
  262MOL0     C35246   3.068   6.619   7.674  0.0075  0.2252  0.2758
  262MOL0     C35247   3.152   6.592   7.544  0.5320 -0.3396  0.3002
  262MOL0     C35248   3.064   6.545   7.426  0.3324  0.6642 -0.4326
  262MOL0     C35249   3.000   6.411   7.457  0.0144 -0.0608 -0.6683
  262MOL0     C35250   3.092   6.282   7.466 -0.0266 -0.0518 -0.2281
  262MOL0     C35251   3.181   6.264   7.336  0.8431 -0.1510 -0.3123
  262MOL0     N35252   3.097   6.238   7.219  0.2043 -0.3887  0.1034
  262MOL0     C35253   3.016   6.123   7.196  0.4194 -0.1224 -0.4157
  262MOL0     C35254   2.985   6.131   7.067 -0.1196 -0.0187  0.0081
  262MOL0     C35255   2.877   6.047   7.001  0.0685  0.0420  0.0743
  262MOL0     C35256   2.743   6.039   7.076 -0.1675 -0.3935  0.3483
  262MOL0     C35257   2.653   5.924   7.035 -0.8442  0.3031 -0.1026
  262MOL0     C35258   2.580   5.941   6.906  0.1583 -0.2093 -0.1452
  262MOL0     O35259   2.478   6.045   6.924 -0.1350 -0.1622 -0.1200
  262MOL0     C35260   2.353   6.030   6.853 -0.4349 -0.6459 -0.0571
  262MOL0     C35261   2.271   5.914   6.846  0.2442  0.6044  0.2816
  262MOL0     C35262   2.129   5.927   6.814  0.0708  0.4213  0.7070
  262MOL0     C35263   2.041   5.799   6.808  0.6742  0.2514 -0.0053
  262MOL0     C35264   2.081   6.053   6.768  0.1038 -0.7704 -0.2715
  262MOL0     C35265   1.942   6.080   6.719 -0.7342  0.8871  0.0005
  262MOL0     O35266   1.930   6.196   6.645  0.2593  0.5808 -0.2499
  262MOL0     C35267   1.805   6.202   6.579  0.4265  0.2668 -0.3401
  262MOL0     C35268   1.746   6.101   6.504 -0.8664  0.5482 -1.3395
  262MOL0     C35269   1.632   6.121   6.422 -0.4771 -0.9638  0.6680
  262MOL0     C35270   1.560   6.244   6.437 -0.5291 -0.2336 -0.2424
  262MOL0     O35271   1.443   6.286   6.374  0.2854 -0.1967 -0.0403
  262MOL0     C35272   1.429   6.279   6.227  0.1078 -0.9605 -0.9039
  262MOL0     C35273   1.307   6.196   6.198  0.5050 -0.0222  0.0098
  262MOL0     C35274   1.336   6.049   6.231 -0.4901 -0.9161 -1.0473
  262MOL0     C35275   1.230   5.956   6.174 -0.5099  0.3809 -0.2456
  262MOL0     C35276   1.279   5.814   6.164 -0.3168 -0.6330  0.8219
  262MOL0     C35277   1.164   5.718   6.176  0.3931  0.3490 -0.2131
  262MOL0     C35278   1.061   5.728   6.055  0.2182 -0.0254 -0.6270
  262MOL0     C35279   0.940   5.636   6.061  0.0407 -0.3800 -0.2235
  262MOL0    Cl35280   0.991   5.464   6.076 -0.1533  0.0023 -0.6967
  262MOL0     C35281   1.621   6.341   6.515  1.3124 -0.3277  0.6324
  262MOL0     C35282   1.736   6.328   6.582 -1.2054  0.7736 -0.2379
  262MOL0     O35283   1.856   5.994   6.744 -0.2458 -0.2768  0.2887
  262MOL0     C35284   2.164   6.163   6.783 -0.2678 -0.1600  0.0380
  262MOL0     C35285   2.296   6.153   6.815 -1.0058 -1.2140 -0.6061
  262MOL0     N35286   3.051   6.243   7.010  0.2052 -0.4768  0.1777
  262MOL0     N35287   3.101   6.312   7.108  0.0015  0.0963 -0.6672
  262MOL0     C35288   3.505   6.442   7.738  0.1145  0.0423 -0.9476
  262MOL0     C35289   3.643   6.422   7.706  0.9517 -0.5692  0.1748
  262MOL0     C35290   4.064   6.654   7.668  0.1523 -1.0621 -0.1429
  262MOL0     C35291   4.106   6.658   7.801 -0.4775 -0.1180  0.1824
  262MOL0     C35292   4.236   6.705   7.832 -0.3155 -0.4477 -0.1939
  262MOL0     C35293   4.318   6.769   7.741 -0.5391 -0.9902 -0.8405
  262MOL0     O35294   4.448   6.816   7.768  0.3803 -0.5324  0.1911
  262MOL0     C35295   4.490   6.835   7.909  0.3452 -0.3055  0.1207
  262MOL0     C35296   4.614   6.927   7.922  0.0268  0.8638 -0.1599
  262MOL0     C35297   4.672   6.914   8.065 -0.1858 -0.0263  0.2120
  262MOL0     C35298   4.790   7.009   8.071  0.4650 -0.1586 -0.0359
  262MOL0     C35299   4.854   6.996   8.191 -0.3895 -0.0696 -0.5276
  262MOL0     C35300   4.908   6.992   8.305  0.1373  0.0396 -0.0232
  262MOL0     C35301   4.266   6.775   7.609 -0.9596  0.1333 -0.1607
  262MOL0     C35302   4.145   6.722   7.573 -0.1020  0.1369  0.0065
  262MOL0     H35303   3.766   6.718   7.819  0.4035 -1.2360  3.0357
  262MOL0     H35304   3.531   6.747   7.880  0.7299  1.0457 -0.8667
  262MOL0     H35305   3.304   6.766   7.875 -2.8221 -2.0190  1.3420
  262MOL0     H35306   3.343   6.767   7.701  3.3085 -1.8671  1.7518
  262MOL0     H35307   3.082   6.736   7.845 -0.7882  3.9352 -0.1656
  262MOL0     H35308   3.122   6.830   7.694 -0.1593  1.3455  0.5742
  262MOL0     H35309   3.047   6.540   7.747  0.5792  1.5942  2.0040
  262MOL0     H35310   2.966   6.647   7.650 -0.5160 -0.3784  1.6595
  262MOL0     H35311   3.217   6.675   7.515  0.9939 -1.2095 -1.3074
  262MOL0     H35312   3.223   6.512   7.568  1.2741  0.5163  1.0354
  262MOL0     H35313   2.982   6.613   7.404  1.4461  2.2327  0.0649
  262MOL0     H35314   3.130   6.534   7.339  1.0084 -0.1628  0.1634
  262MOL0     H35315   2.952   6.427   7.554 -0.5369 -1.0588 -0.7526
  262MOL0     H35316   2.922   6.398   7.381  0.4568 -0.2215 -1.1023
  262MOL0     H35317   3.159   6.302   7.551  0.4713 -2.7246  0.1312
  262MOL0     H35318   3.031   6.192   7.483  1.8001 -1.6612 -1.6737
  262MOL0     H35319   3.244   6.175   7.348 -0.3300 -1.6882 -4.0166
  262MOL0     H35320   3.240   6.355   7.322  1.4791 -0.7458 -1.7353
  262MOL0     H35321   2.985   6.048   7.269  0.4984 -0.0465 -0.3041
  262MOL0     H35322   2.854   6.075   6.898 -0.0037  0.4227  0.1929
  262MOL0     H35323   2.922   5.947   7.000 -0.6827 -0.3024 -0.4431
  262MOL0     H35324   2.695   6.137   7.065 -1.0810 -0.8189  0.4984
  262MOL0     H35325   2.769   6.039   7.182  1.4729  2.9966  0.0882
  262MOL0     H35326   2.578   5.924   7.114 -0.2678 -2.7825  0.5605
  262MOL0     H35327   2.702   5.827   7.032 -1.1192  0.1518  0.2571
  262MOL0     H35328   2.528   5.851   6.874  1.0138 -0.7626 -0.0227
  262MOL0     H35329   2.646   5.968   6.823 -0.5876  0.9407 -0.3918
  262MOL0     H35330   2.320   5.823   6.879  2.2989  0.7412 -2.1263
  262MOL0     H35331   2.005   5.788   6.705 -2.2958  0.6625  0.9041
  262MOL0     H35332   2.099   5.711   6.836  1.8077  1.0208  0.1698
  262MOL0     H35333   1.956   5.802   6.876  1.1920  2.8466  0.6334
  262MOL0     H35334   1.799   6.008   6.517  1.1627  1.6807 -0.9789
  262MOL0     H35335   1.604   6.044   6.351 -2.5050 -0.6208  1.0333
  262MOL0     H35336   1.428   6.374   6.174  0.6164 -1.1503 -1.2600
  262MOL0     H35337   1.527   6.240   6.197 -0.8773 -2.8846 -1.8331
  262MOL0     H35338   1.219   6.239   6.247  0.8754  3.0638 -1.8022
  262MOL0     H35339   1.283   6.204   6.092 -0.4904  1.4713  0.3298
  262MOL0     H35340   1.354   6.034   6.338  2.3113 -2.7089 -1.6758
  262MOL0     H35341   1.430   6.017   6.185  0.7176 -0.4453  0.9692
  262MOL0     H35342   1.139   5.966   6.233 -0.2873  0.3963  0.0960
  262MOL0     H35343   1.213   5.995   6.073  1.2126  1.3274 -0.2189
  262MOL0     H35344   1.354   5.796   6.241 -0.7706  1.4907  1.8505
  262MOL0     H35345   1.328   5.808   6.066 -0.8256  1.2083  0.4043
  262MOL0     H35346   1.218   5.622   6.170  1.2383  0.8903 -1.6388
  262MOL0     H35347   1.115   5.737   6.272  0.8763 -1.8008  0.5221
  262MOL0     H35348   1.130   5.707   5.973  0.4343 -0.0520 -0.4391
  262MOL0     H35349   1.021   5.829   6.042 -0.0541  0.0604  0.6819
  262MOL0     H35350   0.889   5.646   5.965 -0.3249  1.0921  0.1008
  262MOL0     H35351   0.874   5.664   6.143  1.5264  4.3923 -0.3100
  262MOL0     H35352   1.574   6.438   6.515  0.7752 -0.4931 -2.4132
  262MOL0     H35353   1.802   6.404   6.621  0.8606  0.7451 -3.3533
  262MOL0     H35354   2.133   6.256   6.736  0.3512 -1.2351 -2.7239
  262MOL0     H35355   2.352   6.244   6.836 -1.2618 -1.3676  0.8911
  262MOL0     H35356   3.421   6.374   7.724 -1.1015  1.7184 -2.3204
  262MOL0     H35357   3.670   6.323   7.672  2.8211 -0.1652  0.3693
  262MOL0     H35358   4.049   6.613   7.882 -0.8925  0.4298  0.2042
  262MOL0     H35359   4.268   6.693   7.935 -1.9868 -0.8458  0.3099
  262MOL0     H35360   4.413   6.888   7.967 -1.5411 -1.1614 -1.4660
  262MOL0     H35361   4.527   6.741   7.949  1.8389 -0.2696 -1.1070
  262MOL0     H35362   4.583   7.030   7.903 -0.7904  0.4271 -1.2713
  262MOL0     H35363   4.686   6.903   7.843 -0.3716 -1.1970  0.0363
  262MOL0     H35364   4.701   6.811   8.090  2.4444  0.9826  1.7819
  262MOL0     H35365   4.599   6.951   8.137 -0.4725  4.2302 -1.9767
  262MOL0     H35366   4.745   7.108   8.061  1.7659  0.3891 -0.6732
  262MOL0     H35367   4.859   6.985   7.990  1.2127 -5.1421  1.7607
  262MOL0     H35368   4.963   6.994   8.397  2.5171 -2.6216 -1.2357
  262MOL0     H35369   4.330   6.818   7.532  0.6138 -0.3327  0.8359
  262MOL0     H35370   4.125   6.720   7.467 -2.7014  2.4073  0.3239
  263MOL0     O35371   5.259   9.706   8.396 -0.2078  0.4679  0.5394
  263MOL0     C35372   5.313   9.809   8.402 -0.2069 -0.6364  0.0461
  263MOL0     O35373   5.253   9.934   8.388  0.3944 -0.3260 -0.9961
  263MOL0     C35374   5.129   9.943   8.326  0.6056  0.5878  0.5212
  263MOL0     C35375   5.018   9.979   8.399 -0.1845  1.0794  0.5358
  263MOL0     C35376   4.890   9.995   8.333 -0.4919 -0.3547 -1.1705
  263MOL0     C35377   4.874   9.962   8.199  0.1652  0.6633  0.2618
  263MOL0     O35378   4.752   9.972   8.136 -0.4527  0.1412 -0.8385
  263MOL0     C35379   4.716  10.107   8.109 -0.2642  0.9641  0.1581
  263MOL0     C35380   4.567  10.128   8.076 -0.0329  0.1781  0.4781
  263MOL0     C35381   4.554  10.118   7.923 -0.6740  1.2069 -0.4710
  263MOL0     C35382   4.420  10.158   7.866 -0.3124 -0.3748 -0.8654
  263MOL0     C35383   4.325  10.048   7.880  1.0281  0.2144  0.1121
  263MOL0     C35384   4.174  10.099   7.876 -0.0987 -0.6295 -0.5558
  263MOL0     C35385   4.075   9.988   7.904 -0.1961  0.5482 -0.2230
  263MOL0     C35386   3.949  10.031   7.985  0.4229  0.3996  0.1983
  263MOL0     N35387   3.853  10.091   7.892 -0.1696 -1.4457 -0.4923
  263MOL0     C35388   3.735  10.035   7.851 -0.2967 -0.2069 -0.7129
  263MOL0     C35389   3.657  10.117   7.787 -1.2685 -0.4074 -0.0624
  263MOL0     C35390   3.515  10.088   7.754 -0.6776 -0.9006  0.6597
  263MOL0     C35391   3.428  10.119   7.866 -0.4282 -0.0795  0.0242
  263MOL0     C35392   3.292  10.156   7.821  0.3970 -0.2489  0.0812
  263MOL0     C35393   3.177  10.150   7.922  0.5821 -0.0692  0.5639
  263MOL0     O35394   3.047  10.173   7.862  0.2350  0.1102  0.0312
  263MOL0     C35395   2.941  10.183   7.949  0.4587  0.8515  0.0129
  263MOL0     C35396   2.950  10.205   8.086 -0.5476 -0.4745  0.0455
  263MOL0     C35397   2.843  10.194   8.164  0.1684  0.2518  0.1540
  263MOL0     C35398   2.856  10.211   8.314  0.0392  0.4787  0.6584
  263MOL0     C35399   2.711  10.175   8.109  1.6121 -0.6974  0.6273
  263MOL0     C35400   2.574  10.161   8.187 -0.0546 -0.6483  1.0069
  263MOL0     O35401   2.496  10.056   8.177  0.1932 -0.3154 -0.0913
  263MOL0     C35402   2.370  10.063   8.227 -1.0817 -0.9863  0.2466
  263MOL0     C35403   2.263  10.066   8.135 -0.7603 -0.6004 -0.2159
  263MOL0     C35404   2.134  10.066   8.178 -0.0055  1.2116 -0.1136
  263MOL0     C35405   2.112  10.063   8.316  1.3322 -0.5382 -0.3840
  263MOL0     O35406   1.990  10.071   8.380  0.1523 -0.1662  0.8432
  263MOL0     C35407   1.867  10.094   8.298  0.6518 -1.4253  0.5059
  263MOL0     C35408   1.752  10.126   8.391 -1.2169 -0.3559 -0.0043
  263MOL0     C35409   1.616  10.101   8.323  1.1537  0.6148 -0.0549
  263MOL0     C35410   1.501  10.136   8.422  0.7547  1.1863  0.2270
  263MOL0     C35411   1.476  10.292   8.427 -0.4156 -0.0488  0.4564
  263MOL0     C35412   1.363  10.331   8.519  0.1802 -0.1776  0.7253
  263MOL0     C35413   1.410  10.360   8.658 -0.3822 -0.2146 -0.3787
  263MOL0     C35414   1.304  10.444   8.733  0.6456  0.3675  0.1360
  263MOL0    Cl35415   1.351  10.508   8.893  0.2338  0.2401  0.4137
  263MOL0     C35416   2.217  10.055   8.406  0.2597 -0.5085 -0.3284
  263MOL0     C35417   2.345  10.058   8.358 -0.1412 -0.5427 -0.0974
  263MOL0     O35418   2.543  10.256   8.254 -0.0811 -0.5448 -0.4432
  263MOL0     C35419   2.699  10.159   7.968 -0.3382 -0.0743 -1.2717
  263MOL0     C35420   2.816  10.161   7.894 -0.6897  0.3324  0.8998
  263MOL0     N35421   3.733  10.238   7.780  0.2625 -0.4439  0.2333
  263MOL0     N35422   3.848  10.221   7.842  0.0882  0.1752  0.3477
  263MOL0     C35423   4.982   9.928   8.125  0.0867  0.4421 -0.2356
  263MOL0     C35424   5.111   9.915   8.182 -0.1538 -0.4317 -0.4099
  263MOL0     C35425   5.464   9.815   8.392 -0.0900  0.4340 -1.1361
  263MOL0     C35426   5.539   9.922   8.439 -0.4510  0.3789  0.7876
  263MOL0     C35427   5.681   9.916   8.450 -0.6702  0.1560 -0.2889
  263MOL0     C35428   5.752   9.800   8.414  0.6504  0.0461 -0.6695
  263MOL0     O35429   5.885   9.787   8.408  0.5040  1.0012 -0.0454
  263MOL0     C35430   5.967   9.895   8.446  0.0518  0.1005  0.1095
  263MOL0     C35431   6.117   9.875   8.422  0.0996  0.8282  0.0707
  263MOL0     C35432   6.155   9.753   8.499 -0.1317 -0.1264  0.1097
  263MOL0     C35433   6.305   9.744   8.529  0.7097  0.4954  0.3249
  263MOL0     C35434   6.347   9.853   8.621 -0.3879  1.2789  0.8610
  263MOL0     C35435   6.389   9.955   8.680  0.0506 -0.1990 -0.2483
  263MOL0     C35436   5.676   9.698   8.360  0.1101  0.0757  0.1385
  263MOL0     C35437   5.532   9.705   8.357  0.1352 -0.1444 -0.1044
  263MOL0     H35438   5.031   9.989   8.506 -2.5581  2.1950  0.7937
  263MOL0     H35439   4.803  10.023   8.392  1.8693  0.7060  2.0761
  263MOL0     H35440   4.750  10.168   8.194  0.1095 -2.3057  2.5370
  263MOL0     H35441   4.779  10.128   8.022  1.1450  0.3274  0.9936
  263MOL0     H35442   4.506  10.055   8.130 -0.1470 -1.2348 -1.4306
  263MOL0     H35443   4.538  10.228   8.110 -3.7082 -0.9153  1.0899
  263MOL0     H35444   4.627  10.182   7.872 -0.8735  0.6313 -1.5021
  263MOL0     H35445   4.579  10.017   7.889  1.3320  1.3628  0.3494
  263MOL0     H35446   4.389  10.252   7.913 -1.2172 -0.5469 -1.1068
  263MOL0     H35447   4.426  10.175   7.758 -1.6360  0.1969 -0.8590
  263MOL0     H35448   4.343   9.981   7.795  0.8495  0.9750 -0.5372
  263MOL0     H35449   4.339   9.996   7.975  0.0735  2.3672  1.5183
  263MOL0     H35450   4.165  10.180   7.949  0.4993 -0.5974 -0.5122
  263MOL0     H35451   4.159  10.138   7.775  0.7907  1.3844  0.0202
  263MOL0     H35452   4.033   9.947   7.812  0.4426 -0.7362  0.0485
  263MOL0     H35453   4.114   9.896   7.947 -2.2199 -1.0394 -1.6164
  263MOL0     H35454   3.971  10.097   8.069  2.1395  0.0610  0.0526
  263MOL0     H35455   3.907   9.941   8.032 -1.3698  2.0090  1.8520
  263MOL0     H35456   3.701   9.936   7.882 -1.6530 -0.3770 -2.6121
  263MOL0     H35457   3.495  10.162   7.676  1.1431 -1.4184 -0.3448
  263MOL0     H35458   3.495   9.992   7.706 -0.2812 -0.3844 -0.5822
  263MOL0     H35459   3.468  10.204   7.921  0.1976  1.3648 -2.5050
  263MOL0     H35460   3.406  10.034   7.931 -0.8450 -1.0449 -1.3187
  263MOL0     H35461   3.262  10.101   7.731 -1.0867  0.2489  0.2530
  263MOL0     H35462   3.298  10.261   7.792 -0.2009 -0.5892 -1.4003
  263MOL0     H35463   3.189  10.229   7.997 -0.2627  0.4534  0.1536
  263MOL0     H35464   3.188  10.053   7.972  3.8831  0.9702  2.1394
  263MOL0     H35465   3.043  10.221   8.139 -0.8971 -3.0612  1.5945
  263MOL0     H35466   2.821  10.310   8.343 -0.8498  1.0273 -1.9940
  263MOL0     H35467   2.806  10.135   8.375  0.1777  0.1768  0.4001
  263MOL0     H35468   2.962  10.206   8.342  0.3929  0.7631 -0.5622
  263MOL0     H35469   2.279  10.080   8.029 -2.8592  0.3050 -0.4730
  263MOL0     H35470   2.065  10.069   8.095 -0.2143 -1.6491 -0.1186
  263MOL0     H35471   1.887  10.175   8.228 -0.1218 -0.1634  1.7010
  263MOL0     H35472   1.840  10.004   8.242 -0.6514  0.2222 -1.6576
  263MOL0     H35473   1.761  10.052   8.471  1.3732 -1.6247 -1.3458
  263MOL0     H35474   1.781  10.229   8.417  0.6613  0.3175 -3.9691
  263MOL0     H35475   1.617   9.997   8.290  1.0842  0.7239 -0.3998
  263MOL0     H35476   1.596  10.144   8.225  3.5999 -0.3510 -1.0496
  263MOL0     H35477   1.411  10.082   8.390 -0.6324  3.7609 -0.4571
  263MOL0     H35478   1.528  10.099   8.521  1.9033  1.1816 -0.0680
  263MOL0     H35479   1.455  10.326   8.326 -2.4098 -0.3122  0.7434
  263MOL0     H35480   1.564  10.355   8.445  0.9294 -1.1738 -1.7249
  263MOL0     H35481   1.325  10.429   8.489 -1.5464 -0.8210  0.6733
  263MOL0     H35482   1.283  10.257   8.508 -1.0996  1.2002  0.3049
  263MOL0     H35483   1.507  10.411   8.659  0.0700 -0.9569 -2.3222
  263MOL0     H35484   1.418  10.265   8.711  0.7232 -0.4825 -0.9994
  263MOL0     H35485   1.212  10.385   8.739  0.8279  0.1969  1.6149
  263MOL0     H35486   1.276  10.529   8.671 -1.4128  1.2598  2.1589
  263MOL0     H35487   2.208  10.062   8.514  0.1717 -0.1451 -0.3590
  263MOL0     H35488   2.428  10.058   8.428 -1.0805 -0.4798  1.0498
  263MOL0     H35489   2.610  10.131   7.913  0.3461 -2.4690 -1.2557
  263MOL0     H35490   2.796  10.155   7.788 -2.3504  1.8507  1.0720
  263MOL0     H35491   4.961   9.905   8.021 -0.0921 -1.3448  0.1732
  263MOL0     H35492   5.198   9.891   8.122 -1.5757 -2.0234 -1.9561
  263MOL0     H35493   5.507  10.015   8.486  2.5395  1.6718  0.5342
  263MOL0     H35494   5.733  10.003   8.488 -2.8253  1.6755 -0.6398
  263MOL0     H35495   5.930   9.979   8.386 -0.5784  0.6736  1.2587
  263MOL0     H35496   5.944   9.933   8.546  1.2122  0.8066  0.1176
  263MOL0     H35497   6.175   9.963   8.452  1.0959  0.6016 -1.0975
  263MOL0     H35498   6.133   9.849   8.317 -0.7373 -0.8187  0.3184
  263MOL0     H35499   6.137   9.667   8.434  1.8165 -0.7829  0.3898
  263MOL0     H35500   6.099   9.744   8.593  1.0099  2.2407  1.1049
  263MOL0     H35501   6.366   9.752   8.438  0.0426 -1.5830 -0.3723
  263MOL0     H35502   6.326   9.646   8.573  0.4031  1.1805  2.0555
  263MOL0     H35503   6.407  10.048   8.731 -2.7626 -0.9660  2.4445
  263MOL0     H35504   5.731   9.611   8.325  2.5634  1.1060  1.2079
  263MOL0     H35505   5.475   9.618   8.327 -0.0106 -0.4205  0.9641
  264MOL0     O35506   9.862   2.753   0.052 -0.5651 -0.4701  0.1780
  264MOL0     C35507   9.865   2.861   0.112  0.3379 -0.3103 -0.6969
  264MOL0     O35508   9.764   2.955   0.114  0.7744  0.0404 -0.1001
  264MOL0     C35509   9.646   2.940   0.041 -0.5940 -1.0233  0.6659
  264MOL0     C35510   9.526   2.984   0.096  0.5909  0.3160 -0.4287
  264MOL0     C35511   9.413   2.979   0.009 -0.4433  0.4524 -0.1336
  264MOL0     C35512   9.412   2.935  -0.122  0.3106  0.5887 -0.1035
  264MOL0     O35513   9.285   2.920  -0.178 -0.2330 -0.0750 -0.6581
  264MOL0     C35514   9.281   2.824  -0.283 -0.4178  0.7336 -0.3482
  264MOL0     C35515   9.147   2.769  -0.303  0.1427  0.0903 -0.3121
  264MOL0     C35516   9.098   2.695  -0.178  0.8325 -0.6619  0.1353
  264MOL0     C35517   9.000   2.575  -0.198  0.2551  0.5428  1.1902
  264MOL0     C35518   8.934   2.529  -0.072  0.3184  0.5617  0.2693
  264MOL0     C35519   8.882   2.386  -0.073  0.2670  0.5462 -0.0298
  264MOL0     C35520   8.794   2.346   0.049  1.3029  0.0889 -0.4946
  264MOL0     C35521   8.701   2.224   0.011 -0.2538  0.2748 -0.4579
  264MOL0     N35522   8.629   2.167   0.128 -1.5351  0.2404  0.3458
  264MOL0     C35523   8.495   2.166   0.142  0.1990 -0.0535  0.6283
  264MOL0     C35524   8.468   2.101   0.257 -0.3368 -0.4958  0.7378
  264MOL0     C35525   8.332   2.081   0.324  0.6898 -0.4276 -0.2116
  264MOL0     C35526   8.362   2.060   0.476  0.7901  0.6902 -0.0092
  264MOL0     C35527   8.244   2.005   0.567 -0.5950 -0.1938  0.5682
  264MOL0     C35528   8.113   2.073   0.551  0.7212 -0.4878  0.3769
  264MOL0     O35529   8.021   2.022   0.651 -0.4066 -0.3017 -0.0576
  264MOL0     C35530   7.888   2.064   0.666  0.2327 -0.4929 -0.0557
  264MOL0     C35531   7.813   2.007   0.765  0.6580 -0.5432  0.5837
  264MOL0     C35532   7.679   2.036   0.785 -0.6345 -0.6525  0.1216
  264MOL0     C35533   7.612   1.966   0.895 -0.1695  0.0753 -0.4700
  264MOL0     C35534   7.617   2.127   0.705 -0.4104 -1.2727 -0.8553
  264MOL0     C35535   7.477   2.184   0.723 -0.2183  0.3400  0.3286
  264MOL0     O35536   7.415   2.236   0.619  0.2741 -0.1089 -0.5895
  264MOL0     C35537   7.286   2.273   0.644 -0.2759 -0.3305 -0.0776
  264MOL0     C35538   7.248   2.390   0.720  0.1659  0.2678  0.3301
  264MOL0     C35539   7.112   2.418   0.731 -0.2416  0.9768  0.6731
  264MOL0     C35540   7.019   2.336   0.672 -0.3688  0.0906 -0.4593
  264MOL0     O35541   6.893   2.386   0.672 -0.5064 -0.6507  0.7514
  264MOL0     C35542   6.814   2.342   0.557  0.5542  1.0849  0.2034
  264MOL0     C35543   6.680   2.430   0.555  0.5077 -0.0412  1.0917
  264MOL0     C35544   6.729   2.578   0.563  0.7470  0.4556 -0.2839
  264MOL0     C35545   6.632   2.661   0.470 -0.2308 -0.2992 -0.5389
  264MOL0     C35546   6.681   2.804   0.463  0.0915  0.4716  0.6839
  264MOL0     C35547   6.583   2.898   0.381 -0.2851 -0.1620  0.7877
  264MOL0     C35548   6.647   3.032   0.343 -0.4454  0.3819  0.2696
  264MOL0     C35549   6.677   3.118   0.468 -0.2199  0.1031 -0.3375
  264MOL0    Cl35550   6.542   3.201   0.512  0.1214 -0.2427 -0.5991
  264MOL0     C35551   7.062   2.222   0.601  0.2233 -0.3771 -0.1603
  264MOL0     C35552   7.197   2.194   0.585  0.5513  0.0967  0.3862
  264MOL0     O35553   7.444   2.207   0.840 -0.0174  0.0111  0.3943
  264MOL0     C35554   7.687   2.175   0.594  0.0738 -0.1496  0.3820
  264MOL0     C35555   7.826   2.148   0.575  0.5092  0.7900  0.4045
  264MOL0     N35556   8.596   2.063   0.306 -0.0923  1.2012  0.1916
  264MOL0     N35557   8.686   2.107   0.232 -0.6845  0.3648  0.0668
  264MOL0     C35558   9.542   2.906  -0.175 -0.0532 -0.1504  0.5170
  264MOL0     C35559   9.657   2.914  -0.101  0.5973  0.0994  0.3155
  264MOL0     C35560   9.988   2.891   0.190 -0.5192 -0.3230 -0.2662
  264MOL0     C35561  10.036   3.027   0.212  0.0385  0.1240 -0.1523
  264MOL0     C35562  10.148   3.049   0.294 -0.1100 -0.3356  0.6230
  264MOL0     C35563  10.211   2.937   0.358 -0.2367 -0.4430  0.7859
  264MOL0     O35564  10.317   2.960   0.433 -1.1372 -0.0450 -0.0529
  264MOL0     C35565  10.434   2.986   0.361  0.8044 -0.0398  0.4379
  264MOL0     C35566  10.556   2.903   0.398  0.1994 -0.4041  0.5074
  264MOL0     C35567  10.620   2.951   0.532  0.8800 -1.0376 -0.1073
  264MOL0     C35568  10.711   2.850   0.604 -0.4715  0.0874 -0.7107
  264MOL0     C35569  10.639   2.724   0.638 -0.1623  1.0763 -0.0778
  264MOL0     C35570  10.566   2.634   0.656 -0.4496  0.6010  0.1282
  264MOL0     C35571  10.153   2.807   0.346 -1.2554 -0.2438  0.0724
  264MOL0     C35572  10.052   2.783   0.262  0.6667  0.4594  0.3427
  264MOL0     H35573   9.519   3.025   0.196 -0.2669  1.0453 -0.7682
  264MOL0     H35574   9.321   3.006   0.059  0.5188  2.0997  0.8694
  264MOL0     H35575   9.319   2.864  -0.377  2.5140  0.8276  0.7743
  264MOL0     H35576   9.343   2.740  -0.249 -2.0278  0.0396  1.0828
  264MOL0     H35577   9.085   2.857  -0.322 -0.3807 -0.4419 -1.1180
  264MOL0     H35578   9.146   2.690  -0.379  0.0663 -0.8916  0.6796
  264MOL0     H35579   9.186   2.665  -0.120  1.5573 -0.4440 -0.8275
  264MOL0     H35580   9.046   2.773  -0.122  0.5438  0.7589 -1.9839
  264MOL0     H35581   8.938   2.609  -0.282  0.1892  0.1826  1.0899
  264MOL0     H35582   9.051   2.492  -0.248 -2.8531 -0.5969 -0.3204
  264MOL0     H35583   9.012   2.539   0.004  2.8183 -0.9751 -1.9354
  264MOL0     H35584   8.851   2.598  -0.053 -0.0995  0.7014 -1.7922
  264MOL0     H35585   8.807   2.389  -0.153  1.0508  0.7911 -0.7691
  264MOL0     H35586   8.951   2.306  -0.100 -0.6345 -0.3496  0.2386
  264MOL0     H35587   8.858   2.306   0.128 -1.4593 -1.7861  0.9532
  264MOL0     H35588   8.739   2.429   0.096  0.7653  0.0233 -0.9907
  264MOL0     H35589   8.756   2.143  -0.039  1.4766  1.2104 -0.1321
  264MOL0     H35590   8.621   2.249  -0.059 -1.4214  2.7853  1.6307
  264MOL0     H35591   8.413   2.205   0.082 -1.0470 -2.2461  0.8077
  264MOL0     H35592   8.286   2.179   0.308  3.9375  1.5888  1.5990
  264MOL0     H35593   8.287   1.996   0.273  0.8639 -1.0508  0.6531
  264MOL0     H35594   8.399   2.154   0.519  2.4178  1.5045 -2.9102
  264MOL0     H35595   8.443   1.988   0.492 -0.1927 -0.4131  0.1308
  264MOL0     H35596   8.277   2.022   0.670 -4.3190  2.9477  1.5043
  264MOL0     H35597   8.228   1.899   0.546 -3.4537  0.4510 -1.0432
  264MOL0     H35598   8.070   2.064   0.451 -0.5321  1.9082  0.6086
  264MOL0     H35599   8.130   2.180   0.563  2.2251 -0.5922 -0.6726
  264MOL0     H35600   7.866   1.939   0.831  1.2270 -1.8949 -1.2160
  264MOL0     H35601   7.604   2.023   0.988  1.6100  0.2218 -0.3676
  264MOL0     H35602   7.520   1.933   0.847 -0.0479 -0.2249 -0.4991
  264MOL0     H35603   7.672   1.878   0.918  0.3016  0.8201  1.3179
  264MOL0     H35604   7.322   2.439   0.781  0.1992 -0.7589  1.1613
  264MOL0     H35605   7.082   2.503   0.792 -1.4924  0.5579  0.6814
  264MOL0     H35606   6.865   2.354   0.461 -0.6086 -1.8633 -0.8906
  264MOL0     H35607   6.791   2.237   0.575  0.4901  0.7440 -1.6917
  264MOL0     H35608   6.623   2.407   0.465 -0.4226 -1.0017  1.8987
  264MOL0     H35609   6.614   2.408   0.640 -1.0005 -0.6517 -0.2039
  264MOL0     H35610   6.829   2.596   0.522  0.6491  1.1768 -0.2236
  264MOL0     H35611   6.740   2.622   0.663  0.6835 -0.9098  0.3347
  264MOL0     H35612   6.620   2.612   0.373 -1.7456  2.3400 -1.7749
  264MOL0     H35613   6.531   2.666   0.511 -0.3298 -2.0031 -0.4932
  264MOL0     H35614   6.780   2.814   0.417  0.3952 -0.8189  0.9932
  264MOL0     H35615   6.689   2.840   0.566  1.4848  0.8959  0.4516
  264MOL0     H35616   6.556   2.848   0.288  0.9135  0.9567 -0.2049
  264MOL0     H35617   6.493   2.923   0.437 -0.2681  0.3333  0.6028
  264MOL0     H35618   6.583   3.102   0.288 -0.8293  2.0498  2.6741
  264MOL0     H35619   6.744   3.016   0.294  0.5291 -0.8883  2.4846
  264MOL0     H35620   6.752   3.186   0.426 -0.4867  0.5904 -0.0270
  264MOL0     H35621   6.713   3.063   0.556 -1.0488 -0.9473 -0.6336
  264MOL0     H35622   6.991   2.165   0.542  1.1884  0.3011 -2.0577
  264MOL0     H35623   7.229   2.114   0.519  1.7647  0.3967  0.5922
  264MOL0     H35624   7.643   2.233   0.513  0.3432 -2.3992 -1.4825
  264MOL0     H35625   7.871   2.183   0.482 -1.8410 -0.9575 -1.5224
  264MOL0     H35626   9.564   2.885  -0.279  0.3779 -1.4965  0.8491
  264MOL0     H35627   9.755   2.913  -0.149  0.2651  2.2056 -0.4911
  264MOL0     H35628   9.985   3.113   0.171 -0.6331 -0.2135 -0.0527
  264MOL0     H35629  10.178   3.151   0.312  1.0385 -0.4243 -0.6111
  264MOL0     H35630  10.416   2.980   0.254 -0.5880  0.7637  0.6069
  264MOL0     H35631  10.449   3.093   0.381  1.2780 -0.5478  3.2444
  264MOL0     H35632  10.630   2.918   0.319 -0.7445 -0.4159 -0.4034
  264MOL0     H35633  10.533   2.797   0.390 -0.1674 -0.2563 -0.4683
  264MOL0     H35634  10.547   2.985   0.607  3.1589 -0.8729  2.1711
  264MOL0     H35635  10.682   3.036   0.501 -0.1813 -0.6173 -1.1720
  264MOL0     H35636  10.758   2.896   0.692 -2.8080  1.6682 -0.2041
  264MOL0     H35637  10.790   2.823   0.534  1.5948 -0.9746  1.8359
  264MOL0     H35638  10.485   2.564   0.666  1.3295 -1.4524  0.9028
  264MOL0     H35639  10.207   2.719   0.381  0.5369  0.7540 -0.0699
  264MOL0     H35640  10.022   2.678   0.260 -0.5510  0.8050  0.1128
  265MOL0     O35641   0.327   4.494   0.945 -0.5760  0.1067  0.6977
  265MOL0     C35642   0.235   4.565   0.983 -0.2629 -0.4465 -0.1188
  265MOL0     O35643   0.232   4.700   0.968  0.4511 -0.1065  0.3872
  265MOL0     C35644   0.330   4.773   0.902  1.0165  0.5115  0.0836
  265MOL0     C35645   0.300   4.869   0.806 -0.5978  0.3462 -0.3194
  265MOL0     C35646   0.400   4.940   0.741 -1.0378  0.0745 -0.0644
  265MOL0     C35647   0.535   4.912   0.774  0.5454 -0.9232  0.1636
  265MOL0     O35648   0.630   4.991   0.704 -0.1369  0.3336 -0.5029
  265MOL0     C35649   0.714   4.904   0.619  0.5683  0.7003  0.4706
  265MOL0     C35650   0.812   4.986   0.537 -0.0308 -0.3754  0.4039
  265MOL0     C35651   0.744   5.085   0.447  0.1293  0.4320  0.2141
  265MOL0     C35652   0.735   5.224   0.511  0.0865 -0.0609 -0.1194
  265MOL0     C35653   0.644   5.316   0.439  0.8671  0.0493 -0.2216
  265MOL0     C35654   0.594   5.441   0.514 -0.1125 -0.2127  0.3110
  265MOL0     C35655   0.488   5.418   0.624  0.3848 -1.2637  0.0736
  265MOL0     C35656   0.459   5.556   0.694  0.2935  0.4338  0.7722
  265MOL0     N35657   0.356   5.556   0.796  0.3592  0.1954  0.5163
  265MOL0     C35658   0.374   5.573   0.934  0.2396  0.2168  1.1475
  265MOL0     C35659   0.250   5.561   0.987 -1.2565  0.3924  0.1084
  265MOL0     C35660   0.226   5.581   1.132  0.5281  0.7917 -0.6933
  265MOL0     C35661   0.247   5.717   1.207 -0.1420  0.1665 -0.8474
  265MOL0     C35662   0.194   5.842   1.133 -0.3544 -0.0426  0.8534
  265MOL0     C35663   0.045   5.857   1.139  0.1919  0.0123 -0.4593
  265MOL0     O35664   0.011   5.936   1.248 -0.7173  0.1072  0.0041
  265MOL0     C35665  -0.097   6.018   1.252  0.4750 -0.4545  0.0967
  265MOL0     C35666  -0.092   6.150   1.299 -0.5931  0.6000  0.1200
  265MOL0     C35667  -0.206   6.230   1.324  0.8260  0.2939 -0.0432
  265MOL0     C35668  -0.184   6.369   1.360 -0.1852  0.1082 -0.2418
  265MOL0     C35669  -0.340   6.164   1.314 -0.2779 -0.5230  0.3105
  265MOL0     C35670  -0.470   6.225   1.355  0.1578  0.4368 -0.0213
  265MOL0     O35671  -0.577   6.171   1.287  0.1491 -0.0949 -0.1206
  265MOL0     C35672  -0.705   6.215   1.314  0.0683 -0.4232  0.1819
  265MOL0     C35673  -0.751   6.343   1.287  0.3715 -0.6752 -0.2177
  265MOL0     C35674  -0.874   6.387   1.316  0.3760 -0.0724  1.0232
  265MOL0     C35675  -0.973   6.288   1.364 -0.8335  0.0442 -0.1249
  265MOL0     O35676  -1.097   6.314   1.417 -0.3659 -0.1255  0.4312
  265MOL0     C35677  -1.142   6.451   1.381  0.0927  0.7362  0.2666
  265MOL0     C35678  -1.281   6.466   1.414  0.9619  0.2146  0.5328
  265MOL0     C35679  -1.313   6.469   1.566 -0.6131 -0.3073 -0.6162
  265MOL0     C35680  -1.373   6.331   1.617  0.2513 -0.1481 -0.5632
  265MOL0     C35681  -1.372   6.304   1.766  0.2699  0.5214 -0.3031
  265MOL0     C35682  -1.482   6.202   1.793  0.0162  0.5950 -0.3768
  265MOL0     C35683  -1.484   6.143   1.937  0.0957  0.0325  0.1479
  265MOL0     C35684  -1.355   6.081   1.980 -0.1860  1.1543 -0.0415
  265MOL0    Cl35685  -1.265   5.995   1.851 -0.4107 -0.1907  0.0281
  265MOL0     C35686  -0.933   6.149   1.374  0.2757 -0.7342 -0.2335
  265MOL0     C35687  -0.801   6.118   1.347 -0.0893 -0.3272 -0.0509
  265MOL0     O35688  -0.476   6.304   1.450  0.1991 -0.2246  0.1336
  265MOL0     C35689  -0.342   6.030   1.264 -0.3269 -0.1904  0.4758
  265MOL0     C35690  -0.227   5.961   1.223 -0.4492 -0.3775  0.2657
  265MOL0     N35691   0.161   5.540   0.887  1.0076  0.2326 -0.3533
  265MOL0     N35692   0.222   5.534   0.767 -0.1513 -0.8489 -0.9817
  265MOL0     C35693   0.571   4.822   0.866  0.3587 -0.3434 -0.6151
  265MOL0     C35694   0.466   4.754   0.929  0.1883  0.2217 -0.6431
  265MOL0     C35695   0.140   4.493   1.070 -0.1345 -0.4917  0.6096
  265MOL0     C35696   0.053   4.564   1.146  0.5559  0.1979  0.1308
  265MOL0     C35697  -0.048   4.505   1.223  0.2534  0.3714  0.1375
  265MOL0     C35698  -0.060   4.364   1.247 -0.0248 -0.0128  0.4365
  265MOL0     O35699  -0.140   4.313   1.337  0.5447 -0.1086  0.3932
  265MOL0     C35700  -0.188   4.174   1.328  0.5189 -0.3039 -0.2147
  265MOL0     C35701  -0.280   4.139   1.448 -0.2935 -0.1138 -0.7490
  265MOL0     C35702  -0.400   4.054   1.407  0.6345  0.0529  0.0261
  265MOL0     C35703  -0.521   4.061   1.496  0.6545 -0.2058 -0.9896
  265MOL0     C35704  -0.614   3.949   1.492 -0.0513 -0.0989 -0.0531
  265MOL0     C35705  -0.694   3.864   1.491  0.6794  0.0464  0.7878
  265MOL0     C35706   0.026   4.288   1.165 -0.1342 -0.5368 -0.1246
  265MOL0     C35707   0.124   4.358   1.083  0.0413  0.7871 -0.0631
  265MOL0     H35708   0.196   4.880   0.780 -1.1886  0.5941  1.9565
  265MOL0     H35709   0.380   5.032   0.686  0.6796 -1.3391 -3.3616
  265MOL0     H35710   0.771   4.832   0.677  3.0631  1.5310 -0.7951
  265MOL0     H35711   0.647   4.846   0.556 -2.1358  3.2008  0.8138
  265MOL0     H35712   0.887   5.025   0.607  0.2968  0.3104 -0.3147
  265MOL0     H35713   0.853   4.917   0.462 -0.9203  2.1297 -2.5834
  265MOL0     H35714   0.798   5.103   0.354 -1.6453  2.9559 -0.4390
  265MOL0     H35715   0.643   5.045   0.434  0.5672 -0.7511  0.3449
  265MOL0     H35716   0.683   5.207   0.605 -0.5231 -0.0467 -0.4489
  265MOL0     H35717   0.833   5.271   0.524 -0.7641  0.9964  3.3697
  265MOL0     H35718   0.696   5.350   0.350  1.5741 -0.6899 -0.1086
  265MOL0     H35719   0.552   5.264   0.410 -0.1948 -0.1812  3.1486
  265MOL0     H35720   0.690   5.482   0.548  2.6513 -3.4967 -2.6989
  265MOL0     H35721   0.546   5.511   0.446 -2.6681 -0.3200  1.8782
  265MOL0     H35722   0.397   5.382   0.577 -0.6114 -0.4657  1.3133
  265MOL0     H35723   0.516   5.341   0.696 -4.2495 -0.7163  2.8731
  265MOL0     H35724   0.434   5.625   0.613 -0.1436 -1.0650 -0.4093
  265MOL0     H35725   0.557   5.582   0.736  0.5876  2.1611 -0.8652
  265MOL0     H35726   0.464   5.601   0.986 -0.4013  0.0248  2.3974
  265MOL0     H35727   0.120   5.562   1.152  0.5276  0.1908 -1.2526
  265MOL0     H35728   0.288   5.509   1.187 -0.6038 -0.4956 -1.0451
  265MOL0     H35729   0.354   5.731   1.223 -0.3567  1.6351 -0.5473
  265MOL0     H35730   0.203   5.717   1.307 -1.1516  1.1222 -1.2754
  265MOL0     H35731   0.232   5.833   1.031  1.6803 -2.3978  1.7345
  265MOL0     H35732   0.241   5.929   1.180  1.4611 -1.5339  1.9383
  265MOL0     H35733  -0.013   5.765   1.147  0.2667  0.1138  2.5697
  265MOL0     H35734   0.034   5.902   1.040 -0.0248 -3.1039 -1.9604
  265MOL0     H35735   0.005   6.193   1.322  1.4135 -3.2017 -0.4825
  265MOL0     H35736  -0.080   6.382   1.393  0.4152  1.7009 -2.5630
  265MOL0     H35737  -0.199   6.435   1.274  0.8482  1.9621  0.9176
  265MOL0     H35738  -0.251   6.411   1.436  1.7396  2.4158  0.3050
  265MOL0     H35739  -0.675   6.407   1.243  0.8942  1.0638  2.9067
  265MOL0     H35740  -0.897   6.491   1.294  1.0808 -0.8247 -4.9938
  265MOL0     H35741  -1.097   6.537   1.430 -1.4287  1.8585 -0.2216
  265MOL0     H35742  -1.137   6.462   1.272 -1.7629  1.3967  0.2160
  265MOL0     H35743  -1.308   6.562   1.369  1.4153  0.7746  1.4127
  265MOL0     H35744  -1.338   6.390   1.360  1.1983  0.3259  0.1265
  265MOL0     H35745  -1.389   6.544   1.587 -1.4754 -0.8174 -1.7753
  265MOL0     H35746  -1.220   6.483   1.621  0.4877 -0.0023 -2.4635
  265MOL0     H35747  -1.475   6.325   1.579  0.8902 -1.5149 -2.2052
  265MOL0     H35748  -1.313   6.251   1.573 -1.0592 -2.6772  1.9268
  265MOL0     H35749  -1.399   6.396   1.819 -1.5713 -1.4329  2.4376
  265MOL0     H35750  -1.274   6.261   1.792  0.5574 -0.0276 -2.1361
  265MOL0     H35751  -1.581   6.244   1.772 -0.2980 -0.0055 -0.0941
  265MOL0     H35752  -1.463   6.122   1.721  2.1272 -1.5696  2.3872
  265MOL0     H35753  -1.563   6.068   1.943 -0.1018 -0.0123 -2.0860
  265MOL0     H35754  -1.517   6.216   2.012 -0.3252  0.4688 -0.4493
  265MOL0     H35755  -1.384   6.012   2.060 -3.2471  0.1130 -1.8758
  265MOL0     H35756  -1.289   6.161   2.016  0.4198  0.2079  1.0092
  265MOL0     H35757  -1.007   6.077   1.406 -0.6363 -0.3999 -1.5149
  265MOL0     H35758  -0.769   6.016   1.364  1.6320 -0.0632 -1.4986
  265MOL0     H35759  -0.437   5.979   1.258 -1.2997  1.2921  2.2818
  265MOL0     H35760  -0.246   5.860   1.187 -0.1333  0.1014 -1.3148
  265MOL0     H35761   0.677   4.806   0.877  0.7153  1.0880 -1.6292
  265MOL0     H35762   0.474   4.687   1.014 -2.6433 -0.3692 -0.7580
  265MOL0     H35763   0.061   4.672   1.139  1.7977  0.0559 -0.9612
  265MOL0     H35764  -0.100   4.584   1.276  1.6170  0.3357  1.6099
  265MOL0     H35765  -0.253   4.173   1.241 -0.7322 -0.0885  0.6887
  265MOL0     H35766  -0.101   4.109   1.314  0.9348  0.4098 -0.9823
  265MOL0     H35767  -0.313   4.235   1.487 -5.5575 -0.9782 -2.3861
  265MOL0     H35768  -0.221   4.089   1.526  0.6386  0.2682 -1.1880
  265MOL0     H35769  -0.356   3.954   1.411  3.3070  1.1615  0.1856
  265MOL0     H35770  -0.434   4.068   1.304  0.5060 -1.3327 -0.1403
  265MOL0     H35771  -0.568   4.157   1.470 -1.1875 -0.4901  0.9969
  265MOL0     H35772  -0.484   4.072   1.599 -1.2289  1.9306 -0.4449
  265MOL0     H35773  -0.766   3.791   1.456  1.2869  0.5008 -1.6394
  265MOL0     H35774   0.025   4.180   1.158  1.2710 -0.6337  0.8383
  265MOL0     H35775   0.180   4.296   1.013 -1.6247  1.0436 -1.7114
  266MOL0     O35776   9.957   8.670   7.207 -0.4366  0.0540 -0.5451
  266MOL0     C35777   9.964   8.708   7.090 -0.4310  0.3994 -0.5903
  266MOL0     O35778   9.862   8.714   7.005  0.3309 -0.4321 -0.3449
  266MOL0     C35779   9.732   8.696   7.039  0.5142 -0.0240  0.3704
  266MOL0     C35780   9.670   8.745   7.165 -0.4771  1.0021 -0.4624
  266MOL0     C35781   9.534   8.747   7.166 -1.1669 -0.1503 -0.3339
  266MOL0     C35782   9.450   8.696   7.062 -0.0526  0.7493  0.1097
  266MOL0     O35783   9.312   8.696   7.067 -0.1226  0.1500  0.7172
  266MOL0     C35784   9.235   8.587   7.014  0.0252 -0.6842  0.3998
  266MOL0     C35785   9.093   8.593   7.067 -0.0666 -0.3779 -0.2017
  266MOL0     C35786   9.017   8.466   7.044  0.0425  0.4583  0.1888
  266MOL0     C35787   8.871   8.482   7.090 -0.0114 -0.1088  0.0039
  266MOL0     C35788   8.844   8.471   7.245  0.4772  0.7908 -0.0627
  266MOL0     C35789   8.696   8.501   7.278 -0.5334 -0.2670  0.3538
  266MOL0     C35790   8.593   8.406   7.210  0.0048 -0.4141  0.0211
  266MOL0     C35791   8.467   8.415   7.290  0.7142  0.3502  0.1343
  266MOL0     N35792   8.402   8.550   7.281 -0.4128 -0.2431 -0.9333
  266MOL0     C35793   8.331   8.599   7.188 -0.2386 -0.0183 -0.1331
  266MOL0     C35794   8.303   8.728   7.236 -0.1567 -0.5963 -0.5687
  266MOL0     C35795   8.212   8.839   7.173  0.3727 -0.6338  0.0184
  266MOL0     C35796   8.070   8.789   7.147 -0.1683 -0.2104 -0.2633
  266MOL0     C35797   8.000   8.897   7.062  0.0191  0.1361 -0.7155
  266MOL0     C35798   7.854   8.885   7.074 -0.3411  0.4501  0.1080
  266MOL0     O35799   7.792   8.999   7.014 -0.2905 -0.5535 -0.3687
  266MOL0     C35800   7.656   9.005   7.022  0.0717 -0.5351 -0.4820
  266MOL0     C35801   7.569   8.929   6.945  0.1076 -0.5675  1.3919
  266MOL0     C35802   7.434   8.944   6.934  0.2379  1.0638  0.0504
  266MOL0     C35803   7.354   8.862   6.822 -0.9844  0.1889  0.3988
  266MOL0     C35804   7.367   9.020   7.027  0.3146 -0.6577 -0.2432
  266MOL0     C35805   7.221   9.018   7.048  0.9488 -1.0946 -0.4700
  266MOL0     O35806   7.141   9.020   6.942 -0.8163  0.2340 -0.6526
  266MOL0     C35807   7.001   9.002   6.972  0.0355  0.6332 -0.4021
  266MOL0     C35808   6.942   8.876   6.977 -0.0528 -0.3565  0.5204
  266MOL0     C35809   6.807   8.862   7.013  0.5188 -0.5701 -0.6969
  266MOL0     C35810   6.733   8.982   7.041  0.8259 -1.2049  0.0105
  266MOL0     O35811   6.600   8.984   7.074  0.3341 -0.4024 -0.5673
  266MOL0     C35812   6.517   8.887   7.024 -0.1029 -0.0134 -0.1226
  266MOL0     C35813   6.387   8.893   7.100 -0.0054  0.0543 -0.7446
  266MOL0     C35814   6.297   8.763   7.096 -0.1453  0.1740  0.4128
  266MOL0     C35815   6.360   8.640   7.164 -0.4429  0.6204  0.2726
  266MOL0     C35816   6.416   8.662   7.308 -0.6020  1.0265  0.5592
  266MOL0     C35817   6.446   8.530   7.384 -0.1540  0.6716  0.7737
  266MOL0     C35818   6.582   8.459   7.348 -0.3864 -0.9796  0.0145
  266MOL0     C35819   6.691   8.529   7.413 -0.0606 -0.5715 -1.1825
  266MOL0    Cl35820   6.682   8.496   7.588  0.0692 -0.3835 -0.1531
  266MOL0     C35821   6.793   9.100   7.052 -0.9462 -0.1833  0.9046
  266MOL0     C35822   6.928   9.110   7.025 -0.9858 -0.1995 -0.4890
  266MOL0     O35823   7.181   9.012   7.166 -0.3895  0.1883 -0.4460
  266MOL0     C35824   7.449   9.081   7.127 -0.0342 -0.0357  0.8027
  266MOL0     C35825   7.586   9.070   7.124  0.0448 -0.2483 -0.1586
  266MOL0     N35826   8.358   8.742   7.361 -0.6444 -0.3120  0.3729
  266MOL0     N35827   8.412   8.632   7.387 -0.3477 -0.8417  0.5092
  266MOL0     C35828   9.515   8.646   6.953 -0.1917  0.7072  0.6355
  266MOL0     C35829   9.654   8.644   6.939 -0.1597 -0.3468 -0.7218
  266MOL0     C35830  10.100   8.746   7.042 -0.6755 -0.7951  0.6107
  266MOL0     C35831  10.124   8.783   6.899  0.6884  0.3595  0.4001
  266MOL0     C35832  10.252   8.815   6.857 -0.9425  0.0186  0.0169
  266MOL0     C35833  10.359   8.823   6.945 -0.3790  0.0847 -0.3529
  266MOL0     O35834  10.472   8.878   6.894  0.4007 -0.7425  0.4125
  266MOL0     C35835  10.603   8.860   6.952  0.0809 -1.0912  0.3031
  266MOL0     C35836  10.641   8.962   7.054 -0.2857 -0.3117 -0.2211
  266MOL0     C35837  10.714   9.077   6.990 -0.1653 -0.2020  0.3835
  266MOL0     C35838  10.633   9.178   6.910  0.1379 -0.2910  0.5008
  266MOL0     C35839  10.534   9.245   7.001  0.1155 -0.2257  0.5201
  266MOL0     C35840  10.442   9.293   7.057 -0.2090 -0.3323 -0.4250
  266MOL0     C35841  10.339   8.794   7.085  0.0149  0.2178 -0.2354
  266MOL0     C35842  10.210   8.739   7.129  1.1969  0.4092 -1.0201
  266MOL0     H35843   9.732   8.781   7.246 -0.8425 -0.7361  0.6474
  266MOL0     H35844   9.491   8.797   7.252 -0.3119  1.1792 -0.6525
  266MOL0     H35845   9.220   8.599   6.906 -0.0710  3.2349  0.6994
  266MOL0     H35846   9.285   8.491   7.027  0.0261 -0.3956  2.8178
  266MOL0     H35847   9.105   8.611   7.174 -0.2321 -0.7314 -0.1212
  266MOL0     H35848   9.040   8.676   7.020 -2.1912 -1.2768  0.4927
  266MOL0     H35849   9.018   8.435   6.939 -0.5132 -0.4256  0.4308
  266MOL0     H35850   9.056   8.387   7.109  1.8692  1.0237 -0.1719
  266MOL0     H35851   8.835   8.580   7.057  0.5395 -1.1302 -4.1950
  266MOL0     H35852   8.806   8.420   7.027 -0.2117  2.1689 -2.2312
  266MOL0     H35853   8.847   8.369   7.286 -2.4027  0.1550 -1.1976
  266MOL0     H35854   8.915   8.535   7.297  2.9261 -0.0048 -2.2485
  266MOL0     H35855   8.688   8.496   7.387  2.6475 -1.0305  0.6508
  266MOL0     H35856   8.674   8.605   7.252  2.3399  0.9812  2.3712
  266MOL0     H35857   8.562   8.437   7.110 -1.6741 -2.0518 -0.0049
  266MOL0     H35858   8.619   8.301   7.195  0.6976 -0.4919  1.5459
  266MOL0     H35859   8.488   8.396   7.396 -0.2335  1.8618  0.6269
  266MOL0     H35860   8.409   8.330   7.253  0.4130 -0.4642  2.3173
  266MOL0     H35861   8.307   8.559   7.090 -1.4375 -0.7797  0.4478
  266MOL0     H35862   8.198   8.910   7.255  0.1591 -0.4488 -0.1781
  266MOL0     H35863   8.252   8.891   7.086  1.8586 -0.6222  0.6755
  266MOL0     H35864   8.017   8.772   7.241  0.8584  1.9034  0.7620
  266MOL0     H35865   8.083   8.699   7.085  0.2045 -0.7962  0.6432
  266MOL0     H35866   8.033   8.879   6.959 -1.5917  0.3269 -1.2909
  266MOL0     H35867   8.027   8.998   7.093 -2.9386  0.2452  1.9453
  266MOL0     H35868   7.824   8.874   7.179 -1.0586 -1.5766 -0.2660
  266MOL0     H35869   7.826   8.792   7.024  1.8029 -0.3282  0.2193
  266MOL0     H35870   7.625   8.865   6.876  1.1341  0.9550  0.7597
  266MOL0     H35871   7.323   8.925   6.738  0.2561  0.5695  0.1993
  266MOL0     H35872   7.425   8.787   6.786 -1.3450 -1.0996  2.2318
  266MOL0     H35873   7.271   8.803   6.861 -0.5216 -1.1322 -0.5289
  266MOL0     H35874   7.005   8.789   6.961  5.1345  3.0420 -0.2473
  266MOL0     H35875   6.757   8.766   7.000  2.9078 -2.1107  0.7185
  266MOL0     H35876   6.503   8.892   6.916 -0.3716 -1.1078 -0.1574
  266MOL0     H35877   6.560   8.789   7.047  0.4525  0.0165 -1.0035
  266MOL0     H35878   6.404   8.928   7.202 -1.3434  0.6704 -0.7015
  266MOL0     H35879   6.329   8.967   7.044  2.7921  3.2297  0.2689
  266MOL0     H35880   6.271   8.733   6.994  0.7644  2.0189 -0.4122
  266MOL0     H35881   6.208   8.793   7.151  0.4856 -0.1377  1.6503
  266MOL0     H35882   6.287   8.559   7.174  2.4350 -2.2214 -0.3523
  266MOL0     H35883   6.444   8.609   7.102 -0.8689 -3.8482  1.5993
  266MOL0     H35884   6.336   8.713   7.364  1.1014  1.2124  2.9947
  266MOL0     H35885   6.509   8.719   7.301  0.7595 -1.0899  0.4447
  266MOL0     H35886   6.442   8.557   7.490 -3.3373  3.0258  0.2228
  266MOL0     H35887   6.361   8.464   7.362  0.0576  0.2835  1.1002
  266MOL0     H35888   6.594   8.459   7.239  1.0766  2.4104  0.0391
  266MOL0     H35889   6.573   8.358   7.389  0.0223 -0.3376  1.7841
  266MOL0     H35890   6.692   8.636   7.391  1.2705 -0.7197 -1.9380
  266MOL0     H35891   6.789   8.500   7.374  1.3265  0.6536  1.1110
  266MOL0     H35892   6.739   9.190   7.080 -0.1008  0.9918 -1.0766
  266MOL0     H35893   6.980   9.204   7.045 -0.2435 -0.8297  0.6414
  266MOL0     H35894   7.404   9.138   7.208  0.6641  1.1449  0.3784
  266MOL0     H35895   7.646   9.118   7.201  1.8311  0.9434 -2.2036
  266MOL0     H35896   9.463   8.616   6.863 -3.2077  3.2169  1.3750
  266MOL0     H35897   9.692   8.612   6.843  2.5484 -2.2983  0.8549
  266MOL0     H35898  10.047   8.766   6.824  0.4991  1.3769  0.3529
  266MOL0     H35899  10.272   8.838   6.753 -0.0305  0.3901  0.2706
  266MOL0     H35900  10.594   8.769   7.013 -0.7821  0.6156  2.8404
  266MOL0     H35901  10.674   8.859   6.868 -0.6795 -0.1528 -0.3622
  266MOL0     H35902  10.685   8.906   7.137 -1.4326 -1.4266 -0.3311
  266MOL0     H35903  10.551   9.002   7.103 -1.1075  3.5805 -4.2976
  266MOL0     H35904  10.785   9.038   6.916  1.7648  1.2343  1.4053
  266MOL0     H35905  10.778   9.133   7.059  1.0667 -0.8880 -0.1651
  266MOL0     H35906  10.578   9.133   6.827  0.3244 -1.3236  0.9207
  266MOL0     H35907  10.703   9.249   6.864 -0.4707 -0.1695 -0.2553
  266MOL0     H35908  10.356   9.346   7.094  1.6933  5.1330 -2.6815
  266MOL0     H35909  10.420   8.792   7.157 -0.2246 -1.7756  0.0405
  266MOL0     H35910  10.197   8.699   7.229 -1.0842 -2.7979 -2.4122
  267MOL0     O35911   2.809   7.532   5.400  0.1727  0.1124  0.3978
  267MOL0     C35912   2.743   7.427   5.409  0.0706  0.1924  1.0008
  267MOL0     O35913   2.788   7.306   5.456 -0.3525  0.0424  0.8024
  267MOL0     C35914   2.914   7.281   5.454  0.2098 -0.0743  0.3144
  267MOL0     C35915   2.990   7.241   5.346  0.2889 -0.7382  1.2720
  267MOL0     C35916   3.128   7.222   5.361  0.0787 -0.5653  0.4096
  267MOL0     C35917   3.191   7.245   5.483  0.0854 -0.7848 -0.4890
  267MOL0     O35918   3.328   7.237   5.495  0.3611  0.0297 -0.0790
  267MOL0     C35919   3.381   7.197   5.617  0.3609 -0.5879 -0.4141
  267MOL0     C35920   3.530   7.160   5.597  0.5337  0.0314 -0.8403
  267MOL0     C35921   3.614   7.295   5.590  0.6115  1.2278 -0.3968
  267MOL0     C35922   3.760   7.247   5.569  0.9853  0.5717 -0.3400
  267MOL0     C35923   3.868   7.351   5.538  0.2243 -0.4632 -0.2548
  267MOL0     C35924   4.009   7.294   5.519 -0.2228  0.3722 -0.8491
  267MOL0     C35925   4.126   7.398   5.503  0.1289  0.0551  0.9413
  267MOL0     C35926   4.267   7.354   5.523 -0.2266  0.5865  0.4392
  267MOL0     N35927   4.297   7.255   5.421 -0.0047  0.1658  0.0395
  267MOL0     C35928   4.299   7.120   5.451 -1.1934 -1.0701  0.0114
  267MOL0     C35929   4.348   7.065   5.340 -1.3421 -0.1551 -0.0783
  267MOL0     C35930   4.373   6.919   5.313  1.0157 -0.4994  0.0179
  267MOL0     C35931   4.264   6.857   5.221 -1.2011  0.1059 -0.8906
  267MOL0     C35932   4.271   6.913   5.080 -0.0917 -1.0509  0.0743
  267MOL0     C35933   4.201   6.840   4.968  0.3670  1.0759  0.5868
  267MOL0     O35934   4.083   6.770   5.022 -0.0951  0.3785  0.2108
  267MOL0     C35935   3.957   6.829   5.014 -0.0754  0.0022  0.4468
  267MOL0     C35936   3.848   6.744   5.032  0.2803  0.2050 -0.5555
  267MOL0     C35937   3.713   6.782   5.024 -0.4643  0.0171  0.0440
  267MOL0     C35938   3.605   6.666   5.028 -0.1413 -0.2130 -0.1196
  267MOL0     C35939   3.688   6.920   5.000  0.2655 -0.2087  1.3066
  267MOL0     C35940   3.549   6.971   4.973 -0.0316  0.2782  0.3230
  267MOL0     O35941   3.441   6.875   4.976  0.0239  0.3588 -0.1874
  267MOL0     C35942   3.317   6.918   4.945 -0.2347  1.1354  1.2822
  267MOL0     C35943   3.264   6.945   4.816  0.0655 -0.6014  0.4895
  267MOL0     C35944   3.137   6.981   4.798 -0.5716  0.9164  0.5749
  267MOL0     C35945   3.050   6.996   4.906  0.0679 -0.3886 -0.2716
  267MOL0     O35946   2.927   7.040   4.901  0.4999 -0.0717 -0.6827
  267MOL0     C35947   2.836   6.943   4.852 -0.1556  1.1397 -0.2370
  267MOL0     C35948   2.695   7.006   4.821  0.0589  0.5862 -0.2803
  267MOL0     C35949   2.702   7.049   4.672  0.3567 -0.7790  0.0236
  267MOL0     C35950   2.573   7.143   4.649  0.4793  0.1686  0.4727
  267MOL0     C35951   2.581   7.185   4.504  1.0269  0.2095 -0.5455
  267MOL0     C35952   2.452   7.268   4.474 -0.2413  0.1748 -0.3433
  267MOL0     C35953   2.429   7.374   4.583  0.2399  0.9446 -0.2028
  267MOL0     C35954   2.325   7.469   4.532  0.5702  0.3789  0.4587
  267MOL0    Cl35955   2.164   7.382   4.536 -0.0550  0.1522  0.0816
  267MOL0     C35956   3.099   6.979   5.033 -0.5464 -0.8010 -0.2653
  267MOL0     C35957   3.228   6.928   5.049 -1.1958  0.3669 -0.2295
  267MOL0     O35958   3.538   7.090   4.953 -0.0581  0.1168 -0.1417
  267MOL0     C35959   3.798   7.008   4.982  0.9849  0.0276 -0.1196
  267MOL0     C35960   3.929   6.965   4.979 -0.0802  0.5510  0.6620
  267MOL0     N35961   4.386   7.180   5.262  0.2535  0.8633  0.3198
  267MOL0     N35962   4.354   7.293   5.308 -0.4580 -0.4048  0.0125
  267MOL0     C35963   3.112   7.280   5.594  0.0265 -0.3007  0.3903
  267MOL0     C35964   2.974   7.302   5.580 -1.1392  0.0260 -0.1705
  267MOL0     C35965   2.598   7.431   5.382 -0.3743  0.5048  0.0125
  267MOL0     C35966   2.516   7.318   5.419  0.2644 -0.0161 -0.2786
  267MOL0     C35967   2.375   7.328   5.397 -0.3689  0.2343  0.5187
  267MOL0     C35968   2.318   7.443   5.346 -0.2363  0.3236  0.3657
  267MOL0     O35969   2.184   7.466   5.330  0.0840  0.0230  0.6013
  267MOL0     C35970   2.104   7.392   5.430 -0.5203 -0.4655  0.2525
  267MOL0     C35971   1.966   7.451   5.451  0.1276 -0.6628 -0.0857
  267MOL0     C35972   1.890   7.456   5.322 -0.3197 -0.1727 -1.2771
  267MOL0     C35973   1.744   7.406   5.348  0.0354  0.2355 -0.2297
  267MOL0     C35974   1.676   7.506   5.431 -0.2919 -0.7604  0.2028
  267MOL0     C35975   1.609   7.583   5.489 -0.0280 -0.1138  0.1003
  267MOL0     C35976   2.403   7.548   5.313  0.7379 -0.1207  1.3039
  267MOL0     C35977   2.542   7.542   5.328 -0.0855 -0.4312 -0.2381
  267MOL0     H35978   2.958   7.234   5.242  1.9413  0.3049  0.6611
  267MOL0     H35979   3.180   7.214   5.266  0.4552  1.8014  0.3777
  267MOL0     H35980   3.388   7.285   5.683 -1.1080 -0.3632 -0.5195
  267MOL0     H35981   3.325   7.117   5.668 -0.4124  0.1163 -0.1162
  267MOL0     H35982   3.564   7.099   5.681  1.1391 -1.0482 -1.8471
  267MOL0     H35983   3.534   7.094   5.510 -0.8169 -0.1613 -0.7704
  267MOL0     H35984   3.567   7.359   5.515 -3.9402 -0.3856  0.7230
  267MOL0     H35985   3.612   7.348   5.685  2.5306  0.0518  0.3489
  267MOL0     H35986   3.797   7.194   5.658  0.0762 -1.9454 -1.3553
  267MOL0     H35987   3.761   7.183   5.480 -0.4614  1.9270 -1.3869
  267MOL0     H35988   3.837   7.399   5.444  1.9749  0.7344 -0.2684
  267MOL0     H35989   3.860   7.431   5.612 -2.5291 -0.7509 -0.1400
  267MOL0     H35990   4.032   7.234   5.608 -1.1345  0.0145 -0.8327
  267MOL0     H35991   4.010   7.218   5.440  2.9785  0.7295 -1.2786
  267MOL0     H35992   4.111   7.437   5.402  0.7207 -0.5534  0.6112
  267MOL0     H35993   4.111   7.489   5.561  0.4028  0.7298 -0.0216
  267MOL0     H35994   4.285   7.322   5.626  1.7840  0.3175  0.0331
  267MOL0     H35995   4.340   7.434   5.509  0.8749  0.0610  2.7981
  267MOL0     H35996   4.266   7.064   5.538 -0.2776  0.0997  1.1376
  267MOL0     H35997   4.471   6.904   5.267  0.9527  0.6895 -0.5430
  267MOL0     H35998   4.365   6.862   5.406 -2.5452 -0.6863 -0.2834
  267MOL0     H35999   4.160   6.864   5.256 -2.0862 -0.6466 -3.2040
  267MOL0     H36000   4.293   6.752   5.219  5.0704  1.4409 -1.2602
  267MOL0     H36001   4.375   6.913   5.045  0.5180  2.3509  1.4328
  267MOL0     H36002   4.244   7.019   5.085  1.8578 -0.5657  3.6112
  267MOL0     H36003   4.267   6.770   4.916 -1.6376  0.8224 -1.7896
  267MOL0     H36004   4.166   6.910   4.892  1.3256  2.9115  1.7701
  267MOL0     H36005   3.854   6.639   5.058 -2.2169 -0.3531 -1.9301
  267MOL0     H36006   3.527   6.670   4.952  0.3018  0.2185 -0.5594
  267MOL0     H36007   3.667   6.575   5.029  0.6344  0.2610  1.9376
  267MOL0     H36008   3.565   6.671   5.130  2.2348  1.7457  0.8295
  267MOL0     H36009   3.327   6.926   4.729  3.8474 -0.3264  2.9637
  267MOL0     H36010   3.107   6.993   4.694  2.8577  0.4698 -0.6043
  267MOL0     H36011   2.877   6.884   4.769  1.5897 -0.5225  1.6926
  267MOL0     H36012   2.828   6.876   4.937  4.0260  2.0644  1.1176
  267MOL0     H36013   2.614   6.933   4.829 -0.2716  0.5844 -2.7544
  267MOL0     H36014   2.682   7.104   4.867  3.3800  2.0524 -2.0403
  267MOL0     H36015   2.725   6.975   4.595 -0.8639 -1.0724 -0.0744
  267MOL0     H36016   2.788   7.117   4.663 -0.3797 -0.0470 -1.9740
  267MOL0     H36017   2.484   7.083   4.669  1.2492 -0.4048  2.4462
  267MOL0     H36018   2.579   7.234   4.709 -1.3831  3.4194 -3.7279
  267MOL0     H36019   2.583   7.097   4.439 -1.0960  1.6084 -2.7142
  267MOL0     H36020   2.676   7.238   4.498  1.2580  0.4861  3.2335
  267MOL0     H36021   2.462   7.316   4.376 -0.2859 -0.3823 -0.6296
  267MOL0     H36022   2.372   7.195   4.460  0.6069 -0.7224 -0.7068
  267MOL0     H36023   2.526   7.423   4.595 -0.0767  1.8572 -1.2332
  267MOL0     H36024   2.400   7.333   4.680  2.4887  0.2912  0.2606
  267MOL0     H36025   2.343   7.509   4.432 -2.2408  3.5934  1.0964
  267MOL0     H36026   2.326   7.552   4.602  0.4461  1.4032 -0.7162
  267MOL0     H36027   3.041   7.009   5.120  1.6906  0.1727  0.9992
  267MOL0     H36028   3.279   6.918   5.145  1.4336 -0.0492 -1.5863
  267MOL0     H36029   3.773   7.113   4.975 -0.2542  0.0826  3.2615
  267MOL0     H36030   3.997   7.043   4.945  1.8128 -1.4180 -0.3155
  267MOL0     H36031   3.153   7.307   5.690  0.3043  0.1103  0.1602
  267MOL0     H36032   2.909   7.346   5.655  2.6019  0.1574  3.2787
  267MOL0     H36033   2.560   7.225   5.454  0.3110  0.3587  0.6697
  267MOL0     H36034   2.308   7.246   5.421 -1.2633  0.5343 -0.8120
  267MOL0     H36035   2.098   7.284   5.411  1.7402 -0.9205  1.7364
  267MOL0     H36036   2.150   7.388   5.529  0.8723  2.7522 -0.1336
  267MOL0     H36037   1.978   7.557   5.476  0.4539 -0.1714 -2.1052
  267MOL0     H36038   1.906   7.395   5.522  2.5204 -1.5618  1.3393
  267MOL0     H36039   1.934   7.394   5.244  0.6958  0.5485 -1.2991
  267MOL0     H36040   1.894   7.557   5.280  2.7158  0.6864  0.7442
  267MOL0     H36041   1.747   7.309   5.398 -1.1014  0.7173  0.8254
  267MOL0     H36042   1.688   7.401   5.254 -4.4391 -0.3088  2.2083
  267MOL0     H36043   1.565   7.659   5.550  1.7696 -1.2231  2.9568
  267MOL0     H36044   2.373   7.642   5.269  2.0580 -0.7375 -1.0677
  267MOL0     H36045   2.612   7.621   5.300  2.9982 -2.5085  1.1113
  268MOL0     O36046   2.301   7.678   5.591  0.4277  0.0813 -0.1346
  268MOL0     C36047   2.332   7.605   5.678  0.3197  0.2589  0.4664
  268MOL0     O36048   2.250   7.525   5.751 -0.2094 -0.0720 -1.1906
  268MOL0     C36049   2.121   7.581   5.768 -0.3224  0.3615  0.6252
  268MOL0     C36050   2.017   7.491   5.771 -0.1879  1.1862  0.3444
  268MOL0     C36051   1.886   7.526   5.784  0.1413  0.9558 -0.3982
  268MOL0     C36052   1.854   7.661   5.818  0.0287 -0.8797 -0.1870
  268MOL0     O36053   1.726   7.695   5.833 -0.7795  0.5482  0.4906
  268MOL0     C36054   1.688   7.829   5.802 -0.1430  0.1352 -1.3359
  268MOL0     C36055   1.532   7.847   5.804  0.1465 -0.0747 -0.6288
  268MOL0     C36056   1.502   7.994   5.819  0.3813  0.3161 -0.1408
  268MOL0     C36057   1.455   8.020   5.958 -0.2578 -0.7579 -1.0644
  268MOL0     C36058   1.432   8.171   5.998 -0.5958 -0.4558  0.1242
  268MOL0     C36059   1.301   8.216   5.932  0.7035  0.2918 -0.6363
  268MOL0     C36060   1.219   8.318   6.001  0.1488  0.7138  0.1811
  268MOL0     C36061   1.233   8.461   5.970 -0.0020  0.0163 -0.2347
  268MOL0     N36062   1.371   8.503   5.995  0.1933 -0.5501  0.2773
  268MOL0     C36063   1.439   8.492   6.108 -0.1946 -0.4324 -0.7562
  268MOL0     C36064   1.559   8.543   6.079 -0.1789 -0.5932 -0.5609
  268MOL0     C36065   1.665   8.551   6.178  0.3210  0.3151 -0.9076
  268MOL0     C36066   1.646   8.659   6.294  0.2470  0.5582  0.4907
  268MOL0     C36067   1.748   8.635   6.410 -0.2910 -0.1166  0.0878
  268MOL0     C36068   1.901   8.600   6.371 -0.6092  0.0517  0.9118
  268MOL0     O36069   1.953   8.714   6.291  0.3822  0.1503 -0.1663
  268MOL0     C36070   2.086   8.720   6.317  0.3959 -0.1253 -0.3901
  268MOL0     C36071   2.128   8.792   6.420  0.5690  0.0500 -0.5088
  268MOL0     C36072   2.265   8.797   6.457  0.5774 -0.8329 -0.4995
  268MOL0     C36073   2.290   8.890   6.572  0.7664 -0.2418 -0.5323
  268MOL0     C36074   2.360   8.725   6.384  0.3689 -0.9060  0.0743
  268MOL0     C36075   2.510   8.743   6.402 -1.4046  0.7121 -0.4090
  268MOL0     O36076   2.593   8.658   6.324  0.6615  0.1359 -0.4628
  268MOL0     C36077   2.710   8.609   6.385  0.4930  0.0107 -1.1027
  268MOL0     C36078   2.690   8.509   6.482  0.1564 -0.8414  0.1272
  268MOL0     C36079   2.799   8.454   6.560 -0.3959  0.9516 -0.9328
  268MOL0     C36080   2.922   8.515   6.551  0.9475 -0.7545 -0.1113
  268MOL0     O36081   3.018   8.473   6.638 -0.8944 -0.4201 -0.3353
  268MOL0     C36082   3.080   8.357   6.598 -0.0260 -0.4719  0.1059
  268MOL0     C36083   3.215   8.341   6.671 -0.0381 -0.1149 -0.5506
  268MOL0     C36084   3.326   8.440   6.617  0.0790 -0.0720 -0.6739
  268MOL0     C36085   3.401   8.505   6.726  0.2263 -0.6480 -0.4597
  268MOL0     C36086   3.507   8.615   6.678  0.0306 -0.0856  0.0943
  268MOL0     C36087   3.604   8.667   6.786  0.6420  0.3326 -0.3423
  268MOL0     C36088   3.707   8.763   6.732 -0.1720 -0.1324 -0.7290
  268MOL0     C36089   3.791   8.702   6.614  0.1384 -0.4618  0.4085
  268MOL0    Cl36090   3.898   8.576   6.654 -0.0959  0.4351  0.0319
  268MOL0     C36091   2.945   8.617   6.457 -0.3728 -0.1024 -0.1888
  268MOL0     C36092   2.844   8.661   6.364 -0.1093  1.2915  0.2525
  268MOL0     O36093   2.551   8.818   6.492  0.7706 -0.1541 -0.2268
  268MOL0     C36094   2.314   8.639   6.283  0.8721 -0.4423 -0.1825
  268MOL0     C36095   2.177   8.632   6.262  0.2192  0.4560  0.0634
  268MOL0     N36096   1.561   8.583   5.950 -0.1495  0.4136 -0.3154
  268MOL0     N36097   1.449   8.567   5.901 -0.0402  0.1082 -0.4643
  268MOL0     C36098   1.964   7.752   5.830 -0.2057 -0.3991  0.6421
  268MOL0     C36099   2.095   7.714   5.802 -0.3491 -0.6744 -0.6374
  268MOL0     C36100   2.475   7.607   5.710  1.4166  0.2139  0.2947
  268MOL0     C36101   2.536   7.545   5.814  0.1640  0.1196  1.0544
  268MOL0     C36102   2.673   7.540   5.849 -1.2955  0.5010 -0.3981
  268MOL0     C36103   2.763   7.611   5.766  0.5967 -0.0052  1.3760
  268MOL0     O36104   2.897   7.599   5.782  0.7535 -0.0969  0.1548
  268MOL0     C36105   2.986   7.683   5.718  0.3417  0.1171 -0.0738
  268MOL0     C36106   3.127   7.644   5.762  0.5438 -0.6194 -0.1553
  268MOL0     C36107   3.241   7.754   5.750  0.2638 -0.1758 -0.1707
  268MOL0     C36108   3.384   7.695   5.783 -0.0524 -0.0639  0.2983
  268MOL0     C36109   3.485   7.797   5.803 -0.3521  0.6767 -0.4544
  268MOL0     C36110   3.590   7.860   5.809  0.1455 -0.5966 -0.7034
  268MOL0     C36111   2.705   7.700   5.670  0.4325  0.0248 -0.9854
  268MOL0     C36112   2.566   7.692   5.643  0.4951  0.6379 -0.2831
  268MOL0     H36113   2.045   7.390   5.740  0.9810  1.8696 -0.9611
  268MOL0     H36114   1.812   7.450   5.759 -0.2876  2.0098 -2.4886
  268MOL0     H36115   1.738   7.897   5.872 -0.8165 -1.0026  0.3072
  268MOL0     H36116   1.723   7.859   5.702  0.5131  0.5675 -0.9858
  268MOL0     H36117   1.512   7.813   5.702 -0.1490  1.0299 -0.9500
  268MOL0     H36118   1.483   7.792   5.884 -1.3331  2.1304  0.0531
  268MOL0     H36119   1.587   8.058   5.798  1.0590 -0.7768 -0.8368
  268MOL0     H36120   1.414   8.010   5.755  1.6056  1.1209 -1.6744
  268MOL0     H36121   1.362   7.964   5.973  0.2077 -0.5447  4.4741
  268MOL0     H36122   1.526   7.978   6.030 -0.9939  2.4403  1.7323
  268MOL0     H36123   1.421   8.180   6.106  1.3908 -2.3140  0.5619
  268MOL0     H36124   1.519   8.234   5.978 -1.6753  1.0585  0.0551
  268MOL0     H36125   1.325   8.254   5.832 -0.9384  0.2400 -1.0755
  268MOL0     H36126   1.232   8.134   5.911 -0.1641  0.4413  1.3317
  268MOL0     H36127   1.113   8.293   5.986 -0.7233  4.2135 -0.1878
  268MOL0     H36128   1.222   8.308   6.110 -1.5809 -2.6280  0.0533
  268MOL0     H36129   1.170   8.518   6.039 -1.0889 -3.5468  2.0191
  268MOL0     H36130   1.208   8.470   5.864 -1.7719 -0.5338  0.1066
  268MOL0     H36131   1.414   8.459   6.208  3.5242 -0.6555  0.2684
  268MOL0     H36132   1.664   8.450   6.218 -1.9374 -0.1650 -2.0066
  268MOL0     H36133   1.759   8.566   6.124  1.4881  0.9439  1.2001
  268MOL0     H36134   1.544   8.653   6.333 -0.1563  1.4248 -0.3643
  268MOL0     H36135   1.672   8.758   6.256  0.7461  0.1409 -0.2879
  268MOL0     H36136   1.706   8.555   6.472 -5.0247 -0.2518 -2.8142
  268MOL0     H36137   1.752   8.727   6.469  0.0878 -0.0649 -0.0152
  268MOL0     H36138   1.915   8.508   6.313  1.7972 -0.5552  2.3016
  268MOL0     H36139   1.952   8.586   6.467 -0.5763 -0.4026  0.8305
  268MOL0     H36140   2.056   8.855   6.471 -0.6298 -4.1711  3.7108
  268MOL0     H36141   2.313   8.840   6.667 -0.9881  1.9194  1.1246
  268MOL0     H36142   2.364   8.969   6.553 -0.4612  0.9555 -0.4325
  268MOL0     H36143   2.200   8.945   6.598  1.4654  0.7754 -0.2217
  268MOL0     H36144   2.593   8.463   6.497 -0.0817  0.1483  1.8063
  268MOL0     H36145   2.783   8.370   6.627 -3.8354  4.3003  3.0240
  268MOL0     H36146   3.009   8.281   6.633 -0.6281  1.0762  2.4802
  268MOL0     H36147   3.108   8.349   6.492 -0.4569  1.4794 -0.1922
  268MOL0     H36148   3.197   8.354   6.778  1.5022  1.1315 -0.3984
  268MOL0     H36149   3.252   8.242   6.642  0.5964 -0.1877  0.4882
  268MOL0     H36150   3.280   8.523   6.564 -0.0541 -0.5709 -1.3573
  268MOL0     H36151   3.389   8.383   6.548  1.5718  0.8399 -0.1253
  268MOL0     H36152   3.326   8.543   6.795  0.7037 -0.8284  0.1605
  268MOL0     H36153   3.456   8.425   6.776 -1.4428 -0.7549  1.3126
  268MOL0     H36154   3.454   8.707   6.654  1.0279 -0.2005 -3.1518
  268MOL0     H36155   3.555   8.572   6.589  0.4866 -0.5522  0.5567
  268MOL0     H36156   3.541   8.716   6.861  1.2482 -0.3930  0.6628
  268MOL0     H36157   3.647   8.580   6.835 -1.3327  0.1328  1.1773
  268MOL0     H36158   3.773   8.794   6.813  0.4412 -0.2338 -1.1775
  268MOL0     H36159   3.648   8.848   6.696 -2.0029 -1.0836 -0.0666
  268MOL0     H36160   3.864   8.773   6.573 -1.1239  1.0752  0.7359
  268MOL0     H36161   3.732   8.663   6.531 -1.0219  3.3831 -0.7692
  268MOL0     H36162   3.050   8.645   6.453 -0.0335 -1.3007 -0.3898
  268MOL0     H36163   2.872   8.736   6.291  0.6694  1.0321  0.2746
  268MOL0     H36164   2.385   8.574   6.233  2.2321  1.4058 -0.7714
  268MOL0     H36165   2.144   8.554   6.193  2.3898  0.3347 -0.8972
  268MOL0     H36166   1.952   7.859   5.841 -1.5852 -0.5021  0.3379
  268MOL0     H36167   2.173   7.788   5.819 -0.5833 -0.5923  0.1323
  268MOL0     H36168   2.465   7.478   5.863 -0.9609  0.2381 -0.3442
  268MOL0     H36169   2.721   7.479   5.925  1.3358  1.2626 -1.3275
  268MOL0     H36170   2.982   7.665   5.610  2.5470 -0.1181 -0.1667
  268MOL0     H36171   2.963   7.789   5.732  0.4045 -0.0183  1.1590
  268MOL0     H36172   3.149   7.557   5.699 -0.5515 -0.1503 -1.2501
  268MOL0     H36173   3.120   7.618   5.867 -3.9461  0.2411 -0.0316
  268MOL0     H36174   3.206   7.835   5.815  2.6240  0.7695  0.0116
  268MOL0     H36175   3.243   7.789   5.647  0.4148  1.9087  0.4960
  268MOL0     H36176   3.416   7.631   5.701  2.7669 -1.0942  2.0586
  268MOL0     H36177   3.389   7.628   5.869 -1.6471  0.3770  0.7725
  268MOL0     H36178   3.693   7.887   5.800 -0.0044 -0.5519 -2.8771
  268MOL0     H36179   2.765   7.761   5.602 -1.1450  1.5381 -1.0703
  268MOL0     H36180   2.534   7.742   5.552  2.0213  0.6694 -0.8177
  269MOL0     O36181   5.618   3.184   2.949  0.3107  0.8214  0.2072
  269MOL0     C36182   5.678   3.215   2.843 -0.8052  0.8071 -0.5043
  269MOL0     O36183   5.629   3.205   2.713  0.1912  0.5372 -0.1885
  269MOL0     C36184   5.495   3.174   2.694 -0.3657 -0.0096  0.2950
  269MOL0     C36185   5.427   3.067   2.752 -0.2185 -0.0889 -0.6763
  269MOL0     C36186   5.295   3.042   2.720  0.5344 -0.1476 -0.4090
  269MOL0     C36187   5.224   3.125   2.630  0.4364 -0.0502  0.6418
  269MOL0     O36188   5.093   3.106   2.601 -0.1704 -0.4180  0.4637
  269MOL0     C36189   4.993   3.196   2.655 -1.1778  0.4574  0.1104
  269MOL0     C36190   4.864   3.119   2.671 -0.4815 -1.1813  0.0760
  269MOL0     C36191   4.806   3.049   2.544  0.5202  0.8552 -0.2763
  269MOL0     C36192   4.654   3.048   2.530  0.7710 -0.0341 -0.3627
  269MOL0     C36193   4.601   2.933   2.446  0.1014  0.6555  0.8529
  269MOL0     C36194   4.451   2.936   2.441  0.9047  0.2451 -0.2395
  269MOL0     C36195   4.403   2.817   2.356  0.1399 -1.2168  0.3356
  269MOL0     C36196   4.254   2.814   2.354 -0.1657 -0.2047  0.1921
  269MOL0     N36197   4.195   2.738   2.240  0.6445 -0.0578  0.1116
  269MOL0     C36198   4.255   2.645   2.160 -0.0313  0.6680  0.0227
  269MOL0     C36199   4.161   2.615   2.076  0.3353 -0.6136 -0.1074
  269MOL0     C36200   4.177   2.515   1.968 -0.3684  0.0061 -0.6957
  269MOL0     C36201   4.212   2.566   1.828  0.7324 -0.3294 -0.1082
  269MOL0     C36202   4.237   2.445   1.736 -0.2022  0.3714 -0.1961
  269MOL0     C36203   4.264   2.476   1.586 -0.4365  0.2347  0.1517
  269MOL0     O36204   4.386   2.548   1.569 -0.5993 -0.0436  0.7833
  269MOL0     C36205   4.501   2.474   1.569  0.4955  0.1067 -0.8476
  269MOL0     C36206   4.626   2.536   1.563 -0.1669  0.0863 -0.4686
  269MOL0     C36207   4.753   2.469   1.568  0.1377 -0.8411  0.8976
  269MOL0     C36208   4.870   2.565   1.550 -0.5040 -0.5970  0.2059
  269MOL0     C36209   4.751   2.330   1.584  0.6484  0.4482  0.2535
  269MOL0     C36210   4.863   2.243   1.598 -0.4517  0.8100 -0.3231
  269MOL0     O36211   4.969   2.297   1.678  0.0312  0.1505 -0.0184
  269MOL0     C36212   5.076   2.226   1.709  0.1984  0.2135  0.5594
  269MOL0     C36213   5.096   2.181   1.844  0.2752 -0.1240  0.1279
  269MOL0     C36214   5.207   2.107   1.870 -0.7619 -0.2658 -0.1120
  269MOL0     C36215   5.302   2.076   1.770 -0.2651 -0.5428 -0.0288
  269MOL0     O36216   5.425   2.017   1.801  0.6497  0.2646  0.5288
  269MOL0     C36217   5.444   1.983   1.942 -0.0221 -0.0782 -1.4964
  269MOL0     C36218   5.564   1.875   1.939  0.3511 -0.0902  0.2053
  269MOL0     C36219   5.700   1.934   1.896  0.1197 -0.3727 -0.4906
  269MOL0     C36220   5.810   1.828   1.911  0.6921  0.1786 -0.1540
  269MOL0     C36221   5.846   1.823   2.057 -0.4716 -0.3081  0.7418
  269MOL0     C36222   5.952   1.719   2.089 -0.0365 -0.4640 -0.4225
  269MOL0     C36223   6.010   1.711   2.237 -0.4163  0.7301  0.3066
  269MOL0     C36224   6.134   1.617   2.245  0.5124 -0.5512 -0.4714
  269MOL0    Cl36225   6.272   1.683   2.157 -0.1358 -0.2496 -0.2208
  269MOL0     C36226   5.279   2.123   1.646 -0.2015 -0.7048  0.8507
  269MOL0     C36227   5.162   2.190   1.613 -0.6646  0.0672  0.8069
  269MOL0     O36228   4.860   2.121   1.570  0.3185  0.0965 -0.2579
  269MOL0     C36229   4.627   2.264   1.587 -0.4952 -1.0211 -0.2358
  269MOL0     C36230   4.507   2.335   1.580 -0.2065  0.4815 -0.0819
  269MOL0     N36231   4.048   2.687   2.099  0.1387  0.6504  0.5383
  269MOL0     N36232   4.063   2.754   2.200 -0.3179 -0.0876 -1.0227
  269MOL0     C36233   5.296   3.227   2.567 -0.1900  0.5055  0.7503
  269MOL0     C36234   5.428   3.256   2.607 -0.0035  0.0585  0.5806
  269MOL0     C36235   5.807   3.280   2.868  0.2567 -0.1877  0.8062
  269MOL0     C36236   5.858   3.346   2.761  0.4271  0.9080 -0.6117
  269MOL0     C36237   5.990   3.403   2.773 -0.7251  1.0855  0.0187
  269MOL0     C36238   6.062   3.396   2.889 -0.2978  0.1036 -0.4349
  269MOL0     O36239   6.188   3.452   2.891  0.8087  0.7994  1.1229
  269MOL0     C36240   6.260   3.458   2.766 -0.1722  0.3696  0.0570
  269MOL0     C36241   6.420   3.468   2.802  1.3336  0.1544 -0.9339
  269MOL0     C36242   6.447   3.610   2.859  0.2679 -0.2678  0.0702
  269MOL0     C36243   6.465   3.713   2.748  0.0666 -0.6622  0.1809
  269MOL0     C36244   6.608   3.708   2.696 -0.1831 -0.2951  0.2420
  269MOL0     C36245   6.718   3.722   2.651  0.4433 -0.7541  0.0010
  269MOL0     C36246   6.001   3.342   3.010  0.7951 -0.5598  0.9807
  269MOL0     C36247   5.880   3.276   2.986  0.9933 -0.1755  0.0131
  269MOL0     H36248   5.475   2.994   2.818  1.4670  1.2871 -0.2972
  269MOL0     H36249   5.247   2.957   2.769  0.4050 -0.1909 -0.6058
  269MOL0     H36250   5.028   3.221   2.756 -0.6427 -1.3524  0.3972
  269MOL0     H36251   4.992   3.291   2.601  1.1130  0.5260  0.1268
  269MOL0     H36252   4.861   3.049   2.756  0.7390 -1.9235 -0.4605
  269MOL0     H36253   4.792   3.188   2.716 -0.1875 -1.7822  1.5317
  269MOL0     H36254   4.842   3.084   2.447 -0.8593 -1.8946 -1.9170
  269MOL0     H36255   4.838   2.945   2.560  0.5277  0.7994 -0.6482
  269MOL0     H36256   4.614   3.033   2.631 -0.8161  0.4091 -0.8907
  269MOL0     H36257   4.626   3.141   2.480 -0.6892  0.8410  1.9283
  269MOL0     H36258   4.642   2.937   2.345 -0.9560 -1.6413  0.2592
  269MOL0     H36259   4.648   2.841   2.483 -0.7025  0.9091  2.5821
  269MOL0     H36260   4.408   2.943   2.542 -1.3977  1.6119 -1.2461
  269MOL0     H36261   4.409   3.022   2.390 -0.0737  1.3414  2.2363
  269MOL0     H36262   4.451   2.817   2.258 -0.2422  2.1714  0.0195
  269MOL0     H36263   4.432   2.724   2.405  1.2037 -1.5267 -0.8280
  269MOL0     H36264   4.218   2.917   2.342  1.5123  0.5476  1.2130
  269MOL0     H36265   4.210   2.776   2.447  0.8554 -0.3985  0.6067
  269MOL0     H36266   4.355   2.604   2.157 -0.2057  0.1632  0.7959
  269MOL0     H36267   4.260   2.446   1.988  0.0593 -0.0253 -2.4267
  269MOL0     H36268   4.084   2.457   1.966 -0.1487 -0.4470  0.6396
  269MOL0     H36269   4.307   2.620   1.831  0.0641  0.9640 -1.0327
  269MOL0     H36270   4.139   2.628   1.776  0.6946 -1.3390 -1.2868
  269MOL0     H36271   4.153   2.375   1.739  0.7877 -1.0332 -2.3619
  269MOL0     H36272   4.314   2.386   1.786 -1.4022 -1.7873 -0.7603
  269MOL0     H36273   4.184   2.539   1.547 -0.9711 -1.1531 -1.0618
  269MOL0     H36274   4.262   2.382   1.531  1.2141 -0.8582  1.8080
  269MOL0     H36275   4.632   2.643   1.545  1.2346 -0.3205 -2.8510
  269MOL0     H36276   4.894   2.613   1.646  0.3218  1.3754 -0.9275
  269MOL0     H36277   4.959   2.506   1.525  2.1743  3.1479  0.1601
  269MOL0     H36278   4.861   2.637   1.469  0.9314  0.2368  0.7465
  269MOL0     H36279   5.010   2.201   1.907 -0.1401  1.4382 -0.8682
  269MOL0     H36280   5.199   2.066   1.970 -0.9691  2.2537  0.9591
  269MOL0     H36281   5.483   2.070   1.997  1.4535 -2.0805  0.8235
  269MOL0     H36282   5.374   1.922   2.000  0.2325 -0.6425 -1.7756
  269MOL0     H36283   5.569   1.818   2.032  3.2133  1.5966  1.2277
  269MOL0     H36284   5.538   1.802   1.862 -1.1851 -1.2552  1.7463
  269MOL0     H36285   5.721   2.029   1.945 -0.1244  0.1037 -1.3013
  269MOL0     H36286   5.694   1.971   1.794  1.6142  1.0967 -0.0963
  269MOL0     H36287   5.764   1.732   1.887 -2.2633  0.3979  3.7397
  269MOL0     H36288   5.902   1.849   1.855 -0.3177 -0.4361 -2.1597
  269MOL0     H36289   5.756   1.802   2.115 -0.9110 -0.2787  0.0830
  269MOL0     H36290   5.859   1.921   2.104 -1.1921 -1.6972  4.1144
  269MOL0     H36291   5.911   1.620   2.066 -0.0255 -0.7966  0.9047
  269MOL0     H36292   6.042   1.739   2.029  0.9923  0.9488  1.4883
  269MOL0     H36293   5.932   1.671   2.303  0.2689  1.3558  1.5358
  269MOL0     H36294   6.036   1.813   2.266  1.6930  0.8029 -1.5573
  269MOL0     H36295   6.103   1.520   2.204  1.7838 -0.7838 -0.9251
  269MOL0     H36296   6.174   1.594   2.344  3.6687 -2.2415 -1.9771
  269MOL0     H36297   5.350   2.088   1.571  0.5302 -2.3045  2.2091
  269MOL0     H36298   5.159   2.224   1.510 -0.4915  3.5949  1.8370
  269MOL0     H36299   4.619   2.156   1.595 -1.4322 -0.9377  0.0777
  269MOL0     H36300   4.423   2.267   1.590  1.6679 -1.6579  3.1550
  269MOL0     H36301   5.243   3.285   2.492 -2.1771 -2.7954 -0.6314
  269MOL0     H36302   5.473   3.345   2.565  1.8588 -0.9150  0.4172
  269MOL0     H36303   5.800   3.344   2.670 -0.7228  0.1746  0.1106
  269MOL0     H36304   6.021   3.463   2.687  1.5292  0.2427  0.1845
  269MOL0     H36305   6.257   3.362   2.715  0.2174  0.6216 -0.4431
  269MOL0     H36306   6.226   3.541   2.704  2.3373  2.6016  1.4579
  269MOL0     H36307   6.482   3.449   2.714 -1.4867 -5.0891 -2.2383
  269MOL0     H36308   6.440   3.387   2.873 -1.3333 -2.6885 -3.0823
  269MOL0     H36309   6.537   3.615   2.922  0.2593 -0.5672  0.1068
  269MOL0     H36310   6.365   3.637   2.925  0.2381 -2.0240  0.8117
  269MOL0     H36311   6.454   3.813   2.789  0.1702 -0.4205 -0.3690
  269MOL0     H36312   6.395   3.699   2.665  0.8553 -1.3703 -0.3906
  269MOL0     H36313   6.816   3.740   2.612  0.8084 -1.0884  0.7565
  269MOL0     H36314   6.040   3.338   3.111 -1.0281 -1.2247  1.6965
  269MOL0     H36315   5.843   3.215   3.068  2.0904  1.1621  1.5734
  270MOL0     O36316   8.691   3.686   0.440 -0.4819  0.0335 -1.3529
  270MOL0     C36317   8.750   3.630   0.353 -0.5978  0.5402 -0.8465
  270MOL0     O36318   8.689   3.546   0.257  0.3255 -0.6349  0.1863
  270MOL0     C36319   8.550   3.527   0.233  0.1095 -0.5167 -0.3246
  270MOL0     C36320   8.529   3.422   0.141 -0.0878 -0.4110  0.3701
  270MOL0     C36321   8.399   3.380   0.125 -0.2812  0.0698 -0.1173
  270MOL0     C36322   8.288   3.445   0.190 -0.7384  0.4347  0.1755
  270MOL0     O36323   8.156   3.412   0.179  0.4513 -0.3623  0.8818
  270MOL0     C36324   8.124   3.299   0.098 -0.6824  0.2125 -0.6955
  270MOL0     C36325   7.975   3.292   0.068 -0.4029  1.0765 -0.6871
  270MOL0     C36326   7.954   3.290  -0.080  0.0247 -0.7511  0.4635
  270MOL0     C36327   7.798   3.306  -0.101  0.1469 -0.0016  0.2973
  270MOL0     C36328   7.747   3.359  -0.233  0.1429  0.4077 -0.1662
  270MOL0     C36329   7.756   3.248  -0.340 -0.2617 -0.2447  0.2530
  270MOL0     C36330   7.681   3.281  -0.473  0.9120 -0.0062 -0.5037
  270MOL0     C36331   7.742   3.399  -0.565 -0.9082 -0.1012 -1.2656
  270MOL0     N36332   7.656   3.423  -0.678  0.1851 -0.0201  0.4788
  270MOL0     C36333   7.544   3.499  -0.669  1.1460 -1.2929  0.6326
  270MOL0     C36334   7.486   3.496  -0.793  0.4143  0.3766 -0.3841
  270MOL0     C36335   7.360   3.571  -0.830 -0.0541  0.1523  0.5099
  270MOL0     C36336   7.223   3.509  -0.790 -0.6200 -0.4940  0.0350
  270MOL0     C36337   7.166   3.418  -0.896 -0.7177  0.3992 -0.3879
  270MOL0     C36338   7.046   3.349  -0.846 -0.0780 -0.5821  0.2841
  270MOL0     O36339   6.940   3.446  -0.819 -0.0622  0.1321  0.0557
  270MOL0     C36340   6.813   3.394  -0.800 -0.5458  0.4916 -0.1653
  270MOL0     C36341   6.724   3.486  -0.768  0.0288 -0.6179 -0.2399
  270MOL0     C36342   6.590   3.442  -0.738  0.5875 -1.2925 -0.0233
  270MOL0     C36343   6.499   3.553  -0.707  0.3425 -0.7175 -0.3761
  270MOL0     C36344   6.549   3.310  -0.750  0.1256 -0.7868 -0.5656
  270MOL0     C36345   6.410   3.261  -0.721 -0.1111 -1.0500  0.4448
  270MOL0     O36346   6.366   3.161  -0.804  0.2793 -0.4232 -0.3046
  270MOL0     C36347   6.246   3.098  -0.786 -0.0701 -0.1824 -0.8185
  270MOL0     C36348   6.127   3.156  -0.831  0.1455  0.4725  0.1131
  270MOL0     C36349   6.007   3.079  -0.831  0.0793  0.1900  0.1596
  270MOL0     C36350   6.012   2.946  -0.771  0.2704  0.5496  0.7471
  270MOL0     O36351   5.892   2.879  -0.768  0.5534 -0.1328 -0.2919
  270MOL0     C36352   5.871   2.760  -0.690 -0.1637  0.2166 -0.1309
  270MOL0     C36353   5.731   2.770  -0.616  0.5014 -0.0086  0.3123
  270MOL0     C36354   5.604   2.734  -0.698 -0.7421  0.6405 -0.6962
  270MOL0     C36355   5.584   2.791  -0.834  0.3615 -0.7895 -0.5254
  270MOL0     C36356   5.491   2.714  -0.923 -0.0849 -0.5361 -0.4336
  270MOL0     C36357   5.361   2.797  -0.957  0.3889  0.3063  0.8997
  270MOL0     C36358   5.248   2.713  -1.018  0.7540  0.1674  0.9073
  270MOL0     C36359   5.204   2.774  -1.152 -0.7094  0.5592 -0.0539
  270MOL0    Cl36360   5.067   2.667  -1.206  0.0276  0.3044  0.2061
  270MOL0     C36361   6.136   2.889  -0.747  0.6821 -0.3755  0.0563
  270MOL0     C36362   6.246   2.968  -0.750 -0.1558  0.4899  0.8108
  270MOL0     O36363   6.349   3.297  -0.620 -0.1019 -0.3147 -0.1684
  270MOL0     C36364   6.642   3.216  -0.804 -0.6537  0.2279  0.1345
  270MOL0     C36365   6.773   3.258  -0.823  0.0273 -0.3869  0.4647
  270MOL0     N36366   7.570   3.421  -0.881 -0.1157 -0.1684 -0.1963
  270MOL0     N36367   7.667   3.380  -0.808  0.2726  0.2021 -0.0680
  270MOL0     C36368   8.312   3.551   0.277 -0.1994  0.6600 -0.6820
  270MOL0     C36369   8.441   3.593   0.297 -0.3531  0.1691 -0.4955
  270MOL0     C36370   8.895   3.627   0.376  0.2755  0.7302  0.6152
  270MOL0     C36371   8.981   3.549   0.300  0.2268 -0.1789  0.7370
  270MOL0     C36372   9.118   3.547   0.321 -0.7765 -0.4754 -0.6372
  270MOL0     C36373   9.179   3.596   0.435  0.6201  0.4989 -0.2378
  270MOL0     O36374   9.308   3.607   0.450 -0.1759 -0.9331 -0.4370
  270MOL0     C36375   9.409   3.543   0.362 -0.4867 -0.0350 -0.5138
  270MOL0     C36376   9.438   3.618   0.240 -0.2368 -0.4295 -0.3059
  270MOL0     C36377   9.530   3.737   0.272 -0.2603 -0.2501  0.2201
  270MOL0     C36378   9.555   3.817   0.154 -0.0876 -1.2604 -0.4738
  270MOL0     C36379   9.436   3.863   0.089  0.4179 -0.1729 -0.6637
  270MOL0     C36380   9.343   3.902   0.022  0.6350  0.3333 -0.1371
  270MOL0     C36381   9.095   3.673   0.509  0.3570 -0.1589  0.1243
  270MOL0     C36382   8.959   3.691   0.482 -0.0753  0.0684  0.1209
  270MOL0     H36383   8.615   3.373   0.097  1.4931 -0.9432  3.7055
  270MOL0     H36384   8.371   3.297   0.061 -0.3130 -1.3177  1.6312
  270MOL0     H36385   8.181   3.309   0.006  1.5412 -0.4884  0.5217
  270MOL0     H36386   8.167   3.214   0.153 -0.1775 -0.4912 -2.1254
  270MOL0     H36387   7.949   3.196   0.112  1.1789  1.2710  0.7625
  270MOL0     H36388   7.920   3.368   0.125 -3.7733 -3.5064  2.9603
  270MOL0     H36389   8.003   3.375  -0.127  0.6605 -1.7037 -0.6408
  270MOL0     H36390   7.995   3.204  -0.132  1.8564 -0.8395  1.9494
  270MOL0     H36391   7.746   3.213  -0.079  0.0602  0.1933  0.9382
  270MOL0     H36392   7.762   3.365  -0.015  0.6396  0.6180  0.0872
  270MOL0     H36393   7.642   3.390  -0.222 -0.0468  0.9215 -2.7111
  270MOL0     H36394   7.799   3.445  -0.275  0.5753  1.6373  2.6522
  270MOL0     H36395   7.863   3.241  -0.364 -0.4552  0.9135 -1.1034
  270MOL0     H36396   7.718   3.154  -0.299 -1.7931  0.1630 -0.1555
  270MOL0     H36397   7.669   3.195  -0.538 -0.6627 -0.0630 -0.1751
  270MOL0     H36398   7.582   3.317  -0.445  1.1114  3.2203 -3.3158
  270MOL0     H36399   7.836   3.367  -0.613 -0.0494  1.3220 -0.5957
  270MOL0     H36400   7.758   3.494  -0.514  0.9558  1.0651 -3.7974
  270MOL0     H36401   7.521   3.550  -0.576 -0.0557 -1.1980  0.3007
  270MOL0     H36402   7.367   3.664  -0.773  1.0252  2.3495 -2.9128
  270MOL0     H36403   7.355   3.588  -0.938 -2.0252 -1.5415  0.2685
  270MOL0     H36404   7.159   3.593  -0.760  0.3930  0.6292 -0.8043
  270MOL0     H36405   7.232   3.443  -0.703  1.3573 -1.0415 -0.5170
  270MOL0     H36406   7.238   3.342  -0.927  1.5317  2.8561 -1.6064
  270MOL0     H36407   7.127   3.477  -0.979  2.3296  0.6849 -1.7817
  270MOL0     H36408   7.070   3.297  -0.754  0.2465  1.3143  1.3313
  270MOL0     H36409   7.009   3.286  -0.928 -0.4422 -0.0731  0.0435
  270MOL0     H36410   6.764   3.584  -0.742 -1.2371 -0.4820  1.3705
  270MOL0     H36411   6.468   3.539  -0.603 -1.4201  2.1726 -0.3950
  270MOL0     H36412   6.551   3.647  -0.728  1.6819 -1.3084  0.1909
  270MOL0     H36413   6.402   3.560  -0.758  0.9821  0.4310 -1.4828
  270MOL0     H36414   6.131   3.256  -0.872  0.5835  0.1651 -0.6001
  270MOL0     H36415   5.921   3.125  -0.877 -1.0533 -2.1317 -0.1848
  270MOL0     H36416   5.868   2.668  -0.750  0.4204  0.4303 -0.4914
  270MOL0     H36417   5.943   2.754  -0.608  0.3554  0.6894 -0.5461
  270MOL0     H36418   5.734   2.703  -0.530  1.2586  1.6282  1.6005
  270MOL0     H36419   5.726   2.876  -0.589  0.9152  1.0080 -3.1145
  270MOL0     H36420   5.513   2.751  -0.640  0.5095  1.9077  0.9998
  270MOL0     H36421   5.599   2.625  -0.707 -3.2794  0.7703 -1.6123
  270MOL0     H36422   5.546   2.893  -0.820  0.4335 -0.6640 -1.1810
  270MOL0     H36423   5.680   2.803  -0.885  0.7285  1.0747  0.4947
  270MOL0     H36424   5.470   2.617  -0.877  1.0773 -0.0850  1.1463
  270MOL0     H36425   5.556   2.691  -1.008  0.7846  0.9086 -0.2001
  270MOL0     H36426   5.323   2.856  -0.873 -0.8374  0.7492  0.0740
  270MOL0     H36427   5.394   2.864  -1.037 -0.5328  2.6671  2.3845
  270MOL0     H36428   5.170   2.718  -0.941 -0.2725 -1.8397  0.0835
  270MOL0     H36429   5.265   2.606  -1.029  0.1814  0.1793 -0.2070
  270MOL0     H36430   5.169   2.876  -1.134  0.2040  1.1418 -1.4256
  270MOL0     H36431   5.276   2.778  -1.234  0.6333 -0.4518  1.0292
  270MOL0     H36432   6.145   2.785  -0.716  1.4699  0.2899  2.2846
  270MOL0     H36433   6.333   2.910  -0.720  0.1997  1.2274  1.2372
  270MOL0     H36434   6.628   3.109  -0.812 -1.3158  0.2709  0.6335
  270MOL0     H36435   6.837   3.182  -0.866  0.7142  0.1388  0.5430
  270MOL0     H36436   8.231   3.592   0.336 -0.3707 -0.0343 -0.4320
  270MOL0     H36437   8.450   3.675   0.367 -0.7204  1.1999 -1.6256
  270MOL0     H36438   8.949   3.500   0.210 -0.2735  0.0513  0.7889
  270MOL0     H36439   9.181   3.504   0.244  1.0449 -0.7660  0.9505
  270MOL0     H36440   9.497   3.516   0.420 -1.7773 -1.2799  0.9917
  270MOL0     H36441   9.364   3.449   0.328 -2.3126 -0.2689  2.2159
  270MOL0     H36442   9.343   3.651   0.196 -0.2530  0.8975  0.6892
  270MOL0     H36443   9.485   3.543   0.176  0.4210 -0.9198  0.7182
  270MOL0     H36444   9.626   3.705   0.315  2.5585  1.0832 -4.3738
  270MOL0     H36445   9.485   3.802   0.347 -3.4000  1.7967 -3.1100
  270MOL0     H36446   9.627   3.782   0.079  2.9365  4.4574 -0.8722
  270MOL0     H36447   9.610   3.910   0.176  0.4332 -1.6474 -0.1075
  270MOL0     H36448   9.263   3.947  -0.034  0.4491  3.7033  2.5316
  270MOL0     H36449   9.134   3.734   0.590  1.9420 -3.1753  1.7959
  270MOL0     H36450   8.901   3.759   0.544  0.1106 -1.1626  1.6997
  271MOL0     O36451  10.091   6.769   2.570 -0.1044  0.0825 -0.1167
  271MOL0     C36452  10.102   6.795   2.692 -0.4618 -0.7060 -0.0877
  271MOL0     O36453  10.018   6.875   2.757 -0.7647 -0.5175  0.8454
  271MOL0     C36454   9.896   6.921   2.712  0.1786 -0.1058 -0.0360
  271MOL0     C36455   9.812   6.853   2.622  0.3589  0.0264 -0.1300
  271MOL0     C36456   9.688   6.899   2.577 -0.8268 -0.0038 -0.3040
  271MOL0     C36457   9.647   7.021   2.621 -0.1129 -0.1072 -0.0258
  271MOL0     O36458   9.528   7.069   2.576  0.7740  0.0846  0.4295
  271MOL0     C36459   9.464   7.181   2.648  0.0258  0.2483 -0.2345
  271MOL0     C36460   9.324   7.214   2.593 -0.4328  1.1676  0.3768
  271MOL0     C36461   9.276   7.358   2.629 -0.3210  0.6676 -0.1442
  271MOL0     C36462   9.172   7.405   2.532 -0.7860  0.8541  0.0895
  271MOL0     C36463   9.044   7.333   2.533  0.3652  0.2155 -0.6386
  271MOL0     C36464   8.964   7.388   2.658 -0.4926 -0.0562 -1.3536
  271MOL0     C36465   8.827   7.319   2.674 -0.1437 -0.4834  0.1976
  271MOL0     C36466   8.744   7.348   2.796  0.4966 -0.1938 -0.0938
  271MOL0     N36467   8.613   7.272   2.781  0.0914 -0.5084 -0.0562
  271MOL0     C36468   8.595   7.145   2.825  0.1593 -0.6804 -0.0358
  271MOL0     C36469   8.466   7.113   2.800 -1.2187  0.0827  1.2450
  271MOL0     C36470   8.406   6.978   2.812 -0.8327 -0.6708 -0.3585
  271MOL0     C36471   8.256   6.976   2.772 -0.8705 -0.2541  0.0131
  271MOL0     C36472   8.187   6.857   2.831 -0.0940  0.0010 -0.7739
  271MOL0     C36473   8.042   6.840   2.782 -0.3640  0.5850 -0.9177
  271MOL0     O36474   7.975   6.730   2.857  0.5417  0.0642 -0.6800
  271MOL0     C36475   7.845   6.690   2.823  0.0607  1.3593 -0.3849
  271MOL0     C36476   7.753   6.749   2.730  0.0033  0.3830 -0.4387
  271MOL0     C36477   7.627   6.685   2.704 -0.1849  0.1377 -0.2649
  271MOL0     C36478   7.542   6.750   2.604  0.1640  0.0542 -0.2022
  271MOL0     C36479   7.587   6.567   2.775 -0.6189  0.4351  0.5095
  271MOL0     C36480   7.468   6.479   2.746  0.2779  0.0687 -0.2005
  271MOL0     O36481   7.429   6.458   2.619  0.2984 -0.0787  0.5769
  271MOL0     C36482   7.304   6.410   2.603 -0.1763  0.4365 -0.3519
  271MOL0     C36483   7.273   6.269   2.587 -0.4641 -0.0879  0.8680
  271MOL0     C36484   7.146   6.230   2.563  1.1291  0.0933 -0.3538
  271MOL0     C36485   7.039   6.321   2.560  0.4794 -0.6219  0.2283
  271MOL0     O36486   6.904   6.288   2.562 -0.3400  0.5767  0.7106
  271MOL0     C36487   6.861   6.177   2.649  1.9156  0.0833 -0.0758
  271MOL0     C36488   6.710   6.171   2.614 -0.3262 -0.3324  0.5033
  271MOL0     C36489   6.633   6.067   2.695  0.4820 -0.3526  0.5421
  271MOL0     C36490   6.489   6.103   2.667 -0.3396 -1.3238 -0.0148
  271MOL0     C36491   6.390   5.998   2.713  0.0415  0.1771  0.8515
  271MOL0     C36492   6.249   6.000   2.679 -0.9041  0.6248  0.6768
  271MOL0     C36493   6.163   5.922   2.778  1.0821  0.1400 -0.5755
  271MOL0     C36494   6.016   5.941   2.741 -0.6647  0.1872 -0.2800
  271MOL0    Cl36495   5.919   5.871   2.873 -0.2583 -0.1468 -0.2232
  271MOL0     C36496   7.064   6.457   2.568 -0.3762  0.3120 -0.1343
  271MOL0     C36497   7.195   6.495   2.599 -0.7631 -0.0738  0.2128
  271MOL0     O36498   7.424   6.427   2.848 -0.6888  0.2950  0.5486
  271MOL0     C36499   7.675   6.527   2.877  0.3612  0.3566  0.6920
  271MOL0     C36500   7.799   6.580   2.894  0.8551  0.2867  0.3241
  271MOL0     N36501   8.411   7.222   2.743  0.3755 -0.1834  0.5608
  271MOL0     N36502   8.494   7.318   2.735 -0.2997  0.1380 -0.5053
  271MOL0     C36503   9.721   7.090   2.720  0.0390  0.2111  0.4413
  271MOL0     C36504   9.842   7.040   2.762  0.2821  0.9568  0.3937
  271MOL0     C36505  10.219   6.740   2.760 -0.7000 -0.1274 -1.0986
  271MOL0     C36506  10.335   6.712   2.699 -0.3557 -0.4779  0.0427
  271MOL0     C36507  10.452   6.680   2.763  0.7874  0.2918 -0.1880
  271MOL0     C36508  10.453   6.689   2.902  0.2823  0.1796  0.3149
  271MOL0     O36509  10.571   6.670   2.963 -0.1475 -0.2311 -0.1248
  271MOL0     C36510  10.644   6.554   2.936 -0.8520  0.5946 -0.6675
  271MOL0     C36511  10.720   6.536   3.068  0.3216 -0.0230  0.1721
  271MOL0     C36512  10.628   6.477   3.182  0.1263  0.0879 -0.0334
  271MOL0     C36513  10.589   6.330   3.157 -0.8075  0.0550 -0.2408
  271MOL0     C36514  10.704   6.244   3.191  0.8042  0.2645  0.3857
  271MOL0     C36515  10.810   6.175   3.189 -0.8517 -0.8925 -0.5159
  271MOL0     C36516  10.336   6.703   2.978 -0.5100  0.4931  0.2147
  271MOL0     C36517  10.217   6.730   2.904  0.0266 -0.1529  0.0747
  271MOL0     H36518   9.847   6.757   2.583  2.6690  0.2407  1.2374
  271MOL0     H36519   9.624   6.845   2.508  0.8261  1.3034 -3.0455
  271MOL0     H36520   9.457   7.155   2.754  2.9470  2.8509  0.7741
  271MOL0     H36521   9.535   7.262   2.627  2.9331 -2.2943 -1.0299
  271MOL0     H36522   9.339   7.209   2.485  0.6303  0.4397  0.5425
  271MOL0     H36523   9.253   7.135   2.620 -2.3064  1.6630 -2.6439
  271MOL0     H36524   9.226   7.358   2.727 -1.8793 -0.7283 -0.8878
  271MOL0     H36525   9.356   7.433   2.627  0.1084  0.2140 -0.2984
  271MOL0     H36526   9.144   7.508   2.559 -0.0541  0.8211  1.0381
  271MOL0     H36527   9.220   7.409   2.434  0.5161  0.6279  0.6971
  271MOL0     H36528   8.988   7.354   2.442 -1.0100 -0.5582  0.0046
  271MOL0     H36529   9.075   7.228   2.540  2.1558  0.7049 -0.6991
  271MOL0     H36530   9.016   7.370   2.752  0.5712 -1.7515 -2.2183
  271MOL0     H36531   8.955   7.497   2.646  1.0981  0.4603  1.3142
  271MOL0     H36532   8.759   7.332   2.589  1.6781  0.6744 -1.1574
  271MOL0     H36533   8.852   7.212   2.677  2.8588  0.1521  2.1545
  271MOL0     H36534   8.729   7.453   2.825 -2.1528 -0.7140  0.6236
  271MOL0     H36535   8.803   7.318   2.883 -0.2088 -2.8314 -0.4528
  271MOL0     H36536   8.666   7.074   2.867  0.1139  0.0261  1.2720
  271MOL0     H36537   8.462   6.912   2.745 -1.1258  0.6411 -1.9630
  271MOL0     H36538   8.417   6.943   2.915  1.8000  0.2724 -0.2521
  271MOL0     H36539   8.240   6.982   2.664  0.1015 -1.0580 -0.1815
  271MOL0     H36540   8.202   7.063   2.812 -0.7292 -0.2463  0.1854
  271MOL0     H36541   8.194   6.869   2.939  1.4864 -0.6740 -0.7664
  271MOL0     H36542   8.238   6.764   2.802  1.5047  0.6481 -0.1211
  271MOL0     H36543   8.037   6.815   2.676  3.5110 -0.7865 -0.9445
  271MOL0     H36544   7.991   6.934   2.806  0.2439  1.0184 -1.3084
  271MOL0     H36545   7.792   6.842   2.690 -0.3119  0.2811 -1.0083
  271MOL0     H36546   7.437   6.749   2.634 -0.2068 -0.8099 -1.4706
  271MOL0     H36547   7.578   6.853   2.610  2.6678 -0.8407  2.1824
  271MOL0     H36548   7.560   6.707   2.505  1.1471  0.2044 -0.0969
  271MOL0     H36549   7.346   6.190   2.595  0.4151  0.6840  0.6090
  271MOL0     H36550   7.127   6.123   2.552  2.0708 -0.0203 -1.0738
  271MOL0     H36551   6.908   6.079   2.640 -0.5115 -1.4067  2.1029
  271MOL0     H36552   6.856   6.193   2.757 -1.4008 -1.1773  0.0510
  271MOL0     H36553   6.678   6.273   2.637  1.4850  0.5170 -0.5533
  271MOL0     H36554   6.690   6.155   2.507 -3.3929  0.2290  0.8832
  271MOL0     H36555   6.649   6.088   2.801 -0.0602  2.7728  0.0821
  271MOL0     H36556   6.669   5.968   2.665 -1.4079 -0.3228 -2.1040
  271MOL0     H36557   6.475   6.202   2.711  0.0714  0.0296 -2.7209
  271MOL0     H36558   6.485   6.123   2.559 -1.2475  2.3850  0.5731
  271MOL0     H36559   6.405   6.010   2.821  2.0053 -0.9037  0.7394
  271MOL0     H36560   6.421   5.899   2.677 -0.5346  0.8682 -1.7062
  271MOL0     H36561   6.214   6.104   2.675 -0.7005  0.6617 -1.0144
  271MOL0     H36562   6.247   5.955   2.579  3.1038  0.4950  0.5063
  271MOL0     H36563   6.177   5.961   2.879 -0.3730  1.7160 -0.9234
  271MOL0     H36564   6.201   5.819   2.776  0.2591 -0.2537  1.4031
  271MOL0     H36565   6.000   5.903   2.639  0.1841 -0.4780 -0.1739
  271MOL0     H36566   5.995   6.048   2.746 -4.9615 -0.5430  2.1437
  271MOL0     H36567   6.983   6.529   2.573  0.5083  1.3977 -0.8497
  271MOL0     H36568   7.214   6.600   2.618  3.6169 -1.0877  2.8493
  271MOL0     H36569   7.660   6.437   2.935  0.2495  0.5611  0.9809
  271MOL0     H36570   7.861   6.538   2.973  1.9774  1.7755  0.2938
  271MOL0     H36571   9.689   7.188   2.754 -0.6166 -0.3241  1.4031
  271MOL0     H36572   9.908   7.104   2.820 -0.6043  1.0842  1.2855
  271MOL0     H36573  10.341   6.733   2.593  1.5729  4.1349  0.8068
  271MOL0     H36574  10.536   6.671   2.695 -0.6853 -0.9299 -1.9452
  271MOL0     H36575  10.584   6.467   2.910  0.0081 -0.9592  2.1092
  271MOL0     H36576  10.719   6.569   2.859 -2.5402 -0.9462 -2.7055
  271MOL0     H36577  10.756   6.633   3.101  0.5326  0.5066 -1.5100
  271MOL0     H36578  10.812   6.477   3.063  0.3283  0.0339 -0.4839
  271MOL0     H36579  10.535   6.534   3.192  0.0780 -0.1909  1.2635
  271MOL0     H36580  10.688   6.489   3.273  0.5005  0.4193 -0.3182
  271MOL0     H36581  10.553   6.322   3.054  2.1934  2.5292 -1.6468
  271MOL0     H36582  10.510   6.312   3.229  0.1174  2.3526  1.4670
  271MOL0     H36583  10.898   6.113   3.191  0.1465  0.4986  1.3072
  271MOL0     H36584  10.338   6.706   3.086  0.0862 -0.7523  0.2426
  271MOL0     H36585  10.124   6.747   2.958  0.0804  0.2513  0.0459
  272MOL0     O36586   0.036   5.449   3.664 -0.1996  0.0254 -0.2338
  272MOL0     C36587  -0.009   5.364   3.741 -0.9679  0.1590  0.2740
  272MOL0     O36588  -0.112   5.377   3.830  0.9475 -0.6341 -0.4090
  272MOL0     C36589  -0.168   5.501   3.859 -0.1708 -0.6315  0.4188
  272MOL0     C36590  -0.295   5.497   3.931 -0.4073  0.5106 -0.1693
  272MOL0     C36591  -0.355   5.622   3.972 -0.4318 -0.7591 -0.0072
  272MOL0     C36592  -0.283   5.743   3.951  0.2081  0.7507 -0.0768
  272MOL0     O36593  -0.332   5.867   3.998  0.3705  0.0254 -0.7166
  272MOL0     C36594  -0.461   5.891   3.939  0.2964  0.7600  0.6128
  272MOL0     C36595  -0.517   6.012   4.014  0.3641  1.3820  0.6134
  272MOL0     C36596  -0.659   6.043   3.970  0.1648  0.8471  0.2466
  272MOL0     C36597  -0.702   6.181   4.016 -0.1180  0.0557  0.1024
  272MOL0     C36598  -0.834   6.198   3.944  0.0725 -0.1432  0.3109
  272MOL0     C36599  -0.854   6.352   3.950  0.2453  0.7886  0.2433
  272MOL0     C36600  -0.989   6.387   3.908 -0.1590 -0.0649 -0.3989
  272MOL0     C36601  -1.026   6.522   3.970  0.3693  0.1929 -0.0662
  272MOL0     N36602  -1.159   6.561   3.935  0.6398 -0.0166  0.0815
  272MOL0     C36603  -1.278   6.573   4.015 -0.2311 -0.1198 -0.9425
  272MOL0     C36604  -1.361   6.647   3.942 -0.0583 -0.0290 -0.6361
  272MOL0     C36605  -1.508   6.672   3.972  0.2933  0.8807  0.4698
  272MOL0     C36606  -1.594   6.548   3.979  0.4039 -0.0435  0.1283
  272MOL0     C36607  -1.560   6.449   3.856 -0.3289  1.0939 -0.7386
  272MOL0     C36608  -1.633   6.311   3.850  0.6980  0.1877 -0.0893
  272MOL0     O36609  -1.774   6.315   3.854  1.0918  0.4285  0.1602
  272MOL0     C36610  -1.847   6.352   3.739  0.3397 -0.3090  0.7929
  272MOL0     C36611  -1.790   6.380   3.612  0.1070 -0.0501  0.2618
  272MOL0     C36612  -1.864   6.417   3.498 -0.3621  0.1541  0.0099
  272MOL0     C36613  -1.807   6.437   3.369  0.1270 -0.5101  0.2149
  272MOL0     C36614  -2.004   6.427   3.509 -0.9778  0.6040 -0.3804
  272MOL0     C36615  -2.101   6.455   3.407  0.5653 -0.5507 -0.4175
  272MOL0     O36616  -2.220   6.513   3.436 -0.1104 -0.5583 -0.0296
  272MOL0     C36617  -2.320   6.533   3.340 -0.4774  0.1399 -0.7956
  272MOL0     C36618  -2.445   6.476   3.358 -0.2117 -0.1412 -0.9200
  272MOL0     C36619  -2.536   6.498   3.260  0.8477 -0.6016  0.3749
  272MOL0     C36620  -2.512   6.576   3.149  0.4507  0.0363 -0.3031
  272MOL0     O36621  -2.620   6.584   3.067  0.5088 -0.1319 -0.1218
  272MOL0     C36622  -2.638   6.689   2.968  0.6055 -0.4455  0.7979
  272MOL0     C36623  -2.773   6.683   2.896 -0.0657 -0.3106 -0.8236
  272MOL0     C36624  -2.799   6.548   2.822 -0.4958  0.4842 -0.0710
  272MOL0     C36625  -2.937   6.546   2.749 -0.3731 -0.3827  0.2695
  272MOL0     C36626  -2.936   6.449   2.636  0.3002 -0.0003  0.1189
  272MOL0     C36627  -3.065   6.442   2.563 -0.5126 -0.8592 -0.6328
  272MOL0     C36628  -3.171   6.388   2.656 -0.3127  0.2923 -0.0663
  272MOL0     C36629  -3.285   6.347   2.578 -0.0210 -0.2175  0.2417
  272MOL0    Cl36630  -3.346   6.480   2.477 -0.2582  0.0376  0.0098
  272MOL0     C36631  -2.394   6.646   3.136 -0.1820 -0.5490 -0.3976
  272MOL0     C36632  -2.298   6.625   3.241 -0.3865 -0.8899  1.0218
  272MOL0     O36633  -2.074   6.405   3.301 -0.2932 -0.2548 -0.7845
  272MOL0     C36634  -2.057   6.408   3.634  0.5450  0.5880  1.0135
  272MOL0     C36635  -1.985   6.359   3.743 -0.5107  0.3179  0.1258
  272MOL0     N36636  -1.302   6.677   3.820 -0.2018  0.0213  0.8429
  272MOL0     N36637  -1.184   6.626   3.822 -0.3813 -1.1119  0.5574
  272MOL0     C36638  -0.158   5.746   3.883 -0.9740 -0.0816  0.7264
  272MOL0     C36639  -0.104   5.629   3.838 -0.5771  0.2287 -0.1554
  272MOL0     C36640   0.065   5.234   3.742  0.4646 -0.5196 -0.5554
  272MOL0     C36641   0.056   5.153   3.872 -0.2965 -0.1178  0.1870
  272MOL0     C36642   0.126   5.037   3.880 -0.2814 -0.3358  0.2769
  272MOL0     C36643   0.208   4.995   3.776 -0.0737 -0.2351  0.1854
  272MOL0     O36644   0.255   4.872   3.786  0.0902 -0.1916  0.0715
  272MOL0     C36645   0.366   4.822   3.713  0.5780  0.0699 -0.2570
  272MOL0     C36646   0.490   4.866   3.797 -0.3378  0.1039 -0.5386
  272MOL0     C36647   0.619   4.785   3.746  0.4183 -0.9495 -1.2448
  272MOL0     C36648   0.663   4.833   3.607 -0.2693  0.1444  0.2765
  272MOL0     C36649   0.612   4.758   3.488 -0.0554 -0.9335 -0.4550
  272MOL0     C36650   0.583   4.701   3.385 -0.6736  0.1135 -0.0514
  272MOL0     C36651   0.230   5.080   3.666  0.8152  0.8539  0.1601
  272MOL0     C36652   0.160   5.195   3.639 -0.5378  0.8791  0.0940
  272MOL0     H36653  -0.327   5.397   3.958  2.2660 -0.2749  0.3580
  272MOL0     H36654  -0.437   5.603   4.041  0.5007 -1.4913  0.9570
  272MOL0     H36655  -0.443   5.913   3.833 -3.9813  1.3879 -0.1721
  272MOL0     H36656  -0.526   5.804   3.950  2.7160 -1.3007 -0.4127
  272MOL0     H36657  -0.512   5.988   4.121  0.2610  0.8178  0.4956
  272MOL0     H36658  -0.452   6.093   3.979 -1.1333  2.7901  0.9568
  272MOL0     H36659  -0.651   6.023   3.863  0.2482  0.0151  0.4019
  272MOL0     H36660  -0.719   5.967   4.021  0.8112  1.1063  1.4228
  272MOL0     H36661  -0.715   6.184   4.125  2.4540  1.1870  0.4660
  272MOL0     H36662  -0.618   6.244   3.984  0.3782 -0.0451  1.1434
  272MOL0     H36663  -0.827   6.156   3.843  2.6901 -1.2678  0.9029
  272MOL0     H36664  -0.914   6.150   4.001 -1.4158  2.4679  0.5783
  272MOL0     H36665  -0.833   6.382   4.053  1.1046 -0.9700  0.6108
  272MOL0     H36666  -0.793   6.410   3.880 -1.6626  2.3784 -0.1878
  272MOL0     H36667  -0.996   6.399   3.799  1.2319  2.7731 -0.2687
  272MOL0     H36668  -1.058   6.304   3.923  0.9642 -1.1882 -1.2271
  272MOL0     H36669  -0.951   6.597   3.941 -2.6348  2.7504 -1.8570
  272MOL0     H36670  -1.026   6.526   4.079 -1.9144 -0.6763  0.0063
  272MOL0     H36671  -1.292   6.528   4.113 -1.3075  3.0253  0.4760
  272MOL0     H36672  -1.528   6.739   4.056  1.1548  0.4253  1.0473
  272MOL0     H36673  -1.540   6.725   3.881 -1.1103  0.0794  0.4601
  272MOL0     H36674  -1.699   6.579   3.976  0.6689  0.8896  0.2774
  272MOL0     H36675  -1.568   6.505   4.076  2.8700  2.3341  0.6187
  272MOL0     H36676  -1.457   6.412   3.863 -0.1402  1.1734 -2.5435
  272MOL0     H36677  -1.564   6.489   3.755 -1.4942 -2.0202 -2.0555
  272MOL0     H36678  -1.605   6.261   3.943 -2.8144 -1.6662  0.1151
  272MOL0     H36679  -1.594   6.250   3.768  1.4232 -1.2379  1.2561
  272MOL0     H36680  -1.683   6.367   3.601  0.1115  0.9893 -1.2112
  272MOL0     H36681  -1.857   6.509   3.303  1.2687 -2.2049 -2.6752
  272MOL0     H36682  -1.704   6.474   3.373 -0.1331  0.7023 -2.0227
  272MOL0     H36683  -1.798   6.343   3.314 -0.4743  0.8814 -2.4585
  272MOL0     H36684  -2.465   6.406   3.438  2.7777  0.2647  0.3103
  272MOL0     H36685  -2.635   6.453   3.263 -0.9253  2.9611  1.4635
  272MOL0     H36686  -2.627   6.787   3.015  1.5928 -0.4534  0.5912
  272MOL0     H36687  -2.558   6.685   2.894  0.1827  0.8622  0.2360
  272MOL0     H36688  -2.856   6.714   2.960  0.0325 -0.2154 -0.7410
  272MOL0     H36689  -2.781   6.757   2.816 -3.6309 -0.2499 -0.5749
  272MOL0     H36690  -2.772   6.466   2.889  1.4446  0.7775 -0.4474
  272MOL0     H36691  -2.731   6.547   2.737 -3.0901  2.9472 -2.3955
  272MOL0     H36692  -3.011   6.516   2.824  1.1934  0.0473  2.0742
  272MOL0     H36693  -2.955   6.649   2.717  0.4846 -0.0653  0.7847
  272MOL0     H36694  -2.908   6.348   2.666  0.9705  0.3717  0.7664
  272MOL0     H36695  -2.856   6.474   2.566 -0.2702  0.2997 -0.4435
  272MOL0     H36696  -3.100   6.544   2.543 -1.7295 -1.2078 -0.3519
  272MOL0     H36697  -3.058   6.395   2.464  1.2530  0.8379 -1.3847
  272MOL0     H36698  -3.207   6.463   2.727 -0.1897  0.3529 -0.0684
  272MOL0     H36699  -3.129   6.304   2.713  2.0688  1.2725 -0.2592
  272MOL0     H36700  -3.363   6.313   2.647 -0.8608 -1.0164 -1.0485
  272MOL0     H36701  -3.254   6.265   2.513 -0.3297 -0.1002 -0.0555
  272MOL0     H36702  -2.378   6.710   3.050 -2.5979 -0.6241 -0.9845
  272MOL0     H36703  -2.209   6.686   3.230  0.5422 -2.5654 -2.1492
  272MOL0     H36704  -2.163   6.418   3.655 -0.2777  2.1157 -2.9120
  272MOL0     H36705  -2.032   6.340   3.839  0.6895  0.0780  0.6839
  272MOL0     H36706  -0.100   5.837   3.874 -1.3522  0.2200  1.2966
  272MOL0     H36707  -0.012   5.635   3.781 -0.5623 -0.7471 -0.2565
  272MOL0     H36708   0.000   5.180   3.962  0.6566  0.0496  0.7426
  272MOL0     H36709   0.115   4.984   3.974  2.1496 -1.8428 -0.2025
  272MOL0     H36710   0.366   4.714   3.693 -0.2616 -0.0840  0.5287
  272MOL0     H36711   0.354   4.863   3.612 -1.4945  1.5283  0.5310
  272MOL0     H36712   0.469   4.854   3.904 -1.6029 -0.1737 -0.7942
  272MOL0     H36713   0.517   4.971   3.784  1.3634 -0.2048  0.2309
  272MOL0     H36714   0.599   4.678   3.756 -3.6557 -0.1884  2.9789
  272MOL0     H36715   0.695   4.819   3.817 -2.0628 -1.0069  1.6918
  272MOL0     H36716   0.772   4.835   3.605 -0.2398  2.0939  1.6269
  272MOL0     H36717   0.622   4.933   3.595  0.4153  0.5355  1.0794
  272MOL0     H36718   0.555   4.665   3.288  0.7489  3.9439 -2.0960
  272MOL0     H36719   0.301   5.053   3.588 -1.1501  0.7530 -1.7268
  272MOL0     H36720   0.173   5.249   3.546 -0.1443  1.2668  0.3703
  273MOL0     O36721  10.318   9.045  10.413 -0.0028  0.5482 -0.3418
  273MOL0     C36722  10.317   8.981  10.309 -0.2147 -0.0260 -0.2740
  273MOL0     O36723  10.217   8.976  10.220  0.1305 -0.9312 -0.5079
  273MOL0     C36724  10.096   8.956  10.272  0.5564 -0.1130 -0.6440
  273MOL0     C36725  10.046   8.870  10.372  1.1769  0.0058 -0.1188
  273MOL0     C36726   9.918   8.886  10.424 -0.7035 -0.2520 -0.1147
  273MOL0     C36727   9.836   8.995  10.383 -0.6260  0.5670  0.2857
  273MOL0     O36728   9.717   9.037  10.435  0.2787 -0.1316 -0.2249
  273MOL0     C36729   9.705   9.011  10.579 -0.4603  0.4920 -1.0479
  273MOL0     C36730   9.580   8.911  10.597  0.1123 -0.3295 -0.8457
  273MOL0     C36731   9.457   9.011  10.633 -0.2729  1.1775  0.5359
  273MOL0     C36732   9.348   8.924  10.696 -0.2098 -0.4196  0.3738
  273MOL0     C36733   9.212   8.990  10.691  0.4269 -0.1974 -0.5408
  273MOL0     C36734   9.107   8.899  10.759  0.3339  0.7786  0.1179
  273MOL0     C36735   8.979   8.974  10.760 -0.0994  0.6259 -1.0960
  273MOL0     C36736   8.872   8.876  10.806  1.0827  0.6811  0.3398
  273MOL0     N36737   8.743   8.946  10.820 -0.3673 -0.5582  0.4332
  273MOL0     C36738   8.679   9.024  10.727 -0.0926  0.6804  0.2105
  273MOL0     C36739   8.556   9.052  10.785  0.0459 -0.6736 -0.4333
  273MOL0     C36740   8.451   9.150  10.740 -0.0415  0.0231 -0.0165
  273MOL0     C36741   8.476   9.299  10.784 -0.0188 -0.0961 -0.5293
  273MOL0     C36742   8.377   9.404  10.729  0.5188 -0.1004 -0.9511
  273MOL0     C36743   8.371   9.531  10.828 -0.1198  0.7941  0.6934
  273MOL0     O36744   8.281   9.512  10.936 -0.1288 -0.6188 -0.0794
  273MOL0     C36745   8.148   9.502  10.915 -0.3621 -0.2021  0.4584
  273MOL0     C36746   8.087   9.536  10.797  0.1109 -0.5050  0.2607
  273MOL0     C36747   7.954   9.510  10.770 -0.2161  0.1706  0.5705
  273MOL0     C36748   7.920   9.536  10.623 -0.0915 -0.4369 -0.7832
  273MOL0     C36749   7.872   9.443  10.870 -0.4076  0.2327 -0.6984
  273MOL0     C36750   7.727   9.421  10.854  0.5787 -0.3128 -0.5510
  273MOL0     O36751   7.669   9.473  10.748  0.8425 -0.6013  0.0976
  273MOL0     C36752   7.532   9.473  10.726  0.2727 -0.2326 -0.6488
  273MOL0     C36753   7.427   9.473  10.825  0.5056  0.2498 -0.2692
  273MOL0     C36754   7.292   9.446  10.785 -0.0462  0.3453  0.0991
  273MOL0     C36755   7.260   9.438  10.649  0.7788  0.1520  0.0778
  273MOL0     O36756   7.139   9.429  10.586 -0.5620 -1.3496 -0.2230
  273MOL0     C36757   7.025   9.441  10.665 -0.2675 -0.8771 -0.7577
  273MOL0     C36758   6.902   9.452  10.578 -0.4212  0.7498 -0.0182
  273MOL0     C36759   6.867   9.324  10.491  0.4271  0.2500  0.1425
  273MOL0     C36760   6.726   9.345  10.429  0.1525  0.3047 -0.3838
  273MOL0     C36761   6.668   9.218  10.362  0.3130  0.6531  0.7143
  273MOL0     C36762   6.573   9.230  10.240  0.5177 -0.4428 -0.1202
  273MOL0     C36763   6.497   9.098  10.223  0.1594  0.0429 -0.3723
  273MOL0     C36764   6.379   9.104  10.322  0.5144  0.0226  0.4482
  273MOL0    Cl36765   6.268   9.248  10.295  0.3737 -0.2547 -0.6217
  273MOL0     C36766   7.366   9.437  10.560  0.0096 -0.3329 -0.3535
  273MOL0     C36767   7.492   9.463  10.598 -0.3733 -0.1982 -0.1160
  273MOL0     O36768   7.672   9.355  10.940  0.6594 -0.7277 -0.4207
  273MOL0     C36769   7.937   9.408  10.996  1.1683  0.7978  0.4707
  273MOL0     C36770   8.068   9.439  11.014 -0.6373 -0.2874 -0.8581
  273MOL0     N36771   8.559   9.009  10.913 -0.5100 -0.1575  0.0182
  273MOL0     N36772   8.665   8.942  10.931 -0.1623  0.2300 -0.0460
  273MOL0     C36773   9.888   9.077  10.279 -0.0178  0.3966 -0.7867
  273MOL0     C36774  10.015   9.062  10.228 -0.9764  0.3577 -0.7822
  273MOL0     C36775  10.448   8.941  10.256  0.6241 -0.6499  0.5390
  273MOL0     C36776  10.560   9.014  10.282  0.2758 -0.1034 -0.5132
  273MOL0     C36777  10.682   8.972  10.243 -0.5739 -0.9925 -0.0457
  273MOL0     C36778  10.699   8.854  10.157 -0.4016 -0.4186  0.4470
  273MOL0     O36779  10.806   8.812  10.089  0.2584  0.3735 -0.2281
  273MOL0     C36780  10.938   8.857  10.115 -0.3693  0.4799  0.2175
  273MOL0     C36781  11.043   8.761  10.045 -0.6466  0.8964  0.0205
  273MOL0     C36782  11.180   8.793  10.101 -0.1344 -0.1299  0.3864
  273MOL0     C36783  11.302   8.746  10.022  0.2833  0.7264  0.5892
  273MOL0     C36784  11.418   8.731  10.108  0.6498  0.0819  0.5038
  273MOL0     C36785  11.520   8.726  10.171  0.2434 -0.3784 -0.0647
  273MOL0     C36786  10.585   8.786  10.126  0.5175 -0.1752  0.5129
  273MOL0     C36787  10.454   8.830  10.167  0.1924  0.4785 -0.5709
  273MOL0     H36788  10.107   8.791  10.414  1.6143  0.7461  0.6683
  273MOL0     H36789   9.888   8.820  10.505 -2.9796  2.6168  1.5659
  273MOL0     H36790   9.796   8.969  10.621 -0.7618  0.6341 -0.2363
  273MOL0     H36791   9.692   9.102  10.638  0.3539 -0.5109  0.7389
  273MOL0     H36792   9.561   8.860  10.502 -0.3162  2.9796 -2.7076
  273MOL0     H36793   9.599   8.842  10.679  1.2698  1.3256  0.3520
  273MOL0     H36794   9.479   9.081  10.713  0.3093  1.3050  0.2623
  273MOL0     H36795   9.426   9.054  10.537 -0.7539 -1.8786 -0.8149
  273MOL0     H36796   9.338   8.830  10.642  2.2774 -0.5781  0.0726
  273MOL0     H36797   9.364   8.903  10.802 -3.7057 -2.5723  0.6277
  273MOL0     H36798   9.221   9.086  10.743 -1.2236 -0.6533  0.6372
  273MOL0     H36799   9.175   9.007  10.590  0.0647  1.6041 -0.1492
  273MOL0     H36800   9.087   8.807  10.703 -2.6688  2.2400 -1.4613
  273MOL0     H36801   9.146   8.874  10.859 -0.2168 -4.1352 -0.6328
  273MOL0     H36802   8.975   9.056  10.832  2.4189 -0.6122  0.6121
  273MOL0     H36803   8.951   9.004  10.659  0.5243 -0.9624 -1.7688
  273MOL0     H36804   8.897   8.841  10.907 -0.0931  2.0247  1.1287
  273MOL0     H36805   8.854   8.789  10.743 -1.8803 -1.3802  3.6359
  273MOL0     H36806   8.731   9.058  10.637 -0.5273  0.9780  0.0690
  273MOL0     H36807   8.452   9.152  10.630  2.6402  2.0380 -0.0525
  273MOL0     H36808   8.354   9.126  10.785 -1.1188  2.0696 -1.0822
  273MOL0     H36809   8.565   9.349  10.744 -0.4323  2.3207  1.3451
  273MOL0     H36810   8.485   9.305  10.893  0.0192  2.6405 -0.6121
  273MOL0     H36811   8.275   9.370  10.709 -0.4324  1.9408  0.0831
  273MOL0     H36812   8.423   9.432  10.634 -2.8787 -0.7626 -2.9484
  273MOL0     H36813   8.346   9.616  10.764  0.1494  0.8993  0.7257
  273MOL0     H36814   8.473   9.551  10.863  2.1635 -1.5210 -3.7889
  273MOL0     H36815   8.139   9.582  10.713 -2.3502 -1.3064 -1.8061
  273MOL0     H36816   7.858   9.622  10.598 -0.3480 -1.3761 -3.8133
  273MOL0     H36817   8.011   9.552  10.565  0.2623 -0.3254 -0.2079
  273MOL0     H36818   7.872   9.445  10.587  0.6209 -0.7903 -0.8652
  273MOL0     H36819   7.452   9.478  10.930 -1.1947 -3.4084  0.4702
  273MOL0     H36820   7.213   9.445  10.860 -0.3896 -2.0828 -0.2114
  273MOL0     H36821   7.012   9.355  10.730 -2.0587 -0.3282 -0.3515
  273MOL0     H36822   7.036   9.532  10.724 -2.0549  0.7007 -2.6764
  273MOL0     H36823   6.821   9.449  10.652  0.0695  0.0337  0.4963
  273MOL0     H36824   6.912   9.540  10.514  1.8225 -0.9271 -2.1482
  273MOL0     H36825   6.860   9.233  10.551 -2.4341 -0.4536 -1.0870
  273MOL0     H36826   6.942   9.308  10.413 -0.7243 -0.2715 -0.9020
  273MOL0     H36827   6.667   9.379  10.514  1.6994  2.1079  0.0494
  273MOL0     H36828   6.741   9.423  10.353  0.3050 -1.9183 -2.7988
  273MOL0     H36829   6.612   9.160  10.436 -2.7073 -0.5407 -2.2654
  273MOL0     H36830   6.748   9.151  10.331  0.2525  1.1611 -0.6028
  273MOL0     H36831   6.514   9.321  10.250  2.2377  0.5305  1.9187
  273MOL0     H36832   6.636   9.253  10.153 -0.3902  2.4297 -0.1217
  273MOL0     H36833   6.549   9.006  10.251 -1.7524 -0.9692  0.0214
  273MOL0     H36834   6.461   9.087  10.121  0.4159  2.5678 -0.7983
  273MOL0     H36835   6.411   9.098  10.427 -3.9587 -1.4705  1.9595
  273MOL0     H36836   6.323   9.011  10.307  1.8023 -0.4507 -1.7825
  273MOL0     H36837   7.344   9.428  10.454  1.2089  2.9851 -0.9825
  273MOL0     H36838   7.574   9.481  10.529  2.2240 -3.7917  1.6981
  273MOL0     H36839   7.876   9.373  11.078 -0.9515  0.7669 -1.0453
  273MOL0     H36840   8.124   9.412  11.103  0.0907  1.8284 -0.6087
  273MOL0     H36841   9.832   9.162  10.242  0.2735  1.2465  0.6456
  273MOL0     H36842  10.055   9.135  10.158 -0.9362  0.7439 -0.3647
  273MOL0     H36843  10.552   9.111  10.329  0.4736  0.5249 -1.7221
  273MOL0     H36844  10.771   9.033  10.257 -1.4452 -0.4915  4.9154
  273MOL0     H36845  10.952   8.957  10.072  0.8618  0.1227 -0.2385
  273MOL0     H36846  10.953   8.855  10.223 -0.5424  0.4156  0.2406
  273MOL0     H36847  11.036   8.753   9.936  2.0609 -1.2004 -0.1243
  273MOL0     H36848  11.027   8.657  10.073  0.3810  0.9105  0.7052
  273MOL0     H36849  11.177   8.733  10.192 -0.8683 -0.9827 -0.1842
  273MOL0     H36850  11.200   8.899  10.121  0.6929 -0.1733 -0.1692
  273MOL0     H36851  11.322   8.807   9.933 -1.3743 -0.4543 -0.6652
  273MOL0     H36852  11.277   8.648   9.980  1.1160  1.0497 -0.7098
  273MOL0     H36853  11.606   8.694  10.226 -1.1332 -3.4938  0.4948
  273MOL0     H36854  10.585   8.697  10.063 -1.3140  0.1827 -0.0588
  273MOL0     H36855  10.376   8.763  10.132  0.4349  0.5732 -1.2999
  274MOL0     O36856   2.819   5.842   6.684  0.4746 -0.3046  0.0350
  274MOL0     C36857   2.863   5.730   6.659 -0.3235  0.1107  0.4610
  274MOL0     O36858   2.801   5.627   6.585  0.0031 -0.0535 -0.0474
  274MOL0     C36859   2.675   5.636   6.528 -0.6556 -0.2029 -1.2513
  274MOL0     C36860   2.581   5.739   6.544 -0.5843 -0.6834 -0.6990
  274MOL0     C36861   2.454   5.732   6.492 -0.1728  0.7921 -0.1498
  274MOL0     C36862   2.423   5.627   6.408  0.6349  1.0527  0.0409
  274MOL0     O36863   2.291   5.623   6.363 -0.2347  0.3957 -0.1319
  274MOL0     C36864   2.269   5.552   6.247  0.8514  0.2320  0.0612
  274MOL0     C36865   2.127   5.567   6.186  0.2251 -0.3478 -0.4894
  274MOL0     C36866   2.105   5.483   6.053  0.8553  0.8745  0.8661
  274MOL0     C36867   1.958   5.486   6.000  0.2757 -0.2069 -0.1377
  274MOL0     C36868   1.945   5.412   5.865 -0.0813  0.1006 -0.5821
  274MOL0     C36869   1.794   5.420   5.828 -0.2715 -0.6723  0.9924
  274MOL0     C36870   1.761   5.365   5.683  0.4476 -1.0589  0.1609
  274MOL0     C36871   1.713   5.218   5.682  0.1501  0.8925  0.1630
  274MOL0     N36872   1.815   5.127   5.645 -0.1318 -0.9683  0.8761
  274MOL0     C36873   1.886   5.058   5.734 -0.3649 -0.4817 -0.1968
  274MOL0     C36874   1.989   5.001   5.670  0.3691 -0.5121 -0.2008
  274MOL0     C36875   2.101   4.922   5.740  0.1903  0.6921 -0.6016
  274MOL0     C36876   2.149   4.983   5.867  0.3087 -0.1738  0.1065
  274MOL0     C36877   2.294   4.947   5.898 -0.0737  0.0850 -0.5880
  274MOL0     C36878   2.389   5.009   5.796  0.4221  0.1070 -0.5915
  274MOL0     O36879   2.414   5.150   5.837  0.6890  0.4672  0.0983
  274MOL0     C36880   2.512   5.175   5.929 -0.0208 -0.0940  0.2897
  274MOL0     C36881   2.605   5.082   5.978  0.1368 -0.6308 -0.2730
  274MOL0     C36882   2.716   5.125   6.062 -0.2529 -0.6837 -0.4365
  274MOL0     C36883   2.811   5.021   6.109  0.0229 -0.1922 -1.1265
  274MOL0     C36884   2.739   5.270   6.087  0.8382  0.6899  0.4583
  274MOL0     C36885   2.847   5.330   6.169  0.0078  0.4829  0.3048
  274MOL0     O36886   2.879   5.463   6.137  0.4051 -0.6311  0.0741
  274MOL0     C36887   2.984   5.528   6.202 -0.1496  0.0406 -0.1806
  274MOL0     C36888   3.096   5.464   6.246  0.0918  0.2140 -0.4263
  274MOL0     C36889   3.184   5.521   6.343 -0.5102 -0.1539  0.1784
  274MOL0     C36890   3.162   5.650   6.401 -1.0680 -0.1272 -0.2124
  274MOL0     O36891   3.241   5.707   6.497  0.3536 -0.8386 -0.3786
  274MOL0     C36892   3.375   5.663   6.513 -0.4344  0.4008  0.3845
  274MOL0     C36893   3.450   5.776   6.580 -1.0597 -0.5552 -0.7051
  274MOL0     C36894   3.588   5.720   6.636  0.6634  0.2534  0.5979
  274MOL0     C36895   3.701   5.808   6.581 -0.1394  0.2672 -0.6003
  274MOL0     C36896   3.847   5.758   6.623  0.1634 -0.1755  0.6459
  274MOL0     C36897   3.957   5.858   6.571  0.0683 -0.4319 -0.2527
  274MOL0     C36898   4.055   5.805   6.467 -0.4954  0.1788  0.7953
  274MOL0     C36899   3.984   5.796   6.331  0.1595  0.3942  0.3557
  274MOL0    Cl36900   4.104   5.744   6.205 -0.0784 -0.0890 -0.3239
  274MOL0     C36901   3.046   5.717   6.351 -0.1965 -0.9502  0.4792
  274MOL0     C36902   2.962   5.662   6.255 -0.5386 -0.1679 -0.0496
  274MOL0     O36903   2.883   5.271   6.271  0.3245 -0.4169  0.3005
  274MOL0     C36904   2.642   5.358   6.042  0.2688  0.4688 -0.0599
  274MOL0     C36905   2.534   5.305   5.965  0.2103 -1.2299 -0.0445
  274MOL0     N36906   1.984   5.034   5.537  0.5824 -0.4270 -0.1062
  274MOL0     N36907   1.892   5.124   5.534  0.4146  0.2336  1.5213
  274MOL0     C36908   2.515   5.524   6.392  0.1409  0.9418  0.3512
  274MOL0     C36909   2.641   5.526   6.449 -0.9266 -0.9234  0.5669
  274MOL0     C36910   2.994   5.697   6.730  0.3973  0.0476 -0.3999
  274MOL0     C36911   3.045   5.566   6.726 -0.2541  0.4342  1.0435
  274MOL0     C36912   3.167   5.533   6.789 -0.3840 -0.2108  0.0581
  274MOL0     C36913   3.250   5.638   6.844  0.8033  0.5586  0.4437
  274MOL0     O36914   3.375   5.621   6.911 -0.1437  1.5553  0.3582
  274MOL0     C36915   3.442   5.503   6.885  0.1231  0.3767 -1.3566
  274MOL0     C36916   3.567   5.499   6.977  0.7864 -0.3336  0.1814
  274MOL0     C36917   3.524   5.440   7.110 -0.2247 -0.0989 -0.2518
  274MOL0     C36918   3.633   5.452   7.216 -0.2908 -0.3950 -0.3117
  274MOL0     C36919   3.750   5.359   7.204  0.0574 -0.4340 -0.3292
  274MOL0     C36920   3.831   5.270   7.189 -0.9280  0.3176  0.3673
  274MOL0     C36921   3.197   5.774   6.836 -0.0294 -0.3401  0.2365
  274MOL0     C36922   3.074   5.796   6.782 -0.2323 -1.4520  0.1065
  274MOL0     H36923   2.599   5.835   6.592 -0.9949 -0.4993 -0.9101
  274MOL0     H36924   2.385   5.812   6.512  0.3566  1.3307 -0.4361
  274MOL0     H36925   2.346   5.583   6.177  2.5768  1.1406  2.2327
  274MOL0     H36926   2.261   5.446   6.273 -6.0665  0.6103  1.3426
  274MOL0     H36927   2.053   5.533   6.259  2.1168 -1.6974  0.8971
  274MOL0     H36928   2.102   5.669   6.153  0.2027 -1.3091 -3.8223
  274MOL0     H36929   2.167   5.532   5.978  0.9644 -0.6321 -0.0700
  274MOL0     H36930   2.121   5.375   6.056 -0.7932  0.5271 -0.8788
  274MOL0     H36931   1.891   5.450   6.079 -1.3082  0.1546 -1.2736
  274MOL0     H36932   1.931   5.590   5.982 -2.5286 -0.7626  0.4767
  274MOL0     H36933   2.012   5.455   5.791  1.2241 -3.3331 -1.6038
  274MOL0     H36934   1.975   5.308   5.884 -0.8141  0.0855  0.5686
  274MOL0     H36935   1.735   5.354   5.892 -0.8445  0.6795  1.9078
  274MOL0     H36936   1.759   5.523   5.839  1.5825 -0.1059  1.9425
  274MOL0     H36937   1.678   5.425   5.644 -0.0705 -1.3694  0.7708
  274MOL0     H36938   1.841   5.388   5.612 -1.2636  2.5019 -0.8525
  274MOL0     H36939   1.649   5.221   5.593  2.6765 -1.2328 -1.8683
  274MOL0     H36940   1.659   5.186   5.772 -1.6004 -0.9379 -1.4280
  274MOL0     H36941   1.870   5.057   5.841  0.9408 -0.7769  0.0080
  274MOL0     H36942   2.058   4.827   5.773  3.5697 -0.7504  0.0165
  274MOL0     H36943   2.188   4.905   5.676  0.5348 -2.4749  0.5504
  274MOL0     H36944   2.088   4.962   5.956 -1.6205  0.1835 -1.0741
  274MOL0     H36945   2.131   5.091   5.858 -0.2408 -0.4410 -3.1992
  274MOL0     H36946   2.304   4.840   5.882 -1.9413 -0.4293  1.2910
  274MOL0     H36947   2.317   4.977   6.001  1.6387  0.1977 -0.9719
  274MOL0     H36948   2.343   5.013   5.697 -2.7737 -1.4186  0.6922
  274MOL0     H36949   2.482   4.954   5.785  1.6321  2.2200 -1.3642
  274MOL0     H36950   2.599   4.976   5.959 -2.1639 -0.6551  0.3625
  274MOL0     H36951   2.812   5.020   6.218 -2.7369  4.4233 -0.8042
  274MOL0     H36952   2.776   4.921   6.083 -1.7761  0.8468 -3.0343
  274MOL0     H36953   2.910   5.036   6.064  0.2042 -1.8648 -1.3445
  274MOL0     H36954   3.117   5.369   6.196 -0.8726  1.4312 -3.3793
  274MOL0     H36955   3.277   5.469   6.363  0.7883  1.4165 -1.3329
  274MOL0     H36956   3.378   5.570   6.570 -0.9431 -0.6806 -1.2831
  274MOL0     H36957   3.430   5.646   6.420  2.6118  1.6916  1.8227
  274MOL0     H36958   3.463   5.846   6.497  0.9210 -1.9979 -1.7057
  274MOL0     H36959   3.392   5.815   6.664  0.1482 -0.5170  0.1361
  274MOL0     H36960   3.612   5.619   6.601 -1.8294  0.6369 -2.7278
  274MOL0     H36961   3.589   5.719   6.745 -0.9657  1.1087  0.6401
  274MOL0     H36962   3.697   5.815   6.472  1.6708 -0.3946 -0.7471
  274MOL0     H36963   3.673   5.903   6.626  1.9854 -0.3941  2.4516
  274MOL0     H36964   3.857   5.661   6.572 -2.4855  0.2856 -0.9428
  274MOL0     H36965   3.844   5.751   6.732  1.9621  2.8718  0.9983
  274MOL0     H36966   3.922   5.953   6.529  2.2720  1.1126  1.1310
  274MOL0     H36967   4.010   5.877   6.665  1.9320 -0.3392 -1.2761
  274MOL0     H36968   4.103   5.710   6.494 -0.6869 -1.0273 -2.5790
  274MOL0     H36969   4.130   5.881   6.450 -1.5893  0.7599 -1.9667
  274MOL0     H36970   3.923   5.879   6.295  2.1137  1.3891 -0.8437
  274MOL0     H36971   3.918   5.710   6.350 -1.0856  1.5773  1.5756
  274MOL0     H36972   3.028   5.818   6.388  0.8922 -0.3210 -0.6375
  274MOL0     H36973   2.876   5.713   6.212 -0.1308 -0.0399 -0.7396
  274MOL0     H36974   2.647   5.459   6.082  0.5639 -0.1216  1.4451
  274MOL0     H36975   2.463   5.369   5.914  1.1292  1.0304  1.3719
  274MOL0     H36976   2.473   5.429   6.361 -2.8946  1.7208  1.7266
  274MOL0     H36977   2.701   5.437   6.431 -0.1056 -0.0915 -1.0189
  274MOL0     H36978   3.008   5.480   6.672  1.9700 -0.4453  0.8143
  274MOL0     H36979   3.198   5.430   6.800  1.0849  0.4492  3.2452
  274MOL0     H36980   3.379   5.416   6.908  3.1391 -1.7774 -0.6269
  274MOL0     H36981   3.473   5.490   6.781  2.3645 -4.3834 -0.3586
  274MOL0     H36982   3.608   5.599   6.997 -2.8484  0.9913  1.8901
  274MOL0     H36983   3.646   5.440   6.930  0.7134 -0.1743 -0.1437
  274MOL0     H36984   3.507   5.332   7.099 -0.7679 -0.2671  1.8645
  274MOL0     H36985   3.436   5.491   7.150  0.6185  1.9768 -0.9187
  274MOL0     H36986   3.586   5.428   7.312 -0.6085 -0.7923 -0.5640
  274MOL0     H36987   3.679   5.551   7.208  2.0214 -1.4322 -0.7641
  274MOL0     H36988   3.914   5.203   7.183 -2.0642 -1.3480  2.1230
  274MOL0     H36989   3.266   5.841   6.887 -0.2994  0.3279 -0.2562
  274MOL0     H36990   3.049   5.902   6.790  0.0039 -1.5419  2.8773
  275MOL0     O36991   8.550   6.706   7.562  0.2523 -0.2486  0.0165
  275MOL0     C36992   8.621   6.766   7.486  0.2720 -0.1826  0.2985
  275MOL0     O36993   8.604   6.780   7.355  0.2222 -0.3734  0.3013
  275MOL0     C36994   8.469   6.773   7.307 -0.3591  0.2133 -0.6894
  275MOL0     C36995   8.379   6.873   7.336  0.1490 -1.5044 -0.5129
  275MOL0     C36996   8.244   6.866   7.294  0.0662 -0.5391  0.2829
  275MOL0     C36997   8.194   6.759   7.225  0.9300  0.5848  0.2424
  275MOL0     O36998   8.063   6.748   7.200 -0.7596  0.3162  0.7738
  275MOL0     C36999   8.035   6.713   7.064  0.4844 -0.1727  0.0256
  275MOL0     C37000   7.903   6.786   7.035 -0.1404 -0.2221 -0.4996
  275MOL0     C37001   7.873   6.776   6.892  0.2706 -0.0150 -0.2704
  275MOL0     C37002   7.726   6.799   6.860 -0.1725 -0.3781  0.4258
  275MOL0     C37003   7.670   6.709   6.744 -0.8511 -0.0280 -0.9130
  275MOL0     C37004   7.523   6.719   6.743 -0.0989  0.0033  0.3159
  275MOL0     C37005   7.466   6.606   6.655  0.0380  0.4940 -0.3394
  275MOL0     C37006   7.315   6.614   6.643 -0.2961 -0.6832  0.3120
  275MOL0     N37007   7.272   6.748   6.603  0.2736 -0.6576  0.1144
  275MOL0     C37008   7.300   6.806   6.482  0.7757  0.5398  0.5196
  275MOL0     C37009   7.231   6.921   6.478  0.3911 -0.0513  0.2790
  275MOL0     C37010   7.240   7.024   6.357 -0.3409  0.4872 -0.7621
  275MOL0     C37011   7.168   6.959   6.236 -1.6723  0.1052 -0.9635
  275MOL0     C37012   7.021   6.940   6.267  0.1803  0.1591 -0.3200
  275MOL0     C37013   6.940   6.884   6.155  0.8212 -0.2342  0.0197
  275MOL0     O37014   6.807   6.844   6.203  0.2565 -0.7940 -0.4084
  275MOL0     C37015   6.704   6.829   6.116  0.3376 -0.2336 -0.5353
  275MOL0     C37016   6.720   6.854   5.975  0.3230  0.1598 -0.6576
  275MOL0     C37017   6.608   6.841   5.893 -0.0092 -0.0432  1.1371
  275MOL0     C37018   6.627   6.839   5.745  0.1003 -0.5080  0.7967
  275MOL0     C37019   6.481   6.813   5.942  0.3988  0.3347  0.3117
  275MOL0     C37020   6.358   6.800   5.871  0.1818 -0.4928 -0.3682
  275MOL0     O37021   6.283   6.685   5.892 -0.9870 -0.5695  0.2364
  275MOL0     C37022   6.158   6.659   5.841 -0.5748 -0.5302  0.8752
  275MOL0     C37023   6.105   6.538   5.891  0.8501  0.2939 -0.4169
  275MOL0     C37024   5.979   6.488   5.854  0.1478  0.6132 -0.3025
  275MOL0     C37025   5.904   6.555   5.759 -0.1087  0.6258  0.0963
  275MOL0     O37026   5.785   6.508   5.716 -0.2253  0.0376  0.7667
  275MOL0     C37027   5.784   6.399   5.616  0.0959 -0.4498 -0.4579
  275MOL0     C37028   5.777   6.449   5.468  0.3382 -0.1628 -0.1345
  275MOL0     C37029   5.668   6.560   5.445 -0.7456  0.4267  0.4444
  275MOL0     C37030   5.532   6.497   5.469  1.0439 -0.1020 -0.0106
  275MOL0     C37031   5.417   6.602   5.457 -0.3820  0.6384 -0.7523
  275MOL0     C37032   5.410   6.692   5.586  0.3211 -0.4406 -0.3123
  275MOL0     C37033   5.289   6.794   5.575 -0.0812 -0.3499  0.5539
  275MOL0     C37034   5.225   6.815   5.709  0.5998  0.8963  0.4606
  275MOL0    Cl37035   5.327   6.889   5.827  0.0228 -0.3176 -0.2498
  275MOL0     C37036   5.966   6.668   5.697  0.9052  1.0691 -0.4737
  275MOL0     C37037   6.083   6.721   5.742  0.3312 -0.6313  0.2520
  275MOL0     O37038   6.329   6.889   5.794 -0.0827 -1.7567  0.1158
  275MOL0     C37039   6.472   6.783   6.079  0.5669 -0.2185  0.6718
  275MOL0     C37040   6.578   6.795   6.164  0.5287 -0.8268 -0.2780
  275MOL0     N37041   7.165   6.936   6.602 -0.6680  0.5189  0.3025
  275MOL0     N37042   7.196   6.836   6.679 -0.2977  0.0513  0.7651
  275MOL0     C37043   8.286   6.663   7.186 -0.6053  0.1389  0.3292
  275MOL0     C37044   8.420   6.664   7.234 -0.1855  0.5546 -0.4274
  275MOL0     C37045   8.743   6.819   7.537  0.3044  0.5746  0.1014
  275MOL0     C37046   8.850   6.811   7.455 -1.2869 -0.0829  0.4197
  275MOL0     C37047   8.973   6.853   7.501 -0.2713 -0.1181  0.0783
  275MOL0     C37048   8.984   6.926   7.626  0.8698 -0.1327  0.4228
  275MOL0     O37049   9.107   6.973   7.672 -0.1064 -0.5673 -0.2214
  275MOL0     C37050   9.215   7.006   7.575  0.4451  0.5540  0.0937
  275MOL0     C37051   9.233   7.148   7.522 -0.4866 -0.2666 -1.0060
  275MOL0     C37052   9.141   7.177   7.402  0.1985  0.0081 -0.1706
  275MOL0     C37053   9.160   7.326   7.353  0.2027 -0.0731  0.0122
  275MOL0     C37054   9.072   7.360   7.238  0.0553  0.3769 -0.2280
  275MOL0     C37055   8.995   7.389   7.145 -0.6777 -1.0766 -0.3338
  275MOL0     C37056   8.872   6.943   7.703 -0.1962 -0.8994  0.2804
  275MOL0     C37057   8.749   6.903   7.652 -0.3627 -0.0974 -0.8376
  275MOL0     H37058   8.421   6.959   7.387 -0.1567 -0.3244 -2.1913
  275MOL0     H37059   8.174   6.942   7.328 -1.7164 -2.7198  1.7384
  275MOL0     H37060   8.112   6.744   6.994 -0.4717 -3.4298 -2.7668
  275MOL0     H37061   8.007   6.607   7.068  2.4138 -0.6859  0.7546
  275MOL0     H37062   7.830   6.728   7.093  1.7447 -1.3455  0.8545
  275MOL0     H37063   7.898   6.885   7.080 -0.8428 -1.0495  1.3342
  275MOL0     H37064   7.921   6.851   6.829  0.2327 -0.0215 -0.3068
  275MOL0     H37065   7.909   6.678   6.859  1.3902 -0.3338  1.7830
  275MOL0     H37066   7.671   6.769   6.951 -3.0149  1.1616 -0.6539
  275MOL0     H37067   7.709   6.904   6.836  0.6118  0.1245  1.9294
  275MOL0     H37068   7.720   6.731   6.649 -0.8513 -1.3375 -1.2337
  275MOL0     H37069   7.690   6.609   6.783 -1.3672  0.7134  1.4083
  275MOL0     H37070   7.482   6.708   6.844  1.0871  1.4515  0.9867
  275MOL0     H37071   7.494   6.820   6.714 -0.9265 -0.6685 -1.3073
  275MOL0     H37072   7.516   6.604   6.558  1.9995 -1.7889  0.6407
  275MOL0     H37073   7.493   6.510   6.699 -0.9647  1.6487  3.2106
  275MOL0     H37074   7.273   6.597   6.743 -0.2521 -1.9051  0.1445
  275MOL0     H37075   7.268   6.527   6.594 -0.1367 -1.2583  1.1575
  275MOL0     H37076   7.366   6.763   6.407  1.2951  0.2273  1.1416
  275MOL0     H37077   7.189   7.110   6.400 -1.4049 -2.1152  3.8307
  275MOL0     H37078   7.344   7.050   6.337  0.0587  0.8176  1.4830
  275MOL0     H37079   7.209   6.861   6.212  1.5685  1.9252 -3.8665
  275MOL0     H37080   7.187   7.034   6.159  0.2216  1.5971  0.8135
  275MOL0     H37081   6.986   7.042   6.281 -0.1117 -0.1730  1.6936
  275MOL0     H37082   7.008   6.874   6.353  0.6632 -0.6544 -0.8605
  275MOL0     H37083   6.992   6.802   6.104  0.7129 -0.4191  0.2019
  275MOL0     H37084   6.927   6.968   6.086 -0.7594  0.3907  1.0278
  275MOL0     H37085   6.807   6.884   5.918 -0.5825 -0.6256 -2.5287
  275MOL0     H37086   6.620   6.936   5.695  1.2597 -0.7730  0.1016
  275MOL0     H37087   6.725   6.798   5.722  0.3054 -0.4542  1.5561
  275MOL0     H37088   6.557   6.770   5.698 -0.7887  1.8590 -1.6243
  275MOL0     H37089   6.170   6.496   5.967  0.1284 -0.0847 -0.0018
  275MOL0     H37090   5.943   6.389   5.884 -3.5760  1.5807 -1.0014
  275MOL0     H37091   5.870   6.332   5.628 -0.6058 -1.5317 -1.2590
  275MOL0     H37092   5.702   6.332   5.644 -1.2553  2.9337  5.1160
  275MOL0     H37093   5.874   6.492   5.439 -0.6506  1.6821 -0.8826
  275MOL0     H37094   5.762   6.368   5.396 -1.0037 -2.3967  2.4800
  275MOL0     H37095   5.673   6.602   5.345  0.8087 -0.5309  0.0905
  275MOL0     H37096   5.696   6.641   5.513 -1.1997 -0.2521  1.4748
  275MOL0     H37097   5.511   6.436   5.381 -0.3873  2.2834 -1.4209
  275MOL0     H37098   5.520   6.443   5.564 -2.0942  0.5212  0.0851
  275MOL0     H37099   5.323   6.547   5.455 -1.2264  2.0679 -1.8900
  275MOL0     H37100   5.423   6.667   5.369  3.1525  0.5831 -0.7016
  275MOL0     H37101   5.397   6.631   5.676  0.6742  0.1099  0.1211
  275MOL0     H37102   5.501   6.753   5.585 -0.0087  0.0611 -0.5889
  275MOL0     H37103   5.218   6.754   5.502 -1.9568  0.9879  1.5804
  275MOL0     H37104   5.328   6.888   5.536  0.0016 -0.6283 -0.0608
  275MOL0     H37105   5.186   6.725   5.758 -1.8467  1.3928 -0.3894
  275MOL0     H37106   5.138   6.880   5.691  0.3453  0.2568 -0.6996
  275MOL0     H37107   5.925   6.706   5.604  1.4609 -3.7097 -2.9779
  275MOL0     H37108   6.106   6.813   5.689 -3.1041  0.2915  0.0986
  275MOL0     H37109   6.373   6.765   6.120  0.1049 -1.2513 -0.8064
  275MOL0     H37110   6.571   6.771   6.270 -0.5564 -1.2826 -0.4330
  275MOL0     H37111   8.261   6.579   7.122 -2.6468  0.5955  0.4567
  275MOL0     H37112   8.488   6.584   7.208 -0.3905 -0.0221  0.7569
  275MOL0     H37113   8.839   6.770   7.356  1.8604  0.5070 -0.2795
  275MOL0     H37114   9.064   6.835   7.444  0.7829  0.7181  1.4401
  275MOL0     H37115   9.303   6.996   7.639  0.2787 -1.2282  0.0760
  275MOL0     H37116   9.227   6.932   7.495 -0.2521  0.2705  0.2475
  275MOL0     H37117   9.337   7.161   7.492 -0.6854  1.6752 -0.9777
  275MOL0     H37118   9.231   7.223   7.602  1.7135 -2.1535  0.9821
  275MOL0     H37119   9.038   7.147   7.419  1.2720 -3.5642  0.9341
  275MOL0     H37120   9.177   7.114   7.320  1.7475  0.1994  0.3221
  275MOL0     H37121   9.265   7.344   7.329  0.5145 -0.6946  0.8435
  275MOL0     H37122   9.130   7.397   7.430 -0.3472 -0.8844  0.5577
  275MOL0     H37123   8.925   7.393   7.064  1.2692  1.1338 -1.9945
  275MOL0     H37124   8.875   7.007   7.791  3.2269  0.6654 -0.7805
  275MOL0     H37125   8.660   6.913   7.714 -0.0690 -0.9762 -0.2441
  276MOL0     O37126   8.431  10.282   1.989  0.1035 -0.5425 -0.3189
  276MOL0     C37127   8.451  10.316   2.104  0.1437  0.7582 -0.5652
  276MOL0     O37128   8.362  10.372   2.189  0.2680  0.1860  0.3568
  276MOL0     C37129   8.230  10.378   2.153  0.1947 -0.3541  0.3328
  276MOL0     C37130   8.174  10.504   2.146 -0.6487  0.6132 -0.0416
  276MOL0     C37131   8.039  10.518   2.124  0.8028  0.4585 -0.0138
  276MOL0     C37132   7.959  10.406   2.093  1.2425 -0.5264 -0.6132
  276MOL0     O37133   7.823  10.427   2.062 -0.1138  0.0510 -0.0374
  276MOL0     C37134   7.751  10.316   2.001 -0.3724 -0.5452  0.1045
  276MOL0     C37135   7.619  10.373   1.948 -0.7841  0.9597 -0.4851
  276MOL0     C37136   7.513  10.263   1.916 -0.4153 -0.0209  0.4223
  276MOL0     C37137   7.387  10.340   1.855 -0.2155 -0.0138  1.2306
  276MOL0     C37138   7.275  10.246   1.827  0.2029 -0.2260  0.6201
  276MOL0     C37139   7.299  10.141   1.703 -0.4059 -0.1220 -0.2767
  276MOL0     C37140   7.172  10.065   1.649 -0.7033  1.2725 -0.4469
  276MOL0     C37141   7.057  10.162   1.603  0.3296  0.3317  0.9272
  276MOL0     N37142   6.948  10.081   1.546 -0.8786  0.2942  0.1386
  276MOL0     C37143   6.941  10.058   1.412 -0.4289  0.0311 -0.1355
  276MOL0     C37144   6.825   9.979   1.407  0.7029 -0.2331 -0.2664
  276MOL0     C37145   6.752   9.942   1.283 -0.8646 -0.3243  0.0134
  276MOL0     C37146   6.673   9.813   1.298 -1.2566 -0.5545  0.2363
  276MOL0     C37147   6.589   9.804   1.173 -0.4958  0.9692 -0.8765
  276MOL0     C37148   6.471   9.714   1.198 -1.0082  0.3519 -0.5956
  276MOL0     O37149   6.396   9.679   1.086  0.1077 -0.5539 -0.0460
  276MOL0     C37150   6.308   9.773   1.039 -0.2207 -0.0263  0.4277
  276MOL0     C37151   6.259   9.746   0.915 -0.3175  0.5025  0.4370
  276MOL0     C37152   6.159   9.821   0.850  0.1307 -0.5196  1.1085
  276MOL0     C37153   6.100   9.773   0.715 -0.9245 -0.3047 -0.4433
  276MOL0     C37154   6.108   9.935   0.921  0.9117  0.4869  0.5716
  276MOL0     C37155   6.003  10.024   0.871 -0.3602 -1.2151 -1.3418
  276MOL0     O37156   5.923  10.084   0.964 -0.2971  0.3774  0.0999
  276MOL0     C37157   5.817  10.154   0.927  0.5106 -0.6649  0.1569
  276MOL0     C37158   5.723  10.109   0.843  0.7103 -0.1683  0.5468
  276MOL0     C37159   5.613  10.185   0.803 -0.0136  0.0043 -0.2500
  276MOL0     C37160   5.591  10.308   0.878 -0.0983 -1.2441 -0.6425
  276MOL0     O37161   5.479  10.371   0.845 -0.1190  0.0653  0.1274
  276MOL0     C37162   5.493  10.510   0.823  0.5294 -0.1156  0.0126
  276MOL0     C37163   5.359  10.534   0.743  0.1028 -0.7492  0.7328
  276MOL0     C37164   5.347  10.684   0.704  0.3295  0.4819 -0.2885
  276MOL0     C37165   5.212  10.718   0.632  1.2914 -1.2915 -0.0342
  276MOL0     C37166   5.177  10.870   0.634  0.7148 -0.2178 -1.1671
  276MOL0     C37167   5.041  10.901   0.565  0.0182 -1.0155  0.2254
  276MOL0     C37168   4.920  10.823   0.628 -0.1569  0.5354 -0.4803
  276MOL0     C37169   4.787  10.866   0.576  1.3461  0.2334  0.0815
  276MOL0    Cl37170   4.651  10.820   0.680 -0.1168 -0.1278 -0.2595
  276MOL0     C37171   5.680  10.344   0.979  0.6091 -0.3939 -0.2897
  276MOL0     C37172   5.793  10.273   1.002 -0.6191  0.3417  1.1524
  276MOL0     O37173   5.998  10.041   0.751 -0.1736 -0.1550  0.1939
  276MOL0     C37174   6.171   9.967   1.040  0.0925  0.4361 -0.4137
  276MOL0     C37175   6.268   9.890   1.101  0.4538 -0.0089  0.1303
  276MOL0     N37176   6.766   9.989   1.534 -0.2454 -0.7116  0.2310
  276MOL0     N37177   6.850  10.034   1.617  0.1759  1.2056 -0.1346
  276MOL0     C37178   8.009  10.276   2.107 -0.2063  0.1424 -0.2134
  276MOL0     C37179   8.146  10.268   2.137  0.0039 -0.5569 -0.6694
  276MOL0     C37180   8.583  10.282   2.159  0.1515  0.0638  0.3029
  276MOL0     C37181   8.607  10.284   2.294  0.7016  0.1029  0.0727
  276MOL0     C37182   8.741  10.258   2.336 -0.0985 -0.5946  0.6053
  276MOL0     C37183   8.848  10.222   2.246 -0.5068  0.0979 -0.2880
  276MOL0     O37184   8.979  10.182   2.282  0.5654  0.1112 -0.4729
  276MOL0     C37185   9.014  10.186   2.427 -0.0182  1.4383  0.1924
  276MOL0     C37186   9.064  10.336   2.451 -0.0936  0.8160 -0.0746
  276MOL0     C37187   9.164  10.338   2.571 -1.0395 -1.2280  0.1569
  276MOL0     C37188   9.081  10.373   2.700 -0.0229  0.6620 -0.2846
  276MOL0     C37189   9.000  10.260   2.744  1.1578 -0.1572  0.4879
  276MOL0     C37190   8.920  10.167   2.769 -0.5793  0.2532 -0.3627
  276MOL0     C37191   8.814  10.231   2.115  0.5216  0.2898 -0.0096
  276MOL0     C37192   8.685  10.250   2.064  0.4366 -0.3094 -0.7052
  276MOL0     H37193   8.231  10.595   2.158 -0.2151  0.0105  4.0028
  276MOL0     H37194   7.994  10.617   2.116 -1.6873 -0.7156 -1.2744
  276MOL0     H37195   7.806  10.266   1.920  0.3980 -2.4981  1.7429
  276MOL0     H37196   7.736  10.247   2.085  0.2880 -1.5860 -0.6093
  276MOL0     H37197   7.574  10.436   2.025  0.1121  0.5973  0.3528
  276MOL0     H37198   7.639  10.434   1.859  0.5335  1.3066  0.0220
  276MOL0     H37199   7.548  10.192   1.840 -0.4033 -1.4229  1.6887
  276MOL0     H37200   7.478  10.211   2.006  1.5067 -0.7877  0.7753
  276MOL0     H37201   7.345  10.419   1.919  1.9759  1.8965  0.4920
  276MOL0     H37202   7.420  10.398   1.768 -2.2743  0.6970  0.8785
  276MOL0     H37203   7.257  10.178   1.911 -0.8690 -0.6641  0.0672
  276MOL0     H37204   7.177  10.295   1.816 -0.2492 -0.7264  2.1570
  276MOL0     H37205   7.342  10.195   1.618  2.6762  1.0034  1.8391
  276MOL0     H37206   7.376  10.068   1.728  1.2617  2.1095  1.4295
  276MOL0     H37207   7.202  10.001   1.565  1.2342  1.7140 -0.1383
  276MOL0     H37208   7.139   9.999   1.730  0.2753  1.2387 -0.0615
  276MOL0     H37209   7.100  10.234   1.533  1.0492  0.1719  1.2016
  276MOL0     H37210   7.017  10.219   1.688 -3.4916  0.2489 -0.6306
  276MOL0     H37211   7.002  10.089   1.328 -1.0120  0.8940 -0.2523
  276MOL0     H37212   6.685  10.024   1.257 -1.5336 -1.1510 -0.9458
  276MOL0     H37213   6.824   9.925   1.203  0.5110  2.7272  0.4562
  276MOL0     H37214   6.615   9.811   1.391  2.3318 -1.1798  2.6938
  276MOL0     H37215   6.743   9.729   1.301 -0.0897  0.3988  3.3698
  276MOL0     H37216   6.649   9.762   1.091 -0.8413 -0.1127 -0.5824
  276MOL0     H37217   6.557   9.906   1.148 -1.5905  0.8525 -0.0216
  276MOL0     H37218   6.412   9.758   1.278  1.2227  1.6448  0.4372
  276MOL0     H37219   6.534   9.628   1.222  3.4276  3.2338 -0.8131
  276MOL0     H37220   6.306   9.659   0.870 -1.1582  0.1796  0.1546
  276MOL0     H37221   6.163   9.796   0.629  1.7301  0.5065  1.5801
  276MOL0     H37222   6.095   9.664   0.713  0.0822 -0.3918  0.5323
  276MOL0     H37223   5.996   9.805   0.708 -0.9686 -0.7889 -2.3435
  276MOL0     H37224   5.745  10.022   0.782  2.0087 -0.7283  1.7589
  276MOL0     H37225   5.550  10.138   0.727  1.0624  0.7898 -1.6765
  276MOL0     H37226   5.501  10.568   0.915  0.7367 -0.4922  0.2370
  276MOL0     H37227   5.580  10.535   0.761 -0.4550  4.1082  0.0388
  276MOL0     H37228   5.365  10.480   0.648 -0.1404  0.7927 -0.1926
  276MOL0     H37229   5.269  10.508   0.801 -0.7853  2.1757  0.8381
  276MOL0     H37230   5.430  10.719   0.642 -2.2585  1.0685 -3.7334
  276MOL0     H37231   5.348  10.737   0.800 -0.7094 -0.0205  0.0134
  276MOL0     H37232   5.218  10.674   0.532  2.1519 -0.4127 -0.3873
  276MOL0     H37233   5.125  10.679   0.686 -1.0944 -0.8979 -3.3151
  276MOL0     H37234   5.252  10.935   0.587 -0.0142  2.8582  1.5044
  276MOL0     H37235   5.192  10.900   0.738 -0.9229 -0.3644 -0.8632
  276MOL0     H37236   5.026  11.009   0.572  0.4194 -0.8391 -1.3649
  276MOL0     H37237   5.035  10.874   0.459 -2.5520 -2.5186  0.6554
  276MOL0     H37238   4.924  10.844   0.736  1.8045 -0.7094 -0.2480
  276MOL0     H37239   4.942  10.717   0.610  1.8785  1.1427 -1.9836
  276MOL0     H37240   4.786  10.822   0.476  3.8559  0.6537 -0.1880
  276MOL0     H37241   4.770  10.974   0.572  1.3522  0.2327  0.0259
  276MOL0     H37242   5.669  10.434   1.038  0.3438 -0.6626  0.0758
  276MOL0     H37243   5.872  10.298   1.073  1.7976 -2.4219 -0.3193
  276MOL0     H37244   6.143  10.059   1.091  1.4774  1.4406 -1.3804
  276MOL0     H37245   6.303   9.921   1.199 -2.4662 -1.8028  1.8919
  276MOL0     H37246   7.969  10.178   2.081  2.0956 -0.7232 -0.7292
  276MOL0     H37247   8.197  10.172   2.133  1.3518  0.0093  1.5678
  276MOL0     H37248   8.538  10.309   2.374 -0.4953 -2.3606 -0.1025
  276MOL0     H37249   8.764  10.273   2.441 -1.2580 -0.9684  0.9230
  276MOL0     H37250   8.939  10.138   2.492  1.5385 -1.3768  0.0762
  276MOL0     H37251   9.101  10.124   2.451 -1.5815 -0.3527  1.5354
  276MOL0     H37252   8.979  10.404   2.464 -2.1437 -0.8743 -3.1835
  276MOL0     H37253   9.112  10.356   2.354 -0.6964 -5.9955 -2.2948
  276MOL0     H37254   9.235  10.415   2.542  0.7722 -3.4198 -1.6471
  276MOL0     H37255   9.217  10.243   2.584 -3.4608 -2.8351 -0.9813
  276MOL0     H37256   9.013  10.456   2.680  0.7266  1.0933 -1.0822
  276MOL0     H37257   9.144  10.393   2.787 -1.3752  1.2641  0.5773
  276MOL0     H37258   8.837  10.099   2.773 -1.2889  0.9124 -2.3158
  276MOL0     H37259   8.882  10.221   2.032 -3.4992 -2.0410 -3.4010
  276MOL0     H37260   8.671  10.259   1.957 -2.3315 -0.8763 -0.4421
  277MOL0     O37261   2.688   1.874   9.195 -0.3777  0.1763 -0.1215
  277MOL0     C37262   2.801   1.929   9.204 -0.3100  0.1058  0.8659
  277MOL0     O37263   2.827   2.031   9.289 -0.7989 -0.4650 -1.0100
  277MOL0     C37264   2.721   2.080   9.354 -0.1036  0.1689  0.0510
  277MOL0     C37265   2.634   2.177   9.300 -0.1491 -0.1243  0.7851
  277MOL0     C37266   2.519   2.223   9.372  0.4809 -0.3681  0.2345
  277MOL0     C37267   2.490   2.174   9.494 -0.2033 -0.0223  0.7871
  277MOL0     O37268   2.376   2.206   9.556 -0.2146  0.4120  0.5185
  277MOL0     C37269   2.260   2.126   9.522 -0.9908  0.3718  0.4097
  277MOL0     C37270   2.154   2.230   9.524 -0.3684 -0.2173 -0.4177
  277MOL0     C37271   2.018   2.163   9.511  0.2961 -0.2479 -0.5014
  277MOL0     C37272   1.925   2.257   9.446  0.1377  0.1762  0.1407
  277MOL0     C37273   1.788   2.181   9.440  0.0945 -0.9693 -0.3678
  277MOL0     C37274   1.697   2.215   9.558  0.6609  0.4210  0.7921
  277MOL0     C37275   1.576   2.114   9.546  0.0390  0.7862 -0.3379
  277MOL0     C37276   1.464   2.138   9.648 -0.3553 -0.1858  0.7548
  277MOL0     N37277   1.365   2.239   9.601 -0.3985  0.7289  0.4807
  277MOL0     C37278   1.384   2.364   9.568 -0.1490 -0.1925 -1.3055
  277MOL0     C37279   1.267   2.402   9.510 -0.1626  0.4229 -0.5493
  277MOL0     C37280   1.240   2.548   9.473  0.2339  0.2918  0.6289
  277MOL0     C37281   1.084   2.575   9.458 -0.1085  0.2362 -0.7460
  277MOL0     C37282   1.048   2.717   9.444  0.9159 -0.4441  0.6165
  277MOL0     C37283   0.907   2.749   9.503 -0.6119  0.2502 -0.1044
  277MOL0     O37284   0.878   2.890   9.469 -0.8178 -0.4625  0.5164
  277MOL0     C37285   0.762   2.947   9.509  0.0913 -0.1552  0.1013
  277MOL0     C37286   0.647   2.881   9.567 -0.4531 -0.5453  0.9556
  277MOL0     C37287   0.520   2.941   9.602 -0.8747 -0.2061  0.1371
  277MOL0     C37288   0.417   2.851   9.666 -0.6644 -0.1750  0.2067
  277MOL0     C37289   0.508   3.075   9.576  0.4901 -0.4956 -0.3791
  277MOL0     C37290   0.382   3.148   9.584 -0.1403 -0.4219  0.2630
  277MOL0     O37291   0.269   3.102   9.652 -0.6139 -0.3504 -0.1957
  277MOL0     C37292   0.154   3.168   9.678  0.3937  0.2119 -0.7369
  277MOL0     C37293   0.052   3.096   9.731  0.0556  0.7923  0.2944
  277MOL0     C37294  -0.063   3.154   9.783 -0.8164 -0.1033 -0.1087
  277MOL0     C37295  -0.089   3.294   9.765 -0.7562  0.5339  0.0141
  277MOL0     O37296  -0.194   3.365   9.816 -0.5305 -0.4208 -0.5600
  277MOL0     C37297  -0.292   3.296   9.891 -0.8436 -0.9127 -0.2160
  277MOL0     C37298  -0.394   3.399   9.941 -0.7144 -0.6034  0.3935
  277MOL0     C37299  -0.457   3.481   9.831  0.8133  0.0083 -0.4141
  277MOL0     C37300  -0.574   3.396   9.763 -0.1685  0.0384  0.2459
  277MOL0     C37301  -0.643   3.476   9.650 -0.9824 -0.8502  1.2999
  277MOL0     C37302  -0.722   3.379   9.569 -0.9683  0.2148  0.0683
  277MOL0     C37303  -0.804   3.460   9.460  0.4311 -0.5962  0.7466
  277MOL0     C37304  -0.892   3.356   9.380  0.8143  0.1348  0.7730
  277MOL0    Cl37305  -1.033   3.314   9.478  0.0160  0.0246 -0.1696
  277MOL0     C37306   0.007   3.374   9.697  0.2185 -0.0252 -0.3838
  277MOL0     C37307   0.124   3.307   9.660 -0.5175  0.7683  0.5013
  277MOL0     O37308   0.381   3.251   9.512  0.7007 -0.0457 -0.5747
  277MOL0     C37309   0.629   3.141   9.527 -0.7858 -1.2476 -0.7232
  277MOL0     C37310   0.750   3.080   9.507  0.3591  0.0660  0.4260
  277MOL0     N37311   1.172   2.301   9.515  0.5319 -0.0421  0.7825
  277MOL0     N37312   1.233   2.205   9.567 -0.5796 -0.4737 -0.3777
  277MOL0     C37313   2.580   2.078   9.547 -0.1166 -0.6134 -0.2233
  277MOL0     C37314   2.690   2.034   9.479  0.2739  0.3470  0.7674
  277MOL0     C37315   2.902   1.901   9.107  0.2104 -0.3922  0.5742
  277MOL0     C37316   2.868   1.833   8.981 -0.4297  0.7657  0.0451
  277MOL0     C37317   2.957   1.823   8.875  0.7551 -0.5796 -0.5966
  277MOL0     C37318   3.093   1.869   8.892 -0.3413  0.4725 -0.4387
  277MOL0     O37319   3.190   1.863   8.801 -1.0454  0.5021  0.1070
  277MOL0     C37320   3.157   1.836   8.667 -0.4339  0.3841  0.3695
  277MOL0     C37321   3.170   1.682   8.640  0.1112 -0.5481 -0.5002
  277MOL0     C37322   3.312   1.625   8.670  0.6351  0.7821 -0.2049
  277MOL0     C37323   3.427   1.681   8.588  1.2146  0.1185 -0.4558
  277MOL0     C37324   3.553   1.604   8.618 -0.1208 -0.4899  0.6259
  277MOL0     C37325   3.654   1.544   8.638  0.2313  0.4124  0.4075
  277MOL0     C37326   3.124   1.925   9.022  0.3756 -0.7886 -0.4734
  277MOL0     C37327   3.033   1.936   9.130  0.2735  0.1125  0.5759
  277MOL0     H37328   2.644   2.233   9.208 -1.7353 -0.8891  0.1222
  277MOL0     H37329   2.456   2.299   9.326 -0.9195 -2.2507 -1.0872
  277MOL0     H37330   2.282   2.094   9.420  2.2620  0.3024  1.0149
  277MOL0     H37331   2.246   2.042   9.591 -0.1137  1.6073  2.1713
  277MOL0     H37332   2.152   2.308   9.601  1.0389 -2.8066  2.4566
  277MOL0     H37333   2.182   2.293   9.439 -0.2217  1.9265  1.1244
  277MOL0     H37334   2.031   2.079   9.442  1.1174  0.2184 -0.9226
  277MOL0     H37335   1.979   2.123   9.606 -0.9462  0.4900 -0.6784
  277MOL0     H37336   1.924   2.354   9.498  4.3088  1.1550 -1.2288
  277MOL0     H37337   1.968   2.276   9.347  0.4237  0.3605  0.3009
  277MOL0     H37338   1.725   2.196   9.352  0.7784  0.3082 -0.6571
  277MOL0     H37339   1.812   2.074   9.451  4.4687  0.0390  2.4766
  277MOL0     H37340   1.741   2.186   9.654 -1.1601 -0.5931  1.3857
  277MOL0     H37341   1.656   2.316   9.550 -1.4064 -0.4696 -0.8701
  277MOL0     H37342   1.539   2.110   9.443 -0.4955  0.2621 -0.1274
  277MOL0     H37343   1.614   2.014   9.571 -2.0893 -0.5829 -2.2138
  277MOL0     H37344   1.511   2.167   9.743  2.4891 -1.7242 -0.0498
  277MOL0     H37345   1.422   2.039   9.670  0.7032 -0.2720  2.5771
  277MOL0     H37346   1.472   2.427   9.585  1.6202 -2.8151  0.0504
  277MOL0     H37347   1.288   2.606   9.552  0.2374 -1.3029  1.8331
  277MOL0     H37348   1.293   2.572   9.380  2.6016  1.1403  2.1066
  277MOL0     H37349   1.027   2.532   9.541 -1.4093 -1.2722 -2.3418
  277MOL0     H37350   1.051   2.516   9.372  1.8697 -1.3026 -0.5305
  277MOL0     H37351   1.048   2.737   9.337 -0.1053  2.9585  1.1495
  277MOL0     H37352   1.125   2.778   9.492  1.7007 -2.8998  2.7535
  277MOL0     H37353   0.918   2.746   9.612  2.6004 -1.5631 -0.3786
  277MOL0     H37354   0.828   2.681   9.472 -1.1748  1.5273 -1.6079
  277MOL0     H37355   0.660   2.781   9.608  0.0279 -0.2518  1.5436
  277MOL0     H37356   0.402   2.898   9.764  1.7517 -2.0450  1.5893
  277MOL0     H37357   0.317   2.855   9.623 -0.0488  0.7139 -1.2467
  277MOL0     H37358   0.454   2.748   9.671 -0.6022 -0.3416 -2.4122
  277MOL0     H37359   0.062   2.989   9.744  0.6567  0.7867 -0.1735
  277MOL0     H37360  -0.129   3.097   9.847  1.9618  0.6684  3.8145
  277MOL0     H37361  -0.351   3.224   9.833 -2.6879  0.8994 -0.7251
  277MOL0     H37362  -0.238   3.247   9.972  2.4169 -0.4752 -1.9387
  277MOL0     H37363  -0.473   3.348   9.997 -1.9040 -0.7711 -1.3962
  277MOL0     H37364  -0.346   3.469  10.011  1.8275 -1.6777 -0.1858
  277MOL0     H37365  -0.396   3.507   9.744 -0.9840  1.7918 -1.2055
  277MOL0     H37366  -0.506   3.572   9.866  0.7095 -0.8111  1.7731
  277MOL0     H37367  -0.533   3.307   9.715  1.0645 -0.9002  2.8397
  277MOL0     H37368  -0.645   3.365   9.840  0.6183 -0.6707  0.6975
  277MOL0     H37369  -0.566   3.522   9.589 -0.9217  0.8347  2.5696
  277MOL0     H37370  -0.706   3.559   9.683 -1.5025  1.7976 -5.0893
  277MOL0     H37371  -0.656   3.313   9.512 -0.3962 -0.2336  1.2366
  277MOL0     H37372  -0.784   3.330   9.644  2.9722 -2.9469  1.6332
  277MOL0     H37373  -0.727   3.511   9.401 -0.2912  0.5570  0.7678
  277MOL0     H37374  -0.864   3.535   9.512 -0.8540  0.0730 -1.5573
  277MOL0     H37375  -0.833   3.270   9.350  0.5297  0.0003  0.5945
  277MOL0     H37376  -0.940   3.387   9.287 -2.7805 -1.4405  1.8953
  277MOL0     H37377   0.006   3.482   9.703 -0.7385  0.1887 -3.0023
  277MOL0     H37378   0.207   3.353   9.606  0.5446 -1.6597 -0.0897
  277MOL0     H37379   0.635   3.247   9.506 -1.0932 -1.2831 -0.9903
  277MOL0     H37380   0.839   3.135   9.476  1.4645  0.2063  3.5589
  277MOL0     H37381   2.560   2.037   9.646  2.7819 -0.3047  0.5843
  277MOL0     H37382   2.754   1.961   9.527  0.0971 -0.2317  0.1231
  277MOL0     H37383   2.769   1.796   8.957 -0.7463 -0.6062  3.0536
  277MOL0     H37384   2.915   1.783   8.783  0.4319 -0.1541 -0.6386
  277MOL0     H37385   3.055   1.864   8.642 -0.2678 -1.0322 -2.2075
  277MOL0     H37386   3.221   1.899   8.604 -2.0301  1.4234 -0.2568
  277MOL0     H37387   3.151   1.672   8.533  1.1628  1.4720 -0.9248
  277MOL0     H37388   3.087   1.627   8.686 -2.3170  1.4720 -2.1751
  277MOL0     H37389   3.309   1.517   8.657  0.0554  0.6771  0.7189
  277MOL0     H37390   3.334   1.628   8.777 -1.1617 -2.6390  0.3985
  277MOL0     H37391   3.423   1.789   8.605  0.8323 -0.1775  1.7287
  277MOL0     H37392   3.397   1.658   8.486  2.9113 -1.9334 -0.5609
  277MOL0     H37393   3.751   1.501   8.655  0.6314  2.0178  2.5697
  277MOL0     H37394   3.224   1.954   9.053  0.1643 -0.7112  0.1328
  277MOL0     H37395   3.059   1.960   9.233  2.7032  0.3880 -0.0308
  278MOL0     O37396   0.109  10.619   3.875 -0.5022 -0.2302 -0.1354
  278MOL0     C37397   0.113  10.672   3.760  0.5115  0.5289 -0.3423
  278MOL0     O37398   0.008  10.719   3.684  0.1535 -1.4793 -0.0464
  278MOL0     C37399  -0.115  10.723   3.738  0.0075  0.9925 -0.1409
  278MOL0     C37400  -0.145  10.805   3.842  1.0042  0.1005  1.2545
  278MOL0     C37401  -0.272  10.815   3.890  0.0287  0.9963  0.3572
  278MOL0     C37402  -0.374  10.728   3.844 -0.4049 -0.6058 -0.4981
  278MOL0     O37403  -0.501  10.744   3.895 -0.9276 -0.0641  0.5294
  278MOL0     C37404  -0.611  10.718   3.813 -0.4441  0.0332 -0.2633
  278MOL0     C37405  -0.623  10.814   3.693 -0.2841  0.1448 -1.0095
  278MOL0     C37406  -0.683  10.952   3.739 -0.3063 -0.5807 -0.3688
  278MOL0     C37407  -0.819  10.987   3.683 -0.3294 -0.3959  0.0096
  278MOL0     C37408  -0.876  11.115   3.735  0.6195 -1.2028 -0.2584
  278MOL0     C37409  -0.791  11.239   3.697 -0.2122 -1.0205 -0.9710
  278MOL0     C37410  -0.887  11.367   3.727  0.1820 -0.0820 -0.1134
  278MOL0     C37411  -0.799  11.503   3.714  0.6630  0.6323 -0.1110
  278MOL0     N37412  -0.839  11.592   3.826 -0.2327  0.1580  0.5762
  278MOL0     C37413  -0.935  11.695   3.819 -0.0953  0.0322 -0.0210
  278MOL0     C37414  -0.975  11.724   3.945  0.2968  0.1512 -0.0482
  278MOL0     C37415  -1.059  11.841   3.989  0.5899  0.0844  0.4406
  278MOL0     C37416  -1.214  11.801   3.983 -0.3343 -0.9112 -0.1395
  278MOL0     C37417  -1.298  11.922   3.971 -0.0801  0.3827 -0.4714
  278MOL0     C37418  -1.443  11.874   3.986  0.6045  0.4882 -0.3936
  278MOL0     O37419  -1.530  11.983   3.972 -0.2140  0.1383  0.1645
  278MOL0     C37420  -1.664  11.959   3.995  0.0735 -0.4806  0.9279
  278MOL0     C37421  -1.741  12.076   3.982 -0.5002 -0.0875 -0.6015
  278MOL0     C37422  -1.882  12.070   4.018 -0.8075 -1.2754 -0.4835
  278MOL0     C37423  -1.948  12.209   4.002  0.9767 -0.3893 -0.3119
  278MOL0     C37424  -1.940  11.952   4.049  0.1128  0.8042  0.1517
  278MOL0     C37425  -2.082  11.938   4.085  0.5104  0.4457 -0.6750
  278MOL0     O37426  -2.107  11.844   4.175 -0.1203  0.1922  1.0159
  278MOL0     C37427  -2.233  11.822   4.231 -0.1009  0.3537  0.6056
  278MOL0     C37428  -2.250  11.839   4.375  0.0347 -0.3804  0.1907
  278MOL0     C37429  -2.380  11.818   4.429  0.0588  0.1833 -0.7261
  278MOL0     C37430  -2.488  11.778   4.342  0.1962  0.4076 -1.3312
  278MOL0     O37431  -2.611  11.752   4.399  0.2156 -0.4812  0.3780
  278MOL0     C37432  -2.645  11.612   4.391  1.0858  0.9382  0.7881
  278MOL0     C37433  -2.760  11.573   4.480 -0.6156 -0.3750 -0.4411
  278MOL0     C37434  -2.823  11.438   4.465 -0.5578  0.0612 -0.3857
  278MOL0     C37435  -2.964  11.424   4.413  0.0530 -0.4662 -0.1529
  278MOL0     C37436  -2.978  11.284   4.345  0.1029 -0.5146  0.0142
  278MOL0     C37437  -2.982  11.162   4.441 -0.7531 -0.7664  0.8417
  278MOL0     C37438  -2.958  11.031   4.368  0.3008 -0.5443 -0.1294
  278MOL0     C37439  -2.909  10.923   4.451  0.1409  0.4148  0.2812
  278MOL0    Cl37440  -2.751  10.970   4.519  0.1463  0.1156  0.1475
  278MOL0     C37441  -2.470  11.761   4.206 -0.4029 -0.1882  0.1636
  278MOL0     C37442  -2.342  11.794   4.144  0.4135 -0.3399 -0.1741
  278MOL0     O37443  -2.173  12.022   4.054  0.4267  0.1146 -0.7336
  278MOL0     C37444  -1.857  11.832   4.066  0.0181  0.1004 -0.7865
  278MOL0     C37445  -1.718  11.833   4.043  0.1774  0.1559  1.0304
  278MOL0     N37446  -0.912  11.641   4.032 -0.9820  0.1634 -0.2074
  278MOL0     N37447  -0.828  11.567   3.962 -0.2881  0.3215 -0.7349
  278MOL0     C37448  -0.337  10.631   3.752  0.0568  0.1016  0.2302
  278MOL0     C37449  -0.209  10.632   3.697 -0.3849  0.1110  0.0388
  278MOL0     C37450   0.243  10.684   3.690 -0.4346  0.6250 -0.5927
  278MOL0     C37451   0.347  10.608   3.741 -0.0065  0.3308  0.3264
  278MOL0     C37452   0.476  10.610   3.686 -0.6628 -0.3885  0.3884
  278MOL0     C37453   0.501  10.688   3.571  1.6497 -0.3019  0.6415
  278MOL0     O37454   0.628  10.690   3.509 -0.1934  0.7395 -1.0023
  278MOL0     C37455   0.641  10.745   3.381 -0.3351 -0.0467  0.6092
  278MOL0     C37456   0.791  10.727   3.344  0.1586 -0.7535 -0.1400
  278MOL0     C37457   0.831  10.820   3.228  0.6954  0.0071  0.8602
  278MOL0     C37458   0.958  10.783   3.152 -0.5934 -0.7529 -0.4780
  278MOL0     C37459   1.073  10.815   3.242  0.1049  0.1311 -0.1222
  278MOL0     C37460   1.168  10.837   3.320 -0.8789 -0.2881  0.5953
  278MOL0     C37461   0.399  10.772   3.521  0.6116  0.3314  0.4372
  278MOL0     C37462   0.271  10.767   3.583 -0.2178  0.1639  0.2042
  278MOL0     H37463  -0.066  10.876   3.864  2.2942 -0.9130  0.1007
  278MOL0     H37464  -0.302  10.885   3.968 -0.1059 -0.7514  1.9341
  278MOL0     H37465  -0.593  10.617   3.775 -3.1248  0.7778 -4.0016
  278MOL0     H37466  -0.702  10.710   3.873  0.0702  0.4445  0.5957
  278MOL0     H37467  -0.522  10.816   3.650  0.4971 -1.6844  0.5799
  278MOL0     H37468  -0.695  10.771   3.623  1.0831 -1.2959 -1.5912
  278MOL0     H37469  -0.696  10.949   3.848 -0.8135 -1.2415 -0.4425
  278MOL0     H37470  -0.604  11.025   3.717  0.0015 -0.5979  0.6318
  278MOL0     H37471  -0.820  10.998   3.574  1.1793  0.0116  0.0116
  278MOL0     H37472  -0.888  10.909   3.716 -0.2315 -0.3477  0.3269
  278MOL0     H37473  -0.977  11.135   3.698  0.5495  0.8931  0.8760
  278MOL0     H37474  -0.888  11.113   3.844  1.3679 -0.2488 -0.1382
  278MOL0     H37475  -0.708  11.238   3.768 -2.4484  0.4486  1.8900
  278MOL0     H37476  -0.747  11.237   3.597 -0.3769 -1.9604 -1.0351
  278MOL0     H37477  -0.970  11.377   3.657  0.9775  2.4767 -0.7907
  278MOL0     H37478  -0.928  11.362   3.829 -0.0032  1.6849 -0.0796
  278MOL0     H37479  -0.824  11.542   3.615 -1.1014 -3.6594 -1.5807
  278MOL0     H37480  -0.694  11.474   3.728  0.7221 -0.0258 -1.7166
  278MOL0     H37481  -0.958  11.754   3.730  1.0143 -0.9297 -0.9890
  278MOL0     H37482  -1.042  11.854   4.096  0.4116  1.4167  0.3206
  278MOL0     H37483  -1.043  11.927   3.924  0.1129 -0.6870 -0.7340
  278MOL0     H37484  -1.249  11.742   4.069 -2.0685 -0.3020 -0.3959
  278MOL0     H37485  -1.221  11.724   3.906  1.0080 -0.1730 -1.0456
  278MOL0     H37486  -1.276  11.965   3.872  1.8694 -1.2138 -0.7993
  278MOL0     H37487  -1.263  11.997   4.043  4.8204 -0.3406 -1.7744
  278MOL0     H37488  -1.458  11.827   4.083 -1.6941 -1.4778 -1.6065
  278MOL0     H37489  -1.471  11.808   3.903 -0.4368  2.6961 -1.9165
  278MOL0     H37490  -1.683  12.165   3.963 -1.7694  1.5756  2.4944
  278MOL0     H37491  -2.036  12.207   3.938 -0.2840  1.1760  1.2953
  278MOL0     H37492  -1.985  12.238   4.101 -0.4486  0.1841 -0.9896
  278MOL0     H37493  -1.877  12.282   3.962 -0.3775  1.4582  0.5145
  278MOL0     H37494  -2.160  11.864   4.430 -1.3902  1.2793  1.9042
  278MOL0     H37495  -2.389  11.832   4.536 -1.6462 -3.5380 -0.2327
  278MOL0     H37496  -2.658  11.578   4.288  1.2117 -0.9522  1.3535
  278MOL0     H37497  -2.563  11.545   4.419 -0.5068 -1.3394  0.2964
  278MOL0     H37498  -2.725  11.596   4.582 -0.2240 -0.7696 -0.4816
  278MOL0     H37499  -2.832  11.649   4.449 -0.0752  0.1417 -0.4313
  278MOL0     H37500  -2.818  11.395   4.566 -2.8462  1.2861  0.3194
  278MOL0     H37501  -2.753  11.377   4.407 -0.1023 -1.7214  1.8867
  278MOL0     H37502  -3.032  11.440   4.497  2.2842  2.6520  1.2662
  278MOL0     H37503  -2.982  11.499   4.335  1.1028  0.8215  0.7961
  278MOL0     H37504  -2.906  11.275   4.262 -0.7489 -0.5902 -0.7338
  278MOL0     H37505  -3.069  11.293   4.285  0.4054  0.5703 -0.3171
  278MOL0     H37506  -2.898  11.179   4.509  0.1368 -3.7940  0.6448
  278MOL0     H37507  -3.073  11.164   4.502 -2.1268 -2.6774 -1.0020
  278MOL0     H37508  -2.899  11.052   4.278 -0.1309  1.5977  0.0354
  278MOL0     H37509  -3.050  10.995   4.322  1.1134 -1.2052 -1.3244
  278MOL0     H37510  -2.901  10.839   4.382  0.6283  2.4017 -2.2425
  278MOL0     H37511  -2.976  10.900   4.535 -0.5027  2.0658  0.2514
  278MOL0     H37512  -2.548  11.724   4.140  0.0276 -0.1491 -0.3721
  278MOL0     H37513  -2.329  11.790   4.036 -1.5956  1.9813 -0.5921
  278MOL0     H37514  -1.876  11.733   4.107  0.8132  0.8495  1.5471
  278MOL0     H37515  -1.656  11.745   4.061 -0.9398 -0.7531  0.5832
  278MOL0     H37516  -0.413  10.557   3.728 -1.5259  2.0033 -1.0054
  278MOL0     H37517  -0.177  10.570   3.614 -1.8891  1.0295 -1.2915
  278MOL0     H37518   0.328  10.553   3.832  0.8485 -0.7565 -0.1348
  278MOL0     H37519   0.556  10.549   3.727 -0.0401 -0.1648 -0.4756
  278MOL0     H37520   0.575  10.727   3.296 -0.3092 -0.1014  0.6007
  278MOL0     H37521   0.627  10.853   3.394  0.9123  0.2180 -0.0811
  278MOL0     H37522   0.798  10.619   3.328 -0.2261 -0.8383  0.2306
  278MOL0     H37523   0.851  10.764   3.428 -3.1649  1.6181  1.4291
  278MOL0     H37524   0.842  10.920   3.272 -0.2916  0.4740  0.0933
  278MOL0     H37525   0.752  10.818   3.152  1.6818  0.4744 -0.1946
  278MOL0     H37526   0.977  10.833   3.056  3.3540  0.3634  0.7118
  278MOL0     H37527   0.956  10.675   3.135  0.5032 -1.1222  1.4870
  278MOL0     H37528   1.258  10.848   3.377 -0.0325 -0.5645 -0.6608
  278MOL0     H37529   0.412  10.832   3.432  1.4405  1.2222  1.1391
  278MOL0     H37530   0.179  10.811   3.545 -2.7333 -3.7485  1.2649
  279MOL0     O37531   2.094   7.464   9.290 -0.5109  0.1008 -0.4262
  279MOL0     C37532   2.108   7.350   9.349 -0.1704 -0.3755  0.5779
  279MOL0     O37533   2.018   7.288   9.436 -0.2074  0.4168  0.4036
  279MOL0     C37534   1.882   7.301   9.435 -0.3334  0.1124 -0.8432
  279MOL0     C37535   1.807   7.234   9.531  0.0100  0.2828  0.2809
  279MOL0     C37536   1.665   7.232   9.525  0.0234  0.2467 -0.5479
  279MOL0     C37537   1.600   7.277   9.420  0.0173 -1.3317  0.0986
  279MOL0     O37538   1.466   7.249   9.412 -0.1007  0.0732  0.3162
  279MOL0     C37539   1.399   7.294   9.293 -0.0330  0.6117  0.5765
  279MOL0     C37540   1.253   7.258   9.315 -0.5157 -0.7005  0.5854
  279MOL0     C37541   1.172   7.280   9.189  0.1665 -0.0342 -0.1386
  279MOL0     C37542   1.043   7.189   9.177 -0.8210 -0.0938  1.0116
  279MOL0     C37543   0.926   7.264   9.253 -0.6965 -1.4174  0.2367
  279MOL0     C37544   0.800   7.181   9.304  0.5962  0.1364 -0.3190
  279MOL0     C37545   0.733   7.112   9.174 -0.5681  0.1871  0.0800
  279MOL0     C37546   0.615   7.014   9.194 -0.1951 -1.3550 -0.2694
  279MOL0     N37547   0.496   7.092   9.232 -0.8923  0.1077 -0.3568
  279MOL0     C37548   0.442   7.201   9.159  0.0085 -0.3582 -0.8637
  279MOL0     C37549   0.359   7.264   9.242  0.0160 -0.7708 -1.2971
  279MOL0     C37550   0.260   7.374   9.214  0.5351 -0.1846  0.3553
  279MOL0     C37551   0.115   7.331   9.251 -0.7556  0.2890 -0.4983
  279MOL0     C37552   0.065   7.185   9.219  0.3123 -0.4172 -1.0056
  279MOL0     C37553  -0.089   7.166   9.205 -0.5326 -0.5740  0.2528
  279MOL0     O37554  -0.125   7.030   9.192 -0.0117  0.1271 -0.7244
  279MOL0     C37555  -0.252   7.007   9.238  0.6441 -0.8105  0.3730
  279MOL0     C37556  -0.280   6.890   9.307 -0.0248  0.1094 -0.3487
  279MOL0     C37557  -0.406   6.848   9.344  0.1494  0.2192 -0.2105
  279MOL0     C37558  -0.411   6.717   9.426  0.4302  0.2159  0.7158
  279MOL0     C37559  -0.512   6.914   9.286  0.2350 -0.2622  0.0747
  279MOL0     C37560  -0.654   6.867   9.280 -0.6390 -0.4960 -0.4217
  279MOL0     O37561  -0.686   6.735   9.311  0.1755 -0.4970 -0.0995
  279MOL0     C37562  -0.817   6.717   9.323 -0.1580 -0.6656 -0.1831
  279MOL0     C37563  -0.906   6.726   9.218  0.2830 -0.1582  0.5943
  279MOL0     C37564  -1.047   6.707   9.237  0.3487 -0.1846  0.7995
  279MOL0     C37565  -1.097   6.685   9.366 -0.1270 -0.9202  1.1377
  279MOL0     O37566  -1.232   6.685   9.401 -0.0902 -0.1260 -1.1935
  279MOL0     C37567  -1.332   6.669   9.296 -0.9161 -0.4574 -0.8009
  279MOL0     C37568  -1.469   6.637   9.357 -0.8091 -0.3231  0.7662
  279MOL0     C37569  -1.580   6.658   9.256 -0.6975 -0.3107 -0.4042
  279MOL0     C37570  -1.722   6.641   9.316  0.1465  1.5725  0.1927
  279MOL0     C37571  -1.831   6.639   9.217 -0.5977 -0.0955  0.4093
  279MOL0     C37572  -1.966   6.605   9.279 -0.9645  0.6389 -0.0786
  279MOL0     C37573  -2.077   6.595   9.171 -0.1955  0.5323 -0.4675
  279MOL0     C37574  -2.214   6.624   9.228 -0.6582 -0.0103  0.0149
  279MOL0    Cl37575  -2.268   6.489   9.331  0.1995 -0.0417  0.3919
  279MOL0     C37576  -1.000   6.671   9.466  0.3093  0.2272 -0.3911
  279MOL0     C37577  -0.863   6.686   9.444  0.7589  0.4607 -1.0460
  279MOL0     O37578  -0.733   6.953   9.243  0.1863  0.5321 -1.0513
  279MOL0     C37579  -0.490   7.043   9.241 -0.2508 -0.1336  0.3213
  279MOL0     C37580  -0.365   7.082   9.196  0.2666  0.0301  0.4183
  279MOL0     N37581   0.363   7.208   9.372  0.1923  0.2193  0.3636
  279MOL0     N37582   0.440   7.104   9.362 -0.4463  0.0577 -0.0874
  279MOL0     C37583   1.673   7.339   9.325 -0.0981  0.2154  0.4462
  279MOL0     C37584   1.809   7.359   9.332 -0.5010 -0.4511  0.4841
  279MOL0     C37585   2.235   7.280   9.336  0.2995  0.7496 -0.2333
  279MOL0     C37586   2.265   7.162   9.413 -0.0726 -0.5271  0.7537
  279MOL0     C37587   2.396   7.111   9.401 -0.4592 -0.1331 -0.0781
  279MOL0     C37588   2.495   7.165   9.324  0.6978 -0.5437 -0.0509
  279MOL0     O37589   2.620   7.108   9.316  1.2880 -0.3464 -0.4013
  279MOL0     C37590   2.727   7.168   9.235 -0.0073  0.0574  0.7068
  279MOL0     C37591   2.847   7.076   9.234 -0.1488  0.6497  1.3365
  279MOL0     C37592   2.924   7.090   9.366 -0.0281  1.1301  0.7191
  279MOL0     C37593   3.059   7.016   9.376 -0.6900 -0.9253  0.1473
  279MOL0     C37594   3.038   6.874   9.398  0.2759  0.7096  0.1715
  279MOL0     C37595   3.007   6.757   9.421 -0.0188  0.1272  0.2802
  279MOL0     C37596   2.471   7.282   9.261  0.9588  0.0504  0.0540
  279MOL0     C37597   2.341   7.337   9.261  0.0037 -0.3907  1.4032
  279MOL0     H37598   1.863   7.179   9.606 -1.2344  0.1652  1.1414
  279MOL0     H37599   1.610   7.181   9.604  1.2659  0.3588  0.4166
  279MOL0     H37600   1.408   7.398   9.262  0.2918  0.2049 -0.7900
  279MOL0     H37601   1.436   7.224   9.217 -0.1011  2.2777 -1.0509
  279MOL0     H37602   1.255   7.152   9.345 -1.5720 -0.7026  0.6903
  279MOL0     H37603   1.212   7.322   9.394  3.7440  4.2642 -0.7105
  279MOL0     H37604   1.147   7.385   9.169 -2.2583 -1.1224 -3.8172
  279MOL0     H37605   1.226   7.241   9.102 -0.2030 -0.4592 -0.1770
  279MOL0     H37606   1.008   7.171   9.075 -0.6952  3.6335  0.1481
  279MOL0     H37607   1.070   7.099   9.233 -0.7657 -0.8143 -0.1396
  279MOL0     H37608   0.972   7.311   9.340 -1.8384 -2.3310  1.3589
  279MOL0     H37609   0.886   7.354   9.204  0.3411 -0.2113  1.5295
  279MOL0     H37610   0.823   7.104   9.378 -2.9018 -1.1521 -0.3655
  279MOL0     H37611   0.732   7.252   9.353  1.1950  2.2902 -2.4184
  279MOL0     H37612   0.702   7.199   9.114 -2.4132  0.0627  0.7799
  279MOL0     H37613   0.810   7.054   9.122 -1.1828 -1.2528  0.7235
  279MOL0     H37614   0.635   6.948   9.278  0.9112  2.8088  3.0771
  279MOL0     H37615   0.585   6.959   9.104  0.5966 -0.7710 -0.9104
  279MOL0     H37616   0.471   7.228   9.058  0.9623  0.8129 -0.3042
  279MOL0     H37617   0.294   7.451   9.284 -0.4394  0.1737  0.4512
  279MOL0     H37618   0.267   7.405   9.110 -0.3186  1.7641  0.8398
  279MOL0     H37619   0.046   7.400   9.199 -0.4901  2.0641  1.3893
  279MOL0     H37620   0.107   7.345   9.359  0.5180 -0.3343 -0.3149
  279MOL0     H37621   0.100   7.113   9.293  1.3813 -1.3371 -2.3574
  279MOL0     H37622   0.116   7.152   9.128  1.1176  0.5313 -0.9164
  279MOL0     H37623  -0.119   7.226   9.118 -0.5577  1.4495  1.5748
  279MOL0     H37624  -0.146   7.223   9.279 -1.9208  1.9463 -2.5376
  279MOL0     H37625  -0.200   6.822   9.335 -0.3097  0.9926  3.0232
  279MOL0     H37626  -0.314   6.685   9.466 -0.0112 -0.0212  1.6321
  279MOL0     H37627  -0.477   6.708   9.513  3.1898  1.0189  3.1088
  279MOL0     H37628  -0.428   6.639   9.351 -0.0334  0.7014  0.3129
  279MOL0     H37629  -0.871   6.751   9.119  0.2423 -2.3202 -0.0200
  279MOL0     H37630  -1.108   6.738   9.152  0.8863 -2.3695 -0.4584
  279MOL0     H37631  -1.339   6.768   9.250 -2.1141  0.8692  1.9799
  279MOL0     H37632  -1.302   6.593   9.223  0.3013  1.3951 -2.3214
  279MOL0     H37633  -1.458   6.538   9.403 -1.3189 -1.8520 -2.1926
  279MOL0     H37634  -1.486   6.706   9.441 -0.2676  1.9068 -0.8748
  279MOL0     H37635  -1.565   6.587   9.174  0.1931  0.2398 -0.7294
  279MOL0     H37636  -1.581   6.754   9.205 -1.4227 -0.4936 -0.7578
  279MOL0     H37637  -1.721   6.547   9.373 -3.4725  2.8242  2.6596
  279MOL0     H37638  -1.739   6.720   9.389 -3.4392  0.2671  1.0066
  279MOL0     H37639  -1.796   6.570   9.140  1.0356  3.7228 -2.6321
  279MOL0     H37640  -1.827   6.739   9.171 -0.1915 -1.1427 -1.9921
  279MOL0     H37641  -1.957   6.505   9.323  1.0593  2.7171  5.0535
  279MOL0     H37642  -1.990   6.671   9.363  1.0413  0.4610  0.6916
  279MOL0     H37643  -2.077   6.493   9.132  3.3463  1.1235 -2.3642
  279MOL0     H37644  -2.048   6.661   9.089  0.3412 -0.1374 -0.8295
  279MOL0     H37645  -2.286   6.636   9.146 -0.3961  2.4913  0.0811
  279MOL0     H37646  -2.216   6.721   9.279 -0.9111  0.7601 -1.4067
  279MOL0     H37647  -1.039   6.655   9.566 -1.6584  1.9729 -0.8113
  279MOL0     H37648  -0.797   6.677   9.529 -0.2009 -0.2390 -0.3519
  279MOL0     H37649  -0.572   7.106   9.210 -1.6399 -1.5757  0.9255
  279MOL0     H37650  -0.367   7.161   9.121 -0.7977 -1.8036 -1.6238
  279MOL0     H37651   1.625   7.377   9.236 -2.1800  1.5780  2.0438
  279MOL0     H37652   1.854   7.411   9.249 -3.4069 -0.4912 -1.2554
  279MOL0     H37653   2.197   7.108   9.477 -0.9437 -2.2056 -1.4627
  279MOL0     H37654   2.417   7.018   9.454 -3.0450 -1.5054 -1.2728
  279MOL0     H37655   2.703   7.195   9.132  2.8508 -0.8345 -0.2992
  279MOL0     H37656   2.756   7.265   9.277  0.7593 -0.6335  1.8050
  279MOL0     H37657   2.916   7.080   9.149  0.2553  1.5717  1.6912
  279MOL0     H37658   2.809   6.973   9.231  0.4860  0.4380 -0.3448
  279MOL0     H37659   2.857   7.052   9.444 -1.9471  0.6126 -1.0816
  279MOL0     H37660   2.945   7.196   9.385 -0.6609  0.9519  2.6309
  279MOL0     H37661   3.112   7.043   9.468  0.5200 -0.7514 -0.5807
  279MOL0     H37662   3.122   7.038   9.290 -2.6624  4.0664 -0.2998
  279MOL0     H37663   2.990   6.654   9.445 -1.3907  0.5427  1.2076
  279MOL0     H37664   2.547   7.335   9.204  0.3123  1.3390  0.3377
  279MOL0     H37665   2.324   7.426   9.201 -1.5323 -1.7561 -0.2947
  280MOL0     O37666   2.203   7.614   8.525 -0.6106 -0.3318 -0.0398
  280MOL0     C37667   2.266   7.514   8.523 -0.5141 -0.4954  0.1817
  280MOL0     O37668   2.204   7.384   8.499  0.8254  0.1054  0.5152
  280MOL0     C37669   2.068   7.385   8.468  0.5814 -0.2229  1.1739
  280MOL0     C37670   2.025   7.426   8.340 -0.1633  0.0075 -0.0699
  280MOL0     C37671   1.889   7.439   8.303  0.3014 -0.6199 -0.0825
  280MOL0     C37672   1.789   7.400   8.390 -0.8176  0.2499 -0.2499
  280MOL0     O37673   1.655   7.405   8.355 -0.5801 -0.1962  0.1155
  280MOL0     C37674   1.578   7.292   8.414 -0.5694 -0.1607 -0.0449
  280MOL0     C37675   1.428   7.305   8.375 -0.8984  1.2526  0.2443
  280MOL0     C37676   1.345   7.188   8.419  0.7485  0.9040  0.3026
  280MOL0     C37677   1.214   7.201   8.341  0.2499  0.3008 -0.0131
  280MOL0     C37678   1.121   7.295   8.421 -0.4158 -0.0837  0.7082
  280MOL0     C37679   1.023   7.359   8.327  0.0256  0.6504 -0.2721
  280MOL0     C37680   0.911   7.260   8.281  1.3760 -0.5777  0.3750
  280MOL0     C37681   0.765   7.321   8.305  0.0704  0.2336  0.2955
  280MOL0     N37682   0.658   7.239   8.238  0.3023  0.0769 -0.4361
  280MOL0     C37683   0.633   7.229   8.107 -0.2284  0.8021 -0.5283
  280MOL0     C37684   0.530   7.152   8.101  1.0442  0.2089  0.1590
  280MOL0     C37685   0.477   7.091   7.974 -0.6330  0.2740  0.2285
  280MOL0     C37686   0.510   7.158   7.834 -0.2352  1.1425  0.1580
  280MOL0     C37687   0.408   7.117   7.731  0.2217 -0.6320  0.0555
  280MOL0     C37688   0.391   6.969   7.708  0.0225  1.6114  0.1252
  280MOL0     O37689   0.286   6.916   7.792 -0.4586 -0.3278 -0.3307
  280MOL0     C37690   0.154   6.964   7.798  1.0005  0.3416  0.5976
  280MOL0     C37691   0.096   7.033   7.691 -0.3966 -0.4724 -1.1934
  280MOL0     C37692  -0.042   7.067   7.685 -0.5990  0.2419 -0.6855
  280MOL0     C37693  -0.090   7.133   7.557  0.4476  0.8093  0.6376
  280MOL0     C37694  -0.125   7.026   7.794 -0.5599  0.2768 -0.1583
  280MOL0     C37695  -0.272   7.035   7.796 -0.5475 -0.3562 -0.4258
  280MOL0     O37696  -0.337   7.060   7.918  0.0045  0.3793  0.2191
  280MOL0     C37697  -0.472   7.074   7.939 -0.1216 -0.0086  0.1523
  280MOL0     C37698  -0.564   7.082   7.846  0.1904  0.1415 -0.0313
  280MOL0     C37699  -0.699   7.099   7.889 -0.6048 -0.2273  1.1888
  280MOL0     C37700  -0.745   7.105   8.014 -0.1836  0.0935 -0.2347
  280MOL0     O37701  -0.878   7.123   8.025 -0.1571  0.4259 -0.0221
  280MOL0     C37702  -0.930   7.147   8.155  0.6034 -0.9861 -0.0416
  280MOL0     C37703  -1.083   7.188   8.151 -0.7440  0.0211  0.1586
  280MOL0     C37704  -1.156   7.070   8.092  0.2063 -0.1073  0.7266
  280MOL0     C37705  -1.310   7.074   8.081 -0.1202 -0.2076  0.3004
  280MOL0     C37706  -1.331   7.108   7.932  0.4321  0.9253 -0.2306
  280MOL0     C37707  -1.488   7.104   7.891 -0.3762 -0.1512  0.1220
  280MOL0     C37708  -1.524   7.196   7.773  0.3352 -0.1802  0.0732
  280MOL0     C37709  -1.663   7.241   7.757  0.0881 -0.1965 -0.3320
  280MOL0    Cl37710  -1.779   7.100   7.756  0.1918 -0.1625 -0.3940
  280MOL0     C37711  -0.644   7.087   8.116 -0.7164 -0.4383 -0.2263
  280MOL0     C37712  -0.510   7.084   8.073 -0.0681 -0.6908 -0.4633
  280MOL0     O37713  -0.320   7.006   7.690  0.2030  0.8125  0.7114
  280MOL0     C37714  -0.060   6.967   7.902 -0.3955  1.3463  0.4796
  280MOL0     C37715   0.076   6.943   7.904 -0.2583 -0.1478 -0.1027
  280MOL0     N37716   0.485   7.114   8.228  0.7062  0.1385  0.3552
  280MOL0     N37717   0.570   7.162   8.306 -0.0835  0.4345  0.5906
  280MOL0     C37718   1.837   7.355   8.524  0.2007  0.7701  0.0114
  280MOL0     C37719   1.971   7.345   8.560 -0.4086  1.2921 -0.5159
  280MOL0     C37720   2.416   7.518   8.535 -1.3846 -0.5611 -0.6744
  280MOL0     C37721   2.502   7.417   8.490 -0.3253  0.0940  1.1131
  280MOL0     C37722   2.635   7.421   8.514  0.2835 -0.6943  0.7363
  280MOL0     C37723   2.696   7.525   8.579 -0.0853  0.1234  0.7684
  280MOL0     O37724   2.828   7.508   8.611  0.0677  0.4926 -0.1483
  280MOL0     C37725   2.901   7.598   8.708 -0.3341  0.1688  1.0364
  280MOL0     C37726   2.911   7.526   8.836  0.2996  0.1965 -0.0690
  280MOL0     C37727   2.952   7.381   8.822  0.6639  0.6382 -0.3292
  280MOL0     C37728   3.084   7.362   8.755 -0.0202 -0.2739 -0.0287
  280MOL0     C37729   3.110   7.229   8.721 -0.1561 -0.2044  0.4510
  280MOL0     C37730   3.130   7.110   8.684  0.6855 -0.3986 -0.1831
  280MOL0     C37731   2.615   7.632   8.623  0.4099  0.5975  0.4352
  280MOL0     C37732   2.476   7.625   8.601  0.2256 -0.3493  0.1868
  280MOL0     H37733   2.096   7.454   8.263  0.2065  1.8486  0.8694
  280MOL0     H37734   1.864   7.476   8.204  0.0030 -0.8818 -0.1072
  280MOL0     H37735   1.614   7.194   8.383 -0.0155  0.6068 -1.9807
  280MOL0     H37736   1.581   7.288   8.523  0.3593 -0.4060 -0.0691
  280MOL0     H37737   1.400   7.403   8.416 -0.8640  1.8142 -1.0398
  280MOL0     H37738   1.425   7.311   8.266  1.5596 -1.2781 -0.0849
  280MOL0     H37739   1.388   7.092   8.390 -0.0127 -0.2714  2.8275
  280MOL0     H37740   1.328   7.183   8.527 -0.6184  2.5175  0.2184
  280MOL0     H37741   1.224   7.232   8.237 -0.1007 -1.2270 -0.5270
  280MOL0     H37742   1.153   7.112   8.326  3.0272 -1.4657 -1.6361
  280MOL0     H37743   1.058   7.236   8.488  0.3810 -0.7641  0.8781
  280MOL0     H37744   1.175   7.376   8.470 -0.5411  2.1601 -2.5598
  280MOL0     H37745   0.975   7.440   8.383 -3.0723 -0.6430 -0.8438
  280MOL0     H37746   1.074   7.389   8.234 -0.5111  1.7831 -0.2223
  280MOL0     H37747   0.915   7.246   8.173 -2.9413  0.8074 -0.1303
  280MOL0     H37748   0.919   7.161   8.326 -2.8358 -0.2574  2.2754
  280MOL0     H37749   0.768   7.421   8.261  0.0411 -0.7857 -2.1753
  280MOL0     H37750   0.753   7.325   8.414  0.4176  0.0247  0.3414
  280MOL0     H37751   0.684   7.278   8.024 -3.1000  2.1908 -1.6277
  280MOL0     H37752   0.501   6.985   7.967 -2.4661 -0.5999  3.9960
  280MOL0     H37753   0.371   7.102   8.002  0.5432  1.9477  5.0475
  280MOL0     H37754   0.610   7.124   7.807 -0.1279  2.2615 -0.9363
  280MOL0     H37755   0.510   7.267   7.838 -1.0501  1.1137  1.6087
  280MOL0     H37756   0.430   7.164   7.635 -1.2377  1.7095  0.7508
  280MOL0     H37757   0.312   7.162   7.759  0.0447 -0.1007 -1.3363
  280MOL0     H37758   0.490   6.921   7.715  0.7555  3.0274 -0.1773
  280MOL0     H37759   0.357   6.951   7.606 -2.7350  0.3671  1.1680
  280MOL0     H37760   0.158   7.056   7.605  0.4290  1.7377 -0.0789
  280MOL0     H37761  -0.010   7.200   7.521  1.0012  0.5561  1.3640
  280MOL0     H37762  -0.094   7.045   7.492  1.6721 -2.3215  4.3918
  280MOL0     H37763  -0.180   7.194   7.563  0.9369  1.4725  1.5789
  280MOL0     H37764  -0.559   7.081   7.738 -1.8675 -3.6609 -0.2674
  280MOL0     H37765  -0.767   7.119   7.807  0.2162  0.5555  0.6925
  280MOL0     H37766  -0.926   7.061   8.223  0.1860 -0.2629  0.9095
  280MOL0     H37767  -0.869   7.228   8.194 -0.1106  0.1010 -1.1213
  280MOL0     H37768  -1.128   7.205   8.250  1.3543  3.3154  0.7031
  280MOL0     H37769  -1.092   7.276   8.086  0.1722 -0.8930 -1.2545
  280MOL0     H37770  -1.155   6.992   8.169 -1.4495  0.3816  1.2770
  280MOL0     H37771  -1.104   7.030   8.005 -0.6038 -2.1711  1.1335
  280MOL0     H37772  -1.358   6.978   8.100 -2.9589  0.3108 -3.0972
  280MOL0     H37773  -1.346   7.155   8.145  0.2244 -1.3098  1.9513
  280MOL0     H37774  -1.273   7.042   7.867  2.8552  1.8052  0.9137
  280MOL0     H37775  -1.293   7.208   7.906  3.2036 -0.8873 -4.1625
  280MOL0     H37776  -1.523   7.003   7.871 -2.7655  0.1439  2.2552
  280MOL0     H37777  -1.544   7.143   7.977 -1.1905  2.4545 -1.4667
  280MOL0     H37778  -1.510   7.132   7.685 -0.2580 -2.4876  1.5666
  280MOL0     H37779  -1.453   7.277   7.760  0.7065 -0.3038  1.2481
  280MOL0     H37780  -1.661   7.278   7.654  1.5939 -3.5223 -1.6586
  280MOL0     H37781  -1.690   7.329   7.815 -0.2198 -0.7600  0.4046
  280MOL0     H37782  -0.673   7.069   8.219  0.7887  3.2436  1.0133
  280MOL0     H37783  -0.435   7.076   8.150  2.4142 -1.5597 -2.8102
  280MOL0     H37784  -0.112   6.932   7.990  1.0048 -1.4674  0.3007
  280MOL0     H37785   0.122   6.897   7.992 -1.2631 -2.5070 -0.7134
  280MOL0     H37786   1.764   7.334   8.602 -0.8318  0.7881 -0.9239
  280MOL0     H37787   1.991   7.307   8.660 -0.0549  1.4038 -0.5440
  280MOL0     H37788   2.457   7.327   8.448 -0.8282  0.1587  1.5076
  280MOL0     H37789   2.693   7.341   8.468 -0.9398 -1.3681  0.3137
  280MOL0     H37790   2.996   7.628   8.662 -1.5523 -0.5023 -2.2645
  280MOL0     H37791   2.847   7.691   8.727 -0.7288  0.5326 -1.4361
  280MOL0     H37792   2.815   7.532   8.889  1.6734  0.6091  2.5141
  280MOL0     H37793   2.973   7.582   8.906 -0.2256 -1.0455  1.4364
  280MOL0     H37794   2.872   7.339   8.760  0.9342  3.0591 -2.4566
  280MOL0     H37795   2.956   7.329   8.919 -2.9515  0.2254 -0.2464
  280MOL0     H37796   3.163   7.394   8.824 -1.6480  3.4034  0.3538
  280MOL0     H37797   3.088   7.413   8.658 -0.2844  2.3815  1.2867
  280MOL0     H37798   3.135   7.016   8.632  1.7942 -0.6278  0.3131
  280MOL0     H37799   2.658   7.726   8.654  2.6975  1.1480 -3.6342
  280MOL0     H37800   2.418   7.707   8.643 -1.1534 -2.0682  1.7715
  281MOL0     O37801   1.202   9.490   9.398 -0.1955 -0.2795  0.1990
  281MOL0     C37802   1.270   9.389   9.376  0.5539  0.5782 -0.0123
  281MOL0     O37803   1.219   9.266   9.343  0.1977  0.2919  0.6164
  281MOL0     C37804   1.083   9.238   9.357 -0.7695  0.2536 -0.2040
  281MOL0     C37805   0.985   9.326   9.305  0.2295  0.1275  0.3220
  281MOL0     C37806   0.849   9.285   9.311 -0.2626 -0.8799  0.7169
  281MOL0     C37807   0.809   9.165   9.368  0.3585 -0.0610 -0.3062
  281MOL0     O37808   0.680   9.124   9.380  1.0203 -0.5512  0.4378
  281MOL0     C37809   0.590   9.216   9.441 -0.2736 -0.5497 -0.1324
  281MOL0     C37810   0.496   9.291   9.352 -0.0433  0.4908 -0.0987
  281MOL0     C37811   0.379   9.207   9.293  0.2070 -0.5475 -0.6915
  281MOL0     C37812   0.274   9.289   9.228 -0.3176  0.1511  1.1965
  281MOL0     C37813   0.171   9.358   9.311 -0.1789  0.3196  0.1117
  281MOL0     C37814   0.121   9.266   9.434 -0.8295  0.5440  0.5284
  281MOL0     C37815  -0.006   9.320   9.493 -0.6069  0.5388  0.4878
  281MOL0     C37816  -0.112   9.332   9.378 -0.0651 -0.4129 -0.7277
  281MOL0     N37817  -0.245   9.302   9.427  0.7819 -0.6163  0.2739
  281MOL0     C37818  -0.320   9.372   9.523 -0.3949  1.1469 -0.3560
  281MOL0     C37819  -0.443   9.317   9.509 -0.3527 -0.0572 -0.2418
  281MOL0     C37820  -0.552   9.337   9.610  0.9211  0.0668  0.1858
  281MOL0     C37821  -0.612   9.473   9.582 -0.4281 -1.0391  0.4846
  281MOL0     C37822  -0.708   9.466   9.467 -0.2074 -0.7363  0.2006
  281MOL0     C37823  -0.839   9.395   9.499  0.9749  0.0934  0.1083
  281MOL0     O37824  -0.911   9.398   9.373 -0.3833  0.6083  0.3009
  281MOL0     C37825  -1.034   9.327   9.364  0.3987  0.2437  0.3504
  281MOL0     C37826  -1.072   9.291   9.239  0.3331 -0.4613 -0.7511
  281MOL0     C37827  -1.197   9.228   9.218 -0.3126 -0.4072  0.1001
  281MOL0     C37828  -1.232   9.194   9.070  0.0178  0.4892 -0.4851
  281MOL0     C37829  -1.279   9.196   9.325 -0.4805  0.5604 -1.0588
  281MOL0     C37830  -1.412   9.136   9.316 -0.1240  0.3085  0.3107
  281MOL0     O37831  -1.501   9.162   9.415 -0.3832 -0.2654  0.7741
  281MOL0     C37832  -1.631   9.138   9.387  0.2934  0.1066 -0.7230
  281MOL0     C37833  -1.731   9.238   9.410  0.5908  0.4413  0.3692
  281MOL0     C37834  -1.871   9.214   9.407  0.1251  0.4771 -0.8675
  281MOL0     C37835  -1.912   9.096   9.355 -0.5090  0.5010 -0.3016
  281MOL0     O37836  -2.047   9.081   9.346 -0.5323  0.0466  0.2545
  281MOL0     C37837  -2.099   8.959   9.294  0.2006 -0.0289  0.8794
  281MOL0     C37838  -2.248   8.987   9.253 -0.3007 -0.4764  0.1939
  281MOL0     C37839  -2.305   8.881   9.167  0.5343  0.5810 -0.3045
  281MOL0     C37840  -2.438   8.911   9.098  0.6411 -0.3881  0.5132
  281MOL0     C37841  -2.435   9.035   8.991  0.2150  0.2443 -0.7067
  281MOL0     C37842  -2.579   9.071   8.950 -1.2933 -0.0560 -0.0644
  281MOL0     C37843  -2.619   8.992   8.828  0.7611  0.5581  0.3784
  281MOL0     C37844  -2.743   9.076   8.776  0.4328 -0.1470 -0.7235
  281MOL0    Cl37845  -2.885   9.092   8.878 -0.2123  0.0456  0.6107
  281MOL0     C37846  -1.822   9.005   9.323 -0.8410 -0.0027  0.4905
  281MOL0     C37847  -1.683   9.011   9.353 -0.2927 -0.0217  1.0348
  281MOL0     O37848  -1.435   9.070   9.214 -0.0727 -0.1579  0.0576
  281MOL0     C37849  -1.228   9.218   9.455 -0.1465 -0.2548  0.1996
  281MOL0     C37850  -1.104   9.279   9.472 -0.4634 -0.0215 -1.3484
  281MOL0     N37851  -0.447   9.215   9.415  0.3486 -0.4556 -0.4946
  281MOL0     N37852  -0.327   9.213   9.364 -0.3021  0.1284  0.7799
  281MOL0     C37853   0.914   9.082   9.413  0.2151 -0.0779  0.3521
  281MOL0     C37854   1.050   9.113   9.415  0.1608  0.3928 -0.1516
  281MOL0     C37855   1.421   9.395   9.377 -0.2901 -0.3613 -0.2702
  281MOL0     C37856   1.503   9.299   9.325 -0.3467 -0.0651 -0.2179
  281MOL0     C37857   1.642   9.310   9.338 -0.9022 -0.2519  0.0063
  281MOL0     C37858   1.699   9.412   9.412  0.1100 -0.7219  0.0862
  281MOL0     O37859   1.832   9.438   9.419 -0.1865 -0.0823  0.2700
  281MOL0     C37860   1.931   9.335   9.419  0.9856  0.6325 -0.0056
  281MOL0     C37861   1.926   9.243   9.538  0.2334 -0.4551 -0.4721
  281MOL0     C37862   1.932   9.317   9.672  0.0427  0.1305 -0.8376
  281MOL0     C37863   1.993   9.255   9.804  0.4065  0.2878 -0.2099
  281MOL0     C37864   1.975   9.351   9.910  0.7630  0.0092  0.3113
  281MOL0     C37865   1.959   9.426  10.002 -1.0569 -0.8787 -0.2739
  281MOL0     C37866   1.616   9.511   9.470 -0.4608  0.8164 -0.0036
  281MOL0     C37867   1.481   9.498   9.452  0.1391 -0.5819  0.2997
  281MOL0     H37868   1.010   9.426   9.271  0.0420 -0.6516 -2.3318
  281MOL0     H37869   0.767   9.347   9.275  0.2469 -0.6333 -0.0516
  281MOL0     H37870   0.529   9.167   9.518 -1.0862  2.8452  1.5715
  281MOL0     H37871   0.649   9.292   9.494  1.2383  0.8902 -3.6102
  281MOL0     H37872   0.456   9.378   9.406  2.1223  2.2184 -1.0917
  281MOL0     H37873   0.539   9.332   9.260  1.4639 -2.0437 -0.6256
  281MOL0     H37874   0.414   9.127   9.228 -0.3677 -1.9931  0.7230
  281MOL0     H37875   0.337   9.167   9.386  2.8503  2.8809  2.2831
  281MOL0     H37876   0.323   9.371   9.174 -2.4908  0.6497 -0.1428
  281MOL0     H37877   0.221   9.234   9.150  0.9858 -0.3507  0.6256
  281MOL0     H37878   0.207   9.451   9.355 -1.9829 -0.1104  2.7332
  281MOL0     H37879   0.088   9.381   9.244 -1.4114 -4.3222 -0.2649
  281MOL0     H37880   0.109   9.164   9.398 -0.2846  0.4377  0.6407
  281MOL0     H37881   0.191   9.264   9.518 -2.3162 -1.1606  1.8085
  281MOL0     H37882  -0.035   9.241   9.563  0.5476 -1.0315 -0.7380
  281MOL0     H37883   0.009   9.415   9.546 -0.5815  1.2100 -0.6851
  281MOL0     H37884  -0.089   9.260   9.299  4.6635  1.3146 -1.2571
  281MOL0     H37885  -0.108   9.434   9.338 -0.7943  0.8508  2.1596
  281MOL0     H37886  -0.287   9.445   9.596  0.4004 -1.3164  1.8594
  281MOL0     H37887  -0.619   9.251   9.610  2.1344 -0.9522 -1.5209
  281MOL0     H37888  -0.497   9.342   9.704  0.7007  0.8983  0.2749
  281MOL0     H37889  -0.534   9.550   9.577  1.2107 -2.6632 -2.8235
  281MOL0     H37890  -0.679   9.500   9.664 -0.9735 -2.4855  0.5354
  281MOL0     H37891  -0.666   9.436   9.370 -0.2155 -4.2260  1.1594
  281MOL0     H37892  -0.735   9.572   9.459  0.7529 -0.4886  0.0953
  281MOL0     H37893  -0.896   9.445   9.578  1.0908  0.2272  0.1088
  281MOL0     H37894  -0.823   9.293   9.534  1.8525 -0.3497 -1.4969
  281MOL0     H37895  -1.003   9.309   9.157 -0.3169 -1.4281 -1.5436
  281MOL0     H37896  -1.156   9.222   8.997  1.8659 -0.0126  1.1911
  281MOL0     H37897  -1.269   9.092   9.054 -2.4143  1.3285 -0.7324
  281MOL0     H37898  -1.325   9.247   9.046 -0.8666 -0.4283  0.7573
  281MOL0     H37899  -1.697   9.335   9.444  2.7714  0.8886 -2.7236
  281MOL0     H37900  -1.953   9.279   9.434  1.8519  2.5677 -0.3789
  281MOL0     H37901  -2.042   8.908   9.215 -0.3265 -1.6349  1.4996
  281MOL0     H37902  -2.099   8.884   9.373 -0.3730 -0.0622  0.8511
  281MOL0     H37903  -2.301   9.007   9.347  0.7000  0.7334  0.5343
  281MOL0     H37904  -2.245   9.079   9.193 -0.9771 -1.9370 -2.2008
  281MOL0     H37905  -2.310   8.792   9.231 -0.2680  1.2722  0.6258
  281MOL0     H37906  -2.234   8.861   9.086 -0.3162 -0.0276 -0.9202
  281MOL0     H37907  -2.473   8.829   9.035 -0.7582  0.9533 -0.5478
  281MOL0     H37908  -2.520   8.918   9.171 -0.5358 -0.2802 -0.7629
  281MOL0     H37909  -2.369   9.023   8.905  0.6399 -1.0485 -0.2278
  281MOL0     H37910  -2.387   9.108   9.057  0.5157 -5.1011  6.1363
  281MOL0     H37911  -2.640   9.075   9.040 -0.8049  0.3765  0.2564
  281MOL0     H37912  -2.563   9.171   8.910 -0.9301 -0.5370 -1.1503
  281MOL0     H37913  -2.647   8.889   8.854  2.0336 -0.5777 -2.4187
  281MOL0     H37914  -2.545   8.991   8.748  0.8055  2.3638  0.3631
  281MOL0     H37915  -2.768   9.022   8.684 -4.1907 -1.9143  1.2579
  281MOL0     H37916  -2.705   9.174   8.744  2.7599  0.2995  2.7719
  281MOL0     H37917  -1.855   8.911   9.279  1.3676  0.2342 -1.9007
  281MOL0     H37918  -1.617   8.925   9.338 -2.3020 -1.3269 -0.8939
  281MOL0     H37919  -1.291   9.198   9.540  0.5864 -2.5505  0.2707
  281MOL0     H37920  -1.084   9.305   9.576 -1.5392  0.0876 -1.1588
  281MOL0     H37921   0.887   8.984   9.450  0.5218  0.3807  1.8255
  281MOL0     H37922   1.120   9.041   9.455 -1.0637  0.2362  1.8043
  281MOL0     H37923   1.462   9.215   9.268  2.4236 -1.0843 -0.8789
  281MOL0     H37924   1.698   9.227   9.296  0.4158 -0.8901  2.7657
  281MOL0     H37925   1.922   9.269   9.332 -1.5912 -2.3089  2.2800
  281MOL0     H37926   2.031   9.379   9.410  2.3716 -2.5745 -1.7195
  281MOL0     H37927   2.022   9.191   9.539  0.8038  0.5832  0.9254
  281MOL0     H37928   1.853   9.161   9.538  0.8545 -1.0283  0.5124
  281MOL0     H37929   1.827   9.336   9.697  0.4329 -0.1587  1.1765
  281MOL0     H37930   1.985   9.410   9.647 -0.9566  0.4768 -1.7476
  281MOL0     H37931   2.101   9.252   9.789  0.3578  0.3168 -0.5713
  281MOL0     H37932   1.955   9.153   9.814  1.6480 -0.8653 -4.9891
  281MOL0     H37933   1.936   9.494  10.083  4.5676  1.2854 -0.0348
  281MOL0     H37934   1.652   9.593   9.531 -1.1532 -1.3048  3.6234
  281MOL0     H37935   1.424   9.585   9.484  1.3524  0.8135 -1.1597
  282MOL0     O37936   9.133   5.121   2.018 -0.3222 -0.7093 -0.4198
  282MOL0     C37937   9.231   5.109   1.954 -0.5612 -0.4475 -0.4305
  282MOL0     O37938   9.247   5.016   1.852 -0.4177 -0.4624  0.2155
  282MOL0     C37939   9.155   4.919   1.842 -0.0900 -0.7230 -0.6169
  282MOL0     C37940   9.092   4.902   1.716  0.3743 -0.5673 -0.5313
  282MOL0     C37941   9.006   4.795   1.683  0.1432  0.3247 -1.0257
  282MOL0     C37942   8.962   4.708   1.790  0.8092  0.4960 -0.4000
  282MOL0     O37943   8.877   4.607   1.772  0.5132  0.5949  0.2512
  282MOL0     C37944   8.782   4.628   1.673  0.6232 -0.0027 -0.6927
  282MOL0     C37945   8.669   4.729   1.719  0.1950 -0.1067  0.1055
  282MOL0     C37946   8.551   4.682   1.635 -0.0777 -0.1545 -1.0456
  282MOL0     C37947   8.432   4.778   1.666  0.4406  0.3098  0.7842
  282MOL0     C37948   8.300   4.750   1.587 -0.1751  0.1338  0.3989
  282MOL0     C37949   8.191   4.848   1.607  0.3695 -0.2102 -0.0730
  282MOL0     C37950   8.079   4.841   1.503 -0.4868 -0.1365 -0.0303
  282MOL0     C37951   7.940   4.877   1.556 -0.4616  0.0436 -0.1743
  282MOL0     N37952   7.878   4.760   1.621 -0.1552  0.5043 -0.2892
  282MOL0     C37953   7.834   4.642   1.562  1.5658 -1.1252 -0.1809
  282MOL0     C37954   7.770   4.589   1.669  0.4629 -0.0792  0.4614
  282MOL0     C37955   7.717   4.448   1.679  0.2917 -0.8660  0.8231
  282MOL0     C37956   7.581   4.422   1.623  0.2596  0.7354 -0.9708
  282MOL0     C37957   7.583   4.296   1.522 -0.4176 -0.1748 -0.1844
  282MOL0     C37958   7.450   4.271   1.452  0.1957 -0.4336  0.4911
  282MOL0     O37959   7.365   4.197   1.533 -0.1246  0.2057 -0.2007
  282MOL0     C37960   7.235   4.191   1.496 -0.0063  0.4985  0.4076
  282MOL0     C37961   7.149   4.164   1.611 -0.7713 -0.6557  0.0198
  282MOL0     C37962   7.007   4.176   1.595  0.6418  0.3088  0.2147
  282MOL0     C37963   6.931   4.165   1.728  0.3666 -0.5462 -0.1645
  282MOL0     C37964   6.959   4.195   1.461 -0.3045  0.3401 -0.0556
  282MOL0     C37965   6.810   4.207   1.447 -0.5604 -0.5033 -0.4344
  282MOL0     O37966   6.760   4.140   1.333 -0.4366 -0.1739  0.4354
  282MOL0     C37967   6.623   4.117   1.300  0.0391 -0.1992 -0.7909
  282MOL0     C37968   6.512   4.183   1.359  0.4295 -0.0934  0.1375
  282MOL0     C37969   6.375   4.164   1.316  0.4558  0.7916  0.1966
  282MOL0     C37970   6.338   4.073   1.221 -0.6742 -0.4856  0.6166
  282MOL0     O37971   6.215   4.035   1.180  0.3574 -0.0364  0.5428
  282MOL0     C37972   6.105   4.127   1.188 -0.3553  0.0922  0.6956
  282MOL0     C37973   5.995   4.063   1.104  0.2190 -0.5636 -0.1328
  282MOL0     C37974   5.865   4.152   1.082 -0.4286 -0.1940  0.8839
  282MOL0     C37975   5.747   4.064   1.044 -0.6131  0.0668  0.7005
  282MOL0     C37976   5.633   4.144   0.970 -0.6267  0.0328  0.3180
  282MOL0     C37977   5.533   4.037   0.916  0.2298  0.5012  0.8564
  282MOL0     C37978   5.405   4.104   0.878  0.2156  0.3712  0.4385
  282MOL0     C37979   5.304   4.017   0.792  0.0979 -0.1651 -0.6341
  282MOL0    Cl37980   5.141   4.100   0.777 -0.0290 -0.1822 -0.3563
  282MOL0     C37981   6.447   4.012   1.155 -0.2334  0.6222 -0.4560
  282MOL0     C37982   6.581   4.032   1.200  0.0790  0.4843  0.8987
  282MOL0     O37983   6.746   4.279   1.529 -0.1343 -0.1567 -0.7086
  282MOL0     C37984   7.039   4.206   1.347 -0.3945 -0.7879 -0.0914
  282MOL0     C37985   7.176   4.213   1.372 -0.0933  0.1381 -0.2334
  282MOL0     N37986   7.779   4.669   1.783  0.0197 -0.0881  0.4286
  282MOL0     N37987   7.854   4.773   1.755  1.1196 -0.2568 -0.1672
  282MOL0     C37988   9.020   4.726   1.918 -0.2981  0.0829 -0.0744
  282MOL0     C37989   9.110   4.827   1.943 -1.2095 -0.1201 -0.2284
  282MOL0     C37990   9.349   5.193   1.983 -0.1157 -0.1076  0.2098
  282MOL0     C37991   9.465   5.174   1.916 -0.3329 -0.2984 -0.9672
  282MOL0     C37992   9.582   5.237   1.955 -0.7741 -0.5910 -0.4815
  282MOL0     C37993   9.577   5.333   2.053  0.5788 -0.2894 -0.8338
  282MOL0     O37994   9.695   5.399   2.080 -0.0841  0.0456 -0.5079
  282MOL0     C37995   9.695   5.528   2.140  0.0778 -0.8046  0.1259
  282MOL0     C37996   9.815   5.600   2.088 -0.3271 -0.6654  0.5368
  282MOL0     C37997   9.868   5.719   2.174  0.6239 -0.2053  0.4503
  282MOL0     C37998   9.751   5.808   2.226  0.1894 -0.0788  0.7963
  282MOL0     C37999   9.676   5.872   2.112  0.0661  0.2840  0.6943
  282MOL0     C38000   9.603   5.913   2.023  0.9930 -0.0195  0.7393
  282MOL0     C38001   9.464   5.354   2.130 -0.4601 -0.9392  0.3181
  282MOL0     C38002   9.348   5.283   2.087 -0.1621  0.1619 -0.3344
  282MOL0     H38003   9.134   4.954   1.631 -1.0594  0.1392 -0.8394
  282MOL0     H38004   8.998   4.784   1.576  4.2609  1.4339 -1.6282
  282MOL0     H38005   8.817   4.670   1.578 -0.0028 -1.8850 -1.7947
  282MOL0     H38006   8.738   4.531   1.649  1.0838 -0.3031 -0.3188
  282MOL0     H38007   8.649   4.721   1.826 -0.0552 -0.2418  0.0491
  282MOL0     H38008   8.696   4.833   1.699  0.5127 -0.4442 -1.2993
  282MOL0     H38009   8.573   4.678   1.528 -1.5285 -1.7592 -1.3292
  282MOL0     H38010   8.531   4.580   1.671  1.4022 -0.3799 -0.7898
  282MOL0     H38011   8.405   4.772   1.772  2.0217 -1.8896  1.1598
  282MOL0     H38012   8.458   4.881   1.640 -2.0706  0.5559 -1.1026
  282MOL0     H38013   8.319   4.747   1.479  1.5273 -0.3764  0.6979
  282MOL0     H38014   8.260   4.651   1.612  1.7230 -0.4058  1.4361
  282MOL0     H38015   8.145   4.833   1.705  1.8088  3.4020  1.3367
  282MOL0     H38016   8.231   4.950   1.607  2.6889 -1.0406 -1.6140
  282MOL0     H38017   8.097   4.916   1.426 -4.5505  1.2662  0.1942
  282MOL0     H38018   8.081   4.742   1.455 -0.9070  0.5928 -1.6246
  282MOL0     H38019   7.870   4.903   1.475 -2.3669  3.4355  2.3325
  282MOL0     H38020   7.949   4.966   1.619 -0.7211 -1.5477  2.2412
  282MOL0     H38021   7.854   4.591   1.468  0.0874 -0.1052 -1.0993
  282MOL0     H38022   7.788   4.387   1.625 -1.3181 -0.5618 -1.7884
  282MOL0     H38023   7.726   4.423   1.785  0.8846  2.1646  1.5875
  282MOL0     H38024   7.543   4.510   1.570 -0.2025  0.6900 -0.7262
  282MOL0     H38025   7.503   4.397   1.696 -1.7756  0.9260 -2.9494
  282MOL0     H38026   7.604   4.205   1.579 -1.3390 -0.5305 -0.3959
  282MOL0     H38027   7.646   4.324   1.437  0.4825 -0.3174  0.4258
  282MOL0     H38028   7.468   4.210   1.363 -0.4793 -0.8934  0.6587
  282MOL0     H38029   7.397   4.361   1.419 -0.4350 -1.4720 -1.5343
  282MOL0     H38030   7.196   4.150   1.707 -1.3388  0.3813  0.4628
  282MOL0     H38031   6.995   4.150   1.815  0.8483  3.0018  0.2640
  282MOL0     H38032   6.884   4.262   1.747  0.2940 -0.4068 -1.0125
  282MOL0     H38033   6.853   4.088   1.728 -1.4788  1.2265  0.9850
  282MOL0     H38034   6.518   4.268   1.426 -2.8605  2.7587 -2.7893
  282MOL0     H38035   6.297   4.220   1.367 -3.9847 -2.9369 -1.7836
  282MOL0     H38036   6.070   4.140   1.291  0.1758  1.7742  0.6848
  282MOL0     H38037   6.118   4.231   1.157  0.8985  0.0000  0.8711
  282MOL0     H38038   6.016   4.025   1.003 -0.6962 -0.0134 -0.5458
  282MOL0     H38039   5.965   3.973   1.157 -1.0888  0.5469  1.0829
  282MOL0     H38040   5.888   4.233   1.011  2.5430 -2.9833 -1.6679
  282MOL0     H38041   5.849   4.193   1.182  0.5104 -0.8796  1.3268
  282MOL0     H38042   5.781   3.984   0.978 -3.8451 -1.3674  0.5857
  282MOL0     H38043   5.710   4.006   1.129  1.0296 -0.6611  0.9618
  282MOL0     H38044   5.674   4.210   0.894  1.6671 -1.4209  0.1809
  282MOL0     H38045   5.591   4.204   1.051  0.4466 -1.3648  1.9882
  282MOL0     H38046   5.581   3.981   0.835 -4.5224 -0.9183 -1.3638
  282MOL0     H38047   5.515   3.960   0.992  0.9114  0.4715  0.9905
  282MOL0     H38048   5.426   4.199   0.828  0.1599 -1.2150 -2.9162
  282MOL0     H38049   5.351   4.134   0.968  2.1584  0.1571  1.7278
  282MOL0     H38050   5.281   3.937   0.862 -0.0182  1.3612  1.1620
  282MOL0     H38051   5.348   3.980   0.700  4.5388  1.9846  0.3465
  282MOL0     H38052   6.426   3.931   1.085  0.4707 -0.4514  0.5317
  282MOL0     H38053   6.656   3.972   1.149 -0.2766  0.4133  0.4491
  282MOL0     H38054   6.997   4.238   1.252  1.0157 -0.3275 -0.5937
  282MOL0     H38055   7.241   4.230   1.287  2.2491  0.7671  1.5673
  282MOL0     H38056   8.981   4.658   1.993 -1.0005  0.5038 -0.0453
  282MOL0     H38057   9.158   4.832   2.041  2.2824 -1.1194 -1.7176
  282MOL0     H38058   9.486   5.087   1.855 -0.3501  0.0150 -1.4272
  282MOL0     H38059   9.686   5.226   1.925  0.0032  3.3167  0.2036
  282MOL0     H38060   9.610   5.590   2.111  0.6419  0.4150  1.0115
  282MOL0     H38061   9.689   5.514   2.248 -0.6276  0.6280  0.3026
  282MOL0     H38062   9.778   5.645   1.995  0.7760  0.3873  0.5802
  282MOL0     H38063   9.902   5.535   2.075  2.8708  3.0721  1.3611
  282MOL0     H38064   9.942   5.774   2.116 -0.1831 -0.6192 -1.0161
  282MOL0     H38065   9.918   5.673   2.260  0.1457  0.9989  1.4002
  282MOL0     H38066   9.796   5.889   2.284 -0.9809  1.8993 -0.9390
  282MOL0     H38067   9.680   5.754   2.290  1.8614 -0.7700  2.1386
  282MOL0     H38068   9.540   5.962   1.952 -0.2866 -0.9081  1.2258
  282MOL0     H38069   9.454   5.414   2.220 -4.1716 -2.1928  0.8935
  282MOL0     H38070   9.254   5.288   2.142  1.2909 -0.1830  2.3138
  283MOL0     O38071  10.567   3.918   0.498 -0.9234  0.7581  0.6010
  283MOL0     C38072  10.646   3.898   0.584 -0.2852  0.4908  0.6420
  283MOL0     O38073  10.623   3.908   0.720 -0.7932  0.9839  0.3651
  283MOL0     C38074  10.500   3.923   0.771  0.7437  0.2763  0.0370
  283MOL0     C38075  10.439   3.830   0.855  0.2501 -0.7171  0.3271
  283MOL0     C38076  10.312   3.851   0.915 -1.2806  0.3567 -0.7011
  283MOL0     C38077  10.248   3.958   0.881 -0.0449  0.7639  0.3545
  283MOL0     O38078  10.126   3.974   0.940 -0.8157  0.6637  0.1523
  283MOL0     C38079  10.029   3.865   0.912 -0.1075 -1.0565  0.2446
  283MOL0     C38080   9.924   3.858   1.020  0.4730  0.1428 -0.7463
  283MOL0     C38081   9.812   3.963   1.003  0.1830 -0.1406  0.1707
  283MOL0     C38082   9.690   3.920   1.092  0.0903  0.8256  0.4260
  283MOL0     C38083   9.592   4.048   1.083 -1.0596 -0.6917  0.2556
  283MOL0     C38084   9.448   4.025   1.139  0.2409  0.0785 -0.0717
  283MOL0     C38085   9.449   3.958   1.281  0.8055  0.4961  0.7000
  283MOL0     C38086   9.526   4.041   1.378 -0.4018  0.4755 -0.5912
  283MOL0     N38087   9.499   3.983   1.511 -0.0686  0.3011  0.2630
  283MOL0     C38088   9.509   3.851   1.538 -0.5899 -0.3405  0.5198
  283MOL0     C38089   9.476   3.843   1.675  0.3180 -0.2424  0.1774
  283MOL0     C38090   9.462   3.713   1.754  0.9323 -0.0246 -0.1280
  283MOL0     C38091   9.316   3.654   1.745 -0.0945 -0.3899  0.6061
  283MOL0     C38092   9.234   3.739   1.846 -0.1683 -0.5467  1.2660
  283MOL0     C38093   9.083   3.697   1.831 -0.3921  0.4876 -0.1007
  283MOL0     O38094   9.051   3.576   1.898  0.4931 -0.2269 -0.3679
  283MOL0     C38095   8.933   3.525   1.845  0.4447  1.1372 -0.1931
  283MOL0     C38096   8.934   3.423   1.759 -0.2054 -0.3575  0.2061
  283MOL0     C38097   8.817   3.351   1.717 -0.5535 -0.0034  0.1005
  283MOL0     C38098   8.842   3.232   1.623  1.1998  1.3912 -0.0992
  283MOL0     C38099   8.689   3.412   1.749 -0.0848 -0.2049 -0.0003
  283MOL0     C38100   8.559   3.362   1.708 -0.5048 -0.4431 -1.5054
  283MOL0     O38101   8.465   3.395   1.796  0.1866  0.0724 -0.3488
  283MOL0     C38102   8.330   3.369   1.768  0.1396  0.2283 -0.9637
  283MOL0     C38103   8.291   3.247   1.747  0.0947  0.3632  0.7501
  283MOL0     C38104   8.154   3.210   1.731  0.8609 -0.0501  0.0783
  283MOL0     C38105   8.049   3.305   1.738 -0.3929 -0.4279 -0.8938
  283MOL0     O38106   7.928   3.261   1.714  0.7804 -0.0037 -0.1341
  283MOL0     C38107   7.833   3.343   1.631 -0.5602 -1.2103 -0.8410
  283MOL0     C38108   7.889   3.358   1.493  1.2269 -0.1280 -0.7491
  283MOL0     C38109   7.833   3.464   1.403  0.9695  0.2359 -0.3485
  283MOL0     C38110   7.685   3.449   1.375 -0.2714 -0.1537 -0.8495
  283MOL0     C38111   7.633   3.550   1.266  0.6626 -1.0094 -0.2169
  283MOL0     C38112   7.486   3.531   1.216 -0.0940  0.0188 -0.0333
  283MOL0     C38113   7.454   3.401   1.144 -0.0012  0.4408 -0.5727
  283MOL0     C38114   7.300   3.367   1.172 -0.7590  0.9348  0.5472
  283MOL0    Cl38115   7.245   3.246   1.053  0.0260  0.1003 -0.1733
  283MOL0     C38116   8.091   3.438   1.754  0.4534 -0.3877  0.1039
  283MOL0     C38117   8.231   3.473   1.768  0.1403  1.2075  0.5183
  283MOL0     O38118   8.542   3.285   1.613 -0.2084  0.5148 -0.3883
  283MOL0     C38119   8.695   3.523   1.837  0.0940  1.0377  0.1089
  283MOL0     C38120   8.807   3.572   1.888 -0.2585 -0.3727 -0.2493
  283MOL0     N38121   9.427   3.972   1.717  0.2420  0.8306  0.8254
  283MOL0     N38122   9.435   4.051   1.615 -0.1535 -0.7745  0.3095
  283MOL0     C38123  10.293   4.049   0.798 -1.2551 -0.3763  0.5163
  283MOL0     C38124  10.422   4.034   0.749 -0.7096  0.6406  0.0703
  283MOL0     C38125  10.778   3.833   0.553 -0.3113 -0.3792  0.7821
  283MOL0     C38126  10.788   3.737   0.456 -0.5011  0.5273  0.2546
  283MOL0     C38127  10.913   3.679   0.419  0.5437  1.0507  0.4721
  283MOL0     C38128  11.029   3.714   0.490 -0.1817 -0.1928 -0.1106
  283MOL0     O38129  11.145   3.644   0.463 -0.1570 -0.2690  0.3659
  283MOL0     C38130  11.269   3.692   0.523 -0.7121 -0.1570  0.0860
  283MOL0     C38131  11.325   3.811   0.441 -0.0501  0.0078 -0.1310
  283MOL0     C38132  11.374   3.772   0.301 -0.0262  0.3042 -0.5234
  283MOL0     C38133  11.447   3.887   0.233 -0.0245  0.5512  0.4101
  283MOL0     C38134  11.569   3.922   0.294 -0.8819  1.0186  0.2158
  283MOL0     C38135  11.678   3.917   0.348  0.9487 -0.0104  0.3866
  283MOL0     C38136  11.020   3.825   0.579  0.5984  0.7622  0.2265
  283MOL0     C38137  10.896   3.885   0.608 -0.3711  0.7053 -0.8492
  283MOL0     H38138  10.495   3.738   0.865  1.9199  0.2650  0.5277
  283MOL0     H38139  10.287   3.769   0.982  4.5772 -0.8028  0.6032
  283MOL0     H38140   9.972   3.880   0.819 -1.7734 -0.9714  1.2274
  283MOL0     H38141  10.077   3.767   0.910  0.4136 -0.7995 -2.0778
  283MOL0     H38142   9.878   3.762   0.995 -0.8503  0.8349 -1.1016
  283MOL0     H38143   9.974   3.854   1.117 -1.5270  0.6992  0.3579
  283MOL0     H38144   9.844   4.063   1.031 -3.0230  0.6117  1.5336
  283MOL0     H38145   9.790   3.975   0.897  0.0844 -0.3197  0.1695
  283MOL0     H38146   9.660   3.820   1.058  1.7844  0.4283  0.0242
  283MOL0     H38147   9.718   3.903   1.196 -0.2861 -4.0217 -0.0367
  283MOL0     H38148   9.627   4.142   1.125  0.2871 -1.1267  0.1595
  283MOL0     H38149   9.572   4.070   0.978 -1.3264  2.7096  0.9253
  283MOL0     H38150   9.382   4.111   1.128 -2.3522 -1.8417 -0.6174
  283MOL0     H38151   9.402   3.954   1.070  0.7631  1.0530 -1.4466
  283MOL0     H38152   9.346   3.957   1.318  0.4914 -2.8683  0.0366
  283MOL0     H38153   9.476   3.852   1.281 -0.1844  0.2327  0.4661
  283MOL0     H38154   9.487   4.143   1.387  1.5619  1.0805  2.7738
  283MOL0     H38155   9.633   4.056   1.362 -0.0150  0.6877  1.7610
  283MOL0     H38156   9.542   3.767   1.478 -1.9003 -0.2395 -0.3866
  283MOL0     H38157   9.541   3.644   1.723  1.2888  0.1871  0.2931
  283MOL0     H38158   9.491   3.746   1.854  1.3117 -1.3216  0.2062
  283MOL0     H38159   9.323   3.548   1.772 -1.1639 -0.0212  2.5594
  283MOL0     H38160   9.266   3.659   1.648 -2.2392 -2.8289  1.4770
  283MOL0     H38161   9.239   3.848   1.834 -0.4747 -0.6157  0.4457
  283MOL0     H38162   9.259   3.719   1.951 -2.5947 -1.2728  1.7679
  283MOL0     H38163   9.056   3.675   1.727 -3.7180  0.4033  0.6604
  283MOL0     H38164   9.026   3.784   1.865 -0.1017  0.9575 -0.8040
  283MOL0     H38165   9.035   3.393   1.732  0.4604 -0.1550  2.3048
  283MOL0     H38166   8.902   3.159   1.678 -2.2276 -0.5430  1.3521
  283MOL0     H38167   8.750   3.175   1.612  1.9628 -0.0856  0.7983
  283MOL0     H38168   8.885   3.256   1.526 -0.9021 -1.8647 -2.0349
  283MOL0     H38169   8.355   3.160   1.756 -1.3280 -0.5602  2.4847
  283MOL0     H38170   8.121   3.109   1.709 -1.0632  0.2395  1.3356
  283MOL0     H38171   7.740   3.286   1.631 -0.7667 -0.8827 -0.1001
  283MOL0     H38172   7.817   3.443   1.672  0.3287 -1.3745 -0.0583
  283MOL0     H38173   7.996   3.379   1.491  0.9802  1.2082 -0.6357
  283MOL0     H38174   7.875   3.261   1.444  1.3808 -0.4425 -0.1854
  283MOL0     H38175   7.889   3.452   1.310  0.4624 -0.6519 -0.5549
  283MOL0     H38176   7.855   3.565   1.438  0.2893  0.4917 -0.6308
  283MOL0     H38177   7.667   3.343   1.356  1.7645 -0.7150  0.0251
  283MOL0     H38178   7.637   3.471   1.471  0.1320  1.4928 -0.9948
  283MOL0     H38179   7.701   3.540   1.181  1.9611 -0.1340  0.6842
  283MOL0     H38180   7.637   3.650   1.310  2.8338 -0.6835 -1.0282
  283MOL0     H38181   7.420   3.528   1.303 -0.7419 -0.6652 -0.5377
  283MOL0     H38182   7.458   3.611   1.147 -0.1975 -1.2639 -1.5269
  283MOL0     H38183   7.515   3.319   1.182 -0.0349  0.9930  0.7300
  283MOL0     H38184   7.467   3.401   1.035  0.2898 -1.4410 -0.5684
  283MOL0     H38185   7.234   3.455   1.166 -0.9856  0.7126 -0.3492
  283MOL0     H38186   7.286   3.321   1.270  0.3041  0.0144  0.2821
  283MOL0     H38187   8.019   3.515   1.779  0.1577 -0.7205  0.2964
  283MOL0     H38188   8.256   3.579   1.775  0.7302  0.9792  2.1957
  283MOL0     H38189   8.603   3.567   1.875 -1.6957 -1.4117 -1.1075
  283MOL0     H38190   8.800   3.653   1.960 -0.6480  0.1253 -0.8332
  283MOL0     H38191  10.235   4.136   0.767 -0.1940  0.1667  0.0082
  283MOL0     H38192  10.464   4.115   0.691  0.0060  2.5412  3.0317
  283MOL0     H38193  10.691   3.696   0.430 -1.3122  1.3244  1.8534
  283MOL0     H38194  10.910   3.597   0.348  0.2206  1.3864  0.0991
  283MOL0     H38195  11.254   3.725   0.626  1.5122 -3.0327  1.4671
  283MOL0     H38196  11.341   3.610   0.514 -2.0105 -1.3583  0.3915
  283MOL0     H38197  11.412   3.852   0.492  0.2040 -0.3509 -0.2750
  283MOL0     H38198  11.245   3.884   0.427 -1.3041 -1.2832  0.0546
  283MOL0     H38199  11.290   3.758   0.232  0.0177 -0.3045 -0.4603
  283MOL0     H38200  11.432   3.679   0.308 -0.2103  0.2686  1.0804
  283MOL0     H38201  11.377   3.971   0.227  0.5951  0.9872 -1.1422
  283MOL0     H38202  11.475   3.874   0.128  0.7131 -1.6500  0.8136
  283MOL0     H38203  11.769   3.920   0.404  0.7804  0.3327  0.6448
  283MOL0     H38204  11.108   3.873   0.621 -0.2897  3.4337 -0.7340
  283MOL0     H38205  10.885   3.962   0.685 -1.4558  0.6724 -0.9488
  284MOL0     O38206   7.931   7.271   1.089  0.4922 -0.5511  0.3039
  284MOL0     C38207   7.901   7.331   1.194 -0.0414  0.8967 -0.1522
  284MOL0     O38208   7.779   7.364   1.237  0.2118  0.2502  0.6071
  284MOL0     C38209   7.659   7.306   1.194  0.4783 -0.3672 -0.0395
  284MOL0     C38210   7.547   7.369   1.242  0.5546 -0.6103  0.3811
  284MOL0     C38211   7.416   7.318   1.209 -0.4275 -0.3850  0.2383
  284MOL0     C38212   7.407   7.196   1.135 -0.5702 -1.4904 -1.2653
  284MOL0     O38213   7.287   7.134   1.094 -0.5683  0.2901  0.0943
  284MOL0     C38214   7.172   7.214   1.075  0.0577 -0.6346 -0.7400
  284MOL0     C38215   7.061   7.112   1.041  0.0592  0.3467  0.1051
  284MOL0     C38216   7.090   7.000   0.942  0.3577 -0.7984 -0.2343
  284MOL0     C38217   6.971   6.899   0.927 -0.0212 -0.0813  0.3696
  284MOL0     C38218   6.857   6.932   0.824 -0.1990  0.1350  0.7038
  284MOL0     C38219   6.890   6.918   0.677 -1.1460 -0.4966 -0.2762
  284MOL0     C38220   6.785   6.990   0.592  0.2634 -0.1464  0.7349
  284MOL0     C38221   6.640   6.936   0.596 -0.5898  0.3783 -0.3878
  284MOL0     N38222   6.632   6.790   0.562 -0.3524 -0.4140 -0.5879
  284MOL0     C38223   6.656   6.734   0.441 -0.6990 -0.7035 -0.2446
  284MOL0     C38224   6.653   6.604   0.466  0.4586  0.9906  0.0817
  284MOL0     C38225   6.680   6.482   0.377 -0.9119 -0.1424 -0.9494
  284MOL0     C38226   6.605   6.473   0.243 -0.0538  0.3614  0.3171
  284MOL0     C38227   6.631   6.349   0.164  0.4203  0.0728 -0.2453
  284MOL0     C38228   6.768   6.352   0.106 -0.4958 -0.4082  0.1519
  284MOL0     O38229   6.795   6.225   0.037 -1.7309  0.2348  0.7071
  284MOL0     C38230   6.920   6.173   0.061 -1.2113  0.6871  0.8268
  284MOL0     C38231   6.943   6.032   0.048  0.4769 -0.0773  0.3399
  284MOL0     C38232   7.065   5.969   0.075 -0.5430 -0.7683 -0.6004
  284MOL0     C38233   7.066   5.826   0.046  0.0213  0.7703 -0.7816
  284MOL0     C38234   7.175   6.048   0.118  0.0938  0.7668 -0.1604
  284MOL0     C38235   7.307   5.991   0.131  0.3279  0.2163  0.4250
  284MOL0     O38236   7.352   5.961   0.261 -0.1679  0.1074  0.3119
  284MOL0     C38237   7.485   5.936   0.272 -0.2476 -0.4771 -0.3033
  284MOL0     C38238   7.523   5.828   0.354  0.7661  0.4194  0.3865
  284MOL0     C38239   7.649   5.799   0.381 -0.2050 -0.2814  0.0550
  284MOL0     C38240   7.752   5.888   0.352  0.2228 -0.7698 -0.2380
  284MOL0     O38241   7.881   5.849   0.383  0.1149  0.3169  0.9903
  284MOL0     C38242   7.982   5.950   0.420 -0.2152  0.2150 -0.2022
  284MOL0     C38243   7.951   5.996   0.565 -0.0203 -0.4208  0.0228
  284MOL0     C38244   8.058   6.086   0.626  0.7260 -0.4729  0.1274
  284MOL0     C38245   8.186   6.012   0.640  0.0410  0.1462 -0.4832
  284MOL0     C38246   8.297   6.109   0.698  0.3733  0.2090 -0.6989
  284MOL0     C38247   8.416   6.031   0.754 -0.4082 -0.5301 -0.9650
  284MOL0     C38248   8.534   6.128   0.793  0.4891  0.2986 -0.1140
  284MOL0     C38249   8.668   6.046   0.793  0.5239 -0.4548  0.3313
  284MOL0    Cl38250   8.808   6.155   0.760  0.1036 -0.3165  0.2769
  284MOL0     C38251   7.719   6.003   0.275 -0.2064  0.0621  0.2885
  284MOL0     C38252   7.583   6.031   0.244 -0.2700  0.3383  0.0591
  284MOL0     O38253   7.367   5.962   0.025 -0.8949  0.4920  0.0579
  284MOL0     C38254   7.167   6.181   0.121 -0.2230 -1.0947 -0.3866
  284MOL0     C38255   7.043   6.243   0.086  0.0932 -0.5289 -0.6058
  284MOL0     N38256   6.635   6.583   0.606 -0.0409 -0.2455  0.4465
  284MOL0     N38257   6.623   6.700   0.660 -0.0095 -0.1856  0.1686
  284MOL0     C38258   7.521   7.129   1.101 -0.0857  0.2951  0.3557
  284MOL0     C38259   7.645   7.182   1.129 -0.2352  0.7878  0.4084
  284MOL0     C38260   8.014   7.374   1.282  0.2170 -0.0592 -0.6078
  284MOL0     C38261   8.143   7.326   1.263  0.2754  0.0216  0.2146
  284MOL0     C38262   8.251   7.371   1.347 -0.0295 -0.0466 -0.2819
  284MOL0     C38263   8.228   7.467   1.449  0.3076  0.1051  0.0543
  284MOL0     O38264   8.337   7.492   1.530  0.3019  0.7235 -0.2778
  284MOL0     C38265   8.311   7.580   1.642  0.1282  1.0885 -0.4851
  284MOL0     C38266   8.438   7.641   1.686 -0.2729  1.1348 -0.1975
  284MOL0     C38267   8.518   7.538   1.777  0.8058 -0.4548  0.4498
  284MOL0     C38268   8.658   7.580   1.807  0.8281  0.0815 -0.1328
  284MOL0     C38269   8.746   7.600   1.685  0.8320 -0.1615  1.1426
  284MOL0     C38270   8.806   7.639   1.588 -0.0451 -0.5382  0.6219
  284MOL0     C38271   8.097   7.505   1.472 -0.0899 -0.2501  0.1714
  284MOL0     C38272   7.993   7.461   1.389  0.1908  0.3104  0.1680
  284MOL0     H38273   7.552   7.464   1.295  0.8030 -1.6013  2.2146
  284MOL0     H38274   7.327   7.376   1.233 -0.8336 -0.0088 -1.9376
  284MOL0     H38275   7.141   7.273   1.161 -1.6032 -0.4170 -1.4449
  284MOL0     H38276   7.191   7.291   1.000 -2.5948  1.1908  0.3097
  284MOL0     H38277   7.010   7.082   1.133  0.0928  2.7863  0.9940
  284MOL0     H38278   6.982   7.176   1.000 -0.3775  0.1332  0.5984
  284MOL0     H38279   7.116   7.044   0.845 -1.0505 -0.6053 -0.5421
  284MOL0     H38280   7.178   6.945   0.977  0.2392 -1.7468 -1.3333
  284MOL0     H38281   7.000   6.799   0.896 -2.0510 -1.1411  1.6207
  284MOL0     H38282   6.913   6.897   1.021 -2.4496  0.2592 -1.0334
  284MOL0     H38283   6.767   6.874   0.849  1.0693 -2.1240  0.2985
  284MOL0     H38284   6.826   7.034   0.846 -1.3140  0.4019 -1.7918
  284MOL0     H38285   6.994   6.946   0.658 -0.5409 -1.8568  0.8503
  284MOL0     H38286   6.899   6.816   0.639  1.3614 -0.2603 -0.4475
  284MOL0     H38287   6.786   7.098   0.609 -1.6275  0.0200  0.0290
  284MOL0     H38288   6.816   6.985   0.487 -0.2893 -2.0500  0.6168
  284MOL0     H38289   6.577   6.995   0.530 -0.1957  1.6852  0.3660
  284MOL0     H38290   6.597   6.964   0.693  0.9581 -0.6732  0.6605
  284MOL0     H38291   6.672   6.785   0.346 -2.8999  0.1306 -0.2184
  284MOL0     H38292   6.785   6.483   0.348 -0.7443 -3.5637 -0.8678
  284MOL0     H38293   6.679   6.392   0.439 -3.2371  1.9496  2.4390
  284MOL0     H38294   6.627   6.559   0.179  0.0180  2.0734  2.5304
  284MOL0     H38295   6.498   6.480   0.269 -0.4789  1.3648 -1.5358
  284MOL0     H38296   6.556   6.361   0.086 -1.0757  3.1344  1.4705
  284MOL0     H38297   6.608   6.265   0.230  0.9706  0.9641  1.1364
  284MOL0     H38298   6.835   6.373   0.190 -4.3014 -1.6463  3.8104
  284MOL0     H38299   6.764   6.436   0.036 -0.1640  0.2522  0.9093
  284MOL0     H38300   6.863   5.971   0.006  0.6444  0.3065 -0.5687
  284MOL0     H38301   7.051   5.773   0.141 -0.5210  1.0428 -0.7085
  284MOL0     H38302   6.976   5.798  -0.011  1.1430 -1.4016 -1.6061
  284MOL0     H38303   7.158   5.794  -0.003  0.3733 -0.8581  0.8285
  284MOL0     H38304   7.450   5.753   0.383  1.7347 -1.3219 -1.4666
  284MOL0     H38305   7.666   5.710   0.441 -1.1118  1.0953  2.4480
  284MOL0     H38306   8.081   5.908   0.403  0.9922  0.7095  4.3236
  284MOL0     H38307   7.969   6.044   0.365  1.6297 -0.2930 -1.6002
  284MOL0     H38308   7.853   6.045   0.558  0.0796 -0.4285 -1.9070
  284MOL0     H38309   7.930   5.914   0.634 -3.6555  0.8190  0.6058
  284MOL0     H38310   8.024   6.108   0.727  0.3382  0.8009 -0.2595
  284MOL0     H38311   8.076   6.171   0.560 -0.5282  0.4217  0.9090
  284MOL0     H38312   8.163   5.916   0.686 -0.7908 -0.7390 -2.6107
  284MOL0     H38313   8.230   5.966   0.551  1.3421  0.6350 -0.1236
  284MOL0     H38314   8.262   6.158   0.789 -0.2534 -3.9216  1.5487
  284MOL0     H38315   8.332   6.187   0.630  0.7454  0.0940 -0.6465
  284MOL0     H38316   8.398   5.984   0.852  1.0760 -1.3038 -1.0397
  284MOL0     H38317   8.447   5.945   0.694  0.9640  1.2689 -2.9785
  284MOL0     H38318   8.506   6.154   0.895 -0.7066 -0.3784 -0.2622
  284MOL0     H38319   8.537   6.216   0.728  0.2786 -1.9383 -3.3959
  284MOL0     H38320   8.667   5.969   0.714  1.9413  1.8630 -2.0994
  284MOL0     H38321   8.694   5.992   0.884  0.1916 -4.2893 -1.6311
  284MOL0     H38322   7.806   6.065   0.258  1.1723 -2.1844 -1.4167
  284MOL0     H38323   7.555   6.133   0.219 -0.9614  0.1602  0.0971
  284MOL0     H38324   7.247   6.249   0.147 -2.1404  1.7962 -1.6146
  284MOL0     H38325   7.038   6.351   0.094 -0.7508 -0.6126  0.1136
  284MOL0     H38326   7.507   7.039   1.042  0.8752  1.2853 -1.4792
  284MOL0     H38327   7.731   7.126   1.094  0.7761  2.1387  0.6789
  284MOL0     H38328   8.165   7.254   1.184  0.4023 -1.0779  1.2310
  284MOL0     H38329   8.348   7.336   1.314  0.5178  0.9325  0.2642
  284MOL0     H38330   8.232   7.654   1.631 -0.6521  0.7957  2.2577
  284MOL0     H38331   8.265   7.523   1.723 -0.3291  1.9427 -0.1397
  284MOL0     H38332   8.430   7.725   1.756  0.1323  0.1667  1.0579
  284MOL0     H38333   8.492   7.679   1.599  1.6847 -0.6709  0.1346
  284MOL0     H38334   8.518   7.444   1.723  0.4383  0.5747 -1.4075
  284MOL0     H38335   8.464   7.527   1.872  0.1361  1.5865  0.3640
  284MOL0     H38336   8.707   7.508   1.874  1.9825  0.5553 -0.4364
  284MOL0     H38337   8.656   7.680   1.850  0.0508  1.2616 -2.7310
  284MOL0     H38338   8.863   7.670   1.503 -0.5178 -0.6613  0.2547
  284MOL0     H38339   8.073   7.574   1.552  1.2150 -0.7812  1.0550
  284MOL0     H38340   7.892   7.496   1.408  0.4410  0.5242  1.1856
  285MOL0     O38341   4.208   4.203   8.178 -0.4793 -0.6562  0.2896
  285MOL0     C38342   4.282   4.104   8.152 -0.2309  0.0515  0.1897
  285MOL0     O38343   4.242   3.974   8.151 -0.2634  0.4430 -0.2309
  285MOL0     C38344   4.115   3.930   8.179  0.2354  0.0074 -1.1989
  285MOL0     C38345   4.030   3.994   8.275  0.3499 -0.1455 -0.3749
  285MOL0     C38346   3.916   3.930   8.303  1.1029 -0.0789  0.3182
  285MOL0     C38347   3.875   3.807   8.236  0.1459 -0.6287 -0.5622
  285MOL0     O38348   3.758   3.738   8.269  0.6096  0.0701 -0.0733
  285MOL0     C38349   3.688   3.767   8.399  0.3401 -0.7406  0.4226
  285MOL0     C38350   3.576   3.665   8.423  0.4068 -0.5383 -0.2938
  285MOL0     C38351   3.469   3.729   8.521 -0.0887 -0.7137  0.1908
  285MOL0     C38352   3.354   3.633   8.535  0.2032 -0.6408  0.5542
  285MOL0     C38353   3.245   3.674   8.635  0.6775 -0.1238 -0.1807
  285MOL0     C38354   3.290   3.656   8.788  0.5223 -0.3789  0.0167
  285MOL0     C38355   3.166   3.669   8.874  0.2356 -0.1431  0.8624
  285MOL0     C38356   3.093   3.802   8.895  0.1495  0.3376  0.1796
  285MOL0     N38357   3.036   3.871   8.777  0.0295  0.0402  0.1879
  285MOL0     C38358   2.918   3.832   8.724  0.1223  0.0605  0.5269
  285MOL0     C38359   2.888   3.930   8.642 -0.4253 -0.4988 -0.1013
  285MOL0     C38360   2.777   3.924   8.536  0.0922  0.5845  0.1178
  285MOL0     C38361   2.632   3.934   8.587  0.7476 -0.8794  0.1166
  285MOL0     C38362   2.603   4.075   8.640  0.0870  0.1530 -0.5342
  285MOL0     C38363   2.459   4.081   8.684  0.5220 -0.0732  0.2475
  285MOL0     O38364   2.378   4.051   8.567  0.4803 -0.3040  0.7142
  285MOL0     C38365   2.241   4.068   8.570 -0.2349  0.9930  1.1172
  285MOL0     C38366   2.172   4.060   8.688 -0.1726 -0.2246  0.2609
  285MOL0     C38367   2.035   4.088   8.700  0.7952 -0.6219  0.6546
  285MOL0     C38368   1.971   4.082   8.836 -0.5595 -0.4012 -0.6156
  285MOL0     C38369   1.961   4.092   8.581 -0.2867 -0.2189 -0.1344
  285MOL0     C38370   1.809   4.097   8.572 -0.0973 -0.3545 -0.4785
  285MOL0     O38371   1.755   4.094   8.444 -0.4180  0.0660  0.0193
  285MOL0     C38372   1.625   4.128   8.396  0.1447  0.6254 -0.4875
  285MOL0     C38373   1.518   4.164   8.482  0.0907  1.0196 -0.2783
  285MOL0     C38374   1.393   4.184   8.431  0.4250  0.4935 -0.0403
  285MOL0     C38375   1.360   4.161   8.295  0.6713 -0.6343  1.3854
  285MOL0     O38376   1.241   4.166   8.238  0.6903 -0.1296  0.3423
  285MOL0     C38377   1.181   4.294   8.246  0.7830 -0.4336  0.2602
  285MOL0     C38378   1.042   4.302   8.174 -0.0441  0.9918 -0.9087
  285MOL0     C38379   1.029   4.218   8.047 -0.2072  0.1371  0.0517
  285MOL0     C38380   0.889   4.245   7.976  0.3435 -0.4692  0.0336
  285MOL0     C38381   0.862   4.155   7.855 -0.0928 -0.3776  0.3245
  285MOL0     C38382   0.845   4.013   7.900  0.7905  0.4279 -0.6720
  285MOL0     C38383   0.797   3.904   7.803  0.8059 -0.5948 -0.7007
  285MOL0     C38384   0.747   3.775   7.872 -0.4627  0.0742  0.2433
  285MOL0    Cl38385   0.663   3.667   7.759 -0.3530  0.0918 -0.0385
  285MOL0     C38386   1.458   4.121   8.211 -0.4036 -0.2277 -0.1736
  285MOL0     C38387   1.590   4.107   8.262  0.0017 -0.2827 -0.7336
  285MOL0     O38388   1.740   4.085   8.672  0.5566  0.0345 -0.6208
  285MOL0     C38389   2.027   4.104   8.463 -0.7434 -0.0937 -0.4929
  285MOL0     C38390   2.169   4.090   8.453 -1.1035 -0.3891 -0.3870
  285MOL0     N38391   2.986   4.022   8.649 -0.1261  0.0429  0.6671
  285MOL0     N38392   3.084   3.986   8.730  0.5574 -0.7432 -0.2566
  285MOL0     C38393   3.956   3.746   8.141  0.1311 -0.4312  0.7606
  285MOL0     C38394   4.072   3.819   8.109  0.6229  0.0276  0.4578
  285MOL0     C38395   4.423   4.133   8.119  0.5612  0.1574 -0.1646
  285MOL0     C38396   4.460   4.262   8.078  0.7946 -0.0316 -0.4866
  285MOL0     C38397   4.598   4.292   8.054  0.2267 -0.1245 -0.7113
  285MOL0     C38398   4.695   4.196   8.081  1.0524 -0.5713 -0.3717
  285MOL0     O38399   4.830   4.204   8.096  0.3168 -0.4188 -0.0232
  285MOL0     C38400   4.893   4.326   8.049 -0.4337  0.2989  0.2766
  285MOL0     C38401   5.005   4.367   8.145  0.3522  0.2932 -0.4377
  285MOL0     C38402   5.150   4.321   8.118 -0.4467  0.0250  0.4973
  285MOL0     C38403   5.253   4.369   8.213  0.7240 -0.0641 -0.8362
  285MOL0     C38404   5.357   4.265   8.226  0.0363  0.0972 -0.3937
  285MOL0     C38405   5.438   4.176   8.231 -0.0275  0.9563  0.3523
  285MOL0     C38406   4.652   4.072   8.124 -0.6579  0.2668  0.1423
  285MOL0     C38407   4.519   4.035   8.138  0.0837 -0.2655  1.0669
  285MOL0     H38408   4.050   4.089   8.325 -0.8817 -0.3833  0.6214
  285MOL0     H38409   3.851   3.966   8.381  0.1076 -1.8032  0.3316
  285MOL0     H38410   3.768   3.766   8.474  2.0915  2.7054 -1.1831
  285MOL0     H38411   3.636   3.863   8.407  0.2488 -0.8088  0.6801
  285MOL0     H38412   3.530   3.628   8.331  0.5334 -1.9267  0.1720
  285MOL0     H38413   3.609   3.582   8.487 -5.0740 -1.3347  2.1221
  285MOL0     H38414   3.509   3.743   8.622 -0.3819 -2.0577  0.5116
  285MOL0     H38415   3.437   3.827   8.485 -0.5000 -1.3826 -1.3362
  285MOL0     H38416   3.312   3.626   8.434 -0.2454 -0.5276  0.7269
  285MOL0     H38417   3.390   3.532   8.551  0.2026 -0.6462  0.5212
  285MOL0     H38418   3.212   3.776   8.617  2.7193  0.6404  0.0844
  285MOL0     H38419   3.156   3.613   8.618  0.7415 -0.7633  1.5672
  285MOL0     H38420   3.325   3.553   8.797 -0.0854 -0.5481  0.5336
  285MOL0     H38421   3.362   3.726   8.832 -0.6776  0.4834  0.6610
  285MOL0     H38422   3.092   3.592   8.849  0.5690  0.0005 -0.6663
  285MOL0     H38423   3.210   3.643   8.971  0.8587  1.2602  0.9869
  285MOL0     H38424   3.157   3.879   8.938  0.6948  0.3108 -0.5665
  285MOL0     H38425   3.017   3.767   8.965  0.7783 -0.8396  0.2931
  285MOL0     H38426   2.867   3.736   8.736 -0.0304 -0.0083 -0.5609
  285MOL0     H38427   2.810   3.986   8.452 -0.2494 -2.1911 -2.2336
  285MOL0     H38428   2.784   3.824   8.493 -1.4788  1.4464 -2.3692
  285MOL0     H38429   2.609   3.848   8.650  4.1883 -2.5022 -0.6240
  285MOL0     H38430   2.574   3.913   8.496 -0.3651  1.2380  0.2804
  285MOL0     H38431   2.613   4.151   8.562  0.2929  0.7365  0.0515
  285MOL0     H38432   2.665   4.106   8.725 -0.0647  0.1569 -0.4229
  285MOL0     H38433   2.440   4.182   8.722  0.4182 -0.5634  1.5487
  285MOL0     H38434   2.429   4.014   8.766 -2.6257  0.9261  0.0428
  285MOL0     H38435   2.217   4.042   8.785  0.1107  1.0988  0.3917
  285MOL0     H38436   1.918   4.178   8.847 -0.6520 -0.1403 -2.8121
  285MOL0     H38437   1.895   4.003   8.839 -0.7100 -0.2311  1.8452
  285MOL0     H38438   2.047   4.070   8.914  1.1108 -0.1212 -2.1258
  285MOL0     H38439   1.539   4.172   8.589 -0.6586  1.6381 -0.1719
  285MOL0     H38440   1.317   4.215   8.503  1.7595  1.0303  1.1933
  285MOL0     H38441   1.150   4.313   8.349 -2.0918 -0.4048 -0.5167
  285MOL0     H38442   1.249   4.371   8.211 -0.6097  0.6391 -0.1973
  285MOL0     H38443   0.971   4.261   8.247 -0.1907 -0.8228 -2.0052
  285MOL0     H38444   1.014   4.407   8.161 -1.9469  1.0081  2.2670
  285MOL0     H38445   1.044   4.111   8.068  3.3276  0.2269 -1.3524
  285MOL0     H38446   1.108   4.255   7.982  0.7266  0.7043  1.4646
  285MOL0     H38447   0.810   4.231   8.052  1.8702  1.6715  2.1706
  285MOL0     H38448   0.881   4.352   7.954  2.8681 -0.5841 -1.8466
  285MOL0     H38449   0.937   4.164   7.776  0.9750  1.8881  1.4982
  285MOL0     H38450   0.772   4.195   7.807 -0.2523 -3.1048 -1.8992
  285MOL0     H38451   0.946   3.984   7.932 -0.2098 -0.0990  2.4082
  285MOL0     H38452   0.781   4.015   7.989  1.2686  2.2493 -0.3176
  285MOL0     H38453   0.875   3.864   7.737  0.0225 -3.3538 -0.0619
  285MOL0     H38454   0.721   3.946   7.736  2.2422  2.4843 -0.6162
  285MOL0     H38455   0.675   3.805   7.948  0.5794 -0.0797  1.3250
  285MOL0     H38456   0.831   3.730   7.925  1.0429  3.1625  0.6961
  285MOL0     H38457   1.440   4.119   8.104  0.7444 -0.6912 -0.3746
  285MOL0     H38458   1.666   4.080   8.189  0.6295  0.1255 -0.2380
  285MOL0     H38459   1.961   4.108   8.378 -1.9832 -1.8204  0.3332
  285MOL0     H38460   2.218   4.097   8.356  0.5671  0.6706  0.4780
  285MOL0     H38461   3.930   3.650   8.097  1.4848  0.0803 -1.3146
  285MOL0     H38462   4.132   3.792   8.023  2.7530  1.6522  1.3403
  285MOL0     H38463   4.396   4.349   8.071 -0.0370 -0.5237  0.6818
  285MOL0     H38464   4.629   4.389   8.017 -2.0635  0.2371 -1.9401
  285MOL0     H38465   4.950   4.304   7.958  1.4562  0.9758  1.2441
  285MOL0     H38466   4.832   4.417   8.042 -0.2240  0.5008  0.9810
  285MOL0     H38467   4.983   4.345   8.249 -0.9122  1.3321 -0.4583
  285MOL0     H38468   5.002   4.477   8.145  0.4503  0.2970 -0.1485
  285MOL0     H38469   5.186   4.352   8.020  0.5413 -0.0461  0.8322
  285MOL0     H38470   5.156   4.212   8.128 -1.1307 -0.3005 -1.9194
  285MOL0     H38471   5.203   4.372   8.311  3.6721 -1.8569  0.8906
  285MOL0     H38472   5.298   4.459   8.170  0.5206 -0.7883 -2.6408
  285MOL0     H38473   5.503   4.091   8.241 -0.7554  0.4258  0.6950
  285MOL0     H38474   4.725   3.998   8.156 -0.4469  1.0050  1.4754
  285MOL0     H38475   4.485   3.935   8.161 -1.8243 -0.0180 -0.4148
  286MOL0     O38476   5.280   5.860   1.441  0.4671  0.7197 -0.9316
  286MOL0     C38477   5.319   5.756   1.506  0.0438 -0.1976  0.6144
  286MOL0     O38478   5.251   5.633   1.508  0.1162 -0.5322 -0.0548
  286MOL0     C38479   5.116   5.617   1.514 -0.4086  0.6702  0.2787
  286MOL0     C38480   5.032   5.731   1.531  1.0196 -0.7367 -0.1058
  286MOL0     C38481   4.897   5.705   1.526  0.0388  0.3272 -0.1759
  286MOL0     C38482   4.846   5.576   1.505  0.5315 -0.2879  0.4053
  286MOL0     O38483   4.711   5.545   1.489 -0.0167 -0.6760  0.9574
  286MOL0     C38484   4.617   5.578   1.595 -0.2883  0.1739 -0.2558
  286MOL0     C38485   4.478   5.523   1.553 -0.2757  0.0792  0.7684
  286MOL0     C38486   4.363   5.539   1.648  0.6078 -0.8650 -0.2971
  286MOL0     C38487   4.243   5.447   1.614 -0.2531  0.7212  0.8776
  286MOL0     C38488   4.114   5.467   1.689 -0.0025 -0.3560 -0.3385
  286MOL0     C38489   4.124   5.455   1.848  0.4231  0.1833 -0.0461
  286MOL0     C38490   4.009   5.522   1.924  0.4097 -0.2417 -0.2583
  286MOL0     C38491   3.870   5.481   1.877  0.1468 -0.1080  0.4747
  286MOL0     N38492   3.756   5.511   1.965 -1.1068 -0.1841 -0.1764
  286MOL0     C38493   3.667   5.429   2.026  0.1483  0.0092  0.5479
  286MOL0     C38494   3.601   5.510   2.110 -0.1750 -0.0696 -0.2757
  286MOL0     C38495   3.496   5.441   2.197  0.3946  0.1977  0.4658
  286MOL0     C38496   3.368   5.537   2.209 -0.7927 -0.4564  0.0308
  286MOL0     C38497   3.258   5.462   2.287 -0.1084  0.0937 -1.2474
  286MOL0     C38498   3.136   5.547   2.294 -0.6820 -0.0968 -0.0111
  286MOL0     O38499   3.027   5.460   2.330 -0.3281  0.4812  0.4380
  286MOL0     C38500   2.904   5.517   2.350 -0.1597  0.6963 -0.1143
  286MOL0     C38501   2.874   5.652   2.361  0.1079 -1.0494 -0.5670
  286MOL0     C38502   2.739   5.697   2.395  0.7270 -0.3897  0.0930
  286MOL0     C38503   2.731   5.846   2.409 -0.6168 -0.4634  0.0301
  286MOL0     C38504   2.631   5.609   2.391 -0.0333  0.8220  0.6770
  286MOL0     C38505   2.484   5.658   2.411  0.0677 -0.2026 -0.7017
  286MOL0     O38506   2.396   5.580   2.338  0.3316 -0.1088 -0.1572
  286MOL0     C38507   2.282   5.537   2.402  0.5779  0.0550  0.2183
  286MOL0     C38508   2.201   5.468   2.315  0.3154 -0.3146 -0.7120
  286MOL0     C38509   2.094   5.394   2.356 -0.3164  0.4309 -0.7407
  286MOL0     C38510   2.064   5.389   2.495  0.0886 -0.1042  1.0460
  286MOL0     O38511   1.952   5.320   2.528  0.4832  0.5134  0.4444
  286MOL0     C38512   1.932   5.245   2.647 -0.2465 -0.1536  0.1534
  286MOL0     C38513   1.800   5.159   2.635  0.3340  0.2277  1.2443
  286MOL0     C38514   1.802   5.033   2.535 -0.3115 -0.0038 -0.4356
  286MOL0     C38515   1.825   5.078   2.393  0.0948 -0.4723  0.5321
  286MOL0     C38516   1.819   4.966   2.287 -0.2483 -0.4778 -1.1733
  286MOL0     C38517   1.879   5.004   2.147 -0.3439 -0.2110 -0.4152
  286MOL0     C38518   1.891   4.898   2.034  0.3062 -0.2140 -0.4353
  286MOL0     C38519   1.997   4.950   1.939  0.6619  0.0529  0.3203
  286MOL0    Cl38520   2.174   4.921   1.979  0.4685 -0.2919  0.3221
  286MOL0     C38521   2.143   5.457   2.587  0.1020 -1.0868  0.6300
  286MOL0     C38522   2.247   5.544   2.543 -0.3259 -0.8047  0.1740
  286MOL0     O38523   2.462   5.768   2.471 -0.0979 -1.1151 -0.3069
  286MOL0     C38524   2.668   5.466   2.386  0.0363 -0.4208  1.7354
  286MOL0     C38525   2.796   5.429   2.365 -1.0532  1.0766  0.0483
  286MOL0     N38526   3.640   5.638   2.092  0.4133 -0.4864  0.4287
  286MOL0     N38527   3.744   5.638   2.021 -0.1854  0.2651 -0.3586
  286MOL0     C38528   4.923   5.462   1.497 -0.2180 -0.1311 -0.6245
  286MOL0     C38529   5.065   5.485   1.508  0.2118 -0.3725  0.4344
  286MOL0     C38530   5.450   5.774   1.569  0.9043  0.5942  0.6696
  286MOL0     C38531   5.519   5.894   1.579  1.5531  0.6488 -0.1439
  286MOL0     C38532   5.652   5.899   1.631  0.7020 -0.1291 -0.2003
  286MOL0     C38533   5.727   5.785   1.665  1.0906 -0.0577 -0.4719
  286MOL0     O38534   5.850   5.805   1.707 -0.3209  0.7326  0.4729
  286MOL0     C38535   5.912   5.691   1.771  0.2024  0.5271 -0.2092
  286MOL0     C38536   6.021   5.733   1.865 -0.2400  0.4320 -0.4100
  286MOL0     C38537   6.139   5.803   1.789 -0.0486  0.4656 -0.0588
  286MOL0     C38538   6.201   5.911   1.881  0.2495 -0.0992  0.4685
  286MOL0     C38539   6.285   6.000   1.802  0.0812  0.2711 -0.3474
  286MOL0     C38540   6.366   6.063   1.741 -0.2363 -0.3374  0.7262
  286MOL0     C38541   5.653   5.665   1.652  0.5370 -0.5426 -0.6991
  286MOL0     C38542   5.520   5.655   1.603  0.2885  0.3178 -0.3919
  286MOL0     H38543   5.077   5.829   1.542 -1.9613  0.7898 -0.3851
  286MOL0     H38544   4.822   5.782   1.540  0.4865  0.6160  0.7689
  286MOL0     H38545   4.656   5.540   1.690  1.7180 -1.9031 -1.7921
  286MOL0     H38546   4.609   5.687   1.603 -1.3463  0.3363 -2.7010
  286MOL0     H38547   4.455   5.575   1.460 -1.7133 -2.4414 -0.3683
  286MOL0     H38548   4.492   5.417   1.532  3.9512  0.4905  0.6916
  286MOL0     H38549   4.404   5.511   1.746  0.8283  0.5022  0.0283
  286MOL0     H38550   4.322   5.639   1.666 -1.4635 -1.8386  0.7938
  286MOL0     H38551   4.213   5.447   1.509 -0.8104 -0.4832  1.0150
  286MOL0     H38552   4.285   5.348   1.637  2.4600  1.7985  0.9318
  286MOL0     H38553   4.068   5.565   1.674 -1.1636 -0.9130 -0.5524
  286MOL0     H38554   4.035   5.406   1.643 -1.4768  1.2708 -0.0923
  286MOL0     H38555   4.122   5.348   1.872 -5.7348 -1.1494 -4.1807
  286MOL0     H38556   4.214   5.501   1.889 -0.3362  1.1400  0.6095
  286MOL0     H38557   4.019   5.509   2.032  0.5334  0.7642 -0.1418
  286MOL0     H38558   4.025   5.629   1.913  1.6661 -0.4440 -0.5028
  286MOL0     H38559   3.872   5.373   1.862  0.8412  0.0823 -1.0069
  286MOL0     H38560   3.835   5.521   1.781 -1.5110 -0.5647  0.8646
  286MOL0     H38561   3.679   5.322   2.040 -0.0222  0.1736  2.1546
  286MOL0     H38562   3.470   5.344   2.152  0.5101  0.9326 -1.2705
  286MOL0     H38563   3.535   5.410   2.294 -1.1999 -3.5461  0.1186
  286MOL0     H38564   3.333   5.554   2.107  0.2618 -1.2182 -0.4739
  286MOL0     H38565   3.395   5.631   2.258  0.7776 -1.0033  0.2678
  286MOL0     H38566   3.288   5.441   2.390 -2.2932  0.9405 -0.3716
  286MOL0     H38567   3.234   5.365   2.244 -0.0285 -1.0433  1.1288
  286MOL0     H38568   3.111   5.585   2.194 -0.5935  1.9063  0.6746
  286MOL0     H38569   3.146   5.632   2.361  0.5942  0.2312 -0.5988
  286MOL0     H38570   2.950   5.729   2.363 -1.1804  0.4694 -3.4828
  286MOL0     H38571   2.821   5.893   2.369  0.3026 -0.7460  1.6806
  286MOL0     H38572   2.646   5.891   2.356  0.6533  1.9885 -0.0567
  286MOL0     H38573   2.726   5.877   2.514  3.2310  1.4437 -0.2091
  286MOL0     H38574   2.227   5.453   2.211  0.7795 -0.5015 -0.5698
  286MOL0     H38575   2.017   5.346   2.296 -0.4209  0.3587 -0.5513
  286MOL0     H38576   2.022   5.187   2.669  1.0812  0.7788 -2.3853
  286MOL0     H38577   1.928   5.312   2.734  3.1965 -0.5739  0.7590
  286MOL0     H38578   1.768   5.135   2.737  0.0706 -0.7947  0.9276
  286MOL0     H38579   1.722   5.228   2.601  0.3443 -0.6167 -0.6078
  286MOL0     H38580   1.710   4.974   2.541 -0.6155  0.5262  0.5293
  286MOL0     H38581   1.877   4.961   2.566 -1.7184 -2.5251 -2.5028
  286MOL0     H38582   1.758   5.153   2.350  0.9950 -0.0476 -0.1853
  286MOL0     H38583   1.926   5.121   2.396  1.1406 -2.8062  1.0018
  286MOL0     H38584   1.714   4.939   2.271 -1.1576  1.2619  1.2414
  286MOL0     H38585   1.864   4.879   2.336  0.0132  1.6287  2.7450
  286MOL0     H38586   1.812   5.084   2.116 -0.3514 -1.0353 -2.6535
  286MOL0     H38587   1.983   5.033   2.166 -0.4714  1.3914 -1.9701
  286MOL0     H38588   1.800   4.886   1.974  0.0111  0.6340 -0.1686
  286MOL0     H38589   1.911   4.797   2.070 -1.7232  0.6480  3.6545
  286MOL0     H38590   1.972   5.053   1.914  1.3222  0.1489  0.0288
  286MOL0     H38591   1.986   4.896   1.844  1.7376 -0.4674  0.4798
  286MOL0     H38592   2.108   5.470   2.689  0.0437 -2.7435  0.8563
  286MOL0     H38593   2.291   5.614   2.613 -0.1623 -1.8330  1.1269
  286MOL0     H38594   2.584   5.397   2.382 -1.5960  1.5337 -0.3177
  286MOL0     H38595   2.809   5.322   2.357 -1.6525  0.8747  1.4552
  286MOL0     H38596   4.894   5.357   1.490  1.4399 -0.5889 -1.0428
  286MOL0     H38597   5.124   5.396   1.490 -0.3923 -0.4863 -1.0700
  286MOL0     H38598   5.467   5.988   1.564 -3.4780 -1.8407 -0.1296
  286MOL0     H38599   5.692   5.999   1.640 -1.3037  0.6162  1.1866
  286MOL0     H38600   5.849   5.624   1.830  1.5880 -0.4226  0.2328
  286MOL0     H38601   5.941   5.620   1.693 -3.8250 -0.3771 -1.1056
  286MOL0     H38602   6.063   5.643   1.911  0.4789 -0.1616 -2.1547
  286MOL0     H38603   5.977   5.792   1.946 -2.0017  0.0222 -1.0166
  286MOL0     H38604   6.113   5.849   1.694 -0.1659  0.7578  0.1118
  286MOL0     H38605   6.217   5.730   1.768 -1.2896  0.0331 -3.8028
  286MOL0     H38606   6.255   5.875   1.969 -0.7911  1.5390  1.8604
  286MOL0     H38607   6.115   5.967   1.920  0.5219  0.9543 -0.3890
  286MOL0     H38608   6.405   6.123   1.661 -2.4338  2.9441  1.9143
  286MOL0     H38609   5.701   5.577   1.693  0.6389  1.0623  2.9630
  286MOL0     H38610   5.483   5.555   1.584  0.0282  0.7546 -2.3077
  287MOL0     O38611   4.160   3.237   5.702  0.4626 -0.7141 -0.0396
  287MOL0     C38612   4.236   3.238   5.803  0.4651  0.0801  1.2199
  287MOL0     O38613   4.191   3.265   5.936  0.1496  0.0939  0.7987
  287MOL0     C38614   4.062   3.297   5.948  0.9531  0.2748  0.7970
  287MOL0     C38615   3.971   3.210   6.018 -0.1801 -0.5053  0.0645
  287MOL0     C38616   3.834   3.234   6.003 -0.3653 -0.3672 -0.3718
  287MOL0     C38617   3.777   3.346   5.939  0.2609  0.7905  0.7909
  287MOL0     O38618   3.632   3.359   5.936  0.2088  0.3035  1.2871
  287MOL0     C38619   3.577   3.443   5.836 -1.1252 -0.0483 -0.3752
  287MOL0     C38620   3.439   3.394   5.820  0.5611 -0.6563 -0.9324
  287MOL0     C38621   3.353   3.483   5.733 -0.1381  0.4606  0.9787
  287MOL0     C38622   3.210   3.427   5.729 -0.5726 -0.3885  0.2425
  287MOL0     C38623   3.109   3.514   5.635  0.1256  0.8304 -0.2487
  287MOL0     C38624   2.955   3.482   5.667 -0.3839  0.6162 -0.5025
  287MOL0     C38625   2.913   3.343   5.613  0.5401 -1.2200  0.8084
  287MOL0     C38626   2.757   3.329   5.617 -0.8358 -0.2750 -0.0527
  287MOL0     N38627   2.704   3.334   5.754 -0.4323 -0.1505 -0.5273
  287MOL0     C38628   2.708   3.233   5.845 -0.3021  0.1823  1.0132
  287MOL0     C38629   2.637   3.272   5.956  0.0491  0.7395 -0.4542
  287MOL0     C38630   2.605   3.193   6.079 -0.8064 -0.4715  0.1042
  287MOL0     C38631   2.543   3.057   6.048  0.1979  0.7665 -0.2198
  287MOL0     C38632   2.527   2.977   6.179  0.1216 -0.5438  0.0115
  287MOL0     C38633   2.505   2.824   6.152 -0.3815  0.4811  0.4528
  287MOL0     O38634   2.468   2.760   6.279  0.2687 -0.9529  0.1738
  287MOL0     C38635   2.338   2.746   6.314  0.7362  0.0632 -0.7298
  287MOL0     C38636   2.312   2.692   6.441 -0.0770 -0.8049  1.5435
  287MOL0     C38637   2.182   2.657   6.480 -0.8517 -0.6039  0.3338
  287MOL0     C38638   2.167   2.615   6.617  0.0417  0.1029  0.2296
  287MOL0     C38639   2.073   2.690   6.389  0.0088  0.2084  0.7378
  287MOL0     C38640   1.935   2.660   6.429  0.1855  0.1289  0.4514
  287MOL0     O38641   1.843   2.732   6.349 -0.1479  0.0444 -0.5845
  287MOL0     C38642   1.714   2.735   6.386 -0.5048  0.0640 -0.2805
  287MOL0     C38643   1.658   2.848   6.449  0.1363  0.0357  0.0191
  287MOL0     C38644   1.523   2.858   6.484 -0.5443 -0.2856 -0.0915
  287MOL0     C38645   1.444   2.750   6.448  0.5433 -0.2194  0.1678
  287MOL0     O38646   1.312   2.740   6.464 -0.4230 -0.0340 -0.5382
  287MOL0     C38647   1.243   2.844   6.530  0.3646  0.1566 -0.2872
  287MOL0     C38648   1.099   2.833   6.506 -0.7024 -0.1919 -0.7550
  287MOL0     C38649   1.028   2.956   6.572 -0.3747  0.4991 -0.2868
  287MOL0     C38650   1.013   2.947   6.724 -0.7341 -0.3812 -0.6472
  287MOL0     C38651   0.947   3.070   6.788  0.3713  0.0154  0.1833
  287MOL0     C38652   0.961   3.073   6.947 -0.2947 -0.5729 -0.4735
  287MOL0     C38653   0.911   2.952   7.020 -0.3943 -0.7861 -0.2172
  287MOL0     C38654   0.775   2.900   6.984 -0.0251  0.4096 -0.2542
  287MOL0    Cl38655   0.642   3.021   7.010  0.3862 -0.4101 -0.3850
  287MOL0     C38656   1.499   2.636   6.385  0.3757 -0.3858 -0.9998
  287MOL0     C38657   1.632   2.631   6.355  0.2279  0.2565 -0.4029
  287MOL0     O38658   1.908   2.564   6.506  0.3883  0.0955  0.6996
  287MOL0     C38659   2.100   2.748   6.265 -0.3255  0.4842  0.4762
  287MOL0     C38660   2.233   2.779   6.222 -0.2403  1.4975  0.5356
  287MOL0     N38661   2.596   3.406   5.938 -0.8909  0.9847  0.1205
  287MOL0     N38662   2.637   3.433   5.818 -0.2729 -0.3727 -0.5495
  287MOL0     C38663   3.869   3.445   5.896  0.1590  0.0553 -0.6296
  287MOL0     C38664   4.005   3.416   5.895 -0.8725 -0.0534 -0.1642
  287MOL0     C38665   4.378   3.217   5.785 -0.4137 -0.4682 -0.1050
  287MOL0     C38666   4.470   3.260   5.892 -0.7204  0.0594  1.3244
  287MOL0     C38667   4.617   3.258   5.872  0.6229 -0.7116 -0.5843
  287MOL0     C38668   4.666   3.198   5.757  0.4672 -0.0691 -0.5830
  287MOL0     O38669   4.801   3.181   5.732 -0.4834 -0.0895 -0.5371
  287MOL0     C38670   4.893   3.136   5.830  0.5219 -0.0948 -0.2825
  287MOL0     C38671   4.910   2.987   5.871 -1.0329  0.0109  0.0481
  287MOL0     C38672   4.956   2.901   5.753 -0.2953  0.2668 -0.6647
  287MOL0     C38673   4.851   2.877   5.644  0.3126  0.2059  0.0005
  287MOL0     C38674   4.888   2.778   5.547 -0.3762  0.2308  1.2247
  287MOL0     C38675   4.931   2.698   5.460  0.3532 -0.2677 -0.2284
  287MOL0     C38676   4.573   3.155   5.661  0.6083 -0.2562 -0.3111
  287MOL0     C38677   4.430   3.161   5.669 -0.2615 -0.6264  0.9333
  287MOL0     H38678   4.003   3.125   6.078 -1.1955 -0.1946  1.0944
  287MOL0     H38679   3.768   3.162   6.050  3.2195 -3.1983  0.7354
  287MOL0     H38680   3.575   3.548   5.866 -3.8467 -0.3211  0.6888
  287MOL0     H38681   3.627   3.427   5.740  0.2380  0.9631  0.1483
  287MOL0     H38682   3.438   3.296   5.771 -0.7520 -1.7076  1.0606
  287MOL0     H38683   3.389   3.384   5.916 -0.3316 -2.8848 -1.5771
  287MOL0     H38684   3.348   3.581   5.779 -2.3198  0.4312  0.9019
  287MOL0     H38685   3.390   3.488   5.630 -2.8033  1.0503 -0.0212
  287MOL0     H38686   3.197   3.326   5.689 -1.0990  0.6282 -2.3644
  287MOL0     H38687   3.175   3.429   5.832 -1.1822  1.9277  0.0400
  287MOL0     H38688   3.131   3.618   5.661  0.6247  0.4749  0.8035
  287MOL0     H38689   3.131   3.490   5.531 -0.1436 -1.1056  0.1024
  287MOL0     H38690   2.947   3.484   5.776 -0.0760  2.4858 -0.4754
  287MOL0     H38691   2.879   3.553   5.632  0.8189  2.2905  0.1423
  287MOL0     H38692   2.942   3.338   5.507 -0.6305 -4.0139  0.5511
  287MOL0     H38693   2.963   3.266   5.672  0.9402 -1.8459 -0.3225
  287MOL0     H38694   2.728   3.233   5.574 -1.0507 -0.3150  0.1798
  287MOL0     H38695   2.719   3.409   5.553 -0.8709 -0.6289 -0.4750
  287MOL0     H38696   2.754   3.136   5.828  3.2874  1.6971  1.0565
  287MOL0     H38697   2.690   3.177   6.146 -0.4708 -0.9416 -0.4254
  287MOL0     H38698   2.532   3.253   6.134 -0.0604  0.9660 -0.4131
  287MOL0     H38699   2.590   2.995   5.971  0.6990  0.5939  0.2169
  287MOL0     H38700   2.441   3.072   6.010 -0.0771  1.6770  0.8307
  287MOL0     H38701   2.436   3.009   6.231  0.3195  0.2085 -0.0989
  287MOL0     H38702   2.623   2.984   6.231  2.1696  2.9328 -3.6659
  287MOL0     H38703   2.597   2.779   6.115  0.4335  3.4400 -1.4747
  287MOL0     H38704   2.435   2.811   6.069  1.3355 -4.8751 -0.5587
  287MOL0     H38705   2.402   2.670   6.497  1.0948  0.8407  0.3942
  287MOL0     H38706   2.085   2.678   6.653 -1.0409  1.0002 -3.4651
  287MOL0     H38707   2.138   2.510   6.627  0.1357 -0.1237 -1.5697
  287MOL0     H38708   2.255   2.628   6.680  0.9124 -0.3433 -0.8671
  287MOL0     H38709   1.725   2.931   6.469 -1.3779  2.1395 -2.9330
  287MOL0     H38710   1.491   2.942   6.545  2.5579  0.4961  0.6588
  287MOL0     H38711   1.260   2.822   6.636 -1.4181 -0.7823 -0.1649
  287MOL0     H38712   1.277   2.944   6.500  0.1305 -0.5983 -3.3902
  287MOL0     H38713   1.098   2.832   6.397  1.2036 -2.4197 -0.8370
  287MOL0     H38714   1.061   2.734   6.535  1.1418 -0.9817 -0.8767
  287MOL0     H38715   0.925   2.971   6.537 -0.4436  1.9536  0.4517
  287MOL0     H38716   1.090   3.042   6.542  1.6301  0.2597  2.7229
  287MOL0     H38717   0.954   2.856   6.739  1.2251 -1.5987  0.2049
  287MOL0     H38718   1.107   2.939   6.780  0.2870  1.7823 -1.9334
  287MOL0     H38719   0.844   3.059   6.753  1.1640 -1.8927 -1.7794
  287MOL0     H38720   0.983   3.168   6.756  1.7901 -0.0556  1.4512
  287MOL0     H38721   1.068   3.088   6.965 -0.8070  2.6516  0.4480
  287MOL0     H38722   0.918   3.162   6.994  1.4238 -1.2594  2.6869
  287MOL0     H38723   0.917   2.981   7.125 -2.3663 -0.9738  0.0020
  287MOL0     H38724   0.980   2.869   7.002  0.6126 -0.0942  0.3838
  287MOL0     H38725   0.757   2.815   7.050 -1.8730  1.5431  0.8051
  287MOL0     H38726   0.774   2.872   6.878 -1.8510 -0.2573 -0.1017
  287MOL0     H38727   1.433   2.560   6.342  0.0419 -0.4734 -0.3480
  287MOL0     H38728   1.667   2.540   6.309 -3.6349 -1.7043  0.1160
  287MOL0     H38729   2.015   2.768   6.200  1.6887 -0.6109 -2.7031
  287MOL0     H38730   2.251   2.821   6.124 -0.0816  0.8633  0.2844
  287MOL0     H38731   3.840   3.545   5.865 -1.5053 -0.8195 -2.1142
  287MOL0     H38732   4.074   3.488   5.852 -1.0573  1.1459  1.4342
  287MOL0     H38733   4.422   3.304   5.979 -1.8296  3.3517 -0.7316
  287MOL0     H38734   4.673   3.308   5.950 -0.1279 -2.2121  0.9684
  287MOL0     H38735   4.994   3.160   5.795  1.6721 -1.2645  2.0090
  287MOL0     H38736   4.872   3.193   5.921 -1.2707 -0.3144 -0.5267
  287MOL0     H38737   4.813   2.952   5.909 -0.5180 -0.6509  0.7746
  287MOL0     H38738   4.986   2.983   5.950  0.5520  1.9137 -1.2800
  287MOL0     H38739   4.981   2.803   5.795  0.3567  0.7195  0.0429
  287MOL0     H38740   5.044   2.931   5.695 -1.3336  0.4252 -2.2072
  287MOL0     H38741   4.839   2.970   5.589  1.0565  0.6221  0.5265
  287MOL0     H38742   4.755   2.851   5.689  1.9569 -2.9311  2.1046
  287MOL0     H38743   4.984   2.649   5.381  0.1711 -0.3884 -0.2758
  287MOL0     H38744   4.603   3.091   5.578 -0.7579  1.9465 -2.6725
  287MOL0     H38745   4.364   3.133   5.588 -0.2943  0.7842  0.4485
  288MOL0     O38746  10.629   4.222   9.931  0.1180  0.1930 -0.4423
  288MOL0     C38747  10.643   4.228   9.809  0.3901  0.0914 -0.3976
  288MOL0     O38748  10.757   4.264   9.742  0.1823  0.7715  0.5849
  288MOL0     C38749  10.875   4.301   9.806 -0.0562 -0.0014  0.5329
  288MOL0     C38750  10.944   4.412   9.753 -0.9652  0.4176  0.3022
  288MOL0     C38751  11.065   4.463   9.814 -0.1048  0.2993 -1.3156
  288MOL0     C38752  11.121   4.394   9.923 -0.0327  0.4038 -0.8849
  288MOL0     O38753  11.237   4.446   9.982 -0.4227  0.2034  0.2844
  288MOL0     C38754  11.266   4.400  10.118 -0.5942  0.3428 -0.4602
  288MOL0     C38755  11.370   4.485  10.202 -0.0654 -0.2959 -0.0857
  288MOL0     C38756  11.522   4.487  10.151  0.0015 -1.0780 -0.5825
  288MOL0     C38757  11.546   4.459   9.998 -0.3785  0.0794  0.0742
  288MOL0     C38758  11.688   4.422   9.962  0.1695 -0.5295 -0.8233
  288MOL0     C38759  11.700   4.373   9.826 -0.5700  0.5066  1.2832
  288MOL0     C38760  11.848   4.345   9.788 -0.5329  0.6446  0.6783
  288MOL0     C38761  11.905   4.435   9.670 -0.5741 -1.1478 -0.1754
  288MOL0     N38762  11.931   4.572   9.706  0.0314 -0.1817  0.2936
  288MOL0     C38763  11.844   4.676   9.734  0.3099 -0.2081  1.0237
  288MOL0     C38764  11.902   4.774   9.800 -1.4077  0.4428 -0.1618
  288MOL0     C38765  11.842   4.905   9.833  0.0595 -0.7118 -0.5493
  288MOL0     C38766  11.742   4.903   9.942 -0.2667 -0.1819 -0.1499
  288MOL0     C38767  11.659   5.038   9.940  0.9669  0.0318 -0.2900
  288MOL0     C38768  11.529   5.037  10.022 -0.1694  0.5130 -1.0618
  288MOL0     O38769  11.447   4.931   9.969 -0.2439 -0.0575 -0.5514
  288MOL0     C38770  11.329   4.892  10.029  0.8818  0.3099  0.6543
  288MOL0     C38771  11.263   4.975  10.123  0.5494 -0.4257 -0.0434
  288MOL0     C38772  11.143   4.930  10.186  0.1037 -0.1388 -0.1266
  288MOL0     C38773  11.065   5.042  10.252 -0.8612  0.0732 -0.4111
  288MOL0     C38774  11.092   4.807  10.146 -0.1921  0.3658 -0.4045
  288MOL0     C38775  10.976   4.741  10.218  0.0035 -0.3244 -0.3738
  288MOL0     O38776  10.922   4.630  10.166 -0.1678  0.1027 -0.6606
  288MOL0     C38777  10.839   4.547  10.238  0.8868  0.4544 -0.3727
  288MOL0     C38778  10.709   4.592  10.286  0.2069  0.5591 -0.1747
  288MOL0     C38779  10.626   4.499  10.346  0.7143  0.1920 -0.0794
  288MOL0     C38780  10.655   4.367  10.351  0.2827  0.0597  0.6973
  288MOL0     O38781  10.570   4.260  10.381 -0.7802  0.8532 -0.5569
  288MOL0     C38782  10.430   4.282  10.397 -0.4377  0.0212  0.6899
  288MOL0     C38783  10.356   4.147  10.382 -1.0180 -0.1328  0.0297
  288MOL0     C38784  10.383   4.081  10.248  0.5296  0.1306 -0.0934
  288MOL0     C38785  10.525   4.023  10.229 -0.0864  1.4156  0.7208
  288MOL0     C38786  10.551   3.939  10.103 -0.0125  0.8930 -0.2842
  288MOL0     C38787  10.681   3.859  10.131  0.1160 -0.4596 -0.6719
  288MOL0     C38788  10.798   3.935  10.090 -0.3941 -0.6553  0.1243
  288MOL0     C38789  10.925   3.846  10.122  0.3348  0.4076  0.3263
  288MOL0    Cl38790  11.071   3.893  10.026  0.3513  0.3765  0.3042
  288MOL0     C38791  10.777   4.326  10.301 -0.0423  0.7518  0.1199
  288MOL0     C38792  10.873   4.412  10.245 -0.3914 -1.0645  0.1249
  288MOL0     O38793  10.950   4.793  10.336  0.1042 -0.3036 -0.1667
  288MOL0     C38794  11.156   4.735  10.040  0.5069  0.0144 -0.2389
  288MOL0     C38795  11.271   4.770   9.983  0.1421 -0.7175 -0.9523
  288MOL0     N38796  12.034   4.735   9.801  0.5961 -0.3394 -0.0797
  288MOL0     N38797  12.049   4.619   9.761  0.5925  1.3791  0.4639
  288MOL0     C38798  11.060   4.269   9.963  0.9695  0.1931  0.2113
  288MOL0     C38799  10.932   4.234   9.918  0.0905 -1.0037 -0.9782
  288MOL0     C38800  10.515   4.228   9.735  0.0748 -0.9092  0.3199
  288MOL0     C38801  10.390   4.260   9.793 -0.1673 -0.2474  0.1919
  288MOL0     C38802  10.278   4.281   9.709 -0.2390 -0.0140 -0.5602
  288MOL0     C38803  10.287   4.267   9.572  0.8619  0.0251 -0.4965
  288MOL0     O38804  10.173   4.272   9.494  0.0843 -0.2935 -0.0901
  288MOL0     C38805  10.177   4.189   9.381  0.5022  1.4837  0.4655
  288MOL0     C38806  10.030   4.148   9.340  0.3886 -0.0691 -1.3628
  288MOL0     C38807  10.041   4.047   9.223 -0.3056 -0.5064 -0.3454
  288MOL0     C38808   9.902   4.005   9.178 -0.5961 -0.3419  0.7492
  288MOL0     C38809   9.805   4.118   9.163  0.0908 -0.1336 -0.3840
  288MOL0     C38810   9.715   4.207   9.153 -0.1944 -0.2261 -0.0430
  288MOL0     C38811  10.410   4.238   9.517 -0.3864  1.1085  0.4065
  288MOL0     C38812  10.522   4.217   9.599 -0.0440 -0.3499 -0.5946
  288MOL0     H38813  10.898   4.439   9.659 -1.8566 -2.1296 -0.0872
  288MOL0     H38814  11.119   4.544   9.767 -0.8394 -0.2917 -3.2848
  288MOL0     H38815  11.179   4.380  10.181 -2.3274  0.0009 -2.8236
  288MOL0     H38816  11.314   4.303  10.100  0.3892  1.0442 -1.7471
  288MOL0     H38817  11.327   4.584  10.219  1.4363  0.5451 -0.9191
  288MOL0     H38818  11.370   4.435  10.299 -1.6447  1.4687  0.8861
  288MOL0     H38819  11.565   4.583  10.181 -4.1906  1.4602 -1.9027
  288MOL0     H38820  11.581   4.412  10.204  1.0821 -0.1356 -0.4006
  288MOL0     H38821  11.482   4.376   9.967  0.5350 -0.6657  0.1553
  288MOL0     H38822  11.519   4.550   9.943  2.4188  1.5751  1.0157
  288MOL0     H38823  11.748   4.513   9.973  2.6928 -2.1153 -0.4454
  288MOL0     H38824  11.727   4.348  10.033 -1.3977  1.1328  1.9715
  288MOL0     H38825  11.649   4.277   9.811  2.4796 -1.2570  1.4293
  288MOL0     H38826  11.645   4.438   9.757  0.9068  0.8237  0.3503
  288MOL0     H38827  11.915   4.346   9.874  0.4631  1.5331 -0.0926
  288MOL0     H38828  11.849   4.241   9.751 -0.7380  1.3291 -1.3813
  288MOL0     H38829  11.828   4.439   9.592 -1.7150  1.3000  0.9709
  288MOL0     H38830  11.999   4.393   9.633 -0.1292 -0.0519 -0.2976
  288MOL0     H38831  11.740   4.690   9.706  1.0641  2.3839 -0.8779
  288MOL0     H38832  11.917   4.979   9.863  1.2019 -1.9295 -0.2750
  288MOL0     H38833  11.808   4.937   9.734  1.6488 -0.7620 -1.1528
  288MOL0     H38834  11.783   4.883  10.041  1.2605  0.2900 -0.6530
  288MOL0     H38835  11.682   4.817   9.909  1.6548 -0.1606 -4.3200
  288MOL0     H38836  11.628   5.077   9.842 -0.7374 -0.4912  0.0086
  288MOL0     H38837  11.718   5.118   9.986  0.4982 -0.1772  0.6927
  288MOL0     H38838  11.477   5.133  10.014  1.3387  1.3121 -1.7246
  288MOL0     H38839  11.560   5.032  10.126  2.6390  1.9414 -1.7321
  288MOL0     H38840  11.306   5.069  10.156  0.9070 -1.4861  2.7893
  288MOL0     H38841  10.957   5.027  10.248 -0.9749  1.0762 -3.0865
  288MOL0     H38842  11.101   5.047  10.355 -1.5650 -0.3532 -0.1355
  288MOL0     H38843  11.082   5.130  10.190 -1.4226 -2.5208 -4.6746
  288MOL0     H38844  10.679   4.694  10.265 -0.0675  0.6171  0.4880
  288MOL0     H38845  10.527   4.527  10.379 -0.0799 -0.2178 -2.0154
  288MOL0     H38846  10.415   4.319  10.499 -0.6390  0.8781  0.3583
  288MOL0     H38847  10.391   4.359  10.330  0.8613 -0.0832 -0.2165
  288MOL0     H38848  10.394   4.075  10.455 -1.2277 -1.9431 -1.5592
  288MOL0     H38849  10.248   4.159  10.394 -1.0315  1.9132 -1.5967
  288MOL0     H38850  10.356   4.153  10.170  1.0589  1.7826  1.1820
  288MOL0     H38851  10.319   3.994  10.234  1.1460 -0.0144 -2.3869
  288MOL0     H38852  10.613   4.088  10.228 -0.1821  1.5421 -0.1828
  288MOL0     H38853  10.532   3.952  10.312  0.1134  0.4065 -0.1493
  288MOL0     H38854  10.548   3.994  10.009 -0.5802 -2.0263 -2.0967
  288MOL0     H38855  10.481   3.855  10.089  0.4035  0.5280 -0.1927
  288MOL0     H38856  10.697   3.842  10.237  2.0745 -2.5031 -1.2317
  288MOL0     H38857  10.679   3.766  10.074  1.7659 -1.5145  0.8975
  288MOL0     H38858  10.802   4.034  10.137 -2.9610 -0.5507  0.2767
  288MOL0     H38859  10.785   3.955   9.983 -1.0858  0.8924  0.4640
  288MOL0     H38860  10.914   3.743  10.086  0.5925  0.3890  0.3047
  288MOL0     H38861  10.944   3.839  10.229 -0.1176 -1.2537  0.3391
  288MOL0     H38862  10.792   4.219  10.312 -0.6033  0.7308  0.7704
  288MOL0     H38863  10.968   4.372  10.212 -0.4105 -0.5169 -0.6264
  288MOL0     H38864  11.113   4.641  10.009  4.2089 -2.8535  2.3986
  288MOL0     H38865  11.311   4.713   9.900 -0.0165 -0.2007 -1.3882
  288MOL0     H38866  11.096   4.205  10.043  0.8757  2.2948  2.0577
  288MOL0     H38867  10.890   4.139   9.950 -1.0427 -0.6246 -1.2822
  288MOL0     H38868  10.374   4.272   9.899  0.9443 -1.1670  0.4824
  288MOL0     H38869  10.178   4.301   9.745 -1.1511  1.5418 -3.5885
  288MOL0     H38870  10.216   4.256   9.304  0.3037  0.5740 -0.4506
  288MOL0     H38871  10.239   4.099   9.382 -0.4078  0.8028 -0.9373
  288MOL0     H38872   9.973   4.241   9.329  0.5883  0.4050  0.9350
  288MOL0     H38873   9.981   4.092   9.420  0.7132  0.3501 -0.8606
  288MOL0     H38874  10.101   3.957   9.242  2.3742  1.2294 -0.1920
  288MOL0     H38875  10.086   4.096   9.137 -1.4553 -3.7130 -3.0076
  288MOL0     H38876   9.869   3.938   9.257  0.9522  0.1269  1.8275
  288MOL0     H38877   9.908   3.945   9.086 -1.5093 -1.1628  1.2125
  288MOL0     H38878   9.659   4.298   9.155  0.2770  0.1789 -2.2226
  288MOL0     H38879  10.418   4.245   9.409 -3.1066 -1.5027 -0.1009
  288MOL0     H38880  10.623   4.199   9.564 -0.1612  0.8663 -1.6187
  289MOL0     O38881   5.842   7.485   6.166  0.2356 -0.5248 -0.4770
  289MOL0     C38882   5.916   7.415   6.101 -0.3278 -0.5199 -0.4745
  289MOL0     O38883   5.886   7.290   6.038 -0.7371  0.6162  0.5980
  289MOL0     C38884   5.753   7.249   6.074 -0.1282  0.2483  1.0259
  289MOL0     C38885   5.746   7.166   6.183 -0.0738  0.0566  0.1613
  289MOL0     C38886   5.621   7.125   6.238 -0.8814 -0.2504 -0.5438
  289MOL0     C38887   5.509   7.171   6.170  0.1183 -1.1044  0.4719
  289MOL0     O38888   5.377   7.122   6.185 -0.0543 -0.3286 -0.0439
  289MOL0     C38889   5.361   6.996   6.261  0.3563 -0.3390 -1.1579
  289MOL0     C38890   5.217   6.961   6.265  0.6012  0.0977  0.6750
  289MOL0     C38891   5.198   6.823   6.205  0.3118  0.1646 -0.2061
  289MOL0     C38892   5.058   6.785   6.166  0.1214 -0.0206  0.4098
  289MOL0     C38893   5.047   6.635   6.159  0.3868 -1.1372  1.1138
  289MOL0     C38894   4.915   6.595   6.109 -0.3473 -0.0722 -0.1279
  289MOL0     C38895   4.899   6.444   6.113  0.6735  0.1982  0.0264
  289MOL0     C38896   4.763   6.403   6.052  0.2039  0.3604 -0.1938
  289MOL0     N38897   4.759   6.279   5.976 -0.3445  0.5485  0.4244
  289MOL0     C38898   4.804   6.163   6.033  0.9627  0.7066 -0.4521
  289MOL0     C38899   4.774   6.073   5.928  0.1192 -0.3305  0.7906
  289MOL0     C38900   4.771   5.924   5.940 -0.7692  1.0432 -0.7213
  289MOL0     C38901   4.901   5.859   5.905  0.0103 -0.1872 -0.0722
  289MOL0     C38902   5.013   5.907   6.001 -0.3325  0.5398  0.7927
  289MOL0     C38903   5.142   5.821   5.985 -0.1207  0.1881 -0.1583
  289MOL0     O38904   5.253   5.893   6.054  0.6788 -0.3283 -0.0555
  289MOL0     C38905   5.372   5.836   6.064  0.6137 -0.3038 -0.2402
  289MOL0     C38906   5.484   5.915   6.059  0.2794 -0.7885 -0.6754
  289MOL0     C38907   5.608   5.861   6.057 -0.2719 -0.1862 -0.0392
  289MOL0     C38908   5.719   5.966   6.075 -0.1694  0.0007  0.2461
  289MOL0     C38909   5.638   5.721   6.057 -0.3950  0.1174  0.5185
  289MOL0     C38910   5.771   5.655   6.075  0.8219  0.0568  0.2077
  289MOL0     O38911   5.769   5.521   6.044 -0.6479  0.3206 -0.6790
  289MOL0     C38912   5.874   5.443   6.093 -0.8280 -0.2744  0.0241
  289MOL0     C38913   6.012   5.480   6.063  0.1027 -0.6033  0.9604
  289MOL0     C38914   6.110   5.392   6.105  0.7479  0.5649  0.0613
  289MOL0     C38915   6.076   5.269   6.172 -1.0060 -0.8880  0.1927
  289MOL0     O38916   6.181   5.205   6.224 -0.3500 -0.3641 -0.6499
  289MOL0     C38917   6.197   5.058   6.213  0.8161 -0.0031 -0.4228
  289MOL0     C38918   6.343   5.031   6.241  0.4561  0.3026 -0.3377
  289MOL0     C38919   6.377   4.885   6.228 -0.3544 -0.8145  0.1229
  289MOL0     C38920   6.500   4.830   6.307 -0.0454  0.1447 -0.5118
  289MOL0     C38921   6.521   4.680   6.278  0.2981 -0.0518  0.1020
  289MOL0     C38922   6.645   4.642   6.363  0.5329 -0.3498  0.2915
  289MOL0     C38923   6.669   4.489   6.341 -0.8851  0.3374  0.3870
  289MOL0     C38924   6.766   4.443   6.452 -0.7398 -0.8608 -0.4098
  289MOL0    Cl38925   6.911   4.545   6.449  0.1617 -0.1835 -0.1625
  289MOL0     C38926   5.944   5.232   6.189  0.1860 -0.1460  0.0658
  289MOL0     C38927   5.846   5.318   6.143 -0.0772  0.1425 -0.4470
  289MOL0     O38928   5.853   5.714   6.147  0.6818  0.2835  0.7348
  289MOL0     C38929   5.523   5.636   6.052 -0.2831 -0.8635  0.6818
  289MOL0     C38930   5.393   5.697   6.056 -0.0008  0.2064 -1.2071
  289MOL0     N38931   4.737   6.147   5.816  0.6898  1.0005  0.6434
  289MOL0     N38932   4.732   6.269   5.848  0.0646  0.2981  1.0369
  289MOL0     C38933   5.513   7.263   6.065 -0.1606 -1.1065 -0.0345
  289MOL0     C38934   5.640   7.302   6.018 -0.0245  0.1895 -0.1645
  289MOL0     C38935   6.037   7.489   6.047  0.7338  0.6998 -0.4109
  289MOL0     C38936   6.038   7.631   6.042 -0.1077 -0.9030 -0.5804
  289MOL0     C38937   6.153   7.697   6.001  0.1394 -0.7953 -0.0400
  289MOL0     C38938   6.271   7.630   5.964 -0.6020 -0.3961 -0.4110
  289MOL0     O38939   6.386   7.714   5.939  0.4533 -0.5041  0.6323
  289MOL0     C38940   6.516   7.651   5.953 -0.5495  0.1452 -0.0813
  289MOL0     C38941   6.617   7.758   5.966 -0.0920 -0.5164  0.7026
  289MOL0     C38942   6.745   7.724   6.047 -0.0337 -0.3077 -0.5460
  289MOL0     C38943   6.869   7.805   6.001  0.3070 -0.3054 -0.5768
  289MOL0     C38944   6.904   7.786   5.859 -0.0185 -0.2255 -0.1415
  289MOL0     C38945   6.924   7.771   5.744  0.0944  0.2877 -0.1681
  289MOL0     C38946   6.263   7.496   5.969 -0.1261  0.0980 -0.2499
  289MOL0     C38947   6.152   7.422   6.007  0.3622 -0.0779  0.5045
  289MOL0     H38948   5.841   7.124   6.215 -0.3453 -0.9922 -0.3711
  289MOL0     H38949   5.628   7.038   6.303  3.4363 -0.5516 -1.1053
  289MOL0     H38950   5.430   6.930   6.207  1.2671 -0.5137  0.1788
  289MOL0     H38951   5.399   7.000   6.364  1.2556 -0.5590 -1.4671
  289MOL0     H38952   5.186   6.947   6.369  0.2098 -0.6512  0.4589
  289MOL0     H38953   5.157   7.045   6.229 -0.2247  1.2562  4.3330
  289MOL0     H38954   5.258   6.801   6.116  0.2176 -1.2926  0.0633
  289MOL0     H38955   5.229   6.751   6.282 -1.1203  0.1264  0.3703
  289MOL0     H38956   4.989   6.832   6.236 -0.5930 -0.8932  0.3168
  289MOL0     H38957   5.041   6.816   6.062 -2.5505 -2.3512  0.0332
  289MOL0     H38958   5.127   6.611   6.088  0.3337  1.4242  0.0731
  289MOL0     H38959   5.068   6.595   6.258 -2.2092 -0.1601  2.1689
  289MOL0     H38960   4.837   6.644   6.167 -0.0847  0.9597 -0.6206
  289MOL0     H38961   4.904   6.637   6.008 -0.5236 -1.6038 -0.7662
  289MOL0     H38962   4.988   6.416   6.057  1.7182  1.9087  0.7424
  289MOL0     H38963   4.911   6.392   6.209  2.1962  2.1495  0.9470
  289MOL0     H38964   4.728   6.489   5.993  1.1759 -0.3829 -1.9336
  289MOL0     H38965   4.693   6.387   6.135 -0.2817 -5.0099 -1.2543
  289MOL0     H38966   4.839   6.144   6.134  1.4226 -1.0781 -0.9087
  289MOL0     H38967   4.759   5.916   6.049  2.7557  3.2699 -0.0011
  289MOL0     H38968   4.685   5.882   5.887  0.1954 -3.5236  0.9348
  289MOL0     H38969   4.919   5.869   5.797 -1.6110 -1.7468 -0.5485
  289MOL0     H38970   4.876   5.754   5.920 -0.0561  0.0345  1.4679
  289MOL0     H38971   4.988   5.905   6.107  0.0710 -0.3900  0.8825
  289MOL0     H38972   5.036   6.007   5.963 -1.9351  0.3466 -0.8418
  289MOL0     H38973   5.163   5.804   5.879 -2.0372 -0.1333 -0.5148
  289MOL0     H38974   5.122   5.722   6.028  4.0208 -2.3378 -3.2572
  289MOL0     H38975   5.480   6.023   6.055 -0.9773 -0.7763  0.4505
  289MOL0     H38976   5.679   6.067   6.067  2.6390  1.1783  0.0107
  289MOL0     H38977   5.766   5.951   6.172  1.6503 -1.4221 -0.7735
  289MOL0     H38978   5.804   5.964   6.006  0.9906 -0.6153  1.6434
  289MOL0     H38979   6.024   5.566   5.999  0.3304 -1.0197  0.4386
  289MOL0     H38980   6.217   5.401   6.091  0.6166  0.5060 -1.0769
  289MOL0     H38981   6.133   5.010   6.287  1.7060 -1.7275 -0.7262
  289MOL0     H38982   6.160   5.029   6.115 -0.1315 -0.0525 -0.0624
  289MOL0     H38983   6.414   5.083   6.177  2.8720 -0.4259  1.5719
  289MOL0     H38984   6.359   5.065   6.344  0.8107 -4.1042  1.2819
  289MOL0     H38985   6.382   4.871   6.120 -1.4485  2.2980 -0.4273
  289MOL0     H38986   6.303   4.821   6.278 -0.9184  0.2256  0.6436
  289MOL0     H38987   6.594   4.876   6.277 -0.5802  0.9377 -1.0051
  289MOL0     H38988   6.497   4.849   6.415 -3.6435  2.2522 -0.8051
  289MOL0     H38989   6.535   4.658   6.172  0.8421  0.7195 -0.0002
  289MOL0     H38990   6.431   4.623   6.299 -0.9256  1.5861 -0.4660
  289MOL0     H38991   6.733   4.688   6.316 -0.4968 -0.3420 -1.7354
  289MOL0     H38992   6.633   4.671   6.467 -0.7700 -1.1342  0.3892
  289MOL0     H38993   6.717   4.476   6.243  0.9132  3.6310  0.6900
  289MOL0     H38994   6.584   4.421   6.351  0.2064 -1.6898 -2.6569
  289MOL0     H38995   6.801   4.342   6.429  0.7643 -0.0373 -1.9100
  289MOL0     H38996   6.714   4.447   6.548 -1.2639  1.8084 -0.7231
  289MOL0     H38997   5.925   5.142   6.246  0.8438  0.6017  1.5070
  289MOL0     H38998   5.742   5.289   6.135  0.1941 -0.7078 -1.1250
  289MOL0     H38999   5.532   5.528   6.047  0.8714 -0.7539 -0.3078
  289MOL0     H39000   5.304   5.636   6.063  0.2408  0.0135  1.3197
  289MOL0     H39001   5.424   7.299   6.015 -1.0308  1.6667  3.1427
  289MOL0     H39002   5.648   7.371   5.935 -0.0231 -0.0503 -0.3639
  289MOL0     H39003   5.952   7.692   6.064 -0.3612 -1.8581  1.2409
  289MOL0     H39004   6.167   7.805   6.009 -1.0958 -0.4601 -1.7680
  289MOL0     H39005   6.510   7.599   6.049 -1.8747 -1.9762 -1.2322
  289MOL0     H39006   6.545   7.576   5.879 -1.4167 -0.1367 -0.1544
  289MOL0     H39007   6.573   7.846   6.015  2.6501  0.3357  1.8439
  289MOL0     H39008   6.644   7.799   5.868 -0.6507  1.3752  1.2885
  289MOL0     H39009   6.770   7.618   6.042 -1.5971 -0.8975  2.1516
  289MOL0     H39010   6.717   7.742   6.151 -0.8593  0.0301 -0.8138
  289MOL0     H39011   6.958   7.775   6.056 -1.0721 -3.5235  0.1628
  289MOL0     H39012   6.840   7.910   6.008 -0.4960 -0.6474  1.9786
  289MOL0     H39013   6.932   7.756   5.638  1.1793 -0.0430 -0.0598
  289MOL0     H39014   6.347   7.431   5.946 -0.2112 -0.0247 -0.2173
  289MOL0     H39015   6.164   7.314   6.008  2.3638  0.0999 -0.0519
  290MOL0     O39016   8.869   9.749   9.385  0.1127  0.1728 -0.0811
  290MOL0     C39017   8.916   9.772   9.497  0.2144  0.1810 -0.1679
  290MOL0     O39018   8.839   9.785   9.609 -0.2766  0.8025 -0.0124
  290MOL0     C39019   8.706   9.748   9.598  0.1016  0.7026  0.5171
  290MOL0     C39020   8.678   9.618   9.556  0.2174 -0.1602  0.3764
  290MOL0     C39021   8.537   9.576   9.558 -0.2343  0.2072  0.1394
  290MOL0     C39022   8.434   9.653   9.619  0.1314 -0.3622 -0.7624
  290MOL0     O39023   8.310   9.595   9.624  0.5437 -0.3300 -0.2746
  290MOL0     C39024   8.202   9.686   9.634  0.0710  0.4208  0.3725
  290MOL0     C39025   8.080   9.618   9.559 -0.3229  0.6145 -0.0898
  290MOL0     C39026   7.990   9.552   9.650 -0.5326 -0.1161 -0.9614
  290MOL0     C39027   7.890   9.463   9.581 -0.0008 -0.4636  0.5208
  290MOL0     C39028   7.780   9.421   9.681  0.4004  0.4005 -0.6723
  290MOL0     C39029   7.666   9.333   9.632  0.2778  0.8035  0.3746
  290MOL0     C39030   7.552   9.356   9.731  0.5146  0.3712 -1.2009
  290MOL0     C39031   7.419   9.280   9.704 -0.5610 -0.1336 -0.0423
  290MOL0     N39032   7.318   9.307   9.804  0.2542  0.1411  0.7500
  290MOL0     C39033   7.257   9.425   9.825  0.1654  0.1441 -0.3335
  290MOL0     C39034   7.153   9.404   9.912  0.7748 -0.4539 -0.7656
  290MOL0     C39035   7.067   9.515   9.953 -0.4796 -0.3435 -0.5385
  290MOL0     C39036   6.919   9.495   9.931  0.2981 -0.0170 -0.3310
  290MOL0     C39037   6.860   9.595   9.834 -0.1894 -0.3842  0.1912
  290MOL0     C39038   6.707   9.590   9.815 -0.1348 -0.7377 -0.1580
  290MOL0     O39039   6.624   9.634   9.931  0.1314  0.2757 -0.0393
  290MOL0     C39040   6.502   9.578   9.968  0.5813  0.2852  0.8691
  290MOL0     C39041   6.449   9.596  10.094 -0.9934  0.6890 -0.7984
  290MOL0     C39042   6.314   9.564  10.125  0.6132  0.7044 -0.2076
  290MOL0     C39043   6.270   9.616  10.265 -0.8283  0.0562  0.2214
  290MOL0     C39044   6.235   9.490  10.025  0.3811 -0.1230  0.2615
  290MOL0     C39045   6.095   9.456  10.049  0.0845 -0.1737 -0.2409
  290MOL0     O39046   6.032   9.405   9.937  0.1378  0.3853  0.5920
  290MOL0     C39047   5.895   9.399   9.918 -0.3825  0.5078  0.0098
  290MOL0     C39048   5.797   9.398  10.022 -0.1510  0.1783 -0.2354
  290MOL0     C39049   5.668   9.366   9.981  0.3956 -0.0003  0.4244
  290MOL0     C39050   5.629   9.366   9.839 -0.3380  0.0868 -0.2669
  290MOL0     O39051   5.501   9.343   9.795  0.4427 -0.3569 -0.3624
  290MOL0     C39052   5.405   9.337   9.895  0.3984  0.6095  0.1987
  290MOL0     C39053   5.287   9.294   9.806  0.9432  0.3411 -0.0174
  290MOL0     C39054   5.165   9.269   9.895 -0.7843  0.3918  0.1066
  290MOL0     C39055   5.042   9.227   9.810 -0.0520  0.1828 -0.4661
  290MOL0     C39056   4.910   9.197   9.896  0.0804  0.0461  0.8778
  290MOL0     C39057   4.948   9.110  10.011 -0.5682  0.6408 -0.2258
  290MOL0     C39058   4.828   9.044  10.069  0.4390 -0.5375 -0.2811
  290MOL0     C39059   4.842   8.941  10.183 -0.3759  0.6622  1.2426
  290MOL0    Cl39060   4.703   8.824  10.168  0.0713  0.2122 -0.3552
  290MOL0     C39061   5.724   9.379   9.748 -0.3114  0.6503 -0.4081
  290MOL0     C39062   5.862   9.387   9.784  0.5203 -1.0577  0.4630
  290MOL0     O39063   6.037   9.495  10.150  0.3618 -0.2040  0.1723
  290MOL0     C39064   6.294   9.472   9.899  0.7384  0.8940 -0.3232
  290MOL0     C39065   6.419   9.517   9.869 -0.3652 -0.5293 -0.1617
  290MOL0     N39066   7.152   9.268   9.935  0.0455  1.0114 -0.2336
  290MOL0     N39067   7.253   9.210   9.878  0.6271 -0.0850  0.1722
  290MOL0     C39068   8.472   9.773   9.672 -0.2372 -0.6725  1.6677
  290MOL0     C39069   8.605   9.820   9.659 -0.6737 -1.1046 -0.0289
  290MOL0     C39070   9.051   9.825   9.497  0.4658  0.3220  0.0512
  290MOL0     C39071   9.125   9.828   9.381 -0.4238  0.3191 -1.0327
  290MOL0     C39072   9.251   9.898   9.375  1.0700  0.2859  0.3256
  290MOL0     C39073   9.306   9.949   9.495  0.3389  0.8698 -0.2812
  290MOL0     O39074   9.423  10.013   9.479 -0.2232 -0.2139  0.6242
  290MOL0     C39075   9.485  10.071   9.591  0.3395  0.3698 -1.0329
  290MOL0     C39076   9.625  10.116   9.569  0.5709  0.7686  0.0412
  290MOL0     C39077   9.698  10.203   9.671 -0.0000  0.2191  0.2504
  290MOL0     C39078   9.655  10.347   9.663 -0.1234  0.6299 -0.1646
  290MOL0     C39079   9.711  10.431   9.777  0.1900  1.1390 -0.6703
  290MOL0     C39080   9.743  10.509   9.868  0.5872 -0.0133  1.0377
  290MOL0     C39081   9.230   9.941   9.611  0.4619 -0.0711 -0.5010
  290MOL0     C39082   9.104   9.875   9.616  0.4023 -0.0508  0.8521
  290MOL0     H39083   8.744   9.540   9.520 -1.0108 -0.9156 -0.3317
  290MOL0     H39084   8.521   9.473   9.530  1.0691 -1.0197  3.3820
  290MOL0     H39085   8.190   9.699   9.742  1.8303  1.3992  0.4831
  290MOL0     H39086   8.227   9.778   9.580  1.0043 -0.1987 -0.2748
  290MOL0     H39087   8.025   9.699   9.510 -1.8924  0.2255  0.9413
  290MOL0     H39088   8.111   9.552   9.478 -5.3278  0.6761 -2.4151
  290MOL0     H39089   8.057   9.487   9.707  0.3039  1.0749 -0.5449
  290MOL0     H39090   7.943   9.632   9.707  1.3060 -0.9304  1.9189
  290MOL0     H39091   7.840   9.503   9.492  1.8256 -1.2095 -0.9040
  290MOL0     H39092   7.939   9.373   9.542 -0.9046 -0.0815 -1.6386
  290MOL0     H39093   7.828   9.365   9.763 -1.8604 -0.2076  0.3156
  290MOL0     H39094   7.731   9.509   9.722 -1.8044 -1.5853  1.2560
  290MOL0     H39095   7.650   9.340   9.524  5.1663 -3.7273 -1.0729
  290MOL0     H39096   7.707   9.232   9.624 -0.3344  0.5687  0.0475
  290MOL0     H39097   7.586   9.338   9.834 -6.4398 -0.9683  1.4208
  290MOL0     H39098   7.524   9.462   9.736  0.8710  0.4230  0.8069
  290MOL0     H39099   7.437   9.173   9.688  1.7095  0.2920 -0.7558
  290MOL0     H39100   7.373   9.312   9.610  1.5323  0.5027 -0.9090
  290MOL0     H39101   7.288   9.525   9.797  0.7415  0.0974  0.1226
  290MOL0     H39102   7.096   9.543  10.055  4.3446 -0.1803 -1.7099
  290MOL0     H39103   7.099   9.596   9.886 -1.6098  1.7996  1.3585
  290MOL0     H39104   6.871   9.511  10.028 -0.5957  0.7466 -0.8803
  290MOL0     H39105   6.903   9.390   9.903 -0.6121 -0.2558  0.9891
  290MOL0     H39106   6.906   9.577   9.737 -1.1807 -0.3841 -0.2922
  290MOL0     H39107   6.883   9.697   9.864 -1.6032 -0.6795  2.5605
  290MOL0     H39108   6.678   9.492   9.777 -0.0525 -0.0443 -2.1458
  290MOL0     H39109   6.674   9.651   9.729  0.8790 -0.7199 -0.5469
  290MOL0     H39110   6.514   9.638  10.171  1.1766 -1.7281 -1.1819
  290MOL0     H39111   6.356   9.664  10.313  0.4073  1.0247 -2.7764
  290MOL0     H39112   6.195   9.696  10.262 -0.0063  1.1912  4.0654
  290MOL0     H39113   6.232   9.534  10.327 -1.8690  0.4219  0.0832
  290MOL0     H39114   5.815   9.409  10.128 -1.0966 -3.9468  0.5033
  290MOL0     H39115   5.593   9.361  10.059  1.2183  2.3445  1.4227
  290MOL0     H39116   5.433   9.257   9.965  2.2502 -0.9138 -2.1270
  290MOL0     H39117   5.381   9.431   9.945 -0.2235 -0.2141  1.5100
  290MOL0     H39118   5.247   9.367   9.735  1.9426 -0.7748 -1.8088
  290MOL0     H39119   5.308   9.205   9.746 -3.6085 -1.3690  0.5473
  290MOL0     H39120   5.136   9.365   9.939  2.7274  0.9713  1.4763
  290MOL0     H39121   5.189   9.200   9.976  1.1137  0.1822 -0.5952
  290MOL0     H39122   5.026   9.313   9.743 -1.1001  0.0729 -0.3793
  290MOL0     H39123   5.069   9.149   9.739 -0.2753 -0.0382 -0.3070
  290MOL0     H39124   4.835   9.151   9.831 -2.7162  4.0232  0.9445
  290MOL0     H39125   4.854   9.284   9.930  1.3466  2.2121 -2.1370
  290MOL0     H39126   5.015   9.031   9.977 -4.5085 -1.4655 -4.0049
  290MOL0     H39127   5.002   9.158  10.093 -2.5200  1.5332  0.6033
  290MOL0     H39128   4.766   9.009   9.985  2.2229 -4.3309 -0.2406
  290MOL0     H39129   4.777   9.126  10.119 -0.4448 -0.0017 -1.9685
  290MOL0     H39130   4.832   8.991  10.280  1.1150  0.7602  1.3704
  290MOL0     H39131   4.939   8.891  10.178 -0.9901 -0.5249  0.9047
  290MOL0     H39132   5.685   9.373   9.647 -1.0575  2.4926 -0.2697
  290MOL0     H39133   5.943   9.382   9.712 -1.1641 -3.2498 -1.4448
  290MOL0     H39134   6.240   9.415   9.824  2.0547 -1.4770  0.4223
  290MOL0     H39135   6.464   9.499   9.772 -1.5076  0.7809 -0.9686
  290MOL0     H39136   8.399   9.842   9.713  0.9514  2.4607 -1.0566
  290MOL0     H39137   8.639   9.915   9.701  0.6552 -1.2018 -0.8276
  290MOL0     H39138   9.083   9.784   9.291 -1.8888 -3.5221  1.2975
  290MOL0     H39139   9.300   9.906   9.278 -1.2819 -1.2606 -1.0810
  290MOL0     H39140   9.415  10.151   9.616  1.8195  1.7358 -1.0325
  290MOL0     H39141   9.490  10.000   9.673 -0.4007  2.4079  0.8659
  290MOL0     H39142   9.641  10.160   9.470 -0.4549  1.4013  0.1429
  290MOL0     H39143   9.687  10.026   9.575  0.6035  0.7896  0.0055
  290MOL0     H39144   9.807  10.192   9.670 -0.2745 -4.6469 -1.0804
  290MOL0     H39145   9.660  10.169   9.768  0.5243 -0.8065  0.1078
  290MOL0     H39146   9.547  10.356   9.675 -0.0077  1.7963  0.0708
  290MOL0     H39147   9.687  10.388   9.567  2.9075  0.5399  0.7094
  290MOL0     H39148   9.781  10.563   9.952  1.1247  0.1026  0.7204
  290MOL0     H39149   9.263   9.977   9.708 -0.7940  0.4090 -0.2322
  290MOL0     H39150   9.045   9.869   9.707 -1.5992  1.0385 -0.3241
  291MOL0     O39151  10.222   9.841   8.382 -0.3753  1.0399 -0.2366
  291MOL0     C39152  10.242   9.753   8.298 -0.2689  0.7774 -0.0988
  291MOL0     O39153  10.211   9.754   8.162  0.6907 -0.2048  0.0975
  291MOL0     C39154  10.119   9.849   8.120 -0.0974 -0.1724 -0.0906
  291MOL0     C39155  10.167   9.977   8.092 -0.0471 -0.3981  0.5823
  291MOL0     C39156  10.081  10.080   8.044 -0.7952 -0.3010  0.2032
  291MOL0     C39157   9.954  10.051   8.000 -0.0391 -0.1049 -0.0191
  291MOL0     O39158   9.889  10.155   7.935 -0.3160  0.0118 -0.0777
  291MOL0     C39159   9.743  10.163   7.927 -0.6015  1.7439  0.0179
  291MOL0     C39160   9.696  10.272   7.848 -0.9978  0.6431  0.0615
  291MOL0     C39161   9.547  10.305   7.856 -0.7248 -0.8581  0.0544
  291MOL0     C39162   9.506  10.421   7.755 -0.9303 -1.0593 -0.1344
  291MOL0     C39163   9.359  10.459   7.783 -0.4921  1.2066 -0.1335
  291MOL0     C39164   9.297  10.546   7.679 -0.4928  0.5831 -0.6279
  291MOL0     C39165   9.164  10.599   7.724  0.9134 -0.4479 -0.2679
  291MOL0     C39166   9.094  10.690   7.622 -0.3108  0.2078  0.2646
  291MOL0     N39167   8.953  10.728   7.666 -0.3933 -0.0725 -0.8542
  291MOL0     C39168   8.843  10.649   7.680  1.2160  0.1803 -0.5315
  291MOL0     C39169   8.756  10.717   7.750 -0.3838  0.2197 -0.2585
  291MOL0     C39170   8.630  10.663   7.815  0.0506  0.4369 -0.5890
  291MOL0     C39171   8.513  10.758   7.786  0.0622 -0.4208  0.0979
  291MOL0     C39172   8.404  10.702   7.688  0.3824 -0.3659 -0.1607
  291MOL0     C39173   8.306  10.810   7.659 -0.2023  0.8418 -0.0206
  291MOL0     O39174   8.202  10.769   7.562  0.4960  0.5442  0.1927
  291MOL0     C39175   8.083  10.707   7.600  0.2980  0.1842 -0.8231
  291MOL0     C39176   8.044  10.682   7.735 -0.9312  0.4289  0.8176
  291MOL0     C39177   7.913  10.632   7.754 -0.0722 -0.9092  0.2859
  291MOL0     C39178   7.875  10.615   7.900 -0.3447 -0.1263  0.3842
  291MOL0     C39179   7.821  10.614   7.647 -0.8409 -0.1381  0.0930
  291MOL0     C39180   7.682  10.555   7.660  0.0296 -0.2483  0.3119
  291MOL0     O39181   7.610  10.556   7.543  0.9538  0.4918  0.7174
  291MOL0     C39182   7.482  10.519   7.546 -0.1496  0.3867  0.3832
  291MOL0     C39183   7.446  10.408   7.471  0.0628  0.7994 -0.0100
  291MOL0     C39184   7.305  10.375   7.467 -0.4233  0.6050 -0.9960
  291MOL0     C39185   7.208  10.450   7.533 -0.0210 -0.5508  0.2407
  291MOL0     O39186   7.075  10.436   7.508 -0.5981  0.6747 -0.4553
  291MOL0     C39187   7.040  10.415   7.372 -0.1529 -0.8251  0.2887
  291MOL0     C39188   6.883  10.422   7.353 -0.5645  0.2676  0.3939
  291MOL0     C39189   6.835  10.564   7.397  0.5114  0.0564  0.0999
  291MOL0     C39190   6.685  10.586   7.378  0.7965 -0.0510  0.1512
  291MOL0     C39191   6.650  10.727   7.413  0.2958  0.6804  0.5599
  291MOL0     C39192   6.519  10.765   7.353 -0.0809 -0.9607  0.2955
  291MOL0     C39193   6.401  10.673   7.403 -0.3108  0.2577  0.3217
  291MOL0     C39194   6.273  10.714   7.333 -0.3168 -0.3455  0.5510
  291MOL0    Cl39195   6.141  10.604   7.379 -0.6977 -0.1006 -0.1887
  291MOL0     C39196   7.252  10.563   7.594  0.4561  0.3196 -0.0097
  291MOL0     C39197   7.385  10.604   7.599  0.0238 -0.2216  0.8083
  291MOL0     O39198   7.645  10.514   7.766  0.4087  0.4685  0.2107
  291MOL0     C39199   7.860  10.651   7.514  0.2255  0.1853 -0.9279
  291MOL0     C39200   7.994  10.692   7.503  0.5332  0.2525  0.1095
  291MOL0     N39201   8.809  10.842   7.762  0.2281  0.1053  0.5410
  291MOL0     N39202   8.923  10.848   7.717 -0.4738  0.4033 -0.0650
  291MOL0     C39203   9.904   9.926   8.029  0.0353  0.3580 -1.4005
  291MOL0     C39204   9.984   9.829   8.087 -1.0735  0.0113  0.0139
  291MOL0     C39205  10.325   9.631   8.339  0.2711  1.0396  0.8846
  291MOL0     C39206  10.292   9.510   8.279 -0.3478  0.1390 -0.6041
  291MOL0     C39207  10.361   9.396   8.326  0.0949 -0.5221  0.3640
  291MOL0     C39208  10.459   9.413   8.420 -0.6808  0.7273  0.2063
  291MOL0     O39209  10.546   9.303   8.451  0.1176 -0.0500 -0.5080
  291MOL0     C39210  10.668   9.332   8.532  0.3106  0.4677 -0.2086
  291MOL0     C39211  10.776   9.391   8.447  0.1667  0.6171  0.5839
  291MOL0     C39212  10.811   9.292   8.336  0.6936 -0.2667 -0.0405
  291MOL0     C39213  10.953   9.308   8.296  0.0590  0.5703  0.5269
  291MOL0     C39214  11.048   9.258   8.396 -0.2933  1.2144  0.1376
  291MOL0     C39215  11.138   9.231   8.472 -0.6192  0.2270 -1.1582
  291MOL0     C39216  10.475   9.538   8.478 -0.2371  0.4049 -0.2628
  291MOL0     C39217  10.418   9.653   8.439 -0.2065  0.7310 -0.2127
  291MOL0     H39218  10.264  10.007   8.130  0.0741  0.4619 -0.3704
  291MOL0     H39219  10.121  10.179   8.027 -2.1610  0.1247 -0.7187
  291MOL0     H39220   9.705  10.075   7.875 -0.0032  1.8404 -0.6065
  291MOL0     H39221   9.693  10.170   8.023 -0.2620 -0.2822  0.3933
  291MOL0     H39222   9.747  10.365   7.874 -2.9706  1.5449  0.9476
  291MOL0     H39223   9.718  10.247   7.743  3.0743  0.1619  0.8635
  291MOL0     H39224   9.480  10.221   7.831 -2.8475  0.5033  0.8798
  291MOL0     H39225   9.510  10.342   7.952  2.1869  1.8092  0.2920
  291MOL0     H39226   9.580  10.501   7.769 -0.5495 -1.5292  0.5964
  291MOL0     H39227   9.514  10.383   7.653 -2.4209  1.6250 -1.3914
  291MOL0     H39228   9.291  10.374   7.789  1.4395 -0.2928  2.7650
  291MOL0     H39229   9.351  10.502   7.883 -0.0828  2.0400 -0.4412
  291MOL0     H39230   9.357  10.634   7.656  0.0615  0.2661 -0.4201
  291MOL0     H39231   9.284  10.483   7.591 -3.9454  1.6477 -1.0151
  291MOL0     H39232   9.109  10.506   7.745  5.2205 -2.3367  5.1602
  291MOL0     H39233   9.175  10.654   7.818 -3.2652 -1.6327  1.1705
  291MOL0     H39234   9.098  10.646   7.522 -0.3228 -1.5878  1.0236
  291MOL0     H39235   9.159  10.778   7.610 -0.3709  0.1440 -0.6381
  291MOL0     H39236   8.829  10.545   7.655  2.3795 -0.8353  2.6182
  291MOL0     H39237   8.601  10.560   7.792  2.2081 -0.7926  1.6492
  291MOL0     H39238   8.642  10.676   7.923  1.8210 -0.4700 -0.6274
  291MOL0     H39239   8.543  10.858   7.755 -0.7215 -0.4029 -0.6477
  291MOL0     H39240   8.465  10.760   7.884  2.3662  0.0887  1.2871
  291MOL0     H39241   8.350  10.618   7.733  0.2485 -0.9197 -1.3096
  291MOL0     H39242   8.443  10.669   7.591 -0.4218 -1.7586 -0.0403
  291MOL0     H39243   8.356  10.896   7.613  3.0067 -0.9399 -0.1309
  291MOL0     H39244   8.259  10.851   7.749  4.3269  4.3933  1.0785
  291MOL0     H39245   8.118  10.692   7.814 -0.0472 -1.1825  0.2224
  291MOL0     H39246   7.927  10.693   7.957 -0.4433  0.5533 -0.4455
  291MOL0     H39247   7.770  10.634   7.921 -0.6252  0.5405 -1.4299
  291MOL0     H39248   7.897  10.512   7.929  2.0490  0.3612  0.5665
  291MOL0     H39249   7.520  10.342   7.427  2.3901  3.0871  0.2506
  291MOL0     H39250   7.287  10.290   7.402 -3.8188  0.4055  0.0150
  291MOL0     H39251   7.097  10.477   7.303 -0.1566 -2.0226 -0.8124
  291MOL0     H39252   7.070  10.313   7.347  2.6035  0.4098 -1.9554
  291MOL0     H39253   6.853  10.422   7.248 -0.9299  1.8441  0.4769
  291MOL0     H39254   6.838  10.349   7.420  2.0987  0.7576  2.9389
  291MOL0     H39255   6.877  10.637   7.326  1.0145  1.3915  1.7195
  291MOL0     H39256   6.862  10.581   7.501  3.0983 -0.5675 -0.3905
  291MOL0     H39257   6.652  10.563   7.276 -1.3334 -3.5922  1.4303
  291MOL0     H39258   6.635  10.512   7.442  1.1498 -1.0765 -0.7351
  291MOL0     H39259   6.735  10.787   7.380 -0.1684  1.3296  0.5155
  291MOL0     H39260   6.647  10.731   7.522 -0.8758 -2.7470  0.7880
  291MOL0     H39261   6.504  10.871   7.377 -2.7014 -1.1753 -0.1140
  291MOL0     H39262   6.526  10.761   7.244  0.4775  0.3461  0.2669
  291MOL0     H39263   6.385  10.673   7.511  0.2617 -0.0555  0.4062
  291MOL0     H39264   6.413  10.569   7.372  0.9070  0.2943  0.6442
  291MOL0     H39265   6.278  10.710   7.223  0.7290  2.4886  0.4293
  291MOL0     H39266   6.251  10.819   7.352  1.1453  0.4445 -1.6556
  291MOL0     H39267   7.183  10.636   7.635 -0.0522 -0.8779  1.3384
  291MOL0     H39268   7.422  10.700   7.633 -0.7217  0.6183 -0.6450
  291MOL0     H39269   7.795  10.638   7.428  0.4349 -0.4265 -0.9979
  291MOL0     H39270   8.040  10.717   7.408  1.8593 -0.7254  0.4602
  291MOL0     H39271   9.797   9.913   8.013 -0.4534 -0.0344  1.5774
  291MOL0     H39272   9.948   9.727   8.094  0.8094 -0.6968  0.0666
  291MOL0     H39273  10.208   9.501   8.211 -2.8030  1.7758  1.9848
  291MOL0     H39274  10.359   9.303   8.270  0.2722 -0.0223 -0.4897
  291MOL0     H39275  10.657   9.392   8.622  2.6978 -0.1151  0.5429
  291MOL0     H39276  10.707   9.238   8.572  0.3132  1.6932  2.8767
  291MOL0     H39277  10.860   9.414   8.514 -0.3172  0.6061  1.2087
  291MOL0     H39278  10.733   9.483   8.406 -1.9782 -0.5767  0.0410
  291MOL0     H39279  10.744   9.317   8.254  1.9251 -0.5194 -1.1583
  291MOL0     H39280  10.791   9.186   8.351 -0.2245 -0.4549 -2.2468
  291MOL0     H39281  10.982   9.410   8.269 -0.4525  0.3310 -1.0172
  291MOL0     H39282  10.977   9.254   8.204  0.7173 -0.8613  1.4988
  291MOL0     H39283  11.201   9.205   8.555 -1.0582 -0.5276 -1.0550
  291MOL0     H39284  10.549   9.557   8.555  0.2482  2.7026 -1.2118
  291MOL0     H39285  10.451   9.743   8.488  0.7812 -0.8946  2.3159
  292MOL0     O39286  10.856   9.577   2.688  0.3103  0.6775  0.0990
  292MOL0     C39287  10.913   9.684   2.701 -0.2957 -0.5837  0.4121
  292MOL0     O39288  10.864   9.802   2.728 -0.1028 -0.7142  0.5492
  292MOL0     C39289  10.736   9.823   2.763  0.8661  0.6041 -0.3282
  292MOL0     C39290  10.640   9.735   2.802  1.2416  0.0568  0.0655
  292MOL0     C39291  10.504   9.775   2.827  0.2947 -0.0317 -0.0726
  292MOL0     C39292  10.473   9.905   2.832  0.5499  0.2527  0.4640
  292MOL0     O39293  10.346   9.933   2.875 -1.1404 -0.2859 -0.0918
  292MOL0     C39294  10.316  10.068   2.889 -0.0152 -1.1053 -0.8777
  292MOL0     C39295  10.168  10.082   2.937  0.0730 -0.6093 -0.4849
  292MOL0     C39296  10.151  10.043   3.080  0.6403  0.2508  0.2914
  292MOL0     C39297  10.010  10.067   3.140 -0.4414 -0.7988 -0.1160
  292MOL0     C39298   9.902   9.967   3.089 -0.3612 -0.8567 -0.4256
  292MOL0     C39299   9.768   9.981   3.160 -0.9032 -0.5045  0.3495
  292MOL0     C39300   9.767   9.988   3.317  0.2912  0.0103 -0.4217
  292MOL0     C39301   9.623   9.971   3.364  0.1257  0.6691 -0.0976
  292MOL0     N39302   9.524  10.058   3.289  0.0393  0.7623 -0.5739
  292MOL0     C39303   9.444  10.009   3.184  0.9561  0.3230  0.6660
  292MOL0     C39304   9.356  10.113   3.157  0.0043 -0.6022  0.6383
  292MOL0     C39305   9.255  10.131   3.048  0.2730 -0.8627  0.3969
  292MOL0     C39306   9.125  10.062   3.092 -0.7372  0.0750  0.4028
  292MOL0     C39307   9.138   9.908   3.064 -0.0853  0.9840  0.3080
  292MOL0     C39308   9.023   9.816   3.107  0.1096  0.0743 -0.1866
  292MOL0     O39309   8.905   9.877   3.056 -0.1025  0.3810 -0.5396
  292MOL0     C39310   8.798   9.904   3.142  0.0189 -0.3665  0.2293
  292MOL0     C39311   8.764   9.822   3.250 -1.1190  0.9321  0.0753
  292MOL0     C39312   8.655   9.848   3.322  0.5267  0.1239 -0.8072
  292MOL0     C39313   8.641   9.748   3.443 -0.7227 -0.9172  1.0394
  292MOL0     C39314   8.564   9.948   3.297 -0.8902  0.2526  0.0065
  292MOL0     C39315   8.445   9.985   3.378 -0.2053  0.1977 -0.0315
  292MOL0     O39316   8.423  10.118   3.393  0.0949 -0.3375  0.0345
  292MOL0     C39317   8.312  10.141   3.478  0.7595  0.0937  0.4568
  292MOL0     C39318   8.192  10.192   3.422  0.6265 -0.4995  0.4393
  292MOL0     C39319   8.077  10.220   3.506 -0.2728 -0.5864  1.5970
  292MOL0     C39320   8.082  10.206   3.643 -0.1524  0.2812 -0.3641
  292MOL0     O39321   7.964  10.233   3.711 -0.3179 -0.2069  0.1435
  292MOL0     C39322   7.971  10.224   3.858 -0.8126 -0.5069 -0.5092
  292MOL0     C39323   7.833  10.222   3.918  0.3498 -0.5388  0.3073
  292MOL0     C39324   7.804  10.086   3.976 -0.6834 -0.7832 -0.0512
  292MOL0     C39325   7.667  10.055   4.042 -0.2416 -1.0070  0.2914
  292MOL0     C39326   7.563  10.049   3.927 -0.2040  0.7135  0.0551
  292MOL0     C39327   7.432   9.973   3.970  0.1021  0.3034  0.1688
  292MOL0     C39328   7.319   9.969   3.865  0.1505 -0.0309 -0.1127
  292MOL0     C39329   7.198   9.883   3.909  0.5691  0.3364  0.6862
  292MOL0    Cl39330   7.064   9.897   3.777 -0.0253 -0.0378  0.1508
  292MOL0     C39331   8.208  10.164   3.698  0.1596  0.6651 -0.0332
  292MOL0     C39332   8.322  10.140   3.614  0.0188 -0.1101  0.3223
  292MOL0     O39333   8.371   9.893   3.426  0.4598 -0.3686 -0.2661
  292MOL0     C39334   8.605  10.032   3.193  0.3166  0.4797 -0.0385
  292MOL0     C39335   8.717  10.009   3.118  0.1535 -0.0103 -0.7390
  292MOL0     N39336   9.376  10.207   3.254 -0.0339  1.0654  0.4780
  292MOL0     N39337   9.471  10.174   3.338  0.2729  0.1533  0.2697
  292MOL0     C39338  10.573   9.996   2.810 -0.6358 -0.6415 -0.7623
  292MOL0     C39339  10.707   9.954   2.782 -0.3499  0.8939 -0.1450
  292MOL0     C39340  11.066   9.687   2.676  0.6382  0.9864 -0.0217
  292MOL0     C39341  11.148   9.803   2.691 -0.6110 -0.3639  0.9962
  292MOL0     C39342  11.283   9.797   2.692 -0.4010  0.1227  0.1584
  292MOL0     C39343  11.353   9.680   2.670  0.7875 -0.4335 -0.3196
  292MOL0     O39344  11.485   9.691   2.664 -0.6321  0.3649  0.8209
  292MOL0     C39345  11.570   9.571   2.641 -0.1506 -1.5986 -0.2507
  292MOL0     C39346  11.710   9.625   2.660  0.3002  0.4160 -0.2329
  292MOL0     C39347  11.807   9.505   2.672  0.2026 -0.0641  0.0727
  292MOL0     C39348  11.956   9.549   2.653 -0.1724  0.8518  0.2215
  292MOL0     C39349  12.042   9.431   2.658 -0.3565  0.1889 -0.3016
  292MOL0     C39350  12.114   9.334   2.676 -0.0254 -0.1444  0.7368
  292MOL0     C39351  11.277   9.563   2.642  0.1583  0.4071  0.9027
  292MOL0     C39352  11.136   9.566   2.650 -0.1097 -0.4792  0.9246
  292MOL0     H39353  10.651   9.627   2.798  0.8528  0.0110  0.1543
  292MOL0     H39354  10.430   9.704   2.863 -1.0521  1.9493  1.2751
  292MOL0     H39355  10.390  10.118   2.953  0.2184 -1.8904 -0.5239
  292MOL0     H39356  10.316  10.116   2.791 -0.1079  0.8121  0.0135
  292MOL0     H39357  10.124  10.181   2.919 -0.3987 -1.0015 -1.5388
  292MOL0     H39358  10.110  10.003   2.889 -0.5913 -1.2050  1.2342
  292MOL0     H39359  10.167   9.936   3.094 -4.0505 -0.7114  0.0709
  292MOL0     H39360  10.220  10.093   3.149 -0.6934  0.8714  1.2288
  292MOL0     H39361  10.012  10.063   3.249 -3.3423  0.1910  0.0704
  292MOL0     H39362   9.989  10.173   3.120 -2.1725 -0.7576  1.6065
  292MOL0     H39363   9.879   9.967   2.982 -2.9251  0.7270  0.0489
  292MOL0     H39364   9.939   9.867   3.116 -0.8841 -1.1327 -0.7020
  292MOL0     H39365   9.736  10.075   3.114  1.0643  0.1497  0.2557
  292MOL0     H39366   9.708   9.892   3.137  1.8131 -2.1111 -1.0651
  292MOL0     H39367   9.823   9.904   3.359 -0.9627 -2.1905 -2.8826
  292MOL0     H39368   9.798  10.088   3.350 -3.8422  1.2335  0.2454
  292MOL0     H39369   9.635  10.004   3.468 -1.3572  1.1987 -0.0654
  292MOL0     H39370   9.603   9.864   3.365 -0.2498  0.7350 -0.2131
  292MOL0     H39371   9.447   9.914   3.132  0.5748  0.3063  0.6743
  292MOL0     H39372   9.235  10.235   3.022 -1.6094 -1.5737 -1.3117
  292MOL0     H39373   9.297  10.095   2.954  0.6139  1.7103 -0.4974
  292MOL0     H39374   9.045  10.102   3.028 -2.7769 -2.1892  1.3962
  292MOL0     H39375   9.099  10.100   3.191 -1.5698  0.1617  0.1630
  292MOL0     H39376   9.235   9.872   3.101  0.1309  1.6688  0.4100
  292MOL0     H39377   9.142   9.900   2.955 -2.7204 -0.8436  0.2508
  292MOL0     H39378   9.026   9.803   3.215 -1.8622  0.3718 -0.0656
  292MOL0     H39379   9.033   9.719   3.057  1.7508  0.7038 -1.1896
  292MOL0     H39380   8.820   9.730   3.266  0.0393  1.3638 -1.2561
  292MOL0     H39381   8.579   9.670   3.397 -1.1255  0.1126 -0.2440
  292MOL0     H39382   8.739   9.708   3.470 -0.8130 -0.0988  2.7040
  292MOL0     H39383   8.594   9.803   3.525 -0.8089 -0.3529  0.6168
  292MOL0     H39384   8.182  10.215   3.317 -3.2910  3.9846  1.4384
  292MOL0     H39385   7.990  10.270   3.465  0.1106 -0.4107  0.9827
  292MOL0     H39386   8.034  10.145   3.898  0.4517  0.4374 -0.5895
  292MOL0     H39387   8.022  10.315   3.890  0.5172 -1.0967 -0.9001
  292MOL0     H39388   7.816  10.295   3.998  0.5480 -1.4697  1.2133
  292MOL0     H39389   7.757  10.243   3.842  0.3639 -1.0262  0.1544
  292MOL0     H39390   7.885  10.054   4.043 -1.1082  0.0386  0.8749
  292MOL0     H39391   7.830  10.010   3.902  1.4632  0.2150 -0.4088
  292MOL0     H39392   7.678   9.956   4.088 -1.6829 -0.9551  0.8007
  292MOL0     H39393   7.636  10.136   4.108  0.8176 -0.3831  0.0374
  292MOL0     H39394   7.606   9.998   3.840  1.6332  0.6641  0.9445
  292MOL0     H39395   7.533  10.147   3.888  1.5214  1.0289 -0.5550
  292MOL0     H39396   7.454   9.867   3.984  0.5539  0.4871  0.9132
  292MOL0     H39397   7.401  10.018   4.065  3.3138  1.3197  0.8515
  292MOL0     H39398   7.357   9.942   3.767  2.1512 -0.1568  0.6462
  292MOL0     H39399   7.276  10.069   3.856  0.6721  0.3538  1.2583
  292MOL0     H39400   7.160   9.920   4.004 -1.3377  2.5578 -0.8412
  292MOL0     H39401   7.226   9.777   3.918 -3.3006 -0.7742  1.3052
  292MOL0     H39402   8.214  10.182   3.804 -0.5449  4.2126 -0.4761
  292MOL0     H39403   8.421  10.118   3.653 -0.0845 -1.6406 -0.1896
  292MOL0     H39404   8.555  10.126   3.173  3.7413  2.2019 -1.2860
  292MOL0     H39405   8.746  10.075   3.036  2.2580  0.0478 -0.0052
  292MOL0     H39406  10.552  10.102   2.812  0.0862 -0.4906  1.2331
  292MOL0     H39407  10.777  10.037   2.770 -1.2093  1.3065 -3.0832
  292MOL0     H39408  11.106   9.903   2.705  1.9408  0.7421  1.3032
  292MOL0     H39409  11.348   9.884   2.701 -0.0377  0.0633 -1.5439
  292MOL0     H39410  11.551   9.501   2.723 -1.4835 -2.5259 -1.3171
  292MOL0     H39411  11.555   9.517   2.547  0.8919 -1.4023 -0.5396
  292MOL0     H39412  11.714   9.695   2.744  0.1076 -0.9215  0.9355
  292MOL0     H39413  11.732   9.679   2.568 -1.6265 -2.0430 -2.2576
  292MOL0     H39414  11.785   9.436   2.590  0.6187  0.2078 -0.2712
  292MOL0     H39415  11.786   9.459   2.769 -1.5931  1.5211  0.5099
  292MOL0     H39416  11.986   9.626   2.723 -0.8851 -0.4771  2.0687
  292MOL0     H39417  11.967   9.588   2.551 -2.0328 -1.7870 -1.1455
  292MOL0     H39418  12.177   9.250   2.700 -0.2393 -0.6747 -0.4444
  292MOL0     H39419  11.332   9.471   2.630 -0.2126  0.2244  0.5969
  292MOL0     H39420  11.086   9.471   2.636 -1.4381  0.6191 -2.9149
  293MOL0     O39421   6.317  10.867   2.649 -0.2736 -0.4462 -0.2579
  293MOL0     C39422   6.275  10.779   2.732  0.1332 -0.4174 -0.1493
  293MOL0     O39423   6.142  10.746   2.755 -0.4364 -0.2178  0.3482
  293MOL0     C39424   6.038  10.810   2.697  0.5085 -0.2398  0.6102
  293MOL0     C39425   6.022  10.950   2.683  0.1498 -0.1849 -0.1957
  293MOL0     C39426   5.906  10.994   2.608  0.3853  0.6571  0.2163
  293MOL0     C39427   5.818  10.904   2.545 -0.3686 -0.0005  0.0774
  293MOL0     O39428   5.709  10.949   2.472  0.7076 -0.2222 -0.1904
  293MOL0     C39429   5.656  11.079   2.502  0.4323  0.7888  0.1186
  293MOL0     C39430   5.502  11.094   2.468 -0.5029  0.3873  0.2564
  293MOL0     C39431   5.423  10.975   2.540  1.2735  1.4706  0.7289
  293MOL0     C39432   5.403  10.982   2.690  0.1967  0.8477  0.3250
  293MOL0     C39433   5.306  10.885   2.754  0.0733 -0.1218  0.1925
  293MOL0     C39434   5.359  10.860   2.902 -0.5600 -0.4780 -0.5334
  293MOL0     C39435   5.261  10.773   2.982  0.4940 -0.0743 -0.7391
  293MOL0     C39436   5.283  10.765   3.125 -1.0780  0.1817  0.4833
  293MOL0     N39437   5.227  10.878   3.208 -0.0618  0.2128  0.0227
  293MOL0     C39438   5.131  10.856   3.299  0.3775 -0.4752 -0.0142
  293MOL0     C39439   5.092  10.980   3.336 -0.5024  0.6748 -0.7537
  293MOL0     C39440   5.014  11.002   3.466 -0.1036  0.3988  0.2717
  293MOL0     C39441   4.870  10.952   3.457  0.6570 -0.7575  0.3992
  293MOL0     C39442   4.790  11.030   3.351 -0.1587 -0.4101 -0.0059
  293MOL0     C39443   4.663  10.949   3.310  0.2752  0.5994  0.7329
  293MOL0     O39444   4.689  10.824   3.245  0.0543 -0.5439 -0.2242
  293MOL0     C39445   4.701  10.831   3.111 -0.1839  0.4561  0.2795
  293MOL0     C39446   4.802  10.758   3.054 -0.4860 -0.2229  0.1625
  293MOL0     C39447   4.806  10.753   2.910 -0.0668 -0.2304 -0.7166
  293MOL0     C39448   4.917  10.687   2.844  0.6449  0.5157 -0.2613
  293MOL0     C39449   4.704  10.812   2.827 -0.2124 -0.3944  0.3318
  293MOL0     C39450   4.687  10.791   2.681  0.6844 -0.1541 -0.9712
  293MOL0     O39451   4.562  10.794   2.630 -0.6213 -0.3158  0.3430
  293MOL0     C39452   4.560  10.819   2.493 -0.0997  0.4140 -0.9066
  293MOL0     C39453   4.603  10.711   2.401  0.0905 -0.5210  0.0685
  293MOL0     C39454   4.587  10.730   2.266 -0.7114  0.5103 -0.1142
  293MOL0     C39455   4.527  10.840   2.213  0.3321 -0.1975 -0.4081
  293MOL0     O39456   4.515  10.858   2.083  0.2632  0.2600  0.0404
  293MOL0     C39457   4.466  10.750   2.008  0.3652  0.5426 -0.4063
  293MOL0     C39458   4.564  10.687   1.923 -0.6033  0.5709 -0.0939
  293MOL0     C39459   4.535  10.638   1.786  0.0683 -0.1443  0.3348
  293MOL0     C39460   4.443  10.521   1.797 -0.9173  0.2976 -0.4451
  293MOL0     C39461   4.408  10.457   1.659 -0.2753 -0.1806 -1.0095
  293MOL0     C39462   4.321  10.561   1.578  0.4205  0.2822 -0.1324
  293MOL0     C39463   4.271  10.504   1.458  0.1347 -0.0582  0.5387
  293MOL0     C39464   4.158  10.587   1.398  0.2284  0.1398 -1.3658
  293MOL0    Cl39465   4.217  10.732   1.324  0.3571  0.1294  0.1616
  293MOL0     C39466   4.497  10.947   2.301 -0.4917 -0.1238  0.9515
  293MOL0     C39467   4.511  10.935   2.438 -0.4129 -1.1521 -0.6777
  293MOL0     O39468   4.791  10.784   2.615  0.0845 -0.6104 -0.4202
  293MOL0     C39469   4.600  10.877   2.896 -0.3139  0.7834 -0.1380
  293MOL0     C39470   4.595  10.884   3.035  0.0622  0.4386 -0.0896
  293MOL0     N39471   5.151  11.073   3.249  0.0408 -0.0617  0.5512
  293MOL0     N39472   5.235  11.014   3.183 -0.0955  0.9876  0.4848
  293MOL0     C39473   5.837  10.772   2.563 -0.7091 -0.4984  0.4654
  293MOL0     C39474   5.942  10.725   2.642 -0.1908  0.6966  0.5769
  293MOL0     C39475   6.376  10.696   2.803 -0.6716  0.6591  0.6712
  293MOL0     C39476   6.332  10.583   2.863 -0.0843  0.3178 -0.1278
  293MOL0     C39477   6.419  10.495   2.917 -0.2921  0.0863  0.2938
  293MOL0     C39478   6.560  10.520   2.909 -0.6342  1.1305 -0.2298
  293MOL0     O39479   6.657  10.430   2.952 -0.2292 -0.0338 -0.2842
  293MOL0     C39480   6.617  10.312   3.033 -0.7171  0.6891  0.3725
  293MOL0     C39481   6.745  10.249   3.079 -0.7352  0.3349  0.0273
  293MOL0     C39482   6.839  10.203   2.966  0.4336 -0.6188 -0.2688
  293MOL0     C39483   6.968  10.283   2.960  0.4780 -1.1481 -0.3708
  293MOL0     C39484   6.944  10.427   2.933  0.2090  0.4991 -0.6737
  293MOL0     C39485   6.945  10.544   2.908  0.9918  0.0838  0.1625
  293MOL0     C39486   6.606  10.643   2.857 -0.4583 -1.1438  0.7596
  293MOL0     C39487   6.512  10.735   2.798  0.0226  0.3873 -0.3726
  293MOL0     H39488   6.085  11.029   2.721 -2.2691  3.3455 -2.9387
  293MOL0     H39489   5.889  11.101   2.607 -1.4564  0.3962  0.7934
  293MOL0     H39490   5.673  11.096   2.608 -1.1087  1.1021  0.3312
  293MOL0     H39491   5.714  11.149   2.440 -0.3908  0.7204 -0.7452
  293MOL0     H39492   5.461  11.191   2.497  0.3513  0.7014  0.4274
  293MOL0     H39493   5.477  11.080   2.362  1.5336  0.6189 -0.2877
  293MOL0     H39494   5.324  10.995   2.498  0.8397  1.1187  1.5607
  293MOL0     H39495   5.449  10.871   2.520 -2.2984  0.0153  2.7699
  293MOL0     H39496   5.501  10.969   2.736  1.8634 -0.0451 -3.1961
  293MOL0     H39497   5.375  11.081   2.728  3.1388  2.9093 -2.4441
  293MOL0     H39498   5.211  10.941   2.750  0.9623  1.3931 -0.7438
  293MOL0     H39499   5.295  10.792   2.697  0.7984  0.2927 -0.6585
  293MOL0     H39500   5.458  10.813   2.896  1.0347  2.3546  1.3328
  293MOL0     H39501   5.379  10.959   2.943  1.4025 -1.0367 -0.0316
  293MOL0     H39502   5.159  10.800   2.955  0.4060  0.5719  0.2003
  293MOL0     H39503   5.277  10.672   2.941  0.0407 -0.8684  0.9772
  293MOL0     H39504   5.392  10.768   3.134 -0.9109  2.1858 -1.5473
  293MOL0     H39505   5.243  10.670   3.163 -1.1309 -0.7653 -1.7710
  293MOL0     H39506   5.096  10.765   3.347 -1.4971 -0.6425 -1.5864
  293MOL0     H39507   5.061  10.956   3.553 -0.3595 -2.3157 -0.9076
  293MOL0     H39508   5.016  11.109   3.484  2.0785  0.7043 -1.3867
  293MOL0     H39509   4.825  10.969   3.555  0.2658  2.1962 -0.1869
  293MOL0     H39510   4.871  10.845   3.436 -0.3961 -1.4492  3.4616
  293MOL0     H39511   4.853  11.047   3.263 -1.0103  2.3238 -0.1697
  293MOL0     H39512   4.742  11.121   3.386 -0.5538  0.1500 -1.8889
  293MOL0     H39513   4.601  11.018   3.251 -0.2102  1.6402  2.3803
  293MOL0     H39514   4.618  10.927   3.407 -0.3630  2.0914  0.8015
  293MOL0     H39515   4.871  10.710   3.123 -1.0981  1.7221  2.2683
  293MOL0     H39516   4.969  10.756   2.776  3.2059  0.5682  1.6142
  293MOL0     H39517   4.995  10.643   2.907 -0.0962 -0.4166  0.0174
  293MOL0     H39518   4.877  10.599   2.793  0.4640 -0.4011  1.4146
  293MOL0     H39519   4.633  10.612   2.434  1.6734  0.0256  0.3404
  293MOL0     H39520   4.621  10.642   2.214  1.6151 -0.8031  3.2733
  293MOL0     H39521   4.425  10.667   2.067 -0.8741  0.8125 -0.8549
  293MOL0     H39522   4.381  10.783   1.948  1.5373  0.4110 -2.2162
  293MOL0     H39523   4.641  10.764   1.907 -0.9442  0.4212 -3.0870
  293MOL0     H39524   4.604  10.602   1.980 -0.0884  1.2260  0.5492
  293MOL0     H39525   4.626  10.611   1.730 -0.9586 -1.1423 -0.9067
  293MOL0     H39526   4.491  10.717   1.725 -1.3544 -0.3355  1.0836
  293MOL0     H39527   4.490  10.443   1.857  0.7826  1.5494 -0.0601
  293MOL0     H39528   4.355  10.555   1.852 -0.3619  2.0815 -0.5902
  293MOL0     H39529   4.349  10.365   1.669  0.1469 -0.2197  2.0073
  293MOL0     H39530   4.500  10.436   1.603 -0.1743  1.3705 -1.4740
  293MOL0     H39531   4.243  10.606   1.641  1.6247 -0.4719  2.0079
  293MOL0     H39532   4.385  10.646   1.550 -0.5302  1.3663  0.8530
  293MOL0     H39533   4.242  10.400   1.474 -0.0493 -0.3759 -1.5190
  293MOL0     H39534   4.351  10.491   1.385  0.3785 -0.2914  0.8496
  293MOL0     H39535   4.084  10.614   1.475  0.6990 -0.9144 -0.5177
  293MOL0     H39536   4.101  10.529   1.324  0.2477 -0.8272 -0.6483
  293MOL0     H39537   4.459  11.036   2.250  2.6239  0.9898  0.3317
  293MOL0     H39538   4.488  11.015   2.508 -0.2238 -0.4991 -1.3480
  293MOL0     H39539   4.517  10.912   2.835 -1.2932 -2.0685 -0.6085
  293MOL0     H39540   4.506  10.933   3.074  0.4042  0.9389  0.0664
  293MOL0     H39541   5.758  10.710   2.522 -0.6629  0.5523 -1.3552
  293MOL0     H39542   5.937  10.618   2.659 -2.1390  0.6347 -0.1524
  293MOL0     H39543   6.226  10.560   2.863 -0.0243  0.0454  0.0784
  293MOL0     H39544   6.369  10.406   2.955 -1.2138  1.3044  2.1215
  293MOL0     H39545   6.562  10.331   3.126 -2.4202 -2.8452  0.2600
  293MOL0     H39546   6.563  10.237   2.976  3.0338 -3.2317  1.4051
  293MOL0     H39547   6.722  10.166   3.147 -0.3326 -1.1286 -1.5575
  293MOL0     H39548   6.802  10.318   3.143 -2.9293 -0.6750  3.3340
  293MOL0     H39549   6.788  10.211   2.869 -0.4223  1.0866  0.2800
  293MOL0     H39550   6.870  10.099   2.978  0.8397 -0.9282 -3.1668
  293MOL0     H39551   7.032  10.244   2.881 -0.3318 -0.1057 -1.5652
  293MOL0     H39552   7.029  10.279   3.051  0.6455  0.2218 -0.4058
  293MOL0     H39553   6.959  10.644   2.871  2.5155 -0.5837 -1.2128
  293MOL0     H39554   6.711  10.669   2.852 -1.4766  3.7683 -0.9162
  293MOL0     H39555   6.534  10.836   2.764  2.2831  0.4134  0.9063
  294MOL0     O39556   2.429   3.833   7.603  0.3108 -0.2015  0.4816
  294MOL0     C39557   2.465   3.759   7.690  0.3241 -0.0956  0.2770
  294MOL0     O39558   2.388   3.728   7.801 -0.7856  0.2192  0.5994
  294MOL0     C39559   2.283   3.814   7.822  0.5550 -0.0951 -0.5920
  294MOL0     C39560   2.160   3.747   7.799  0.0546 -0.4710  0.5934
  294MOL0     C39561   2.039   3.819   7.817  0.1798  0.4318  0.2367
  294MOL0     C39562   2.040   3.948   7.859  0.2045  0.2738  0.9220
  294MOL0     O39563   1.922   4.000   7.890 -0.2265  0.6807  0.6458
  294MOL0     C39564   1.912   4.101   7.984 -0.2531 -1.2248 -0.0363
  294MOL0     C39565   1.884   4.239   7.927  0.2597  0.5878  0.8077
  294MOL0     C39566   1.750   4.239   7.851 -0.1537  0.8877 -0.3006
  294MOL0     C39567   1.758   4.353   7.739  0.3596 -0.0331 -0.4157
  294MOL0     C39568   1.620   4.390   7.666 -0.9801  0.2254 -0.1501
  294MOL0     C39569   1.516   4.441   7.758 -0.3829  0.0211  0.6764
  294MOL0     C39570   1.393   4.463   7.668 -0.1817  0.8592 -0.0076
  294MOL0     C39571   1.389   4.585   7.577  1.0882 -1.0458  0.2689
  294MOL0     N39572   1.264   4.586   7.500 -0.5488  0.3858  0.1118
  294MOL0     C39573   1.161   4.675   7.508  0.2456 -0.6742 -0.2484
  294MOL0     C39574   1.077   4.628   7.407  0.1234 -1.0943 -0.1450
  294MOL0     C39575   0.943   4.690   7.374  0.2326  0.1960  0.2572
  294MOL0     C39576   0.972   4.811   7.276 -0.3405 -0.5903  0.5363
  294MOL0     C39577   0.853   4.813   7.174  0.1590  0.2497 -0.3142
  294MOL0     C39578   0.719   4.878   7.231 -0.2191 -0.3277  0.1604
  294MOL0     O39579   0.607   4.830   7.153 -0.1312  0.9227  0.6783
  294MOL0     C39580   0.493   4.905   7.144  0.2641  0.6861 -0.4898
  294MOL0     C39581   0.475   5.037   7.188 -1.2103  1.1656  0.0536
  294MOL0     C39582   0.356   5.098   7.170  1.5627 -0.6628 -0.0847
  294MOL0     C39583   0.347   5.228   7.251  0.3734 -0.0741 -0.8563
  294MOL0     C39584   0.242   5.028   7.113  0.0748 -0.5304  0.7845
  294MOL0     C39585   0.111   5.095   7.090 -0.2009  1.6628  0.4573
  294MOL0     O39586   0.123   5.226   7.054 -0.1733  0.5793 -0.1347
  294MOL0     C39587   0.000   5.287   7.040  0.2038  0.2131 -0.0000
  294MOL0     C39588  -0.085   5.306   7.154  0.0465 -0.7826 -0.4497
  294MOL0     C39589  -0.199   5.387   7.143  0.0438 -0.5349 -1.2435
  294MOL0     C39590  -0.239   5.434   7.020  0.7243  0.5575  0.4093
  294MOL0     O39591  -0.362   5.494   6.992 -0.1517  0.0189 -0.4588
  294MOL0     C39592  -0.457   5.407   6.931  0.3815  0.0762 -0.9637
  294MOL0     C39593  -0.598   5.478   6.921  0.1527 -0.2904  0.0902
  294MOL0     C39594  -0.576   5.592   6.812 -0.4288  0.3143 -0.4855
  294MOL0     C39595  -0.695   5.683   6.800 -0.2716  0.7215 -0.6186
  294MOL0     C39596  -0.647   5.783   6.697  0.3712 -0.3795 -0.0769
  294MOL0     C39597  -0.744   5.888   6.641  0.1008  0.2275  0.6748
  294MOL0     C39598  -0.872   5.827   6.583  0.5871 -0.6451  0.6706
  294MOL0     C39599  -0.946   5.921   6.494  0.7949  0.2919 -0.3740
  294MOL0    Cl39600  -0.976   6.082   6.567 -0.3716 -0.1735  0.4831
  294MOL0     C39601  -0.163   5.408   6.906 -1.7212  0.9981  0.3138
  294MOL0     C39602  -0.039   5.343   6.918 -0.3689 -0.2382 -0.5862
  294MOL0     O39603   0.001   5.032   7.091 -0.1850  0.1480  0.4008
  294MOL0     C39604   0.265   4.898   7.077  0.7874  0.9072 -0.2819
  294MOL0     C39605   0.386   4.834   7.090  0.6708  0.4423 -0.2653
  294MOL0     N39606   1.135   4.518   7.340  0.2704  0.6777 -0.1791
  294MOL0     N39607   1.246   4.489   7.399 -0.6325 -0.7957 -0.5744
  294MOL0     C39608   2.166   4.014   7.876 -0.2740  0.1324 -1.3524
  294MOL0     C39609   2.290   3.946   7.856  0.6296  0.6252  0.1386
  294MOL0     C39610   2.593   3.694   7.689  0.3864 -0.0094  0.4195
  294MOL0     C39611   2.631   3.596   7.779  0.6680  0.9135  0.0116
  294MOL0     C39612   2.754   3.525   7.761  0.9618  0.3904 -0.0784
  294MOL0     C39613   2.836   3.549   7.649 -0.4913  0.5138  0.5330
  294MOL0     O39614   2.953   3.474   7.637  0.1400  0.2099  0.8190
  294MOL0     C39615   3.067   3.513   7.563 -0.4891  0.3752  0.1926
  294MOL0     C39616   3.186   3.470   7.641  0.6488 -0.0854  0.8415
  294MOL0     C39617   3.324   3.478   7.559 -0.2702  0.5030  0.3473
  294MOL0     C39618   3.437   3.558   7.630 -0.1697 -0.0026 -0.7985
  294MOL0     C39619   3.574   3.528   7.574 -1.2053 -0.5954  0.8713
  294MOL0     C39620   3.684   3.485   7.531 -0.0817  0.4235 -1.3269
  294MOL0     C39621   2.804   3.645   7.559  0.6109  0.4650  0.2381
  294MOL0     C39622   2.683   3.716   7.579  0.4939 -0.2644 -0.2242
  294MOL0     H39623   2.151   3.647   7.756  0.0512  0.0904 -0.7647
  294MOL0     H39624   1.943   3.780   7.785  0.9603  1.1000 -3.4120
  294MOL0     H39625   1.819   4.088   8.040 -0.7602 -1.8013 -0.9977
  294MOL0     H39626   1.999   4.102   8.050  0.6600 -0.9925 -1.2087
  294MOL0     H39627   1.878   4.304   8.016 -2.4458 -1.6106  2.3840
  294MOL0     H39628   1.967   4.273   7.865  0.0327  2.3513  1.4008
  294MOL0     H39629   1.733   4.146   7.795  2.8511  0.1288 -0.1419
  294MOL0     H39630   1.672   4.249   7.927  1.9217 -1.0930  2.2953
  294MOL0     H39631   1.790   4.443   7.792 -1.1291 -0.3945  1.1737
  294MOL0     H39632   1.842   4.339   7.670  0.1180 -0.3591 -0.6473
  294MOL0     H39633   1.643   4.458   7.584  1.7763 -0.5772 -0.1384
  294MOL0     H39634   1.587   4.294   7.624 -0.2147  1.0394 -2.7574
  294MOL0     H39635   1.507   4.375   7.844  1.0077 -0.7159  0.2822
  294MOL0     H39636   1.552   4.537   7.797 -0.2022  0.4370 -0.4688
  294MOL0     H39637   1.399   4.371   7.609  3.3838 -1.6347  3.7495
  294MOL0     H39638   1.302   4.458   7.728  0.3793  0.1665  0.7982
  294MOL0     H39639   1.474   4.588   7.507  0.8244 -5.4057 -0.5314
  294MOL0     H39640   1.393   4.677   7.636 -0.2117  0.2141 -1.5110
  294MOL0     H39641   1.157   4.765   7.568  1.8499 -1.0419  0.4693
  294MOL0     H39642   0.877   4.618   7.323  0.2859  0.6301 -0.4313
  294MOL0     H39643   0.896   4.722   7.467  1.0906 -0.4613  0.9342
  294MOL0     H39644   1.066   4.793   7.223 -0.1506  3.6089 -0.8800
  294MOL0     H39645   0.976   4.909   7.323 -0.0207  2.1534 -4.5077
  294MOL0     H39646   0.830   4.716   7.129  1.3840  0.9351 -2.5639
  294MOL0     H39647   0.877   4.879   7.091 -0.2748 -0.4747 -1.0289
  294MOL0     H39648   0.742   4.985   7.227  3.3803 -0.9708  0.3203
  294MOL0     H39649   0.702   4.848   7.335  0.6013 -0.2839  0.3180
  294MOL0     H39650   0.555   5.103   7.220 -0.1567 -0.4832  0.9535
  294MOL0     H39651   0.427   5.258   7.319 -1.8561 -1.8713  2.8790
  294MOL0     H39652   0.311   5.311   7.188 -0.4262 -0.4985 -0.9753
  294MOL0     H39653   0.263   5.226   7.321  0.9043  0.1153 -0.2058
  294MOL0     H39654  -0.047   5.279   7.252  0.0544  0.6288 -0.0368
  294MOL0     H39655  -0.263   5.404   7.229 -1.1272 -2.0443 -1.7752
  294MOL0     H39656  -0.426   5.395   6.827 -2.4301  0.8654 -1.9873
  294MOL0     H39657  -0.471   5.310   6.979  1.8161 -1.4307 -3.3818
  294MOL0     H39658  -0.687   5.418   6.903 -1.4849  1.5322  1.6527
  294MOL0     H39659  -0.615   5.526   7.018 -0.6330 -1.3556  0.4957
  294MOL0     H39660  -0.556   5.541   6.718 -0.3596 -1.2931  0.3536
  294MOL0     H39661  -0.490   5.654   6.838 -0.9719  1.4398 -1.2938
  294MOL0     H39662  -0.791   5.641   6.770 -1.0414  1.6005  0.5262
  294MOL0     H39663  -0.723   5.725   6.897 -0.3675  0.9767 -0.7557
  294MOL0     H39664  -0.621   5.719   6.612  0.4873  0.5281 -0.7391
  294MOL0     H39665  -0.553   5.835   6.717  0.4299 -0.5239  0.0272
  294MOL0     H39666  -0.765   5.969   6.712 -0.7981  3.1252 -2.6122
  294MOL0     H39667  -0.700   5.940   6.556 -1.2078 -1.5915 -1.2182
  294MOL0     H39668  -0.937   5.783   6.659  1.3851 -0.4123  1.5084
  294MOL0     H39669  -0.834   5.753   6.511  0.3465  0.3015 -0.4629
  294MOL0     H39670  -1.038   5.874   6.459  0.6515 -1.3773  2.0167
  294MOL0     H39671  -0.882   5.954   6.411  0.7767  0.8440 -0.1670
  294MOL0     H39672  -0.205   5.431   6.808 -1.3772  2.7548  0.5379
  294MOL0     H39673   0.020   5.338   6.828 -1.2768  1.6680 -1.3467
  294MOL0     H39674   0.184   4.843   7.030  0.8672  0.7077 -0.1869
  294MOL0     H39675   0.387   4.729   7.062 -2.6927 -0.4537  2.3116
  294MOL0     H39676   2.177   4.122   7.882 -0.4213  0.1117 -0.7222
  294MOL0     H39677   2.377   4.010   7.868  0.1901  0.7440  3.4432
  294MOL0     H39678   2.553   3.572   7.851  0.2981 -0.3972 -0.7794
  294MOL0     H39679   2.773   3.443   7.830  0.3698  1.7518  1.7664
  294MOL0     H39680   3.063   3.453   7.472  0.3597  0.0398  0.3645
  294MOL0     H39681   3.072   3.621   7.545 -0.6464  0.3208 -0.1846
  294MOL0     H39682   3.180   3.367   7.679 -1.1206 -0.8657 -1.2616
  294MOL0     H39683   3.188   3.542   7.723 -0.4191 -0.8138  1.5347
  294MOL0     H39684   3.301   3.526   7.464 -2.0950  1.7145  1.3486
  294MOL0     H39685   3.352   3.372   7.554 -1.3070  0.2302  0.1168
  294MOL0     H39686   3.432   3.531   7.736  2.4396  1.1474 -0.3175
  294MOL0     H39687   3.415   3.664   7.618  3.1117  0.9427  0.4540
  294MOL0     H39688   3.781   3.443   7.515  0.2184  0.4872  0.1968
  294MOL0     H39689   2.865   3.649   7.469  0.5700  0.1395  0.1944
  294MOL0     H39690   2.642   3.777   7.499 -0.6022 -1.5575 -0.6881
  295MOL0     O39691   5.922   0.306   7.437 -0.2299 -0.4584 -0.2111
  295MOL0     C39692   5.949   0.352   7.544  0.8885 -0.0115 -0.1488
  295MOL0     O39693   5.868   0.422   7.630  0.3102 -0.0901 -0.2083
  295MOL0     C39694   5.731   0.436   7.611 -0.0385  0.3337 -1.0844
  295MOL0     C39695   5.650   0.458   7.726  0.9474 -0.2274  0.1540
  295MOL0     C39696   5.514   0.485   7.716  0.1886 -1.1886  0.3123
  295MOL0     C39697   5.447   0.482   7.590  0.5432  0.1916  0.3274
  295MOL0     O39698   5.312   0.476   7.599  0.8045 -0.1148  0.0613
  295MOL0     C39699   5.247   0.546   7.493  0.0329  0.7135  0.3614
  295MOL0     C39700   5.095   0.554   7.523 -0.3456  0.0677 -0.8109
  295MOL0     C39701   5.012   0.584   7.396  0.2147 -0.3880  0.6232
  295MOL0     C39702   5.060   0.710   7.317  1.1350 -0.4229 -0.2962
  295MOL0     C39703   4.958   0.740   7.206  0.0353 -0.1671 -0.3674
  295MOL0     C39704   4.939   0.626   7.102 -0.3752 -0.8409  0.1939
  295MOL0     C39705   5.069   0.585   7.032 -0.9993  0.1095  0.2933
  295MOL0     C39706   5.076   0.467   6.939  0.0486  0.1098  0.3589
  295MOL0     N39707   4.973   0.474   6.834 -0.5069 -1.0294  0.5307
  295MOL0     C39708   4.959   0.571   6.740 -0.3012  0.2235  0.2529
  295MOL0     C39709   4.846   0.532   6.681  0.4014 -0.1512 -0.3778
  295MOL0     C39710   4.765   0.599   6.581  0.1070  0.5526 -0.8337
  295MOL0     C39711   4.666   0.697   6.655  0.6254  1.0023  0.9099
  295MOL0     C39712   4.582   0.765   6.541  0.3390  0.1296 -0.4013
  295MOL0     C39713   4.494   0.869   6.601  1.0546 -0.9594 -0.2345
  295MOL0     O39714   4.433   0.930   6.489  0.0886 -0.8671 -0.7033
  295MOL0     C39715   4.292   0.956   6.505 -0.0732 -0.1632  0.2855
  295MOL0     C39716   4.213   0.971   6.391  0.1317  0.7929  0.1838
  295MOL0     C39717   4.080   1.012   6.392  0.1103 -0.5059  0.3257
  295MOL0     C39718   4.010   1.020   6.260  0.9362 -0.6994  0.8892
  295MOL0     C39719   4.011   1.039   6.512  0.4183 -0.0544 -0.9160
  295MOL0     C39720   3.870   1.076   6.530  1.0870  0.5234  0.0035
  295MOL0     O39721   3.843   1.135   6.652  0.4655  0.3141  0.0408
  295MOL0     C39722   3.715   1.156   6.694 -0.1442  0.3914  0.8727
  295MOL0     C39723   3.686   1.258   6.785  0.5745 -0.9427  1.0098
  295MOL0     C39724   3.558   1.276   6.843 -0.1973 -0.9934  0.2239
  295MOL0     C39725   3.458   1.189   6.813 -0.1542 -0.5045  1.3609
  295MOL0     O39726   3.336   1.173   6.858 -0.1222 -0.2364  0.2005
  295MOL0     C39727   3.236   1.270   6.819  0.1270 -0.4049 -0.1717
  295MOL0     C39728   3.163   1.313   6.941 -0.0739  0.3955  0.2818
  295MOL0     C39729   3.245   1.402   7.035  0.0166 -0.1323  0.5152
  295MOL0     C39730   3.179   1.437   7.172 -0.0517 -0.1817  0.1929
  295MOL0     C39731   3.286   1.469   7.267 -0.0441  1.1941 -0.3758
  295MOL0     C39732   3.365   1.599   7.269  0.0768  0.6417  0.0017
  295MOL0     C39733   3.275   1.719   7.284  0.3140 -0.2453 -0.3246
  295MOL0     C39734   3.347   1.841   7.323 -0.4893 -1.2087  0.4965
  295MOL0    Cl39735   3.225   1.969   7.323  0.0379 -0.4332 -0.1646
  295MOL0     C39736   3.489   1.081   6.731 -0.0682  1.0288  0.4092
  295MOL0     C39737   3.608   1.065   6.668 -0.3422  0.0877 -0.2490
  295MOL0     O39738   3.787   1.063   6.439  0.2558  0.3967  0.5658
  295MOL0     C39739   4.095   1.032   6.625  0.4406  0.5447  0.2410
  295MOL0     C39740   4.231   0.983   6.624 -0.1654 -0.0946 -0.4552
  295MOL0     N39741   4.807   0.411   6.740 -0.2115 -0.2064 -0.0562
  295MOL0     N39742   4.879   0.385   6.840  0.1487 -0.3198 -0.7235
  295MOL0     C39743   5.534   0.481   7.478  0.2571 -0.8304  0.7882
  295MOL0     C39744   5.672   0.465   7.488 -0.1337 -0.3334  0.1694
  295MOL0     C39745   6.091   0.320   7.589 -0.2250  0.4115 -0.0649
  295MOL0     C39746   6.185   0.287   7.492 -0.9774 -0.0404 -0.7616
  295MOL0     C39747   6.319   0.278   7.533 -0.9692  0.8011  0.7137
  295MOL0     C39748   6.357   0.286   7.669 -1.1669  0.0170  0.9678
  295MOL0     O39749   6.490   0.276   7.708  0.1725  0.2812 -0.5136
  295MOL0     C39750   6.598   0.280   7.610  0.8270 -0.5244  0.1665
  295MOL0     C39751   6.744   0.268   7.671  0.3665 -0.5236 -0.1752
  295MOL0     C39752   6.755   0.160   7.770 -0.2626 -0.0132 -0.3838
  295MOL0     C39753   6.896   0.124   7.812  0.9931 -0.1820  1.0756
  295MOL0     C39754   6.968   0.028   7.719  0.2642  0.1611  0.0814
  295MOL0     C39755   7.022  -0.067   7.670  0.2007  1.2360 -0.2962
  295MOL0     C39756   6.255   0.313   7.759  0.0075  0.1113  0.0753
  295MOL0     C39757   6.127   0.328   7.718  0.2801  0.1587  1.3964
  295MOL0     H39758   5.714   0.462   7.813  1.5735  1.7764 -0.3554
  295MOL0     H39759   5.469   0.496   7.814  1.7171 -2.3657  1.1828
  295MOL0     H39760   5.286   0.648   7.483  0.8359  0.6473  2.4193
  295MOL0     H39761   5.273   0.480   7.409 -0.4444 -1.1240  1.6090
  295MOL0     H39762   5.077   0.455   7.566  2.6609 -0.4831 -0.5791
  295MOL0     H39763   5.083   0.621   7.609  1.6660 -2.1017  1.3233
  295MOL0     H39764   5.027   0.507   7.319 -1.4132  1.7689 -2.0543
  295MOL0     H39765   4.905   0.587   7.417 -0.0039 -3.2126  0.3023
  295MOL0     H39766   5.056   0.795   7.386 -0.1768 -0.4567 -0.3095
  295MOL0     H39767   5.157   0.687   7.270  0.4306 -1.7209 -1.1591
  295MOL0     H39768   4.859   0.770   7.243 -0.1990  0.7986 -1.7258
  295MOL0     H39769   4.991   0.826   7.148 -0.6752 -0.0486 -0.6118
  295MOL0     H39770   4.893   0.536   7.144  1.0526 -3.4991 -3.3840
  295MOL0     H39771   4.868   0.666   7.029  0.8784  1.1377 -0.0352
  295MOL0     H39772   5.106   0.676   6.984 -0.8108  1.0200  2.0870
  295MOL0     H39773   5.134   0.557   7.115 -1.3741 -1.2188  0.1670
  295MOL0     H39774   5.076   0.374   6.996  1.2557  1.0569  1.9715
  295MOL0     H39775   5.171   0.476   6.887  1.2860 -1.3719  2.2175
  295MOL0     H39776   5.016   0.661   6.716  2.9303 -1.3970  1.2650
  295MOL0     H39777   4.810   0.650   6.494 -1.6967 -1.3494 -3.0172
  295MOL0     H39778   4.709   0.525   6.523  1.4061  1.5669 -3.6092
  295MOL0     H39779   4.731   0.764   6.713 -0.3827  2.7535  0.1179
  295MOL0     H39780   4.595   0.637   6.712  1.5074 -2.1453 -1.0494
  295MOL0     H39781   4.512   0.702   6.485  0.7756  2.2248 -3.5523
  295MOL0     H39782   4.648   0.816   6.471 -2.0031  2.5971 -0.9900
  295MOL0     H39783   4.560   0.936   6.657 -0.6605 -0.6855  1.5754
  295MOL0     H39784   4.421   0.826   6.671  1.5300 -0.1019  0.8373
  295MOL0     H39785   4.263   0.964   6.294 -1.1980 -0.0823 -0.4559
  295MOL0     H39786   3.929   0.947   6.262 -0.4261  0.7706  2.2298
  295MOL0     H39787   3.961   1.116   6.240 -1.7921 -2.0511  0.7035
  295MOL0     H39788   4.077   0.995   6.177  0.2755 -0.5463  0.2937
  295MOL0     H39789   3.761   1.334   6.808  0.4377  0.8371 -3.3819
  295MOL0     H39790   3.542   1.354   6.917  1.8523 -1.3129  1.0794
  295MOL0     H39791   3.287   1.360   6.785  2.4604 -1.5003  0.2194
  295MOL0     H39792   3.164   1.238   6.743 -1.3013  1.3380  0.3737
  295MOL0     H39793   3.077   1.367   6.901  1.3621  2.0635 -0.7061
  295MOL0     H39794   3.140   1.221   6.996 -2.2726  0.0162 -1.1622
  295MOL0     H39795   3.251   1.498   6.982 -1.7051 -0.6559 -0.7071
  295MOL0     H39796   3.347   1.363   7.050  0.1616  0.5061  1.2495
  295MOL0     H39797   3.110   1.523   7.175  1.7684  1.3217  1.2075
  295MOL0     H39798   3.122   1.349   7.201  0.0942 -0.3561 -0.0460
  295MOL0     H39799   3.359   1.387   7.267 -1.7119 -0.3588  1.0628
  295MOL0     H39800   3.243   1.460   7.367  1.6168 -0.3860  0.2593
  295MOL0     H39801   3.444   1.579   7.342  0.2862 -0.0073 -0.4013
  295MOL0     H39802   3.413   1.611   7.172 -0.7076  1.4541 -0.2990
  295MOL0     H39803   3.203   1.693   7.362 -1.1664  0.2380 -1.4915
  295MOL0     H39804   3.229   1.731   7.186  2.8918  0.2330 -1.5544
  295MOL0     H39805   3.433   1.861   7.259  0.3497  1.8038  2.3257
  295MOL0     H39806   3.380   1.828   7.427 -0.1678  2.2319  0.9757
  295MOL0     H39807   3.415   1.001   6.730 -1.0857  1.9428 -0.1599
  295MOL0     H39808   3.608   0.973   6.610  1.4917  0.4037 -0.8100
  295MOL0     H39809   4.052   1.051   6.722 -0.5892 -0.6390  0.0279
  295MOL0     H39810   4.291   0.975   6.714  1.4410  0.7838 -1.4141
  295MOL0     H39811   5.487   0.512   7.386  1.1288 -4.0664 -0.9349
  295MOL0     H39812   5.735   0.477   7.400  1.3183 -1.8696  0.9255
  295MOL0     H39813   6.168   0.272   7.386 -2.9460  2.1308 -0.8157
  295MOL0     H39814   6.399   0.239   7.470 -3.2679 -2.0193 -0.6663
  295MOL0     H39815   6.597   0.189   7.550  1.5814 -0.7935  0.5391
  295MOL0     H39816   6.584   0.367   7.546 -0.7817  2.1202  3.7327
  295MOL0     H39817   6.779   0.363   7.712  0.0727  0.3746 -1.9381
  295MOL0     H39818   6.818   0.233   7.598  1.0620  1.2724 -0.3719
  295MOL0     H39819   6.709   0.067   7.736  1.2209 -0.9353  0.0250
  295MOL0     H39820   6.700   0.187   7.860  0.2829  1.3088 -0.4274
  295MOL0     H39821   6.904   0.083   7.914  1.8109 -1.4783  0.5218
  295MOL0     H39822   6.944   0.222   7.805 -3.5822  2.2883  0.3474
  295MOL0     H39823   7.087  -0.135   7.618  2.1310  0.6144  2.7408
  295MOL0     H39824   6.275   0.322   7.865  1.8395  2.2468 -0.3666
  295MOL0     H39825   6.047   0.347   7.790 -3.1265  0.0243 -1.9951
  296MOL0     O39826   2.118  10.217   0.323 -0.0342  0.6610 -0.1865
  296MOL0     C39827   2.171  10.231   0.436  0.1488 -0.0544 -0.0086
  296MOL0     O39828   2.124  10.181   0.549 -0.3790  1.1695  0.5242
  296MOL0     C39829   1.995  10.132   0.550  0.2889  0.1183 -0.4353
  296MOL0     C39830   1.940  10.041   0.468  0.2919 -0.5273  0.6313
  296MOL0     C39831   1.807  10.000   0.473 -0.1792  1.1207  0.2496
  296MOL0     C39832   1.728  10.051   0.575 -1.0479  0.1232  0.4670
  296MOL0     O39833   1.606   9.998   0.589 -0.9501  0.4835  0.1958
  296MOL0     C39834   1.569   9.949   0.716 -0.1046 -0.2491  0.3360
  296MOL0     C39835   1.449   9.850   0.698 -0.4417 -0.3061 -1.2293
  296MOL0     C39836   1.329   9.904   0.617 -0.0079 -0.0457  0.3491
  296MOL0     C39837   1.198   9.825   0.656  0.6092  0.4221 -0.2546
  296MOL0     C39838   1.067   9.887   0.611  0.4113  0.3090 -0.8968
  296MOL0     C39839   1.056  10.034   0.667 -0.2396  0.0821 -0.2455
  296MOL0     C39840   1.009  10.052   0.812 -0.3344 -0.2829  0.8792
  296MOL0     C39841   0.978  10.196   0.845  0.3714 -0.1491  0.1389
  296MOL0     N39842   0.895  10.187   0.967  0.6221 -0.1802 -0.1267
  296MOL0     C39843   0.763  10.235   0.973  0.2442 -0.1180 -0.1382
  296MOL0     C39844   0.722  10.214   1.099 -0.3696  1.5116 -0.2963
  296MOL0     C39845   0.594  10.254   1.166  0.5603  1.2580  0.2474
  296MOL0     C39846   0.485  10.144   1.169  0.0174 -0.0923  0.1608
  296MOL0     C39847   0.523  10.015   1.240 -0.4436  0.1838  0.3858
  296MOL0     C39848   0.429   9.896   1.224 -0.1617 -0.1864  0.6156
  296MOL0     O39849   0.301   9.914   1.283 -0.9582  0.2897 -0.1964
  296MOL0     C39850   0.202   9.887   1.191 -0.2551 -0.7418  0.6081
  296MOL0     C39851   0.145   9.763   1.211 -0.5339 -0.2659  0.4633
  296MOL0     C39852   0.060   9.709   1.125 -0.1013 -0.0451 -0.6148
  296MOL0     C39853   0.013   9.564   1.153 -0.3642  0.2702 -0.0128
  296MOL0     C39854   0.018   9.788   1.011 -0.0543 -0.1654 -0.2756
  296MOL0     C39855  -0.077   9.742   0.909 -0.5616 -0.2012 -0.0848
  296MOL0     O39856  -0.151   9.829   0.844 -0.5259  0.3398  0.0083
  296MOL0     C39857  -0.263   9.781   0.792  0.5847  0.3601  0.6235
  296MOL0     C39858  -0.259   9.757   0.651 -0.2512  0.6539 -0.5946
  296MOL0     C39859  -0.378   9.711   0.589  0.1816 -0.5519 -0.2847
  296MOL0     C39860  -0.504   9.710   0.658 -0.2209  0.1294  0.4094
  296MOL0     O39861  -0.627   9.694   0.598  0.3364 -0.7455  0.1567
  296MOL0     C39862  -0.635   9.624   0.476  0.6058 -0.3610 -1.0099
  296MOL0     C39863  -0.778   9.575   0.450  1.1082  0.3732  0.5006
  296MOL0     C39864  -0.890   9.685   0.433 -0.2651 -0.3654  0.1458
  296MOL0     C39865  -0.914   9.723   0.289  0.0274 -0.1269  0.9506
  296MOL0     C39866  -1.034   9.819   0.262  0.0673 -0.7744  0.3510
  296MOL0     C39867  -1.061   9.813   0.107  1.2121 -0.0140  0.0055
  296MOL0     C39868  -1.196   9.888   0.082 -0.3192 -0.9280  0.0770
  296MOL0     C39869  -1.202   9.923  -0.070 -0.5243  0.1087 -0.6416
  296MOL0    Cl39870  -1.349  10.019  -0.099  0.4942  0.1411 -0.1086
  296MOL0     C39871  -0.502   9.737   0.791  0.7095  0.2455  0.7679
  296MOL0     C39872  -0.384   9.770   0.862  0.4315  0.1078 -0.3680
  296MOL0     O39873  -0.087   9.625   0.899 -0.0156 -0.1612 -0.2637
  296MOL0     C39874   0.065   9.918   0.999 -0.5116  0.1159 -0.3746
  296MOL0     C39875   0.165   9.962   1.079 -0.6342  0.1012  0.0917
  296MOL0     N39876   0.824  10.144   1.169 -0.3182  0.3127  0.9906
  296MOL0     N39877   0.919  10.137   1.091  0.6955  0.7425 -0.2241
  296MOL0     C39878   1.785  10.140   0.666  0.4360  0.5062 -0.2340
  296MOL0     C39879   1.916  10.174   0.659 -0.1963  0.0761 -0.1135
  296MOL0     C39880   2.297  10.302   0.448 -1.0435 -1.0667 -0.4449
  296MOL0     C39881   2.364  10.312   0.573 -0.4771  0.3746 -0.7358
  296MOL0     C39882   2.489  10.377   0.581 -0.1026 -0.5884  0.9926
  296MOL0     C39883   2.552  10.422   0.463 -0.7932  0.8379  0.8025
  296MOL0     O39884   2.677  10.471   0.450 -0.9942 -0.3294 -0.5442
  296MOL0     C39885   2.780  10.430   0.538 -0.4004  0.4003 -0.3988
  296MOL0     C39886   2.909  10.483   0.472 -0.3668  0.3631 -0.2550
  296MOL0     C39887   3.038  10.450   0.548 -0.4810 -0.2755 -0.2113
  296MOL0     C39888   3.071  10.533   0.669 -0.6169  0.1925 -0.5449
  296MOL0     C39889   3.005  10.500   0.791 -0.1519  0.1754 -0.8116
  296MOL0     C39890   2.973  10.464   0.912  0.7396  0.6263  0.6844
  296MOL0     C39891   2.484  10.418   0.342 -0.0550 -0.1181 -0.6945
  296MOL0     C39892   2.353  10.364   0.337 -0.3639 -0.6685 -0.2355
  296MOL0     H39893   2.010   9.993   0.400 -0.4141 -0.3155 -0.2613
  296MOL0     H39894   1.776   9.916   0.413 -2.8164  0.4444  2.3835
  296MOL0     H39895   1.647   9.890   0.765 -1.4155 -2.3637  0.0255
  296MOL0     H39896   1.537  10.032   0.780  0.0529 -0.7760  1.1175
  296MOL0     H39897   1.479   9.756   0.651  0.3117  0.2103 -1.7902
  296MOL0     H39898   1.411   9.841   0.800 -1.4860  1.4558 -1.4188
  296MOL0     H39899   1.327  10.009   0.649  0.6845 -0.1631  0.7781
  296MOL0     H39900   1.347   9.904   0.509  0.8431  1.0112  0.4732
  296MOL0     H39901   1.195   9.722   0.620 -0.3140 -0.4968  2.2212
  296MOL0     H39902   1.195   9.818   0.765  0.1480  0.0940 -0.2886
  296MOL0     H39903   1.062   9.878   0.502  0.9929 -4.0289 -0.7504
  296MOL0     H39904   0.987   9.826   0.653 -2.0063  3.3930 -0.6969
  296MOL0     H39905   1.149  10.087   0.646 -1.1755  2.5744  1.5087
  296MOL0     H39906   0.979  10.084   0.608 -1.1326  1.0602  1.6740
  296MOL0     H39907   0.926   9.982   0.824 -0.6036 -0.2447 -0.5229
  296MOL0     H39908   1.088  10.019   0.879  1.1432  2.2671  0.5387
  296MOL0     H39909   0.918  10.247   0.769 -1.5951 -0.6860  1.2553
  296MOL0     H39910   1.066  10.255   0.873 -0.6450  1.1613  0.6610
  296MOL0     H39911   0.715  10.284   0.889  3.0252  2.8269 -0.2140
  296MOL0     H39912   0.629  10.299   1.259  1.4804  3.1137 -0.9329
  296MOL0     H39913   0.544  10.333   1.109 -0.3011 -0.1010 -0.9826
  296MOL0     H39914   0.470  10.121   1.063  1.1837  1.8852 -0.4739
  296MOL0     H39915   0.394  10.186   1.213 -1.3452 -0.7711 -1.8345
  296MOL0     H39916   0.534  10.039   1.347  0.4977  0.3308  0.2651
  296MOL0     H39917   0.621   9.980   1.205 -0.4661 -4.1032  3.7292
  296MOL0     H39918   0.491   9.825   1.279  0.9777  0.0004 -0.3693
  296MOL0     H39919   0.429   9.871   1.117 -2.2251 -2.1937  1.0363
  296MOL0     H39920   0.178   9.703   1.295 -1.0629 -0.1877  0.7318
  296MOL0     H39921   0.056   9.507   1.070  0.1034  2.6163 -1.4930
  296MOL0     H39922   0.054   9.514   1.241 -0.9351  1.3382  0.8906
  296MOL0     H39923  -0.094   9.541   1.152 -0.0251 -1.4737 -1.1390
  296MOL0     H39924  -0.161   9.765   0.605  0.6356 -1.0962  0.8593
  296MOL0     H39925  -0.382   9.706   0.481 -0.3983  0.2637 -0.3146
  296MOL0     H39926  -0.609   9.694   0.396  1.9544 -0.3303 -0.5751
  296MOL0     H39927  -0.566   9.539   0.471  1.5041  0.3070 -0.3373
  296MOL0     H39928  -0.770   9.508   0.364  2.3324  0.8952  0.1782
  296MOL0     H39929  -0.791   9.501   0.529  1.7214 -0.9672 -0.6070
  296MOL0     H39930  -0.864   9.768   0.500  1.0259  1.5324 -2.5316
  296MOL0     H39931  -0.982   9.639   0.470 -0.4932 -1.4043 -1.6119
  296MOL0     H39932  -0.820   9.774   0.268  0.3896 -1.6862 -1.6304
  296MOL0     H39933  -0.918   9.634   0.225 -0.5984  1.3522 -1.1314
  296MOL0     H39934  -1.015   9.925   0.283 -1.3317 -0.9755  3.0401
  296MOL0     H39935  -1.123   9.789   0.316 -1.8814  1.8822 -1.1366
  296MOL0     H39936  -0.978   9.858   0.052  0.7071 -0.6863 -1.3497
  296MOL0     H39937  -1.080   9.711   0.074 -0.6063 -0.0863  1.1638
  296MOL0     H39938  -1.200   9.979   0.142  3.4763  0.1802 -1.0657
  296MOL0     H39939  -1.279   9.822   0.108  1.0066 -4.8318 -4.2578
  296MOL0     H39940  -1.216   9.835  -0.133 -0.8701  2.3542 -3.9609
  296MOL0     H39941  -1.106   9.969  -0.097  0.2858 -0.0752  1.6984
  296MOL0     H39942  -0.594   9.734   0.848  0.6254  3.4458  0.9728
  296MOL0     H39943  -0.382   9.788   0.969  0.6722 -0.4122 -0.2822
  296MOL0     H39944   0.026   9.984   0.922  1.1961 -0.0332 -1.4195
  296MOL0     H39945   0.216  10.055   1.057 -1.4005 -0.0978 -2.9935
  296MOL0     H39946   1.723  10.198   0.735  0.3122 -0.4518  0.4877
  296MOL0     H39947   1.971  10.249   0.715  2.8426 -0.6888 -1.8166
  296MOL0     H39948   2.337  10.268   0.668 -3.0024  0.3743 -1.3843
  296MOL0     H39949   2.539  10.375   0.677 -1.9995 -0.1971  2.0354
  296MOL0     H39950   2.762  10.462   0.641 -0.5538  2.0374 -0.9154
  296MOL0     H39951   2.793  10.322   0.525 -1.6750  0.4760 -2.7253
  296MOL0     H39952   2.906  10.592   0.466  1.0226  0.4529  0.3325
  296MOL0     H39953   2.910  10.433   0.375  0.9544 -2.1993  0.9701
  296MOL0     H39954   3.121  10.476   0.481  1.3429  1.8825  2.6487
  296MOL0     H39955   3.043  10.344   0.571 -1.2372 -0.5688 -1.3065
  296MOL0     H39956   3.043  10.634   0.640  0.0992  0.9338  1.1819
  296MOL0     H39957   3.179  10.530   0.685 -0.7353 -1.2259  0.2126
  296MOL0     H39958   2.957  10.429   1.012  1.5904 -3.2874 -0.3989
  296MOL0     H39959   2.531  10.460   0.254 -1.3926  2.3739 -0.3119
  296MOL0     H39960   2.294  10.350   0.247  1.4491  0.2919 -1.6463
  297MOL0     O39961   7.874   3.608   4.215 -0.6097 -0.4371 -0.0891
  297MOL0     C39962   7.946   3.511   4.245 -0.4439  0.2087 -0.6266
  297MOL0     O39963   7.909   3.394   4.304 -0.2991 -0.2991 -0.1706
  297MOL0     C39964   7.773   3.390   4.329 -0.8145  0.1007 -0.4150
  297MOL0     C39965   7.699   3.302   4.250  0.1312 -0.3971  0.2523
  297MOL0     C39966   7.562   3.285   4.274  0.4174  0.1575  0.2632
  297MOL0     C39967   7.505   3.332   4.393  0.2077  0.1847  0.4198
  297MOL0     O39968   7.372   3.307   4.409 -0.1988  1.1479 -0.4387
  297MOL0     C39969   7.307   3.342   4.532  0.3107 -0.5577  0.2599
  297MOL0     C39970   7.173   3.409   4.493  0.3835 -0.6552  0.0310
  297MOL0     C39971   7.058   3.316   4.472 -0.3493  1.0651  0.3589
  297MOL0     C39972   7.099   3.176   4.413  0.1708  0.6677 -0.1051
  297MOL0     C39973   6.981   3.077   4.393 -0.3028 -0.0536  0.7855
  297MOL0     C39974   6.959   3.022   4.536  1.2933  0.7669  0.4933
  297MOL0     C39975   6.819   2.958   4.558 -0.1531  0.1457  0.6674
  297MOL0     C39976   6.710   3.057   4.553 -0.1739 -0.5024 -0.0237
  297MOL0     N39977   6.589   2.985   4.588  0.3431 -0.2853  0.8974
  297MOL0     C39978   6.545   2.972   4.718  0.2219  0.2553 -0.1630
  297MOL0     C39979   6.421   2.924   4.693 -0.5991  0.4708  0.1342
  297MOL0     C39980   6.307   2.898   4.793 -0.8195  0.8263  0.7692
  297MOL0     C39981   6.254   3.031   4.838 -0.2791 -0.0607  0.3757
  297MOL0     C39982   6.162   3.027   4.957  0.4403 -0.7994  0.5509
  297MOL0     C39983   6.027   2.972   4.922 -0.4181 -0.4010 -0.0212
  297MOL0     O39984   5.978   3.024   4.796  0.3362  0.3041 -0.4247
  297MOL0     C39985   5.841   3.006   4.769 -0.8782  0.3317 -1.6053
  297MOL0     C39986   5.790   3.096   4.669  0.2038  0.4630 -1.0353
  297MOL0     C39987   5.654   3.085   4.633  0.2483  0.2487 -0.3552
  297MOL0     C39988   5.599   3.178   4.527  0.2244  0.3540 -0.3565
  297MOL0     C39989   5.570   2.988   4.702 -0.1489  0.5668  0.3011
  297MOL0     C39990   5.432   2.952   4.666 -0.5644 -0.3377 -0.2760
  297MOL0     O39991   5.347   2.911   4.759 -0.5587  0.1027 -0.1980
  297MOL0     C39992   5.214   2.903   4.732  0.7718 -0.2317  0.8931
  297MOL0     C39993   5.132   3.017   4.725 -0.2175  0.9045  0.0149
  297MOL0     C39994   4.995   3.010   4.708 -0.2138  0.4882  0.1083
  297MOL0     C39995   4.940   2.882   4.716  1.0611  0.5588  0.2183
  297MOL0     O39996   4.813   2.850   4.725  0.7118 -0.4099 -0.6371
  297MOL0     C39997   4.715   2.950   4.757 -0.0577 -0.2981 -0.4357
  297MOL0     C39998   4.578   2.881   4.806  0.0332 -0.4024  0.3210
  297MOL0     C39999   4.470   2.888   4.697  0.7242 -0.5752 -0.4704
  297MOL0     C40000   4.343   2.823   4.726  0.2766  0.0946  0.7782
  297MOL0     C40001   4.349   2.667   4.745  0.3085 -0.3283  0.5750
  297MOL0     C40002   4.213   2.596   4.727 -0.5426 -0.6256  0.6382
  297MOL0     C40003   4.237   2.437   4.728 -0.2469 -0.5505 -0.0110
  297MOL0     C40004   4.263   2.377   4.589  0.0245  0.3153 -0.4599
  297MOL0    Cl40005   4.225   2.204   4.619 -0.1159 -0.4655 -0.1444
  297MOL0     C40006   5.013   2.771   4.712  0.5185 -0.2799 -0.3172
  297MOL0     C40007   5.153   2.784   4.727  0.2370  0.0120  0.8326
  297MOL0     O40008   5.407   2.958   4.551  0.1454  1.0594 -0.3164
  297MOL0     C40009   5.624   2.911   4.807  0.1490 -0.4350  0.0054
  297MOL0     C40010   5.760   2.913   4.831 -0.2619  0.0245 -0.7906
  297MOL0     N40011   6.402   2.884   4.561 -0.1855 -1.0512 -0.2666
  297MOL0     N40012   6.496   2.936   4.498  0.0399 -0.4300 -0.2000
  297MOL0     C40013   7.589   3.417   4.466  0.6234  0.4076 -0.8637
  297MOL0     C40014   7.716   3.448   4.431  0.1517 -0.7141 -0.2327
  297MOL0     C40015   8.094   3.540   4.238  0.1868 -0.1674 -0.6759
  297MOL0     C40016   8.178   3.430   4.250 -0.6965  0.1237 -0.7536
  297MOL0     C40017   8.312   3.451   4.276  0.1285  0.1435 -0.0381
  297MOL0     C40018   8.372   3.576   4.271 -0.6130 -1.3146  0.8223
  297MOL0     O40019   8.510   3.575   4.276  0.3331 -0.4882 -0.0389
  297MOL0     C40020   8.575   3.697   4.239 -0.7023  0.3742 -0.0611
  297MOL0     C40021   8.726   3.690   4.273 -0.3216  1.4616  0.2817
  297MOL0     C40022   8.790   3.554   4.222  0.1757  0.6492  0.0930
  297MOL0     C40023   8.937   3.574   4.200  0.2420  0.3032  0.1676
  297MOL0     C40024   8.996   3.449   4.142  0.2655 -0.3573 -0.4078
  297MOL0     C40025   9.053   3.347   4.114 -0.0133  0.5072  1.4054
  297MOL0     C40026   8.284   3.694   4.248  0.3786 -0.2820  0.0672
  297MOL0     C40027   8.145   3.670   4.226 -0.6953 -0.4353  0.2411
  297MOL0     H40028   7.743   3.249   4.166  2.2274  0.6011  0.6540
  297MOL0     H40029   7.504   3.227   4.204 -1.9655 -1.0524  3.0292
  297MOL0     H40030   7.272   3.259   4.594 -4.6236  2.3584  1.9635
  297MOL0     H40031   7.360   3.423   4.584  1.8225 -1.7165  0.5824
  297MOL0     H40032   7.139   3.482   4.568 -0.6693 -0.4627 -0.6070
  297MOL0     H40033   7.180   3.465   4.399  1.2116  1.0555  1.0575
  297MOL0     H40034   7.006   3.312   4.568  0.2533  1.5955  0.7110
  297MOL0     H40035   6.981   3.359   4.407 -2.4838 -2.3790  0.3125
  297MOL0     H40036   7.148   3.182   4.315  1.5194 -1.5475  0.3656
  297MOL0     H40037   7.171   3.123   4.476 -2.7323  2.2280  5.1025
  297MOL0     H40038   6.893   3.122   4.345 -0.0573 -0.1330  0.2472
  297MOL0     H40039   7.020   3.007   4.319  0.1021  1.8283 -0.8494
  297MOL0     H40040   7.039   2.948   4.551 -0.0302 -0.8426 -0.1037
  297MOL0     H40041   6.975   3.093   4.618  1.3483  0.2565  0.9292
  297MOL0     H40042   6.806   2.890   4.473 -1.1690  1.3372 -0.1733
  297MOL0     H40043   6.818   2.906   4.654  2.0457 -0.5568  0.3593
  297MOL0     H40044   6.702   3.094   4.450  1.5688  2.1332  0.6914
  297MOL0     H40045   6.729   3.138   4.623  1.5634 -0.8140 -0.0787
  297MOL0     H40046   6.579   3.016   4.811  0.3258  2.3047 -1.1041
  297MOL0     H40047   6.231   2.838   4.742  0.2350  1.2699 -1.4487
  297MOL0     H40048   6.344   2.840   4.877 -0.4424 -0.6179 -0.3646
  297MOL0     H40049   6.213   3.091   4.756 -2.4725  0.2660  1.6629
  297MOL0     H40050   6.338   3.089   4.878  0.4888  1.3701 -2.9388
  297MOL0     H40051   6.137   3.125   4.998 -2.1238 -0.9883 -0.3446
  297MOL0     H40052   6.211   2.977   5.041  0.0053  0.4997  1.6100
  297MOL0     H40053   5.952   2.975   5.001  1.3945  1.5893  1.7156
  297MOL0     H40054   6.051   2.866   4.905 -0.0035 -0.1060 -1.4212
  297MOL0     H40055   5.860   3.164   4.621  1.0166 -0.4780 -1.1951
  297MOL0     H40056   5.641   3.152   4.430 -1.4587  0.4261 -1.1362
  297MOL0     H40057   5.491   3.184   4.510  0.4368  1.0499 -1.5427
  297MOL0     H40058   5.630   3.280   4.550 -1.7563  0.6558  1.2753
  297MOL0     H40059   5.179   3.113   4.746  1.8619 -0.2681  1.0018
  297MOL0     H40060   4.937   3.100   4.691 -0.4410 -0.0198 -2.2633
  297MOL0     H40061   4.750   3.006   4.844 -0.6924  1.7100 -1.4136
  297MOL0     H40062   4.697   3.011   4.668 -0.8938 -1.1055 -0.8440
  297MOL0     H40063   4.597   2.779   4.840 -1.7344 -0.6787  0.5636
  297MOL0     H40064   4.541   2.945   4.886  2.5478  1.8890 -0.2119
  297MOL0     H40065   4.506   2.833   4.609 -2.3628 -2.4104 -0.7304
  297MOL0     H40066   4.461   2.990   4.659 -1.6199 -0.6242 -0.1998
  297MOL0     H40067   4.295   2.869   4.813  1.0413  0.4670  1.0148
  297MOL0     H40068   4.274   2.840   4.643  0.6017 -1.0929  0.2407
  297MOL0     H40069   4.381   2.640   4.846 -1.3250 -1.8496  0.7289
  297MOL0     H40070   4.416   2.622   4.672 -1.0716 -1.4352 -0.0651
  297MOL0     H40071   4.151   2.620   4.813 -0.6575 -1.3211  0.7579
  297MOL0     H40072   4.155   2.627   4.639  0.9160 -4.2832 -1.9064
  297MOL0     H40073   4.144   2.394   4.765 -2.3318  1.0002 -2.9949
  297MOL0     H40074   4.313   2.410   4.802  1.8277 -1.4171 -2.3404
  297MOL0     H40075   4.368   2.392   4.560 -0.2023  0.6437 -1.1286
  297MOL0     H40076   4.205   2.412   4.503  0.6655  0.0514 -1.0115
  297MOL0     H40077   4.962   2.678   4.692  1.2607 -0.6179 -0.6994
  297MOL0     H40078   5.214   2.695   4.738 -2.5549 -2.0756  0.5955
  297MOL0     H40079   5.556   2.841   4.855  1.7039 -1.3834  0.9071
  297MOL0     H40080   5.792   2.838   4.904 -1.1028  3.2468  3.2864
  297MOL0     H40081   7.553   3.453   4.562 -3.2928 -2.0573 -1.1895
  297MOL0     H40082   7.776   3.520   4.486 -1.2400 -0.0472  0.4719
  297MOL0     H40083   8.154   3.326   4.235  1.5750 -0.7222  0.9241
  297MOL0     H40084   8.376   3.366   4.295  1.6257  1.6817  2.3914
  297MOL0     H40085   8.581   3.714   4.131  2.2904  0.2358 -0.0046
  297MOL0     H40086   8.529   3.787   4.282 -2.3975 -1.2758  1.8089
  297MOL0     H40087   8.742   3.700   4.380 -2.4381  0.4480  0.7487
  297MOL0     H40088   8.785   3.760   4.213 -0.4796  1.0480 -0.3721
  297MOL0     H40089   8.743   3.520   4.129  0.4658 -1.9212  0.8204
  297MOL0     H40090   8.774   3.473   4.293 -2.7313  2.0225  1.1851
  297MOL0     H40091   8.985   3.596   4.296 -1.0777 -0.8471  1.1303
  297MOL0     H40092   8.954   3.654   4.127  3.6394 -0.4216 -0.0106
  297MOL0     H40093   9.103   3.253   4.096 -0.8651  0.0965  1.1586
  297MOL0     H40094   8.312   3.798   4.231 -3.3468  0.8107 -0.1032
  297MOL0     H40095   8.072   3.750   4.213  0.1688  0.5919  1.4061
  298MOL0     O40096  10.303   7.151   8.550  0.6996 -0.2383 -0.8959
  298MOL0     C40097  10.245   7.042   8.582 -0.2922 -0.5603 -0.0791
  298MOL0     O40098  10.309   6.947   8.651  0.3449 -0.2408 -0.7240
  298MOL0     C40099  10.436   6.960   8.698  0.1963  0.1436  0.2624
  298MOL0     C40100  10.541   6.976   8.613 -0.1497  0.7708  0.1066
  298MOL0     C40101  10.678   6.953   8.656  0.4147  0.5911  0.3500
  298MOL0     C40102  10.711   6.914   8.786  0.2558  0.0011 -0.9707
  298MOL0     O40103  10.841   6.898   8.830 -0.5385 -0.7587 -1.0719
  298MOL0     C40104  10.928   7.008   8.814  0.0328  0.0952 -0.0431
  298MOL0     C40105  11.078   6.965   8.854  0.6623 -0.5284 -0.1046
  298MOL0     C40106  11.181   7.068   8.830 -0.0016 -0.4882 -0.2264
  298MOL0     C40107  11.317   7.004   8.860 -0.0299  0.5069  0.1381
  298MOL0     C40108  11.424   7.104   8.817  0.2952 -0.5194  0.2594
  298MOL0     C40109  11.568   7.055   8.840 -0.3412 -0.0850  0.4455
  298MOL0     C40110  11.610   6.937   8.764 -0.2735  0.6571  0.7511
  298MOL0     C40111  11.763   6.903   8.786 -0.0643 -0.7208 -0.0649
  298MOL0     N40112  11.834   7.031   8.761  0.2978  0.3275 -0.0464
  298MOL0     C40113  11.828   7.102   8.641 -1.1349  0.3330  0.8891
  298MOL0     C40114  11.886   7.223   8.671 -0.8380  0.2429 -0.5405
  298MOL0     C40115  11.866   7.352   8.598 -0.2159  0.1795  0.0178
  298MOL0     C40116  11.785   7.438   8.707 -0.7726 -0.2791  0.1916
  298MOL0     C40117  11.733   7.573   8.648 -0.1857  0.5817 -0.2007
  298MOL0     C40118  11.699   7.674   8.755  0.4238 -0.2831  0.5137
  298MOL0     O40119  11.575   7.740   8.728  0.1990 -0.4557 -0.1687
  298MOL0     C40120  11.456   7.685   8.768  0.4188  0.2571  0.2800
  298MOL0     C40121  11.353   7.769   8.787 -0.5449  0.4248 -0.5599
  298MOL0     C40122  11.229   7.728   8.835  0.2274  0.5737  0.3253
  298MOL0     C40123  11.127   7.833   8.861  0.4514 -0.6394  0.1288
  298MOL0     C40124  11.202   7.595   8.865 -0.9961 -0.0143  0.4963
  298MOL0     C40125  11.075   7.546   8.920 -0.0450  0.6465 -0.0750
  298MOL0     O40126  10.971   7.557   8.832 -0.6191  0.3540  0.3976
  298MOL0     C40127  10.848   7.510   8.869  0.0001  0.5412 -0.2038
  298MOL0     C40128  10.774   7.587   8.964 -1.5569  0.4692  0.2452
  298MOL0     C40129  10.647   7.549   9.004 -0.9011  0.2653  0.7222
  298MOL0     C40130  10.596   7.426   8.954 -0.2754  0.1651 -0.0570
  298MOL0     O40131  10.474   7.386   8.999  0.0637 -0.6258  0.7637
  298MOL0     C40132  10.439   7.250   8.984  0.1585  0.5902 -0.2007
  298MOL0     C40133  10.295   7.247   9.040  0.8536  0.3300  0.5729
  298MOL0     C40134  10.219   7.120   9.005  0.2468  0.1086  0.3565
  298MOL0     C40135  10.065   7.142   8.992 -0.4259 -0.1934 -0.2628
  298MOL0     C40136   9.994   7.016   8.946 -0.5018  0.1846 -0.3114
  298MOL0     C40137   9.844   7.035   8.924 -0.3239 -0.2550  0.7925
  298MOL0     C40138   9.791   6.902   8.872 -0.4929 -1.0382  0.3089
  298MOL0     C40139   9.633   6.919   8.846 -0.0653 -0.1529  0.4892
  298MOL0    Cl40140   9.535   6.917   8.982 -0.3312 -0.0181  0.4405
  298MOL0     C40141  10.669   7.355   8.854 -0.2464 -0.5151 -0.2416
  298MOL0     C40142  10.798   7.390   8.815  0.1607 -0.9435 -0.1919
  298MOL0     O40143  11.074   7.486   9.028 -0.3069  0.2409  0.4336
  298MOL0     C40144  11.315   7.509   8.852  0.1333  0.8147 -0.1556
  298MOL0     C40145  11.436   7.550   8.802 -0.7352  0.8274 -0.3047
  298MOL0     N40146  11.941   7.210   8.803  0.4277 -0.6636  0.0379
  298MOL0     N40147  11.907   7.098   8.850 -0.5512  0.3067  0.4775
  298MOL0     C40148  10.606   6.886   8.872 -0.2320  0.2516 -0.6736
  298MOL0     C40149  10.473   6.906   8.823  0.1274  0.8738 -0.9467
  298MOL0     C40150  10.110   7.009   8.528  0.4900  0.1252 -1.2669
  298MOL0     C40151  10.032   7.086   8.443 -0.2119 -0.3969  0.1125
  298MOL0     C40152   9.901   7.055   8.404 -0.5920 -0.4872  0.7175
  298MOL0     C40153   9.846   6.932   8.445  0.4772  0.2542  0.4395
  298MOL0     O40154   9.722   6.887   8.405 -0.0914 -0.0615 -0.6045
  298MOL0     C40155   9.655   6.957   8.293  0.4630 -0.4197  0.0525
  298MOL0     C40156   9.555   6.869   8.228 -0.3519 -0.2524  0.3135
  298MOL0     C40157   9.500   6.939   8.094 -0.4528  0.4248  0.1785
  298MOL0     C40158   9.418   6.842   8.011 -0.0908  0.3924 -0.5820
  298MOL0     C40159   9.509   6.739   7.966 -0.9577 -0.3633  0.9163
  298MOL0     C40160   9.586   6.654   7.927  0.7861  0.5317  0.1645
  298MOL0     C40161   9.916   6.852   8.536  0.2481  0.0842  0.2422
  298MOL0     C40162  10.049   6.893   8.574  0.1150  0.6077  0.2494
  298MOL0     H40163  10.536   7.010   8.509  0.2163 -1.4576 -0.6918
  298MOL0     H40164  10.758   6.974   8.586  0.9187 -1.4517  0.2477
  298MOL0     H40165  10.938   7.043   8.711 -0.6912  0.5379  0.0246
  298MOL0     H40166  10.883   7.091   8.871 -0.2636 -0.3154  0.3282
  298MOL0     H40167  11.074   6.944   8.961 -2.9104 -2.1287 -0.3858
  298MOL0     H40168  11.114   6.875   8.803  0.5564 -0.1341 -0.8821
  298MOL0     H40169  11.185   7.091   8.723 -0.3544 -2.7006 -0.7661
  298MOL0     H40170  11.163   7.160   8.886  0.2305 -0.9076  0.5380
  298MOL0     H40171  11.329   6.975   8.965  0.2198 -1.5338 -0.4182
  298MOL0     H40172  11.332   6.910   8.806  0.5040  0.4020  0.4582
  298MOL0     H40173  11.421   7.133   8.712 -0.7709  1.8661  0.8840
  298MOL0     H40174  11.402   7.200   8.865 -0.4737 -0.4370 -0.2405
  298MOL0     H40175  11.621   7.144   8.805  1.1682 -0.8487  0.6738
  298MOL0     H40176  11.598   7.042   8.945  1.3868 -1.8441 -0.2071
  298MOL0     H40177  11.548   6.861   8.814 -1.4432  2.1219  1.6276
  298MOL0     H40178  11.587   6.949   8.658 -0.2383 -0.3480  0.6166
  298MOL0     H40179  11.801   6.836   8.708  3.2046  2.9887 -1.9912
  298MOL0     H40180  11.788   6.870   8.887 -0.4028  1.1066  0.6578
  298MOL0     H40181  11.780   7.085   8.545 -1.1180  1.4095  0.6784
  298MOL0     H40182  11.964   7.396   8.578  0.6450 -1.5345  0.3253
  298MOL0     H40183  11.815   7.345   8.501  0.6557  1.4901 -0.5777
  298MOL0     H40184  11.856   7.463   8.786 -1.2597  0.0285  0.5400
  298MOL0     H40185  11.701   7.389   8.757  0.2954 -0.6169  1.7301
  298MOL0     H40186  11.640   7.544   8.599 -0.3119 -1.3592  1.0376
  298MOL0     H40187  11.801   7.620   8.576 -1.0510 -1.2286 -2.3054
  298MOL0     H40188  11.778   7.748   8.770 -0.1929  0.2767  1.0489
  298MOL0     H40189  11.700   7.614   8.846  0.2390 -5.1624 -2.3443
  298MOL0     H40190  11.371   7.875   8.779  1.4466  0.1359 -0.3586
  298MOL0     H40191  11.174   7.932   8.868  2.1716 -1.4183 -0.0185
  298MOL0     H40192  11.076   7.843   8.765  0.8960  0.5812 -0.0089
  298MOL0     H40193  11.055   7.811   8.940  0.5833  1.5821  0.9646
  298MOL0     H40194  10.829   7.676   8.994  3.1422 -2.9041  3.1316
  298MOL0     H40195  10.578   7.595   9.074 -1.1398 -0.1267  0.7491
  298MOL0     H40196  10.434   7.216   8.880  0.6490  0.8317 -0.3078
  298MOL0     H40197  10.511   7.185   9.036 -0.0524  2.1282  2.1709
  298MOL0     H40198  10.298   7.255   9.149 -0.7303 -1.6444  0.8298
  298MOL0     H40199  10.245   7.332   8.994  1.6345 -0.5758 -2.1489
  298MOL0     H40200  10.238   7.043   9.080  1.1194 -0.1702 -0.1359
  298MOL0     H40201  10.260   7.081   8.911 -0.0281  0.0230  0.2695
  298MOL0     H40202  10.035   7.177   9.091  0.4132 -0.8185  0.2308
  298MOL0     H40203  10.049   7.219   8.916  0.8370  0.4158  0.0487
  298MOL0     H40204  10.018   6.938   9.019  2.8084 -0.0404 -1.4635
  298MOL0     H40205  10.045   6.988   8.854  4.7964 -0.9872  2.5764
  298MOL0     H40206   9.793   7.061   9.016  1.7111 -1.8761  2.4852
  298MOL0     H40207   9.824   7.111   8.848  2.0742 -0.0040  0.3297
  298MOL0     H40208   9.809   6.827   8.949  1.1147 -1.2488 -0.2406
  298MOL0     H40209   9.854   6.876   8.787  1.0866 -1.1763  1.4843
  298MOL0     H40210   9.587   6.844   8.781 -3.0129  2.5152 -0.7765
  298MOL0     H40211   9.620   7.008   8.783  2.0976 -0.5103 -0.5540
  298MOL0     H40212  10.633   7.269   8.798  1.8039 -0.8371 -1.1896
  298MOL0     H40213  10.840   7.327   8.737  2.1798 -1.0183  0.9036
  298MOL0     H40214  11.309   7.406   8.887  2.6758  0.3114 -0.9816
  298MOL0     H40215  11.519   7.481   8.804 -0.2372  1.3791  2.6773
  298MOL0     H40216  10.628   6.859   8.975 -2.0600  1.7473  0.1687
  298MOL0     H40217  10.398   6.874   8.894  0.1297  0.8668 -0.9464
  298MOL0     H40218  10.072   7.182   8.414  0.6169 -1.9670 -4.9649
  298MOL0     H40219   9.849   7.121   8.336  0.6213 -1.5433 -1.3474
  298MOL0     H40220   9.608   7.041   8.346  0.9983 -0.5965  0.8326
  298MOL0     H40221   9.727   6.983   8.215 -0.0344 -1.3177 -0.7254
  298MOL0     H40222   9.480   6.844   8.304 -0.4019  0.1590  0.4009
  298MOL0     H40223   9.605   6.778   8.191  2.1394  0.4546  1.6927
  298MOL0     H40224   9.571   6.986   8.025  1.8513 -1.6907  0.9350
  298MOL0     H40225   9.434   7.020   8.123  3.5277  4.2999 -0.5161
  298MOL0     H40226   9.371   6.895   7.928 -1.5196  0.7465  0.4188
  298MOL0     H40227   9.339   6.795   8.071 -0.9458 -1.2524 -2.8711
  298MOL0     H40228   9.641   6.569   7.893 -0.0555 -0.3096  0.8644
  298MOL0     H40229   9.868   6.757   8.556 -5.2026  2.0420 -1.7276
  298MOL0     H40230  10.102   6.827   8.641 -1.7165 -0.6438  0.5310
  299MOL0     O40231   0.484   3.225   6.204 -0.6406  0.0988 -0.6534
  299MOL0     C40232   0.480   3.342   6.250  0.3463  0.4085 -0.8104
  299MOL0     O40233   0.370   3.403   6.304  0.1823 -0.5899 -0.2027
  299MOL0     C40234   0.258   3.333   6.332  0.0702  0.6432  0.7559
  299MOL0     C40235   0.138   3.382   6.295  0.6399 -0.7595 -0.3866
  299MOL0     C40236   0.020   3.310   6.318 -0.1212 -0.2583 -0.2941
  299MOL0     C40237   0.017   3.191   6.386  0.9040 -1.1054  0.7674
  299MOL0     O40238  -0.096   3.118   6.416 -0.1558 -0.0063 -0.0828
  299MOL0     C40239  -0.218   3.140   6.338 -0.7389 -0.3266 -0.7530
  299MOL0     C40240  -0.301   3.016   6.365  0.7041  0.6304 -0.3752
  299MOL0     C40241  -0.422   3.012   6.273  0.4585  0.6802  0.6874
  299MOL0     C40242  -0.521   2.908   6.315 -0.5092  0.2977  0.4468
  299MOL0     C40243  -0.644   2.902   6.222  0.2358  0.4027  0.1995
  299MOL0     C40244  -0.753   3.010   6.259  0.3761  0.2387 -0.1285
  299MOL0     C40245  -0.884   2.979   6.186  0.2602 -0.2532 -0.3871
  299MOL0     C40246  -0.969   2.879   6.262 -0.2854 -0.4151 -1.0738
  299MOL0     N40247  -1.107   2.893   6.223  0.3788 -0.1924 -0.5952
  299MOL0     C40248  -1.152   2.860   6.101 -0.4154 -1.1771  0.0506
  299MOL0     C40249  -1.277   2.918   6.096 -0.8702 -1.0265  0.1874
  299MOL0     C40250  -1.369   2.916   5.985 -0.5090  0.3722  0.5524
  299MOL0     C40251  -1.323   2.978   5.850  0.1974 -0.1874 -0.5424
  299MOL0     C40252  -1.428   2.986   5.738  0.5275 -0.3757 -0.7857
  299MOL0     C40253  -1.394   3.079   5.625  0.0042 -0.2487  1.3247
  299MOL0     O40254  -1.442   3.209   5.664 -0.3298  0.6159  0.4338
  299MOL0     C40255  -1.524   3.279   5.582 -0.7224 -0.1904 -0.0201
  299MOL0     C40256  -1.612   3.364   5.645 -0.4737 -0.3725 -0.1935
  299MOL0     C40257  -1.727   3.414   5.582 -0.4198 -0.7045  0.4438
  299MOL0     C40258  -1.825   3.484   5.669 -0.4522  0.3035  0.1677
  299MOL0     C40259  -1.765   3.369   5.452  0.7933 -0.2831  0.9503
  299MOL0     C40260  -1.896   3.408   5.387 -0.0175 -0.3360  0.1141
  299MOL0     O40261  -1.881   3.456   5.267 -0.0086  0.6941 -0.0751
  299MOL0     C40262  -1.982   3.520   5.201 -0.5060  0.1969 -0.1941
  299MOL0     C40263  -1.981   3.504   5.062 -0.4907 -0.3101 -0.1053
  299MOL0     C40264  -2.091   3.541   4.988  0.3461 -0.4039 -0.2208
  299MOL0     C40265  -2.209   3.591   5.050 -0.5954  0.1723 -0.5577
  299MOL0     O40266  -2.322   3.607   4.970  0.0991 -0.9206 -0.3377
  299MOL0     C40267  -2.401   3.717   4.997  0.3748  0.1005 -0.6064
  299MOL0     C40268  -2.510   3.724   4.894  0.0044  0.1659 -0.3829
  299MOL0     C40269  -2.593   3.589   4.871  0.2276  0.2413 -0.1698
  299MOL0     C40270  -2.709   3.626   4.775 -0.5055 -0.5597  0.0259
  299MOL0     C40271  -2.810   3.514   4.752 -0.9358 -0.2815 -0.1135
  299MOL0     C40272  -2.765   3.402   4.657  0.0135 -0.0253  0.8678
  299MOL0     C40273  -2.866   3.292   4.619 -0.3706 -0.0454  0.5775
  299MOL0     C40274  -2.924   3.206   4.729  0.2407 -0.6999  0.4771
  299MOL0    Cl40275  -2.817   3.078   4.806 -0.1330 -0.2332  0.5018
  299MOL0     C40276  -2.198   3.632   5.186  0.0781  0.2473  0.8353
  299MOL0     C40277  -2.087   3.591   5.260  0.7152 -0.0778  0.5171
  299MOL0     O40278  -1.998   3.398   5.452 -0.1893  0.6676  0.9060
  299MOL0     C40279  -1.661   3.301   5.381  0.0990 -0.8514 -0.0504
  299MOL0     C40280  -1.540   3.260   5.439  0.7090 -0.3502 -0.7289
  299MOL0     N40281  -1.301   2.971   6.220  0.4428  0.2054  0.3023
  299MOL0     N40282  -1.204   2.954   6.291 -0.2340 -0.7840 -0.1700
  299MOL0     C40283   0.140   3.142   6.432 -0.2922  0.2502  0.5624
  299MOL0     C40284   0.255   3.213   6.409 -0.5878  0.4141  0.1751
  299MOL0     C40285   0.609   3.407   6.241 -0.7075 -0.4816 -0.1967
  299MOL0     C40286   0.705   3.374   6.138  0.7538 -0.3934 -0.4064
  299MOL0     C40287   0.820   3.447   6.126  0.6406  0.7950  0.5347
  299MOL0     C40288   0.851   3.540   6.220  0.1414  0.4409 -0.3625
  299MOL0     O40289   0.963   3.619   6.214  0.0373 -0.1447 -0.5633
  299MOL0     C40290   1.088   3.570   6.163  0.2262 -0.3979  0.2649
  299MOL0     C40291   1.191   3.671   6.168  0.1722  0.2744 -0.0534
  299MOL0     C40292   1.334   3.615   6.139  0.8096 -0.1361 -0.6942
  299MOL0     C40293   1.434   3.730   6.159  0.4033  0.3654  1.5533
  299MOL0     C40294   1.565   3.711   6.099 -0.8587 -0.2778  0.1048
  299MOL0     C40295   1.677   3.690   6.056 -0.2639 -0.7644 -0.2277
  299MOL0     C40296   0.765   3.569   6.322 -0.3819 -0.0471 -0.5182
  299MOL0     C40297   0.640   3.505   6.340  0.2786  0.6403 -0.0356
  299MOL0     H40298   0.144   3.481   6.252 -2.1981  0.4570  1.7002
  299MOL0     H40299  -0.074   3.346   6.279 -0.0512 -0.6949 -0.8863
  299MOL0     H40300  -0.273   3.226   6.378  1.2207  1.0263 -0.8107
  299MOL0     H40301  -0.198   3.154   6.232  0.3023  0.2077 -0.5086
  299MOL0     H40302  -0.249   2.920   6.365 -1.9528 -0.9294 -0.7973
  299MOL0     H40303  -0.335   3.024   6.469 -0.9141 -1.1486 -0.7041
  299MOL0     H40304  -0.472   3.109   6.261 -1.4378 -0.1991  1.1122
  299MOL0     H40305  -0.392   2.989   6.170 -1.0622  0.6974  0.2191
  299MOL0     H40306  -0.479   2.808   6.330  2.5687  1.6302  1.5408
  299MOL0     H40307  -0.551   2.933   6.417  1.3754  3.5190  0.3657
  299MOL0     H40308  -0.615   2.906   6.117 -0.9690 -2.3147 -0.3197
  299MOL0     H40309  -0.696   2.807   6.236 -1.0353  1.1505  0.6990
  299MOL0     H40310  -0.760   3.016   6.368  1.6898 -2.1188  0.1342
  299MOL0     H40311  -0.724   3.109   6.221 -0.5129  0.9327  0.9315
  299MOL0     H40312  -0.932   3.076   6.174  2.5062  1.3454  2.2468
  299MOL0     H40313  -0.857   2.946   6.085  0.2170 -0.5679 -0.2965
  299MOL0     H40314  -0.967   2.902   6.369  1.9815 -1.0230 -0.9370
  299MOL0     H40315  -0.921   2.782   6.251 -1.3825 -1.2693  1.0318
  299MOL0     H40316  -1.104   2.807   6.020 -1.1432 -0.2240 -1.0353
  299MOL0     H40317  -1.390   2.808   5.984  1.4210 -0.0661 -1.9031
  299MOL0     H40318  -1.461   2.964   6.019 -1.0559  1.8427 -2.6922
  299MOL0     H40319  -1.242   2.922   5.803  0.0546 -1.9566  1.1887
  299MOL0     H40320  -1.283   3.077   5.874  0.5795 -0.3292 -0.5916
  299MOL0     H40321  -1.528   3.013   5.773  0.4245 -1.5351 -0.1327
  299MOL0     H40322  -1.442   2.883   5.704 -1.8582 -0.8241  1.2350
  299MOL0     H40323  -1.446   3.050   5.533  0.3855  0.5749  0.8372
  299MOL0     H40324  -1.290   3.069   5.591 -0.0835  3.0097 -0.2800
  299MOL0     H40325  -1.601   3.395   5.748 -2.6347 -0.4088  0.1002
  299MOL0     H40326  -1.915   3.425   5.689 -0.6142  0.0592 -1.2005
  299MOL0     H40327  -1.786   3.509   5.769 -0.7882 -1.5413  0.8005
  299MOL0     H40328  -1.859   3.581   5.630  2.4792  2.4439  2.3990
  299MOL0     H40329  -1.895   3.462   5.012 -2.3824 -0.3498 -3.6178
  299MOL0     H40330  -2.086   3.495   4.890  0.1591  1.4339 -1.1374
  299MOL0     H40331  -2.444   3.712   5.098  1.4947  0.8031 -0.0748
  299MOL0     H40332  -2.334   3.804   4.993  1.5322 -0.5155  2.3748
  299MOL0     H40333  -2.582   3.800   4.927 -0.0780 -0.9048  2.1258
  299MOL0     H40334  -2.473   3.754   4.795  1.2907  0.1343  0.0600
  299MOL0     H40335  -2.625   3.544   4.966  0.2371  3.8447  1.7125
  299MOL0     H40336  -2.530   3.511   4.829 -1.2891 -2.0816  1.5999
  299MOL0     H40337  -2.773   3.708   4.808  0.0527 -0.7254  1.6285
  299MOL0     H40338  -2.673   3.654   4.676 -3.0854 -1.6163 -1.3138
  299MOL0     H40339  -2.907   3.558   4.724 -1.3628  0.7525  2.6736
  299MOL0     H40340  -2.837   3.462   4.844 -3.8175 -0.3381 -0.8822
  299MOL0     H40341  -2.749   3.458   4.565 -2.1058 -0.4590  0.1850
  299MOL0     H40342  -2.674   3.354   4.695 -0.8196 -2.7285 -0.2588
  299MOL0     H40343  -2.828   3.224   4.542 -1.9569  0.0102 -0.2925
  299MOL0     H40344  -2.952   3.342   4.573 -0.1390 -2.0159 -2.2532
  299MOL0     H40345  -3.010   3.155   4.685  1.8492 -1.4442 -2.0473
  299MOL0     H40346  -2.962   3.280   4.800  2.6769  2.0824 -0.9027
  299MOL0     H40347  -2.283   3.679   5.235 -0.9331 -1.9070  1.2824
  299MOL0     H40348  -2.101   3.611   5.366  0.0182  1.2479  0.2008
  299MOL0     H40349  -1.672   3.266   5.278  0.0259  0.1052 -0.3714
  299MOL0     H40350  -1.466   3.210   5.378  0.3488 -1.2472 -0.4364
  299MOL0     H40351   0.149   3.047   6.482 -0.2839 -1.0898 -1.8375
  299MOL0     H40352   0.348   3.184   6.458 -0.5023 -0.2795 -0.3863
  299MOL0     H40353   0.662   3.306   6.065 -1.2396 -0.8623  1.1244
  299MOL0     H40354   0.886   3.425   6.042 -0.5707 -1.0318  0.0144
  299MOL0     H40355   1.122   3.476   6.208 -2.6470 -1.3219  0.7171
  299MOL0     H40356   1.079   3.545   6.058  1.5246  2.7023 -0.7163
  299MOL0     H40357   1.190   3.710   6.270  0.3865  2.1374 -0.7096
  299MOL0     H40358   1.159   3.753   6.102  1.5260  2.8022  2.2162
  299MOL0     H40359   1.345   3.577   6.037 -0.0162  0.2274 -0.9269
  299MOL0     H40360   1.359   3.537   6.212  1.6936 -0.3304 -1.1937
  299MOL0     H40361   1.446   3.773   6.259  4.1096  2.7697  0.2628
  299MOL0     H40362   1.393   3.814   6.103 -0.9348 -0.7667  0.7585
  299MOL0     H40363   1.778   3.680   6.020 -1.3189 -1.5185 -3.2798
  299MOL0     H40364   0.793   3.647   6.393 -1.5178 -0.8630  0.8901
  299MOL0     H40365   0.565   3.531   6.414 -0.0569 -3.2257  1.1891
  300MOL0     O40366   8.947   6.053  10.045  0.0478 -0.3605  1.5012
  300MOL0     C40367   8.918   6.146   9.972 -0.1636 -0.5122  0.0884
  300MOL0     O40368   8.811   6.157   9.890  0.5620 -0.7544  0.1418
  300MOL0     C40369   8.723   6.062   9.877 -0.8038  0.1594  0.1003
  300MOL0     C40370   8.769   5.937   9.838  0.2902 -0.9061 -0.6346
  300MOL0     C40371   8.677   5.835   9.825  0.0024  0.8308  0.1178
  300MOL0     C40372   8.543   5.859   9.834 -0.0186 -0.2106  1.0928
  300MOL0     O40373   8.446   5.763   9.813  0.0364  0.3757  0.2431
  300MOL0     C40374   8.474   5.640   9.896 -0.2003 -0.6805 -0.0055
  300MOL0     C40375   8.492   5.673  10.047  0.3614 -0.2900 -0.4714
  300MOL0     C40376   8.441   5.554  10.122 -0.4749 -0.8152  0.3417
  300MOL0     C40377   8.456   5.557  10.272 -0.5272  0.2309  0.1261
  300MOL0     C40378   8.412   5.419  10.326  0.8945  0.5336 -0.9613
  300MOL0     C40379   8.409   5.414  10.484  0.1504  0.2047  0.5149
  300MOL0     C40380   8.325   5.511  10.555 -0.0588 -0.2798  0.2099
  300MOL0     C40381   8.254   5.452  10.685 -0.2196 -0.0514  0.8811
  300MOL0     N40382   8.348   5.365  10.762 -0.0188  0.1247 -0.1514
  300MOL0     C40383   8.462   5.393  10.838  0.5451  0.1135  0.1984
  300MOL0     C40384   8.521   5.278  10.884  0.0154 -0.2763 -0.0559
  300MOL0     C40385   8.644   5.268  10.971 -0.3122  0.2690  0.0151
  300MOL0     C40386   8.768   5.228  10.893 -0.0466 -0.4967 -0.8097
  300MOL0     C40387   8.899   5.243  10.973 -0.1273  0.5074  0.0124
  300MOL0     C40388   8.925   5.142  11.093 -0.0323  0.1433  0.2757
  300MOL0     O40389   8.995   5.207  11.200  0.1916 -0.1817  0.5229
  300MOL0     C40390   9.127   5.221  11.189  0.3490 -0.3565 -0.6501
  300MOL0     C40391   9.194   5.271  11.299 -0.4059 -0.3972 -0.0755
  300MOL0     C40392   9.327   5.291  11.318  0.0102  1.5910  0.7297
  300MOL0     C40393   9.366   5.348  11.455 -0.2014 -0.2681 -0.0935
  300MOL0     C40394   9.413   5.248  11.210  0.6054  0.1649 -0.0090
  300MOL0     C40395   9.561   5.277  11.202  0.2429  0.4550  0.1454
  300MOL0     O40396   9.625   5.238  11.088  0.1414 -0.7289  0.0945
  300MOL0     C40397   9.759   5.281  11.074  0.2535  1.0713 -0.1243
  300MOL0     C40398   9.832   5.191  11.012 -0.4033  0.1315  0.3692
  300MOL0     C40399   9.974   5.197  11.021 -0.3607 -0.0764 -0.1799
  300MOL0     C40400  10.035   5.309  11.084  0.4779 -0.3841  0.2298
  300MOL0     O40401  10.174   5.304  11.093  0.5108  0.0418  0.5391
  300MOL0     C40402  10.240   5.429  11.067  0.0336  0.4017 -0.0674
  300MOL0     C40403  10.301   5.486  11.201  0.3431 -0.0561 -0.1428
  300MOL0     C40404  10.413   5.404  11.251  0.2370  0.0981 -0.0631
  300MOL0     C40405  10.543   5.427  11.170  0.2718 -0.0618 -0.0018
  300MOL0     C40406  10.657   5.334  11.219 -0.2567  0.0208  0.4984
  300MOL0     C40407  10.639   5.182  11.186  0.4087  0.0780  1.2171
  300MOL0     C40408  10.599   5.146  11.042  0.0926 -0.2397  0.2502
  300MOL0     C40409  10.557   5.003  11.013  0.2117 -0.1491  0.6039
  300MOL0    Cl40410  10.382   4.984  11.055  0.1215 -0.1557  0.0044
  300MOL0     C40411   9.950   5.412  11.131  0.3978  0.0495  0.2062
  300MOL0     C40412   9.817   5.401  11.122 -0.0410 -0.2095  0.4121
  300MOL0     O40413   9.611   5.331  11.300 -0.2466  0.8897  0.3751
  300MOL0     C40414   9.347   5.185  11.097 -0.2371 -0.1310  0.7987
  300MOL0     C40415   9.214   5.186  11.084  0.1068  0.5502  0.3680
  300MOL0     N40416   8.446   5.179  10.833 -0.6373  0.8616 -0.5821
  300MOL0     N40417   8.353   5.227  10.763 -0.1370  0.5983  0.1977
  300MOL0     C40418   8.498   5.993   9.855  0.8404  0.9818 -0.5084
  300MOL0     C40419   8.595   6.094   9.884  0.8904  0.4896  0.8342
  300MOL0     C40420   9.013   6.262   9.982 -0.8505 -0.8116  0.0148
  300MOL0     C40421   9.001   6.363   9.891  0.0310  0.6507  0.2796
  300MOL0     C40422   9.074   6.480   9.897 -0.0686 -0.5178 -0.4529
  300MOL0     C40423   9.179   6.494   9.995  0.4487 -0.0410  0.1804
  300MOL0     O40424   9.244   6.618   9.984 -0.3815  0.0518  0.3349
  300MOL0     C40425   9.365   6.639  10.058 -0.4911  0.5097  0.1809
  300MOL0     C40426   9.431   6.760   9.987  0.2235 -0.3076  0.5614
  300MOL0     C40427   9.536   6.810  10.085 -0.1753 -0.2404 -0.1110
  300MOL0     C40428   9.605   6.913  10.005 -0.5967  0.5608 -0.6379
  300MOL0     C40429   9.722   6.948  10.079  0.0650  0.2906 -0.3557
  300MOL0     C40430   9.811   7.002  10.137  0.0254  0.0015 -0.2492
  300MOL0     C40431   9.204   6.388  10.085 -0.7603 -0.7021  0.0149
  300MOL0     C40432   9.117   6.274  10.085  0.1900 -0.2082 -0.1523
  300MOL0     H40433   8.873   5.909   9.825  0.6662 -0.8992  1.9631
  300MOL0     H40434   8.730   5.744   9.798 -0.7634 -0.2635  2.0561
  300MOL0     H40435   8.387   5.575   9.882 -0.3853 -0.2524 -0.8475
  300MOL0     H40436   8.555   5.579   9.853  0.0459  0.2345 -0.8608
  300MOL0     H40437   8.598   5.686  10.070  0.6905  0.9068 -2.4130
  300MOL0     H40438   8.437   5.764  10.071  3.3103  1.9967 -1.6877
  300MOL0     H40439   8.337   5.536  10.092 -1.0381  2.5129 -0.0827
  300MOL0     H40440   8.497   5.466  10.088  0.5837  0.8177 -2.4647
  300MOL0     H40441   8.563   5.564  10.298  0.0458 -1.6065 -1.5230
  300MOL0     H40442   8.399   5.641  10.313  1.3690  0.0912  3.4979
  300MOL0     H40443   8.313   5.392  10.290  1.0047 -3.7510  1.3169
  300MOL0     H40444   8.473   5.339  10.283 -0.4472  0.9158 -3.8118
  300MOL0     H40445   8.376   5.312  10.508 -0.8827  0.8818  2.1709
  300MOL0     H40446   8.509   5.428  10.525 -0.2665  0.8202  1.3547
  300MOL0     H40447   8.391   5.596  10.574  2.6174 -2.0438 -0.5899
  300MOL0     H40448   8.231   5.540  10.506 -0.5455 -3.9734 -1.4022
  300MOL0     H40449   8.173   5.387  10.651 -0.9363  0.1379  2.1785
  300MOL0     H40450   8.211   5.531  10.748  0.6410  1.2414 -0.0902
  300MOL0     H40451   8.493   5.497  10.846  0.2998  0.5207 -2.9570
  300MOL0     H40452   8.669   5.358  11.029 -0.7009 -0.3302  1.1371
  300MOL0     H40453   8.620   5.191  11.044  0.4173 -3.0239 -2.9369
  300MOL0     H40454   8.768   5.290  10.803  0.0315 -0.0226 -0.4814
  300MOL0     H40455   8.770   5.122  10.864  0.9860 -0.7350  0.0972
  300MOL0     H40456   8.908   5.344  11.013  0.4569 -0.3040  2.0488
  300MOL0     H40457   8.989   5.241  10.911  2.1828  3.0264  2.9437
  300MOL0     H40458   8.982   5.058  11.052 -0.8010  0.6624 -2.0210
  300MOL0     H40459   8.828   5.105  11.127 -0.2906 -1.4851 -1.9913
  300MOL0     H40460   9.124   5.298  11.377  2.0076  2.7434  1.2491
  300MOL0     H40461   9.432   5.287  11.516 -1.0499  0.2084  1.3499
  300MOL0     H40462   9.395   5.453  11.460 -0.8207 -0.1470  1.8617
  300MOL0     H40463   9.283   5.351  11.526  0.5589 -0.3310  0.8149
  300MOL0     H40464   9.790   5.109  10.955 -0.8308  0.5910  0.0185
  300MOL0     H40465  10.033   5.124  10.966  1.0691 -0.0553  1.2677
  300MOL0     H40466  10.317   5.415  10.992 -0.9886 -1.1585 -0.8727
  300MOL0     H40467  10.175   5.509  11.028  1.4308  0.5806 -2.1944
  300MOL0     H40468  10.336   5.590  11.192 -2.2005  1.4476  4.2882
  300MOL0     H40469  10.220   5.489  11.274 -0.3939  0.5893 -0.9511
  300MOL0     H40470  10.375   5.302  11.259  4.1347 -1.5288  0.2928
  300MOL0     H40471  10.439   5.445  11.349 -0.9142  0.6441  0.0351
  300MOL0     H40472  10.519   5.405  11.066 -0.3857  1.4815 -0.2021
  300MOL0     H40473  10.571   5.533  11.176 -2.3353  0.8331 -1.8525
  300MOL0     H40474  10.675   5.347  11.326  1.8533  1.4235  0.0224
  300MOL0     H40475  10.744   5.367  11.163 -2.0020  0.3703 -2.2155
  300MOL0     H40476  10.731   5.130  11.216  0.1597 -0.8299  0.4402
  300MOL0     H40477  10.562   5.142  11.252 -0.3520  0.7863  0.7718
  300MOL0     H40478  10.675   5.171  10.967  1.8914  1.2663  2.4338
  300MOL0     H40479  10.513   5.207  11.012  0.7127 -0.7311 -2.9811
  300MOL0     H40480  10.618   4.931  11.067  1.2735 -1.0743 -1.6859
  300MOL0     H40481  10.562   4.974  10.907 -2.0480 -1.7621  0.8539
  300MOL0     H40482   9.992   5.500  11.178  1.0635 -0.0970 -0.1015
  300MOL0     H40483   9.759   5.477  11.174 -0.5591 -1.6009  1.9237
  300MOL0     H40484   9.408   5.137  11.020 -0.1728 -0.1349  0.8512
  300MOL0     H40485   9.174   5.135  10.996 -2.0522  1.9917  0.4395
  300MOL0     H40486   8.395   6.028   9.851  0.9661  1.8062  1.7536
  300MOL0     H40487   8.560   6.197   9.888  0.1039  0.3832 -1.5703
  300MOL0     H40488   8.921   6.354   9.818  0.9721  1.1327 -0.8441
  300MOL0     H40489   9.054   6.560   9.827 -0.6212 -1.0715 -0.9338
  300MOL0     H40490   9.353   6.671  10.162 -0.0511  1.4504 -0.0475
  300MOL0     H40491   9.424   6.548  10.049 -1.3228  0.0602 -0.9355
  300MOL0     H40492   9.360   6.838   9.959  0.1201 -0.8073 -0.6752
  300MOL0     H40493   9.473   6.735   9.889  1.1344  1.5377  0.4481
  300MOL0     H40494   9.601   6.726  10.113 -0.1840 -0.5575 -1.0362
  300MOL0     H40495   9.497   6.854  10.178 -3.0840 -0.5602 -1.0882
  300MOL0     H40496   9.537   6.993   9.976  0.3231  3.2469  3.7392
  300MOL0     H40497   9.645   6.869   9.913 -0.5894 -0.5822 -0.1075
  300MOL0     H40498   9.886   7.048  10.199 -0.5006 -0.5313  0.8166
  300MOL0     H40499   9.292   6.375  10.147  0.5863  0.4379 -1.5615
  300MOL0     H40500   9.137   6.197  10.158 -0.6206 -0.1971  0.0931
  301MOL0     O40501   6.411   4.181   8.548 -0.2149  0.1513  0.1063
  301MOL0     C40502   6.457   4.285   8.584 -0.7519 -0.0612 -0.3926
  301MOL0     O40503   6.389   4.402   8.611  0.4923  0.3421  0.2404
  301MOL0     C40504   6.255   4.405   8.600 -0.6750 -0.1194  0.1690
  301MOL0     C40505   6.167   4.321   8.674 -0.0476  0.7799  0.7358
  301MOL0     C40506   6.037   4.314   8.636 -0.4467 -0.0325  0.5869
  301MOL0     C40507   5.982   4.415   8.547  0.1142  0.7552 -0.2416
  301MOL0     O40508   5.843   4.426   8.519  0.6833  0.5351 -0.5517
  301MOL0     C40509   5.748   4.327   8.570  0.0810  0.1143  0.6464
  301MOL0     C40510   5.610   4.359   8.518  0.3511  0.5430  0.4361
  301MOL0     C40511   5.503   4.250   8.560 -1.0922  0.0970  0.1994
  301MOL0     C40512   5.429   4.277   8.690 -0.4049  0.0294  0.5503
  301MOL0     C40513   5.302   4.195   8.705 -0.4726  0.8440  0.1229
  301MOL0     C40514   5.186   4.266   8.643  0.0257 -0.9394 -0.4372
  301MOL0     C40515   5.062   4.176   8.634 -0.3184  0.5576 -0.1153
  301MOL0     C40516   4.940   4.252   8.577  0.8131  0.5272 -0.4511
  301MOL0     N40517   4.817   4.168   8.573  0.4300  0.1848 -0.1775
  301MOL0     C40518   4.704   4.238   8.550 -0.0749  0.2232 -0.2769
  301MOL0     C40519   4.617   4.142   8.528 -0.5452 -0.0100  0.4605
  301MOL0     C40520   4.473   4.160   8.488  0.4414 -0.6288  0.6748
  301MOL0     C40521   4.381   4.138   8.609 -0.3669 -0.2705  0.3862
  301MOL0     C40522   4.239   4.191   8.574  0.1867  1.1207 -0.3017
  301MOL0     C40523   4.130   4.155   8.684  0.0430 -0.7208  0.8564
  301MOL0     O40524   4.104   4.015   8.673  0.5690  0.3509 -0.3817
  301MOL0     C40525   3.995   3.965   8.741  0.2917  0.5143  0.4658
  301MOL0     C40526   3.965   3.833   8.710 -0.0408 -0.3436 -0.7942
  301MOL0     C40527   3.863   3.763   8.778 -0.0366  0.5456 -0.9521
  301MOL0     C40528   3.839   3.614   8.737  0.1173  0.1981  0.0027
  301MOL0     C40529   3.789   3.833   8.878 -0.3482  1.0089 -0.4362
  301MOL0     C40530   3.680   3.758   8.946 -0.9633  0.2745 -0.0832
  301MOL0     O40531   3.658   3.784   9.084 -0.5337 -0.7317  0.6548
  301MOL0     C40532   3.535   3.762   9.139 -0.7603  0.0053  0.4712
  301MOL0     C40533   3.494   3.631   9.151 -1.0658 -0.5761 -0.3951
  301MOL0     C40534   3.373   3.598   9.216  0.3278  1.2340 -0.5360
  301MOL0     C40535   3.280   3.697   9.250 -0.0793 -0.7933  0.7550
  301MOL0     O40536   3.161   3.677   9.319 -0.1538 -0.6689 -0.3419
  301MOL0     C40537   3.152   3.564   9.404  0.6656  0.0157 -0.2304
  301MOL0     C40538   3.021   3.574   9.477 -0.5148  0.5943 -0.6869
  301MOL0     C40539   2.909   3.570   9.377 -0.4378 -0.7297 -0.0502
  301MOL0     C40540   2.765   3.534   9.427 -0.0508 -0.6714 -0.3763
  301MOL0     C40541   2.709   3.667   9.495  0.0059  0.3188 -0.1260
  301MOL0     C40542   2.556   3.656   9.491  0.0333 -0.3044 -0.2748
  301MOL0     C40543   2.479   3.774   9.552 -0.6685 -0.2256  0.3474
  301MOL0     C40544   2.337   3.775   9.505 -0.7353 -0.0384  0.2133
  301MOL0    Cl40545   2.247   3.617   9.535  0.1225 -0.0989  0.2102
  301MOL0     C40546   3.312   3.833   9.226  0.0884 -0.2323  0.1188
  301MOL0     C40547   3.443   3.860   9.177  0.0017  0.3121 -0.1264
  301MOL0     O40548   3.600   3.696   8.881  0.1001  0.2251  0.4262
  301MOL0     C40549   3.821   3.961   8.910 -0.1074  0.1213  0.1913
  301MOL0     C40550   3.923   4.025   8.842 -1.0971 -0.0354  0.1313
  301MOL0     N40551   4.676   4.018   8.535  0.4041  0.0895  0.4421
  301MOL0     N40552   4.803   4.030   8.556  1.1427  0.4069  0.4134
  301MOL0     C40553   6.067   4.514   8.497 -0.2831 -0.0919  0.0395
  301MOL0     C40554   6.213   4.504   8.517  0.0845 -1.0825 -0.8682
  301MOL0     C40555   6.601   4.282   8.610 -0.7009 -0.7165 -0.1568
  301MOL0     C40556   6.677   4.169   8.589 -0.1191  0.0896 -0.0187
  301MOL0     C40557   6.812   4.168   8.602  0.2125 -0.7603 -0.1716
  301MOL0     C40558   6.876   4.287   8.643  1.0298 -0.2322 -0.1006
  301MOL0     O40559   7.016   4.287   8.669  0.6058 -0.1445  0.0497
  301MOL0     C40560   7.098   4.168   8.651  0.7296  0.2018  0.2914
  301MOL0     C40561   7.239   4.192   8.701 -0.2610  0.1730 -1.0988
  301MOL0     C40562   7.305   4.324   8.641 -1.0131 -0.6700 -0.1040
  301MOL0     C40563   7.438   4.381   8.709  0.8667 -0.1132  0.4941
  301MOL0     C40564   7.402   4.435   8.839  0.6068 -0.1359  0.0510
  301MOL0     C40565   7.329   4.493   8.920 -0.3485 -1.8987  0.4408
  301MOL0     C40566   6.798   4.402   8.659 -0.5938 -0.0885  0.2395
  301MOL0     C40567   6.662   4.402   8.636  0.9673 -0.0794  0.4707
  301MOL0     H40568   6.212   4.239   8.729  0.0072 -0.3909 -0.9783
  301MOL0     H40569   5.968   4.254   8.695  1.7328  0.1050  3.5163
  301MOL0     H40570   5.782   4.226   8.543 -3.9806 -1.9216  2.2181
  301MOL0     H40571   5.739   4.319   8.679 -1.7674 -0.1398  0.5145
  301MOL0     H40572   5.574   4.458   8.548 -0.1011  0.2314  0.9347
  301MOL0     H40573   5.615   4.367   8.409  2.6759  0.7129  0.5047
  301MOL0     H40574   5.428   4.257   8.480  1.7612  0.1368 -2.6736
  301MOL0     H40575   5.552   4.152   8.555 -0.9934  0.1744 -0.3879
  301MOL0     H40576   5.493   4.263   8.778 -0.3653 -1.6155  0.2899
  301MOL0     H40577   5.405   4.384   8.689 -0.7239  0.0518  3.1258
  301MOL0     H40578   5.324   4.097   8.661 -0.9527 -0.9057  3.4321
  301MOL0     H40579   5.277   4.161   8.805 -2.0270 -0.0491 -0.5312
  301MOL0     H40580   5.162   4.363   8.687  0.6711 -1.0342  0.1539
  301MOL0     H40581   5.214   4.285   8.539  1.2673 -2.2615 -0.3850
  301MOL0     H40582   5.077   4.084   8.577  0.0094  0.8014 -0.4319
  301MOL0     H40583   5.030   4.153   8.736 -2.9692  3.1043 -0.2529
  301MOL0     H40584   4.956   4.289   8.475 -2.1780  2.7479 -0.2587
  301MOL0     H40585   4.930   4.343   8.636 -4.8189  0.0113 -0.0030
  301MOL0     H40586   4.700   4.347   8.555  0.2419  0.2414 -0.3994
  301MOL0     H40587   4.462   4.266   8.464 -0.1147 -0.2972  2.2765
  301MOL0     H40588   4.443   4.092   8.408 -1.0241  0.5509  0.1858
  301MOL0     H40589   4.421   4.192   8.695 -0.5713  1.1797 -0.4045
  301MOL0     H40590   4.375   4.034   8.644  1.6821 -0.0673  1.5103
  301MOL0     H40591   4.207   4.172   8.472  0.8011  0.1404 -0.3235
  301MOL0     H40592   4.248   4.300   8.576  0.9708  1.0569  0.9744
  301MOL0     H40593   4.038   4.210   8.663  0.1599 -1.8805 -4.0197
  301MOL0     H40594   4.178   4.181   8.778 -1.4652  0.5963  1.2967
  301MOL0     H40595   4.038   3.793   8.640  0.3079 -1.7981  0.3529
  301MOL0     H40596   3.748   3.614   8.677  2.3045  2.8815 -3.7623
  301MOL0     H40597   3.927   3.577   8.682 -0.5150  0.2019 -1.0279
  301MOL0     H40598   3.831   3.557   8.830  1.7424  0.5100  0.3804
  301MOL0     H40599   3.552   3.554   9.103 -0.9778  0.1590 -1.5040
  301MOL0     H40600   3.346   3.493   9.221 -2.9751  1.9684 -0.6160
  301MOL0     H40601   3.157   3.476   9.339  1.8520  1.3289 -2.0344
  301MOL0     H40602   3.235   3.562   9.475  1.3998  1.5286 -0.9936
  301MOL0     H40603   3.017   3.487   9.544 -1.0024  1.2967  0.2123
  301MOL0     H40604   3.021   3.668   9.532 -3.8445  0.8469 -0.9409
  301MOL0     H40605   2.929   3.493   9.302  0.1488 -0.2664 -0.3802
  301MOL0     H40606   2.914   3.669   9.331  4.0287 -0.9412 -0.3799
  301MOL0     H40607   2.708   3.517   9.335 -1.2060 -0.3990  0.2687
  301MOL0     H40608   2.762   3.448   9.495  0.4963 -1.3526 -1.1994
  301MOL0     H40609   2.749   3.760   9.454 -2.1341  1.9127  1.1782
  301MOL0     H40610   2.739   3.678   9.600  0.2805  1.0165 -0.2693
  301MOL0     H40611   2.534   3.643   9.384  0.6715  0.9733 -0.5855
  301MOL0     H40612   2.528   3.568   9.549  1.1735 -0.1125  0.5880
  301MOL0     H40613   2.514   3.875   9.528 -0.7365  0.2353  2.0941
  301MOL0     H40614   2.490   3.767   9.661  0.8407  1.6640  0.3683
  301MOL0     H40615   2.344   3.789   9.397  1.9298 -1.8085  0.0582
  301MOL0     H40616   2.283   3.859   9.550  1.1083  0.9445  0.6888
  301MOL0     H40617   3.241   3.910   9.254  1.3257  0.7112  0.7525
  301MOL0     H40618   3.469   3.965   9.165 -1.8575  0.9002  0.7713
  301MOL0     H40619   3.768   4.012   8.989 -1.7793 -2.4337  0.8313
  301MOL0     H40620   3.946   4.121   8.888 -2.7108 -0.7629  2.6852
  301MOL0     H40621   6.027   4.583   8.424 -0.1045 -1.2607 -1.2064
  301MOL0     H40622   6.283   4.569   8.465 -0.6697 -0.0474 -0.6193
  301MOL0     H40623   6.623   4.076   8.573  1.1342 -0.6496 -0.1312
  301MOL0     H40624   6.872   4.078   8.587  2.2413  0.6418 -0.8606
  301MOL0     H40625   7.058   4.079   8.701  4.6579 -2.4930 -0.8720
  301MOL0     H40626   7.097   4.144   8.544  0.0866 -1.9003  0.7087
  301MOL0     H40627   7.295   4.105   8.665  0.2254  0.8123 -1.9171
  301MOL0     H40628   7.237   4.191   8.811 -1.3751  2.7764 -1.0206
  301MOL0     H40629   7.237   4.410   8.642  2.4680  2.3025  0.8733
  301MOL0     H40630   7.336   4.307   8.537  0.7074 -0.6182  0.3835
  301MOL0     H40631   7.478   4.464   8.649  1.4388 -0.7045  0.0411
  301MOL0     H40632   7.517   4.305   8.709  2.5554  1.3166 -3.7709
  301MOL0     H40633   7.270   4.532   9.001  0.5033 -2.0814  1.1722
  301MOL0     H40634   6.854   4.493   8.679  1.3435 -0.8337 -1.4222
  301MOL0     H40635   6.606   4.492   8.659 -1.7939 -1.1187 -1.5885
  302MOL0     O40636   7.324   2.979   0.183 -0.4639 -0.1786  0.3393
  302MOL0     C40637   7.364   2.926   0.085 -0.6082  0.5874 -0.4142
  302MOL0     O40638   7.288   2.874  -0.024  0.1844 -0.5699  0.2738
  302MOL0     C40639   7.157   2.833  -0.001  0.0295 -0.2446 -0.9038
  302MOL0     C40640   7.085   2.837   0.124  0.3898 -0.7543  0.3277
  302MOL0     C40641   6.946   2.805   0.131 -0.2218  0.3991  0.2186
  302MOL0     C40642   6.882   2.774   0.011  0.4146 -0.0822  0.1146
  302MOL0     O40643   6.748   2.748   0.037  0.2774 -0.5390  0.0746
  302MOL0     C40644   6.667   2.702  -0.067 -0.5577  0.1169  0.5420
  302MOL0     C40645   6.523   2.672  -0.026 -0.1392  0.2352 -0.3999
  302MOL0     C40646   6.452   2.802   0.028  1.2056 -0.1791  0.5729
  302MOL0     C40647   6.329   2.771   0.101  1.5894 -0.0920  0.3978
  302MOL0     C40648   6.248   2.890   0.154  0.2283  0.5489 -0.2554
  302MOL0     C40649   6.141   2.840   0.254  0.8459 -0.4782 -0.3609
  302MOL0     C40650   6.020   2.757   0.200 -0.5216 -0.1912  0.4252
  302MOL0     C40651   5.909   2.755   0.316  0.2051  0.8753  1.2194
  302MOL0     N40652   5.817   2.650   0.280 -0.8936  0.3910 -0.9075
  302MOL0     C40653   5.794   2.528   0.341 -0.4659  0.3891 -0.1687
  302MOL0     C40654   5.699   2.465   0.272  0.2906 -0.1440  0.1045
  302MOL0     C40655   5.631   2.331   0.293 -0.0802  0.6025  0.1795
  302MOL0     C40656   5.492   2.321   0.234  0.0262  0.6865 -0.7237
  302MOL0     C40657   5.402   2.226   0.313 -0.6429  0.0443 -0.4042
  302MOL0     C40658   5.256   2.223   0.250 -0.2476  0.0703  0.7176
  302MOL0     O40659   5.155   2.152   0.326  0.6550  0.0051 -0.0549
  302MOL0     C40660   5.032   2.137   0.271  0.6783  0.4686  0.9260
  302MOL0     C40661   4.994   2.185   0.145 -0.6104 -0.0509 -0.1071
  302MOL0     C40662   4.872   2.152   0.087  0.2508 -0.8639  0.0459
  302MOL0     C40663   4.858   2.212  -0.047 -0.1047 -0.0007  0.4788
  302MOL0     C40664   4.771   2.080   0.158 -0.6015 -0.1199 -0.0095
  302MOL0     C40665   4.643   2.049   0.102  0.5119  0.2142 -0.0866
  302MOL0     O40666   4.590   1.927   0.130 -0.4091  0.6204  0.6970
  302MOL0     C40667   4.468   1.902   0.073 -0.7370  0.6361 -0.1392
  302MOL0     C40668   4.352   1.971   0.111 -0.0212 -0.8823  0.8658
  302MOL0     C40669   4.223   1.923   0.067 -0.1685 -0.3620  0.2310
  302MOL0     C40670   4.207   1.803   0.006 -0.0888 -0.4797 -0.2203
  302MOL0     O40671   4.081   1.755  -0.023 -0.6430 -0.1305  0.2012
  302MOL0     C40672   4.063   1.654  -0.122  0.0396 -0.4058  0.4816
  302MOL0     C40673   3.918   1.608  -0.125  0.9449 -0.3363 -0.3315
  302MOL0     C40674   3.895   1.498  -0.225 -0.1794 -1.5493  0.5642
  302MOL0     C40675   3.750   1.454  -0.260 -0.3104 -1.0114 -0.4686
  302MOL0     C40676   3.769   1.373  -0.391 -0.2422  0.1937  0.3070
  302MOL0     C40677   3.848   1.246  -0.390 -0.5443  0.2173 -0.2160
  302MOL0     C40678   3.858   1.188  -0.530  0.1947 -0.2036 -1.1439
  302MOL0     C40679   3.844   1.037  -0.547  0.1594  0.0572 -0.1940
  302MOL0    Cl40680   3.936   0.952  -0.416 -0.2198 -0.0167 -0.0130
  302MOL0     C40681   4.324   1.734  -0.034 -0.5339 -0.2650 -0.1679
  302MOL0     C40682   4.457   1.785  -0.001  0.5054  0.0938 -0.2125
  302MOL0     O40683   4.588   2.139   0.040 -0.1465  0.0555 -0.6251
  302MOL0     C40684   4.800   2.040   0.291 -0.2411 -0.3103  0.5130
  302MOL0     C40685   4.926   2.065   0.343  0.3027 -0.3267  0.1690
  302MOL0     N40686   5.667   2.553   0.165 -0.1311 -0.9416 -0.2727
  302MOL0     N40687   5.733   2.663   0.178 -0.0411 -0.3166 -0.3020
  302MOL0     C40688   6.947   2.767  -0.114 -0.1753  0.5206  0.3203
  302MOL0     C40689   7.085   2.801  -0.116 -0.2360 -0.8331  0.7481
  302MOL0     C40690   7.511   2.934   0.072 -0.3766  0.3939  0.4298
  302MOL0     C40691   7.573   2.886  -0.048 -0.9096  0.4950 -0.5452
  302MOL0     C40692   7.711   2.909  -0.065 -0.7255 -0.3906 -0.1761
  302MOL0     C40693   7.791   2.963   0.043  0.7341  0.8085 -0.1141
  302MOL0     O40694   7.929   2.981   0.022 -0.5167  0.8004  0.0031
  302MOL0     C40695   8.020   2.890   0.086 -0.4934  0.7924 -0.5135
  302MOL0     C40696   8.155   2.896  -0.001 -0.2537 -0.4634 -0.0932
  302MOL0     C40697   8.138   2.845  -0.142  1.1335  0.2870  0.1143
  302MOL0     C40698   8.263   2.858  -0.226 -0.4717 -0.1595  0.3698
  302MOL0     C40699   8.263   2.978  -0.314  0.6432 -0.2521 -0.0170
  302MOL0     C40700   8.272   3.080  -0.378  0.3149  0.0704 -0.3960
  302MOL0     C40701   7.735   3.006   0.156 -0.1894 -0.1856 -0.7521
  302MOL0     C40702   7.592   2.989   0.174  0.0868  0.3172  0.0481
  302MOL0     H40703   7.122   2.855   0.225  0.5986 -1.3588  0.3648
  302MOL0     H40704   6.895   2.799   0.226  0.4667  0.0358  0.5750
  302MOL0     H40705   6.672   2.775  -0.147  2.2441  0.6771  1.0977
  302MOL0     H40706   6.705   2.607  -0.105  1.9491  1.9927 -2.1086
  302MOL0     H40707   6.471   2.643  -0.118 -2.1865 -0.0529  0.7854
  302MOL0     H40708   6.527   2.595   0.051  0.3085  0.3466 -0.3085
  302MOL0     H40709   6.530   2.853   0.086  1.0241  0.4893  0.2500
  302MOL0     H40710   6.436   2.868  -0.058  2.9686  0.9803  1.0730
  302MOL0     H40711   6.267   2.706   0.039  1.9345  0.1003 -0.1497
  302MOL0     H40712   6.351   2.717   0.194 -2.0282  0.8982  2.0341
  302MOL0     H40713   6.316   2.961   0.201  1.4089 -0.2161 -0.7645
  302MOL0     H40714   6.203   2.949   0.072 -0.0083  1.2601  0.3746
  302MOL0     H40715   6.185   2.792   0.342  1.7727  4.0445  1.9583
  302MOL0     H40716   6.103   2.932   0.299  1.8948 -0.1754 -0.0464
  302MOL0     H40717   5.990   2.807   0.108 -0.4270 -1.3110 -0.2401
  302MOL0     H40718   6.055   2.654   0.185  0.8584  0.5006 -1.4512
  302MOL0     H40719   5.855   2.850   0.324 -0.6123  0.4277  1.0942
  302MOL0     H40720   5.970   2.731   0.404  2.4027  2.6570  0.2826
  302MOL0     H40721   5.841   2.478   0.425 -2.4366 -1.0151  0.1441
  302MOL0     H40722   5.697   2.260   0.243 -0.2624  0.9887 -0.6229
  302MOL0     H40723   5.624   2.321   0.402 -0.0750  1.9309  0.3130
  302MOL0     H40724   5.498   2.293   0.128 -0.1306 -0.7296 -0.3714
  302MOL0     H40725   5.438   2.417   0.232 -1.5898 -0.1225  0.9736
  302MOL0     H40726   5.394   2.264   0.415 -0.1617  1.1135 -0.7475
  302MOL0     H40727   5.453   2.130   0.306  0.7886  0.5614  1.9614
  302MOL0     H40728   5.266   2.173   0.153  1.9893  0.2437  0.8095
  302MOL0     H40729   5.227   2.327   0.231  3.3784  0.9723 -0.8259
  302MOL0     H40730   5.061   2.258   0.100  0.3662  0.6864  2.3446
  302MOL0     H40731   4.773   2.175  -0.105  1.4481 -1.0018 -1.2795
  302MOL0     H40732   4.854   2.320  -0.036  0.7707  0.4083 -2.3870
  302MOL0     H40733   4.945   2.196  -0.111 -1.5661 -1.2647 -1.2933
  302MOL0     H40734   4.359   2.068   0.159  0.3638  0.1727 -1.1908
  302MOL0     H40735   4.141   1.984   0.104  0.5665 -0.3532  1.9462
  302MOL0     H40736   4.102   1.685  -0.219  2.3791 -1.5881  0.9611
  302MOL0     H40737   4.124   1.568  -0.095 -0.1849 -0.5281  0.6004
  302MOL0     H40738   3.912   1.570  -0.022 -0.7386  1.2570  0.2095
  302MOL0     H40739   3.858   1.697  -0.144  3.9410  1.1822 -3.8226
  302MOL0     H40740   3.960   1.413  -0.202 -0.1176 -2.1365 -1.6029
  302MOL0     H40741   3.937   1.541  -0.316 -0.2866  3.6230  2.6497
  302MOL0     H40742   3.713   1.394  -0.177 -4.3394  0.1862 -1.2035
  302MOL0     H40743   3.680   1.536  -0.275  1.3788  0.9850  1.7718
  302MOL0     H40744   3.808   1.444  -0.464  1.6392 -0.2544  0.8231
  302MOL0     H40745   3.667   1.344  -0.418 -1.4601  0.5411  3.8749
  302MOL0     H40746   3.948   1.268  -0.351 -1.7110  4.0469  1.0464
  302MOL0     H40747   3.803   1.175  -0.319 -1.1987  0.5511 -0.2898
  302MOL0     H40748   3.950   1.227  -0.575  0.0442  1.3854 -0.1559
  302MOL0     H40749   3.783   1.238  -0.591  1.3738  2.6205 -0.4408
  302MOL0     H40750   3.886   1.008  -0.643 -1.7169 -1.7172 -0.5365
  302MOL0     H40751   3.737   1.015  -0.547 -0.1785  1.5660 -0.7624
  302MOL0     H40752   4.313   1.648  -0.099 -1.5802  0.4908 -1.0299
  302MOL0     H40753   4.545   1.725  -0.021 -0.5176 -1.8509  0.8058
  302MOL0     H40754   4.717   1.994   0.344  0.9672 -0.8504  1.9982
  302MOL0     H40755   4.945   2.036   0.446  0.6149  0.5644  0.3752
  302MOL0     H40756   6.889   2.743  -0.202  0.7577 -1.6339  0.2082
  302MOL0     H40757   7.135   2.811  -0.212  1.0999 -0.2450  1.4724
  302MOL0     H40758   7.528   2.837  -0.134  0.6020 -1.7610 -0.1434
  302MOL0     H40759   7.763   2.870  -0.151 -2.6877 -1.7904 -0.8089
  302MOL0     H40760   8.040   2.918   0.190 -1.8959  0.8371 -0.2418
  302MOL0     H40761   7.984   2.787   0.093 -0.5605  0.8746  0.6746
  302MOL0     H40762   8.230   2.830   0.044  0.4385  0.6635  0.4530
  302MOL0     H40763   8.198   2.996   0.005  1.1417 -1.1040  3.8423
  302MOL0     H40764   8.059   2.906  -0.186 -1.0903 -1.7307  1.1063
  302MOL0     H40765   8.093   2.747  -0.161 -1.6019  1.3244  0.8869
  302MOL0     H40766   8.280   2.770  -0.289  1.4493 -1.0248  1.9674
  302MOL0     H40767   8.354   2.846  -0.167 -1.1698  2.8063  2.2663
  302MOL0     H40768   8.274   3.173  -0.432 -0.9426  1.1218  1.2745
  302MOL0     H40769   7.793   3.038   0.242 -3.8079 -3.8606  3.5768
  302MOL0     H40770   7.541   3.012   0.267  0.0467 -1.1853  0.4163
  303MOL0     O40771   4.481  11.362   9.626 -0.4238  0.3942 -0.6213
  303MOL0     C40772   4.404  11.271   9.649 -0.5059 -0.5305  0.1417
  303MOL0     O40773   4.340  11.255   9.760 -0.1097 -0.2386 -0.5239
  303MOL0     C40774   4.337  11.366   9.845  0.5873 -0.2577  0.1263
  303MOL0     C40775   4.386  11.350   9.976 -0.3439  0.3336 -0.3889
  303MOL0     C40776   4.382  11.461  10.060  0.0116 -0.3812 -0.4589
  303MOL0     C40777   4.344  11.591  10.019  0.4882 -0.3193  0.5340
  303MOL0     O40778   4.353  11.692  10.107 -0.2378  0.2440  0.1043
  303MOL0     C40779   4.299  11.820  10.072 -0.0216  0.4287 -0.2154
  303MOL0     C40780   4.336  11.933  10.168  0.2227 -0.3810  0.4356
  303MOL0     C40781   4.466  11.950  10.239  0.5071 -0.8507 -0.3127
  303MOL0     C40782   4.590  11.949  10.140  0.6158 -0.3047  0.8012
  303MOL0     C40783   4.719  11.980  10.220 -0.0573 -0.8578 -0.3642
  303MOL0     C40784   4.833  12.019  10.132 -0.3041  0.7324  0.4478
  303MOL0     C40785   4.949  12.081  10.208  0.0745 -0.2667  1.1326
  303MOL0     C40786   5.064  12.120  10.110 -0.3557  0.4081 -0.0885
  303MOL0     N40787   5.123  12.003  10.040 -0.1798 -0.2702  0.2621
  303MOL0     C40788   5.242  11.944  10.065 -0.4101 -0.3148 -0.7898
  303MOL0     C40789   5.265  11.862   9.963 -0.1752  0.2811 -0.7183
  303MOL0     C40790   5.384  11.761   9.964 -0.3094 -0.0112  0.2905
  303MOL0     C40791   5.342  11.621   9.951  0.8135  0.0413  0.0942
  303MOL0     C40792   5.278  11.572  10.073  0.7490 -0.1722 -0.0036
  303MOL0     C40793   5.278  11.411  10.072  0.0298 -0.4011 -0.7235
  303MOL0     O40794   5.249  11.362  10.200 -0.0368  0.1429 -0.8307
  303MOL0     C40795   5.117  11.352  10.241  0.4822 -0.4735  0.5827
  303MOL0     C40796   5.063  11.461  10.297  1.1353  0.5543 -0.1274
  303MOL0     C40797   4.925  11.470  10.323 -0.7723  0.7543  0.2097
  303MOL0     C40798   4.869  11.602  10.368 -0.6833 -0.9352  0.0938
  303MOL0     C40799   4.842  11.356  10.295  0.3315 -0.4896  0.1389
  303MOL0     C40800   4.699  11.353  10.318  0.2671  1.0487 -1.3346
  303MOL0     O40801   4.640  11.467  10.364 -0.1548 -0.5363 -0.3117
  303MOL0     C40802   4.523  11.470  10.438 -0.7097 -0.4582 -0.2458
  303MOL0     C40803   4.450  11.595  10.445 -0.4451  0.4756  0.7437
  303MOL0     C40804   4.334  11.610  10.519 -0.6573 -0.2301 -1.6574
  303MOL0     C40805   4.279  11.507  10.581  0.6640 -0.2758 -0.5999
  303MOL0     O40806   4.166  11.512  10.665 -0.5886  0.0542  0.3731
  303MOL0     C40807   4.099  11.645  10.671 -0.4100 -0.5592  0.0677
  303MOL0     C40808   3.964  11.611  10.726  0.0262  0.2999 -0.5282
  303MOL0     C40809   3.871  11.733  10.738 -1.1368 -0.0228  0.1984
  303MOL0     C40810   3.756  11.700  10.832  0.6735 -0.7676  0.4454
  303MOL0     C40811   3.651  11.811  10.843 -0.8689  0.6975  0.1890
  303MOL0     C40812   3.716  11.942  10.901 -0.0228 -0.1596  0.8808
  303MOL0     C40813   3.607  12.053  10.934 -0.2695  0.1054  0.1580
  303MOL0     C40814   3.492  12.069  10.839  0.9013  0.1178 -0.7351
  303MOL0    Cl40815   3.557  12.142  10.691 -0.3098  0.4840  0.3009
  303MOL0     C40816   4.332  11.383  10.571 -0.0629 -0.4500  0.7445
  303MOL0     C40817   4.460  11.363  10.499 -0.3980  0.0132 -0.6856
  303MOL0     O40818   4.634  11.251  10.293 -0.2749  0.4778 -0.0665
  303MOL0     C40819   4.906  11.242  10.234 -0.3779 -0.5949 -0.2664
  303MOL0     C40820   5.040  11.241  10.203 -0.0356 -0.7145  0.2297
  303MOL0     N40821   5.171  11.873   9.869  0.4935 -0.1842  0.1716
  303MOL0     N40822   5.083  11.956   9.916 -1.0415 -0.7541  0.0650
  303MOL0     C40823   4.305  11.604   9.883  0.2989 -0.4000  0.2899
  303MOL0     C40824   4.312  11.496   9.796  0.1045 -1.0312 -0.1834
  303MOL0     C40825   4.379  11.180   9.532  1.0684 -0.2296 -0.2828
  303MOL0     C40826   4.445  11.193   9.412 -0.0230  0.5451 -0.2675
  303MOL0     C40827   4.415  11.100   9.309 -0.3737 -0.1444  0.4919
  303MOL0     C40828   4.313  10.999   9.323 -0.6592 -0.1096 -0.4414
  303MOL0     O40829   4.274  10.908   9.222 -0.3126  0.4207 -0.0340
  303MOL0     C40830   4.331  10.918   9.090 -1.2668  0.1028 -0.4947
  303MOL0     C40831   4.444  10.818   9.094  0.1898 -0.5438 -0.1830
  303MOL0     C40832   4.501  10.798   8.959 -0.5370 -0.6812  0.2851
  303MOL0     C40833   4.651  10.756   8.967  0.5186 -0.0037 -0.5055
  303MOL0     C40834   4.731  10.880   9.005  0.3920  0.4445 -0.1116
  303MOL0     C40835   4.803  10.972   9.041 -0.6771 -0.1233 -0.5113
  303MOL0     C40836   4.253  10.988   9.449 -0.2715  0.9403 -0.6181
  303MOL0     C40837   4.284  11.078   9.552 -0.2050 -1.1609 -0.5128
  303MOL0     H40838   4.427  11.259  10.021  2.4992  1.8858  0.4304
  303MOL0     H40839   4.408  11.437  10.163 -0.9159 -1.4355 -0.4498
  303MOL0     H40840   4.338  11.855   9.976 -1.0302  0.1331 -0.7521
  303MOL0     H40841   4.191  11.818  10.058  0.0390  1.4388 -0.9155
  303MOL0     H40842   4.323  12.024  10.108  2.3199  0.2893  0.9292
  303MOL0     H40843   4.258  11.934  10.245  0.7039 -0.9040  0.9363
  303MOL0     H40844   4.452  12.044  10.293 -2.4090 -1.0860 -0.5084
  303MOL0     H40845   4.459  11.859  10.299 -0.9632 -1.2915 -1.1136
  303MOL0     H40846   4.606  11.846  10.108  2.7076  0.1032  0.3552
  303MOL0     H40847   4.581  12.023  10.059  0.7651 -0.9419  0.1912
  303MOL0     H40848   4.701  12.078  10.265 -1.9243 -0.6051 -1.5277
  303MOL0     H40849   4.733  11.903  10.296  3.1356 -1.6695 -1.6223
  303MOL0     H40850   4.861  11.926  10.081  0.0694  0.9357  0.2752
  303MOL0     H40851   4.803  12.090  10.054  0.5604  3.2600  2.2717
  303MOL0     H40852   4.901  12.167  10.256 -3.5401 -0.9326 -0.9532
  303MOL0     H40853   4.987  12.016  10.288  3.1108  0.1361  0.1387
  303MOL0     H40854   5.139  12.182  10.159 -0.6222  1.3326 -0.8171
  303MOL0     H40855   5.023  12.175  10.025  0.0251 -0.8421 -1.1062
  303MOL0     H40856   5.306  11.962  10.150  1.3162 -3.9718 -1.1511
  303MOL0     H40857   5.451  11.789   9.883  0.4584  1.2979  1.3345
  303MOL0     H40858   5.452  11.763  10.051 -0.0088  0.0668  0.0569
  303MOL0     H40859   5.426  11.560   9.918  0.1329  0.3400 -2.3783
  303MOL0     H40860   5.277  11.615   9.864 -0.7936  1.1160  1.1633
  303MOL0     H40861   5.179  11.613  10.095 -1.3635 -5.1348  1.1504
  303MOL0     H40862   5.347  11.603  10.152  1.1944  1.7275 -1.0845
  303MOL0     H40863   5.377  11.375  10.041 -0.7793 -0.6581 -3.2328
  303MOL0     H40864   5.209  11.368   9.998 -1.9574 -0.6689  1.1873
  303MOL0     H40865   5.145  11.529  10.318  2.2004 -1.6562  3.8832
  303MOL0     H40866   4.822  11.589  10.466 -1.6562 -3.1931 -0.6001
  303MOL0     H40867   4.953  11.669  10.385 -0.4307 -1.1709 -0.2110
  303MOL0     H40868   4.801  11.650  10.297  0.1409 -0.6710 -0.5309
  303MOL0     H40869   4.490  11.686  10.402 -1.0062  0.0627 -0.7244
  303MOL0     H40870   4.301  11.712  10.536  0.9502 -0.2389  3.1737
  303MOL0     H40871   4.162  11.698  10.742 -0.8471 -0.4987  0.4144
  303MOL0     H40872   4.074  11.701  10.580 -1.3764  3.5075  2.5778
  303MOL0     H40873   3.917  11.534  10.664  0.6585  1.5024 -2.5918
  303MOL0     H40874   3.982  11.574  10.828 -1.6377  0.2098 -0.2314
  303MOL0     H40875   3.825  11.754  10.642 -0.7756  0.4282  0.1199
  303MOL0     H40876   3.923  11.819  10.784 -1.5638 -0.5746  1.7893
  303MOL0     H40877   3.702  11.609  10.803 -1.4372  0.3744  0.5740
  303MOL0     H40878   3.807  11.695  10.928 -0.9538 -0.0089  1.3974
  303MOL0     H40879   3.571  11.779  10.911 -1.1215  1.7075  0.3858
  303MOL0     H40880   3.609  11.830  10.744  0.7771  0.4949 -0.5787
  303MOL0     H40881   3.778  11.935  10.991 -0.3262 -1.7003  0.9920
  303MOL0     H40882   3.785  11.982  10.826  0.0458  0.0625  1.0613
  303MOL0     H40883   3.659  12.149  10.932 -1.3710  0.6995 -0.8785
  303MOL0     H40884   3.569  12.043  11.037 -1.1855  5.6477  0.6253
  303MOL0     H40885   3.417  12.136  10.881  1.7096 -0.0823  1.1235
  303MOL0     H40886   3.444  11.971  10.827 -0.7328  0.7415  0.4262
  303MOL0     H40887   4.266  11.308  10.615 -1.1964  1.6560  2.8929
  303MOL0     H40888   4.487  11.259  10.484 -0.6058 -0.5644  2.3957
  303MOL0     H40889   4.859  11.145  10.219 -3.1416  0.2625  1.9986
  303MOL0     H40890   5.090  11.151  10.168  1.4847  0.2441 -0.1501
  303MOL0     H40891   4.271  11.693   9.833  1.7241 -1.5515 -2.9948
  303MOL0     H40892   4.284  11.512   9.693  0.4095 -3.5689 -0.7063
  303MOL0     H40893   4.524  11.265   9.393  0.2911 -0.3319 -2.6041
  303MOL0     H40894   4.477  11.113   9.221 -2.0563 -1.8861 -1.0262
  303MOL0     H40895   4.260  10.881   9.015 -0.5114 -1.5756 -0.4387
  303MOL0     H40896   4.354  11.021   9.065  2.0610 -0.3861  0.1141
  303MOL0     H40897   4.413  10.721   9.136  1.0106  0.3056  2.6151
  303MOL0     H40898   4.520  10.854   9.164 -1.6982 -1.7994  2.7259
  303MOL0     H40899   4.493  10.889   8.900 -1.9284  0.7883  2.5892
  303MOL0     H40900   4.449  10.716   8.908 -3.8040  1.2467  0.2572
  303MOL0     H40901   4.687  10.722   8.869  3.5595  2.2003 -0.3070
  303MOL0     H40902   4.667  10.672   9.034  5.5958  0.5461 -0.6563
  303MOL0     H40903   4.861  11.058   9.069  0.6626 -1.8408  2.5940
  303MOL0     H40904   4.169  10.923   9.471  0.1902 -0.0952 -1.8100
  303MOL0     H40905   4.229  11.070   9.646 -1.8774 -4.4220 -1.6121
  304MOL0     O40906  10.785   2.288   0.163  0.9723 -0.0077 -0.4939
  304MOL0     C40907  10.812   2.404   0.200  0.4983 -0.3906  0.1926
  304MOL0     O40908  10.720   2.515   0.204  0.5377  0.2468 -0.0484
  304MOL0     C40909  10.587   2.494   0.202 -0.2865  0.9890 -0.0634
  304MOL0     C40910  10.501   2.596   0.159 -1.1336  0.4654 -0.3439
  304MOL0     C40911  10.362   2.583   0.174  0.4627 -0.6914  0.0690
  304MOL0     C40912  10.301   2.471   0.231  0.5936  0.5217 -0.0618
  304MOL0     O40913  10.165   2.462   0.225  0.5600 -0.0996 -0.4571
  304MOL0     C40914  10.109   2.328   0.231  0.7612  0.3073  0.6442
  304MOL0     C40915   9.966   2.321   0.171 -0.5420  0.1325  0.7877
  304MOL0     C40916   9.855   2.391   0.245 -0.0838  0.2164 -1.3937
  304MOL0     C40917   9.729   2.371   0.167  0.5916 -0.4254  0.2288
  304MOL0     C40918   9.604   2.436   0.250  0.3382  0.5964  0.0847
  304MOL0     C40919   9.605   2.585   0.275 -1.1111 -0.7318 -0.3398
  304MOL0     C40920   9.462   2.636   0.307  0.2397 -0.5528  0.4729
  304MOL0     C40921   9.364   2.637   0.192  0.2536  0.8904 -0.1060
  304MOL0     N40922   9.244   2.702   0.239 -0.2437  0.4554  0.0476
  304MOL0     C40923   9.139   2.629   0.287  0.1457  0.3498  0.2046
  304MOL0     C40924   9.039   2.715   0.291  0.3902  0.4775  0.0100
  304MOL0     C40925   8.895   2.693   0.343 -0.0203  0.1944  0.3882
  304MOL0     C40926   8.876   2.548   0.391 -0.3761 -0.5402 -0.1357
  304MOL0     C40927   8.738   2.521   0.448  1.0944  0.3942 -1.0942
  304MOL0     C40928   8.634   2.516   0.339 -0.1070  0.7633 -0.0069
  304MOL0     O40929   8.499   2.545   0.380  0.5827  0.3070  0.2120
  304MOL0     C40930   8.407   2.548   0.277  0.0757  0.0661 -0.4838
  304MOL0     C40931   8.432   2.532   0.143  1.1633  0.3090  0.2008
  304MOL0     C40932   8.331   2.507   0.052  0.0860 -0.0458 -0.4026
  304MOL0     C40933   8.367   2.484  -0.088 -0.5074 -0.2336  0.2693
  304MOL0     C40934   8.195   2.520   0.092  1.1342 -0.9849 -0.2830
  304MOL0     C40935   8.086   2.492  -0.003  0.6506  0.3764  0.5865
  304MOL0     O40936   7.966   2.469   0.069 -0.0815 -0.2528  0.1899
  304MOL0     C40937   7.852   2.470   0.005  0.7180  0.3687 -0.4850
  304MOL0     C40938   7.816   2.574  -0.078  0.3318 -0.1822 -0.8748
  304MOL0     C40939   7.692   2.573  -0.143 -0.2363  0.4419  0.7280
  304MOL0     C40940   7.608   2.458  -0.127  0.0596 -1.2056  0.7569
  304MOL0     O40941   7.489   2.449  -0.200  0.6796 -0.0590 -0.2616
  304MOL0     C40942   7.423   2.561  -0.252 -0.1420  0.2922  0.3683
  304MOL0     C40943   7.302   2.522  -0.338 -0.3633 -0.0390 -0.6574
  304MOL0     C40944   7.194   2.466  -0.250  0.0660  0.0409  0.0706
  304MOL0     C40945   7.063   2.454  -0.330  0.0936  1.0496 -0.2469
  304MOL0     C40946   6.963   2.397  -0.232  0.1250 -0.1739  0.7802
  304MOL0     C40947   6.828   2.389  -0.296  0.5272  0.5972 -0.2145
  304MOL0     C40948   6.719   2.334  -0.202 -0.7706 -0.4938  0.5598
  304MOL0     C40949   6.580   2.331  -0.274  0.3065 -0.0031 -0.2376
  304MOL0    Cl40950   6.465   2.271  -0.148  0.3056  0.4822  0.6938
  304MOL0     C40951   7.652   2.351  -0.056 -0.3610 -0.3118  0.2488
  304MOL0     C40952   7.767   2.359   0.014 -0.8892 -0.7188 -0.4118
  304MOL0     O40953   8.097   2.500  -0.128  0.3433 -0.3740  0.3924
  304MOL0     C40954   8.179   2.552   0.228  0.1603  0.4977  0.0567
  304MOL0     C40955   8.278   2.553   0.319  0.4279 -0.1815 -0.3092
  304MOL0     N40956   9.077   2.833   0.251  0.9187  0.4334  0.2758
  304MOL0     N40957   9.209   2.828   0.231  0.4864 -0.0835  0.3161
  304MOL0     C40958  10.386   2.375   0.283  0.5018  0.4993 -0.1561
  304MOL0     C40959  10.526   2.386   0.258 -0.1670 -0.7847 -0.3185
  304MOL0     C40960  10.955   2.432   0.238 -0.7452  0.2604 -0.3359
  304MOL0     C40961  10.990   2.554   0.285 -0.6275 -0.4736 -0.8316
  304MOL0     C40962  11.117   2.584   0.338 -0.2483 -0.0270 -0.6320
  304MOL0     C40963  11.226   2.495   0.329  0.4861 -0.1060  0.3140
  304MOL0     O40964  11.339   2.537   0.388 -0.2973 -0.0101 -0.0229
  304MOL0     C40965  11.445   2.434   0.408  0.6934 -0.4373  0.1341
  304MOL0     C40966  11.553   2.492   0.514 -0.2986  0.2921  0.2685
  304MOL0     C40967  11.645   2.377   0.569 -0.6464  0.3963 -1.4880
  304MOL0     C40968  11.708   2.422   0.699 -0.3725  0.9812  0.1127
  304MOL0     C40969  11.802   2.322   0.755 -0.4366  1.0192 -0.9177
  304MOL0     C40970  11.886   2.238   0.786  0.7880  0.8190 -0.0415
  304MOL0     C40971  11.195   2.373   0.262  0.5380  0.1107  0.1242
  304MOL0     C40972  11.061   2.341   0.221 -0.6510  0.3392  0.3202
  304MOL0     H40973  10.562   2.673   0.111  2.3343 -1.7614  0.0973
  304MOL0     H40974  10.302   2.663   0.132  0.7791 -0.6028 -0.2159
  304MOL0     H40975  10.176   2.255   0.185  1.0864  1.8047 -1.3572
  304MOL0     H40976  10.081   2.311   0.336 -3.6632  0.1051 -0.3518
  304MOL0     H40977   9.961   2.362   0.070  0.7504  1.1225  1.0874
  304MOL0     H40978   9.951   2.213   0.167  0.3790  0.0251 -2.7340
  304MOL0     H40979   9.833   2.346   0.342  0.7476 -0.2886 -1.4286
  304MOL0     H40980   9.877   2.498   0.253 -0.6369  0.2100  0.5241
  304MOL0     H40981   9.714   2.430   0.076  0.5324 -0.2152  0.3728
  304MOL0     H40982   9.705   2.266   0.149 -0.3015 -0.4731  1.5498
  304MOL0     H40983   9.510   2.408   0.203  1.3180 -1.8787 -0.6088
  304MOL0     H40984   9.601   2.383   0.346  0.8472  1.8169  0.7960
  304MOL0     H40985   9.669   2.608   0.360  0.5680  0.6423 -1.8830
  304MOL0     H40986   9.648   2.636   0.188 -0.4517 -1.7496 -0.6321
  304MOL0     H40987   9.421   2.577   0.390 -1.8631  0.4539  0.2152
  304MOL0     H40988   9.458   2.737   0.349  0.6000  0.5736 -2.0265
  304MOL0     H40989   9.339   2.534   0.164 -0.6998  1.7863 -2.7511
  304MOL0     H40990   9.408   2.689   0.107 -0.5542  0.4580 -0.7970
  304MOL0     H40991   9.151   2.526   0.321 -0.2266  0.4374  0.6051
  304MOL0     H40992   8.868   2.767   0.420 -2.4580  1.5170 -1.5786
  304MOL0     H40993   8.829   2.715   0.259  0.8201 -0.0696 -0.3542
  304MOL0     H40994   8.958   2.523   0.460  0.3095 -1.1187 -1.1360
  304MOL0     H40995   8.902   2.489   0.303  0.8109  1.3625 -1.1238
  304MOL0     H40996   8.719   2.607   0.513 -2.9174 -0.3322 -1.0934
  304MOL0     H40997   8.731   2.428   0.506 -1.8308  0.7024 -0.8124
  304MOL0     H40998   8.632   2.411   0.309  0.7676  1.3195 -2.2322
  304MOL0     H40999   8.667   2.578   0.255 -2.5857 -1.1484 -2.6037
  304MOL0     H41000   8.532   2.515   0.104  0.0468 -3.6649 -1.4072
  304MOL0     H41001   8.337   2.392  -0.138 -0.8098 -1.2214  2.1908
  304MOL0     H41002   8.344   2.569  -0.154  2.6847  1.1243  0.6746
  304MOL0     H41003   8.475   2.462  -0.090 -0.2361  0.8113 -2.7359
  304MOL0     H41004   7.877   2.663  -0.078 -2.3658  1.8116  0.6717
  304MOL0     H41005   7.683   2.650  -0.219 -0.0707 -0.9001 -0.7156
  304MOL0     H41006   7.377   2.616  -0.169 -0.0717 -1.4986  1.6525
  304MOL0     H41007   7.488   2.616  -0.321 -1.6394  0.6767 -0.7862
  304MOL0     H41008   7.260   2.611  -0.386 -1.5496 -1.7781 -3.0616
  304MOL0     H41009   7.331   2.463  -0.425  1.0378  0.5632 -0.6284
  304MOL0     H41010   7.164   2.530  -0.167 -5.6073  1.2713 -2.4628
  304MOL0     H41011   7.218   2.367  -0.211  0.4720 -0.9739 -2.5519
  304MOL0     H41012   7.033   2.555  -0.361  1.5700  1.8199  0.7129
  304MOL0     H41013   7.070   2.401  -0.425 -0.5185  2.5467 -1.1775
  304MOL0     H41014   6.944   2.462  -0.147 -1.0313  1.7233 -0.8451
  304MOL0     H41015   6.994   2.306  -0.180  0.4166  0.1713  1.2187
  304MOL0     H41016   6.788   2.488  -0.322  0.8292 -0.0147 -3.4458
  304MOL0     H41017   6.829   2.324  -0.384  0.8468 -1.2454  1.1041
  304MOL0     H41018   6.717   2.392  -0.110  1.3104 -0.4372  0.6343
  304MOL0     H41019   6.743   2.232  -0.170 -0.8586  0.2141  3.0541
  304MOL0     H41020   6.569   2.269  -0.363 -0.7016  0.8687 -0.7428
  304MOL0     H41021   6.553   2.435  -0.297  0.7323  0.9223  2.9114
  304MOL0     H41022   7.592   2.261  -0.049  1.2081 -1.3102  1.9186
  304MOL0     H41023   7.816   2.272   0.056 -0.9872 -0.0778  1.0985
  304MOL0     H41024   8.074   2.562   0.255 -0.5067 -1.3216 -1.5546
  304MOL0     H41025   8.263   2.573   0.425  0.0678 -0.4301 -0.3118
  304MOL0     H41026  10.353   2.290   0.341  0.8989  0.4069 -0.0620
  304MOL0     H41027  10.590   2.306   0.294  0.6866  0.3906  0.8693
  304MOL0     H41028  10.918   2.631   0.313  0.6360  1.2698 -2.2031
  304MOL0     H41029  11.137   2.667   0.405  3.9794 -1.0608 -0.3474
  304MOL0     H41030  11.405   2.337   0.437 -0.2391 -1.4530 -3.9167
  304MOL0     H41031  11.497   2.421   0.313  0.5716  0.2549 -0.0324
  304MOL0     H41032  11.509   2.550   0.595  1.4312  0.3387  1.2320
  304MOL0     H41033  11.618   2.563   0.463  2.0118 -2.4052 -0.8751
  304MOL0     H41034  11.730   2.346   0.507  2.2286 -0.8011  2.6118
  304MOL0     H41035  11.591   2.284   0.589  0.6566 -0.4058 -1.5791
  304MOL0     H41036  11.625   2.428   0.770 -1.3014 -3.0071 -0.3411
  304MOL0     H41037  11.757   2.517   0.677  1.4235  0.5539  1.9922
  304MOL0     H41038  11.963   2.168   0.812  0.1379 -0.4612 -1.4121
  304MOL0     H41039  11.279   2.307   0.241 -1.2591 -2.0443 -0.7229
  304MOL0     H41040  11.046   2.241   0.183 -0.5667  0.1310  0.8182
  305MOL0     O41041   4.335   7.682   5.448  0.5462  0.6604 -0.3360
  305MOL0     C41042   4.348   7.735   5.339 -0.0824  0.9303  0.1829
  305MOL0     O41043   4.467   7.759   5.278 -0.2448 -0.0030  0.3815
  305MOL0     C41044   4.583   7.688   5.310 -0.4447 -0.2129  0.0588
  305MOL0     C41045   4.700   7.757   5.334  0.2491 -1.0053  0.0789
  305MOL0     C41046   4.819   7.685   5.353 -0.2350  0.2986  0.0512
  305MOL0     C41047   4.818   7.541   5.361 -0.7500  0.7375  0.4935
  305MOL0     O41048   4.931   7.471   5.393 -0.4015  0.4701 -0.4612
  305MOL0     C41049   4.909   7.333   5.414  0.6843  0.1312  0.6990
  305MOL0     C41050   5.028   7.244   5.440 -0.1317 -0.0556  0.1526
  305MOL0     C41051   5.124   7.256   5.324 -0.6963  0.1836 -0.6005
  305MOL0     C41052   5.240   7.153   5.338  0.6307  0.0032  0.2865
  305MOL0     C41053   5.312   7.152   5.208 -0.2236  1.0039 -0.4271
  305MOL0     C41054   5.426   7.258   5.197 -0.0878 -0.2820  1.2396
  305MOL0     C41055   5.503   7.243   5.068 -0.8395  0.3642  0.5161
  305MOL0     C41056   5.442   7.323   4.948 -0.1188  0.1345 -0.5445
  305MOL0     N41057   5.540   7.362   4.845 -0.2191  0.5091 -0.1772
  305MOL0     C41058   5.549   7.502   4.826  0.0139  0.0014  0.9196
  305MOL0     C41059   5.660   7.525   4.763 -0.0606  0.0142  1.4027
  305MOL0     C41060   5.729   7.658   4.728  1.0210  0.1436  0.4049
  305MOL0     C41061   5.807   7.725   4.829 -0.5513  0.9715 -0.0857
  305MOL0     C41062   5.948   7.655   4.864  0.3303 -1.0929 -0.1060
  305MOL0     C41063   5.986   7.678   5.008  0.2255  0.1632  0.3143
  305MOL0     O41064   5.928   7.795   5.057  0.6516  0.0980 -0.4290
  305MOL0     C41065   5.986   7.870   5.157 -0.0026 -0.0060 -0.5934
  305MOL0     C41066   5.944   8.005   5.159  0.0732  0.2671  0.0559
  305MOL0     C41067   5.991   8.099   5.263 -0.4362  0.6981  0.2672
  305MOL0     C41068   5.939   8.243   5.249 -0.3360 -0.1375  0.0517
  305MOL0     C41069   6.081   8.059   5.360 -0.0637  0.3886 -0.5295
  305MOL0     C41070   6.145   8.151   5.457 -0.1796 -0.8871 -0.5251
  305MOL0     O41071   6.186   8.276   5.423  0.1565  0.5041  0.3562
  305MOL0     C41072   6.246   8.360   5.512 -0.2681 -0.1788  0.1352
  305MOL0     C41073   6.372   8.338   5.561 -1.0886 -0.3116  0.6835
  305MOL0     C41074   6.441   8.440   5.630  0.1919 -0.2498 -0.2546
  305MOL0     C41075   6.381   8.561   5.662 -0.1969  0.4980  0.5320
  305MOL0     O41076   6.448   8.650   5.744  0.1462  0.2980  0.3723
  305MOL0     C41077   6.580   8.693   5.700 -0.0334  0.2372 -0.1610
  305MOL0     C41078   6.577   8.758   5.560  0.2664  0.5164  0.2626
  305MOL0     C41079   6.705   8.829   5.514 -0.2328  0.2639  0.9123
  305MOL0     C41080   6.744   8.940   5.608  0.3292  0.1349  0.3532
  305MOL0     C41081   6.850   9.037   5.546 -0.6596  0.1287  0.0040
  305MOL0     C41082   6.981   8.971   5.571 -0.7744 -0.0529  0.2140
  305MOL0     C41083   7.098   9.036   5.495 -0.4294  0.1863 -0.0710
  305MOL0     C41084   7.202   9.091   5.580 -0.6307  0.2215 -0.1300
  305MOL0    Cl41085   7.152   9.253   5.648 -0.7043  0.0184 -0.0597
  305MOL0     C41086   6.244   8.577   5.625 -0.0273  0.8306  1.6229
  305MOL0     C41087   6.182   8.476   5.546 -0.6466 -0.0485  0.0926
  305MOL0     O41088   6.155   8.109   5.572  0.4671  0.6242  0.4105
  305MOL0     C41089   6.101   7.921   5.368  0.2080  0.1913  0.0558
  305MOL0     C41090   6.048   7.827   5.271 -0.5015 -0.3841  0.1821
  305MOL0     N41091   5.720   7.404   4.735 -0.0316  0.4616 -0.1090
  305MOL0     N41092   5.654   7.316   4.793  0.0039  0.1498 -0.6323
  305MOL0     C41093   4.693   7.485   5.318 -0.5695  0.2668 -1.0922
  305MOL0     C41094   4.579   7.553   5.301  0.6927  0.7347  0.2433
  305MOL0     C41095   4.224   7.782   5.277  0.9650  0.3668 -0.4074
  305MOL0     C41096   4.102   7.760   5.342 -0.4984 -0.3579 -0.1336
  305MOL0     C41097   3.989   7.806   5.286  0.2384  0.1753  0.2331
  305MOL0     C41098   3.983   7.856   5.153 -0.3361 -0.1764  0.6711
  305MOL0     O41099   3.871   7.892   5.097  0.0975 -0.0999  0.5690
  305MOL0     C41100   3.794   7.787   5.046  0.5858 -0.4148  0.2144
  305MOL0     C41101   3.738   7.838   4.911 -0.7341 -0.2250  0.7136
  305MOL0     C41102   3.641   7.724   4.861  0.1032  1.3748 -0.3876
  305MOL0     C41103   3.712   7.590   4.836  0.1703  0.4868 -0.3456
  305MOL0     C41104   3.829   7.607   4.749  0.7603 -0.1637 -0.3975
  305MOL0     C41105   3.924   7.640   4.670 -0.4302  0.3872 -0.0723
  305MOL0     C41106   4.107   7.868   5.079  0.4595 -0.3740  1.0298
  305MOL0     C41107   4.225   7.840   5.146 -0.2362 -0.6195 -0.3748
  305MOL0     H41108   4.708   7.864   5.341  0.1950 -0.9725 -0.3179
  305MOL0     H41109   4.916   7.732   5.366  0.0262 -0.0103 -0.7490
  305MOL0     H41110   4.839   7.326   5.498  0.0633  2.1408  0.4217
  305MOL0     H41111   4.860   7.297   5.323 -0.9517  4.3512 -0.3550
  305MOL0     H41112   5.077   7.265   5.536  1.6768 -0.5056 -0.6195
  305MOL0     H41113   4.995   7.140   5.449  0.8380 -0.7689 -3.1641
  305MOL0     H41114   5.064   7.231   5.236 -0.2603 -3.7173  0.0008
  305MOL0     H41115   5.167   7.356   5.322  1.3405 -0.6445 -1.5637
  305MOL0     H41116   5.309   7.179   5.419  4.2191  0.0094 -2.5244
  305MOL0     H41117   5.202   7.053   5.359  1.1695 -0.8978 -2.5375
  305MOL0     H41118   5.353   7.051   5.206  1.8346  1.6097  2.8073
  305MOL0     H41119   5.245   7.159   5.122 -0.7276  3.2769  0.0787
  305MOL0     H41120   5.388   7.360   5.199  1.6390  0.4104  0.6496
  305MOL0     H41121   5.499   7.245   5.277  2.7078 -1.1783 -1.2893
  305MOL0     H41122   5.599   7.294   5.081  0.1054 -1.6719  2.1279
  305MOL0     H41123   5.527   7.140   5.040 -1.7089  0.2587  0.1051
  305MOL0     H41124   5.380   7.410   4.968  0.9972  1.2399 -1.6961
  305MOL0     H41125   5.379   7.256   4.889 -1.2580 -1.0027  1.8047
  305MOL0     H41126   5.474   7.580   4.837  0.3938  0.6076 -0.5909
  305MOL0     H41127   5.801   7.637   4.649  1.9343  1.8462  0.7406
  305MOL0     H41128   5.653   7.732   4.700 -1.3206 -1.5293  1.9258
  305MOL0     H41129   5.747   7.741   4.919 -1.0677  0.4020 -0.3246
  305MOL0     H41130   5.840   7.820   4.785  2.1007  0.3717  0.4249
  305MOL0     H41131   6.025   7.707   4.806  2.6811 -1.2473  2.6655
  305MOL0     H41132   5.947   7.548   4.840 -0.4626 -0.9776 -0.6095
  305MOL0     H41133   6.093   7.677   5.029  0.3132  2.7303  0.3039
  305MOL0     H41134   5.935   7.595   5.057 -0.0185 -0.4400 -0.9336
  305MOL0     H41135   5.885   8.047   5.078 -1.2082 -2.3577 -0.4773
  305MOL0     H41136   5.852   8.247   5.182 -0.0057 -0.4038 -0.3991
  305MOL0     H41137   5.917   8.292   5.344  0.8621 -0.6774  0.6208
  305MOL0     H41138   6.017   8.304   5.203  1.3478 -2.7901 -0.8596
  305MOL0     H41139   6.420   8.241   5.548 -0.3229  0.3165 -1.6976
  305MOL0     H41140   6.531   8.417   5.685  0.3173  1.4146  0.2690
  305MOL0     H41141   6.617   8.762   5.776 -1.9071  2.4283 -1.1372
  305MOL0     H41142   6.645   8.605   5.695 -2.1074 -1.2826 -3.9740
  305MOL0     H41143   6.547   8.683   5.487  0.5014  3.4129 -3.0533
  305MOL0     H41144   6.500   8.835   5.552 -0.1926 -0.0642 -1.0539
  305MOL0     H41145   6.680   8.881   5.421 -1.4735 -0.8327  0.6129
  305MOL0     H41146   6.788   8.760   5.497  0.8884  1.4777  1.2958
  305MOL0     H41147   6.659   8.998   5.645  1.0653  0.3386  1.7881
  305MOL0     H41148   6.793   8.888   5.690 -0.1007 -2.1843 -0.7802
  305MOL0     H41149   6.860   9.129   5.603 -2.6857  0.9704 -0.9057
  305MOL0     H41150   6.832   9.063   5.442  1.4414  1.4809 -0.0704
  305MOL0     H41151   6.999   8.966   5.679  1.3178 -0.3410 -0.1069
  305MOL0     H41152   6.979   8.868   5.532  1.3238  0.1039 -0.4589
  305MOL0     H41153   7.059   9.117   5.432 -0.3513 -0.9495 -1.6309
  305MOL0     H41154   7.135   8.957   5.429  1.3405 -0.9781  2.1995
  305MOL0     H41155   7.288   9.112   5.516 -0.2763 -3.7147 -1.1589
  305MOL0     H41156   7.221   9.021   5.662  0.1642  2.2489  1.5274
  305MOL0     H41157   6.181   8.662   5.649 -2.0864 -0.8396  2.4562
  305MOL0     H41158   6.085   8.498   5.503  0.9307  0.3770 -3.5647
  305MOL0     H41159   6.171   7.882   5.441 -1.1962 -2.0378  0.3149
  305MOL0     H41160   6.090   7.727   5.272 -0.4247 -0.3537  0.0993
  305MOL0     H41161   4.678   7.378   5.309  2.6242 -0.4691  0.7874
  305MOL0     H41162   4.483   7.506   5.283  1.1497  1.1561 -4.5850
  305MOL0     H41163   4.093   7.708   5.437  2.7285  2.7980  2.1544
  305MOL0     H41164   3.894   7.811   5.338  1.1793  0.9038  1.9245
  305MOL0     H41165   3.863   7.704   5.025  0.2720 -0.0797 -2.4771
  305MOL0     H41166   3.711   7.761   5.112 -2.0240  0.8132 -2.3766
  305MOL0     H41167   3.828   7.840   4.849 -0.5529 -0.5113  0.9637
  305MOL0     H41168   3.693   7.938   4.905  0.3013  0.1962 -0.6271
  305MOL0     H41169   3.609   7.762   4.763  1.4853  0.6557 -1.1600
  305MOL0     H41170   3.556   7.716   4.929 -1.2176 -0.6560 -2.1280
  305MOL0     H41171   3.651   7.516   4.784  1.9094 -1.1365 -0.1911
  305MOL0     H41172   3.732   7.540   4.931 -2.2825 -0.5620 -0.3087
  305MOL0     H41173   4.012   7.678   4.621 -0.2768 -1.7539 -1.6421
  305MOL0     H41174   4.110   7.905   4.977  4.6753 -0.0515  1.1034
  305MOL0     H41175   4.320   7.858   5.096 -0.4219 -0.3603 -0.6437
  306MOL0     O41176   5.454   0.409   0.971 -0.6976  0.6256  0.3544
  306MOL0     C41177   5.491   0.527   0.965  0.4662  0.2806 -0.3646
  306MOL0     O41178   5.424   0.628   1.023  1.1475  0.2825  0.3764
  306MOL0     C41179   5.306   0.588   1.099 -0.5037 -0.7081  0.1914
  306MOL0     C41180   5.319   0.521   1.224  0.7128 -0.5177 -0.0747
  306MOL0     C41181   5.204   0.496   1.301  0.9108  0.7665  0.3314
  306MOL0     C41182   5.077   0.491   1.242  0.8898 -0.5929  0.1274
  306MOL0     O41183   4.959   0.439   1.301 -0.1313 -0.1990  0.1904
  306MOL0     C41184   4.974   0.349   1.413  0.4689  0.1946  0.0355
  306MOL0     C41185   4.854   0.255   1.432  0.3786  0.1675  0.1319
  306MOL0     C41186   4.739   0.333   1.514 -1.0698  0.4535  0.1551
  306MOL0     C41187   4.603   0.258   1.495  0.6183 -0.2701  0.7621
  306MOL0     C41188   4.507   0.308   1.602 -0.2491 -0.0329 -0.2431
  306MOL0     C41189   4.370   0.255   1.600  0.6590  0.6537  0.3924
  306MOL0     C41190   4.271   0.301   1.716  0.3189  0.4258  0.7943
  306MOL0     C41191   4.130   0.232   1.692 -0.4143 -0.2377  0.3499
  306MOL0     N41192   4.030   0.277   1.785  0.1692  0.0267  0.2032
  306MOL0     C41193   3.950   0.391   1.772  0.5614 -0.5600 -0.1747
  306MOL0     C41194   3.857   0.383   1.868  0.0059 -0.7465  0.1378
  306MOL0     C41195   3.757   0.488   1.916  0.3276 -0.3395 -0.2994
  306MOL0     C41196   3.632   0.508   1.816 -0.4138  0.0443  0.7456
  306MOL0     C41197   3.552   0.631   1.863  0.1960 -0.1986  0.1928
  306MOL0     C41198   3.406   0.614   1.824  0.3352 -1.2211 -1.0889
  306MOL0     O41199   3.388   0.599   1.685 -0.8840 -0.4753 -0.3791
  306MOL0     C41200   3.278   0.543   1.639 -0.3048  0.6339 -0.6026
  306MOL0     C41201   3.263   0.541   1.504 -0.1599 -0.2630 -0.9292
  306MOL0     C41202   3.150   0.479   1.452 -0.0052 -0.4317  0.5152
  306MOL0     C41203   3.132   0.503   1.306  0.1878  0.2344 -0.1816
  306MOL0     C41204   3.048   0.424   1.535  0.1806  0.0847  0.7302
  306MOL0     C41205   2.922   0.379   1.473  0.3485  0.1098 -0.1365
  306MOL0     O41206   2.812   0.393   1.557 -0.0645 -0.1102 -0.5221
  306MOL0     C41207   2.677   0.384   1.534  0.0569  0.1384  0.6027
  306MOL0     C41208   2.601   0.389   1.649  1.1063  0.0686 -0.4452
  306MOL0     C41209   2.464   0.390   1.625 -0.2496 -0.4760  0.1147
  306MOL0     C41210   2.406   0.358   1.506  0.8184 -0.2592  0.1826
  306MOL0     O41211   2.270   0.341   1.496 -0.2655 -0.2848 -0.3302
  306MOL0     C41212   2.216   0.404   1.386  0.6770  0.0208 -0.1048
  306MOL0     C41213   2.069   0.452   1.398 -0.2284 -1.3459 -0.4864
  306MOL0     C41214   2.023   0.578   1.302  0.2988  0.7073  0.1028
  306MOL0     C41215   2.039   0.559   1.160 -0.2824  0.2823 -0.2659
  306MOL0     C41216   2.003   0.691   1.088 -0.4765 -0.0233  0.8085
  306MOL0     C41217   2.088   0.813   1.134  0.2155 -0.6663 -0.5686
  306MOL0     C41218   2.097   0.928   1.035  0.7011 -0.6144 -0.3333
  306MOL0     C41219   2.208   0.892   0.939  0.4162 -0.4061  0.4787
  306MOL0    Cl41220   2.222   1.029   0.827  0.1997  0.1243 -0.7103
  306MOL0     C41221   2.486   0.334   1.395  0.6696 -0.5445  0.1487
  306MOL0     C41222   2.623   0.360   1.402  0.3658 -0.2764  0.0787
  306MOL0     O41223   2.917   0.331   1.357  0.1693 -0.5193  0.6310
  306MOL0     C41224   3.050   0.450   1.674 -0.1706  0.7357  0.3155
  306MOL0     C41225   3.176   0.497   1.723 -0.4497  0.0137  0.1218
  306MOL0     N41226   3.877   0.266   1.933 -0.2150  0.5406 -0.6188
  306MOL0     N41227   3.978   0.202   1.882  0.0815  0.3499 -1.2946
  306MOL0     C41228   5.066   0.546   1.107 -0.1918  0.7526  0.2494
  306MOL0     C41229   5.178   0.603   1.040 -0.5300  0.7353  0.3124
  306MOL0     C41230   5.619   0.563   0.903  0.0697 -0.0147 -0.3244
  306MOL0     C41231   5.686   0.675   0.957 -1.0622  0.2260 -0.4013
  306MOL0     C41232   5.823   0.693   0.922 -0.3331 -0.9351 -0.4875
  306MOL0     C41233   5.886   0.609   0.835  0.6690  0.0376 -0.3227
  306MOL0     O41234   6.005   0.660   0.807 -0.7436  0.2051  0.3382
  306MOL0     C41235   6.081   0.602   0.692 -0.0668  0.0459 -0.1905
  306MOL0     C41236   6.180   0.489   0.734  0.3953  0.0496  0.6457
  306MOL0     C41237   6.320   0.548   0.758  0.9185 -0.6943 -0.0798
  306MOL0     C41238   6.404   0.445   0.830  0.1383  0.6832  0.2276
  306MOL0     C41239   6.534   0.501   0.868  0.8803  0.0465  0.3185
  306MOL0     C41240   6.633   0.545   0.923  0.1359 -0.3813  1.2942
  306MOL0     C41241   5.824   0.495   0.789 -0.4005 -0.6899 -0.2420
  306MOL0     C41242   5.690   0.468   0.828 -0.7865 -0.2730  0.4823
  306MOL0     H41243   5.412   0.494   1.274  0.4426 -0.0063  0.7058
  306MOL0     H41244   5.226   0.439   1.391 -1.2875  0.5595  0.8092
  306MOL0     H41245   5.060   0.286   1.387 -0.7904 -1.0598 -1.3442
  306MOL0     H41246   4.991   0.396   1.510 -3.4495  1.2367  0.3804
  306MOL0     H41247   4.821   0.223   1.333  3.1699  2.5819 -1.7630
  306MOL0     H41248   4.886   0.166   1.488  1.3318  0.3393 -0.1146
  306MOL0     H41249   4.765   0.338   1.621  0.3888 -2.4712  0.0416
  306MOL0     H41250   4.725   0.435   1.476 -0.4371  0.4271 -0.1615
  306MOL0     H41251   4.565   0.285   1.396  1.3912 -1.1923  0.1991
  306MOL0     H41252   4.630   0.154   1.513 -2.5872 -0.8893  2.7966
  306MOL0     H41253   4.547   0.269   1.697 -0.3685 -1.7260 -0.8657
  306MOL0     H41254   4.493   0.417   1.602 -1.0463 -0.1352 -0.3774
  306MOL0     H41255   4.320   0.271   1.504  0.1157 -2.6959  0.0037
  306MOL0     H41256   4.369   0.146   1.609  0.0457  0.6515  0.4017
  306MOL0     H41257   4.327   0.292   1.810  1.4416 -0.4019  0.0849
  306MOL0     H41258   4.246   0.404   1.692  1.1159  0.1131 -1.7090
  306MOL0     H41259   4.146   0.126   1.715 -0.5039 -0.4015 -0.3161
  306MOL0     H41260   4.087   0.231   1.591  2.6310  0.0083 -1.0494
  306MOL0     H41261   3.968   0.472   1.702  3.5539 -1.5428 -0.6917
  306MOL0     H41262   3.716   0.465   2.015 -2.1196 -0.8738 -1.3476
  306MOL0     H41263   3.815   0.580   1.925  1.2319 -1.0834  2.0142
  306MOL0     H41264   3.570   0.420   1.798  0.7563 -0.7271  0.3653
  306MOL0     H41265   3.673   0.530   1.716 -0.1578  0.3629  0.9170
  306MOL0     H41266   3.591   0.725   1.823  0.5424  0.2513  1.5447
  306MOL0     H41267   3.562   0.656   1.969  0.1497  0.9482 -0.0629
  306MOL0     H41268   3.350   0.698   1.864  3.8227  1.0056 -0.4657
  306MOL0     H41269   3.392   0.523   1.884  3.2931 -0.4830  0.9225
  306MOL0     H41270   3.338   0.588   1.442 -0.8948  0.2028 -1.4823
  306MOL0     H41271   3.032   0.543   1.286  0.7655  2.2077  0.6934
  306MOL0     H41272   3.208   0.561   1.253 -2.0104  1.5115 -2.1409
  306MOL0     H41273   3.151   0.407   1.257  2.8559  0.5775  0.0337
  306MOL0     H41274   2.634   0.416   1.749 -1.3557  2.1597 -0.0797
  306MOL0     H41275   2.392   0.411   1.703  2.9931 -1.2007  3.5865
  306MOL0     H41276   2.269   0.494   1.354  0.3743 -1.0899 -4.2801
  306MOL0     H41277   2.224   0.337   1.300  2.1657  1.0637 -0.8271
  306MOL0     H41278   2.009   0.362   1.382 -2.3061  0.4224 -3.9624
  306MOL0     H41279   2.055   0.478   1.503 -2.0930 -3.0677 -0.2382
  306MOL0     H41280   2.088   0.660   1.334 -0.1688 -0.0768  3.3336
  306MOL0     H41281   1.921   0.597   1.335 -0.7779 -0.1772 -2.4096
  306MOL0     H41282   2.143   0.533   1.137 -0.0449  1.7958 -1.0285
  306MOL0     H41283   1.960   0.490   1.127 -2.3223  0.9100  2.8892
  306MOL0     H41284   1.897   0.708   1.112 -0.1081  3.6697  0.4265
  306MOL0     H41285   1.994   0.700   0.979 -1.2196  1.6777  0.9772
  306MOL0     H41286   2.052   0.852   1.230  1.4476  2.1572 -1.1608
  306MOL0     H41287   2.189   0.781   1.161  0.3568  2.1400  2.8819
  306MOL0     H41288   2.126   1.021   1.083  0.5280 -0.6985 -0.0615
  306MOL0     H41289   2.001   0.943   0.985  0.6658 -1.9356 -0.7222
  306MOL0     H41290   2.190   0.796   0.892 -0.6630  0.5122 -1.0753
  306MOL0     H41291   2.302   0.881   0.994 -0.7174  0.5161  2.7443
  306MOL0     H41292   2.444   0.305   1.299 -0.6612  0.0234  0.5398
  306MOL0     H41293   2.687   0.345   1.316  2.0693 -1.6787  1.5235
  306MOL0     H41294   2.974   0.408   1.740 -0.6214  1.0201 -0.0171
  306MOL0     H41295   3.189   0.506   1.830  2.8100 -1.6683 -0.0154
  306MOL0     H41296   4.966   0.533   1.067  0.2529  0.2877 -0.7407
  306MOL0     H41297   5.153   0.638   0.940 -1.4111 -0.7614 -0.0323
  306MOL0     H41298   5.638   0.740   1.029 -0.7063  0.4730 -0.3865
  306MOL0     H41299   5.870   0.787   0.946  2.6073 -2.1150 -1.2753
  306MOL0     H41300   6.007   0.553   0.628  0.0442 -1.0709  0.5030
  306MOL0     H41301   6.141   0.675   0.638 -1.2144 -0.1850 -1.8596
  306MOL0     H41302   6.193   0.413   0.657 -2.4246  2.4606 -2.5255
  306MOL0     H41303   6.145   0.437   0.823 -0.7489 -3.5074 -1.6575
  306MOL0     H41304   6.314   0.644   0.810  1.5573 -0.4749 -0.3908
  306MOL0     H41305   6.366   0.578   0.663  4.2476 -0.7404  1.3810
  306MOL0     H41306   6.425   0.359   0.765 -1.5403  0.3440  0.1029
  306MOL0     H41307   6.360   0.420   0.927  2.9971  0.1961  1.5009
  306MOL0     H41308   6.730   0.575   0.958  0.2961 -1.9183  2.2619
  306MOL0     H41309   5.868   0.416   0.730 -2.2182 -2.3699  0.5463
  306MOL0     H41310   5.643   0.382   0.781 -1.8717  0.5488  0.0152
  307MOL0     O41311   9.704   4.761   4.790 -0.8647  0.0970  0.6705
  307MOL0     C41312   9.798   4.834   4.833  1.0760 -0.1068 -0.1174
  307MOL0     O41313   9.781   4.954   4.890  0.1546 -0.7380  0.0756
  307MOL0     C41314   9.654   5.009   4.891  0.8314  0.1383  0.0758
  307MOL0     C41315   9.598   5.055   4.769  0.0041 -0.5804 -0.3784
  307MOL0     C41316   9.479   5.124   4.765  0.6919  0.4495  0.0960
  307MOL0     C41317   9.404   5.134   4.873  0.5627  0.4880 -0.4021
  307MOL0     O41318   9.278   5.192   4.854  0.1338 -0.1264  0.5706
  307MOL0     C41319   9.180   5.218   4.958 -0.2765  0.4554 -0.3945
  307MOL0     C41320   9.046   5.275   4.901  0.0632 -0.5385  0.2781
  307MOL0     C41321   8.916   5.258   4.984  0.8878 -0.1240  0.2339
  307MOL0     C41322   8.789   5.306   4.920  0.4932 -0.4125  0.2261
  307MOL0     C41323   8.663   5.251   4.994 -1.2145 -0.9968  0.1225
  307MOL0     C41324   8.538   5.301   4.923 -0.0676  0.0230 -0.1584
  307MOL0     C41325   8.415   5.304   5.009 -0.2831 -0.2106 -0.8487
  307MOL0     C41326   8.378   5.164   5.065 -1.1477  0.4729  0.9530
  307MOL0     N41327   8.263   5.111   4.997 -0.7277  0.3689  0.0669
  307MOL0     C41328   8.125   5.127   5.039 -0.0609  0.2954 -0.7196
  307MOL0     C41329   8.056   5.062   4.945 -0.3059 -0.2062  0.5260
  307MOL0     C41330   7.905   5.048   4.943  0.9130 -0.5566 -0.5017
  307MOL0     C41331   7.870   4.909   4.998 -0.3062  0.2482 -0.0000
  307MOL0     C41332   7.832   4.904   5.144  0.2671  0.0888 -0.6800
  307MOL0     C41333   7.686   4.954   5.158  0.1269  0.1129  0.0556
  307MOL0     O41334   7.594   4.851   5.111 -0.2927 -0.0915 -0.3202
  307MOL0     C41335   7.465   4.869   5.128  1.4279  0.6289 -0.1606
  307MOL0     C41336   7.379   4.775   5.067 -0.4011  0.2924  0.4543
  307MOL0     C41337   7.235   4.776   5.074 -0.2680 -0.2498  0.2897
  307MOL0     C41338   7.161   4.664   5.000  0.8693 -1.0710 -0.0106
  307MOL0     C41339   7.170   4.880   5.151  0.3608 -0.4522 -0.1765
  307MOL0     C41340   7.028   4.904   5.160 -0.7068 -0.4032 -0.3596
  307MOL0     O41341   6.941   4.803   5.146  0.4158  0.1789 -0.2758
  307MOL0     C41342   6.828   4.818   5.071 -0.5076  0.0810 -0.8396
  307MOL0     C41343   6.798   4.919   4.979  0.0611  0.9971  0.0036
  307MOL0     C41344   6.674   4.929   4.922 -0.0008  0.6672 -0.3408
  307MOL0     C41345   6.575   4.836   4.950  0.4764 -0.1553  0.5252
  307MOL0     O41346   6.437   4.856   4.932 -0.1991  0.1371 -0.1609
  307MOL0     C41347   6.388   4.986   4.948  0.2908  0.3251  0.8224
  307MOL0     C41348   6.243   4.964   4.971  0.4068  0.4986 -0.8123
  307MOL0     C41349   6.159   4.979   4.842 -0.6962 -0.4041  0.5992
  307MOL0     C41350   6.017   4.920   4.873  0.0430 -0.4914 -0.5302
  307MOL0     C41351   5.925   4.911   4.748 -0.7195  0.0151  0.3268
  307MOL0     C41352   5.787   4.865   4.792 -0.0397  0.1831  0.5818
  307MOL0     C41353   5.697   4.854   4.674  0.6257 -0.0494  0.3846
  307MOL0     C41354   5.575   4.767   4.714  0.2132 -0.2084  0.1291
  307MOL0    Cl41355   5.476   4.710   4.567 -0.5026 -0.0447 -0.2283
  307MOL0     C41356   6.606   4.734   5.031 -0.0401  0.9834  0.1257
  307MOL0     C41357   6.739   4.722   5.085  0.0479  0.4450 -0.1705
  307MOL0     O41358   7.001   5.023   5.172 -0.0614  1.0044  0.6326
  307MOL0     C41359   7.263   4.975   5.212  0.3686 -0.1989 -0.1925
  307MOL0     C41360   7.405   4.967   5.201 -0.7008 -0.2909 -0.0420
  307MOL0     N41361   8.141   5.004   4.851  0.7103 -0.0156 -0.3542
  307MOL0     N41362   8.259   5.032   4.886  0.2234  0.4926 -0.1236
  307MOL0     C41363   9.443   5.084   4.995  0.0549  0.3935  1.1443
  307MOL0     C41364   9.571   5.015   5.000  0.5661  0.3606 -0.3053
  307MOL0     C41365   9.936   4.780   4.824 -0.2166  0.5709  0.1600
  307MOL0     C41366   9.948   4.652   4.767  0.4292  0.3109 -1.2681
  307MOL0     C41367  10.073   4.594   4.772  0.4282  0.1720  0.4146
  307MOL0     C41368  10.191   4.658   4.830 -0.3460  0.5068 -0.2653
  307MOL0     O41369  10.302   4.585   4.856  0.0440  0.5183  0.7764
  307MOL0     C41370  10.357   4.490   4.760 -0.5335 -0.1930 -0.2738
  307MOL0     C41371  10.509   4.476   4.786 -0.5361 -0.0688 -0.1020
  307MOL0     C41372  10.570   4.358   4.696  0.5130 -0.5471  0.3821
  307MOL0     C41373  10.716   4.335   4.735 -0.2307  0.4372 -0.0289
  307MOL0     C41374  10.703   4.237   4.840 -0.5086 -0.4255 -0.9842
  307MOL0     C41375  10.694   4.147   4.920 -0.9955  1.1226 -0.1498
  307MOL0     C41376  10.177   4.784   4.880 -0.7902 -0.1824 -0.6826
  307MOL0     C41377  10.048   4.840   4.883 -0.7440  0.2027  0.6733
  307MOL0     H41378   9.657   5.057   4.678  3.3922 -1.4251  1.6509
  307MOL0     H41379   9.435   5.158   4.671 -2.0317  1.7706  1.7299
  307MOL0     H41380   9.151   5.128   5.014 -1.9266  0.1749 -1.6368
  307MOL0     H41381   9.220   5.280   5.039 -1.2927 -0.0400  0.5096
  307MOL0     H41382   9.054   5.383   4.886 -4.4611 -0.3021 -2.3086
  307MOL0     H41383   9.029   5.231   4.802  1.3464 -1.0885  0.2804
  307MOL0     H41384   8.902   5.154   5.014  0.2378  0.1141  0.7964
  307MOL0     H41385   8.925   5.321   5.073 -0.5161  2.4696 -1.3349
  307MOL0     H41386   8.792   5.416   4.912  0.7156 -0.4312  0.0485
  307MOL0     H41387   8.776   5.259   4.822 -1.1392 -2.6091  1.4126
  307MOL0     H41388   8.668   5.142   5.004 -0.3028 -1.4470 -3.7809
  307MOL0     H41389   8.659   5.302   5.091 -2.1610  0.3795 -0.6128
  307MOL0     H41390   8.564   5.394   4.872  3.1695 -1.5636 -1.7074
  307MOL0     H41391   8.528   5.226   4.844  2.0608 -0.4672 -0.0243
  307MOL0     H41392   8.430   5.374   5.092 -2.6577 -0.0177 -0.5031
  307MOL0     H41393   8.321   5.337   4.964  0.6590  3.4505 -0.4603
  307MOL0     H41394   8.351   5.163   5.171 -1.3930 -1.9162  0.9285
  307MOL0     H41395   8.457   5.089   5.061 -0.8775  0.6608  2.3876
  307MOL0     H41396   8.087   5.176   5.128 -1.1399  0.4343 -1.2352
  307MOL0     H41397   7.860   5.124   5.008  0.1961 -0.5731 -0.9643
  307MOL0     H41398   7.861   5.071   4.845 -0.5148 -0.2994  0.1846
  307MOL0     H41399   7.955   4.840   4.986 -1.6929 -1.2866 -1.7296
  307MOL0     H41400   7.793   4.850   4.945 -0.7715  0.0767  0.8544
  307MOL0     H41401   7.900   4.971   5.197  0.4645 -0.6598  0.0261
  307MOL0     H41402   7.833   4.802   5.184 -1.8579  1.0522  2.2407
  307MOL0     H41403   7.677   5.043   5.096  1.7307 -0.5417 -1.1648
  307MOL0     H41404   7.673   4.989   5.261 -0.5258  0.0919 -0.0116
  307MOL0     H41405   7.435   4.701   5.010  1.8825  3.8073 -2.2960
  307MOL0     H41406   7.228   4.611   4.932  0.4456 -1.8940  0.1996
  307MOL0     H41407   7.103   4.594   5.060 -1.3175  0.8995  0.3344
  307MOL0     H41408   7.078   4.707   4.944 -0.9324 -0.7103  2.7359
  307MOL0     H41409   6.867   4.990   4.934  0.2061  2.1068  1.8892
  307MOL0     H41410   6.638   4.997   4.845 -1.0606 -0.2377 -0.6732
  307MOL0     H41411   6.441   5.046   5.023 -0.3006  2.6149 -0.4640
  307MOL0     H41412   6.385   5.048   4.857  0.3495  2.5380  2.2504
  307MOL0     H41413   6.237   4.876   5.037  0.1199  1.9201  1.1537
  307MOL0     H41414   6.219   5.052   5.031 -1.7121 -0.5136 -0.0959
  307MOL0     H41415   6.209   4.914   4.769  0.1976 -0.6156  1.3848
  307MOL0     H41416   6.149   5.083   4.810 -1.1031 -0.0615  1.7796
  307MOL0     H41417   6.028   4.831   4.935 -2.1293 -0.7052 -0.3896
  307MOL0     H41418   5.964   4.993   4.936  1.4913 -1.3850  1.8242
  307MOL0     H41419   5.970   4.845   4.673 -3.7663 -1.8906  0.0231
  307MOL0     H41420   5.929   5.012   4.707 -1.2134  0.6863  1.8608
  307MOL0     H41421   5.791   4.765   4.835  0.3874 -0.0660 -0.0200
  307MOL0     H41422   5.740   4.932   4.865 -1.2711  0.5411 -0.4898
  307MOL0     H41423   5.749   4.798   4.595 -3.2193 -1.8042 -1.1379
  307MOL0     H41424   5.664   4.952   4.638 -2.0958 -0.9448  0.2850
  307MOL0     H41425   5.519   4.825   4.788  0.2048  1.3164 -1.0126
  307MOL0     H41426   5.611   4.679   4.768 -4.1395 -1.9105  0.6257
  307MOL0     H41427   6.535   4.653   5.048 -0.6753  1.3195 -0.8088
  307MOL0     H41428   6.763   4.630   5.138  2.1352  0.9742 -0.1353
  307MOL0     H41429   7.220   5.062   5.260  1.2201  1.6042 -2.4919
  307MOL0     H41430   7.472   5.045   5.237  0.1638 -1.3797  0.7787
  307MOL0     H41431   9.382   5.079   5.085 -2.4337  0.7102 -0.4042
  307MOL0     H41432   9.605   4.965   5.090  2.7688 -0.4833 -1.5344
  307MOL0     H41433   9.865   4.591   4.734  0.0659 -2.6266  4.0317
  307MOL0     H41434  10.079   4.494   4.729 -0.4096  0.5137 -0.5126
  307MOL0     H41435  10.305   4.395   4.774 -3.5347  1.0993 -1.6583
  307MOL0     H41436  10.342   4.518   4.655 -0.7381 -0.9028 -0.4368
  307MOL0     H41437  10.526   4.450   4.891  1.0436  0.5097 -0.1886
  307MOL0     H41438  10.566   4.568   4.770 -0.1636 -0.0566  1.1852
  307MOL0     H41439  10.571   4.392   4.592 -1.9727  0.0997  0.5093
  307MOL0     H41440  10.503   4.272   4.695 -1.2136  0.7504 -1.2928
  307MOL0     H41441  10.764   4.431   4.760 -0.5096  0.4126  0.6062
  307MOL0     H41442  10.763   4.283   4.650 -0.8555  2.3056 -1.5911
  307MOL0     H41443  10.683   4.061   4.982  2.4536  1.0105  0.5408
  307MOL0     H41444  10.260   4.838   4.925 -2.0622  2.3448 -1.1755
  307MOL0     H41445  10.049   4.938   4.929 -0.0142  0.8290 -0.6251
  308MOL0     O41446  10.136   1.291   7.707 -0.5507  0.5519  0.1099
  308MOL0     C41447  10.151   1.200   7.786  0.2977  0.4634 -0.7822
  308MOL0     O41448  10.045   1.149   7.854  0.7840  0.4531 -0.6103
  308MOL0     C41449   9.922   1.200   7.825 -0.9030 -0.1013 -0.4145
  308MOL0     C41450   9.875   1.304   7.909 -0.4938 -0.3973  0.0835
  308MOL0     C41451   9.750   1.364   7.891 -0.0608  0.1328  0.5448
  308MOL0     C41452   9.669   1.302   7.797 -0.3317  0.5525 -0.0061
  308MOL0     O41453   9.534   1.331   7.797 -0.2532 -0.2336  0.3698
  308MOL0     C41454   9.515   1.448   7.716 -0.5383  1.2344  1.0428
  308MOL0     C41455   9.377   1.486   7.750  0.1301 -0.1431  0.6369
  308MOL0     C41456   9.259   1.395   7.732  0.4318  0.7874  0.0944
  308MOL0     C41457   9.141   1.469   7.793  0.4022  0.3464 -0.4551
  308MOL0     C41458   9.010   1.384   7.829 -1.1980 -0.2506  0.3460
  308MOL0     C41459   8.918   1.472   7.905 -0.3530  0.2792  0.4725
  308MOL0     C41460   8.783   1.401   7.941 -0.8793 -0.2208 -0.3964
  308MOL0     C41461   8.727   1.323   7.822  0.5441 -0.5398 -0.1410
  308MOL0     N41462   8.587   1.271   7.849 -0.1517 -0.1352 -0.7347
  308MOL0     C41463   8.549   1.149   7.820  0.1358 -0.1865  0.3923
  308MOL0     C41464   8.417   1.149   7.847  0.1852 -0.2887  0.0017
  308MOL0     C41465   8.331   1.016   7.837  0.4205 -0.3491 -1.0336
  308MOL0     C41466   8.294   0.987   7.696  0.1387  0.1917  0.8020
  308MOL0     C41467   8.188   1.091   7.659 -0.6576 -0.0934  0.2022
  308MOL0     C41468   8.044   1.074   7.716  0.1029 -0.6758 -0.2174
  308MOL0     O41469   7.969   1.187   7.690  0.2525 -0.0905  0.6145
  308MOL0     C41470   7.843   1.195   7.741  0.7457 -0.2568 -0.8879
  308MOL0     C41471   7.752   1.294   7.699 -0.6602  0.2861  0.3699
  308MOL0     C41472   7.620   1.305   7.746  1.0944  0.2694 -0.4528
  308MOL0     C41473   7.527   1.423   7.698 -0.5685 -0.6590  0.0742
  308MOL0     C41474   7.570   1.209   7.842  0.5955 -0.1215 -0.7722
  308MOL0     C41475   7.427   1.202   7.897 -0.5658  0.0998  0.1080
  308MOL0     O41476   7.406   1.145   8.011  0.3163  0.1767  0.1085
  308MOL0     C41477   7.286   1.156   8.076  0.6118 -0.0524 -0.2327
  308MOL0     C41478   7.270   1.217   8.202 -0.3987 -0.0831  0.0767
  308MOL0     C41479   7.149   1.243   8.268 -0.2573 -0.6860 -0.6616
  308MOL0     C41480   7.036   1.163   8.224  0.4944  0.1210 -0.1354
  308MOL0     O41481   6.910   1.164   8.283 -0.6175 -0.3556  0.0299
  308MOL0     C41482   6.893   1.232   8.412  0.7595  0.2769  0.0131
  308MOL0     C41483   6.749   1.265   8.462 -0.7328 -0.7385  0.9013
  308MOL0     C41484   6.659   1.149   8.444 -0.1309 -0.1319  0.7781
  308MOL0     C41485   6.527   1.200   8.496  0.1943 -0.4373 -0.7482
  308MOL0     C41486   6.413   1.097   8.488 -1.2385  0.3344 -0.0347
  308MOL0     C41487   6.287   1.134   8.579  0.3617 -0.9117  0.7515
  308MOL0     C41488   6.211   1.000   8.577 -0.0351 -0.4363 -0.0065
  308MOL0     C41489   6.063   1.025   8.553 -0.8401 -0.1656  0.3215
  308MOL0    Cl41490   5.996   1.074   8.715  0.0295 -0.0486  0.5792
  308MOL0     C41491   7.048   1.094   8.104  0.2677 -0.4401  0.4230
  308MOL0     C41492   7.168   1.100   8.027 -0.4293 -0.6626 -0.8863
  308MOL0     O41493   7.344   1.245   7.814 -0.3529 -0.0561 -0.0588
  308MOL0     C41494   7.661   1.117   7.890  0.4176  0.7716  0.3423
  308MOL0     C41495   7.791   1.114   7.839  0.5222 -0.6594  0.7576
  308MOL0     N41496   8.375   1.285   7.874  0.1302  0.2389 -0.7301
  308MOL0     N41497   8.480   1.349   7.882 -0.9436 -0.7029 -0.7172
  308MOL0     C41498   9.715   1.198   7.719 -0.3021 -0.1275  0.0687
  308MOL0     C41499   9.838   1.156   7.731  0.2658  0.0665 -0.7539
  308MOL0     C41500  10.292   1.163   7.820 -0.5954  0.9350 -0.2114
  308MOL0     C41501  10.323   1.098   7.939  0.2552  0.1725 -0.0759
  308MOL0     C41502  10.456   1.051   7.963  0.7206 -0.2838 -0.6165
  308MOL0     C41503  10.555   1.075   7.876  0.0786 -1.1606  0.2529
  308MOL0     O41504  10.692   1.050   7.893  0.4494  0.4005  0.8467
  308MOL0     C41505  10.729   1.004   8.023  0.7472 -0.1306 -0.2321
  308MOL0     C41506  10.878   0.965   8.009  0.1102  0.5940  0.3020
  308MOL0     C41507  10.964   1.094   7.993 -0.9795 -0.0671 -0.0273
  308MOL0     C41508  11.119   1.074   8.010  0.7439  0.3392  0.2792
  308MOL0     C41509  11.181   1.105   7.877  0.7437  0.4371 -0.5684
  308MOL0     C41510  11.231   1.143   7.772  0.1380  1.1920  0.8157
  308MOL0     C41511  10.524   1.143   7.762  0.0410 -0.3546 -0.2673
  308MOL0     C41512  10.396   1.193   7.732  0.1379 -0.0557 -0.0456
  308MOL0     H41513   9.936   1.350   7.987 -1.2890  0.5657  0.1689
  308MOL0     H41514   9.713   1.439   7.961  2.6588  1.5035  0.6666
  308MOL0     H41515   9.590   1.524   7.739  0.3584  0.8251 -0.3468
  308MOL0     H41516   9.524   1.419   7.610  3.1238  2.3528  0.8875
  308MOL0     H41517   9.394   1.518   7.853  0.1488  3.5520 -0.3781
  308MOL0     H41518   9.359   1.580   7.697  1.4874  0.5095  1.2809
  308MOL0     H41519   9.243   1.369   7.627 -0.8377  1.5960  0.0642
  308MOL0     H41520   9.273   1.302   7.788 -0.5230  1.5616  1.6978
  308MOL0     H41521   9.174   1.517   7.886 -1.2481 -0.8276  0.8102
  308MOL0     H41522   9.111   1.555   7.731  1.4602  1.8299  0.9955
  308MOL0     H41523   8.970   1.335   7.740  0.4018 -0.7351 -0.1563
  308MOL0     H41524   9.035   1.311   7.907 -1.5440 -0.5766  0.1530
  308MOL0     H41525   8.972   1.522   7.986  1.2443 -0.7232  0.0689
  308MOL0     H41526   8.884   1.552   7.839 -1.6177 -2.6402 -2.6769
  308MOL0     H41527   8.798   1.340   8.031  3.2314 -1.2251 -1.5334
  308MOL0     H41528   8.706   1.474   7.968 -1.1663 -0.9108  0.7144
  308MOL0     H41529   8.789   1.237   7.793 -0.3643 -0.8822 -1.1346
  308MOL0     H41530   8.723   1.401   7.745  0.0170 -1.3182 -0.9258
  308MOL0     H41531   8.618   1.075   7.781  0.7935  0.8408 -0.4514
  308MOL0     H41532   8.391   0.934   7.878  1.6964  0.4331 -1.2674
  308MOL0     H41533   8.243   1.019   7.902  1.0278  3.1100 -0.1742
  308MOL0     H41534   8.261   0.884   7.679  0.6665  0.0783  0.4512
  308MOL0     H41535   8.382   0.998   7.632 -0.4347  1.3525  0.1837
  308MOL0     H41536   8.177   1.092   7.550 -0.2497  0.0863  0.1633
  308MOL0     H41537   8.230   1.189   7.682  0.1427 -0.1549 -0.8878
  308MOL0     H41538   8.049   1.064   7.825 -0.3008 -1.9803 -0.3087
  308MOL0     H41539   8.001   0.982   7.675  0.8068 -1.3950  0.6295
  308MOL0     H41540   7.792   1.362   7.625  1.3036 -0.1610  0.9662
  308MOL0     H41541   7.486   1.458   7.793  1.5943 -0.4660  0.9850
  308MOL0     H41542   7.591   1.495   7.647 -0.6858 -0.1606  0.6256
  308MOL0     H41543   7.455   1.393   7.620 -0.0594 -0.2548 -0.5608
  308MOL0     H41544   7.347   1.259   8.265 -1.1719 -2.7528  3.0310
  308MOL0     H41545   7.152   1.291   8.365 -1.3696  0.2772 -1.0786
  308MOL0     H41546   6.944   1.177   8.491  1.1714  1.3078  0.4822
  308MOL0     H41547   6.936   1.328   8.382 -0.7069 -0.4550 -5.6252
  308MOL0     H41548   6.774   1.305   8.561  0.3108  1.1164 -0.0465
  308MOL0     H41549   6.706   1.345   8.401  0.5806  1.8955  3.1558
  308MOL0     H41550   6.687   1.055   8.494  2.0151  1.1983  2.2454
  308MOL0     H41551   6.653   1.133   8.336  1.1468 -0.5616  0.7516
  308MOL0     H41552   6.539   1.232   8.600 -1.1092  0.4814 -0.8450
  308MOL0     H41553   6.494   1.290   8.443 -0.8517  1.0513  2.1927
  308MOL0     H41554   6.454   1.003   8.525 -2.4778 -1.1469 -2.2457
  308MOL0     H41555   6.399   1.072   8.383 -1.1207 -1.1741  0.2947
  308MOL0     H41556   6.311   1.169   8.680  0.3915 -0.7975  0.7052
  308MOL0     H41557   6.222   1.206   8.530  0.2333 -2.2480 -1.1527
  308MOL0     H41558   6.234   0.946   8.669 -0.3164  0.8767  0.8611
  308MOL0     H41559   6.250   0.934   8.499 -1.7325  0.3619 -1.5851
  308MOL0     H41560   6.010   0.934   8.525  0.6226 -1.6942  2.2331
  308MOL0     H41561   6.043   1.111   8.488 -0.4305  2.0516  2.9016
  308MOL0     H41562   6.962   1.038   8.069  1.4601 -2.3014  0.2970
  308MOL0     H41563   7.179   1.053   7.930  2.8178  0.1159 -0.9910
  308MOL0     H41564   7.615   1.046   7.958 -1.3164 -1.1439 -2.6153
  308MOL0     H41565   7.851   1.034   7.880  2.7531  1.0986  1.1198
  308MOL0     H41566   9.658   1.145   7.643  1.4388  0.2006 -1.5315
  308MOL0     H41567   9.874   1.072   7.670 -0.1245 -1.0734  0.5351
  308MOL0     H41568  10.245   1.087   8.014 -0.4977  1.5770 -0.6364
  308MOL0     H41569  10.466   1.007   8.062  1.5523 -0.7571 -0.9026
  308MOL0     H41570  10.717   1.077   8.103  1.1618  1.1043 -1.2570
  308MOL0     H41571  10.670   0.915   8.046 -1.9847  2.1565  2.2982
  308MOL0     H41572  10.897   0.907   7.918  0.6488  1.2741 -0.0334
  308MOL0     H41573  10.900   0.916   8.104 -1.9653  1.2967  1.2185
  308MOL0     H41574  10.930   1.159   8.075 -2.4985  0.4012 -0.9887
  308MOL0     H41575  10.961   1.140   7.894  1.1179  1.4655  0.5408
  308MOL0     H41576  11.140   0.969   8.036  0.4573 -0.9553 -3.9612
  308MOL0     H41577  11.155   1.143   8.087 -0.4294  0.2095  0.9855
  308MOL0     H41578  11.285   1.164   7.682  0.2365  1.7421  1.0010
  308MOL0     H41579  10.608   1.172   7.700  1.0589 -0.2090  1.1205
  308MOL0     H41580  10.386   1.240   7.635  4.1426 -1.4554 -1.3275
  309MOL0     O41581  10.365   1.330   2.936 -0.7398 -0.0463 -0.5112
  309MOL0     C41582  10.359   1.213   2.899  0.4153  0.7924  0.0502
  309MOL0     O41583  10.307   1.167   2.775  0.5155 -0.4305  0.1060
  309MOL0     C41584  10.253   1.270   2.702 -0.5099 -0.0863 -0.8627
  309MOL0     C41585  10.147   1.341   2.753  0.4525 -0.1398  0.4882
  309MOL0     C41586  10.081   1.442   2.673 -0.9685 -0.5449  0.2070
  309MOL0     C41587  10.135   1.468   2.537 -0.0710  0.1644 -0.1288
  309MOL0     O41588  10.064   1.541   2.448  0.6781 -0.7876  1.0017
  309MOL0     C41589  10.115   1.581   2.321  0.3501 -0.0739  0.7559
  309MOL0     C41590  10.016   1.665   2.249 -0.1713 -0.8199  0.0323
  309MOL0     C41591   9.985   1.790   2.338  0.0154 -0.0356  0.0620
  309MOL0     C41592   9.914   1.890   2.255 -0.7642 -0.0794 -0.9414
  309MOL0     C41593   9.872   2.014   2.330  0.4448 -0.0473 -0.6499
  309MOL0     C41594   9.836   2.124   2.233 -0.0554 -0.3763 -0.2370
  309MOL0     C41595   9.762   2.236   2.305 -0.6504 -0.0165  0.6120
  309MOL0     C41596   9.751   2.361   2.216 -0.3262 -0.5928  0.7546
  309MOL0     N41597   9.651   2.358   2.101  0.9629  0.3169  0.6138
  309MOL0     C41598   9.557   2.451   2.089 -0.8982 -0.7550  0.2119
  309MOL0     C41599   9.482   2.421   1.986  0.8734  0.6971  0.1179
  309MOL0     C41600   9.379   2.517   1.919 -0.1789 -0.1724 -0.5573
  309MOL0     C41601   9.431   2.579   1.795  0.2252  0.2951 -0.7551
  309MOL0     C41602   9.349   2.692   1.736 -0.5870 -0.6557  0.7323
  309MOL0     C41603   9.230   2.647   1.640 -0.1973 -0.1729 -0.0422
  309MOL0     O41604   9.168   2.520   1.672 -0.1774 -0.0217  0.2231
  309MOL0     C41605   9.051   2.478   1.611 -0.7076  0.3344 -0.9277
  309MOL0     C41606   9.041   2.462   1.471  0.1964 -0.4185  0.0105
  309MOL0     C41607   8.930   2.406   1.404  0.6769 -0.4259 -0.1451
  309MOL0     C41608   8.932   2.406   1.251  0.1513  0.4887 -0.1994
  309MOL0     C41609   8.820   2.364   1.482  0.0360  0.5832 -0.1897
  309MOL0     C41610   8.694   2.311   1.424 -1.1314  0.3721 -0.2727
  309MOL0     O41611   8.604   2.279   1.519  0.0371 -0.6387  0.1896
  309MOL0     C41612   8.470   2.286   1.490  0.1222 -0.1144 -0.3142
  309MOL0     C41613   8.407   2.401   1.447 -0.1915 -0.4124  1.1835
  309MOL0     C41614   8.272   2.397   1.405  0.1833  0.1326 -0.0809
  309MOL0     C41615   8.197   2.271   1.402 -0.7392 -0.0328 -1.4895
  309MOL0     O41616   8.076   2.252   1.338  0.2107 -0.0760 -0.4206
  309MOL0     C41617   8.026   2.339   1.244  0.5579 -0.1657  0.6286
  309MOL0     C41618   7.917   2.432   1.310  0.7827  0.3759  0.2795
  309MOL0     C41619   7.772   2.384   1.304 -0.1671  0.6774 -0.5457
  309MOL0     C41620   7.680   2.484   1.385 -0.7011 -0.1048 -0.3089
  309MOL0     C41621   7.529   2.437   1.402  0.1788  0.4680 -0.3143
  309MOL0     C41622   7.444   2.494   1.291  0.5065 -0.0425 -0.1357
  309MOL0     C41623   7.329   2.393   1.255  0.1982 -0.7243  0.0074
  309MOL0     C41624   7.246   2.425   1.133  0.8249  0.1811  0.8030
  309MOL0    Cl41625   7.119   2.294   1.103 -0.0724  0.0597  0.2118
  309MOL0     C41626   8.260   2.158   1.458 -0.6290 -0.7080 -0.1115
  309MOL0     C41627   8.396   2.168   1.510 -0.1524 -0.3766 -0.7219
  309MOL0     O41628   8.679   2.288   1.306  0.6845 -0.5295  0.2422
  309MOL0     C41629   8.823   2.376   1.620  0.6308  0.3730 -0.6569
  309MOL0     C41630   8.940   2.429   1.676 -0.0185  0.4666 -0.1078
  309MOL0     N41631   9.520   2.300   1.937  0.0587  0.3444 -0.0796
  309MOL0     N41632   9.617   2.258   2.012 -0.0385 -0.2085  0.5285
  309MOL0     C41633  10.237   1.392   2.488  0.2730  0.8790  0.5877
  309MOL0     C41634  10.299   1.300   2.574 -0.5429  0.5631  0.4616
  309MOL0     C41635  10.423   1.117   2.988 -0.0693 -0.5855 -0.3698
  309MOL0     C41636  10.438   0.987   2.947 -0.0170 -0.8712  0.2623
  309MOL0     C41637  10.495   0.892   3.031  0.1735  0.4485 -0.6377
  309MOL0     C41638  10.533   0.909   3.164  0.1501  1.4460  0.5767
  309MOL0     O41639  10.596   0.823   3.252  0.1228  0.0157  0.4791
  309MOL0     C41640  10.616   0.690   3.205  0.6493 -0.3213 -0.6230
  309MOL0     C41641  10.721   0.623   3.295  0.1057  0.6625 -0.6603
  309MOL0     C41642  10.681   0.584   3.441  0.4481 -0.1651  0.2010
  309MOL0     C41643  10.794   0.505   3.503  0.4000 -0.0963 -0.8314
  309MOL0     C41644  10.899   0.595   3.544  0.4282  0.4467  0.7244
  309MOL0     C41645  10.993   0.659   3.591 -0.4543 -0.1373 -0.1323
  309MOL0     C41646  10.522   1.042   3.204 -0.1357 -0.7526  0.0577
  309MOL0     C41647  10.477   1.146   3.119 -0.4720  0.3429 -0.2997
  309MOL0     H41648  10.104   1.326   2.852 -3.7266 -2.7951 -1.4561
  309MOL0     H41649   9.994   1.498   2.706 -1.2123 -0.2107 -0.9873
  309MOL0     H41650  10.207   1.638   2.341  1.0804 -1.5282  1.6891
  309MOL0     H41651  10.135   1.499   2.252 -2.0835  0.0762 -0.2248
  309MOL0     H41652  10.066   1.708   2.161 -2.4950  0.1930 -0.8804
  309MOL0     H41653   9.930   1.600   2.231 -0.1073 -0.6813 -0.8154
  309MOL0     H41654   9.931   1.762   2.429 -0.2803  2.4749  0.7237
  309MOL0     H41655  10.082   1.829   2.369  1.0608 -0.8411 -2.0123
  309MOL0     H41656   9.983   1.922   2.176 -0.3154 -0.2163 -0.6138
  309MOL0     H41657   9.828   1.847   2.203 -1.3657  3.5553 -3.3226
  309MOL0     H41658   9.785   1.991   2.392  0.6376 -1.4649 -0.8600
  309MOL0     H41659   9.948   2.052   2.400  0.3069 -4.3962  2.2907
  309MOL0     H41660   9.937   2.151   2.200  0.3471  0.2614  1.4318
  309MOL0     H41661   9.770   2.087   2.154 -3.2120 -1.8480  2.8526
  309MOL0     H41662   9.666   2.209   2.347 -0.9228  1.2375  0.8535
  309MOL0     H41663   9.802   2.265   2.403 -1.0530  0.1990  0.7162
  309MOL0     H41664   9.853   2.387   2.184 -0.8871  1.6125  0.6051
  309MOL0     H41665   9.731   2.450   2.277  0.8065 -0.2875  0.7058
  309MOL0     H41666   9.555   2.544   2.146 -0.5514 -1.2931  1.1094
  309MOL0     H41667   9.295   2.454   1.887  1.2500 -1.9852 -0.9174
  309MOL0     H41668   9.342   2.590   1.991  1.2290  0.1778 -0.1599
  309MOL0     H41669   9.437   2.496   1.724  0.2597 -0.7292  0.4093
  309MOL0     H41670   9.536   2.605   1.814  1.3116 -2.3533 -2.5297
  309MOL0     H41671   9.420   2.752   1.679 -0.2756 -0.9491  0.8055
  309MOL0     H41672   9.316   2.749   1.823  0.9494 -0.4548  1.2152
  309MOL0     H41673   9.268   2.632   1.538 -1.7882 -0.9804 -0.5474
  309MOL0     H41674   9.145   2.714   1.648 -1.2660 -1.4958  0.0808
  309MOL0     H41675   9.133   2.461   1.414 -0.2074  3.1396 -0.9101
  309MOL0     H41676   8.928   2.301   1.220  0.5123  0.8289 -1.4736
  309MOL0     H41677   8.840   2.457   1.220 -0.2017 -0.5243 -0.9102
  309MOL0     H41678   9.019   2.451   1.203  1.5114 -1.6708  0.0862
  309MOL0     H41679   8.472   2.487   1.442  0.4654 -0.9699 -0.3290
  309MOL0     H41680   8.224   2.489   1.371 -2.8029 -0.7132  1.5232
  309MOL0     H41681   8.104   2.394   1.192  0.0676 -2.1846 -2.5387
  309MOL0     H41682   7.983   2.288   1.157  2.2991  0.5933 -0.7365
  309MOL0     H41683   7.945   2.434   1.415 -1.9087  0.4688  1.0675
  309MOL0     H41684   7.922   2.533   1.268 -1.6556  1.2054  1.7858
  309MOL0     H41685   7.773   2.286   1.352  0.5109  1.1488  0.4405
  309MOL0     H41686   7.741   2.378   1.199 -2.7306  1.5537  0.0944
  309MOL0     H41687   7.728   2.492   1.482  2.4908 -2.5124 -1.4841
  309MOL0     H41688   7.683   2.584   1.341  1.0706  0.9051  1.9038
  309MOL0     H41689   7.491   2.473   1.498 -1.2868  0.1160 -0.7393
  309MOL0     H41690   7.539   2.329   1.412  3.0408  0.5507 -1.1716
  309MOL0     H41691   7.390   2.580   1.331 -2.6474 -0.7796 -2.4080
  309MOL0     H41692   7.501   2.525   1.204  0.0895  2.0537  0.2855
  309MOL0     H41693   7.261   2.389   1.341 -0.2515  0.3998 -0.2769
  309MOL0     H41694   7.380   2.297   1.244  2.0573  0.2811 -0.5513
  309MOL0     H41695   7.310   2.429   1.045  1.2812  2.7954  1.1829
  309MOL0     H41696   7.195   2.521   1.143  1.0539  0.3691  0.1727
  309MOL0     H41697   8.207   2.063   1.455 -4.8521  1.4071  0.2743
  309MOL0     H41698   8.451   2.082   1.547  0.6166  0.4060 -0.0277
  309MOL0     H41699   8.739   2.348   1.682 -0.4126 -2.1256 -3.0425
  309MOL0     H41700   8.929   2.432   1.784 -1.3185 -1.3460 -0.1518
  309MOL0     H41701  10.274   1.389   2.386 -2.0233 -1.1381 -0.2902
  309MOL0     H41702  10.384   1.240   2.544 -0.1768  0.2263  2.0812
  309MOL0     H41703  10.401   0.941   2.855  0.4807 -0.3902 -0.1833
  309MOL0     H41704  10.517   0.794   2.990 -0.8196  0.2212 -0.6461
  309MOL0     H41705  10.518   0.641   3.210  0.6769 -0.2669  0.6613
  309MOL0     H41706  10.663   0.700   3.106  1.1524 -0.0490 -0.3607
  309MOL0     H41707  10.807   0.690   3.306 -1.4024  2.4360  0.9308
  309MOL0     H41708  10.753   0.536   3.236 -1.4288 -0.9797  0.7895
  309MOL0     H41709  10.592   0.521   3.440 -0.0430  0.5137 -0.9973
  309MOL0     H41710  10.657   0.677   3.492 -1.2999  0.0545 -0.9255
  309MOL0     H41711  10.840   0.429   3.438 -0.4656 -3.2834  2.0004
  309MOL0     H41712  10.752   0.453   3.589  0.0897 -0.5913 -1.2751
  309MOL0     H41713  11.077   0.711   3.632  0.1252 -2.2934  1.5585
  309MOL0     H41714  10.552   1.073   3.304  0.9035 -0.8997 -0.1954
  309MOL0     H41715  10.472   1.247   3.156 -0.2209  0.0506  0.5541
  310MOL0     O41716   9.640   1.024   6.180  0.4524  0.0898  0.4357
  310MOL0     C41717   9.716   1.070   6.264  0.3169 -0.0421  0.5950
  310MOL0     O41718   9.676   1.122   6.378 -0.9174 -0.3717  0.7726
  310MOL0     C41719   9.540   1.155   6.393 -0.6468  0.0521 -0.0316
  310MOL0     C41720   9.464   1.084   6.483 -0.1093  0.6610 -0.8024
  310MOL0     C41721   9.331   1.120   6.518 -0.7568  0.0863  0.0352
  310MOL0     C41722   9.268   1.225   6.439 -0.4145  0.9727  0.0513
  310MOL0     O41723   9.138   1.265   6.458 -1.0393 -0.5460  0.5258
  310MOL0     C41724   9.050   1.169   6.522 -0.6277  0.1586  0.3287
  310MOL0     C41725   8.925   1.177   6.430  1.0220  0.6572 -0.3604
  310MOL0     C41726   8.802   1.109   6.488 -1.2121 -0.3870 -0.2036
  310MOL0     C41727   8.686   1.117   6.389 -0.0680 -1.1997 -0.0167
  310MOL0     C41728   8.567   1.032   6.439  0.2255  0.4823  0.5307
  310MOL0     C41729   8.447   1.032   6.347 -0.1296 -0.1020 -0.2136
  310MOL0     C41730   8.327   0.953   6.400 -0.3076 -0.5167 -0.6114
  310MOL0     C41731   8.242   1.037   6.495  0.2857  0.2690  0.5417
  310MOL0     N41732   8.119   0.982   6.541 -0.1796  0.3059 -0.2064
  310MOL0     C41733   8.100   0.907   6.656 -0.1052 -0.5821 -0.5938
  310MOL0     C41734   7.965   0.884   6.670  0.1481  0.0748 -0.1808
  310MOL0     C41735   7.897   0.779   6.756 -0.4610 -0.2344  0.1503
  310MOL0     C41736   7.834   0.833   6.878  0.2592  0.5467  0.0160
  310MOL0     C41737   7.781   0.727   6.967  0.1801  0.5183  0.6911
  310MOL0     C41738   7.748   0.795   7.103  0.6350 -0.5113  0.4378
  310MOL0     O41739   7.665   0.726   7.195 -0.0714  0.2736  0.5571
  310MOL0     C41740   7.534   0.739   7.181  0.1245  0.2767 -0.3872
  310MOL0     C41741   7.470   0.619   7.159  0.7649  0.1747 -0.7444
  310MOL0     C41742   7.330   0.613   7.136 -0.4499 -0.1536 -0.2628
  310MOL0     C41743   7.279   0.481   7.080  0.3432  0.6095  0.4844
  310MOL0     C41744   7.260   0.738   7.158  0.0221  0.3231  0.2434
  310MOL0     C41745   7.113   0.751   7.158 -0.3526  0.4753  0.2552
  310MOL0     O41746   7.051   0.846   7.236 -0.4849 -0.3358 -0.1078
  310MOL0     C41747   6.921   0.879   7.212  0.4349 -0.1871 -0.7711
  310MOL0     C41748   6.815   0.811   7.267  0.5981 -0.0290  0.4803
  310MOL0     C41749   6.678   0.843   7.234  0.4168 -0.6198  0.6233
  310MOL0     C41750   6.647   0.942   7.140  0.7504 -0.5550 -1.0221
  310MOL0     O41751   6.517   0.953   7.100  0.0602  0.3743 -0.9884
  310MOL0     C41752   6.463   0.842   7.034 -0.4969  0.7600 -0.1470
  310MOL0     C41753   6.313   0.852   7.004  0.2122 -0.1749  0.4390
  310MOL0     C41754   6.239   0.859   7.135 -0.3945  0.6202 -0.2467
  310MOL0     C41755   6.092   0.832   7.100  0.8895 -0.0416  0.7440
  310MOL0     C41756   5.986   0.847   7.211 -1.0746 -0.1274 -0.1202
  310MOL0     C41757   5.852   0.901   7.168  0.0892 -0.7018 -0.7464
  310MOL0     C41758   5.770   0.808   7.081  0.0525  0.9989  0.0427
  310MOL0     C41759   5.677   0.712   7.163  0.3594 -0.1073  0.1578
  310MOL0    Cl41760   5.524   0.792   7.234 -0.4375 -0.2529  0.0540
  310MOL0     C41761   6.758   1.011   7.094 -0.5763 -0.2778 -0.0746
  310MOL0     C41762   6.891   0.980   7.127  0.0326 -0.5266  0.6025
  310MOL0     O41763   7.052   0.680   7.075 -0.0064  0.6944  0.5487
  310MOL0     C41764   7.327   0.855   7.185 -0.8474 -0.1483  0.0603
  310MOL0     C41765   7.470   0.859   7.192 -0.2633 -0.0195  0.1348
  310MOL0     N41766   7.901   0.947   6.562 -0.6352  1.0196 -0.2767
  310MOL0     N41767   7.995   1.005   6.487  0.0758 -0.4977 -0.5186
  310MOL0     C41768   9.339   1.275   6.338 -0.8604 -0.0082  0.1246
  310MOL0     C41769   9.476   1.247   6.316  1.2723  0.6663  0.4358
  310MOL0     C41770   9.863   1.073   6.229  0.3678  0.2557 -0.6684
  310MOL0     C41771   9.897   1.086   6.094 -0.0356 -0.4885 -0.1893
  310MOL0     C41772  10.035   1.100   6.054  0.0888  0.1502  0.1718
  310MOL0     C41773  10.132   1.099   6.148 -0.4837 -0.3048 -0.3053
  310MOL0     O41774  10.268   1.106   6.098 -0.4764 -0.9889 -0.3664
  310MOL0     C41775  10.382   1.111   6.194  0.4154  0.2132  0.0328
  310MOL0     C41776  10.385   1.244   6.264  0.3398 -0.1556  0.2482
  310MOL0     C41777  10.476   1.247   6.389 -0.2195  0.0943 -0.1444
  310MOL0     C41778  10.609   1.322   6.365  0.4289  0.5182  0.0076
  310MOL0     C41779  10.695   1.279   6.260 -0.7210 -0.1346  0.0681
  310MOL0     C41780  10.782   1.254   6.173  0.1165 -0.1251 -0.8624
  310MOL0     C41781  10.098   1.088   6.290 -0.2636  0.7997  0.7168
  310MOL0     C41782   9.966   1.068   6.326 -1.2025  0.0630  0.2269
  310MOL0     H41783   9.518   1.008   6.539  1.3040  0.9784 -1.6675
  310MOL0     H41784   9.300   1.071   6.610  1.3557 -0.9164  0.2707
  310MOL0     H41785   9.080   1.064   6.519 -2.6989 -0.5348  1.6859
  310MOL0     H41786   9.026   1.207   6.622 -0.6407  2.4860 -0.4987
  310MOL0     H41787   8.896   1.282   6.415 -3.0021 -0.3300 -0.8066
  310MOL0     H41788   8.955   1.130   6.336 -0.6229 -1.1940 -0.0292
  310MOL0     H41789   8.825   1.003   6.500  1.0967 -0.0548 -1.2372
  310MOL0     H41790   8.775   1.146   6.588 -1.5228 -3.4552  0.9888
  310MOL0     H41791   8.643   1.218   6.387  2.6282  0.0507 -3.2509
  310MOL0     H41792   8.718   1.095   6.287 -1.2003  1.6761 -1.0999
  310MOL0     H41793   8.601   0.930   6.463  1.2019  1.1629  2.2727
  310MOL0     H41794   8.539   1.076   6.535  0.7084  2.6081 -0.2439
  310MOL0     H41795   8.411   1.132   6.323 -2.0346  0.0991  3.0141
  310MOL0     H41796   8.490   0.991   6.255 -1.1970 -1.7927 -0.0009
  310MOL0     H41797   8.277   0.922   6.307 -0.2466 -1.0232 -0.4784
  310MOL0     H41798   8.354   0.869   6.466  0.3458  0.6386  0.6359
  310MOL0     H41799   8.217   1.127   6.437  0.6400  0.4533  0.6716
  310MOL0     H41800   8.304   1.068   6.580  3.3572  0.8874 -1.7326
  310MOL0     H41801   8.173   0.864   6.723  2.1520  1.3109 -1.6913
  310MOL0     H41802   7.812   0.740   6.699 -3.1865  2.1905  2.2683
  310MOL0     H41803   7.965   0.695   6.779 -0.0978 -0.0122 -0.0932
  310MOL0     H41804   7.750   0.898   6.851 -0.0927 -0.3690 -1.2078
  310MOL0     H41805   7.916   0.884   6.929 -1.0553  2.2269  0.5491
  310MOL0     H41806   7.838   0.636   6.988 -1.6780 -0.4810  1.6878
  310MOL0     H41807   7.687   0.696   6.920 -0.0276  1.3793  0.5152
  310MOL0     H41808   7.695   0.888   7.083 -1.0868 -1.5882 -0.2636
  310MOL0     H41809   7.843   0.817   7.152  0.8998  1.0206 -0.6854
  310MOL0     H41810   7.522   0.525   7.146  1.0492  0.6157 -3.4197
  310MOL0     H41811   7.358   0.409   7.056 -1.0591 -1.9601  3.0191
  310MOL0     H41812   7.219   0.421   7.149 -0.6127 -0.8209 -1.5236
  310MOL0     H41813   7.208   0.486   6.997 -1.2564 -3.8923  1.3278
  310MOL0     H41814   6.815   0.724   7.333 -3.5407 -0.1499  0.5908
  310MOL0     H41815   6.593   0.799   7.285 -0.5914  1.1784  0.5883
  310MOL0     H41816   6.517   0.824   6.941 -2.1156  1.1231 -1.1959
  310MOL0     H41817   6.467   0.755   7.100 -3.5941  0.5411 -0.0904
  310MOL0     H41818   6.299   0.947   6.952  2.4739  1.1166  2.0283
  310MOL0     H41819   6.280   0.766   6.945 -1.0574 -0.7442  1.8834
  310MOL0     H41820   6.261   0.956   7.180  1.2934  1.5567 -2.8027
  310MOL0     H41821   6.269   0.785   7.210  1.5083 -1.1055 -2.5005
  310MOL0     H41822   6.067   0.914   7.032  0.5304  0.9937  2.0758
  310MOL0     H41823   6.067   0.742   7.044 -1.1089  1.0135 -0.1445
  310MOL0     H41824   6.028   0.913   7.288  0.3475  0.0023 -0.9762
  310MOL0     H41825   5.970   0.749   7.257 -0.8756 -0.5013 -0.8383
  310MOL0     H41826   5.798   0.926   7.260  0.8938  0.0208 -0.4593
  310MOL0     H41827   5.875   0.993   7.114 -0.0940 -1.2570 -1.7983
  310MOL0     H41828   5.841   0.737   7.038  0.5392  0.6594  1.3405
  310MOL0     H41829   5.710   0.860   7.006 -1.2945  0.9278  1.0385
  310MOL0     H41830   5.730   0.666   7.247  1.3648  0.0683 -0.3708
  310MOL0     H41831   5.638   0.633   7.098  1.5965 -1.5004  1.0358
  310MOL0     H41832   6.754   1.090   7.019  3.3944  0.2226  0.0512
  310MOL0     H41833   6.972   1.035   7.080  0.4004 -1.1046  0.5424
  310MOL0     H41834   7.272   0.945   7.211 -0.7795 -0.0950  0.0193
  310MOL0     H41835   7.516   0.953   7.222 -2.9097  1.5186 -0.2814
  310MOL0     H41836   9.280   1.338   6.271  1.2950 -0.5138 -2.4125
  310MOL0     H41837   9.525   1.307   6.240 -0.4166  0.6372 -0.7206
  310MOL0     H41838   9.828   1.084   6.010  1.1130 -1.1209 -1.1676
  310MOL0     H41839  10.063   1.128   5.953  4.5653  1.7164  1.6210
  310MOL0     H41840  10.377   1.027   6.264  0.5250 -0.6173 -0.9276
  310MOL0     H41841  10.478   1.121   6.142 -0.2645  2.6441 -0.8863
  310MOL0     H41842  10.284   1.266   6.300  0.1043 -0.1349 -0.4154
  310MOL0     H41843  10.416   1.317   6.188  2.1038  0.7579  1.7318
  310MOL0     H41844  10.473   1.148   6.435  0.7743  0.2084  0.1790
  310MOL0     H41845  10.415   1.306   6.457 -0.3517  0.1829 -0.3384
  310MOL0     H41846  10.666   1.321   6.459 -0.4081  0.7594  0.5274
  310MOL0     H41847  10.585   1.428   6.347  1.0118  0.3938 -1.6320
  310MOL0     H41848  10.840   1.224   6.087  0.5464  0.4723 -0.7805
  310MOL0     H41849  10.177   1.086   6.363  0.4486  2.1060  0.0090
  310MOL0     H41850   9.938   1.060   6.431  0.7675 -2.5137  0.6483
  311MOL0     O41851  11.350   2.129  10.907 -0.3740 -0.4505  0.5635
  311MOL0     C41852  11.361   2.249  10.894 -0.3582 -0.0115  0.8795
  311MOL0     O41853  11.258   2.350  10.859  0.5314 -0.2340  0.8331
  311MOL0     C41854  11.123   2.318  10.844  0.4240 -0.9520 -0.0554
  311MOL0     C41855  11.058   2.208  10.905 -0.0789  0.3650 -0.3168
  311MOL0     C41856  10.923   2.199  10.885 -0.3245 -0.5989 -0.3584
  311MOL0     C41857  10.846   2.304  10.829  0.3865  0.4142 -0.1699
  311MOL0     O41858  10.711   2.298  10.846 -0.2282  0.3338 -0.2680
  311MOL0     C41859  10.636   2.329  10.728 -0.5694 -0.1902 -0.7077
  311MOL0     C41860  10.546   2.451  10.756 -0.1613 -0.7321 -0.3605
  311MOL0     C41861  10.484   2.513  10.620 -0.4612  1.5410  0.6490
  311MOL0     C41862  10.394   2.417  10.538  0.1410 -0.0839 -0.2995
  311MOL0     C41863  10.312   2.497  10.438 -0.4942 -0.0019 -0.8836
  311MOL0     C41864  10.214   2.400  10.371  0.1464  0.1618  0.1847
  311MOL0     C41865  10.164   2.467  10.243 -0.5556  0.5082 -0.2895
  311MOL0     C41866  10.269   2.478  10.138 -0.1492 -0.4337  0.6145
  311MOL0     N41867  10.208   2.521  10.016  0.7345 -0.3176  0.3569
  311MOL0     C41868  10.181   2.454   9.898 -0.5596  0.2196 -0.6485
  311MOL0     C41869  10.189   2.548   9.803 -0.1524  0.3380 -0.3464
  311MOL0     C41870  10.208   2.524   9.662  0.3194 -0.3469  0.3400
  311MOL0     C41871  10.348   2.562   9.613 -0.2046  0.1070  0.2636
  311MOL0     C41872  10.463   2.473   9.661 -0.1065  0.3205  1.2693
  311MOL0     C41873  10.591   2.526   9.607 -0.2262 -0.1053 -1.1280
  311MOL0     O41874  10.615   2.516   9.470  0.3985  0.3121 -0.0500
  311MOL0     C41875  10.679   2.408   9.416 -0.6282  0.3076  0.4661
  311MOL0     C41876  10.628   2.346   9.303  0.8114 -0.3771 -0.3825
  311MOL0     C41877  10.702   2.247   9.239 -0.3186  0.4247  0.1875
  311MOL0     C41878  10.647   2.194   9.109 -1.0213 -0.0240 -0.1392
  311MOL0     C41879  10.821   2.195   9.292  0.5156 -0.9251 -0.5482
  311MOL0     C41880  10.912   2.092   9.231  0.2574 -0.1322  0.2630
  311MOL0     O41881  11.042   2.112   9.256 -0.6117  0.5557  0.0365
  311MOL0     C41882  11.125   2.016   9.201 -0.1760  0.2667 -0.2526
  311MOL0     C41883  11.183   1.928   9.290  0.1543  0.1340 -0.2962
  311MOL0     C41884  11.281   1.824   9.255  0.1599 -0.1233  0.2853
  311MOL0     C41885  11.329   1.822   9.123 -1.0734  0.3582 -0.3311
  311MOL0     O41886  11.424   1.740   9.066  0.6833 -0.4577  0.0378
  311MOL0     C41887  11.496   1.651   9.157 -0.0763  0.1120 -0.1693
  311MOL0     C41888  11.598   1.568   9.083 -0.5642  0.1883 -0.3892
  311MOL0     C41889  11.735   1.624   9.092  0.0883  0.3488  0.1747
  311MOL0     C41890  11.757   1.761   9.033  0.3931 -0.3953  0.0773
  311MOL0     C41891  11.887   1.827   9.048 -0.8424  0.6116  0.1771
  311MOL0     C41892  12.011   1.751   8.993  0.0412 -0.3256 -0.0690
  311MOL0     C41893  12.146   1.808   9.054  0.6310  0.1303  0.7455
  311MOL0     C41894  12.268   1.726   9.001  0.1219 -0.0836  0.0304
  311MOL0    Cl41895  12.262   1.555   9.050 -0.2843  0.0902  0.4708
  311MOL0     C41896  11.267   1.911   9.035 -0.3425 -0.1858  0.0584
  311MOL0     C41897  11.161   1.996   9.072  0.2307 -0.3038 -0.6096
  311MOL0     O41898  10.860   1.998   9.166 -0.9547 -0.0194  0.2059
  311MOL0     C41899  10.876   2.265   9.403  0.2851 -0.2179 -0.9031
  311MOL0     C41900  10.804   2.365   9.460 -0.4454 -0.4084  0.4150
  311MOL0     N41901  10.204   2.671   9.865 -0.1957 -0.9444  0.3172
  311MOL0     N41902  10.211   2.655   9.985  0.8532 -0.1465 -0.4382
  311MOL0     C41903  10.910   2.412  10.774 -1.0631  0.1202 -0.5505
  311MOL0     C41904  11.051   2.423  10.783  0.4633 -0.1937 -0.8797
  311MOL0     C41905  11.487   2.307  10.933 -0.0404  0.7056  0.4157
  311MOL0     C41906  11.508   2.447  10.927  0.0963  0.8975  0.0732
  311MOL0     C41907  11.633   2.505  10.948  0.9822 -0.9252 -0.4334
  311MOL0     C41908  11.733   2.421  11.005 -0.1818  0.1146  0.3862
  311MOL0     O41909  11.845   2.469  11.072  0.1669 -0.4327  0.2995
  311MOL0     C41910  11.847   2.611  11.081 -0.3914 -0.3438 -1.3030
  311MOL0     C41911  11.978   2.645  11.159  0.2005  0.1862 -0.3257
  311MOL0     C41912  11.981   2.795  11.159 -0.1547 -0.4174 -0.1512
  311MOL0     C41913  12.102   2.846  11.240 -0.3804  0.2790  0.5728
  311MOL0     C41914  12.097   2.986  11.286  0.8027 -0.2962 -0.7355
  311MOL0     C41915  12.082   3.100  11.321 -0.1079  0.0020  0.0549
  311MOL0     C41916  11.719   2.282  11.010 -0.6954 -0.9082  0.9132
  311MOL0     C41917  11.594   2.230  10.976 -0.1956  0.4809 -0.2309
  311MOL0     H41918  11.103   2.122  10.954 -1.7643 -0.5062 -0.2290
  311MOL0     H41919  10.868   2.113  10.922  0.1862  0.1399  2.3289
  311MOL0     H41920  10.702   2.348  10.643 -0.9935  1.7535 -0.6458
  311MOL0     H41921  10.575   2.245  10.693  1.5398 -1.0922 -2.4228
  311MOL0     H41922  10.462   2.419  10.819  0.6909  0.2210  1.3192
  311MOL0     H41923  10.595   2.529  10.813  0.3651 -0.3180 -1.3513
  311MOL0     H41924  10.442   2.614  10.628 -2.0784  1.2460 -2.6045
  311MOL0     H41925  10.567   2.526  10.550  1.6045 -3.3148  1.7803
  311MOL0     H41926  10.445   2.325  10.506  1.5264  0.8594 -0.8830
  311MOL0     H41927  10.319   2.374  10.606  1.3308 -1.4663  0.2097
  311MOL0     H41928  10.260   2.568  10.502  1.2791  0.2073  0.4027
  311MOL0     H41929  10.378   2.552  10.371 -1.2682  0.0889 -1.5895
  311MOL0     H41930  10.254   2.301  10.346 -1.8606 -0.2693 -1.5756
  311MOL0     H41931  10.132   2.398  10.443 -0.6106  0.0523 -0.6691
  311MOL0     H41932  10.080   2.417  10.195 -2.9318  1.6284  2.3582
  311MOL0     H41933  10.122   2.565  10.272  0.6930  0.8245  0.5229
  311MOL0     H41934  10.314   2.381  10.112  1.9489  1.1303 -2.0774
  311MOL0     H41935  10.344   2.552  10.168 -0.4875 -0.7905  2.4352
  311MOL0     H41936  10.186   2.346   9.888 -0.3734  0.0359  1.0516
  311MOL0     H41937  10.186   2.421   9.630  0.6743 -0.4170  0.3168
  311MOL0     H41938  10.129   2.574   9.606  0.3874 -1.7308 -1.0426
  311MOL0     H41939  10.362   2.666   9.642  0.9790 -0.6501  2.6271
  311MOL0     H41940  10.345   2.568   9.503  0.0129  2.8659  0.3470
  311MOL0     H41941  10.438   2.374   9.621  0.4791  1.7062 -2.9385
  311MOL0     H41942  10.468   2.473   9.771  0.7863 -0.3988  1.2433
  311MOL0     H41943  10.672   2.477   9.661  2.2110  4.6546  0.0907
  311MOL0     H41944  10.597   2.628   9.645  3.6834 -0.1757 -1.2074
  311MOL0     H41945  10.537   2.386   9.259  0.4758 -0.5508  0.1423
  311MOL0     H41946  10.724   2.156   9.041  0.5562  0.2834  1.4246
  311MOL0     H41947  10.570   2.117   9.122 -0.3310 -1.0776 -1.9051
  311MOL0     H41948  10.601   2.278   9.057  0.1228 -0.2868 -1.6763
  311MOL0     H41949  11.145   1.929   9.392  2.1995  2.5061  0.5691
  311MOL0     H41950  11.322   1.764   9.336  0.6921  0.9901  0.8641
  311MOL0     H41951  11.518   1.700   9.252  0.8458  1.3109 -0.9725
  311MOL0     H41952  11.429   1.572   9.192  1.5438 -1.1815  0.1371
  311MOL0     H41953  11.601   1.466   9.123 -0.8318  0.6686  0.8994
  311MOL0     H41954  11.567   1.559   8.978 -2.8778  0.0248  0.2606
  311MOL0     H41955  11.792   1.551   9.035 -3.9572 -0.4937 -3.2343
  311MOL0     H41956  11.763   1.624   9.198 -1.8338  1.1025  0.7179
  311MOL0     H41957  11.714   1.743   8.934 -2.9829 -1.1145  1.5425
  311MOL0     H41958  11.696   1.837   9.082  2.1463  1.3113 -0.2866
  311MOL0     H41959  11.915   1.830   9.153  3.7377 -1.8311 -0.7061
  311MOL0     H41960  11.884   1.931   9.014  0.0401  0.4283 -0.4842
  311MOL0     H41961  12.006   1.649   9.032  0.2396  1.0650  4.1675
  311MOL0     H41962  12.013   1.759   8.884 -3.8123  0.4703 -0.2110
  311MOL0     H41963  12.137   1.809   9.163  2.0529  5.7018  1.1671
  311MOL0     H41964  12.159   1.915   9.036 -0.1523  0.0573 -0.2951
  311MOL0     H41965  12.357   1.780   9.035 -0.0026  0.3055 -0.2547
  311MOL0     H41966  12.277   1.728   8.892 -3.9973 -0.8779 -0.4821
  311MOL0     H41967  11.295   1.912   8.930 -0.7202  2.3914 -0.1039
  311MOL0     H41968  11.099   2.053   9.003 -2.6230 -1.7272  0.5890
  311MOL0     H41969  10.973   2.247   9.448  0.8476  2.6891 -0.7390
  311MOL0     H41970  10.844   2.422   9.544 -2.8859  2.1933 -0.0198
  311MOL0     H41971  10.851   2.498  10.747 -0.7255  0.5561  0.0641
  311MOL0     H41972  11.105   2.513  10.759  1.4045 -0.8119 -1.1375
  311MOL0     H41973  11.419   2.505  10.904 -0.8807  0.1319  1.7268
  311MOL0     H41974  11.624   2.612  10.964 -3.5600 -1.2991  0.9952
  311MOL0     H41975  11.870   2.655  10.984  1.0737 -1.4005 -1.4631
  311MOL0     H41976  11.764   2.658  11.134  0.4094  0.9415 -1.1288
  311MOL0     H41977  12.067   2.614  11.103  0.5412  2.0295 -0.8536
  311MOL0     H41978  11.977   2.597  11.257 -0.0569  1.3520  0.2556
  311MOL0     H41979  11.893   2.840  11.207  1.0333 -0.5400  2.3472
  311MOL0     H41980  11.990   2.852  11.066 -0.8731  0.2136  0.1568
  311MOL0     H41981  12.199   2.849  11.188 -0.7844 -0.7681 -0.2730
  311MOL0     H41982  12.109   2.778  11.326 -2.1609  0.0507  0.5698
  311MOL0     H41983  12.071   3.206  11.332  0.4492  0.2551 -1.6055
  311MOL0     H41984  11.811   2.231  11.038  1.7091  1.4641 -1.8579
  311MOL0     H41985  11.583   2.122  10.980 -3.1532  0.6163 -2.0915
  312MOL0     O41986   8.586   1.082   9.621  0.1409 -0.2722  0.4740
  312MOL0     C41987   8.595   1.102   9.497  0.5261 -0.1003  1.3731
  312MOL0     O41988   8.494   1.067   9.404 -0.7095 -0.4881 -0.0447
  312MOL0     C41989   8.397   0.981   9.453 -0.3183  0.4798 -0.9644
  312MOL0     C41990   8.410   0.848   9.446  1.1904 -0.2921  0.4912
  312MOL0     C41991   8.296   0.769   9.472 -0.0327  0.2462 -0.9743
  312MOL0     C41992   8.172   0.815   9.499  0.6090 -0.2661 -0.5244
  312MOL0     O41993   8.066   0.736   9.534  0.4830  0.5009 -0.0543
  312MOL0     C41994   8.035   0.614   9.462 -0.1708 -0.4395 -0.0313
  312MOL0     C41995   7.919   0.529   9.528 -0.4584  0.3736 -0.3538
  312MOL0     C41996   7.943   0.384   9.508  0.1694 -0.2999  0.0528
  312MOL0     C41997   7.811   0.304   9.529 -0.4468 -0.4375 -0.4267
  312MOL0     C41998   7.768   0.310   9.672 -0.0663  0.2296  1.5019
  312MOL0     C41999   7.635   0.238   9.679 -0.5783  0.3701 -0.4631
  312MOL0     C42000   7.598   0.225   9.832  0.2211 -0.6515  0.5600
  312MOL0     C42001   7.461   0.164   9.843 -0.2654 -0.1912  0.3552
  312MOL0     N42002   7.355   0.249   9.794 -0.5448 -0.0282 -0.3258
  312MOL0     C42003   7.268   0.324   9.869  0.1814  0.4033  0.0845
  312MOL0     C42004   7.177   0.372   9.776  0.6267  0.8570 -0.1459
  312MOL0     C42005   7.061   0.466   9.810 -0.2663 -0.1984  0.6339
  312MOL0     C42006   7.033   0.546   9.680  0.3849  0.0127  0.4284
  312MOL0     C42007   6.939   0.664   9.695 -0.0146 -0.0114 -0.2188
  312MOL0     C42008   6.800   0.613   9.749 -0.4914 -0.3885 -0.2554
  312MOL0     O42009   6.710   0.731   9.753 -0.7404  0.0774 -0.4665
  312MOL0     C42010   6.574   0.707   9.768  0.4837  0.4416  0.3711
  312MOL0     C42011   6.516   0.722   9.890 -0.5122 -0.0699  0.2731
  312MOL0     C42012   6.375   0.679   9.902  0.2385 -0.0341 -0.2775
  312MOL0     C42013   6.298   0.676  10.036  0.2477 -0.3186 -0.1027
  312MOL0     C42014   6.312   0.639   9.777  0.0293 -0.2008 -0.2958
  312MOL0     C42015   6.177   0.585   9.760  0.6682 -0.4738  0.6661
  312MOL0     O42016   6.115   0.609   9.640  1.0314 -0.1528  0.4685
  312MOL0     C42017   5.992   0.548   9.617  0.5333 -0.1918  0.7126
  312MOL0     C42018   5.874   0.571   9.694  0.2782  0.2470  0.2060
  312MOL0     C42019   5.756   0.502   9.672  0.6039 -0.1682  0.9384
  312MOL0     C42020   5.744   0.408   9.575  0.2278 -0.0969  1.1716
  312MOL0     O42021   5.642   0.327   9.545  0.2556 -0.6559  0.0123
  312MOL0     C42022   5.511   0.379   9.569  0.1350 -0.2074  0.6105
  312MOL0     C42023   5.403   0.326   9.471  1.0441 -0.2202 -0.2826
  312MOL0     C42024   5.384   0.175   9.456  0.3419  0.4716 -0.9375
  312MOL0     C42025   5.338   0.105   9.590  0.3229 -1.0899  0.9672
  312MOL0     C42026   5.316  -0.039   9.552 -1.7363  0.5932 -0.1914
  312MOL0     C42027   5.306  -0.123   9.681  0.2581 -0.3943 -0.1720
  312MOL0     C42028   5.260  -0.260   9.635  0.1693 -0.7627 -0.3926
  312MOL0     C42029   5.221  -0.364   9.741  0.3759 -0.9971  0.5845
  312MOL0    Cl42030   5.098  -0.288   9.861 -0.1975  0.3324  0.6249
  312MOL0     C42031   5.856   0.385   9.490  0.1827 -0.5505  0.6032
  312MOL0     C42032   5.982   0.450   9.515  0.5819 -0.4902 -0.4720
  312MOL0     O42033   6.132   0.504   9.845 -0.4218 -0.6735 -0.3665
  312MOL0     C42034   6.382   0.640   9.659 -0.4801 -0.7223  0.4057
  312MOL0     C42035   6.514   0.668   9.656 -0.1878  0.3174  0.3146
  312MOL0     N42036   7.212   0.326   9.650 -0.6763  0.4210  0.3487
  312MOL0     N42037   7.320   0.250   9.666  0.5571  0.0792 -0.2351
  312MOL0     C42038   8.155   0.950   9.513 -0.3351  0.5321 -1.1765
  312MOL0     C42039   8.272   1.031   9.497  0.5396  0.6725  0.5701
  312MOL0     C42040   8.717   1.182   9.450  0.8124 -0.1415 -1.3014
  312MOL0     C42041   8.737   1.195   9.313 -0.2162  0.5952  0.5432
  312MOL0     C42042   8.846   1.268   9.264  0.3227  0.4977 -0.2855
  312MOL0     C42043   8.946   1.311   9.345 -0.5633 -0.7324  0.5328
  312MOL0     O42044   9.055   1.361   9.289  0.1963  0.5426  0.5266
  312MOL0     C42045   9.099   1.320   9.158  0.8920 -0.1833  0.5608
  312MOL0     C42046   9.229   1.392   9.124 -0.1034 -0.6504 -0.7509
  312MOL0     C42047   9.332   1.362   9.233  0.3552  0.4203 -0.1627
  312MOL0     C42048   9.468   1.402   9.177  0.6955  0.0581 -0.5679
  312MOL0     C42049   9.580   1.393   9.266  0.1643  0.5657 -0.6953
  312MOL0     C42050   9.678   1.395   9.330 -0.5762 -0.1093 -0.5225
  312MOL0     C42051   8.925   1.308   9.479  0.1348 -0.3228  0.1795
  312MOL0     C42052   8.806   1.249   9.537  0.1095  0.1495  0.9709
  312MOL0     H42053   8.506   0.811   9.411  3.1127  3.5984  1.0807
  312MOL0     H42054   8.325   0.664   9.471 -2.5363 -0.5204 -1.5459
  312MOL0     H42055   8.003   0.613   9.357 -0.0780  1.2009 -0.0973
  312MOL0     H42056   8.133   0.567   9.466  0.0757  0.0950  0.3626
  312MOL0     H42057   7.934   0.550   9.634  4.2878  1.3584 -0.9959
  312MOL0     H42058   7.822   0.571   9.500  0.6085  2.9019 -0.4702
  312MOL0     H42059   7.971   0.374   9.403 -3.3962  1.0439 -1.1581
  312MOL0     H42060   8.028   0.359   9.572 -0.0922  0.6079  0.7777
  312MOL0     H42061   7.735   0.349   9.465 -0.4988  1.7611  1.0782
  312MOL0     H42062   7.815   0.199   9.497  4.1764 -0.2901 -1.0127
  312MOL0     H42063   7.846   0.252   9.723  0.4776  1.0467  1.6188
  312MOL0     H42064   7.759   0.414   9.705 -1.1740  0.1819  1.3941
  312MOL0     H42065   7.558   0.301   9.633 -0.7583  1.8340  1.7100
  312MOL0     H42066   7.636   0.138   9.636 -0.3058  0.7309 -1.3213
  312MOL0     H42067   7.667   0.162   9.890  0.8106 -1.0925 -0.5891
  312MOL0     H42068   7.605   0.329   9.865  5.0667 -0.5279 -0.1207
  312MOL0     H42069   7.433   0.144   9.947  2.2954  0.6007  1.2616
  312MOL0     H42070   7.450   0.072   9.786 -0.2877 -0.5403  0.9178
  312MOL0     H42071   7.279   0.355   9.972 -1.1694 -0.9203  0.6600
  312MOL0     H42072   6.978   0.408   9.852 -0.2772 -0.0881  0.7689
  312MOL0     H42073   7.102   0.537   9.883  1.7405 -1.4919  0.8242
  312MOL0     H42074   6.979   0.475   9.617 -0.0983 -0.2128  1.0762
  312MOL0     H42075   7.126   0.584   9.637  0.2779  0.0732  0.2531
  312MOL0     H42076   6.933   0.723   9.604  0.6948 -1.6325 -1.3574
  312MOL0     H42077   6.988   0.729   9.768  0.9908  0.4072 -1.2504
  312MOL0     H42078   6.817   0.575   9.850 -0.9526 -1.0004 -0.4024
  312MOL0     H42079   6.756   0.536   9.685 -2.3965  0.5517 -0.1342
  312MOL0     H42080   6.586   0.756   9.966  1.7519 -0.7288 -1.4160
  312MOL0     H42081   6.200   0.721  10.020  0.2434 -1.0818 -2.8120
  312MOL0     H42082   6.289   0.572  10.069 -2.1513 -0.2232 -0.3081
  312MOL0     H42083   6.348   0.733  10.114 -1.5857  1.9843 -0.5307
  312MOL0     H42084   5.880   0.632   9.783 -1.7144 -0.5431  0.9607
  312MOL0     H42085   5.672   0.515   9.740  0.9991 -2.9380  2.0860
  312MOL0     H42086   5.467   0.361   9.668 -1.3859 -1.2330 -0.1935
  312MOL0     H42087   5.507   0.488   9.569  1.5785 -0.0979 -1.5017
  312MOL0     H42088   5.309   0.355   9.519  0.1873 -0.6490 -1.6543
  312MOL0     H42089   5.417   0.368   9.371 -0.5018 -0.6354 -0.7133
  312MOL0     H42090   5.483   0.140   9.426  1.4860  3.1457 -0.6078
  312MOL0     H42091   5.316   0.153   9.373  0.0387 -1.9284 -0.1385
  312MOL0     H42092   5.414   0.122   9.667  1.4733 -1.6070 -0.0217
  312MOL0     H42093   5.241   0.144   9.622  1.2746  2.1689  0.2630
  312MOL0     H42094   5.392  -0.084   9.488 -0.6252 -0.2692  1.6389
  312MOL0     H42095   5.221  -0.051   9.500 -1.1900 -1.6159 -0.7822
  312MOL0     H42096   5.395  -0.134   9.743  0.6582 -0.4486 -0.7423
  312MOL0     H42097   5.221  -0.081   9.736 -2.1366  0.8288 -4.3508
  312MOL0     H42098   5.347  -0.287   9.575  0.4916 -0.4760 -0.0574
  312MOL0     H42099   5.173  -0.241   9.571 -0.3055  1.0489  0.7229
  312MOL0     H42100   5.307  -0.406   9.794  0.8103 -0.6552  0.1526
  312MOL0     H42101   5.168  -0.442   9.686  0.5193  1.3516 -3.2745
  312MOL0     H42102   5.852   0.323   9.401  1.8054 -0.3989  0.4033
  312MOL0     H42103   6.065   0.425   9.451 -0.1180 -6.7016  0.4310
  312MOL0     H42104   6.329   0.615   9.568  1.2219 -1.4543 -0.4358
  312MOL0     H42105   6.573   0.671   9.565  1.7188 -1.6351  1.3776
  312MOL0     H42106   8.057   0.995   9.527 -0.0605  0.6737  0.5144
  312MOL0     H42107   8.264   1.139   9.495 -2.5220  0.5404  0.8908
  312MOL0     H42108   8.661   1.161   9.244  0.6318 -3.8372  1.5056
  312MOL0     H42109   8.852   1.258   9.157  2.0615 -0.6588 -0.1195
  312MOL0     H42110   9.115   1.212   9.150  1.7611  0.0070 -0.4727
  312MOL0     H42111   9.031   1.355   9.079  1.4105  0.1727  0.2678
  312MOL0     H42112   9.204   1.498   9.117 -0.4991 -0.8406 -3.1896
  312MOL0     H42113   9.262   1.363   9.024  0.2444 -0.5832 -0.6578
  312MOL0     H42114   9.337   1.255   9.254  1.4446  0.3887 -0.5146
  312MOL0     H42115   9.302   1.420   9.320 -0.3594  1.8576 -1.3154
  312MOL0     H42116   9.457   1.503   9.134 -1.2987 -0.5681 -1.6455
  312MOL0     H42117   9.478   1.340   9.087 -0.3987  2.5546 -2.5480
  312MOL0     H42118   9.772   1.402   9.380  1.0142  1.2587 -3.4407
  312MOL0     H42119   9.009   1.344   9.539  0.6912  3.5232 -2.5462
  312MOL0     H42120   8.793   1.248   9.645  1.7898 -0.0310  1.2042
  313MOL0     O42121   6.839   2.817   9.162 -1.1233  0.1406 -0.0697
  313MOL0     C42122   6.788   2.710   9.173  0.2473 -0.3872  0.5342
  313MOL0     O42123   6.662   2.691   9.227 -0.0432 -0.4689 -0.1375
  313MOL0     C42124   6.590   2.798   9.279  0.7515 -0.0708 -0.9711
  313MOL0     C42125   6.570   2.930   9.228  0.6151 -0.3320  0.1580
  313MOL0     C42126   6.501   3.030   9.292  0.3017  0.3994  0.2822
  313MOL0     C42127   6.440   3.001   9.420 -0.2125  0.6327 -0.3782
  313MOL0     O42128   6.335   3.077   9.464 -0.1254 -0.2814 -0.2601
  313MOL0     C42129   6.304   3.089   9.610 -0.2816  0.0306 -0.0590
  313MOL0     C42130   6.291   3.238   9.645 -1.2181 -0.2223 -0.1525
  313MOL0     C42131   6.166   3.308   9.593 -0.1369  0.3577  0.1756
  313MOL0     C42132   6.044   3.284   9.689  0.2522 -0.5106 -0.7695
  313MOL0     C42133   5.910   3.303   9.634  0.1629  0.1403 -0.9817
  313MOL0     C42134   5.803   3.302   9.749 -0.3898  0.7048  0.1633
  313MOL0     C42135   5.680   3.402   9.725  0.5059 -0.5445  0.0098
  313MOL0     C42136   5.592   3.410   9.855 -0.9392  0.1420  0.0661
  313MOL0     N42137   5.510   3.291   9.898  0.4375  0.7302 -0.0007
  313MOL0     C42138   5.417   3.227   9.820  0.4982  0.0621  0.7791
  313MOL0     C42139   5.332   3.162   9.900  1.0400  0.7674 -0.4492
  313MOL0     C42140   5.211   3.078   9.861  0.0272 -0.8371  0.3430
  313MOL0     C42141   5.236   2.978   9.742  0.2911 -0.4566 -0.1645
  313MOL0     C42142   5.104   2.929   9.688  0.2760  0.7250  0.0893
  313MOL0     C42143   5.005   2.855   9.776  0.2164 -0.4248 -1.0075
  313MOL0     O42144   4.907   2.946   9.824 -0.5215  0.5165  0.1706
  313MOL0     C42145   4.784   2.899   9.852  0.8818 -0.5397 -0.4091
  313MOL0     C42146   4.688   3.002   9.873 -0.0165  0.4596 -0.0689
  313MOL0     C42147   4.552   2.971   9.900  0.0104  0.0714 -0.2807
  313MOL0     C42148   4.464   3.087   9.920  0.6183  0.1035 -0.2829
  313MOL0     C42149   4.513   2.831   9.902  0.4803 -0.3856  0.3554
  313MOL0     C42150   4.374   2.789   9.933  0.2876  0.1472 -0.2424
  313MOL0     O42151   4.283   2.862   9.863  0.3240 -0.1993  0.4165
  313MOL0     C42152   4.151   2.819   9.847  0.0242 -0.2114 -0.0200
  313MOL0     C42153   4.072   2.725   9.935 -0.0770  0.3054  0.2222
  313MOL0     C42154   3.931   2.707   9.923  0.4932  0.2432 -1.0248
  313MOL0     C42155   3.861   2.784   9.824 -0.3593 -0.0547  0.3193
  313MOL0     O42156   3.726   2.793   9.804  0.6984 -0.4282  0.3493
  313MOL0     C42157   3.662   2.662   9.773 -0.2202  0.0457 -0.2986
  313MOL0     C42158   3.692   2.620   9.620 -0.2157  0.5060 -1.4822
  313MOL0     C42159   3.618   2.709   9.531  0.2307  0.2100  0.3941
  313MOL0     C42160   3.618   2.667   9.378  0.6225  0.1952  0.2634
  313MOL0     C42161   3.498   2.720   9.308  0.9232 -0.0602 -0.1425
  313MOL0     C42162   3.376   2.644   9.337 -0.0721 -0.2169  0.1777
  313MOL0     C42163   3.253   2.712   9.256  0.1793 -0.5541 -1.3132
  313MOL0     C42164   3.276   2.669   9.113 -0.6262  0.2511  0.2477
  313MOL0    Cl42165   3.134   2.704   9.010 -0.2354 -0.3153 -0.1709
  313MOL0     C42166   3.935   2.870   9.735 -0.1017  0.1618 -0.4631
  313MOL0     C42167   4.070   2.880   9.753 -0.5673 -0.2252  0.2192
  313MOL0     O42168   4.353   2.677   9.982 -0.2783 -0.1130  0.2901
  313MOL0     C42169   4.610   2.730   9.873 -1.1507 -0.4862 -0.1040
  313MOL0     C42170   4.747   2.763   9.859  0.0546 -0.1146 -0.4960
  313MOL0     N42171   5.369   3.189  10.028  0.4763 -0.0465  0.9488
  313MOL0     N42172   5.479   3.254  10.024 -0.4211  0.5078 -0.2914
  313MOL0     C42173   6.461   2.873   9.475 -0.6143 -0.0471  0.0591
  313MOL0     C42174   6.531   2.774   9.406  0.6958  0.6128  0.1986
  313MOL0     C42175   6.867   2.589   9.142  1.2001  0.0513 -0.6506
  313MOL0     C42176   6.819   2.463   9.179 -0.4064 -0.3421 -1.0223
  313MOL0     C42177   6.888   2.347   9.146  0.0190 -0.2732 -0.4724
  313MOL0     C42178   7.012   2.354   9.072  1.0052  0.3709 -0.4362
  313MOL0     O42179   7.087   2.247   9.028  0.5408 -0.4984 -0.3819
  313MOL0     C42180   7.064   2.117   9.077  0.5341  0.1927 -0.6027
  313MOL0     C42181   7.119   2.011   8.981 -0.4667 -0.3434  0.2771
  313MOL0     C42182   7.270   2.011   8.977 -0.6562 -0.0536  0.6883
  313MOL0     C42183   7.320   1.893   8.893  0.3497 -0.0743  0.0780
  313MOL0     C42184   7.271   1.772   8.944 -0.5476  0.6893  0.0788
  313MOL0     C42185   7.226   1.664   8.986  0.1918 -0.3208 -0.0250
  313MOL0     C42186   7.056   2.483   9.036  0.1661  0.4400 -0.1739
  313MOL0     C42187   6.985   2.598   9.071  0.0819 -1.1999  0.2828
  313MOL0     H42188   6.609   2.962   9.132  1.3972  0.4673  0.7235
  313MOL0     H42189   6.490   3.128   9.246 -0.3148 -1.2934 -3.5074
  313MOL0     H42190   6.214   3.037   9.643 -0.7879  0.8438 -0.1350
  313MOL0     H42191   6.384   3.046   9.671 -0.7113 -1.1706 -0.3078
  313MOL0     H42192   6.301   3.242   9.753  1.9236 -0.9490 -0.3174
  313MOL0     H42193   6.377   3.296   9.612 -0.2947  1.0160  3.9793
  313MOL0     H42194   6.193   3.412   9.576 -0.0640  0.3520  0.2539
  313MOL0     H42195   6.148   3.252   9.500  2.3072 -0.8816  0.3550
  313MOL0     H42196   6.063   3.191   9.743  2.3159  0.4930  0.3390
  313MOL0     H42197   6.050   3.354   9.772  0.1673 -2.3533  0.8788
  313MOL0     H42198   5.906   3.400   9.584  0.6915  1.5001  1.4588
  313MOL0     H42199   5.885   3.225   9.561 -1.5463 -2.0771  1.7530
  313MOL0     H42200   5.773   3.199   9.771  2.1604  0.0098  0.7263
  313MOL0     H42201   5.854   3.327   9.843  1.5297 -0.2708 -0.5603
  313MOL0     H42202   5.711   3.505   9.707 -2.2094  0.8123  2.3520
  313MOL0     H42203   5.619   3.371   9.639  1.0008  0.1003 -0.5841
  313MOL0     H42204   5.530   3.498   9.835  0.7244  1.6181  1.0750
  313MOL0     H42205   5.662   3.435   9.936 -3.2652  0.2759  2.1382
  313MOL0     H42206   5.415   3.230   9.711  1.7001  0.2106  0.7489
  313MOL0     H42207   5.183   3.007   9.939 -2.1314  0.7905  1.1385
  313MOL0     H42208   5.130   3.148   9.842  1.6895  0.8360 -0.9668
  313MOL0     H42209   5.305   2.898   9.771  0.2682  0.0842  1.4369
  313MOL0     H42210   5.287   3.023   9.655 -3.2456 -1.7244 -3.1611
  313MOL0     H42211   5.146   2.862   9.612 -0.8055 -1.5431  1.4043
  313MOL0     H42212   5.061   3.017   9.639  0.0280  0.7888  0.4187
  313MOL0     H42213   5.053   2.812   9.865 -1.4428 -0.9254 -0.3202
  313MOL0     H42214   4.955   2.776   9.719  1.5900 -1.1720 -1.2279
  313MOL0     H42215   4.717   3.105   9.852 -0.5635  0.7779  0.7197
  313MOL0     H42216   4.524   3.156   9.981  2.4492 -2.3704  0.8854
  313MOL0     H42217   4.434   3.132   9.825 -1.8391  1.1114  0.8903
  313MOL0     H42218   4.381   3.056   9.984  0.4388 -3.2773 -1.9744
  313MOL0     H42219   4.122   2.669  10.013  2.0084  0.7684 -0.6958
  313MOL0     H42220   3.873   2.643   9.988  0.5281 -0.0914 -1.3233
  313MOL0     H42221   3.701   2.588   9.844 -0.6408 -0.2145 -0.3362
  313MOL0     H42222   3.553   2.655   9.781 -0.0894 -1.0133  0.9781
  313MOL0     H42223   3.798   2.625   9.593  0.0761 -0.1626 -0.5059
  313MOL0     H42224   3.658   2.516   9.618 -0.0914  0.3842  0.3516
  313MOL0     H42225   3.663   2.809   9.541  1.7348 -0.4128  0.0822
  313MOL0     H42226   3.518   2.709   9.576  1.0280 -0.5876  2.3140
  313MOL0     H42227   3.703   2.708   9.324  1.8977 -0.6356  1.5798
  313MOL0     H42228   3.618   2.557   9.376  4.3440  0.0757  0.9930
  313MOL0     H42229   3.518   2.713   9.201 -2.4256  0.0037 -0.8892
  313MOL0     H42230   3.474   2.825   9.329 -0.9299 -0.0530 -1.9239
  313MOL0     H42231   3.388   2.541   9.302 -1.0873  0.8036 -3.6054
  313MOL0     H42232   3.361   2.640   9.445 -0.3470  0.4535  0.1725
  313MOL0     H42233   3.233   2.819   9.264 -1.3222 -0.8827  0.1976
  313MOL0     H42234   3.168   2.653   9.293  1.4125 -1.6627 -0.1347
  313MOL0     H42235   3.284   2.560   9.113 -2.9347  0.0037 -1.8832
  313MOL0     H42236   3.359   2.724   9.066 -0.3572 -0.1869  0.2008
  313MOL0     H42237   3.885   2.931   9.661 -1.3927 -0.0128  0.2336
  313MOL0     H42238   4.122   2.941   9.679  0.9762 -2.6148 -0.7896
  313MOL0     H42239   4.578   2.627   9.866  0.6208 -0.9607 -4.8428
  313MOL0     H42240   4.827   2.689   9.863  0.8287  0.7066  3.1485
  313MOL0     H42241   6.417   2.842   9.569  0.6582 -0.3396  0.5693
  313MOL0     H42242   6.545   2.677   9.453  1.6527  0.4675 -0.3618
  313MOL0     H42243   6.729   2.464   9.238 -0.0915 -0.0569 -0.5411
  313MOL0     H42244   6.841   2.255   9.180 -0.6198 -0.4888 -1.8826
  313MOL0     H42245   7.110   2.117   9.176 -0.1578 -0.0567 -0.2762
  313MOL0     H42246   6.957   2.092   9.081 -0.3196  3.4213  0.1731
  313MOL0     H42247   7.076   2.028   8.882 -1.0848 -2.2534  0.1895
  313MOL0     H42248   7.082   1.911   9.006 -0.2714 -0.3795  0.4257
  313MOL0     H42249   7.308   1.994   9.078 -0.4099 -0.8080  0.4714
  313MOL0     H42250   7.299   2.107   8.933  0.7697 -1.0247 -0.5851
  313MOL0     H42251   7.429   1.884   8.900  0.1616 -1.4235  3.8091
  313MOL0     H42252   7.298   1.895   8.786 -0.8042 -0.0017  0.3028
  313MOL0     H42253   7.201   1.573   9.037 -0.7063 -0.5242 -0.8076
  313MOL0     H42254   7.153   2.495   8.989  0.2985  1.1013  0.2628
  313MOL0     H42255   7.027   2.694   9.041 -2.8455  0.1701  0.1779
  314MOL0     O42256   3.483   8.385   5.017  0.4257 -0.1601 -0.0569
  314MOL0     C42257   3.569   8.473   5.050  0.7467 -0.0079 -0.6890
  314MOL0     O42258   3.541   8.606   5.078 -0.4919  0.5887 -0.2274
  314MOL0     C42259   3.409   8.642   5.043  0.1712  0.4960 -0.0188
  314MOL0     C42260   3.342   8.610   4.923  1.6232  0.3560 -0.5324
  314MOL0     C42261   3.205   8.647   4.912 -0.2037  0.0794  0.2357
  314MOL0     C42262   3.146   8.705   5.022  0.1742  0.9578 -0.6877
  314MOL0     O42263   3.009   8.734   5.013  0.7396 -0.3893  0.3551
  314MOL0     C42264   2.931   8.680   5.126 -0.8140 -0.0056 -0.3978
  314MOL0     C42265   2.824   8.593   5.066  0.9321 -0.1672  0.7013
  314MOL0     C42266   2.683   8.619   5.135 -0.0020  0.1809  0.0824
  314MOL0     C42267   2.596   8.492   5.131 -0.1785 -0.8390 -0.0914
  314MOL0     C42268   2.443   8.517   5.136  0.4084  0.0968 -0.1081
  314MOL0     C42269   2.358   8.390   5.119  0.1169 -0.2275 -0.9988
  314MOL0     C42270   2.212   8.441   5.119  1.1483  0.2530 -0.4706
  314MOL0     C42271   2.119   8.321   5.136  0.5062 -0.0680 -0.5726
  314MOL0     N42272   2.148   8.234   5.248 -1.2095 -0.3216  0.4095
  314MOL0     C42273   2.094   8.242   5.373  0.2906  0.0289  0.6191
  314MOL0     C42274   2.128   8.117   5.426  0.0913 -0.1636  0.3370
  314MOL0     C42275   2.069   8.055   5.547 -0.5210  0.4176 -0.2416
  314MOL0     C42276   1.924   8.019   5.543  0.3405  0.2883 -0.0465
  314MOL0     C42277   1.911   7.881   5.474 -0.4700 -0.1051 -0.5541
  314MOL0     C42278   1.946   7.877   5.324  0.0680  0.4345 -0.3158
  314MOL0     O42279   1.881   7.979   5.249  0.2352  0.5972 -0.0112
  314MOL0     C42280   1.738   7.975   5.249  0.1037 -0.5269 -0.3541
  314MOL0     C42281   1.673   8.094   5.229  0.7365 -0.3852 -0.0873
  314MOL0     C42282   1.530   8.104   5.213  0.4066 -0.4545 -0.9415
  314MOL0     C42283   1.483   8.239   5.183  0.0739 -0.4243 -1.0808
  314MOL0     C42284   1.454   7.990   5.238 -0.3767  0.3245  0.9770
  314MOL0     C42285   1.309   7.995   5.240 -0.5148 -0.4400  0.6835
  314MOL0     O42286   1.231   7.953   5.131  0.1020  0.1836  0.1205
  314MOL0     C42287   1.095   7.944   5.158  0.3150 -0.1281  0.8143
  314MOL0     C42288   1.039   7.821   5.194  0.0002  0.3084 -0.6447
  314MOL0     C42289   0.896   7.813   5.219 -0.2574 -0.4894 -0.1840
  314MOL0     C42290   0.816   7.926   5.213  0.0060  0.0273 -0.0941
  314MOL0     O42291   0.680   7.923   5.237  0.4728  0.3174  0.4091
  314MOL0     C42292   0.609   7.885   5.115  1.0932  1.5466 -0.4672
  314MOL0     C42293   0.510   7.987   5.068 -0.1358 -0.6259 -0.3254
  314MOL0     C42294   0.435   7.946   4.939  0.6106  1.0426  0.3094
  314MOL0     C42295   0.331   7.835   4.937 -0.0118 -0.1063 -0.4862
  314MOL0     C42296   0.248   7.853   4.812  0.2886 -0.7142 -0.2647
  314MOL0     C42297   0.131   7.759   4.820 -0.7695 -0.0238 -0.5006
  314MOL0     C42298   0.074   7.731   4.688  0.8250  0.1876  0.1563
  314MOL0     C42299   0.004   7.595   4.693  0.2672 -0.8322  0.5945
  314MOL0    Cl42300  -0.134   7.620   4.800 -0.6269  0.0382  0.1395
  314MOL0     C42301   0.880   8.047   5.168 -0.2118  0.1894 -1.1487
  314MOL0     C42302   1.016   8.057   5.144  0.4436 -0.2947 -0.4270
  314MOL0     O42303   1.259   8.029   5.346 -0.3299  0.3429  0.3258
  314MOL0     C42304   1.520   7.866   5.253  0.4827 -0.2809 -0.2455
  314MOL0     C42305   1.658   7.859   5.244 -0.0013  0.6994 -0.1211
  314MOL0     N42306   2.216   8.048   5.334  0.8542  1.0295 -0.1427
  314MOL0     N42307   2.214   8.114   5.226  1.0943 -0.5507  0.1850
  314MOL0     C42308   3.213   8.729   5.140 -0.6152  0.1788 -0.1385
  314MOL0     C42309   3.338   8.691   5.152 -1.3707  0.0242  0.2080
  314MOL0     C42310   3.701   8.423   5.070 -0.4265  0.4670 -0.7396
  314MOL0     C42311   3.809   8.518   5.076 -0.0536  0.6639  0.3083
  314MOL0     C42312   3.940   8.481   5.071 -0.5427  0.6003  0.2711
  314MOL0     C42313   3.971   8.344   5.071 -0.3697 -1.0482 -0.1583
  314MOL0     O42314   4.098   8.313   5.101 -0.4873 -0.5361 -0.5543
  314MOL0     C42315   4.153   8.210   5.014  0.0549 -0.2420  0.0032
  314MOL0     C42316   4.307   8.168   5.047  0.3206 -0.1271 -0.3700
  314MOL0     C42317   4.334   8.173   5.197  1.0603  0.3311  0.0530
  314MOL0     C42318   4.478   8.130   5.209  0.0075 -0.0952  1.0896
  314MOL0     C42319   4.542   8.177   5.331  0.0384  0.0800 -0.2714
  314MOL0     C42320   4.599   8.225   5.426 -0.9598  0.1975 -0.3266
  314MOL0     C42321   3.874   8.250   5.076 -0.1524 -0.2344  0.3332
  314MOL0     C42322   3.741   8.287   5.058 -0.1324 -0.4454 -0.6948
  314MOL0     H42323   3.392   8.550   4.847 -0.8509 -1.9588 -0.5116
  314MOL0     H42324   3.153   8.646   4.817  2.3833  0.6430 -1.3041
  314MOL0     H42325   2.985   8.631   5.208 -0.1130  0.5311 -0.5279
  314MOL0     H42326   2.880   8.759   5.183 -1.2980 -0.8924  0.4294
  314MOL0     H42327   2.803   8.608   4.960 -0.7397 -1.0855  0.8797
  314MOL0     H42328   2.868   8.493   5.074  0.0662 -0.7578 -1.4407
  314MOL0     H42329   2.696   8.666   5.233  2.6606 -1.5939  0.6869
  314MOL0     H42330   2.632   8.692   5.072  0.7145  0.4679 -0.1771
  314MOL0     H42331   2.608   8.450   5.030 -0.6341  1.3667 -1.1240
  314MOL0     H42332   2.619   8.425   5.214  0.2973 -0.0603  0.4228
  314MOL0     H42333   2.419   8.554   5.236 -2.1771 -6.1763  2.1125
  314MOL0     H42334   2.429   8.593   5.058  3.5165 -1.2412 -2.2007
  314MOL0     H42335   2.383   8.336   5.027 -2.2977  0.2020 -1.9843
  314MOL0     H42336   2.379   8.317   5.198  2.4228 -2.4827 -3.4739
  314MOL0     H42337   2.198   8.498   5.212  0.3149 -1.0119  0.2122
  314MOL0     H42338   2.179   8.501   5.034 -0.1223 -0.8646 -0.8050
  314MOL0     H42339   2.117   8.259   5.045 -1.8931  0.2208 -0.7842
  314MOL0     H42340   2.019   8.366   5.138  1.1620  1.5008 -1.0252
  314MOL0     H42341   2.029   8.321   5.410 -4.1111 -3.6930  1.8336
  314MOL0     H42342   2.129   7.968   5.575 -2.3207 -0.8683 -0.2077
  314MOL0     H42343   2.085   8.125   5.629 -0.9665  0.0611  0.1533
  314MOL0     H42344   1.868   8.097   5.492 -0.0302  0.9254  1.2880
  314MOL0     H42345   1.893   8.006   5.647  1.9399  2.7679  0.8224
  314MOL0     H42346   1.805   7.854   5.478 -0.1941 -1.1543  0.5960
  314MOL0     H42347   1.964   7.803   5.530 -0.7885 -1.0625 -1.5570
  314MOL0     H42348   1.916   7.778   5.289 -0.2420  1.1934 -2.3461
  314MOL0     H42349   2.053   7.866   5.308 -0.2275 -0.4341 -1.8601
  314MOL0     H42350   1.728   8.187   5.218  0.0663 -0.0726 -0.8164
  314MOL0     H42351   1.383   8.258   5.222 -0.1864  0.2830 -2.0477
  314MOL0     H42352   1.547   8.318   5.223 -0.8244  0.6611 -1.7254
  314MOL0     H42353   1.482   8.254   5.074  0.8605 -2.0527 -1.3400
  314MOL0     H42354   1.099   7.730   5.194  2.6796  1.9329  0.3892
  314MOL0     H42355   0.854   7.714   5.236  3.3020 -2.0648  0.2673
  314MOL0     H42356   0.671   7.860   5.029 -0.5410 -1.4660 -0.9041
  314MOL0     H42357   0.561   7.792   5.145  4.8910 -0.1983  0.7533
  314MOL0     H42358   0.438   7.991   5.150  2.1735 -0.3443  1.7893
  314MOL0     H42359   0.547   8.090   5.062 -2.7333  0.3609 -1.2006
  314MOL0     H42360   0.503   7.915   4.859 -1.3543 -0.5280 -0.8546
  314MOL0     H42361   0.394   8.042   4.907 -0.5424  0.1092 -1.1585
  314MOL0     H42362   0.384   7.739   4.938 -2.6793 -1.6759 -0.3467
  314MOL0     H42363   0.270   7.856   5.026  1.1993  4.3768 -0.4451
  314MOL0     H42364   0.299   7.847   4.715 -1.8270  2.9296 -1.8334
  314MOL0     H42365   0.203   7.953   4.805  1.1331 -0.3264 -0.3110
  314MOL0     H42366   0.185   7.673   4.859 -0.7391  0.8925  1.6311
  314MOL0     H42367   0.054   7.778   4.896  0.2737  2.1734  0.0940
  314MOL0     H42368   0.151   7.715   4.611  2.4560  0.3184  1.6826
  314MOL0     H42369   0.007   7.813   4.662  1.5625  0.1828 -2.0089
  314MOL0     H42370   0.067   7.519   4.739  3.1347 -0.2352 -2.0323
  314MOL0     H42371  -0.036   7.564   4.596  0.3112  2.5614 -0.6306
  314MOL0     H42372   0.818   8.135   5.159  0.4753  0.7185 -0.7903
  314MOL0     H42373   1.059   8.149   5.107 -1.9946  0.6859 -1.0195
  314MOL0     H42374   1.458   7.783   5.285 -1.5503  1.6538  1.1489
  314MOL0     H42375   1.710   7.763   5.252  1.0120  1.2738  0.4477
  314MOL0     H42376   3.169   8.786   5.221  0.2579 -1.8505  1.8718
  314MOL0     H42377   3.404   8.704   5.237  1.4422  2.2904 -2.1038
  314MOL0     H42378   3.792   8.626   5.076 -3.7263  0.2204  0.8023
  314MOL0     H42379   4.025   8.548   5.068  0.4812 -0.6643  0.2515
  314MOL0     H42380   4.092   8.120   5.023  0.2645 -0.3715  0.1493
  314MOL0     H42381   4.148   8.235   4.908 -1.3065 -1.0156 -0.1358
  314MOL0     H42382   4.378   8.236   4.999 -0.1396  0.5343 -0.1317
  314MOL0     H42383   4.318   8.069   5.002  0.1313  0.2281 -1.2057
  314MOL0     H42384   4.261   8.115   5.254 -1.4441  1.9077 -1.3838
  314MOL0     H42385   4.323   8.278   5.223  0.7053  0.0481  1.0984
  314MOL0     H42386   4.538   8.165   5.125  0.0161 -0.4688  0.9397
  314MOL0     H42387   4.482   8.020   5.210  1.2192 -0.1790 -1.8288
  314MOL0     H42388   4.636   8.276   5.513 -1.8423 -1.3922  1.0285
  314MOL0     H42389   3.898   8.144   5.085  0.0372 -0.1719  0.5721
  314MOL0     H42390   3.667   8.209   5.051 -0.3765 -0.3758  0.7379
  315MOL0     O42391   9.657   0.160   3.568 -0.1801 -0.1321  0.2891
  315MOL0     C42392   9.615   0.263   3.626  0.1228 -0.0781  0.9970
  315MOL0     O42393   9.691   0.375   3.653 -0.1558 -0.2515  0.3919
  315MOL0     C42394   9.821   0.379   3.600  0.1210 -0.5978  0.5769
  315MOL0     C42395   9.840   0.434   3.473 -0.5521 -0.6468  0.5653
  315MOL0     C42396   9.977   0.428   3.416  0.2737  0.1292  0.2473
  315MOL0     C42397  10.078   0.364   3.479  0.2941 -0.3613 -0.7724
  315MOL0     O42398  10.204   0.354   3.424 -0.5175  0.0030 -0.5098
  315MOL0     C42399  10.258   0.478   3.372  1.0293 -0.0449 -0.2545
  315MOL0     C42400  10.251   0.605   3.467  0.1021 -0.4838 -0.2463
  315MOL0     C42401  10.282   0.748   3.410  0.2360  1.2169 -0.4736
  315MOL0     C42402  10.176   0.803   3.316 -0.4116 -0.0715 -0.0649
  315MOL0     C42403  10.196   0.945   3.266  0.8875  0.3513 -0.5101
  315MOL0     C42404  10.072   1.010   3.208 -0.2025 -0.6772  0.4982
  315MOL0     C42405  10.104   1.161   3.195 -0.0673  0.3267 -1.0285
  315MOL0     C42406   9.987   1.219   3.127  0.0398  0.1500 -1.2156
  315MOL0     N42407   9.877   1.254   3.212  0.8946  0.2344 -0.7401
  315MOL0     C42408   9.869   1.345   3.312 -0.1740 -0.3838 -0.7980
  315MOL0     C42409   9.743   1.345   3.367  0.7325  0.5082 -0.3149
  315MOL0     C42410   9.698   1.413   3.492  0.4346  0.0870  0.0573
  315MOL0     C42411   9.584   1.513   3.469  0.0436 -0.2389  0.3827
  315MOL0     C42412   9.471   1.452   3.391 -0.0320 -0.5354 -0.2995
  315MOL0     C42413   9.367   1.559   3.357 -0.2367 -0.2285  0.2429
  315MOL0     O42414   9.245   1.512   3.301  1.4445  0.0247  1.0159
  315MOL0     C42415   9.135   1.481   3.375  0.4139  0.1739 -0.3534
  315MOL0     C42416   9.130   1.487   3.516  1.1150  0.0840 -0.1061
  315MOL0     C42417   9.009   1.464   3.586  0.7000 -0.6310  0.6888
  315MOL0     C42418   9.001   1.483   3.735 -0.2448  0.1588  0.1715
  315MOL0     C42419   8.896   1.422   3.512 -0.1348  0.4077 -0.5395
  315MOL0     C42420   8.769   1.373   3.580  0.1460  0.5819  1.1060
  315MOL0     O42421   8.664   1.383   3.497 -0.3262  0.8118 -0.0029
  315MOL0     C42422   8.545   1.395   3.555 -0.3849 -0.4079 -1.5031
  315MOL0     C42423   8.447   1.303   3.531  0.7015  0.5857 -0.1975
  315MOL0     C42424   8.322   1.318   3.589 -0.2305  0.1868 -0.5351
  315MOL0     C42425   8.292   1.443   3.643  0.5463  0.5261 -0.6021
  315MOL0     O42426   8.175   1.479   3.712 -0.6811 -0.6335 -0.5933
  315MOL0     C42427   8.069   1.379   3.720  0.6882 -0.4967  0.5771
  315MOL0     C42428   7.947   1.430   3.797  0.5732 -0.2124 -0.1011
  315MOL0     C42429   7.977   1.447   3.942 -0.5172  0.2695  0.6245
  315MOL0     C42430   7.857   1.494   4.020 -0.7659  0.1594  0.5624
  315MOL0     C42431   7.878   1.491   4.173  0.3068  0.3991  0.1350
  315MOL0     C42432   7.992   1.576   4.224  0.0472 -0.3846 -0.3256
  315MOL0     C42433   7.954   1.733   4.230 -0.3560  0.4486 -0.4402
  315MOL0     C42434   7.858   1.761   4.346  0.1817 -0.0228  0.4997
  315MOL0    Cl42435   7.848   1.943   4.366 -0.1958  0.5225  0.3063
  315MOL0     C42436   8.379   1.535   3.663 -0.4737  0.3176 -0.2773
  315MOL0     C42437   8.511   1.513   3.625  0.1366 -0.1240  0.5735
  315MOL0     O42438   8.771   1.328   3.690  0.8762 -0.4409  0.3582
  315MOL0     C42439   8.906   1.424   3.373  0.2315 -0.7773  0.0396
  315MOL0     C42440   9.021   1.459   3.302  0.6122  0.1187  0.7354
  315MOL0     N42441   9.673   1.244   3.292  0.2250  0.2569  0.3313
  315MOL0     N42442   9.757   1.189   3.214 -0.0998  0.4445  0.7162
  315MOL0     C42443  10.056   0.304   3.604 -0.3710 -0.1586 -0.1676
  315MOL0     C42444   9.926   0.313   3.661  0.2002 -0.1034 -0.6230
  315MOL0     C42445   9.477   0.257   3.683 -0.6223 -0.4109 -0.3892
  315MOL0     C42446   9.416   0.129   3.680  0.5712  0.1773 -0.9186
  315MOL0     C42447   9.292   0.105   3.742  0.0202  0.3588  0.4488
  315MOL0     C42448   9.224   0.209   3.802 -0.4258 -0.2367 -0.6687
  315MOL0     O42449   9.103   0.205   3.856  0.2228  0.3337 -0.0351
  315MOL0     C42450   9.002   0.100   3.838  0.1971  0.1185  0.0018
  315MOL0     C42451   9.032  -0.001   3.959 -0.5104  0.0137 -0.0048
  315MOL0     C42452   9.012   0.076   4.091 -0.9494 -0.1416 -0.7007
  315MOL0     C42453   8.992  -0.014   4.219 -1.6600  0.0708 -0.3650
  315MOL0     C42454   8.861  -0.084   4.222 -0.1980 -0.4830 -0.4440
  315MOL0     C42455   8.754  -0.140   4.243 -0.3976 -0.4573 -0.0436
  315MOL0     C42456   9.279   0.343   3.797 -0.3640 -0.1611 -1.0604
  315MOL0     C42457   9.409   0.365   3.747  0.2438  0.1659 -0.0094
  315MOL0     H42458   9.765   0.473   3.404  1.3097 -1.4344 -2.0770
  315MOL0     H42459   9.989   0.466   3.315  1.1037 -1.0250 -0.1065
  315MOL0     H42460  10.356   0.441   3.341 -0.3798 -3.2218 -1.3021
  315MOL0     H42461  10.210   0.490   3.275  1.2455 -3.3525 -0.8641
  315MOL0     H42462  10.153   0.607   3.515  0.3015  1.1855  0.1531
  315MOL0     H42463  10.331   0.596   3.542 -0.4523  1.4865  0.6615
  315MOL0     H42464  10.300   0.816   3.493 -1.3131  2.4159 -1.0752
  315MOL0     H42465  10.379   0.745   3.359  0.3543  3.1202 -0.4421
  315MOL0     H42466  10.167   0.732   3.233 -6.1724  1.2151 -0.9732
  315MOL0     H42467  10.084   0.796   3.375 -0.3649 -1.8371 -0.1513
  315MOL0     H42468  10.236   0.989   3.358  2.0707  0.8415 -1.2328
  315MOL0     H42469  10.277   0.948   3.192  0.9729 -2.2356 -0.6055
  315MOL0     H42470  10.049   0.972   3.109  0.1799 -0.7999  0.4525
  315MOL0     H42471   9.984   1.003   3.272  0.9684 -1.0053  2.1512
  315MOL0     H42472  10.128   1.202   3.294 -1.5407 -2.4054  0.6018
  315MOL0     H42473  10.198   1.168   3.140  2.0937  1.0748  2.4607
  315MOL0     H42474   9.946   1.156   3.047  0.1880 -0.5815 -0.7287
  315MOL0     H42475  10.016   1.318   3.090  1.4731  1.1987  2.3544
  315MOL0     H42476   9.945   1.415   3.345  1.3950 -3.0773  1.8890
  315MOL0     H42477   9.684   1.326   3.556  2.2473  0.3527  0.8927
  315MOL0     H42478   9.788   1.463   3.529  0.2923 -1.2902  2.4554
  315MOL0     H42479   9.621   1.599   3.412  1.1323  1.4080  3.3322
  315MOL0     H42480   9.543   1.558   3.560  1.3948  2.4649 -0.2592
  315MOL0     H42481   9.429   1.366   3.444 -3.9109  1.2256 -0.1573
  315MOL0     H42482   9.509   1.420   3.294  0.4272 -0.3455 -0.1884
  315MOL0     H42483   9.409   1.624   3.281  0.0846 -3.0121 -2.1669
  315MOL0     H42484   9.342   1.623   3.442  1.2793  2.2367 -1.0832
  315MOL0     H42485   9.217   1.506   3.578  1.2485 -2.3105  0.5312
  315MOL0     H42486   8.965   1.398   3.793 -0.5819  0.4030  0.3240
  315MOL0     H42487   9.102   1.504   3.772  0.5521  2.2802 -2.7913
  315MOL0     H42488   8.935   1.570   3.730 -0.7185 -0.2362 -0.4589
  315MOL0     H42489   8.460   1.204   3.488 -3.3857 -1.4383  2.4894
  315MOL0     H42490   8.246   1.240   3.587 -0.3133  0.1539  1.7018
  315MOL0     H42491   8.034   1.352   3.620  2.9566 -1.5907 -0.0092
  315MOL0     H42492   8.102   1.282   3.758  2.6899  0.6851  2.1202
  315MOL0     H42493   7.910   1.516   3.741  0.0615 -0.1935  0.2635
  315MOL0     H42494   7.866   1.359   3.781 -1.2467  0.9920  2.9037
  315MOL0     H42495   8.060   1.518   3.944 -0.0149 -0.2142 -1.3795
  315MOL0     H42496   8.013   1.346   3.964  0.3420  0.3572 -0.3475
  315MOL0     H42497   7.830   1.592   3.978  0.4687  0.5664  0.6986
  315MOL0     H42498   7.777   1.428   3.987  1.4553 -1.0410 -2.9692
  315MOL0     H42499   7.890   1.390   4.212  0.6021  0.7785  1.0622
  315MOL0     H42500   7.783   1.524   4.215 -0.2364  0.0472 -0.7820
  315MOL0     H42501   8.007   1.540   4.326 -1.1612 -1.8958 -0.6506
  315MOL0     H42502   8.090   1.563   4.175  2.0400  2.0928  2.6175
  315MOL0     H42503   7.896   1.763   4.143 -0.4415  3.8977  0.6574
  315MOL0     H42504   8.045   1.791   4.242  0.9730 -1.5945 -0.0414
  315MOL0     H42505   7.880   1.710   4.441 -0.2224 -1.3408 -0.0926
  315MOL0     H42506   7.764   1.715   4.313  0.3830  1.0100 -1.7066
  315MOL0     H42507   8.359   1.631   3.710 -0.0472  1.6369 -2.6293
  315MOL0     H42508   8.588   1.586   3.651 -1.8396  2.3182 -0.0386
  315MOL0     H42509   8.816   1.407   3.314  1.2772 -0.3651 -1.7613
  315MOL0     H42510   9.019   1.469   3.194  0.2926  0.9539  0.8155
  315MOL0     H42511  10.142   0.254   3.648  0.8799  0.3822 -1.9091
  315MOL0     H42512   9.895   0.264   3.752 -2.4480  1.7221 -0.4211
  315MOL0     H42513   9.483   0.047   3.656  1.5068  0.1376  1.5137
  315MOL0     H42514   9.241   0.009   3.743 -0.6565  0.7079  1.5989
  315MOL0     H42515   8.904   0.147   3.847 -0.0963 -0.7581  1.9752
  315MOL0     H42516   9.012   0.056   3.738 -0.0683 -0.2238  0.1261
  315MOL0     H42517   9.131  -0.047   3.950  0.6321  2.6547 -2.5149
  315MOL0     H42518   8.957  -0.081   3.958  0.6076 -1.0899  1.0102
  315MOL0     H42519   8.919   0.132   4.076 -0.3663  1.2914  0.7024
  315MOL0     H42520   9.093   0.148   4.103 -0.3217 -0.8713 -0.4430
  315MOL0     H42521   9.000   0.053   4.305  0.0028  1.8520 -1.8091
  315MOL0     H42522   9.070  -0.090   4.225  0.3055  2.0341  0.2208
  315MOL0     H42523   8.665  -0.200   4.247 -1.3513  0.8975 -0.1632
  315MOL0     H42524   9.215   0.418   3.842  1.6933  1.2378 -0.3017
  315MOL0     H42525   9.454   0.463   3.742  0.2040  0.1418 -1.0650
  316MOL0     O42526   5.833   8.134   4.382  0.3557  0.9267 -0.4125
  316MOL0     C42527   5.819   8.026   4.436  0.2177  0.2317 -0.2325
  316MOL0     O42528   5.844   7.990   4.567 -0.1919  0.0531  0.5626
  316MOL0     C42529   5.886   8.087   4.657  0.9152  1.1231  0.0720
  316MOL0     C42530   5.824   8.212   4.661 -0.0130  0.8177  0.2841
  316MOL0     C42531   5.859   8.301   4.761 -0.1948 -0.5491  0.8065
  316MOL0     C42532   5.951   8.273   4.860  0.3620  0.6788  0.3199
  316MOL0     O42533   5.991   8.348   4.964 -0.0558 -0.4277  0.4100
  316MOL0     C42534   5.983   8.493   4.952 -1.0964  0.5495 -0.6228
  316MOL0     C42535   6.110   8.541   4.886  0.9547  0.5538  0.5411
  316MOL0     C42536   6.131   8.692   4.892  0.3375  0.4550 -0.4894
  316MOL0     C42537   6.261   8.727   4.830 -0.5520  0.0598 -0.3707
  316MOL0     C42538   6.284   8.881   4.851 -1.0903 -0.1683  0.3597
  316MOL0     C42539   6.420   8.917   4.794  0.1066  0.9494  0.7418
  316MOL0     C42540   6.459   9.064   4.815 -0.7393 -0.2909  0.0042
  316MOL0     C42541   6.590   9.098   4.753 -0.2996  0.0351  1.0243
  316MOL0     N42542   6.689   9.039   4.844 -0.2153 -0.0988  1.0882
  316MOL0     C42543   6.710   9.089   4.970 -0.1552 -0.0670 -0.8490
  316MOL0     C42544   6.812   9.006   5.020  0.2332  0.7150 -0.4206
  316MOL0     C42545   6.892   9.036   5.142  0.7889 -0.3959 -0.2900
  316MOL0     C42546   7.025   9.103   5.099 -0.7836  0.5291  0.8108
  316MOL0     C42547   7.006   9.242   5.097 -0.0953 -0.7885 -0.0996
  316MOL0     C42548   7.139   9.311   5.066 -0.1353 -0.2494  0.0882
  316MOL0     O42549   7.131   9.451   5.068  0.4984  0.6950  0.3301
  316MOL0     C42550   7.250   9.521   5.051  0.4931 -0.5143 -0.4712
  316MOL0     C42551   7.383   9.468   5.017  0.0382  0.4256 -0.0579
  316MOL0     C42552   7.502   9.537   5.013  0.6698  0.4411 -0.1703
  316MOL0     C42553   7.626   9.473   4.953 -0.5551  0.3632 -0.0259
  316MOL0     C42554   7.493   9.679   5.042  0.3205  0.0980 -0.7416
  316MOL0     C42555   7.600   9.772   5.035 -0.2107 -0.5912 -0.2289
  316MOL0     O42556   7.574   9.907   5.034 -0.2319 -0.1161 -0.0125
  316MOL0     C42557   7.667  10.002   5.009 -1.2344 -0.5155 -0.1561
  316MOL0     C42558   7.780  10.000   4.924  0.2550 -0.2538 -0.4031
  316MOL0     C42559   7.873  10.098   4.898  0.5654 -0.1066 -0.0554
  316MOL0     C42560   7.850  10.225   4.967 -0.2436  1.6161  0.3284
  316MOL0     O42561   7.945  10.321   4.941  0.3670 -0.2355 -0.6633
  316MOL0     C42562   7.978  10.402   5.052  0.0021 -0.3706 -0.6632
  316MOL0     C42563   8.117  10.449   5.034  1.3007 -0.6139  0.0794
  316MOL0     C42564   8.223  10.337   5.007  0.0984 -0.1165  0.2583
  316MOL0     C42565   8.356  10.408   4.975 -0.8460  0.4607 -0.2297
  316MOL0     C42566   8.481  10.342   5.030 -0.0712  0.5451  0.2828
  316MOL0     C42567   8.616  10.405   4.978  0.4351  0.9143  0.1172
  316MOL0     C42568   8.744  10.351   5.042 -0.1732 -0.2269 -1.0729
  316MOL0     C42569   8.871  10.415   4.975  0.2420  0.3983  0.0452
  316MOL0    Cl42570   8.916  10.568   5.052  0.3082 -0.2269  0.3849
  316MOL0     C42571   7.739  10.238   5.051 -1.1933 -0.4929 -0.5617
  316MOL0     C42572   7.651  10.130   5.075  0.4181 -0.3177 -0.6276
  316MOL0     O42573   7.712   9.730   5.052  0.4926 -0.2614  0.1967
  316MOL0     C42574   7.366   9.738   5.083 -0.8602 -0.3353  1.3704
  316MOL0     C42575   7.249   9.657   5.085  0.6615  0.0081 -0.4333
  316MOL0     N42576   6.841   8.907   4.921  0.1709  0.4082  0.0245
  316MOL0     N42577   6.766   8.926   4.820 -0.4945 -0.5486  0.0116
  316MOL0     C42578   6.001   8.146   4.861  0.9817 -0.0532  0.5749
  316MOL0     C42579   5.973   8.053   4.759 -0.5417 -0.3709  0.2388
  316MOL0     C42580   5.749   7.921   4.354 -0.9600  0.2177  0.2375
  316MOL0     C42581   5.668   7.948   4.246  0.3096  0.4316  0.6990
  316MOL0     C42582   5.582   7.847   4.187 -0.2939 -0.1808 -0.4489
  316MOL0     C42583   5.589   7.714   4.235 -0.2754  0.5145  0.5922
  316MOL0     O42584   5.516   7.610   4.184  0.2506 -0.2866 -0.8359
  316MOL0     C42585   5.397   7.647   4.118  0.6936 -0.5746 -0.5292
  316MOL0     C42586   5.332   7.516   4.090  0.0481  0.4387 -0.2383
  316MOL0     C42587   5.180   7.526   4.068  0.8533  0.3750  0.9369
  316MOL0     C42588   5.105   7.413   4.008 -0.1281 -0.7283 -0.0479
  316MOL0     C42589   5.141   7.280   4.051  0.6657  0.8393 -1.0851
  316MOL0     C42590   5.180   7.177   4.095  0.2121 -0.2412  0.4478
  316MOL0     C42591   5.679   7.688   4.344  0.2628  0.5551  0.7511
  316MOL0     C42592   5.761   7.788   4.401  0.1193  0.3047  0.2317
  316MOL0     H42593   5.750   8.230   4.583  0.0399 -2.6559 -0.7347
  316MOL0     H42594   5.818   8.402   4.755 -0.7413 -0.7897  0.4358
  316MOL0     H42595   5.890   8.523   4.903 -0.9089  0.8727 -0.7845
  316MOL0     H42596   5.982   8.526   5.056  0.1819 -3.7089  0.9440
  316MOL0     H42597   6.198   8.487   4.922 -0.8792 -2.4950  0.8420
  316MOL0     H42598   6.101   8.522   4.778  2.1971  1.1128  0.3203
  316MOL0     H42599   6.044   8.741   4.849  0.1400 -0.9117 -1.7266
  316MOL0     H42600   6.142   8.710   4.999 -1.7386 -0.8531 -0.0002
  316MOL0     H42601   6.351   8.676   4.867  0.7456 -0.4491 -3.8040
  316MOL0     H42602   6.258   8.695   4.725  2.5150 -2.0060  0.0257
  316MOL0     H42603   6.216   8.944   4.794  0.4152  0.6403 -0.6294
  316MOL0     H42604   6.288   8.914   4.955  3.3644  2.3394 -0.3449
  316MOL0     H42605   6.498   8.861   4.846  1.7896  4.8824  2.9731
  316MOL0     H42606   6.413   8.910   4.686 -0.3307 -0.3621  0.8391
  316MOL0     H42607   6.382   9.129   4.774 -1.3357 -0.7969  0.3051
  316MOL0     H42608   6.450   9.081   4.923 -1.1418 -1.7726  0.2347
  316MOL0     H42609   6.611   9.205   4.756 -1.9893  0.5959 -2.4699
  316MOL0     H42610   6.588   9.066   4.649 -2.7484  1.0935  0.6623
  316MOL0     H42611   6.654   9.169   5.018  0.1578 -1.8753  2.8327
  316MOL0     H42612   6.835   9.104   5.206  2.8507  0.3110  0.9138
  316MOL0     H42613   6.916   8.950   5.205 -2.9317  0.2311  2.3283
  316MOL0     H42614   7.049   9.060   5.001  0.0494 -0.8753  1.5962
  316MOL0     H42615   7.110   9.068   5.159  1.0677  1.1816 -1.2972
  316MOL0     H42616   6.957   9.274   5.190 -0.4428 -0.0624 -0.5252
  316MOL0     H42617   6.940   9.273   5.016  0.6201 -1.2748 -0.8813
  316MOL0     H42618   7.186   9.268   4.977 -2.2141 -0.7034 -0.8671
  316MOL0     H42619   7.205   9.284   5.148  0.2171 -5.3858 -1.5362
  316MOL0     H42620   7.380   9.364   4.988  0.5426  0.4101 -0.0520
  316MOL0     H42621   7.710   9.487   5.022  0.8768 -1.8027 -1.1880
  316MOL0     H42622   7.604   9.366   4.941 -2.0734  0.7152 -0.6655
  316MOL0     H42623   7.635   9.522   4.856 -0.2319  1.2748  0.4578
  316MOL0     H42624   7.793   9.907   4.869  2.8435  0.3937 -1.0371
  316MOL0     H42625   7.942  10.077   4.817 -2.5129 -1.1212 -2.6640
  316MOL0     H42626   7.915  10.491   5.054  0.1314 -0.2940  0.1770
  316MOL0     H42627   7.971  10.347   5.146  0.8029  0.1946 -0.2548
  316MOL0     H42628   8.111  10.528   4.959  0.3587 -1.6665 -0.9773
  316MOL0     H42629   8.147  10.500   5.126  2.8233  1.0902 -1.2875
  316MOL0     H42630   8.190  10.269   4.927  1.7560 -0.4440 -0.1809
  316MOL0     H42631   8.231  10.277   5.098  2.8476  0.2045  0.3055
  316MOL0     H42632   8.377  10.393   4.869  0.7175 -1.9631  0.3612
  316MOL0     H42633   8.352  10.514   5.001 -2.1758 -0.0403  1.8156
  316MOL0     H42634   8.482  10.234   5.013  0.4051  0.7960 -1.4934
  316MOL0     H42635   8.481  10.360   5.138  2.9335  4.1239 -0.0876
  316MOL0     H42636   8.634  10.395   4.870  2.0490 -0.6583  0.4939
  316MOL0     H42637   8.614  10.514   4.992 -0.1358  1.1888 -1.7198
  316MOL0     H42638   8.738  10.242   5.031  3.0022 -0.3373 -2.8014
  316MOL0     H42639   8.751  10.364   5.151 -1.8126  1.6828 -1.1432
  316MOL0     H42640   8.850  10.442   4.871 -0.1168  0.1142  0.0458
  316MOL0     H42641   8.948  10.337   4.979 -1.7988 -1.7818 -1.0747
  316MOL0     H42642   7.733  10.333   5.102  1.3431  0.6823 -2.2500
  316MOL0     H42643   7.575  10.146   5.150  1.3862  2.1130 -0.0742
  316MOL0     H42644   7.348   9.844   5.092 -0.3919 -0.0497 -0.6812
  316MOL0     H42645   7.152   9.685   5.123  1.1215 -0.3222  1.0566
  316MOL0     H42646   6.065   8.109   4.941  1.1883  0.4819  0.6578
  316MOL0     H42647   6.001   7.949   4.764 -2.6816 -1.2159 -2.6075
  316MOL0     H42648   5.672   8.048   4.204  1.9033 -0.8695 -2.5944
  316MOL0     H42649   5.516   7.879   4.108  0.0223 -1.4384 -1.2521
  316MOL0     H42650   5.328   7.707   4.179  2.0215  0.4805  0.0044
  316MOL0     H42651   5.420   7.698   4.024  1.9266 -3.8308 -2.1368
  316MOL0     H42652   5.359   7.438   4.161  0.1745 -1.5131 -2.3138
  316MOL0     H42653   5.382   7.486   3.997 -0.3616  1.4786 -0.8109
  316MOL0     H42654   5.166   7.618   4.010 -0.4541 -0.0165  0.6089
  316MOL0     H42655   5.144   7.549   4.169  0.9919  0.8985  0.8722
  316MOL0     H42656   5.117   7.418   3.899  2.5704 -0.6382  0.1778
  316MOL0     H42657   4.999   7.431   4.025  0.1845  0.0727  1.1903
  316MOL0     H42658   5.222   7.081   4.120  1.4752  0.1358 -0.1175
  316MOL0     H42659   5.705   7.585   4.367  2.5738  0.5757 -1.3581
  316MOL0     H42660   5.842   7.763   4.468  0.1468 -0.5550 -0.1064
  317MOL0     O42661   7.032   9.625   8.294 -0.0591 -0.2840 -0.2316
  317MOL0     C42662   7.108   9.652   8.383  0.1320  0.7892 -0.1844
  317MOL0     O42663   7.089   9.742   8.481 -0.3281  0.2040 -0.1104
  317MOL0     C42664   7.003   9.839   8.444 -0.3168 -0.6492 -0.1224
  317MOL0     C42665   6.880   9.849   8.501  0.2032 -0.0712  0.6052
  317MOL0     C42666   6.777   9.932   8.451  0.5676 -0.7958  0.5670
  317MOL0     C42667   6.802  10.012   8.337  0.1436 -0.3536 -0.1952
  317MOL0     O42668   6.713  10.105   8.286 -0.3943 -0.0820 -0.5066
  317MOL0     C42669   6.588  10.119   8.348  0.2875  0.4325 -0.0105
  317MOL0     C42670   6.493  10.213   8.271  0.4630  1.1175  0.7752
  317MOL0     C42671   6.340  10.188   8.288 -0.9844 -0.0265  0.8509
  317MOL0     C42672   6.255  10.245   8.179 -0.2132 -0.4271 -0.6142
  317MOL0     C42673   6.108  10.229   8.208  0.4192 -1.4087 -0.6157
  317MOL0     C42674   6.011  10.254   8.093  0.0597  0.2737  0.2579
  317MOL0     C42675   6.040  10.389   8.029 -0.2090 -0.5822  0.3338
  317MOL0     C42676   5.946  10.407   7.907  0.6677 -0.7708  0.1846
  317MOL0     N42677   5.959  10.545   7.850 -0.2488  0.2801 -0.3860
  317MOL0     C42678   6.059  10.606   7.777  0.5079 -0.3517  0.0386
  317MOL0     C42679   6.018  10.734   7.771 -0.4020  0.3361  0.7665
  317MOL0     C42680   6.093  10.856   7.724  0.8511 -0.4933  0.1516
  317MOL0     C42681   6.207  10.907   7.814 -0.4153  0.3021 -0.6031
  317MOL0     C42682   6.161  10.954   7.950 -0.4495 -0.4286 -0.7682
  317MOL0     C42683   6.257  11.057   8.012 -0.0494  0.3104  0.0422
  317MOL0     O42684   6.202  11.103   8.143 -0.3846 -0.3747 -0.3855
  317MOL0     C42685   6.278  11.170   8.231 -0.1475 -0.3784  0.3260
  317MOL0     C42686   6.215  11.207   8.352 -0.5082  0.0456  1.0205
  317MOL0     C42687   6.287  11.275   8.450 -0.6048 -0.4121  0.3678
  317MOL0     C42688   6.227  11.291   8.585  0.5338 -0.2691  0.0449
  317MOL0     C42689   6.421  11.323   8.435 -0.6099 -1.0277 -0.2591
  317MOL0     C42690   6.500  11.396   8.548  0.2705 -0.0631  0.6689
  317MOL0     O42691   6.634  11.372   8.558 -0.1879  0.2777  0.1825
  317MOL0     C42692   6.693  11.412   8.674 -0.3892  0.4526 -0.2078
  317MOL0     C42693   6.742  11.313   8.760 -0.8658 -0.2814  0.4580
  317MOL0     C42694   6.803  11.345   8.884 -0.7608  0.4249 -0.5283
  317MOL0     C42695   6.840  11.475   8.922 -0.9574 -0.2668 -0.1353
  317MOL0     O42696   6.929  11.510   9.023  0.3885  0.4110 -0.2608
  317MOL0     C42697   6.970  11.409   9.121 -0.7271 -0.3220  0.1433
  317MOL0     C42698   6.855  11.380   9.217  0.2164 -0.4157 -0.2573
  317MOL0     C42699   6.890  11.269   9.321  0.3575 -0.2253  0.2118
  317MOL0     C42700   6.971  11.331   9.437 -0.1082  0.0987 -0.1554
  317MOL0     C42701   7.069  11.239   9.506 -0.5991 -0.1406  0.2002
  317MOL0     C42702   7.011  11.100   9.538  0.0360  0.2468 -0.0284
  317MOL0     C42703   6.921  11.098   9.659  0.5868 -0.4192 -0.8784
  317MOL0     C42704   6.866  10.963   9.711 -0.4417 -0.0877 -0.0200
  317MOL0    Cl42705   6.765  10.892   9.580  0.3145  0.1411  0.6068
  317MOL0     C42706   6.795  11.575   8.829  0.4217  0.5987 -0.9794
  317MOL0     C42707   6.722  11.542   8.716  0.4781 -0.7984  0.5309
  317MOL0     O42708   6.441  11.487   8.613  0.3311  0.8691 -0.0333
  317MOL0     C42709   6.489  11.283   8.315 -0.0122 -0.3539 -1.2856
  317MOL0     C42710   6.411  11.211   8.219  0.1282 -0.3228 -0.4917
  317MOL0     N42711   5.902  10.748   7.830 -0.6367 -0.1741  0.5315
  317MOL0     N42712   5.856  10.640   7.869 -0.1300 -0.0226 -0.4984
  317MOL0     C42713   6.933  10.009   8.282  0.2629  0.6500 -0.2271
  317MOL0     C42714   7.030   9.924   8.337 -0.2637 -0.1555 -0.2107
  317MOL0     C42715   7.225   9.564   8.404  0.9274  0.1493  0.0544
  317MOL0     C42716   7.275   9.544   8.528 -0.0038 -0.0678 -1.1497
  317MOL0     C42717   7.385   9.462   8.562 -0.1259  0.2460  0.6453
  317MOL0     C42718   7.439   9.380   8.461  0.0509 -1.1928  0.4470
  317MOL0     O42719   7.554   9.318   8.491  0.7193  0.9460  0.4929
  317MOL0     C42720   7.603   9.217   8.403  0.1929  0.2875  0.9830
  317MOL0     C42721   7.740   9.257   8.351 -0.5365 -0.5993 -0.9719
  317MOL0     C42722   7.723   9.385   8.260 -0.4626  0.2474 -0.0734
  317MOL0     C42723   7.854   9.453   8.240  0.0326 -0.1219 -0.2946
  317MOL0     C42724   7.842   9.555   8.136 -1.2392 -1.0566  0.2008
  317MOL0     C42725   7.840   9.646   8.060 -0.6327 -0.9308 -0.5015
  317MOL0     C42726   7.382   9.402   8.332 -0.2790  0.3285 -1.3238
  317MOL0     C42727   7.281   9.488   8.300  0.7639  0.3724  0.8232
  317MOL0     H42728   6.879   9.779   8.584  1.8628  0.9567  1.5545
  317MOL0     H42729   6.682   9.929   8.503  0.1288  2.3151  0.1495
  317MOL0     H42730   6.541  10.021   8.354 -1.4896  1.1508 -1.2271
  317MOL0     H42731   6.614  10.161   8.446  0.8691  2.7127 -1.0494
  317MOL0     H42732   6.509  10.317   8.301  1.2206  0.8102  1.4986
  317MOL0     H42733   6.521  10.203   8.166  2.6814  1.7919  1.2537
  317MOL0     H42734   6.326  10.081   8.275 -0.6391  0.2302 -2.6912
  317MOL0     H42735   6.318  10.217   8.391  1.0113  0.2797  1.2326
  317MOL0     H42736   6.276  10.351   8.164 -1.5968  0.4642  2.7866
  317MOL0     H42737   6.281  10.188   8.089 -1.1634 -2.3456  0.2663
  317MOL0     H42738   6.090  10.126   8.240  1.0990 -0.9442  1.4018
  317MOL0     H42739   6.087  10.298   8.290 -0.5579 -2.8603  0.4001
  317MOL0     H42740   6.030  10.181   8.014 -0.5884  1.1814 -0.7595
  317MOL0     H42741   5.909  10.241   8.129  0.7469 -0.2122  2.1817
  317MOL0     H42742   6.012  10.476   8.089  0.3175  1.4507 -2.1841
  317MOL0     H42743   6.143  10.400   7.993 -0.6629 -1.0420 -1.1522
  317MOL0     H42744   5.843  10.400   7.943  0.3640  0.7841 -0.2832
  317MOL0     H42745   5.972  10.327   7.838  1.2996 -0.4467  0.0387
  317MOL0     H42746   6.156  10.564   7.752  1.2194  1.9846 -1.4183
  317MOL0     H42747   6.145  10.832   7.630  0.4400 -2.4255  0.3721
  317MOL0     H42748   6.021  10.935   7.704  0.3218 -0.1965  2.8261
  317MOL0     H42749   6.242  10.996   7.761 -1.5284  0.5156 -0.9992
  317MOL0     H42750   6.290  10.837   7.825 -0.4396  0.2040 -1.0125
  317MOL0     H42751   6.137  10.869   8.014 -1.7290  0.3207 -0.2148
  317MOL0     H42752   6.061  10.999   7.941 -1.6217 -2.6135  0.5133
  317MOL0     H42753   6.281  11.146   7.953 -1.0282  2.4225  2.6451
  317MOL0     H42754   6.351  11.002   8.026 -0.6479 -0.8995 -0.5411
  317MOL0     H42755   6.110  11.183   8.365 -0.6326 -0.2299 -0.3238
  317MOL0     H42756   6.150  11.214   8.601 -2.7582  2.8584  0.4966
  317MOL0     H42757   6.306  11.280   8.659 -0.1923  2.1859  1.2785
  317MOL0     H42758   6.186  11.392   8.591  1.2665  0.3311 -3.0836
  317MOL0     H42759   6.732  11.208   8.734  0.3602 -0.0324 -1.1348
  317MOL0     H42760   6.840  11.264   8.946  0.7487  1.5415  0.0769
  317MOL0     H42761   6.992  11.319   9.064 -0.7739  0.3634 -0.9769
  317MOL0     H42762   7.063  11.441   9.170 -0.4115  0.4581 -0.9280
  317MOL0     H42763   6.817  11.470   9.265 -1.3565 -1.9896  1.5748
  317MOL0     H42764   6.769  11.354   9.155 -0.8255  2.3318 -0.0578
  317MOL0     H42765   6.957  11.191   9.284 -0.6510 -2.0092  1.9677
  317MOL0     H42766   6.795  11.228   9.356  0.5739 -3.0443 -2.1107
  317MOL0     H42767   7.023  11.415   9.388  3.2638 -2.8350 -2.1487
  317MOL0     H42768   6.900  11.359   9.515  0.8374  0.5385  0.5773
  317MOL0     H42769   7.107  11.289   9.595 -0.8389  1.7974 -0.7268
  317MOL0     H42770   7.162  11.226   9.450  0.2870 -0.2160  1.6573
  317MOL0     H42771   6.953  11.050   9.461 -3.3621  2.1542  1.0671
  317MOL0     H42772   7.093  11.030   9.558 -1.0552 -1.0903 -0.1275
  317MOL0     H42773   6.834  11.159   9.632  0.8441  0.8274  0.9276
  317MOL0     H42774   6.988  11.137   9.736  0.3088 -0.8464 -0.4090
  317MOL0     H42775   6.796  10.985   9.792  1.4008  1.1886  1.3080
  317MOL0     H42776   6.941  10.890   9.743 -1.0864 -2.3000 -3.0675
  317MOL0     H42777   6.827  11.677   8.847  2.6228 -0.3996  1.4544
  317MOL0     H42778   6.683  11.621   8.653  1.6090 -0.4336  0.2629
  317MOL0     H42779   6.584  11.327   8.283 -1.9942  4.0089 -1.8590
  317MOL0     H42780   6.474  11.192   8.133  1.8454 -1.1761  0.8945
  317MOL0     H42781   6.952  10.061   8.189 -0.3279  0.0766 -0.6826
  317MOL0     H42782   7.121   9.908   8.280  0.0655  0.5411  0.1028
  317MOL0     H42783   7.230   9.608   8.603 -0.8630  1.2496 -2.7251
  317MOL0     H42784   7.424   9.436   8.659  1.1011 -3.2156 -0.5976
  317MOL0     H42785   7.619   9.126   8.462 -1.3518  0.3982  1.6270
  317MOL0     H42786   7.534   9.193   8.322  0.9618  2.6315 -0.4518
  317MOL0     H42787   7.783   9.170   8.299 -2.3770 -3.1167  1.3766
  317MOL0     H42788   7.810   9.274   8.433 -0.5983 -1.5260 -0.7111
  317MOL0     H42789   7.652   9.458   8.301  0.1897  1.7149 -1.4069
  317MOL0     H42790   7.679   9.352   8.165 -2.1408 -0.5639  0.9581
  317MOL0     H42791   7.930   9.383   8.205  2.3928  1.5706  1.1034
  317MOL0     H42792   7.884   9.497   8.336  1.3571  2.6237 -1.8462
  317MOL0     H42793   7.854   9.723   7.986 -0.1640  2.1111  2.5037
  317MOL0     H42794   7.436   9.347   8.255  0.1141  0.3075 -1.0336
  317MOL0     H42795   7.246   9.504   8.198 -0.7730 -4.1565  0.4272
  318MOL0     O42796   0.740   6.779   7.043 -0.4998  0.4088  0.1060
  318MOL0     C42797   0.823   6.834   6.979 -0.6209  0.2442  0.8471
  318MOL0     O42798   0.797   6.907   6.862 -0.5867 -0.6046 -0.1248
  318MOL0     C42799   0.677   6.897   6.805 -0.3601 -1.6254 -0.4488
  318MOL0     C42800   0.626   6.771   6.778  0.5589 -0.6824 -0.0501
  318MOL0     C42801   0.506   6.757   6.697  0.1032  0.4211 -0.4531
  318MOL0     C42802   0.433   6.871   6.654 -0.8477  0.1659 -0.1204
  318MOL0     O42803   0.330   6.867   6.565 -0.5084  0.3681 -0.0729
  318MOL0     C42804   0.317   6.756   6.471 -0.4001  0.2338 -0.8665
  318MOL0     C42805   0.225   6.632   6.494 -0.5666 -0.1936  0.5116
  318MOL0     C42806   0.095   6.672   6.569 -0.0950 -0.0829 -0.1907
  318MOL0     C42807  -0.030   6.592   6.528 -0.4873 -0.3630  0.1002
  318MOL0     C42808  -0.153   6.613   6.625  0.0012  0.0699  0.4824
  318MOL0     C42809  -0.140   6.507   6.735  0.7521 -0.5537  0.0992
  318MOL0     C42810  -0.233   6.532   6.861 -0.1092  0.7585 -0.0045
  318MOL0     C42811  -0.376   6.546   6.818 -0.4898 -0.0523 -0.0023
  318MOL0     N42812  -0.436   6.419   6.760  0.4693 -0.1879  0.5173
  318MOL0     C42813  -0.463   6.397   6.625 -0.0795  1.0771  0.5354
  318MOL0     C42814  -0.519   6.269   6.623  0.0089  0.2674  0.1430
  318MOL0     C42815  -0.576   6.200   6.498 -0.2528  0.6972 -1.0598
  318MOL0     C42816  -0.599   6.289   6.372  0.5318 -0.3934 -0.8126
  318MOL0     C42817  -0.638   6.205   6.253 -0.0267 -1.0212  0.0159
  318MOL0     C42818  -0.784   6.206   6.236 -0.3913  0.4634 -0.1290
  318MOL0     O42819  -0.835   6.328   6.185  1.0158 -0.2290 -0.1821
  318MOL0     C42820  -0.975   6.351   6.183 -0.5864 -0.3063 -0.1604
  318MOL0     C42821  -1.074   6.250   6.167  0.5747 -0.0746  0.8567
  318MOL0     C42822  -1.205   6.296   6.148  0.0950  0.4118 -0.4238
  318MOL0     C42823  -1.298   6.193   6.094  0.2003 -0.2732 -0.4100
  318MOL0     C42824  -1.249   6.427   6.166  0.3715 -0.2174  1.2072
  318MOL0     C42825  -1.387   6.479   6.154  0.0700 -0.6201  0.4296
  318MOL0     O42826  -1.485   6.391   6.146  0.3677  0.4126 -0.0156
  318MOL0     C42827  -1.621   6.429   6.156 -0.7558 -0.4365  0.0693
  318MOL0     C42828  -1.683   6.531   6.086 -0.1982 -0.1573  0.0909
  318MOL0     C42829  -1.820   6.549   6.093  0.2741 -0.3406 -0.6912
  318MOL0     C42830  -1.896   6.479   6.180  0.5750  1.1223 -0.0412
  318MOL0     O42831  -2.025   6.512   6.190  0.2164 -0.0357  0.5763
  318MOL0     C42832  -2.094   6.478   6.305  0.2230 -0.1229 -0.8180
  318MOL0     C42833  -2.168   6.599   6.360 -0.3516 -0.1882 -0.1717
  318MOL0     C42834  -2.238   6.694   6.255  0.0055  0.5164  0.0332
  318MOL0     C42835  -2.289   6.816   6.324 -0.4957 -0.1240 -0.3423
  318MOL0     C42836  -2.351   6.923   6.240  0.1559 -0.3423 -0.4601
  318MOL0     C42837  -2.478   6.887   6.160 -0.6748  0.0211  0.5488
  318MOL0     C42838  -2.525   7.004   6.081 -0.0967 -0.5119  0.8691
  318MOL0     C42839  -2.665   6.986   6.016 -0.1699 -0.9374 -0.2792
  318MOL0    Cl42840  -2.671   7.107   5.892  0.3325  0.0082  0.2208
  318MOL0     C42841  -1.835   6.372   6.242 -0.6989  0.9354  0.1148
  318MOL0     C42842  -1.700   6.341   6.220 -0.0754  0.5454 -0.9824
  318MOL0     O42843  -1.401   6.598   6.129  0.3870  0.4734 -0.9926
  318MOL0     C42844  -1.151   6.522   6.201 -0.9137  0.0637 -0.1778
  318MOL0     C42845  -1.015   6.486   6.209  0.0656  0.6444  0.1060
  318MOL0     N42846  -0.525   6.225   6.752 -0.2408 -0.2186 -0.3458
  318MOL0     N42847  -0.479   6.308   6.837 -0.7703 -0.0070 -0.1515
  318MOL0     C42848   0.483   6.994   6.700 -0.2943 -0.6914 -0.0068
  318MOL0     C42849   0.603   7.005   6.766  0.2304 -0.2486 -0.3874
  318MOL0     C42850   0.964   6.820   7.025 -0.4463 -0.5208 -0.1315
  318MOL0     C42851   1.065   6.906   6.980 -0.1207 -0.6417  0.6725
  318MOL0     C42852   1.197   6.905   7.024 -0.0289  1.0825  0.0980
  318MOL0     C42853   1.229   6.805   7.123 -0.4221  0.0830 -0.2369
  318MOL0     O42854   1.352   6.788   7.177 -0.1015  0.6424  1.0116
  318MOL0     C42855   1.443   6.865   7.119 -0.8502  0.5246  0.1180
  318MOL0     C42856   1.586   6.808   7.169  0.0302 -0.1162 -0.8434
  318MOL0     C42857   1.694   6.918   7.146  0.5047 -0.4860 -0.3787
  318MOL0     C42858   1.835   6.852   7.156  0.1446 -1.0446 -0.1172
  318MOL0     C42859   1.937   6.944   7.099 -1.1473 -0.1182 -0.8558
  318MOL0     C42860   2.039   7.017   7.078 -0.1409  0.5891 -0.3517
  318MOL0     C42861   1.130   6.716   7.168 -1.3453  0.5407  0.4096
  318MOL0     C42862   1.002   6.722   7.120 -0.4846 -0.0384  0.0731
  318MOL0     H42863   0.682   6.681   6.803  2.8863  0.1992 -1.8179
  318MOL0     H42864   0.470   6.659   6.669 -2.1190  1.6019 -1.9726
  318MOL0     H42865   0.268   6.805   6.386 -0.3646 -0.4568 -1.2864
  318MOL0     H42866   0.413   6.720   6.434 -0.2360  0.5381 -0.7431
  318MOL0     H42867   0.208   6.580   6.399 -1.9195  2.2438 -0.6828
  318MOL0     H42868   0.277   6.564   6.561 -0.3918 -0.0437  0.5309
  318MOL0     H42869   0.102   6.661   6.677  0.8952  1.8544  0.0022
  318MOL0     H42870   0.078   6.780   6.573 -1.0572 -0.2045 -0.6099
  318MOL0     H42871  -0.071   6.616   6.430 -1.0481 -3.2686 -0.4838
  318MOL0     H42872   0.001   6.487   6.528  1.8334  0.1769 -3.6629
  318MOL0     H42873  -0.139   6.708   6.677 -1.1196 -0.4934  1.8669
  318MOL0     H42874  -0.240   6.599   6.561  0.8561 -0.7062 -0.5563
  318MOL0     H42875  -0.171   6.416   6.682 -0.0938 -0.1541 -0.1167
  318MOL0     H42876  -0.032   6.508   6.753  1.3004 -1.7570 -2.6369
  318MOL0     H42877  -0.228   6.453   6.937 -1.8393  1.2236  0.6393
  318MOL0     H42878  -0.197   6.624   6.909 -0.6823  0.7360  0.4820
  318MOL0     H42879  -0.367   6.626   6.744  3.2051 -0.3592 -0.1028
  318MOL0     H42880  -0.439   6.580   6.900 -1.7906 -2.4316  0.0606
  318MOL0     H42881  -0.458   6.464   6.540 -0.6423 -0.1345 -0.4946
  318MOL0     H42882  -0.508   6.117   6.477 -0.8563  0.2861 -1.4510
  318MOL0     H42883  -0.673   6.157   6.525  0.6579  0.5938  2.6687
  318MOL0     H42884  -0.498   6.328   6.360 -0.2642  3.5125  2.7665
  318MOL0     H42885  -0.656   6.379   6.395  0.3491 -0.7206  0.0906
  318MOL0     H42886  -0.620   6.097   6.261  0.9655 -0.9816 -1.3043
  318MOL0     H42887  -0.587   6.233   6.160 -0.3784  1.9277  0.6200
  318MOL0     H42888  -0.827   6.175   6.332 -0.2196 -2.1140 -0.8071
  318MOL0     H42889  -0.813   6.121   6.173 -2.0375 -1.1816  2.6547
  318MOL0     H42890  -1.045   6.145   6.160 -1.9720 -1.1865  4.2243
  318MOL0     H42891  -1.356   6.236   6.012 -2.0345  0.6777  1.5392
  318MOL0     H42892  -1.257   6.099   6.056  1.9661 -0.7293  2.3328
  318MOL0     H42893  -1.368   6.154   6.168  0.9939 -2.0483 -0.5420
  318MOL0     H42894  -1.616   6.584   6.019  1.9479 -2.1737  0.5386
  318MOL0     H42895  -1.869   6.625   6.033  1.1339  0.3223 -0.5788
  318MOL0     H42896  -2.170   6.407   6.273  0.8404 -0.4147 -1.6448
  318MOL0     H42897  -2.034   6.435   6.386  1.8067  1.1667 -1.2415
  318MOL0     H42898  -2.253   6.553   6.412 -0.2562  1.1572  1.2344
  318MOL0     H42899  -2.105   6.651   6.433 -1.0404  0.7693 -0.2328
  318MOL0     H42900  -2.318   6.638   6.203 -1.3415  1.0507  1.4602
  318MOL0     H42901  -2.158   6.716   6.184  0.7024  0.2260  0.7249
  318MOL0     H42902  -2.353   6.783   6.406 -0.1275  0.4975  0.2047
  318MOL0     H42903  -2.205   6.863   6.377 -0.8181 -0.6168  0.6366
  318MOL0     H42904  -2.277   6.960   6.168  1.2068 -1.1471  0.1664
  318MOL0     H42905  -2.370   7.015   6.295 -1.7096 -0.5811 -0.6569
  318MOL0     H42906  -2.447   6.808   6.090 -1.1807 -0.6131  1.0213
  318MOL0     H42907  -2.554   6.836   6.221 -1.5160 -0.1351 -0.5755
  318MOL0     H42908  -2.450   7.019   6.003 -1.7192 -0.3554 -0.7403
  318MOL0     H42909  -2.524   7.091   6.148  0.4427 -0.6362  1.0256
  318MOL0     H42910  -2.746   6.991   6.089  1.7336  0.1146  1.8704
  318MOL0     H42911  -2.669   6.891   5.962  0.9604 -2.5598  2.3277
  318MOL0     H42912  -1.885   6.300   6.306  1.1724 -1.3814 -0.8563
  318MOL0     H42913  -1.656   6.256   6.270 -0.9347  1.7126  1.9857
  318MOL0     H42914  -1.166   6.627   6.224  0.4933  0.2490  0.0043
  318MOL0     H42915  -0.936   6.555   6.237  1.3546 -1.7626  2.9989
  318MOL0     H42916   0.427   7.085   6.679  1.4324  0.4340  0.0646
  318MOL0     H42917   0.632   7.109   6.782  1.8425 -0.5964 -0.9823
  318MOL0     H42918   1.033   6.976   6.904  0.1300 -0.8886  0.3328
  318MOL0     H42919   1.254   6.978   6.968  1.6136  0.0490  0.3561
  318MOL0     H42920   1.443   6.859   7.009  0.0609  2.1875 -0.0056
  318MOL0     H42921   1.440   6.966   7.160  1.7350  0.9270 -0.4961
  318MOL0     H42922   1.602   6.709   7.124 -0.3624  0.2698 -1.8769
  318MOL0     H42923   1.581   6.788   7.276 -0.5824  3.5146 -0.0813
  318MOL0     H42924   1.684   6.998   7.220 -1.3032 -0.2579 -0.8303
  318MOL0     H42925   1.680   6.960   7.046 -1.7577 -0.0532  0.0689
  318MOL0     H42926   1.835   6.762   7.093  2.8030 -0.8202 -0.5564
  318MOL0     H42927   1.863   6.826   7.259 -0.8684 -0.4669  0.3184
  318MOL0     H42928   2.122   7.083   7.067  0.5533 -0.5652 -2.7890
  318MOL0     H42929   1.166   6.629   7.222  1.2014  1.6511  0.6561
  318MOL0     H42930   0.928   6.646   7.143  2.0809 -2.6556  0.3338
  319MOL0     O42931   8.035   7.657   2.113 -0.2259 -0.5040  0.3059
  319MOL0     C42932   7.980   7.762   2.123 -0.0465 -0.1382  0.2720
  319MOL0     O42933   8.042   7.881   2.122  0.7409  0.7221 -0.0512
  319MOL0     C42934   8.181   7.894   2.099  0.0028 -0.3379  0.4517
  319MOL0     C42935   8.234   8.024   2.103  0.3053  0.0485 -0.5651
  319MOL0     C42936   8.363   8.043   2.064 -0.4819  0.5569 -1.1548
  319MOL0     C42937   8.454   7.946   2.028  0.0691  0.3721  0.1085
  319MOL0     O42938   8.588   7.963   1.994 -0.3588 -0.4900  0.1088
  319MOL0     C42939   8.620   8.074   1.911  0.4742 -0.9376  0.0154
  319MOL0     C42940   8.761   8.044   1.869 -0.8933  0.6535  1.2627
  319MOL0     C42941   8.806   8.133   1.754 -0.1715  0.3867 -0.3369
  319MOL0     C42942   8.949   8.093   1.722  0.9184 -0.0603  0.2496
  319MOL0     C42943   9.007   8.185   1.615  0.1842  0.3403  0.3872
  319MOL0     C42944   9.069   8.306   1.682 -0.0221 -0.1635  0.3558
  319MOL0     C42945   9.118   8.398   1.576 -0.2753 -0.4239  0.1398
  319MOL0     C42946   9.162   8.541   1.622  0.3307 -0.8790  0.3366
  319MOL0     N42947   9.043   8.616   1.674  0.0225  0.5860  0.5167
  319MOL0     C42948   9.045   8.688   1.784  0.7260 -0.8347 -0.5888
  319MOL0     C42949   8.916   8.724   1.795  0.9363  0.1902 -0.7444
  319MOL0     C42950   8.870   8.817   1.899  0.9197 -0.3456 -1.1578
  319MOL0     C42951   8.722   8.795   1.944  0.1003 -0.5747  0.1384
  319MOL0     C42952   8.713   8.832   2.089 -0.1993 -0.4469  0.7663
  319MOL0     C42953   8.578   8.847   2.157  0.2440 -1.0504 -0.0883
  319MOL0     O42954   8.490   8.940   2.086  0.3088 -0.3338  0.2540
  319MOL0     C42955   8.371   8.896   2.053 -0.4122  0.1275 -0.6221
  319MOL0     C42956   8.260   8.979   2.087 -0.3408  0.8647  0.0995
  319MOL0     C42957   8.127   8.940   2.043 -0.7514 -0.3003  0.6777
  319MOL0     C42958   8.006   9.023   2.068  0.1867  0.4648  0.4881
  319MOL0     C42959   8.112   8.816   1.972 -0.1717  0.1926 -0.4762
  319MOL0     C42960   7.983   8.760   1.949  0.5721 -0.0411  1.1430
  319MOL0     O42961   7.901   8.741   2.059  0.3685 -0.2446  0.8105
  319MOL0     C42962   7.778   8.680   2.051 -0.5582 -1.3275  0.6952
  319MOL0     C42963   7.764   8.563   1.980  0.0841  0.6969  0.3081
  319MOL0     C42964   7.650   8.490   1.980  0.5050 -0.3269 -0.0874
  319MOL0     C42965   7.541   8.544   2.056  0.1309 -0.1816 -0.0352
  319MOL0     O42966   7.424   8.479   2.070  0.6813  0.3956  1.1149
  319MOL0     C42967   7.408   8.357   2.005 -0.1340 -0.2842  0.3677
  319MOL0     C42968   7.268   8.303   2.030  0.7531 -0.5697 -0.3283
  319MOL0     C42969   7.256   8.173   1.937  0.3076  0.3490  0.4161
  319MOL0     C42970   7.104   8.118   1.928 -0.0910  0.1752 -0.1539
  319MOL0     C42971   7.093   8.044   1.790 -0.4148 -0.2598 -0.3052
  319MOL0     C42972   6.960   7.967   1.771 -0.0274  0.2637  0.7592
  319MOL0     C42973   6.842   8.053   1.803  0.1564  0.5717 -0.1221
  319MOL0     C42974   6.817   8.179   1.707  0.7665 -0.5251  0.1463
  319MOL0    Cl42975   6.785   8.098   1.539  0.5193 -0.4092  0.1181
  319MOL0     C42976   7.550   8.665   2.121 -1.0881 -0.4017  0.6281
  319MOL0     C42977   7.675   8.737   2.121 -0.9328 -0.3922  0.2315
  319MOL0     O42978   7.961   8.720   1.834 -0.1955  0.1242  0.3472
  319MOL0     C42979   8.225   8.731   1.949  0.0814 -0.1900  0.1320
  319MOL0     C42980   8.358   8.777   1.977  0.7417  0.2304 -0.7079
  319MOL0     N42981   8.842   8.672   1.694  0.7695 -0.5023 -0.0922
  319MOL0     N42982   8.917   8.603   1.624 -0.2515  0.5580 -0.1325
  319MOL0     C42983   8.405   7.818   2.026  0.2559 -0.1580  0.4630
  319MOL0     C42984   8.276   7.791   2.068 -0.3592  0.5609  0.1971
  319MOL0     C42985   7.833   7.764   2.128 -0.0948  1.6067 -0.6801
  319MOL0     C42986   7.757   7.881   2.142  0.0522  0.6743 -0.0875
  319MOL0     C42987   7.618   7.875   2.139  0.5153 -0.4453 -0.3050
  319MOL0     C42988   7.556   7.746   2.140 -0.8345  0.2862  0.1583
  319MOL0     O42989   7.422   7.743   2.164  0.4295  0.5103  0.4097
  319MOL0     C42990   7.342   7.661   2.079 -0.0134 -0.1869 -0.2342
  319MOL0     C42991   7.196   7.685   2.112 -0.0706 -0.0965 -0.1113
  319MOL0     C42992   7.103   7.607   2.017 -0.3443  0.7373  0.4735
  319MOL0     C42993   7.155   7.465   1.980 -0.0402 -0.2310 -0.2911
  319MOL0     C42994   7.040   7.382   1.961  0.5664  0.1861 -0.4208
  319MOL0     C42995   6.949   7.310   1.945  0.6966 -0.1977  0.7143
  319MOL0     C42996   7.627   7.629   2.121 -0.5411  0.4534 -0.7466
  319MOL0     C42997   7.766   7.635   2.113 -0.4270  0.4552  0.7511
  319MOL0     H42998   8.168   8.109   2.121  2.1626  1.3676  0.4028
  319MOL0     H42999   8.388   8.148   2.073  0.2901  0.2335  1.0674
  319MOL0     H43000   8.549   8.080   1.828  0.6387  0.0373 -0.0652
  319MOL0     H43001   8.626   8.173   1.957  2.0611 -1.2171  0.4685
  319MOL0     H43002   8.824   8.046   1.959 -2.0275  1.2429  2.0800
  319MOL0     H43003   8.764   7.940   1.836 -0.0855 -0.1704  3.6966
  319MOL0     H43004   8.737   8.115   1.671 -1.9013  3.3575  0.2939
  319MOL0     H43005   8.800   8.233   1.798 -1.5910  0.2739 -0.2186
  319MOL0     H43006   9.015   8.095   1.810 -0.9047  2.3196  1.6923
  319MOL0     H43007   8.946   7.991   1.683  1.6835 -0.6123  1.5653
  319MOL0     H43008   9.090   8.144   1.557 -2.0289  0.0901 -2.8486
  319MOL0     H43009   8.936   8.215   1.538  0.0789  0.9732  0.7240
  319MOL0     H43010   9.004   8.366   1.746 -0.5321 -0.0302 -0.2695
  319MOL0     H43011   9.154   8.266   1.738 -0.2425 -1.0662  0.0593
  319MOL0     H43012   9.202   8.351   1.525  0.3926 -0.3662  1.1520
  319MOL0     H43013   9.028   8.412   1.516 -2.7765 -1.2651  3.4020
  319MOL0     H43014   9.191   8.599   1.533 -1.3788 -2.4585 -1.3558
  319MOL0     H43015   9.245   8.552   1.692  1.0865  1.5485 -0.8348
  319MOL0     H43016   9.123   8.710   1.855  1.3219  1.4173 -1.8448
  319MOL0     H43017   8.926   8.817   1.994 -1.1455 -1.3254  0.1308
  319MOL0     H43018   8.887   8.919   1.863 -1.6056  0.1185 -1.1683
  319MOL0     H43019   8.707   8.687   1.933 -2.0050 -0.4997  1.6944
  319MOL0     H43020   8.651   8.841   1.875  2.3169 -1.1371 -2.7391
  319MOL0     H43021   8.768   8.926   2.098  0.8558 -0.8727 -0.8837
  319MOL0     H43022   8.779   8.758   2.135 -0.5125 -1.2866 -0.1026
  319MOL0     H43023   8.597   8.890   2.255 -0.1159  1.6813 -1.1449
  319MOL0     H43024   8.535   8.748   2.177 -0.6949 -0.6708 -0.1667
  319MOL0     H43025   8.274   9.070   2.144 -1.9903 -0.1337  2.2781
  319MOL0     H43026   7.947   9.029   1.977  0.0411 -1.1409  0.4456
  319MOL0     H43027   7.940   8.978   2.143 -1.0131 -2.2801 -2.0366
  319MOL0     H43028   8.034   9.123   2.101 -3.2714  1.8349 -0.3026
  319MOL0     H43029   7.845   8.522   1.920 -0.5885 -3.5982  2.0032
  319MOL0     H43030   7.644   8.392   1.932 -2.5724 -0.6569  0.7252
  319MOL0     H43031   7.422   8.363   1.896 -0.5336 -3.2877  0.0435
  319MOL0     H43032   7.477   8.285   2.049 -0.2953 -0.0849  0.9460
  319MOL0     H43033   7.263   8.279   2.136  0.0627 -0.3610 -0.3091
  319MOL0     H43034   7.198   8.381   1.998  0.9301  0.4203  1.5378
  319MOL0     H43035   7.318   8.092   1.975 -1.9747 -0.7310  2.1202
  319MOL0     H43036   7.298   8.202   1.841  0.5178 -0.1797  0.3458
  319MOL0     H43037   7.086   8.046   2.009 -2.0255 -0.2955 -0.9572
  319MOL0     H43038   7.023   8.190   1.935 -1.4057 -1.0071 -2.2505
  319MOL0     H43039   7.167   7.964   1.787 -1.6160 -1.3727 -3.3038
  319MOL0     H43040   7.121   8.114   1.711  4.6064 -1.2473  0.2318
  319MOL0     H43041   6.943   7.926   1.671  0.5271  0.4255  0.5965
  319MOL0     H43042   6.964   7.879   1.836  0.5466  0.0372  0.4264
  319MOL0     H43043   6.842   8.096   1.903  0.8721  1.5097 -0.5037
  319MOL0     H43044   6.751   7.995   1.819  0.6158 -0.0029  0.4829
  319MOL0     H43045   6.889   8.261   1.709  0.0342  0.1283  0.8045
  319MOL0     H43046   6.724   8.231   1.732 -1.7751 -4.0090 -1.3864
  319MOL0     H43047   7.468   8.693   2.186 -0.1701 -2.7230  2.9891
  319MOL0     H43048   7.703   8.823   2.181  0.7871 -2.9154  3.3810
  319MOL0     H43049   8.211   8.642   1.889 -0.4483 -1.4503  2.0488
  319MOL0     H43050   8.453   8.725   1.965  1.1232  0.3050  1.5491
  319MOL0     H43051   8.470   7.732   2.009  1.1001  0.5484  0.0636
  319MOL0     H43052   8.250   7.685   2.067  0.7551  0.2765 -0.7690
  319MOL0     H43053   7.810   7.975   2.155  0.4837  1.1646 -4.1332
  319MOL0     H43054   7.547   7.957   2.146  0.0414 -0.9382  1.1417
  319MOL0     H43055   7.377   7.681   1.977 -0.1185 -0.0195 -0.2378
  319MOL0     H43056   7.360   7.559   2.113 -0.4786 -0.5182 -0.9708
  319MOL0     H43057   7.165   7.787   2.090  1.6153  0.1340 -1.6292
  319MOL0     H43058   7.173   7.652   2.214 -0.7203  1.0989  0.1456
  319MOL0     H43059   7.092   7.674   1.931 -5.6052  0.7038  0.8191
  319MOL0     H43060   7.006   7.602   2.066  0.3981  1.3512  2.0690
  319MOL0     H43061   7.215   7.423   2.062  2.6316 -0.4740 -2.2224
  319MOL0     H43062   7.220   7.479   1.893  2.6800  3.3074  2.0211
  319MOL0     H43063   6.873   7.237   1.924 -0.2922  1.2425 -0.9006
  319MOL0     H43064   7.566   7.539   2.112 -0.2505 -0.0102  1.3895
  319MOL0     H43065   7.817   7.541   2.091 -1.0558  0.8814 -3.2268
  320MOL0     O43066   9.591   9.153   6.386 -0.5222 -0.4534 -0.1005
  320MOL0     C43067   9.694   9.128   6.449  0.9846 -0.4601  0.0739
  320MOL0     O43068   9.700   9.088   6.582 -0.4302 -0.2018  0.2749
  320MOL0     C43069   9.593   9.108   6.665  0.0529 -0.6651 -0.0719
  320MOL0     C43070   9.605   9.032   6.780  0.1089 -0.1073 -0.0391
  320MOL0     C43071   9.503   9.045   6.880  0.4767  0.9755  0.4728
  320MOL0     C43072   9.388   9.125   6.858 -0.7246  0.7567  0.6439
  320MOL0     O43073   9.292   9.138   6.955  0.0964  0.3475  0.2548
  320MOL0     C43074   9.236   9.021   7.011  0.4377  0.4832 -0.0919
  320MOL0     C43075   9.143   9.055   7.125  0.1467  0.7678 -0.6252
  320MOL0     C43076   9.120   8.933   7.212 -0.0942 -0.1416  0.3764
  320MOL0     C43077   9.051   8.975   7.341  0.1239  0.6110  0.0993
  320MOL0     C43078   9.020   8.848   7.429 -0.4110 -0.3029  0.5156
  320MOL0     C43079   8.948   8.884   7.562 -0.0597  0.7164  0.4972
  320MOL0     C43080   8.807   8.945   7.552 -0.2254  0.0303  0.9138
  320MOL0     C43081   8.725   8.944   7.675 -0.4197 -0.5714  0.1678
  320MOL0     N43082   8.690   8.808   7.723 -0.0247 -0.4333 -0.0153
  320MOL0     C43083   8.602   8.717   7.676 -0.5317 -0.0024 -0.0020
  320MOL0     C43084   8.591   8.616   7.768  0.7095  0.3471  0.2098
  320MOL0     C43085   8.489   8.502   7.750  0.2636  0.1783 -0.6370
  320MOL0     C43086   8.350   8.543   7.801  0.2426  0.1089 -0.2933
  320MOL0     C43087   8.236   8.442   7.750  0.2978 -1.0434 -0.7302
  320MOL0     C43088   8.092   8.480   7.807 -0.9703 -0.3766 -0.8307
  320MOL0     O43089   7.994   8.390   7.759 -0.9747 -0.4420  0.0375
  320MOL0     C43090   7.865   8.418   7.791 -0.0399  0.6283  0.6090
  320MOL0     C43091   7.782   8.312   7.772 -0.1904 -0.5736  0.4991
  320MOL0     C43092   7.639   8.326   7.794  0.3724  0.1922 -0.3243
  320MOL0     C43093   7.561   8.204   7.769  0.3650 -0.4078  0.5871
  320MOL0     C43094   7.589   8.443   7.856 -0.2054  1.0064  0.6296
  320MOL0     C43095   7.450   8.470   7.910 -1.3309 -0.1134  0.8128
  320MOL0     O43096   7.444   8.577   7.997  0.5394 -0.3016  0.8843
  320MOL0     C43097   7.309   8.590   8.058 -1.1956  1.0355 -0.2736
  320MOL0     C43098   7.267   8.517   8.162 -0.5392 -0.0499  0.4844
  320MOL0     C43099   7.135   8.529   8.202 -0.1719  0.7662 -0.6504
  320MOL0     C43100   7.040   8.621   8.145 -0.3112  0.1688  0.8501
  320MOL0     O43101   6.902   8.650   8.168  0.3603 -0.2211 -0.7070
  320MOL0     C43102   6.836   8.560   8.271  0.2467 -0.3861  1.2256
  320MOL0     C43103   6.802   8.418   8.213  0.2319 -0.1866 -0.8403
  320MOL0     C43104   6.670   8.406   8.130 -0.7065 -0.5408  0.6054
  320MOL0     C43105   6.532   8.462   8.190  0.0526 -0.4292  0.1198
  320MOL0     C43106   6.438   8.451   8.072  0.6118  0.3031 -0.2060
  320MOL0     C43107   6.297   8.491   8.103  0.0201  0.6812 -0.3810
  320MOL0     C43108   6.272   8.638   8.123 -0.7914  0.5315  0.1018
  320MOL0     C43109   6.131   8.667   8.169  0.5935 -0.0619 -0.3891
  320MOL0    Cl43110   6.099   8.836   8.220 -0.0798 -0.0288 -0.0447
  320MOL0     C43111   7.088   8.693   8.033 -0.3417  0.5062  0.4190
  320MOL0     C43112   7.217   8.676   7.987  0.1007 -0.0912  0.1050
  320MOL0     O43113   7.360   8.398   7.872 -0.8315  0.1981 -0.3546
  320MOL0     C43114   7.682   8.541   7.880 -0.4497  1.0034 -0.5853
  320MOL0     C43115   7.811   8.528   7.842  0.7098 -1.0345  0.3451
  320MOL0     N43116   8.659   8.657   7.876  0.2875  0.5127  0.8751
  320MOL0     N43117   8.723   8.761   7.849 -0.6852 -0.4595  1.1125
  320MOL0     C43118   9.379   9.201   6.744 -0.4725 -0.0931  0.3229
  320MOL0     C43119   9.484   9.198   6.654  0.1682  0.2965  0.7467
  320MOL0     C43120   9.819   9.161   6.380  0.2640 -0.7208  0.4498
  320MOL0     C43121   9.939   9.183   6.452 -0.3547 -0.0324 -0.0507
  320MOL0     C43122  10.057   9.213   6.381 -0.1085 -0.8442 -0.0043
  320MOL0     C43123  10.055   9.219   6.247 -0.1362 -0.9495  0.0987
  320MOL0     O43124  10.179   9.238   6.188  0.2327  1.1850 -0.4831
  320MOL0     C43125  10.186   9.270   6.051 -0.7405  0.0270 -0.3477
  320MOL0     C43126  10.331   9.261   5.998 -0.0301 -0.3191  0.6591
  320MOL0     C43127  10.355   9.322   5.857  0.2110 -0.1452 -0.3792
  320MOL0     C43128  10.513   9.301   5.814  0.3884  0.1856 -1.1128
  320MOL0     C43129  10.607   9.408   5.870  0.0373 -0.2825  0.6628
  320MOL0     C43130  10.701   9.474   5.904  0.0979 -0.1367 -0.1155
  320MOL0     C43131   9.936   9.203   6.171 -0.3513 -0.0124  0.3557
  320MOL0     C43132   9.818   9.171   6.236  0.7168  0.3717 -0.8629
  320MOL0     H43133   9.692   8.969   6.796 -1.0488 -1.3796  1.6855
  320MOL0     H43134   9.519   8.997   6.976  2.1144  0.4713 -0.0160
  320MOL0     H43135   9.180   8.966   6.934  1.2616  0.9754 -1.0525
  320MOL0     H43136   9.317   8.952   7.038  0.3509 -0.2899 -1.6662
  320MOL0     H43137   9.196   9.131   7.183  0.4665  0.6928 -0.8110
  320MOL0     H43138   9.056   9.096   7.073 -0.0146  0.1997 -0.8170
  320MOL0     H43139   9.052   8.869   7.154  1.6972  1.1985 -3.6258
  320MOL0     H43140   9.212   8.877   7.227  0.8629  0.3678 -2.7833
  320MOL0     H43141   9.109   9.042   7.405 -0.1959  1.7276 -0.7465
  320MOL0     H43142   8.961   9.033   7.319  1.2104  3.0638  1.6733
  320MOL0     H43143   8.961   8.779   7.368 -1.7978  0.0474  1.4231
  320MOL0     H43144   9.106   8.782   7.446  1.2021  1.4462 -0.3740
  320MOL0     H43145   8.939   8.796   7.626 -1.6515  0.3802 -0.1454
  320MOL0     H43146   9.019   8.952   7.610 -0.7361  1.6095  0.2710
  320MOL0     H43147   8.825   9.042   7.504  2.2190 -2.2360 -3.3868
  320MOL0     H43148   8.752   8.882   7.481 -0.6413 -1.3608  2.4136
  320MOL0     H43149   8.640   9.009   7.651  2.2546  1.6702 -4.6220
  320MOL0     H43150   8.782   9.001   7.750 -0.5954 -1.6858  1.1891
  320MOL0     H43151   8.554   8.733   7.580 -1.3454 -5.6831 -0.9260
  320MOL0     H43152   8.485   8.470   7.646  1.6055 -0.2649 -0.5718
  320MOL0     H43153   8.528   8.424   7.816 -4.2105 -0.8568  1.1319
  320MOL0     H43154   8.330   8.635   7.746  0.3174  0.7578  0.7432
  320MOL0     H43155   8.340   8.569   7.907  1.0548  2.2048 -0.6806
  320MOL0     H43156   8.256   8.339   7.780 -2.4087 -1.3356  0.3405
  320MOL0     H43157   8.225   8.444   7.641 -1.7331  0.3501 -0.5615
  320MOL0     H43158   8.072   8.584   7.781 -2.8599 -0.6692 -0.6374
  320MOL0     H43159   8.104   8.471   7.916 -1.9328 -0.1941 -0.7041
  320MOL0     H43160   7.828   8.228   7.721 -1.1018 -1.5120  1.1514
  320MOL0     H43161   7.511   8.209   7.673  1.7050 -0.8325 -0.1616
  320MOL0     H43162   7.597   8.100   7.771 -0.2010 -0.6209 -0.1011
  320MOL0     H43163   7.476   8.199   7.837  1.3258  1.3607  2.0183
  320MOL0     H43164   7.338   8.456   8.218 -0.8080 -1.6897 -0.8951
  320MOL0     H43165   7.108   8.460   8.282  2.5906 -1.8103 -1.7141
  320MOL0     H43166   6.894   8.547   8.362  0.8706  0.3261  0.9361
  320MOL0     H43167   6.743   8.614   8.292  0.1936  0.9758 -1.8812
  320MOL0     H43168   6.880   8.397   8.140 -0.7196  0.9263 -2.2177
  320MOL0     H43169   6.803   8.338   8.288 -0.0872 -0.1807 -0.8286
  320MOL0     H43170   6.664   8.299   8.109  3.9908 -0.9043  0.0375
  320MOL0     H43171   6.690   8.463   8.038 -0.2319 -0.9097  0.4795
  320MOL0     H43172   6.495   8.388   8.261  0.4625 -0.4518  0.3148
  320MOL0     H43173   6.538   8.564   8.230  1.4829 -0.8582  1.1070
  320MOL0     H43174   6.436   8.345   8.048 -3.6370 -1.0642  4.4229
  320MOL0     H43175   6.459   8.516   7.986  0.1073 -0.9699 -1.3218
  320MOL0     H43176   6.240   8.454   8.017  0.1427 -0.0891 -0.1392
  320MOL0     H43177   6.259   8.453   8.198  1.0575  0.0549 -0.2037
  320MOL0     H43178   6.281   8.709   8.041 -0.6331  1.6646  1.0773
  320MOL0     H43179   6.339   8.676   8.201 -0.1472 -0.0998 -0.1267
  320MOL0     H43180   6.102   8.615   8.261 -0.1409  0.4344 -0.3336
  320MOL0     H43181   6.063   8.643   8.087 -0.2552 -1.2554  0.6277
  320MOL0     H43182   7.028   8.762   7.974 -1.3895 -1.0775 -0.4392
  320MOL0     H43183   7.244   8.730   7.897 -1.1770  0.7128  0.1716
  320MOL0     H43184   7.658   8.641   7.915 -1.5604  0.0763  1.4809
  320MOL0     H43185   7.855   8.622   7.873  0.1004 -0.2492 -1.1080
  320MOL0     H43186   9.299   9.274   6.738 -1.9840 -1.7140 -0.7674
  320MOL0     H43187   9.472   9.261   6.566  0.3049  0.5061  0.8764
  320MOL0     H43188   9.932   9.158   6.557  1.8716 -0.4390  0.0440
  320MOL0     H43189  10.152   9.226   6.432  1.3033 -2.2428 -2.1698
  320MOL0     H43190  10.128   9.192   6.000 -1.9196  1.1188 -0.7268
  320MOL0     H43191  10.146   9.370   6.031  1.1477  1.4423  2.3872
  320MOL0     H43192  10.343   9.153   6.006 -1.3610 -0.3405  3.1558
  320MOL0     H43193  10.397   9.313   6.067  1.4106  0.0829 -0.9407
  320MOL0     H43194  10.341   9.430   5.853  0.2266 -0.1728 -1.6401
  320MOL0     H43195  10.298   9.265   5.783  2.2195 -2.1468 -0.5053
  320MOL0     H43196  10.533   9.302   5.706  1.3574  0.9415 -0.9392
  320MOL0     H43197  10.552   9.203   5.843  0.7345  0.0288 -2.0625
  320MOL0     H43198  10.794   9.518   5.934 -0.0816  0.4774 -0.4566
  320MOL0     H43199   9.929   9.188   6.064  1.4724  0.8703  0.0780
  320MOL0     H43200   9.730   9.141   6.179 -0.3599  0.3760  0.7484
  321MOL0     O43201  11.208   0.666   9.387 -0.5963 -0.3965  0.2768
  321MOL0     C43202  11.297   0.616   9.452 -0.3470  0.6823 -0.6282
  321MOL0     O43203  11.312   0.480   9.472 -0.2370  0.8245  0.1038
  321MOL0     C43204  11.209   0.399   9.431 -0.6632  0.0406 -0.2567
  321MOL0     C43205  11.226   0.321   9.308 -0.3371 -0.6636 -0.7841
  321MOL0     C43206  11.127   0.231   9.272 -0.0055  0.0297  0.5052
  321MOL0     C43207  11.004   0.230   9.347  0.1347 -0.4307 -0.2157
  321MOL0     O43208  10.919   0.129   9.311 -0.3568  0.0067  0.4577
  321MOL0     C43209  10.833   0.064   9.402 -0.6991  0.0433 -0.2285
  321MOL0     C43210  10.774  -0.062   9.347  0.0986  0.0385  0.6540
  321MOL0     C43211  10.645  -0.108   9.427  0.2144 -0.1114  0.6232
  321MOL0     C43212  10.513  -0.014   9.411  0.1149  0.2504  0.3671
  321MOL0     C43213  10.392  -0.060   9.497 -0.2991  0.0708 -1.2792
  321MOL0     C43214  10.320  -0.184   9.449 -0.1532 -0.5319  0.0007
  321MOL0     C43215  10.235  -0.255   9.560  0.2655 -0.0189  0.2332
  321MOL0     C43216  10.110  -0.171   9.596 -0.2668  0.3708  0.0224
  321MOL0     N43217  10.039  -0.104   9.484 -0.5431 -0.3208  0.7147
  321MOL0     C43218  10.017   0.032   9.466 -0.6318 -0.3814  0.0716
  321MOL0     C43219   9.938   0.048   9.357 -0.9522 -0.0079 -0.2838
  321MOL0     C43220   9.871   0.180   9.326 -0.4553  0.1892  0.1792
  321MOL0     C43221   9.731   0.204   9.332 -0.2665  1.1704  0.5941
  321MOL0     C43222   9.656   0.104   9.246 -0.3600 -0.3674 -0.5265
  321MOL0     C43223   9.514   0.148   9.235  0.3380  1.1308 -0.7069
  321MOL0     O43224   9.444   0.030   9.190 -0.0689  0.0981 -0.4850
  321MOL0     C43225   9.306   0.024   9.194  0.0058  0.6378 -0.8534
  321MOL0     C43226   9.223   0.137   9.229 -0.2354 -0.9465  0.4908
  321MOL0     C43227   9.081   0.135   9.246  0.0442  0.1498  0.4564
  321MOL0     C43228   9.017   0.264   9.279  0.3812 -0.4053  1.0184
  321MOL0     C43229   9.015   0.015   9.227 -0.5117 -0.3575 -0.5258
  321MOL0     C43230   8.875  -0.003   9.247 -0.2509  0.0520 -0.0916
  321MOL0     O43231   8.818  -0.092   9.159  0.3190 -0.2399 -0.2640
  321MOL0     C43232   8.682  -0.101   9.150  0.4482  0.0516  0.3996
  321MOL0     C43233   8.595   0.006   9.150 -0.9556  0.9474  0.7620
  321MOL0     C43234   8.454  -0.016   9.119  0.0296  0.1754 -0.9627
  321MOL0     C43235   8.411  -0.141   9.096  0.8386 -0.0120 -0.1692
  321MOL0     O43236   8.284  -0.158   9.052 -0.0664 -0.4455  0.1203
  321MOL0     C43237   8.189  -0.215   9.142 -0.3099 -0.4302 -0.4984
  321MOL0     C43238   8.052  -0.169   9.100 -0.4035 -0.2823  0.0822
  321MOL0     C43239   7.996  -0.040   9.164  0.0701 -0.2251 -0.8280
  321MOL0     C43240   7.850  -0.005   9.125 -0.3801  0.8686 -0.6717
  321MOL0     C43241   7.793   0.126   9.189 -0.4497  0.4701 -0.4784
  321MOL0     C43242   7.648   0.153   9.170 -0.1783  0.0978  0.0739
  321MOL0     C43243   7.555   0.070   9.265  0.3688  0.0002 -0.3016
  321MOL0     C43244   7.412   0.112   9.233  0.5757 -0.7060  0.1094
  321MOL0    Cl43245   7.327   0.026   9.100 -0.9964 -0.0082 -0.0427
  321MOL0     C43246   8.502  -0.248   9.090  0.7921 -0.3497  0.0789
  321MOL0     C43247   8.636  -0.226   9.110  0.5168  0.8097  0.3805
  321MOL0     O43248   8.821   0.054   9.340  0.0076  0.3973  0.1335
  321MOL0     C43249   9.092  -0.097   9.182 -0.5340 -0.5608 -1.7198
  321MOL0     C43250   9.236  -0.090   9.160  0.1173 -0.0486  0.6196
  321MOL0     N43251   9.907  -0.084   9.312 -0.4994 -0.4107 -0.7648
  321MOL0     N43252   9.967  -0.175   9.389  0.9981  1.0861  0.5060
  321MOL0     C43253  10.985   0.310   9.456 -0.4889  0.6977 -0.2343
  321MOL0     C43254  11.086   0.392   9.505  0.6306  0.3018 -0.1100
  321MOL0     C43255  11.403   0.712   9.511 -0.1621 -0.0915  0.2102
  321MOL0     C43256  11.380   0.845   9.524 -0.4556 -0.4981 -0.2364
  321MOL0     C43257  11.476   0.931   9.584  0.1728 -0.1432 -0.1859
  321MOL0     C43258  11.598   0.892   9.641 -0.8504 -0.4491  0.2802
  321MOL0     O43259  11.702   0.968   9.695  0.6274  0.1300  0.2558
  321MOL0     C43260  11.692   1.102   9.671  0.6753  0.5462  0.4225
  321MOL0     C43261  11.825   1.169   9.712 -0.2422 -0.4908  0.2004
  321MOL0     C43262  11.840   1.147   9.866 -0.7682  0.2909  0.0403
  321MOL0     C43263  11.982   1.206   9.916  0.0241  0.0234 -0.0500
  321MOL0     C43264  12.096   1.149   9.849  0.5782  0.6738 -0.0553
  321MOL0     C43265  12.189   1.104   9.792  0.2658  0.2374  0.4939
  321MOL0     C43266  11.608   0.754   9.642  0.6605  1.2436  0.5942
  321MOL0     C43267  11.528   0.662   9.567  0.2934 -0.7975  0.1321
  321MOL0     H43268  11.322   0.324   9.258  1.0052 -0.0210  1.6824
  321MOL0     H43269  11.137   0.158   9.193  1.4643  0.8302 -0.0835
  321MOL0     H43270  10.898   0.036   9.486  0.6492 -0.6367 -1.4576
  321MOL0     H43271  10.763   0.129   9.455 -1.2322 -3.0719  3.3713
  321MOL0     H43272  10.744  -0.054   9.242 -1.7661 -3.4065  0.7884
  321MOL0     H43273  10.852  -0.138   9.343  1.2856  1.2576 -0.1078
  321MOL0     H43274  10.615  -0.205   9.385 -2.2677  2.4872 -4.5004
  321MOL0     H43275  10.673  -0.110   9.533  0.3951  2.2717  0.6629
  321MOL0     H43276  10.536   0.091   9.433  1.0886  0.2990 -0.7585
  321MOL0     H43277  10.474  -0.009   9.309  1.1757 -3.3495 -0.3561
  321MOL0     H43278  10.432  -0.072   9.598  1.7686 -1.7658 -2.2054
  321MOL0     H43279  10.325   0.025   9.506 -1.9135 -0.7948 -4.0394
  321MOL0     H43280  10.248  -0.158   9.370 -0.0121  0.1980  0.1017
  321MOL0     H43281  10.386  -0.250   9.392  0.8286  1.4251 -1.2779
  321MOL0     H43282  10.215  -0.359   9.533  1.8518 -0.2111 -0.3107
  321MOL0     H43283  10.289  -0.270   9.654  1.0682  1.7295  0.0849
  321MOL0     H43284  10.141  -0.088   9.659  0.6294  0.4495 -0.4925
  321MOL0     H43285  10.038  -0.228   9.655 -1.7347  0.7964 -1.2804
  321MOL0     H43286  10.060   0.112   9.525  0.3396  0.0343 -1.1775
  321MOL0     H43287   9.913   0.258   9.391  3.8160  0.5859 -2.6303
  321MOL0     H43288   9.904   0.214   9.227 -1.9235  1.0859 -0.0300
  321MOL0     H43289   9.709   0.309   9.312 -2.5057  0.3826 -1.6279
  321MOL0     H43290   9.700   0.179   9.434  1.6048 -3.2479  0.3248
  321MOL0     H43291   9.662   0.005   9.291 -1.8543 -0.5650 -0.7167
  321MOL0     H43292   9.705   0.093   9.149 -0.1226 -3.0259 -0.1711
  321MOL0     H43293   9.502   0.241   9.179 -0.2164  0.6119 -1.4716
  321MOL0     H43294   9.477   0.164   9.336  0.6936 -2.2980  0.1073
  321MOL0     H43295   9.275   0.231   9.247 -1.0012 -0.5662  0.7694
  321MOL0     H43296   9.021   0.338   9.199 -0.2741 -0.2467  1.1263
  321MOL0     H43297   8.909   0.260   9.295 -0.0384  1.0987 -1.0089
  321MOL0     H43298   9.066   0.310   9.366  0.4624 -1.5427  1.5966
  321MOL0     H43299   8.647   0.101   9.162  1.3061 -0.5509  4.5796
  321MOL0     H43300   8.376   0.060   9.115 -1.2679 -0.8580  2.0018
  321MOL0     H43301   8.197  -0.323   9.126  2.2249 -0.8660  2.5401
  321MOL0     H43302   8.212  -0.205   9.248 -0.9413  0.3144 -0.4245
  321MOL0     H43303   8.045  -0.166   8.991 -1.2706  0.0640  0.1451
  321MOL0     H43304   7.992  -0.255   9.133 -0.3075 -0.8732 -1.1971
  321MOL0     H43305   8.069   0.037   9.138 -0.2909  1.0570  1.6877
  321MOL0     H43306   7.997  -0.046   9.273  2.2975 -0.7886 -0.8310
  321MOL0     H43307   7.856  -0.006   9.015  2.3009  3.5516 -0.6846
  321MOL0     H43308   7.784  -0.082   9.167 -0.9334 -0.7006 -4.0132
  321MOL0     H43309   7.850   0.214   9.155 -1.3256  1.7992  1.3441
  321MOL0     H43310   7.816   0.129   9.296 -4.1990  2.4075  0.4495
  321MOL0     H43311   7.634   0.260   9.183  2.4952  0.5913 -0.4860
  321MOL0     H43312   7.623   0.130   9.066  0.8433  0.5814 -0.2911
  321MOL0     H43313   7.575   0.102   9.368  1.7919 -1.9276  0.0757
  321MOL0     H43314   7.578  -0.037   9.263  2.2461  0.3393  0.4028
  321MOL0     H43315   7.415   0.220   9.218  1.4566 -0.7278  0.0211
  321MOL0     H43316   7.343   0.104   9.317 -0.5916 -1.7932 -0.9112
  321MOL0     H43317   8.461  -0.347   9.070  2.3546 -1.1376  0.6304
  321MOL0     H43318   8.702  -0.312   9.109  0.6053  0.8806 -0.5453
  321MOL0     H43319   9.046  -0.191   9.154  2.7159 -3.8159  2.6371
  321MOL0     H43320   9.286  -0.173   9.111  0.5416 -0.1881  1.2801
  321MOL0     H43321  10.890   0.307   9.508  0.2776  2.5599  1.3690
  321MOL0     H43322  11.064   0.437   9.601 -2.0391  0.0197 -0.5178
  321MOL0     H43323  11.285   0.888   9.493  0.2545  1.5097  0.2463
  321MOL0     H43324  11.428   1.028   9.579 -0.5189 -0.5440 -3.1111
  321MOL0     H43325  11.672   1.123   9.565 -1.4083 -2.3069  0.1289
  321MOL0     H43326  11.610   1.139   9.733 -0.7226 -1.5662 -0.0519
  321MOL0     H43327  11.823   1.276   9.693 -0.9486 -0.6952 -0.9175
  321MOL0     H43328  11.909   1.124   9.659 -2.0723 -0.0952 -3.2714
  321MOL0     H43329  11.829   1.042   9.896 -0.3829 -0.0924 -1.1351
  321MOL0     H43330  11.758   1.202   9.915 -1.3324  0.8129 -1.4370
  321MOL0     H43331  11.997   1.183  10.022 -3.3969  0.6738  0.6762
  321MOL0     H43332  11.989   1.315   9.909 -1.2118  0.2489  1.6144
  321MOL0     H43333  12.264   1.057   9.733 -1.4342  0.9839 -2.4903
  321MOL0     H43334  11.690   0.704   9.692  2.9677  2.1035 -2.0545
  321MOL0     H43335  11.555   0.559   9.588  1.1207  0.0168  3.6435
  322MOL0     O43336   1.157   0.734   7.147 -0.6246  0.3666  0.2943
  322MOL0     C43337   1.215   0.718   7.250  0.4214  0.5478 -0.3278
  322MOL0     O43338   1.154   0.691   7.377  0.2710 -0.1465 -0.8686
  322MOL0     C43339   1.017   0.689   7.382 -0.5985  0.3064 -0.8302
  322MOL0     C43340   0.942   0.580   7.395  0.0579  0.2865  0.1621
  322MOL0     C43341   0.803   0.584   7.402 -0.1714 -0.4391  0.0845
  322MOL0     C43342   0.730   0.706   7.395 -0.7994  0.1970 -0.5832
  322MOL0     O43343   0.593   0.688   7.406  0.8367 -0.2851 -0.2299
  322MOL0     C43344   0.526   0.804   7.451 -0.6029  0.1519 -0.7325
  322MOL0     C43345   0.385   0.771   7.466  0.1744  0.1231  0.7840
  322MOL0     C43346   0.316   0.736   7.344  0.5123  0.2145  0.3531
  322MOL0     C43347   0.157   0.713   7.369 -0.3720  0.2178  0.4756
  322MOL0     C43348   0.090   0.671   7.239  0.1543  0.2284  0.0712
  322MOL0     C43349  -0.059   0.649   7.252 -0.3707 -0.5159 -0.3796
  322MOL0     C43350  -0.115   0.589   7.132  0.2156  0.3238 -0.2879
  322MOL0     C43351  -0.254   0.530   7.176 -0.9493 -0.1596 -0.4086
  322MOL0     N43352  -0.353   0.637   7.164 -0.0857  0.0118 -0.8086
  322MOL0     C43353  -0.429   0.691   7.057 -0.4692 -0.3962 -0.8943
  322MOL0     C43354  -0.507   0.789   7.111 -0.5955 -0.2328  1.0410
  322MOL0     C43355  -0.612   0.880   7.041  0.0153  0.7595 -0.0722
  322MOL0     C43356  -0.763   0.833   7.060  0.4878  0.7750 -0.1117
  322MOL0     C43357  -0.785   0.679   7.042  0.4917 -0.3779 -0.5717
  322MOL0     C43358  -0.938   0.651   7.022 -0.5367 -0.7281 -0.1854
  322MOL0     O43359  -1.009   0.752   6.946  0.0898  0.0974  0.0582
  322MOL0     C43360  -1.137   0.784   6.979  0.6065  0.7603  0.3398
  322MOL0     C43361  -1.215   0.712   7.065 -0.3481  0.3031  0.0124
  322MOL0     C43362  -1.354   0.738   7.081 -0.7901  0.0751  0.0039
  322MOL0     C43363  -1.427   0.656   7.180  0.1643  0.0228  0.0937
  322MOL0     C43364  -1.413   0.844   7.005  0.3411  0.8569 -0.6096
  322MOL0     C43365  -1.569   0.860   6.990 -0.5673  0.2048 -0.1550
  322MOL0     O43366  -1.615   0.987   6.972  0.8443 -0.3148 -0.4742
  322MOL0     C43367  -1.750   1.015   6.960 -0.2060  0.1199 -0.6193
  322MOL0     C43368  -1.830   0.938   6.873  0.7170 -0.5934  0.6275
  322MOL0     C43369  -1.967   0.959   6.857  0.7715  0.4149 -0.0101
  322MOL0     C43370  -2.032   1.050   6.945  0.3645 -0.8379  0.4556
  322MOL0     O43371  -2.171   1.067   6.963  0.3978  0.2414 -0.0432
  322MOL0     C43372  -2.259   1.026   6.859  1.2421 -0.5303  0.1492
  322MOL0     C43373  -2.407   1.043   6.895 -0.4719 -0.5063 -0.9208
  322MOL0     C43374  -2.470   0.930   6.975  0.2472  0.8350 -0.3883
  322MOL0     C43375  -2.626   0.948   6.963  0.0847  0.0431 -0.1754
  322MOL0     C43376  -2.698   0.844   7.048 -0.0185  0.9137  0.5816
  322MOL0     C43377  -2.688   0.866   7.196 -0.0852 -0.7333  1.0888
  322MOL0     C43378  -2.751   0.745   7.271 -0.2934  0.5918  0.8241
  322MOL0     C43379  -2.712   0.721   7.410 -1.1231 -0.1415  0.4039
  322MOL0    Cl43380  -2.762   0.845   7.525 -0.3595  0.1877  0.2297
  322MOL0     C43381  -1.955   1.129   7.029  0.0656  0.0362 -0.3668
  322MOL0     C43382  -1.812   1.127   7.026 -0.7037 -0.4810 -0.2663
  322MOL0     O43383  -1.637   0.759   7.008  0.3116 -0.3980  0.1676
  322MOL0     C43384  -1.330   0.924   6.930 -0.3869  0.8033  0.5162
  322MOL0     C43385  -1.197   0.892   6.917  0.3941  0.5109  0.6678
  322MOL0     N43386  -0.488   0.784   7.253  0.2816 -0.7406  0.0111
  322MOL0     N43387  -0.395   0.699   7.280  0.2192  0.2090  0.3620
  322MOL0     C43388   0.807   0.818   7.365 -0.0275  0.0893 -0.7706
  322MOL0     C43389   0.949   0.810   7.370 -0.1016 -0.2909 -0.8217
  322MOL0     C43390   1.358   0.715   7.244  0.0307  0.4433  1.2107
  322MOL0     C43391   1.419   0.715   7.115 -0.1317 -0.9090  0.8690
  322MOL0     C43392   1.551   0.681   7.099 -0.1055  0.0777 -0.3380
  322MOL0     C43393   1.634   0.637   7.211  0.4510  0.5474 -1.0340
  322MOL0     O43394   1.763   0.591   7.217  0.0528 -0.4994  0.3526
  322MOL0     C43395   1.843   0.584   7.103  1.0268 -0.1759 -0.7569
  322MOL0     C43396   1.983   0.582   7.145 -0.1338 -0.3813  0.0223
  322MOL0     C43397   2.031   0.673   7.260 -0.5285  0.0108 -0.0018
  322MOL0     C43398   2.055   0.822   7.207  0.1662  0.2473 -0.9187
  322MOL0     C43399   2.176   0.822   7.126 -0.0007  0.1677 -1.0338
  322MOL0     C43400   2.271   0.820   7.052 -0.6861  0.0792  0.4961
  322MOL0     C43401   1.573   0.645   7.334 -0.3621 -0.4155 -0.3475
  322MOL0     C43402   1.441   0.685   7.355 -0.0039  0.1635  0.3304
  322MOL0     H43403   0.982   0.479   7.398  1.9882  1.0259  1.5883
  322MOL0     H43404   0.749   0.489   7.408  0.1954 -0.9812 -3.2684
  322MOL0     H43405   0.558   0.833   7.551 -0.2417 -0.0967 -0.7716
  322MOL0     H43406   0.533   0.892   7.386  1.2357 -0.0048 -0.8228
  322MOL0     H43407   0.358   0.703   7.548 -3.8155 -0.3285 -0.6639
  322MOL0     H43408   0.342   0.867   7.496 -1.0697 -0.0210 -0.4149
  322MOL0     H43409   0.332   0.824   7.281  2.6549 -1.1588 -1.1490
  322MOL0     H43410   0.360   0.645   7.303  0.5554 -0.2175  1.3142
  322MOL0     H43411   0.152   0.640   7.451 -0.9172 -0.2388  0.0431
  322MOL0     H43412   0.108   0.799   7.415  3.4623  1.6400  2.2927
  322MOL0     H43413   0.104   0.739   7.154  0.5988 -0.5520 -0.5055
  322MOL0     H43414   0.138   0.577   7.208 -1.0362 -0.2069 -0.5146
  322MOL0     H43415  -0.077   0.577   7.333  1.9981  0.4334  1.1150
  322MOL0     H43416  -0.106   0.740   7.289 -0.8224 -2.4105  4.4258
  322MOL0     H43417  -0.140   0.658   7.051 -1.5711 -2.4860 -2.3079
  322MOL0     H43418  -0.050   0.517   7.082 -0.8492  1.0334 -2.8377
  322MOL0     H43419  -0.260   0.494   7.279 -0.7884  0.8611 -0.0265
  322MOL0     H43420  -0.288   0.457   7.102  1.0017 -0.4152 -1.0994
  322MOL0     H43421  -0.419   0.673   6.950  2.6990  0.4309 -0.8348
  322MOL0     H43422  -0.604   0.981   7.083  2.4313  1.3553 -1.7421
  322MOL0     H43423  -0.591   0.893   6.935  0.6056 -1.4630 -0.2877
  322MOL0     H43424  -0.817   0.883   6.980 -0.6573 -0.4900 -0.1668
  322MOL0     H43425  -0.808   0.868   7.154 -0.3444 -0.4276 -0.0356
  322MOL0     H43426  -0.746   0.634   7.133 -1.2077 -1.1538 -0.1830
  322MOL0     H43427  -0.727   0.646   6.956  1.1755 -1.5309  0.2971
  322MOL0     H43428  -0.973   0.654   7.126 -1.1519 -3.1389 -0.2584
  322MOL0     H43429  -0.948   0.547   6.991  1.4595 -0.8559 -0.5579
  322MOL0     H43430  -1.185   0.617   7.109 -0.7303  0.3042  0.2728
  322MOL0     H43431  -1.365   0.626   7.265 -0.5104 -1.5075  0.0729
  322MOL0     H43432  -1.505   0.716   7.227 -2.4236 -3.4892  0.6463
  322MOL0     H43433  -1.482   0.576   7.130  1.0408 -1.0903  0.8466
  322MOL0     H43434  -1.781   0.864   6.811  1.7407 -0.5857  1.3846
  322MOL0     H43435  -2.015   0.889   6.789  0.3860 -0.1469  0.8188
  322MOL0     H43436  -2.234   1.088   6.772  0.1707  0.3076  0.4178
  322MOL0     H43437  -2.247   0.922   6.829 -3.2645 -1.3980  0.7903
  322MOL0     H43438  -2.422   1.140   6.943 -1.7247 -0.8728 -0.5556
  322MOL0     H43439  -2.461   1.043   6.800 -0.6045 -0.2495 -0.8461
  322MOL0     H43440  -2.426   0.932   7.075  2.1670 -1.0751 -1.1379
  322MOL0     H43441  -2.450   0.835   6.925 -2.7362  0.4384 -1.0665
  322MOL0     H43442  -2.659   1.044   7.002 -0.3792  1.2253 -3.2449
  322MOL0     H43443  -2.669   0.955   6.862  0.4663 -2.1414 -0.5473
  322MOL0     H43444  -2.638   0.759   7.017 -0.8479  0.6623 -0.3888
  322MOL0     H43445  -2.804   0.833   7.023 -0.2048  0.5454  1.5013
  322MOL0     H43446  -2.589   0.899   7.227  0.2523 -1.2957  0.6404
  322MOL0     H43447  -2.748   0.957   7.202 -2.2565 -1.8701 -1.3783
  322MOL0     H43448  -2.711   0.662   7.213 -0.2853  1.0724  0.1281
  322MOL0     H43449  -2.860   0.751   7.270 -0.2442  1.4884  0.0219
  322MOL0     H43450  -2.603   0.714   7.417 -1.1776  0.5967  2.5172
  322MOL0     H43451  -2.758   0.626   7.437 -0.9051 -0.9320 -1.7765
  322MOL0     H43452  -2.016   1.186   7.098 -0.6228 -1.4828  0.3274
  322MOL0     H43453  -1.748   1.188   7.090  0.5821  0.5162 -2.3712
  322MOL0     H43454  -1.375   1.000   6.867  1.3434  0.7007 -0.9241
  322MOL0     H43455  -1.150   0.943   6.833  0.7840 -0.5909  0.1921
  322MOL0     H43456   0.765   0.914   7.338 -2.0339 -0.8516 -1.2354
  322MOL0     H43457   1.004   0.903   7.354  1.6860 -1.4004 -1.4404
  322MOL0     H43458   1.358   0.729   7.026  0.9592 -1.2049  0.0390
  322MOL0     H43459   1.584   0.675   6.996  0.3555 -1.4252 -0.1190
  322MOL0     H43460   1.819   0.499   7.039 -0.8125 -0.9396  0.8484
  322MOL0     H43461   1.817   0.667   7.037 -2.0837 -0.4312  0.0086
  322MOL0     H43462   2.049   0.595   7.058  1.8952 -1.6987  1.2683
  322MOL0     H43463   2.006   0.479   7.174 -2.4715 -0.4029  2.0741
  322MOL0     H43464   2.123   0.630   7.301 -0.5588  1.0844  1.2700
  322MOL0     H43465   1.953   0.670   7.337  1.1744 -1.8230  1.7390
  322MOL0     H43466   2.067   0.902   7.280 -2.5192  0.8303 -1.0116
  322MOL0     H43467   1.971   0.835   7.138  1.1724 -1.0927 -2.4715
  322MOL0     H43468   2.353   0.804   6.985  0.2807 -0.4256  1.7721
  322MOL0     H43469   1.616   0.625   7.432 -0.8796  4.1790  1.0439
  322MOL0     H43470   1.413   0.692   7.460  1.0289 -0.3349  0.6497
  323MOL0     O43471   9.416   0.816   1.160 -0.0647 -0.1393  0.0280
  323MOL0     C43472   9.480   0.732   1.216 -0.3835 -0.9878  0.0398
  323MOL0     O43473   9.437   0.612   1.253 -0.2779 -0.0543 -0.0250
  323MOL0     C43474   9.308   0.582   1.283  0.5750 -0.0028 -0.2794
  323MOL0     C43475   9.286   0.528   1.412 -0.1894 -0.2610 -0.1420
  323MOL0     C43476   9.155   0.504   1.460  0.3066 -0.3980  0.3090
  323MOL0     C43477   9.041   0.526   1.383 -0.4761  0.5731  0.0741
  323MOL0     O43478   8.916   0.503   1.436  0.0830 -0.2261  0.0504
  323MOL0     C43479   8.879   0.370   1.462 -0.0408  0.4111  0.0033
  323MOL0     C43480   8.723   0.354   1.426  0.7224 -0.6488 -0.8247
  323MOL0     C43481   8.628   0.433   1.522  0.3698  1.0685 -0.5412
  323MOL0     C43482   8.476   0.393   1.497  0.1991  0.2235 -0.1709
  323MOL0     C43483   8.386   0.493   1.578  0.2540 -0.2580  0.5624
  323MOL0     C43484   8.242   0.489   1.528  0.3278  0.0653  0.9245
  323MOL0     C43485   8.145   0.585   1.597  0.2623 -1.0072  0.7754
  323MOL0     C43486   8.160   0.730   1.559 -0.4915 -0.5871  0.5058
  323MOL0     N43487   8.026   0.792   1.544 -0.0844  0.0097  0.3325
  323MOL0     C43488   7.926   0.812   1.633  0.0435  0.3410 -0.3668
  323MOL0     C43489   7.813   0.846   1.566  0.5019 -0.4315  0.6886
  323MOL0     C43490   7.678   0.892   1.613 -0.2961 -0.8411 -0.4434
  323MOL0     C43491   7.583   0.771   1.609  0.0834  0.0136  0.4757
  323MOL0     C43492   7.435   0.811   1.584 -0.1847 -0.1091 -0.2834
  323MOL0     C43493   7.352   0.677   1.553  0.4498  0.1636  0.5609
  323MOL0     O43494   7.238   0.721   1.471 -0.3788 -0.3974 -0.2416
  323MOL0     C43495   7.121   0.646   1.468 -0.3006  0.2636 -0.1706
  323MOL0     C43496   7.072   0.631   1.342 -0.0575 -0.8707 -0.9738
  323MOL0     C43497   6.958   0.559   1.313  0.2504 -0.6661 -0.2417
  323MOL0     C43498   6.922   0.545   1.164  0.1603 -0.2459 -0.6745
  323MOL0     C43499   6.881   0.513   1.426 -0.6641 -0.1084  0.2212
  323MOL0     C43500   6.737   0.482   1.412 -1.1721  0.5672  0.4761
  323MOL0     O43501   6.684   0.414   1.521 -0.2398 -0.4428 -0.2516
  323MOL0     C43502   6.552   0.373   1.522 -0.7350  0.2045  0.4295
  323MOL0     C43503   6.467   0.393   1.633 -0.5753  0.1089 -0.2381
  323MOL0     C43504   6.337   0.343   1.628  0.7049 -0.5801  0.1662
  323MOL0     C43505   6.276   0.280   1.520 -0.0884  0.2234 -0.9109
  323MOL0     O43506   6.139   0.242   1.514  0.3605  0.4701 -0.4902
  323MOL0     C43507   6.064   0.223   1.640  0.4645 -0.1900  0.6815
  323MOL0     C43508   5.929   0.166   1.608 -0.0290 -0.0252 -0.9806
  323MOL0     C43509   5.843   0.154   1.732 -0.4832 -0.7137 -0.0929
  323MOL0     C43510   5.728   0.047   1.703 -0.4464 -0.0765 -1.5567
  323MOL0     C43511   5.674  -0.012   1.830 -0.3784 -0.5295 -0.2048
  323MOL0     C43512   5.771  -0.125   1.888  0.0695  0.2948 -0.1162
  323MOL0     C43513   5.742  -0.149   2.036 -0.3625 -0.2533 -0.2957
  323MOL0     C43514   5.611  -0.221   2.067  0.2356  0.0018 -0.0380
  323MOL0    Cl43515   5.610  -0.375   1.988  0.0582 -0.0002 -0.3783
  323MOL0     C43516   6.354   0.264   1.406 -0.0801 -0.4581  1.2171
  323MOL0     C43517   6.495   0.307   1.407 -0.1709 -0.6771  0.8131
  323MOL0     O43518   6.677   0.518   1.310  0.2039  0.0399 -0.4482
  323MOL0     C43519   6.941   0.519   1.548 -0.1165 -0.7462 -0.5294
  323MOL0     C43520   7.061   0.584   1.575 -0.2366  0.3060 -0.7420
  323MOL0     N43521   7.853   0.862   1.432  0.2859 -0.2178 -0.1537
  323MOL0     N43522   7.971   0.826   1.421  0.0209 -0.0125  0.1354
  323MOL0     C43523   9.064   0.582   1.253 -0.5170 -0.1075  0.1694
  323MOL0     C43524   9.196   0.616   1.202 -0.6905 -0.2242 -0.1781
  323MOL0     C43525   9.625   0.774   1.226  0.4104 -0.5998 -0.0070
  323MOL0     C43526   9.688   0.862   1.140 -0.5457 -0.2420 -0.1357
  323MOL0     C43527   9.826   0.877   1.143 -0.4278  0.8295  0.9482
  323MOL0     C43528   9.905   0.815   1.237 -1.1996  1.0733  0.3725
  323MOL0     O43529  10.040   0.843   1.240 -0.0957  0.0200  0.6517
  323MOL0     C43530  10.096   0.820   1.367 -0.1466  0.2849 -0.3769
  323MOL0     C43531  10.242   0.843   1.358 -0.0249  0.1664  0.3999
  323MOL0     C43532  10.296   0.729   1.265 -0.7607  0.8235  0.0038
  323MOL0     C43533  10.451   0.748   1.255 -0.3337 -0.8308  0.2949
  323MOL0     C43534  10.470   0.860   1.167 -0.1793 -0.3951  0.6312
  323MOL0     C43535  10.483   0.951   1.078  1.1943  0.2887  0.3311
  323MOL0     C43536   9.838   0.723   1.335  0.2239 -0.1601 -0.1808
  323MOL0     C43537   9.699   0.715   1.329 -0.4115  0.4383  0.1937
  323MOL0     H43538   9.368   0.505   1.479 -1.2302 -0.6745  1.0278
  323MOL0     H43539   9.142   0.469   1.562  2.1011  0.7097  0.9817
  323MOL0     H43540   8.935   0.300   1.398 -2.7637 -1.6168 -0.3517
  323MOL0     H43541   8.878   0.342   1.567 -5.2314 -1.2595 -0.1878
  323MOL0     H43542   8.708   0.374   1.319 -0.0031  0.5967 -0.5132
  323MOL0     H43543   8.698   0.251   1.451  0.6579  0.0113  2.1637
  323MOL0     H43544   8.657   0.419   1.626  1.0961 -1.4436 -1.0184
  323MOL0     H43545   8.637   0.539   1.493 -3.4658  1.1156 -2.1663
  323MOL0     H43546   8.458   0.407   1.390 -0.5746  1.0024  0.0396
  323MOL0     H43547   8.448   0.292   1.528  0.2776 -0.5346 -2.4165
  323MOL0     H43548   8.390   0.483   1.687  0.5332  1.1849  0.6972
  323MOL0     H43549   8.419   0.597   1.569  0.0874 -0.3136 -0.8059
  323MOL0     H43550   8.250   0.507   1.420 -0.3526  3.1613  1.2734
  323MOL0     H43551   8.199   0.389   1.521 -1.8220  1.0242 -3.2805
  323MOL0     H43552   8.050   0.543   1.564  0.6741 -0.6679 -0.9588
  323MOL0     H43553   8.149   0.566   1.704  0.5361 -3.4935  0.3783
  323MOL0     H43554   8.211   0.726   1.462 -1.7997  1.5333 -0.3288
  323MOL0     H43555   8.230   0.783   1.624 -1.7235 -0.0272  1.4126
  323MOL0     H43556   7.917   0.788   1.739  3.9183 -1.5230 -0.2896
  323MOL0     H43557   7.685   0.922   1.718  1.8553  1.7544 -1.2071
  323MOL0     H43558   7.628   0.959   1.543  0.1876 -1.3778 -1.3240
  323MOL0     H43559   7.595   0.718   1.703  1.2103  0.8456  0.8247
  323MOL0     H43560   7.627   0.710   1.529 -0.5785 -0.8684  0.7803
  323MOL0     H43561   7.423   0.875   1.497 -1.4262 -1.0958 -0.8736
  323MOL0     H43562   7.405   0.864   1.675  2.3391  0.2505  0.3925
  323MOL0     H43563   7.316   0.638   1.649  0.2719 -0.5499  0.2188
  323MOL0     H43564   7.413   0.595   1.513  0.7722  0.7167 -0.0924
  323MOL0     H43565   7.116   0.686   1.259  0.2269  0.9638  0.3326
  323MOL0     H43566   6.873   0.450   1.141  3.0845 -1.6553 -1.5952
  323MOL0     H43567   6.849   0.623   1.138 -1.0824 -2.2989 -3.9707
  323MOL0     H43568   7.014   0.548   1.106  1.1388  1.4208  0.8547
  323MOL0     H43569   6.495   0.437   1.728 -3.0990  0.0654  0.6126
  323MOL0     H43570   6.291   0.364   1.724  0.6251 -0.2670  0.0601
  323MOL0     H43571   6.111   0.153   1.710 -0.3801  1.9697  3.6143
  323MOL0     H43572   6.049   0.321   1.686  1.2846 -0.0171  0.6120
  323MOL0     H43573   5.880   0.237   1.541 -1.6939 -0.4033 -0.2029
  323MOL0     H43574   5.938   0.069   1.558  1.6787 -0.1710 -0.4634
  323MOL0     H43575   5.794   0.251   1.749  2.5399  1.3107 -2.0416
  323MOL0     H43576   5.895   0.126   1.824 -1.0593 -1.0452  0.1389
  323MOL0     H43577   5.652   0.121   1.677 -0.8592 -0.5034 -1.5893
  323MOL0     H43578   5.746  -0.020   1.618 -1.5382 -1.9925 -0.3581
  323MOL0     H43579   5.572  -0.047   1.814  0.0914 -2.3057  0.4511
  323MOL0     H43580   5.673   0.075   1.897  1.4531 -2.1493  2.1267
  323MOL0     H43581   5.776  -0.211   1.821 -0.3789  1.0602 -1.1718
  323MOL0     H43582   5.870  -0.079   1.877 -0.5134  1.2120 -2.0903
  323MOL0     H43583   5.747  -0.053   2.088  0.2857 -0.0301 -0.7622
  323MOL0     H43584   5.821  -0.217   2.071 -1.3878 -1.6574 -0.6423
  323MOL0     H43585   5.530  -0.157   2.030  2.0456  2.7598  0.4969
  323MOL0     H43586   5.586  -0.236   2.172 -0.2766 -0.8985 -0.2698
  323MOL0     H43587   6.304   0.211   1.326 -1.7434  3.2994 -0.4509
  323MOL0     H43588   6.564   0.282   1.327 -0.3895  1.4663 -0.0944
  323MOL0     H43589   6.889   0.470   1.631  0.5531 -0.4997  0.0392
  323MOL0     H43590   7.102   0.581   1.675 -0.4214 -1.2087 -0.6983
  323MOL0     H43591   8.976   0.605   1.195  0.5155  2.5493 -0.4659
  323MOL0     H43592   9.207   0.666   1.106 -3.7466 -1.2029 -1.1510
  323MOL0     H43593   9.634   0.923   1.068 -2.4772  0.2490  1.6190
  323MOL0     H43594   9.879   0.945   1.076  0.9945 -1.1188 -0.0280
  323MOL0     H43595  10.050   0.884   1.443  1.2422  0.6457  0.1920
  323MOL0     H43596  10.088   0.716   1.400 -1.2921  0.3456 -0.4145
  323MOL0     H43597  10.295   0.850   1.453  1.2238  1.4283 -0.3476
  323MOL0     H43598  10.261   0.945   1.324 -0.5144  1.6416  4.1339
  323MOL0     H43599  10.241   0.739   1.171 -1.6444  3.5194  0.7048
  323MOL0     H43600  10.278   0.633   1.313  0.7590  1.0419  1.0791
  323MOL0     H43601  10.501   0.658   1.217  1.2045 -1.5017  3.5842
  323MOL0     H43602  10.502   0.768   1.349 -1.3734 -0.8955  0.8905
  323MOL0     H43603  10.473   1.008   0.988 -2.4564 -2.4117 -1.2151
  323MOL0     H43604   9.887   0.670   1.417 -0.5544 -1.0288 -0.2666
  323MOL0     H43605   9.639   0.655   1.397 -1.8732  3.2132  1.5136
  324MOL0     O43606   1.352   5.823   7.784  0.0484 -1.1206 -0.0990
  324MOL0     C43607   1.402   5.901   7.699  0.4361 -0.1097 -0.9509
  324MOL0     O43608   1.334   5.973   7.601 -0.4731  0.8352 -0.5668
  324MOL0     C43609   1.200   5.958   7.597  0.4232  0.5773  0.2255
  324MOL0     C43610   1.103   5.935   7.697  0.7723  0.1399 -0.5774
  324MOL0     C43611   0.970   5.945   7.685  0.1854  0.3568 -0.4154
  324MOL0     C43612   0.924   5.932   7.554 -0.2304 -1.1414  0.0200
  324MOL0     O43613   0.789   5.931   7.525 -0.3045  0.1391  0.1607
  324MOL0     C43614   0.700   5.877   7.617  0.8847 -0.5813 -0.1874
  324MOL0     C43615   0.708   5.728   7.644  0.0675  0.2714  0.2048
  324MOL0     C43616   0.614   5.680   7.757  0.1224 -0.6825 -0.1872
  324MOL0     C43617   0.610   5.533   7.755 -0.3687 -0.1381  0.0832
  324MOL0     C43618   0.531   5.452   7.861  0.1671 -0.4754  0.2113
  324MOL0     C43619   0.378   5.456   7.845 -0.2867  0.8854  0.2551
  324MOL0     C43620   0.322   5.405   7.711 -0.1923 -0.7217  0.1451
  324MOL0     C43621   0.174   5.416   7.708 -0.7957  0.4299 -0.0181
  324MOL0     N43622   0.123   5.554   7.707 -0.0502 -0.8578  0.5070
  324MOL0     C43623   0.163   5.652   7.624 -0.6537 -0.3496  0.0194
  324MOL0     C43624   0.083   5.763   7.643 -0.5383 -0.4099 -0.8994
  324MOL0     C43625   0.114   5.896   7.577 -0.0827 -0.5214  0.5862
  324MOL0     C43626  -0.000   5.999   7.589  0.6647 -0.3597  0.2152
  324MOL0     C43627  -0.120   5.959   7.502 -0.3305 -0.4252  0.4894
  324MOL0     C43628  -0.210   5.846   7.561 -0.2950  0.1680  1.2309
  324MOL0     O43629  -0.336   5.834   7.495 -0.3995 -0.6043  0.3182
  324MOL0     C43630  -0.446   5.790   7.576 -0.7880  0.4513  0.2683
  324MOL0     C43631  -0.421   5.701   7.686  1.0038  0.1930 -0.0900
  324MOL0     C43632  -0.521   5.652   7.774  0.1129 -0.2372 -0.9754
  324MOL0     C43633  -0.478   5.570   7.892 -0.3560  0.8666 -0.1515
  324MOL0     C43634  -0.654   5.687   7.747  0.2158  0.7945  0.3412
  324MOL0     C43635  -0.779   5.651   7.822 -0.2105 -0.9795  0.0970
  324MOL0     O43636  -0.885   5.736   7.803  0.1931 -1.3044 -1.0869
  324MOL0     C43637  -0.994   5.720   7.887 -0.7098  0.1087  0.0498
  324MOL0     C43638  -1.127   5.681   7.850  0.0007  0.1153 -0.5269
  324MOL0     C43639  -1.232   5.677   7.944  0.1222  0.0406 -1.2582
  324MOL0     C43640  -1.195   5.678   8.082 -0.1049 -0.2392  0.6647
  324MOL0     O43641  -1.280   5.646   8.176  1.0045 -0.1745 -0.3401
  324MOL0     C43642  -1.289   5.510   8.213  0.1286 -1.3175 -0.2439
  324MOL0     C43643  -1.437   5.472   8.204  0.5973  0.1983  0.4856
  324MOL0     C43644  -1.466   5.350   8.305  0.4223 -0.0725  0.0329
  324MOL0     C43645  -1.570   5.251   8.256 -0.6045 -0.0715 -1.0229
  324MOL0     C43646  -1.571   5.119   8.335 -0.6548 -0.7029  1.5076
  324MOL0     C43647  -1.599   5.133   8.479  0.1557 -0.3823 -0.0044
  324MOL0     C43648  -1.657   5.009   8.546  0.7785  0.3328  0.1599
  324MOL0     C43649  -1.602   5.018   8.691  0.2017 -0.9168  0.0693
  324MOL0    Cl43650  -1.741   4.949   8.783  0.0676  0.1073 -0.2404
  324MOL0     C43651  -1.062   5.715   8.119  0.0961 -0.7432 -0.2871
  324MOL0     C43652  -0.968   5.741   8.022 -0.3951  0.2998  0.2839
  324MOL0     O43653  -0.783   5.555   7.902 -0.0972  0.1310 -0.4123
  324MOL0     C43654  -0.676   5.757   7.622 -0.0071 -0.0369 -0.4509
  324MOL0     C43655  -0.573   5.818   7.544  0.4169 -0.1475 -0.0720
  324MOL0     N43656   0.006   5.735   7.754  0.3432  0.3931  0.2438
  324MOL0     N43657   0.028   5.614   7.786  0.3727  0.2895 -0.2696
  324MOL0     C43658   1.012   5.942   7.449 -0.4064  1.1446 -0.0938
  324MOL0     C43659   1.149   5.944   7.472 -0.5822 -0.1309  0.4611
  324MOL0     C43660   1.551   5.924   7.695  1.2703 -0.4035 -0.1472
  324MOL0     C43661   1.619   5.893   7.806 -0.0079  0.0273 -1.0988
  324MOL0     C43662   1.760   5.924   7.805 -0.5811 -0.1356 -0.0399
  324MOL0     C43663   1.827   5.983   7.697  0.1491  0.5501  0.3171
  324MOL0     O43664   1.960   5.986   7.696  0.4972 -0.6432  0.5395
  324MOL0     C43665   2.022   6.073   7.594  0.6115  0.0885  0.1308
  324MOL0     C43666   2.160   6.103   7.633  0.4255 -0.1193 -0.1503
  324MOL0     C43667   2.164   6.206   7.732  0.1855 -0.2732  0.1202
  324MOL0     C43668   2.298   6.258   7.784  0.0933  0.5393 -0.0400
  324MOL0     C43669   2.375   6.148   7.841 -0.2857 -0.6635 -0.4853
  324MOL0     C43670   2.420   6.053   7.904  0.0344  0.2426  0.3241
  324MOL0     C43671   1.745   6.011   7.585  0.4607 -0.6276 -0.0353
  324MOL0     C43672   1.614   5.976   7.580 -0.7181  0.6342  0.3892
  324MOL0     H43673   1.131   5.926   7.802  0.3520 -1.0908 -0.5518
  324MOL0     H43674   0.896   5.948   7.764 -1.2176  1.5913 -1.7224
  324MOL0     H43675   0.704   5.934   7.711  0.9465  1.1727 -1.2032
  324MOL0     H43676   0.603   5.905   7.577  1.4606  1.2285 -0.4110
  324MOL0     H43677   0.665   5.688   7.551  1.8686  1.1965 -1.0748
  324MOL0     H43678   0.813   5.700   7.652  0.4241  1.4814 -0.0366
  324MOL0     H43679   0.652   5.726   7.848 -2.0223  0.6435  0.0996
  324MOL0     H43680   0.514   5.722   7.743  0.7190  2.3854  3.4644
  324MOL0     H43681   0.574   5.495   7.659 -2.4038  0.0362  0.7211
  324MOL0     H43682   0.714   5.502   7.769  0.1167  1.3535 -0.0297
  324MOL0     H43683   0.565   5.349   7.845 -0.9744 -0.9604  0.7966
  324MOL0     H43684   0.572   5.488   7.955  1.2464  0.8206 -0.7168
  324MOL0     H43685   0.349   5.386   7.924 -1.0205 -0.6118 -1.2932
  324MOL0     H43686   0.345   5.559   7.860 -1.8322  0.4030  0.3111
  324MOL0     H43687   0.364   5.473   7.636 -0.5710 -0.0529  0.5276
  324MOL0     H43688   0.355   5.302   7.698  1.3776 -0.2803  0.4433
  324MOL0     H43689   0.130   5.367   7.795 -1.2713  2.0153  0.6690
  324MOL0     H43690   0.146   5.358   7.621 -0.7213  0.3909 -0.0165
  324MOL0     H43691   0.246   5.656   7.554 -0.4724  3.6151  0.1981
  324MOL0     H43692   0.208   5.936   7.617 -1.0603 -0.3733  2.8950
  324MOL0     H43693   0.132   5.874   7.472 -2.3000 -1.0042  0.2699
  324MOL0     H43694   0.038   6.095   7.554  0.4111 -1.0176 -2.0191
  324MOL0     H43695  -0.031   6.017   7.692  1.8245  1.7072  0.2580
  324MOL0     H43696  -0.088   5.937   7.400 -3.2889  2.4339 -1.2686
  324MOL0     H43697  -0.180   6.050   7.501  1.2537  0.6773 -1.4706
  324MOL0     H43698  -0.226   5.868   7.667 -1.0531  0.8012  0.9922
  324MOL0     H43699  -0.156   5.752   7.548  1.4816  1.3887 -0.9177
  324MOL0     H43700  -0.319   5.674   7.709  0.8571  1.2031  1.9409
  324MOL0     H43701  -0.500   5.637   7.976  1.8998 -0.4310  1.5497
  324MOL0     H43702  -0.540   5.480   7.902  2.5226 -1.0255  2.1465
  324MOL0     H43703  -0.375   5.534   7.892 -0.7696 -0.3696  0.4374
  324MOL0     H43704  -1.143   5.657   7.745 -3.2300  3.4327 -1.0085
  324MOL0     H43705  -1.337   5.661   7.921 -0.4390 -1.1651  1.5905
  324MOL0     H43706  -1.235   5.436   8.152 -0.0345 -1.5349 -0.1226
  324MOL0     H43707  -1.249   5.499   8.314 -0.2846  0.3004  0.1252
  324MOL0     H43708  -1.499   5.560   8.224  0.6327  0.9445 -2.2198
  324MOL0     H43709  -1.470   5.428   8.109  2.8190 -3.7803  1.3283
  324MOL0     H43710  -1.502   5.391   8.400 -0.6309 -0.1029 -0.3348
  324MOL0     H43711  -1.371   5.305   8.334  0.5196  0.0197 -0.1437
  324MOL0     H43712  -1.669   5.297   8.250  0.2912  1.7904 -2.8666
  324MOL0     H43713  -1.534   5.235   8.154  0.1483  0.2038 -0.8086
  324MOL0     H43714  -1.471   5.073   8.337 -0.2179 -0.1082 -1.8538
  324MOL0     H43715  -1.644   5.052   8.289 -2.7759  3.3259 -1.5580
  324MOL0     H43716  -1.506   5.165   8.526  1.0624 -2.4847 -0.2246
  324MOL0     H43717  -1.672   5.213   8.494  0.2193 -0.6240  1.7641
  324MOL0     H43718  -1.616   4.918   8.500 -1.5841  0.1118 -1.6659
  324MOL0     H43719  -1.766   5.003   8.549  0.8832 -1.9762  0.8419
  324MOL0     H43720  -1.600   5.124   8.719 -2.7608  0.1714 -3.0949
  324MOL0     H43721  -1.502   4.976   8.708  2.4006  3.6029 -0.3399
  324MOL0     H43722  -1.012   5.709   8.215  0.9413  1.6058 -0.5136
  324MOL0     H43723  -0.869   5.765   8.059 -0.7332 -0.8068  2.0068
  324MOL0     H43724  -0.778   5.763   7.587  0.1562 -0.8152 -1.0668
  324MOL0     H43725  -0.594   5.866   7.449 -2.8169  1.8162  1.4589
  324MOL0     H43726   0.973   5.942   7.347  2.0482  0.3836 -1.1056
  324MOL0     H43727   1.218   5.952   7.388 -0.9581  1.4820  0.2753
  324MOL0     H43728   1.572   5.853   7.895  1.2571 -2.8464 -1.6037
  324MOL0     H43729   1.822   5.895   7.890  1.4574  0.7478 -1.1497
  324MOL0     H43730   2.029   6.012   7.504  3.8529  0.4048  0.0609
  324MOL0     H43731   1.956   6.160   7.584  1.9364  1.0819 -0.2274
  324MOL0     H43732   2.214   6.128   7.541 -0.6908 -1.5621 -1.2724
  324MOL0     H43733   2.210   6.012   7.668 -0.3660 -1.1776 -1.6075
  324MOL0     H43734   2.116   6.172   7.824  2.2371 -2.4898  0.4829
  324MOL0     H43735   2.109   6.294   7.698 -1.9028 -0.9499  1.5534
  324MOL0     H43736   2.279   6.333   7.861  1.5896 -0.8181  1.7518
  324MOL0     H43737   2.361   6.306   7.708 -0.0967 -1.7768 -1.7747
  324MOL0     H43738   2.456   5.967   7.956 -1.3734 -0.6862 -0.1798
  324MOL0     H43739   1.781   6.044   7.487 -0.7090 -2.2086 -1.0457
  324MOL0     H43740   1.559   5.989   7.487  0.3860  0.4668 -0.3020
  325MOL0     O43741   2.216   0.546   5.473 -0.2382  0.4807  0.3511
  325MOL0     C43742   2.235   0.513   5.592 -0.8090  0.1248  0.3974
  325MOL0     O43743   2.146   0.497   5.695 -0.3524 -0.2009  0.0363
  325MOL0     C43744   2.010   0.494   5.668 -0.7442  0.2272  0.2048
  325MOL0     C43745   1.960   0.447   5.545  0.3113 -0.4537  0.0107
  325MOL0     C43746   1.825   0.461   5.513 -0.1038 -0.3602 -0.2713
  325MOL0     C43747   1.736   0.525   5.593  0.2461  0.2288 -0.3902
  325MOL0     O43748   1.604   0.544   5.555  0.2737 -0.0495  0.1186
  325MOL0     C43749   1.541   0.661   5.609  0.7063 -0.2626  0.0306
  325MOL0     C43750   1.407   0.702   5.549  0.0572  0.3716  0.0027
  325MOL0     C43751   1.401   0.762   5.408  0.2100  0.5340 -0.3705
  325MOL0     C43752   1.252   0.783   5.372 -0.6449  0.0728  0.5854
  325MOL0     C43753   1.223   0.851   5.239 -1.1204 -0.4574 -0.5105
  325MOL0     C43754   1.076   0.894   5.247 -0.1142  0.2390 -0.1392
  325MOL0     C43755   1.017   0.975   5.122 -0.6583  0.8785 -0.6428
  325MOL0     C43756   0.902   1.061   5.160 -0.0526 -0.3583 -0.9127
  325MOL0     N43757   0.936   1.190   5.228  0.1408  0.5248 -0.6338
  325MOL0     C43758   0.959   1.199   5.365  0.0344 -0.2757  1.0332
  325MOL0     C43759   1.004   1.328   5.380 -0.0943  0.0465  0.2033
  325MOL0     C43760   1.029   1.391   5.509 -0.7558 -0.2679  0.0701
  325MOL0     C43761   0.927   1.494   5.555  0.7652 -0.1973  0.1440
  325MOL0     C43762   0.967   1.552   5.694 -0.1495  0.3795  0.4060
  325MOL0     C43763   0.858   1.639   5.749  1.0060  0.1449  0.5733
  325MOL0     O43764   0.722   1.575   5.760 -0.6073 -0.0325 -0.5358
  325MOL0     C43765   0.614   1.652   5.809 -0.1747  1.2173  0.8153
  325MOL0     C43766   0.629   1.774   5.877  0.1683 -0.7913  0.6942
  325MOL0     C43767   0.528   1.847   5.929 -0.0145  0.3627  0.2648
  325MOL0     C43768   0.564   1.965   5.998 -0.3604  0.4544  0.0740
  325MOL0     C43769   0.398   1.790   5.919 -0.6687 -0.6778 -0.6005
  325MOL0     C43770   0.280   1.859   5.969  0.3337  1.0609 -1.0023
  325MOL0     O43771   0.187   1.779   6.029 -0.3098  0.3895  0.4712
  325MOL0     C43772   0.073   1.841   6.082 -0.7943 -0.1663 -0.7478
  325MOL0     C43773  -0.049   1.777   6.053 -0.4285 -0.3227  0.0407
  325MOL0     C43774  -0.173   1.811   6.114 -1.0471 -0.0426  0.9055
  325MOL0     C43775  -0.172   1.910   6.210 -0.4086  0.3185 -0.0039
  325MOL0     O43776  -0.298   1.928   6.267 -0.9651 -0.2603 -0.4565
  325MOL0     C43777  -0.293   1.988   6.401 -0.6807 -0.2534  0.6149
  325MOL0     C43778  -0.433   2.006   6.452  0.9948 -0.2942 -0.8968
  325MOL0     C43779  -0.535   2.037   6.336 -0.4218 -0.2847 -0.4701
  325MOL0     C43780  -0.680   2.044   6.399 -0.8444  0.4682 -0.9316
  325MOL0     C43781  -0.780   2.079   6.293  0.0963 -0.3421 -0.5404
  325MOL0     C43782  -0.923   2.060   6.353  0.3066  0.0897 -0.4642
  325MOL0     C43783  -1.041   2.089   6.255  0.7620 -0.2679 -0.5012
  325MOL0     C43784  -1.170   2.053   6.335 -0.6235  0.1789 -0.3951
  325MOL0    Cl43785  -1.224   2.176   6.460 -0.1030  0.2237 -0.1015
  325MOL0     C43786  -0.047   1.968   6.253 -1.4562 -0.6697  0.4050
  325MOL0     C43787   0.070   1.940   6.182  0.3821 -0.4145  0.0542
  325MOL0     O43788   0.276   1.981   5.958  0.2603 -0.3585  0.8801
  325MOL0     C43789   0.384   1.675   5.857 -0.2130  0.8200  0.2669
  325MOL0     C43790   0.486   1.598   5.801 -0.5254 -1.4287  0.4799
  325MOL0     N43791   0.992   1.390   5.262 -0.6475  0.2706 -0.6590
  325MOL0     N43792   0.951   1.309   5.169 -1.2060 -0.7293 -0.0905
  325MOL0     C43793   1.788   0.577   5.713 -0.3724  0.3258 -0.0047
  325MOL0     C43794   1.920   0.558   5.750  0.5949 -0.1869 -0.4422
  325MOL0     C43795   2.375   0.505   5.636 -0.1054 -0.1398 -1.1302
  325MOL0     C43796   2.488   0.498   5.550  0.2333 -0.4318 -0.1183
  325MOL0     C43797   2.620   0.478   5.596 -0.1327 -0.5828 -0.4220
  325MOL0     C43798   2.641   0.462   5.733  0.4335 -0.5810 -0.4317
  325MOL0     O43799   2.774   0.450   5.778  0.0304 -0.2547  0.0795
  325MOL0     C43800   2.799   0.422   5.917  0.3863  0.4614 -0.2735
  325MOL0     C43801   2.938   0.365   5.913 -0.2227  0.7947  0.2546
  325MOL0     C43802   2.938   0.223   5.849 -0.2412  0.0379  0.4469
  325MOL0     C43803   3.065   0.154   5.847  0.6322 -0.1193  0.7369
  325MOL0     C43804   3.168   0.236   5.770 -0.3360  0.4185 -0.3220
  325MOL0     C43805   3.251   0.288   5.700 -0.3052  0.4078 -0.6128
  325MOL0     C43806   2.528   0.472   5.822 -0.9969  0.0973 -0.6110
  325MOL0     C43807   2.402   0.495   5.771 -0.3569 -0.1195 -0.5210
  325MOL0     H43808   2.026   0.388   5.481  1.3378  0.3735  0.2788
  325MOL0     H43809   1.798   0.416   5.419  0.0704  1.2405 -1.1159
  325MOL0     H43810   1.527   0.648   5.716  1.4680  1.9919  0.4480
  325MOL0     H43811   1.598   0.754   5.604 -1.0977  0.9936  1.5630
  325MOL0     H43812   1.341   0.615   5.556 -0.5502  0.9526  3.2675
  325MOL0     H43813   1.362   0.773   5.619 -0.6523  0.9200 -0.9730
  325MOL0     H43814   1.447   0.861   5.400  3.3450 -0.8101 -0.8899
  325MOL0     H43815   1.451   0.687   5.345 -2.2356 -2.1263  0.6330
  325MOL0     H43816   1.202   0.687   5.360 -0.6295  0.4040 -3.7042
  325MOL0     H43817   1.215   0.842   5.456  1.1665 -1.1000  2.2872
  325MOL0     H43818   1.285   0.941   5.228 -0.3558 -0.8487  0.3990
  325MOL0     H43819   1.251   0.798   5.148 -0.6224  0.7782 -1.1055
  325MOL0     H43820   1.014   0.806   5.266 -0.0057  0.5204  1.7029
  325MOL0     H43821   1.061   0.963   5.330 -1.2328  0.9705 -0.9182
  325MOL0     H43822   1.098   1.027   5.069 -0.0506 -1.3202 -2.0156
  325MOL0     H43823   0.986   0.898   5.050 -1.7083 -0.5203  1.2317
  325MOL0     H43824   0.834   1.004   5.224 -0.9589 -0.9097 -2.3123
  325MOL0     H43825   0.847   1.074   5.066 -3.1814 -0.0347  0.8314
  325MOL0     H43826   0.966   1.125   5.444  0.1180 -2.4021 -0.8681
  325MOL0     H43827   1.030   1.316   5.589 -0.9015 -0.8832 -0.4896
  325MOL0     H43828   1.121   1.449   5.515 -2.4265  2.4544  1.7001
  325MOL0     H43829   0.831   1.442   5.557  1.0062 -1.5122 -5.4496
  325MOL0     H43830   0.913   1.574   5.482  0.0433  0.5116  1.0481
  325MOL0     H43831   1.056   1.611   5.672 -1.9278  2.3193 -2.2222
  325MOL0     H43832   0.974   1.467   5.762 -2.8309 -0.6157 -0.3960
  325MOL0     H43833   0.826   1.727   5.693 -0.4569 -0.6423  0.0879
  325MOL0     H43834   0.888   1.672   5.849 -2.2643  3.5103  0.6520
  325MOL0     H43835   0.731   1.810   5.884 -0.8506  2.1114  2.6362
  325MOL0     H43836   0.517   1.964   6.097  1.8842 -0.2968  1.2205
  325MOL0     H43837   0.672   1.971   6.018 -0.1285 -1.4200 -0.4094
  325MOL0     H43838   0.529   2.046   5.933  1.5569  2.3088  1.2195
  325MOL0     H43839  -0.042   1.697   5.981  3.9882 -0.7295  0.6796
  325MOL0     H43840  -0.270   1.768   6.089 -0.1008  0.0997 -3.8349
  325MOL0     H43841  -0.234   1.928   6.471  0.8953 -0.4368 -0.8070
  325MOL0     H43842  -0.248   2.087   6.393  0.4687 -0.4744  3.1602
  325MOL0     H43843  -0.475   1.916   6.498 -1.7318  0.6313 -1.3294
  325MOL0     H43844  -0.434   2.089   6.523 -0.2181 -1.2944  0.2939
  325MOL0     H43845  -0.538   1.948   6.273  0.0533 -2.1086  1.9487
  325MOL0     H43846  -0.512   2.139   6.305  1.1750  0.4276  2.6078
  325MOL0     H43847  -0.704   1.947   6.443  2.5066 -0.2481 -0.3835
  325MOL0     H43848  -0.690   2.114   6.483 -1.2911 -0.7953  0.0932
  325MOL0     H43849  -0.775   2.008   6.211 -0.8947 -2.7932  1.3831
  325MOL0     H43850  -0.767   2.178   6.249 -0.3133  0.5569  1.2425
  325MOL0     H43851  -0.932   1.965   6.407 -1.0875 -0.3807 -1.4592
  325MOL0     H43852  -0.937   2.133   6.433 -2.2027 -0.6945 -0.0796
  325MOL0     H43853  -1.030   2.042   6.158 -1.4053 -1.9464 -0.0046
  325MOL0     H43854  -1.042   2.196   6.233 -2.1260 -0.5139 -1.9709
  325MOL0     H43855  -1.165   1.953   6.378 -1.6130  0.2051 -0.2009
  325MOL0     H43856  -1.244   2.051   6.254  2.1603 -2.7185 -3.1359
  325MOL0     H43857  -0.054   2.038   6.335  1.6543  0.5912 -0.2884
  325MOL0     H43858   0.163   1.979   6.223 -1.0847 -0.0970  3.4786
  325MOL0     H43859   0.283   1.636   5.847  0.5076 -1.0100 -0.2541
  325MOL0     H43860   0.457   1.499   5.768  0.2820 -1.2331 -0.9142
  325MOL0     H43861   1.722   0.635   5.777  0.2372  1.1775 -0.1362
  325MOL0     H43862   1.937   0.602   5.847 -2.1774  1.9753 -0.8190
  325MOL0     H43863   2.464   0.506   5.444  0.8980  3.8821 -0.1226
  325MOL0     H43864   2.699   0.457   5.525  0.8214 -2.0605  1.0220
  325MOL0     H43865   2.781   0.515   5.971 -2.9736  1.6744 -3.0571
  325MOL0     H43866   2.723   0.353   5.958  0.4233 -1.6956 -3.4449
  325MOL0     H43867   2.975   0.349   6.014 -0.7137 -1.7179  0.0986
  325MOL0     H43868   2.997   0.434   5.852  0.4468  0.5891  0.6540
  325MOL0     H43869   2.908   0.235   5.744  3.4700  1.8787 -0.5870
  325MOL0     H43870   2.866   0.163   5.905 -0.0580  1.3014  2.0845
  325MOL0     H43871   3.050   0.056   5.801 -1.7203  0.6409 -0.2388
  325MOL0     H43872   3.103   0.135   5.948  0.9518  0.7067  0.7781
  325MOL0     H43873   3.327   0.344   5.650 -1.0601  0.7942 -1.3529
  325MOL0     H43874   2.537   0.478   5.930  2.0024  0.3504 -0.7922
  325MOL0     H43875   2.332   0.486   5.854  1.6707 -0.8056  1.1896
  326MOL0     O43876   6.580  11.001   0.368  0.4739 -0.0824 -0.4447
  326MOL0     C43877   6.588  10.881   0.358 -0.5067 -0.2140  1.1925
  326MOL0     O43878   6.494  10.793   0.372  0.0360  1.2277 -0.5068
  326MOL0     C43879   6.370  10.834   0.410 -0.2928  0.6798  0.6841
  326MOL0     C43880   6.321  10.832   0.538 -0.0667  0.4262 -0.1513
  326MOL0     C43881   6.189  10.871   0.562  0.2157 -0.1566  0.5231
  326MOL0     C43882   6.097  10.904   0.457  0.5604 -0.2027  0.2528
  326MOL0     O43883   5.967  10.939   0.472 -0.4507 -0.4749  0.1168
  326MOL0     C43884   5.912  10.965   0.603 -0.6969 -0.5599 -0.2844
  326MOL0     C43885   5.774  11.037   0.595  0.5228  0.5297  0.5857
  326MOL0     C43886   5.661  10.932   0.536 -0.8045  0.6902 -0.0325
  326MOL0     C43887   5.652  10.942   0.390  0.1357  0.1224 -0.2789
  326MOL0     C43888   5.558  10.827   0.344  0.0624 -0.2847  0.1611
  326MOL0     C43889   5.559  10.810   0.188  0.4259 -0.1103 -0.2437
  326MOL0     C43890   5.441  10.715   0.150 -0.0987 -0.2119  0.0064
  326MOL0     C43891   5.433  10.675  -0.004 -1.1860 -0.1653  0.0114
  326MOL0     N43892   5.372  10.788  -0.079 -0.2701  0.1232 -0.5897
  326MOL0     C43893   5.241  10.806  -0.089  0.0159 -0.1656 -0.0424
  326MOL0     C43894   5.225  10.929  -0.147  0.6134  0.9551  0.4764
  326MOL0     C43895   5.098  11.014  -0.168  0.8476 -0.3810 -0.6511
  326MOL0     C43896   5.015  10.998  -0.295  0.6340  0.8628  0.6744
  326MOL0     C43897   4.944  11.129  -0.343 -0.0712  0.8083  0.3494
  326MOL0     C43898   4.821  11.174  -0.265 -0.3484 -0.0973 -0.0692
  326MOL0     O43899   4.730  11.066  -0.285 -0.0491 -0.0954  0.0730
  326MOL0     C43900   4.599  11.079  -0.231 -0.6269 -0.1303 -0.4564
  326MOL0     C43901   4.518  10.969  -0.253 -0.3994  0.7521 -0.2622
  326MOL0     C43902   4.389  10.956  -0.207 -0.0390  0.6290  0.2578
  326MOL0     C43903   4.326  10.818  -0.211  0.3619  0.1496 -0.1662
  326MOL0     C43904   4.333  11.069  -0.150 -0.5647  0.3318 -1.2157
  326MOL0     C43905   4.195  11.073  -0.102  0.8554 -0.1824 -0.5403
  326MOL0     O43906   4.184  11.157   0.012 -0.7731  0.9982 -0.4247
  326MOL0     C43907   4.062  11.192   0.058 -0.1531  1.1839 -0.1432
  326MOL0     C43908   3.965  11.095   0.105 -0.1077  0.5522  0.2821
  326MOL0     C43909   3.843  11.128   0.157  0.3466  0.8647  0.0160
  326MOL0     C43910   3.814  11.262   0.171 -0.8753 -0.4375 -0.0524
  326MOL0     O43911   3.687  11.288   0.212  0.3422  0.3230  0.7501
  326MOL0     C43912   3.632  11.422   0.225  0.6885  0.9092 -0.6447
  326MOL0     C43913   3.482  11.434   0.258 -0.4946  0.1828  0.5855
  326MOL0     C43914   3.421  11.575   0.275  0.6122  0.0556  0.5387
  326MOL0     C43915   3.273  11.554   0.286  0.2787 -0.6061  0.4985
  326MOL0     C43916   3.197  11.678   0.336  0.0447 -0.4674 -0.6998
  326MOL0     C43917   3.054  11.640   0.355  0.4576  0.2193 -0.2508
  326MOL0     C43918   2.983  11.769   0.406  0.0738  0.1594  0.8148
  326MOL0     C43919   2.842  11.750   0.464  0.2837 -0.1722  0.6941
  326MOL0    Cl43920   2.760  11.907   0.485 -0.6572 -0.4259  0.1559
  326MOL0     C43921   3.909  11.360   0.130  0.9796 -0.0721  0.1836
  326MOL0     C43922   4.029  11.321   0.084 -0.1591  0.0044  0.0508
  326MOL0     O43923   4.104  11.003  -0.148 -0.8870  0.2188  0.4178
  326MOL0     C43924   4.416  11.187  -0.125  0.5081  1.2143 -0.1713
  326MOL0     C43925   4.549  11.194  -0.156 -0.1963  0.8692  0.9125
  326MOL0     N43926   5.348  10.983  -0.176 -0.1049  0.3497 -0.1609
  326MOL0     N43927   5.437  10.892  -0.140  0.0737 -0.4375  0.1836
  326MOL0     C43928   6.147  10.911   0.333 -1.1870 -0.7121  0.0139
  326MOL0     C43929   6.284  10.883   0.313  0.2219  0.0819 -0.2025
  326MOL0     C43930   6.725  10.825   0.327  0.1226 -0.8536 -0.6833
  326MOL0     C43931   6.822  10.913   0.274  0.8475  0.1445  0.3473
  326MOL0     C43932   6.943  10.862   0.251 -0.4597  0.1474  0.2610
  326MOL0     C43933   6.981  10.737   0.303 -0.6744 -0.0790  0.3433
  326MOL0     O43934   7.112  10.684   0.302 -0.1175 -0.1664  0.3837
  326MOL0     C43935   7.212  10.745   0.218  0.3996  0.3615  0.3535
  326MOL0     C43936   7.337  10.660   0.195 -0.2052 -0.2131  0.4917
  326MOL0     C43937   7.433  10.729   0.094 -0.6595 -0.6642 -0.7569
  326MOL0     C43938   7.562  10.659   0.088 -0.0436  0.5532  0.0099
  326MOL0     C43939   7.644  10.664   0.212 -0.3319 -0.3275  0.0670
  326MOL0     C43940   7.697  10.661   0.319  0.1706  0.2118  0.6470
  326MOL0     C43941   6.883  10.644   0.340  0.0151 -0.2010  0.5722
  326MOL0     C43942   6.753  10.687   0.343  0.2823  0.1424  0.2012
  326MOL0     H43943   6.378  10.805   0.626  1.8259  1.8219 -0.8956
  326MOL0     H43944   6.158  10.858   0.665 -0.8812 -2.5147 -0.0262
  326MOL0     H43945   5.904  10.869   0.654 -0.7031  0.2405  1.2829
  326MOL0     H43946   5.984  11.025   0.659 -2.5124  1.0811  0.4272
  326MOL0     H43947   5.750  11.076   0.694  0.0830  4.3848 -0.8602
  326MOL0     H43948   5.781  11.117   0.520  2.3744 -1.3829 -1.4248
  326MOL0     H43949   5.687  10.829   0.565  0.6866  1.3797  1.2272
  326MOL0     H43950   5.561  10.948   0.577 -0.4114 -2.0367  2.3496
  326MOL0     H43951   5.624  11.048   0.379  2.0719  0.7952  0.6718
  326MOL0     H43952   5.750  10.934   0.342  0.6446  0.2027  0.7210
  326MOL0     H43953   5.588  10.734   0.392  1.8863  0.7888  1.2101
  326MOL0     H43954   5.461  10.845   0.392  0.0834  0.5596 -0.0936
  326MOL0     H43955   5.551  10.905   0.135  0.9362 -0.4401 -0.9314
  326MOL0     H43956   5.657  10.764   0.171  0.4500 -0.6896  1.3169
  326MOL0     H43957   5.456  10.621   0.204 -0.5903 -0.0861  0.3702
  326MOL0     H43958   5.351  10.770   0.179  1.3868  0.8044  3.0045
  326MOL0     H43959   5.377  10.581  -0.009  1.4634 -1.8060 -0.7288
  326MOL0     H43960   5.532  10.663  -0.048 -1.0048 -0.7982  0.5712
  326MOL0     H43961   5.173  10.731  -0.050  1.4460 -0.9351  1.0796
  326MOL0     H43962   5.038  10.988  -0.081 -1.0773 -1.3151 -2.1838
  326MOL0     H43963   5.116  11.121  -0.158 -0.5438 -0.3464  2.6067
  326MOL0     H43964   4.945  10.914  -0.286 -0.9651  1.6983 -2.6538
  326MOL0     H43965   5.089  10.963  -0.368  1.7020  2.7695  0.7977
  326MOL0     H43966   4.921  11.125  -0.450 -0.9079  2.2873  0.4394
  326MOL0     H43967   5.015  11.209  -0.322 -0.2476  0.6019  1.8144
  326MOL0     H43968   4.795  11.273  -0.304  2.6535  2.8434  4.4138
  326MOL0     H43969   4.843  11.176  -0.158 -2.8830  1.5909  0.4936
  326MOL0     H43970   4.560  10.886  -0.309 -0.8680 -1.6909  2.7247
  326MOL0     H43971   4.395  10.740  -0.245  0.0290  0.5128 -1.7967
  326MOL0     H43972   4.292  10.782  -0.114 -1.2211  0.9091 -0.4048
  326MOL0     H43973   4.249  10.825  -0.289  1.6981  1.0540 -1.4756
  326MOL0     H43974   3.980  10.993   0.072 -1.8147  0.3944 -0.0829
  326MOL0     H43975   3.770  11.047   0.159  1.1913  0.0765 -0.2376
  326MOL0     H43976   3.684  11.477   0.304 -1.3433 -0.7150  1.9839
  326MOL0     H43977   3.643  11.477   0.131 -0.4161 -0.2152 -1.4639
  326MOL0     H43978   3.434  11.377   0.179  2.1463 -2.8469  0.9314
  326MOL0     H43979   3.471  11.371   0.347 -0.0182 -0.1058  0.4415
  326MOL0     H43980   3.460  11.652   0.208 -0.5624  1.9628  1.9637
  326MOL0     H43981   3.455  11.608   0.373  1.0750 -0.8169  0.6829
  326MOL0     H43982   3.221  11.519   0.197 -0.1077 -1.6567  1.1192
  326MOL0     H43983   3.254  11.465   0.346 -1.7756 -1.4040 -1.2213
  326MOL0     H43984   3.200  11.765   0.269  0.9300 -1.7268 -2.3933
  326MOL0     H43985   3.237  11.712   0.431 -0.6494  0.7509 -0.8223
  326MOL0     H43986   3.007  11.597   0.266  1.1746 -0.5576 -0.2621
  326MOL0     H43987   3.050  11.564   0.433  2.9083 -0.1279 -0.3962
  326MOL0     H43988   2.961  11.839   0.325  0.3904  1.1179  1.5382
  326MOL0     H43989   3.045  11.821   0.481 -0.6316  0.0083  1.5106
  326MOL0     H43990   2.858  11.694   0.556  0.1417  2.0364  2.1453
  326MOL0     H43991   2.777  11.696   0.396  1.0644  0.6621 -0.7789
  326MOL0     H43992   3.890  11.467   0.125 -0.0293 -0.1473  1.6727
  326MOL0     H43993   4.107  11.393   0.058 -0.6820  0.4854 -0.2200
  326MOL0     H43994   4.387  11.280  -0.078 -1.3361 -0.7193  2.8655
  326MOL0     H43995   4.604  11.287  -0.149  0.1322  0.8517 -0.8818
  326MOL0     H43996   6.087  10.945   0.249 -0.3786 -1.3438 -0.8375
  326MOL0     H43997   6.322  10.887   0.211  1.0436 -2.3326 -0.0504
  326MOL0     H43998   6.785  11.010   0.244  0.9885 -0.5468 -2.3437
  326MOL0     H43999   7.009  10.938   0.210 -0.6308 -0.7003 -1.7154
  326MOL0     H44000   7.168  10.769   0.121 -1.8257 -0.5388  1.0896
  326MOL0     H44001   7.233  10.838   0.273  0.3838 -0.9018  2.6010
  326MOL0     H44002   7.317  10.554   0.175 -0.5984 -0.6316  2.7852
  326MOL0     H44003   7.385  10.653   0.293  3.3723  1.0628 -0.9849
  326MOL0     H44004   7.450  10.827   0.138 -0.2961 -1.4076  0.8292
  326MOL0     H44005   7.380  10.738  -0.001 -1.2182  0.7000 -0.3435
  326MOL0     H44006   7.617  10.692  -0.001 -1.6499 -0.1454 -1.2875
  326MOL0     H44007   7.532  10.554   0.081  1.3472  0.1240  0.0921
  326MOL0     H44008   7.737  10.670   0.418  1.9829 -1.2162  0.1159
  326MOL0     H44009   6.904  10.543   0.374 -0.9573 -1.0202 -1.1127
  326MOL0     H44010   6.675  10.618   0.372 -0.2572  0.1462 -1.1590
  327MOL0     O44011   3.151   4.379   0.142  0.3192  0.6594  0.0929
  327MOL0     C44012   3.234   4.428   0.063  0.4682 -0.2158 -0.2817
  327MOL0     O44013   3.201   4.496  -0.053 -0.2793  0.1583 -0.8596
  327MOL0     C44014   3.067   4.489  -0.084  0.3336  0.7014 -0.0627
  327MOL0     C44015   3.015   4.420  -0.192  0.0021  0.2238  0.6234
  327MOL0     C44016   2.882   4.452  -0.232  0.4971  0.5605  0.3108
  327MOL0     C44017   2.794   4.524  -0.150  0.8040  0.4808 -0.3542
  327MOL0     O44018   2.657   4.531  -0.189  0.1899 -1.2532  0.7327
  327MOL0     C44019   2.563   4.574  -0.097 -0.2872  0.4151  0.0506
  327MOL0     C44020   2.425   4.557  -0.159  0.3068  0.1742 -0.1430
  327MOL0     C44021   2.305   4.534  -0.064 -0.1270 -0.4340 -0.0904
  327MOL0     C44022   2.322   4.405   0.019  0.2827 -0.0300  0.2936
  327MOL0     C44023   2.190   4.341   0.077 -0.2457 -0.4822  0.5234
  327MOL0     C44024   2.136   4.254  -0.042 -0.6300 -0.0111 -0.2085
  327MOL0     C44025   2.021   4.176   0.010 -0.1877 -0.0180  0.7878
  327MOL0     C44026   1.980   4.085  -0.101  0.0609  0.8889 -0.3337
  327MOL0     N44027   1.885   3.978  -0.054 -0.1986  0.4462 -0.1907
  327MOL0     C44028   1.752   3.991  -0.039 -0.0225  0.3139  0.4871
  327MOL0     C44029   1.703   3.866  -0.018 -0.2414 -0.4121  0.7250
  327MOL0     C44030   1.559   3.821  -0.039 -0.9519 -0.3174  0.3817
  327MOL0     C44031   1.455   3.905   0.033  0.0791 -0.8445  0.1068
  327MOL0     C44032   1.318   3.844   0.015 -0.2025 -0.1602  0.2503
  327MOL0     C44033   1.208   3.950  -0.006  0.3476 -0.2193  1.2899
  327MOL0     O44034   1.087   3.878   0.004  0.5634  0.3042  0.2979
  327MOL0     C44035   0.967   3.940   0.015  0.4480  0.7618 -0.0474
  327MOL0     C44036   0.952   4.077   0.009  0.2018  0.2437 -0.2450
  327MOL0     C44037   0.824   4.139   0.005 -0.1467  0.0112  0.5389
  327MOL0     C44038   0.829   4.291  -0.018  0.2947  0.2164 -1.1188
  327MOL0     C44039   0.703   4.072   0.034 -0.8087  0.4418 -0.2554
  327MOL0     C44040   0.562   4.122   0.021 -0.3070 -0.7084 -0.2355
  327MOL0     O44041   0.553   4.256   0.061  0.1095 -0.1547  0.6981
  327MOL0     C44042   0.433   4.318   0.063  0.1372 -0.3399 -0.5198
  327MOL0     C44043   0.317   4.255   0.117  0.3696  0.0910 -0.9439
  327MOL0     C44044   0.195   4.307   0.094  0.6484 -0.5502  0.8263
  327MOL0     C44045   0.186   4.438   0.024  0.2250 -0.2437 -0.0058
  327MOL0     O44046   0.072   4.516   0.000 -0.2841  0.3164 -0.3837
  327MOL0     C44047  -0.034   4.420  -0.010 -0.0301 -0.2353 -0.6437
  327MOL0     C44048  -0.161   4.500  -0.057  0.5042 -0.3347 -0.5646
  327MOL0     C44049  -0.146   4.566  -0.193 -0.6260  0.0296  0.2073
  327MOL0     C44050  -0.274   4.563  -0.290 -0.2919 -0.1017  0.0696
  327MOL0     C44051  -0.303   4.424  -0.338 -0.3261 -0.3833  0.1536
  327MOL0     C44052  -0.392   4.415  -0.467 -1.5382 -0.4072  0.8397
  327MOL0     C44053  -0.516   4.496  -0.457 -0.0964 -0.4557  0.0515
  327MOL0     C44054  -0.606   4.496  -0.584  0.0085 -0.0541  0.1055
  327MOL0    Cl44055  -0.526   4.582  -0.712 -0.1965 -0.0673 -0.1584
  327MOL0     C44056   0.306   4.504  -0.015  0.7576 -0.0554 -0.4165
  327MOL0     C44057   0.429   4.447  -0.003 -0.0701  0.8816 -0.3124
  327MOL0     O44058   0.473   4.050  -0.028 -0.0403 -0.0729 -0.2889
  327MOL0     C44059   0.720   3.929   0.042  0.0714 -0.7058 -0.2063
  327MOL0     C44060   0.846   3.864   0.024  0.2231 -1.3016 -0.2000
  327MOL0     N44061   1.813   3.778  -0.016  0.4751 -0.6148  0.1397
  327MOL0     N44062   1.913   3.848  -0.027 -0.3274 -0.2085 -0.1582
  327MOL0     C44063   2.856   4.585  -0.037  0.6574  0.0991  0.5115
  327MOL0     C44064   2.990   4.573  -0.014 -0.2210  0.3491 -0.7191
  327MOL0     C44065   3.374   4.415   0.098  0.8505 -0.5284  0.4991
  327MOL0     C44066   3.459   4.419  -0.011 -1.0988 -0.5884  0.2045
  327MOL0     C44067   3.592   4.427   0.016 -0.2622  0.1733 -0.3441
  327MOL0     C44068   3.650   4.432   0.145 -0.5949 -0.2185 -0.2169
  327MOL0     O44069   3.783   4.460   0.168 -0.1149 -0.1939  0.0381
  327MOL0     C44070   3.877   4.485   0.064 -0.6858 -0.0085  0.4148
  327MOL0     C44071   4.022   4.494   0.117  0.0179  0.0976  0.4559
  327MOL0     C44072   4.097   4.359   0.146  0.3122 -0.8235 -0.0188
  327MOL0     C44073   4.008   4.283   0.255 -0.2174 -0.1100 -0.3229
  327MOL0     C44074   4.082   4.165   0.308 -0.8742  0.2600  0.4517
  327MOL0     C44075   4.132   4.052   0.337  0.4458 -0.5482  0.2743
  327MOL0     C44076   3.558   4.414   0.255 -0.3597  0.1883  0.5902
  327MOL0     C44077   3.420   4.406   0.232 -0.2372 -0.4349  0.0724
  327MOL0     H44078   3.090   4.371  -0.254  0.4176  3.1379 -1.3922
  327MOL0     H44079   2.839   4.417  -0.326  2.3130  2.0988 -1.1745
  327MOL0     H44080   2.575   4.524   0.000 -0.1401 -2.3449 -1.2906
  327MOL0     H44081   2.566   4.682  -0.081 -0.9205  0.4321  0.0929
  327MOL0     H44082   2.414   4.643  -0.226 -1.1148 -1.5073 -2.2116
  327MOL0     H44083   2.427   4.465  -0.219 -2.7746 -0.1076  0.0116
  327MOL0     H44084   2.296   4.619   0.004 -0.7644  0.4173 -1.1938
  327MOL0     H44085   2.219   4.523  -0.131  1.9594  1.5679 -3.3751
  327MOL0     H44086   2.380   4.327  -0.031 -0.6278  0.7284 -2.0999
  327MOL0     H44087   2.367   4.443   0.111  0.0976  0.6670  0.0976
  327MOL0     H44088   2.196   4.274   0.164  0.7151 -0.4609  0.4780
  327MOL0     H44089   2.116   4.417   0.102 -1.3749 -1.4305  0.1962
  327MOL0     H44090   2.098   4.315  -0.124  0.1342  2.3851  1.1396
  327MOL0     H44091   2.218   4.197  -0.087 -0.9440 -1.8612  1.4257
  327MOL0     H44092   2.045   4.128   0.105 -0.3897 -0.7634  0.4761
  327MOL0     H44093   1.951   4.255   0.038  1.2853  1.6878 -0.1343
  327MOL0     H44094   2.072   4.041  -0.141 -1.5194 -1.8417 -1.2525
  327MOL0     H44095   1.941   4.141  -0.186 -0.7909  1.0546  0.1585
  327MOL0     H44096   1.687   4.078  -0.036 -0.6459  0.0592 -2.4940
  327MOL0     H44097   1.556   3.828  -0.148  1.5494 -4.5178 -0.1759
  327MOL0     H44098   1.554   3.716  -0.008  0.0153  0.4426  3.3877
  327MOL0     H44099   1.453   4.005  -0.011 -0.8919 -1.7440 -2.0398
  327MOL0     H44100   1.479   3.916   0.139 -0.4728  4.1754 -0.0393
  327MOL0     H44101   1.300   3.779   0.101  1.9770 -2.6681 -1.0415
  327MOL0     H44102   1.330   3.789  -0.079  4.3012 -0.8669  1.0232
  327MOL0     H44103   1.209   4.006  -0.099  0.6244 -2.0782  0.1200
  327MOL0     H44104   1.222   4.018   0.078 -2.7887  1.6224  0.4802
  327MOL0     H44105   1.037   4.141  -0.012  0.0951  0.5947  0.3665
  327MOL0     H44106   0.825   4.349   0.075 -0.2544 -1.8545  0.2347
  327MOL0     H44107   0.917   4.323  -0.074 -1.9225  3.5727 -3.0097
  327MOL0     H44108   0.743   4.325  -0.076 -0.2407  0.8496  0.0101
  327MOL0     H44109   0.324   4.161   0.171 -2.9939 -0.4504 -1.1782
  327MOL0     H44110   0.106   4.251   0.120 -0.9727  0.9743 -1.0590
  327MOL0     H44111  -0.032   4.342  -0.087 -2.1472 -1.0138 -0.0028
  327MOL0     H44112  -0.067   4.386   0.089 -1.1999  0.2183 -0.8636
  327MOL0     H44113  -0.249   4.435  -0.061 -3.5410  4.2449  2.3567
  327MOL0     H44114  -0.178   4.580   0.015 -1.1338  1.5937 -2.9054
  327MOL0     H44115  -0.052   4.532  -0.237  0.3107  1.6358  0.8678
  327MOL0     H44116  -0.130   4.672  -0.170  3.3136 -0.0297 -1.5061
  327MOL0     H44117  -0.357   4.598  -0.229 -0.2384 -0.9497  0.6365
  327MOL0     H44118  -0.250   4.637  -0.367 -1.0663  1.5125  1.3197
  327MOL0     H44119  -0.345   4.369  -0.252  3.1992 -0.3099  2.0791
  327MOL0     H44120  -0.206   4.383  -0.366 -0.7288  0.2684 -2.4942
  327MOL0     H44121  -0.343   4.475  -0.545 -2.4889  3.5271  3.0041
  327MOL0     H44122  -0.395   4.312  -0.502  1.5163  0.1895 -1.6936
  327MOL0     H44123  -0.486   4.597  -0.429 -1.5636 -0.2483  1.0457
  327MOL0     H44124  -0.575   4.456  -0.374 -3.2186 -0.4883 -2.0049
  327MOL0     H44125  -0.698   4.552  -0.568 -1.2203 -2.0598  0.5247
  327MOL0     H44126  -0.640   4.400  -0.626 -1.7488 -0.3922  2.1145
  327MOL0     H44127   0.299   4.596  -0.072 -1.7513  0.3081  0.3282
  327MOL0     H44128   0.529   4.469  -0.040  0.3534 -2.0793 -1.2101
  327MOL0     H44129   0.632   3.866   0.046  1.8591 -3.3229  1.1172
  327MOL0     H44130   0.851   3.756   0.033 -0.6480 -1.1885  2.7635
  327MOL0     H44131   2.791   4.656   0.012 -3.5981 -2.4755 -0.8821
  327MOL0     H44132   3.038   4.626   0.068  1.3706 -0.2524 -1.2359
  327MOL0     H44133   3.438   4.421  -0.117  2.2208 -0.4088 -0.5544
  327MOL0     H44134   3.656   4.421  -0.072  0.2701 -1.1981  0.1086
  327MOL0     H44135   3.873   4.408  -0.013 -0.8778  2.3831 -2.1122
  327MOL0     H44136   3.851   4.578   0.013  0.4930 -0.7746 -1.6812
  327MOL0     H44137   4.021   4.558   0.206 -0.9824 -1.3887  1.5677
  327MOL0     H44138   4.080   4.538   0.036 -0.8209 -2.9101 -1.9582
  327MOL0     H44139   4.195   4.373   0.192  0.5769 -2.6712  0.0571
  327MOL0     H44140   4.114   4.304   0.053  0.0054  0.4244 -0.8349
  327MOL0     H44141   3.919   4.243   0.205 -0.3010  2.2438 -2.2416
  327MOL0     H44142   3.970   4.347   0.335 -0.6807 -0.9728  0.1692
  327MOL0     H44143   4.185   3.967   0.374  0.3759  0.5801  3.2471
  327MOL0     H44144   3.581   4.425   0.361 -1.6032  3.3941  0.6175
  327MOL0     H44145   3.354   4.409   0.318 -0.5897  1.3260 -0.2226
  328MOL0     O44146   6.127   2.991   5.990  0.0650  0.0898  0.4207
  328MOL0     C44147   6.125   3.114   5.983 -0.5628 -1.0654 -0.1207
  328MOL0     O44148   6.025   3.186   5.921  0.1214 -0.3540 -0.5003
  328MOL0     C44149   5.916   3.124   5.869  0.5135  0.1407 -0.1412
  328MOL0     C44150   5.883   3.144   5.729  0.0170  1.0002  0.1952
  328MOL0     C44151   5.768   3.088   5.675 -0.7377  0.1829 -0.3143
  328MOL0     C44152   5.691   2.991   5.738 -0.5319 -0.4479 -0.8467
  328MOL0     O44153   5.580   2.934   5.685 -0.1249 -0.1731 -0.3798
  328MOL0     C44154   5.548   2.933   5.540 -0.0660 -0.3140 -0.7444
  328MOL0     C44155   5.431   3.029   5.504  0.0591 -0.2161 -0.1502
  328MOL0     C44156   5.435   3.073   5.357  0.5358 -0.7091  0.4035
  328MOL0     C44157   5.296   3.100   5.289  0.1604  0.2581 -0.5215
  328MOL0     C44158   5.221   2.965   5.253  0.5437  0.7979  1.1794
  328MOL0     C44159   5.088   3.000   5.180 -0.5543 -0.7601 -0.1997
  328MOL0     C44160   4.983   3.079   5.263  0.0320 -0.4637 -0.3149
  328MOL0     C44161   4.849   3.119   5.184 -0.6651  0.1448 -0.1257
  328MOL0     N44162   4.737   3.028   5.216  0.3131 -0.6370 -0.7174
  328MOL0     C44163   4.726   2.896   5.185 -0.1133  0.4944 -0.0078
  328MOL0     C44164   4.631   2.848   5.270 -0.6573 -1.1657  0.2923
  328MOL0     C44165   4.580   2.707   5.271 -0.2925  0.7196  0.4195
  328MOL0     C44166   4.481   2.689   5.165  0.0134  0.2574  0.6392
  328MOL0     C44167   4.430   2.548   5.144  0.1182  0.9207 -0.5721
  328MOL0     C44168   4.282   2.541   5.187 -0.0824 -0.4025  0.0288
  328MOL0     O44169   4.208   2.639   5.106 -0.7838  0.0298 -0.5004
  328MOL0     C44170   4.084   2.674   5.127  0.7101  0.0814  0.0706
  328MOL0     C44171   4.011   2.662   5.248 -0.3715  0.0952  0.0748
  328MOL0     C44172   3.881   2.708   5.263 -0.0286 -0.6780 -0.9555
  328MOL0     C44173   3.814   2.661   5.391 -0.5999  0.0109  0.6668
  328MOL0     C44174   3.828   2.787   5.163  0.9513  0.0659 -0.5010
  328MOL0     C44175   3.690   2.834   5.169 -0.4965  0.1718 -0.4017
  328MOL0     O44176   3.621   2.840   5.055  0.3569  0.0025  0.3580
  328MOL0     C44177   3.485   2.823   5.053  0.4779  0.1813 -0.4314
  328MOL0     C44178   3.411   2.748   5.143  1.2405 -0.0056 -0.3208
  328MOL0     C44179   3.269   2.732   5.133 -0.8523 -0.0168 -0.0058
  328MOL0     C44180   3.209   2.779   5.016 -0.8935  0.9448  0.0483
  328MOL0     O44181   3.073   2.758   4.995  0.3553  0.0701  0.8865
  328MOL0     C44182   2.986   2.741   5.108  0.0708  0.0664  0.6187
  328MOL0     C44183   2.962   2.594   5.155 -0.1892  0.0654  0.5894
  328MOL0     C44184   2.897   2.513   5.043 -0.6965  0.2825  0.5468
  328MOL0     C44185   2.816   2.386   5.089  0.0171 -0.1968 -0.2828
  328MOL0     C44186   2.763   2.309   4.965  0.4682 -0.0296 -0.0504
  328MOL0     C44187   2.689   2.180   5.000  0.3084  0.3640 -0.3165
  328MOL0     C44188   2.656   2.090   4.879  0.0844 -0.5587  0.6957
  328MOL0     C44189   2.535   1.990   4.896 -0.3654  0.4047  0.5206
  328MOL0    Cl44190   2.590   1.857   4.994  0.1053  0.3110 -0.1246
  328MOL0     C44191   3.280   2.847   4.915  0.9743  0.3269 -0.4113
  328MOL0     C44192   3.417   2.880   4.942  0.5882 -1.0464 -0.0723
  328MOL0     O44193   3.641   2.856   5.285 -0.4164 -0.4806  0.2010
  328MOL0     C44194   3.907   2.817   5.052 -0.7908 -0.7182  0.8716
  328MOL0     C44195   4.030   2.757   5.034 -0.6087  0.4536  0.0766
  328MOL0     N44196   4.589   2.954   5.358  0.4318  0.8273 -0.4278
  328MOL0     N44197   4.667   3.053   5.330  0.1032 -0.4873  0.2541
  328MOL0     C44198   5.723   2.961   5.868 -0.9747 -0.2330  0.1752
  328MOL0     C44199   5.832   3.028   5.935 -0.0433  0.5105 -0.9025
  328MOL0     C44200   6.223   3.186   6.061  0.6006 -0.1392 -0.2366
  328MOL0     C44201   6.284   3.131   6.174  0.4594  0.2673 -0.4442
  328MOL0     C44202   6.387   3.195   6.240 -0.4968  0.3473 -0.2143
  328MOL0     C44203   6.407   3.330   6.223 -0.6543  0.4952  0.2705
  328MOL0     O44204   6.476   3.412   6.303 -0.1286 -0.0067 -0.0330
  328MOL0     C44205   6.588   3.351   6.370 -0.0302  0.1144 -0.2627
  328MOL0     C44206   6.677   3.467   6.424 -0.0370 -0.1472 -0.5133
  328MOL0     C44207   6.787   3.410   6.518 -0.1671 -0.9039  0.6100
  328MOL0     C44208   6.894   3.516   6.545  0.2749  0.0711 -0.4298
  328MOL0     C44209   7.005   3.453   6.616 -0.8017  0.1094 -0.8007
  328MOL0     C44210   7.089   3.390   6.667  0.5597 -0.3392  0.5138
  328MOL0     C44211   6.340   3.388   6.120  0.2512 -0.0581  0.3261
  328MOL0     C44212   6.242   3.322   6.041 -0.2766 -0.1007 -0.2595
  328MOL0     H44213   5.940   3.210   5.664  1.1909 -3.0429 -3.3579
  328MOL0     H44214   5.732   3.120   5.577  0.8780 -1.8208 -1.6614
  328MOL0     H44215   5.637   2.962   5.482  0.3178  3.8614  1.5045
  328MOL0     H44216   5.525   2.835   5.499  3.0491 -0.8955 -1.3396
  328MOL0     H44217   5.335   2.980   5.525  0.0836 -0.5574 -0.7982
  328MOL0     H44218   5.426   3.113   5.573 -1.8004 -0.1038 -0.3714
  328MOL0     H44219   5.491   3.166   5.358 -0.4781 -0.0772 -0.1952
  328MOL0     H44220   5.496   2.999   5.304  1.5589 -1.9753  3.1507
  328MOL0     H44221   5.236   3.156   5.360 -2.3698 -3.3657  0.4574
  328MOL0     H44222   5.303   3.162   5.199 -2.0848 -0.5124 -1.2758
  328MOL0     H44223   5.286   2.900   5.193 -0.3254 -1.1391  2.2375
  328MOL0     H44224   5.198   2.916   5.348 -0.0526  1.8063  1.5695
  328MOL0     H44225   5.111   3.052   5.087  2.1170  0.0463  0.8274
  328MOL0     H44226   5.040   2.905   5.153  1.6657 -2.4824  1.5535
  328MOL0     H44227   4.949   3.018   5.347 -2.1371 -1.0075 -1.5130
  328MOL0     H44228   5.034   3.171   5.292  0.4906 -1.6581  3.1454
  328MOL0     H44229   4.862   3.117   5.076 -0.9032 -0.0224 -0.1505
  328MOL0     H44230   4.821   3.221   5.212  1.1617  1.3420 -2.3210
  328MOL0     H44231   4.763   2.844   5.098  0.7613  1.8983 -0.5122
  328MOL0     H44232   4.666   2.641   5.253 -0.5232  1.2041 -3.0975
  328MOL0     H44233   4.538   2.680   5.369  0.7442 -0.5910  0.5471
  328MOL0     H44234   4.516   2.723   5.067 -3.4529 -1.6172 -1.4676
  328MOL0     H44235   4.395   2.750   5.195 -2.1329 -2.1326 -0.2791
  328MOL0     H44236   4.493   2.470   5.189  1.7672  1.6326 -1.5746
  328MOL0     H44237   4.424   2.528   5.037 -1.8401  0.3664 -0.3888
  328MOL0     H44238   4.292   2.571   5.292  1.9663 -1.5786  0.2277
  328MOL0     H44239   4.243   2.440   5.197  0.5700 -0.5764  0.9072
  328MOL0     H44240   4.059   2.613   5.333  1.8538  0.2255 -1.0428
  328MOL0     H44241   3.708   2.646   5.369 -0.8497  2.9690 -0.5535
  328MOL0     H44242   3.856   2.566   5.426 -0.9126 -0.6121 -0.5880
  328MOL0     H44243   3.819   2.742   5.464 -0.7399  0.5275  0.1172
  328MOL0     H44244   3.468   2.700   5.222  1.5219  1.7679  0.5951
  328MOL0     H44245   3.213   2.692   5.217 -3.5109  1.6443 -0.8689
  328MOL0     H44246   3.021   2.805   5.190 -1.9388  1.9249  0.1219
  328MOL0     H44247   2.890   2.782   5.077 -0.2862 -0.5726  0.8695
  328MOL0     H44248   3.052   2.543   5.191  0.4483  1.1691  0.6239
  328MOL0     H44249   2.886   2.602   5.233 -1.3460  1.2230 -0.6051
  328MOL0     H44250   2.977   2.475   4.979 -1.0148  1.1308 -0.3775
  328MOL0     H44251   2.833   2.573   4.978 -1.8102  1.9653  3.0328
  328MOL0     H44252   2.891   2.329   5.144  1.7987 -0.6059 -2.9308
  328MOL0     H44253   2.731   2.421   5.149  1.4449 -0.5239  2.0725
  328MOL0     H44254   2.851   2.270   4.914  1.9877  1.6275  1.1718
  328MOL0     H44255   2.692   2.366   4.906  0.6781 -1.3270 -1.6302
  328MOL0     H44256   2.751   2.119   5.067 -1.9254 -2.5870 -0.7086
  328MOL0     H44257   2.599   2.200   5.058 -0.3629 -0.2372 -1.1253
  328MOL0     H44258   2.749   2.041   4.850 -1.5350 -3.7500  0.4972
  328MOL0     H44259   2.631   2.158   4.798 -1.2780  1.4384  2.6620
  328MOL0     H44260   2.499   1.957   4.798 -1.4773  2.1947  0.2934
  328MOL0     H44261   2.447   2.034   4.944 -1.1088 -0.0284 -0.4232
  328MOL0     H44262   3.236   2.872   4.819  1.2154 -0.2455 -0.6802
  328MOL0     H44263   3.472   2.930   4.863  2.2158 -0.9027  1.1074
  328MOL0     H44264   3.866   2.865   4.963  1.5721 -1.2006 -0.5639
  328MOL0     H44265   4.086   2.773   4.942 -0.0813  1.2058  0.5191
  328MOL0     H44266   5.656   2.890   5.916  1.4401 -3.3112 -0.6520
  328MOL0     H44267   5.852   2.998   6.038 -2.7051 -0.7114 -0.6407
  328MOL0     H44268   6.260   3.028   6.196  1.5047 -0.2123 -1.4242
  328MOL0     H44269   6.424   3.128   6.317 -1.1162 -0.2236 -0.4047
  328MOL0     H44270   6.552   3.284   6.448  0.6671  0.2903  0.2111
  328MOL0     H44271   6.641   3.279   6.307 -3.2036 -4.3588  1.6156
  328MOL0     H44272   6.620   3.530   6.493  1.8860 -0.7562  1.7466
  328MOL0     H44273   6.724   3.532   6.349  0.7473 -0.7353 -0.5473
  328MOL0     H44274   6.843   3.329   6.471 -1.2175 -1.0293 -0.4696
  328MOL0     H44275   6.734   3.366   6.603  1.3966 -0.9058  1.6308
  328MOL0     H44276   6.850   3.599   6.603  3.2582  1.8798 -0.5755
  328MOL0     H44277   6.932   3.549   6.448  2.0543 -3.4228 -1.0597
  328MOL0     H44278   7.160   3.323   6.712  0.4132 -2.5869 -2.3374
  328MOL0     H44279   6.346   3.497   6.120  1.5457 -0.0557  2.9094
  328MOL0     H44280   6.173   3.363   5.968 -1.1913 -3.7673 -1.6731
  329MOL0     O44281   2.893   3.727   8.210  0.1859  0.6966 -0.3367
  329MOL0     C44282   2.907   3.631   8.129  0.9024  0.3286 -0.2503
  329MOL0     O44283   2.807   3.564   8.077  0.3462  0.0056 -0.6453
  329MOL0     C44284   2.678   3.609   8.107  0.3908  1.1263  0.9905
  329MOL0     C44285   2.602   3.516   8.179 -0.2866 -0.6740  0.5455
  329MOL0     C44286   2.464   3.555   8.210 -0.8469 -0.3875 -0.1739
  329MOL0     C44287   2.410   3.672   8.154  0.0393  0.2809  0.4234
  329MOL0     O44288   2.276   3.696   8.170 -0.5715  0.0592  0.0017
  329MOL0     C44289   2.254   3.783   8.277  0.1074  0.2795  1.4229
  329MOL0     C44290   2.107   3.779   8.327 -0.5896 -0.2807 -0.1913
  329MOL0     C44291   2.052   3.645   8.381 -0.7511 -0.5506  0.8121
  329MOL0     C44292   1.903   3.672   8.416 -0.0159 -0.2138  0.3031
  329MOL0     C44293   1.838   3.570   8.499  0.5275 -0.1233  0.1769
  329MOL0     C44294   1.873   3.575   8.653 -0.1059  0.3066  0.1127
  329MOL0     C44295   1.793   3.465   8.736  0.8646 -0.3687 -0.0956
  329MOL0     C44296   1.746   3.522   8.875  0.7483  0.2330  0.8756
  329MOL0     N44297   1.623   3.605   8.862  0.3293  0.4546 -0.2884
  329MOL0     C44298   1.510   3.555   8.822  0.1016  0.2713 -0.2657
  329MOL0     C44299   1.425   3.654   8.849 -0.7478  0.1460  0.2330
  329MOL0     C44300   1.278   3.656   8.809 -0.1452 -0.4571  0.8424
  329MOL0     C44301   1.206   3.521   8.795  0.7040  0.1755  0.1888
  329MOL0     C44302   1.202   3.458   8.937 -0.1071  0.0135  0.6993
  329MOL0     C44303   1.128   3.319   8.926 -0.7302  0.1483 -0.1991
  329MOL0     O44304   1.174   3.236   8.821 -0.0012  0.3791 -0.8271
  329MOL0     C44305   1.298   3.189   8.830 -0.3466 -0.4352  0.1473
  329MOL0     C44306   1.358   3.198   8.705  0.0608  0.4334  0.4883
  329MOL0     C44307   1.493   3.160   8.691 -0.6821  0.0241  0.6063
  329MOL0     C44308   1.556   3.177   8.551  0.9778  1.2067 -0.6337
  329MOL0     C44309   1.561   3.095   8.803  0.6977  0.2224  0.3926
  329MOL0     C44310   1.704   3.043   8.797  0.7475  0.3602 -0.9051
  329MOL0     O44311   1.728   2.942   8.879 -0.4823  0.4215  0.0479
  329MOL0     C44312   1.850   2.870   8.860  0.0966 -0.4186  0.0040
  329MOL0     C44313   1.836   2.734   8.846 -0.0175 -0.3025 -0.2177
  329MOL0     C44314   1.947   2.662   8.844  0.5451  0.8821 -0.4759
  329MOL0     C44315   2.072   2.717   8.822 -0.3056 -0.4662 -0.9067
  329MOL0     O44316   2.178   2.626   8.803 -0.3695  0.6858  0.4810
  329MOL0     C44317   2.318   2.673   8.800  0.1158 -0.8020 -0.6022
  329MOL0     C44318   2.399   2.552   8.737  0.5294 -1.4651  0.0932
  329MOL0     C44319   2.543   2.599   8.715  0.2068  0.3722  0.3167
  329MOL0     C44320   2.628   2.506   8.626 -0.3938  0.2255 -1.1604
  329MOL0     C44321   2.758   2.567   8.596 -0.6972 -0.7638  0.2528
  329MOL0     C44322   2.838   2.486   8.490  1.1061  0.0211 -0.0209
  329MOL0     C44323   2.944   2.571   8.421 -0.3375  0.0437 -0.4883
  329MOL0     C44324   3.080   2.553   8.494 -0.2397 -0.9051 -0.8460
  329MOL0    Cl44325   3.144   2.386   8.494 -0.0551 -0.1792 -0.3951
  329MOL0     C44326   2.088   2.853   8.841  0.2308  0.2647  0.3603
  329MOL0     C44327   1.972   2.927   8.855 -0.1594  0.0891  0.6053
  329MOL0     O44328   1.783   3.096   8.722  0.4908  0.2556 -0.0448
  329MOL0     C44329   1.493   3.099   8.927 -0.4335  0.4174 -0.0933
  329MOL0     C44330   1.367   3.152   8.944 -0.5689 -0.0456 -0.4961
  329MOL0     N44331   1.480   3.750   8.932  0.3227 -0.1921  0.5441
  329MOL0     N44332   1.610   3.723   8.933  0.0113 -0.5168  0.3826
  329MOL0     C44333   2.490   3.758   8.087  1.4694 -0.2659 -0.5813
  329MOL0     C44334   2.624   3.736   8.072 -0.4184  0.0910  0.2593
  329MOL0     C44335   3.044   3.596   8.092 -0.2190  0.3785 -0.0683
  329MOL0     C44336   3.157   3.661   8.143 -0.0474 -0.3876  0.9726
  329MOL0     C44337   3.288   3.633   8.103 -0.2813 -0.3381 -0.1176
  329MOL0     C44338   3.311   3.517   8.016  0.1933 -0.0626  0.9836
  329MOL0     O44339   3.430   3.468   7.978  0.2818 -0.1902  0.4946
  329MOL0     C44340   3.545   3.542   8.011 -0.4364  0.3112 -0.1439
  329MOL0     C44341   3.656   3.482   7.928 -1.0433  0.1370  0.3573
  329MOL0     C44342   3.680   3.324   7.934  0.2619 -0.3494 -0.4377
  329MOL0     C44343   3.766   3.270   7.819 -0.4339 -0.0983 -0.5138
  329MOL0     C44344   3.890   3.338   7.823  0.1925 -0.8747  0.3844
  329MOL0     C44345   3.990   3.409   7.809 -0.1965  0.3023  0.5729
  329MOL0     C44346   3.196   3.447   7.973  0.1656 -0.5370  0.8039
  329MOL0     C44347   3.064   3.488   8.004  0.5163 -0.3919  0.6691
  329MOL0     H44348   2.649   3.422   8.207  1.9529 -0.2383 -1.4840
  329MOL0     H44349   2.398   3.499   8.275  0.3839  1.0092  2.4138
  329MOL0     H44350   2.315   3.745   8.359 -0.1574 -1.0841  1.0142
  329MOL0     H44351   2.275   3.889   8.261  0.0798  0.0155 -0.6343
  329MOL0     H44352   2.094   3.852   8.408 -0.9150  0.2308 -0.6952
  329MOL0     H44353   2.041   3.822   8.251  0.2270 -2.2057 -2.1026
  329MOL0     H44354   2.067   3.573   8.299 -0.8995  0.9493 -0.5886
  329MOL0     H44355   2.108   3.626   8.472  0.5990  2.9418  0.8663
  329MOL0     H44356   1.887   3.772   8.456 -1.5690  0.8257 -2.5861
  329MOL0     H44357   1.842   3.687   8.327  1.1648  1.0600 -0.3362
  329MOL0     H44358   1.730   3.584   8.485  0.7380 -0.1314 -1.6617
  329MOL0     H44359   1.860   3.469   8.464 -0.6981  0.3940 -2.3170
  329MOL0     H44360   1.981   3.560   8.667  0.3245  1.3501 -1.8115
  329MOL0     H44361   1.853   3.679   8.682 -1.5598 -0.3110  1.4563
  329MOL0     H44362   1.707   3.427   8.681  0.2155  0.8431  0.0682
  329MOL0     H44363   1.861   3.382   8.760  1.9854 -0.1706 -2.3040
  329MOL0     H44364   1.828   3.564   8.935 -0.1298 -0.5228  2.7125
  329MOL0     H44365   1.713   3.435   8.933 -0.0570  0.6450  1.0450
  329MOL0     H44366   1.479   3.458   8.786 -0.5924  0.1795  0.5300
  329MOL0     H44367   1.223   3.720   8.878 -1.1375  0.2057 -0.5087
  329MOL0     H44368   1.282   3.700   8.709  0.0104 -1.1947  0.5157
  329MOL0     H44369   1.257   3.455   8.725 -1.3681 -1.3894  0.0707
  329MOL0     H44370   1.106   3.547   8.760  1.7633  1.0939 -2.3733
  329MOL0     H44371   1.140   3.526   8.995 -1.9623  0.7797 -1.9927
  329MOL0     H44372   1.303   3.443   8.976 -0.1440  0.8439  1.1316
  329MOL0     H44373   1.021   3.336   8.909 -1.2954 -3.0375 -0.3779
  329MOL0     H44374   1.129   3.276   9.026 -1.2041  3.2398  1.2503
  329MOL0     H44375   1.303   3.227   8.616 -1.3850  0.8868  1.5031
  329MOL0     H44376   1.605   3.083   8.523  0.9644  0.4746  1.6138
  329MOL0     H44377   1.479   3.196   8.476 -0.6115 -0.6986  0.4224
  329MOL0     H44378   1.621   3.266   8.551 -1.5912  3.2097  0.7731
  329MOL0     H44379   1.737   2.688   8.852  0.3173 -1.3204 -1.8226
  329MOL0     H44380   1.950   2.553   8.843 -3.4027  0.6017  0.5225
  329MOL0     H44381   2.336   2.772   8.757  3.2608 -0.5145  1.0667
  329MOL0     H44382   2.353   2.693   8.902  1.8838 -1.1913 -1.1017
  329MOL0     H44383   2.398   2.462   8.799  0.3694 -0.2067  1.9946
  329MOL0     H44384   2.364   2.525   8.637 -0.2785 -0.4128  0.0729
  329MOL0     H44385   2.601   2.605   8.807  0.0123  1.7977  0.3751
  329MOL0     H44386   2.549   2.697   8.666 -1.0616  0.8555  1.0890
  329MOL0     H44387   2.644   2.412   8.679  1.2437  0.9710 -0.2511
  329MOL0     H44388   2.570   2.489   8.535 -2.8109  0.4880  0.2395
  329MOL0     H44389   2.831   2.569   8.678  0.9199  2.4944 -1.0813
  329MOL0     H44390   2.729   2.667   8.563 -0.4164  0.1993  2.6982
  329MOL0     H44391   2.887   2.401   8.539  1.6630 -0.1656 -0.8773
  329MOL0     H44392   2.766   2.454   8.414  1.7638  0.8205 -1.0087
  329MOL0     H44393   2.915   2.677   8.419 -0.6944  0.2365  4.2122
  329MOL0     H44394   2.957   2.531   8.320 -0.6706  0.3994 -0.6731
  329MOL0     H44395   3.061   2.586   8.596  0.4875 -1.0419 -0.6633
  329MOL0     H44396   3.163   2.616   8.459  0.6223 -2.0966 -1.0199
  329MOL0     H44397   2.182   2.904   8.856  0.8471 -0.9318  0.7137
  329MOL0     H44398   1.981   3.035   8.864 -3.4957  0.3644  1.6621
  329MOL0     H44399   1.546   3.063   9.015  1.7241 -1.2120 -1.9335
  329MOL0     H44400   1.325   3.170   9.043  2.3863  0.9782  0.6663
  329MOL0     H44401   2.436   3.846   8.053  0.7313  0.1728  1.5579
  329MOL0     H44402   2.697   3.798   8.020  1.8069 -1.8337  0.8844
  329MOL0     H44403   3.132   3.741   8.212 -2.5945 -1.8211  1.8670
  329MOL0     H44404   3.375   3.687   8.139  1.4500 -1.6213 -2.1174
  329MOL0     H44405   3.538   3.649   7.986 -1.6756  0.1093 -0.7348
  329MOL0     H44406   3.573   3.525   8.116  1.8625 -2.8855 -1.1325
  329MOL0     H44407   3.752   3.528   7.953 -1.7037  1.3445  0.7617
  329MOL0     H44408   3.643   3.505   7.822 -0.8908  1.3356  0.5948
  329MOL0     H44409   3.581   3.278   7.927 -0.2019  0.3993  1.0093
  329MOL0     H44410   3.730   3.291   8.025 -0.4071  1.7972  0.7603
  329MOL0     H44411   3.725   3.279   7.718  1.7232 -1.0679 -1.5396
  329MOL0     H44412   3.785   3.163   7.833 -0.1253 -0.1722 -1.4432
  329MOL0     H44413   4.089   3.448   7.793  0.9939 -2.0117  1.8607
  329MOL0     H44414   3.210   3.354   7.919 -1.1265 -0.5723  0.4892
  329MOL0     H44415   2.974   3.434   7.975  1.1815 -2.9450  2.9409
  330MOL0     O44416  10.161   1.454   3.421  0.6355 -0.0702  0.2878
  330MOL0     C44417  10.244   1.536   3.384  0.7636  0.4714 -0.3240
  330MOL0     O44418  10.213   1.656   3.331 -0.2191 -0.5612 -0.2186
  330MOL0     C44419  10.094   1.665   3.252  0.1784  0.7522  0.1895
  330MOL0     C44420   9.977   1.694   3.319  0.7138  0.0804 -0.6358
  330MOL0     C44421   9.858   1.701   3.240 -0.5594  0.1386 -0.5751
  330MOL0     C44422   9.853   1.680   3.100  0.0488 -0.4430 -0.0580
  330MOL0     O44423   9.747   1.669   3.016 -0.5290 -0.4807  0.1167
  330MOL0     C44424   9.622   1.637   3.077 -0.2047 -0.5447 -0.1629
  330MOL0     C44425   9.527   1.615   2.955  0.3406 -0.6974 -0.4256
  330MOL0     C44426   9.386   1.573   3.002 -0.6758 -0.6251  0.3241
  330MOL0     C44427   9.315   1.516   2.879  0.0404 -0.9083  0.1858
  330MOL0     C44428   9.175   1.480   2.933  0.3074  0.4141  0.2265
  330MOL0     C44429   9.090   1.428   2.813 -0.7825  0.0732  0.3517
  330MOL0     C44430   8.945   1.389   2.847  0.5772  0.1933  0.5659
  330MOL0     C44431   8.869   1.358   2.708  0.3106  0.6570 -0.1538
  330MOL0     N44432   8.726   1.313   2.742 -0.0438 -0.3309 -0.2884
  330MOL0     C44433   8.665   1.304   2.870 -0.2644 -0.2578 -0.9025
  330MOL0     C44434   8.546   1.243   2.846 -0.4135  0.0955  0.6089
  330MOL0     C44435   8.453   1.201   2.951  0.4082  0.0492  0.0589
  330MOL0     C44436   8.510   1.152   3.083 -0.0344 -0.0616 -0.5681
  330MOL0     C44437   8.427   1.065   3.175  0.5896  1.1760 -0.4784
  330MOL0     C44438   8.307   1.139   3.233  1.0440 -1.4415  0.2424
  330MOL0     O44439   8.234   1.049   3.314 -0.6301  0.1654  0.3170
  330MOL0     C44440   8.116   1.081   3.377 -1.2550  0.2589 -0.5839
  330MOL0     C44441   8.076   1.001   3.489  0.0297 -0.0589 -0.5931
  330MOL0     C44442   7.950   1.022   3.553  0.4886 -0.3933  0.5438
  330MOL0     C44443   7.912   0.918   3.653 -0.2335 -0.6882  0.6962
  330MOL0     C44444   7.872   1.141   3.525  0.2190  0.5503 -0.3685
  330MOL0     C44445   7.744   1.181   3.598  0.1722  1.0595  0.4798
  330MOL0     O44446   7.653   1.259   3.524  0.5441 -0.2614 -0.7835
  330MOL0     C44447   7.544   1.335   3.575  0.6643 -0.0330 -0.0845
  330MOL0     C44448   7.434   1.366   3.492 -0.4354  0.2612  0.1163
  330MOL0     C44449   7.321   1.436   3.536 -0.0617 -0.0278  0.1513
  330MOL0     C44450   7.298   1.473   3.662 -0.3432 -0.5871 -0.3078
  330MOL0     O44451   7.185   1.541   3.696  0.6918  0.0828 -0.1381
  330MOL0     C44452   7.144   1.565   3.835  0.1019 -0.1856  0.0772
  330MOL0     C44453   6.997   1.584   3.826 -0.6660 -0.1963 -0.0012
  330MOL0     C44454   6.921   1.456   3.796  0.3855  0.1674  0.2872
  330MOL0     C44455   6.915   1.369   3.921 -0.2248  0.3148  0.3048
  330MOL0     C44456   6.819   1.254   3.890 -0.5336 -0.1906 -0.3441
  330MOL0     C44457   6.678   1.306   3.905  0.3009  0.2541 -0.0539
  330MOL0     C44458   6.606   1.177   3.924  0.6367 -0.5807 -1.3607
  330MOL0     C44459   6.457   1.194   3.939  0.3935  0.2707 -0.0761
  330MOL0    Cl44460   6.396   1.286   4.077  0.0254 -0.2216  0.0650
  330MOL0     C44461   7.410   1.446   3.749 -0.5225  0.4259  0.3271
  330MOL0     C44462   7.530   1.379   3.707  0.2532  0.2434 -0.4693
  330MOL0     O44463   7.732   1.144   3.711  0.7881  0.4480 -0.4036
  330MOL0     C44464   7.920   1.215   3.415  0.3844 -0.1472 -0.0258
  330MOL0     C44465   8.041   1.190   3.348 -0.1336  0.1069 -0.3837
  330MOL0     N44466   8.528   1.239   2.710  0.7811 -0.8850  0.3184
  330MOL0     N44467   8.634   1.268   2.646 -0.1951  0.2226 -0.0031
  330MOL0     C44468   9.977   1.642   3.037  1.2210  0.3476 -0.1927
  330MOL0     C44469  10.095   1.642   3.118  0.3899  0.2621 -0.1270
  330MOL0     C44470  10.385   1.511   3.403 -0.4163 -0.4236  0.0253
  330MOL0     C44471  10.425   1.378   3.429 -0.3497  0.3989  0.2426
  330MOL0     C44472  10.567   1.356   3.438  0.1678  0.2166 -0.2566
  330MOL0     C44473  10.661   1.454   3.418 -0.0042 -0.2255 -0.7279
  330MOL0     O44474  10.788   1.428   3.450 -0.8666  0.6789 -0.7796
  330MOL0     C44475  10.883   1.525   3.473  0.0279  0.2286 -0.0292
  330MOL0     C44476  10.857   1.608   3.592  0.1007 -0.8172  0.1391
  330MOL0     C44477  10.851   1.525   3.723 -0.7044  0.0077 -0.7398
  330MOL0     C44478  10.989   1.467   3.776  0.3640 -0.2986 -0.0194
  330MOL0     C44479  10.973   1.394   3.905 -0.4892 -0.8827 -0.0289
  330MOL0     C44480  10.988   1.339   4.010 -0.3138 -0.2411 -0.5227
  330MOL0     C44481  10.614   1.582   3.383  0.6304 -0.3983 -0.7068
  330MOL0     C44482  10.483   1.615   3.368  0.4658  1.1233  0.1172
  330MOL0     H44483   9.966   1.713   3.426  1.0784  1.2587 -0.8009
  330MOL0     H44484   9.762   1.732   3.279 -0.2796  0.8825 -0.4601
  330MOL0     H44485   9.633   1.548   3.140  1.8318  0.8117  1.5428
  330MOL0     H44486   9.581   1.719   3.136 -1.0157 -0.2454 -1.1281
  330MOL0     H44487   9.513   1.704   2.892 -1.4536  0.2594  1.2087
  330MOL0     H44488   9.568   1.536   2.892  1.3398 -0.6497  0.1551
  330MOL0     H44489   9.390   1.493   3.077  1.2071 -0.9166 -0.0387
  330MOL0     H44490   9.344   1.665   3.044  3.5436  2.0243 -0.6905
  330MOL0     H44491   9.302   1.597   2.807 -1.2233  0.1229  1.5119
  330MOL0     H44492   9.367   1.431   2.835  0.0210 -1.7262  1.6524
  330MOL0     H44493   9.189   1.409   3.015  3.2521  0.0442 -0.5068
  330MOL0     H44494   9.122   1.569   2.970 -0.5680  0.1555 -0.3713
  330MOL0     H44495   9.083   1.508   2.739  0.0447  0.1922  0.4000
  330MOL0     H44496   9.135   1.336   2.776 -2.3312 -1.0494  1.1016
  330MOL0     H44497   8.938   1.293   2.899  0.1363 -0.1406 -0.0960
  330MOL0     H44498   8.892   1.462   2.908  3.9267  1.1206  2.6471
  330MOL0     H44499   8.927   1.280   2.658 -3.6063 -4.1520  1.8449
  330MOL0     H44500   8.866   1.451   2.651  1.4266  2.2362  2.1720
  330MOL0     H44501   8.702   1.309   2.972 -1.5969  0.3278 -0.4179
  330MOL0     H44502   8.378   1.280   2.958 -2.2634 -2.0688 -2.4427
  330MOL0     H44503   8.396   1.121   2.904 -0.0286  0.1206  0.4539
  330MOL0     H44504   8.540   1.232   3.151 -2.4189 -0.9042  1.6569
  330MOL0     H44505   8.599   1.089   3.074 -1.8117 -2.6716 -1.1123
  330MOL0     H44506   8.495   1.025   3.250  1.8557 -0.7381 -2.5214
  330MOL0     H44507   8.394   0.980   3.113 -0.5510  1.3296 -0.0995
  330MOL0     H44508   8.251   1.176   3.147  2.2753 -1.8625 -0.7737
  330MOL0     H44509   8.328   1.236   3.280 -0.7000 -0.7496 -0.3521
  330MOL0     H44510   8.136   0.914   3.513  1.7316  1.4558  0.9992
  330MOL0     H44511   7.938   0.941   3.757 -1.4087  2.0370  0.4660
  330MOL0     H44512   7.803   0.905   3.649 -0.5806  1.4438  1.5686
  330MOL0     H44513   7.969   0.827   3.630  0.3801 -0.1109 -0.1059
  330MOL0     H44514   7.436   1.325   3.391 -0.5019  0.8417 -0.1223
  330MOL0     H44515   7.244   1.453   3.461  1.2941 -0.5769 -1.4252
  330MOL0     H44516   7.157   1.480   3.903 -3.6919 -0.2369  0.9542
  330MOL0     H44517   7.190   1.653   3.881  0.6797 -1.0152  1.1358
  330MOL0     H44518   6.974   1.610   3.930  2.2028 -2.0996  1.2161
  330MOL0     H44519   6.965   1.663   3.757  0.9810 -0.0364 -0.6341
  330MOL0     H44520   6.953   1.415   3.700 -1.0742 -0.8183  0.1935
  330MOL0     H44521   6.820   1.490   3.772  0.8045  0.2742 -1.4684
  330MOL0     H44522   7.014   1.328   3.940 -1.0263 -1.2958  1.2824
  330MOL0     H44523   6.881   1.411   4.016  0.2604 -0.0717  0.6549
  330MOL0     H44524   6.839   1.169   3.955 -1.1347 -0.6177 -0.7097
  330MOL0     H44525   6.837   1.234   3.784 -0.2458  1.7531 -0.6978
  330MOL0     H44526   6.667   1.358   4.000 -0.1739  0.0259  0.0181
  330MOL0     H44527   6.644   1.368   3.822  0.7441  0.9573  0.2803
  330MOL0     H44528   6.640   1.135   4.019 -3.3401  1.0577  1.0338
  330MOL0     H44529   6.619   1.110   3.838  3.7078 -2.3698  0.3376
  330MOL0     H44530   6.415   1.093   3.933 -0.5352  0.7050 -1.2184
  330MOL0     H44531   6.424   1.253   3.853 -0.0209 -0.5343 -0.4838
  330MOL0     H44532   7.424   1.479   3.851  0.2269  3.2960 -0.5956
  330MOL0     H44533   7.611   1.372   3.779 -0.2738 -0.6467  0.0706
  330MOL0     H44534   7.864   1.299   3.376  0.1760 -0.5863 -0.6856
  330MOL0     H44535   8.079   1.247   3.265 -1.8028 -0.3187 -1.4981
  330MOL0     H44536   9.970   1.640   2.929  2.6096  1.3441 -0.3358
  330MOL0     H44537  10.187   1.623   3.063  1.4963 -0.5918  1.9139
  330MOL0     H44538  10.357   1.298   3.454  0.5646 -0.8478 -1.1600
  330MOL0     H44539  10.597   1.262   3.483 -3.1302 -1.2211 -0.7441
  330MOL0     H44540  10.969   1.459   3.484  0.5229  0.4511 -2.1640
  330MOL0     H44541  10.897   1.580   3.379 -0.7930  1.0547  0.3128
  330MOL0     H44542  10.767   1.667   3.580  0.6925  0.5493  1.9819
  330MOL0     H44543  10.939   1.680   3.602  1.1114 -1.8591 -0.3021
  330MOL0     H44544  10.777   1.445   3.712 -1.2025  0.5381 -1.3557
  330MOL0     H44545  10.814   1.601   3.794  1.3023  0.4025 -0.0487
  330MOL0     H44546  11.065   1.545   3.790  2.0199 -1.8500 -0.0199
  330MOL0     H44547  11.021   1.394   3.701 -1.7271  0.1565 -1.4486
  330MOL0     H44548  10.995   1.280   4.099 -1.9359  0.2971  0.0043
  330MOL0     H44549  10.690   1.654   3.355  2.9260 -0.7619  3.7042
  330MOL0     H44550  10.447   1.716   3.354 -5.6655 -0.4145  1.7608
  331MOL0     O44551   2.064   2.889   1.272  0.3037 -0.9886  0.7767
  331MOL0     C44552   2.047   2.961   1.174  0.2905 -0.1088  0.6941
  331MOL0     O44553   1.926   2.996   1.121 -0.3165 -0.4570  0.1158
  331MOL0     C44554   1.799   2.969   1.178 -0.8780 -0.2878  0.1904
  331MOL0     C44555   1.777   2.961   1.315 -0.1149  0.4693 -0.7340
  331MOL0     C44556   1.646   2.944   1.365  0.4968 -1.0201  0.0345
  331MOL0     C44557   1.539   2.911   1.277  0.5613 -0.8433  0.1201
  331MOL0     O44558   1.414   2.865   1.306  0.4991  1.1878 -1.0835
  331MOL0     C44559   1.378   2.868   1.444 -0.8760  1.4979  0.0230
  331MOL0     C44560   1.250   2.809   1.461  0.7966 -0.5739  0.2185
  331MOL0     C44561   1.160   2.875   1.564 -0.2496  0.4200 -0.3873
  331MOL0     C44562   1.011   2.825   1.575 -1.3122 -0.2630 -0.0621
  331MOL0     C44563   0.942   2.855   1.713 -1.0327  0.2397  0.7146
  331MOL0     C44564   0.793   2.821   1.705 -0.5416 -0.0757  0.1300
  331MOL0     C44565   0.717   2.809   1.837 -0.4959 -0.8536 -0.1993
  331MOL0     C44566   0.589   2.728   1.833  0.6139  0.8393 -0.7481
  331MOL0     N44567   0.496   2.788   1.936  0.0845 -0.2541 -0.4395
  331MOL0     C44568   0.428   2.908   1.938  0.1521  0.6075  0.5441
  331MOL0     C44569   0.364   2.915   2.059 -0.3799 -0.6676  0.0483
  331MOL0     C44570   0.281   3.033   2.117  0.3767  0.1814  0.0708
  331MOL0     C44571   0.257   3.017   2.272  0.5206 -0.4155  0.9029
  331MOL0     C44572   0.137   2.935   2.325  0.9435 -0.4163 -0.5716
  331MOL0     C44573   0.118   2.795   2.271 -0.1379 -0.4370 -0.1555
  331MOL0     O44574  -0.005   2.734   2.313 -0.5130  0.6719 -0.2059
  331MOL0     C44575  -0.127   2.777   2.264  0.8149  0.6263 -0.0044
  331MOL0     C44576  -0.145   2.865   2.163  0.1711 -0.6282  0.1554
  331MOL0     C44577  -0.264   2.898   2.104  0.2996 -0.3870 -0.4264
  331MOL0     C44578  -0.258   2.992   1.987  0.1612 -0.4795 -0.3186
  331MOL0     C44579  -0.378   2.824   2.151 -0.0508 -0.0593  0.3668
  331MOL0     C44580  -0.521   2.842   2.105  0.2749 -0.8183  0.5616
  331MOL0     O44581  -0.625   2.805   2.185 -0.0349 -0.4291  1.2060
  331MOL0     C44582  -0.753   2.815   2.131  0.4659  0.2967  0.6208
  331MOL0     C44583  -0.798   2.742   2.021  1.1633  0.5382 -0.0660
  331MOL0     C44584  -0.920   2.771   1.961 -0.1822 -0.1531 -0.5613
  331MOL0     C44585  -1.006   2.872   2.009  0.2642  0.3143 -0.3921
  331MOL0     O44586  -1.131   2.886   1.962  0.4605 -1.2448 -0.1052
  331MOL0     C44587  -1.158   3.020   1.906 -0.7142 -0.4450 -0.8071
  331MOL0     C44588  -1.293   3.055   1.957 -0.2137  0.0895  0.2380
  331MOL0     C44589  -1.411   2.971   1.892 -0.6273 -0.6910 -0.5238
  331MOL0     C44590  -1.553   3.013   1.915 -0.4835  0.5153 -0.6036
  331MOL0     C44591  -1.642   2.969   1.802  0.4824 -0.4285  0.0211
  331MOL0     C44592  -1.647   3.077   1.695 -0.0801 -0.1999  0.0207
  331MOL0     C44593  -1.754   3.044   1.593  0.6219  0.8191 -0.3946
  331MOL0     C44594  -1.777   3.158   1.496 -0.1885 -0.3652  0.5349
  331MOL0    Cl44595  -1.889   3.288   1.554  0.1286  0.2350  0.2368
  331MOL0     C44596  -0.970   2.943   2.129 -0.4252  0.0754 -0.6464
  331MOL0     C44597  -0.836   2.916   2.187 -0.1016  0.1081  0.4565
  331MOL0     O44598  -0.525   2.886   1.991 -0.0228 -0.0735 -0.1057
  331MOL0     C44599  -0.365   2.735   2.261  0.6818 -0.8766  0.4402
  331MOL0     C44600  -0.238   2.713   2.307  0.1573  0.4969  0.1531
  331MOL0     N44601   0.420   2.813   2.136  0.3163 -0.7026 -0.3181
  331MOL0     N44602   0.498   2.747   2.065  0.9461  0.6137  0.3554
  331MOL0     C44603   1.571   2.923   1.142 -0.5867 -0.8664  0.4000
  331MOL0     C44604   1.695   2.955   1.091  0.0244  0.6076  0.0088
  331MOL0     C44605   2.170   3.008   1.102  1.3683 -0.1163  0.2581
  331MOL0     C44606   2.162   3.062   0.976  0.0651  0.4505 -0.7103
  331MOL0     C44607   2.273   3.106   0.903 -0.1948  0.5044 -0.3811
  331MOL0     C44608   2.403   3.079   0.956 -0.8293 -0.6084  0.7585
  331MOL0     O44609   2.519   3.115   0.887 -0.0201 -0.9679 -0.6529
  331MOL0     C44610   2.611   3.012   0.844 -0.5435  0.4162 -0.0238
  331MOL0     C44611   2.742   3.083   0.796  1.0287 -0.1325  0.4311
  331MOL0     C44612   2.850   2.987   0.768 -0.0165 -0.2302 -0.4404
  331MOL0     C44613   2.980   3.059   0.736  0.2179  0.8716  0.3709
  331MOL0     C44614   3.055   3.125   0.839 -0.7821  0.1736  0.3832
  331MOL0     C44615   3.114   3.172   0.931 -0.1696 -0.1168  0.0191
  331MOL0     C44616   2.416   3.040   1.088 -0.2772  0.5291 -0.9103
  331MOL0     C44617   2.295   3.001   1.158 -1.6264 -1.1912  0.4935
  331MOL0     H44618   1.855   2.991   1.385  1.8415 -0.8922 -2.2229
  331MOL0     H44619   1.627   2.934   1.471 -0.5585  1.7439  0.1770
  331MOL0     H44620   1.448   2.810   1.505 -1.7268 -0.9265 -1.1808
  331MOL0     H44621   1.375   2.969   1.486 -1.5032  1.0034  1.2090
  331MOL0     H44622   1.188   2.827   1.373 -0.4521  1.7570  1.4739
  331MOL0     H44623   1.267   2.701   1.470  1.7844 -0.2909  2.6663
  331MOL0     H44624   1.204   2.865   1.663 -0.3067  1.4450 -0.2464
  331MOL0     H44625   1.163   2.983   1.549  0.9793 -0.0137 -4.8152
  331MOL0     H44626   0.962   2.887   1.500 -1.0413  0.0282 -0.0016
  331MOL0     H44627   1.003   2.717   1.555 -1.5793 -0.4234  0.8329
  331MOL0     H44628   0.985   2.795   1.794  2.5734  3.0026  1.1318
  331MOL0     H44629   0.954   2.964   1.720  0.2026  0.4417 -2.7377
  331MOL0     H44630   0.746   2.902   1.648 -2.6682  0.1831  2.1328
  331MOL0     H44631   0.802   2.725   1.654 -1.7778 -0.8947  1.4056
  331MOL0     H44632   0.788   2.775   1.913 -0.6126  0.9584  0.7890
  331MOL0     H44633   0.694   2.909   1.878 -0.3948 -1.1996  0.7325
  331MOL0     H44634   0.600   2.623   1.861 -2.7695  1.2278  2.9532
  331MOL0     H44635   0.548   2.724   1.731 -0.6931 -2.5873 -0.2086
  331MOL0     H44636   0.415   2.981   1.859 -1.3582  0.4936  0.6614
  331MOL0     H44637   0.333   3.123   2.084 -1.4913  1.0686 -0.6295
  331MOL0     H44638   0.189   3.036   2.058  1.6390  0.0090 -2.0342
  331MOL0     H44639   0.253   3.120   2.308  2.7345  0.0223  0.0208
  331MOL0     H44640   0.350   2.981   2.316  1.0298 -0.8351 -0.4573
  331MOL0     H44641   0.044   2.992   2.312  0.2013 -0.6696  2.8254
  331MOL0     H44642   0.141   2.923   2.433  1.1377  3.1007 -0.0576
  331MOL0     H44643   0.204   2.735   2.300  1.4109  0.3707 -2.7121
  331MOL0     H44644   0.119   2.802   2.161 -1.3082 -1.0256 -0.2251
  331MOL0     H44645  -0.057   2.916   2.125  0.5693 -1.5109 -0.1339
  331MOL0     H44646  -0.171   3.058   1.992  0.3623 -0.8644  2.9377
  331MOL0     H44647  -0.230   2.939   1.895  0.5110  2.0929 -1.7901
  331MOL0     H44648  -0.339   3.065   1.989 -0.9547 -1.6970  0.7717
  331MOL0     H44649  -0.745   2.663   1.969  0.1191  0.6880 -1.4178
  331MOL0     H44650  -0.955   2.722   1.871  0.1250  1.0017 -1.3311
  331MOL0     H44651  -1.091   3.102   1.934 -0.2783  0.3767 -3.8629
  331MOL0     H44652  -1.139   3.009   1.799  0.6725  0.9568 -0.7344
  331MOL0     H44653  -1.291   3.041   2.065  3.0851  1.9121  0.5213
  331MOL0     H44654  -1.327   3.159   1.950 -3.2477 -0.6556  2.0760
  331MOL0     H44655  -1.397   2.866   1.921 -1.0890 -0.6334 -0.0982
  331MOL0     H44656  -1.401   2.991   1.785 -0.4528  0.2098 -0.3473
  331MOL0     H44657  -1.576   2.958   2.007  4.0744 -0.5092  0.1744
  331MOL0     H44658  -1.568   3.121   1.923 -0.6513  0.6282 -2.1912
  331MOL0     H44659  -1.743   2.956   1.842  0.7301 -3.2148 -0.0544
  331MOL0     H44660  -1.614   2.877   1.751  2.5825  0.3929 -0.4013
  331MOL0     H44661  -1.673   3.174   1.737 -0.1816 -0.7397  1.2332
  331MOL0     H44662  -1.550   3.092   1.647 -0.7995  0.7535 -1.1879
  331MOL0     H44663  -1.855   3.028   1.633  1.1083 -2.6506 -0.1919
  331MOL0     H44664  -1.732   2.956   1.532  1.2083 -1.1234  2.4032
  331MOL0     H44665  -1.816   3.115   1.403  0.9392 -0.8179  0.2517
  331MOL0     H44666  -1.680   3.210   1.490  0.1610 -0.7550  2.2861
  331MOL0     H44667  -1.028   3.018   2.183  0.2465  2.7604 -3.3507
  331MOL0     H44668  -0.803   2.967   2.277  0.0923 -0.9362  0.9878
  331MOL0     H44669  -0.445   2.678   2.306 -1.0430 -2.3396 -3.9508
  331MOL0     H44670  -0.222   2.641   2.387  2.0720  0.4546 -0.2319
  331MOL0     H44671   1.481   2.921   1.083 -1.2177  0.2471  1.2908
  331MOL0     H44672   1.713   2.967   0.984 -1.7068  3.4865 -0.0564
  331MOL0     H44673   2.070   3.074   0.920 -0.9681  2.0062  1.1692
  331MOL0     H44674   2.270   3.147   0.802 -1.1969 -1.1980 -1.0992
  331MOL0     H44675   2.623   2.932   0.918 -0.5345 -0.1004 -0.5809
  331MOL0     H44676   2.568   2.963   0.756 -1.6199  0.1580  0.6283
  331MOL0     H44677   2.780   3.137   0.883  0.2746 -0.7859  1.1801
  331MOL0     H44678   2.714   3.157   0.721 -0.9255  0.8602  2.0552
  331MOL0     H44679   2.819   2.918   0.688  1.8109 -0.3845 -1.0534
  331MOL0     H44680   2.867   2.918   0.851 -1.2275  0.7467  0.6503
  331MOL0     H44681   2.952   3.131   0.658 -2.3581 -0.8861 -0.4350
  331MOL0     H44682   3.047   2.979   0.700 -0.4036 -0.6903  2.4756
  331MOL0     H44683   3.175   3.216   1.007  0.2945  0.8493 -0.8875
  331MOL0     H44684   2.509   3.022   1.143 -0.7220  0.3615 -0.2007
  331MOL0     H44685   2.302   2.966   1.261 -0.6793  1.7403  1.5142
  332MOL0     O44686  10.256   9.628   1.245  0.4427  0.1204  0.0493
  332MOL0     C44687  10.318   9.622   1.353 -0.0290 -0.4147  0.4785
  332MOL0     O44688  10.379   9.507   1.416 -0.4039  0.3027  0.1213
  332MOL0     C44689  10.376   9.392   1.335 -0.7408 -0.1182 -0.5524
  332MOL0     C44690  10.289   9.283   1.381 -0.5273  0.1470  0.5198
  332MOL0     C44691  10.268   9.172   1.296  0.1473 -0.5490  0.9364
  332MOL0     C44692  10.352   9.157   1.180 -0.2024  0.6888 -0.2169
  332MOL0     O44693  10.356   9.046   1.098 -0.2776 -0.2406  0.0282
  332MOL0     C44694  10.228   8.981   1.083  0.0530 -1.0786  0.3037
  332MOL0     C44695  10.263   8.844   1.120 -0.4667 -0.1668  0.2133
  332MOL0     C44696  10.142   8.747   1.094  0.4299  0.8101  0.5809
  332MOL0     C44697  10.106   8.658   1.206 -1.5169  0.3483 -0.0946
  332MOL0     C44698  10.221   8.568   1.261 -0.0344  0.6843  0.6208
  332MOL0     C44699  10.283   8.479   1.156  0.5550  0.2410 -0.8242
  332MOL0     C44700  10.373   8.362   1.215 -0.6602  0.2660 -0.0564
  332MOL0     C44701  10.407   8.260   1.107  0.2935 -0.3990 -0.4633
  332MOL0     N44702  10.464   8.311   0.987  0.5936  0.2155 -0.0047
  332MOL0     C44703  10.573   8.388   0.982  0.0872 -1.1610 -0.1208
  332MOL0     C44704  10.600   8.399   0.853 -0.4122  0.1217 -0.2510
  332MOL0     C44705  10.708   8.482   0.782 -0.2649  0.2319  0.4386
  332MOL0     C44706  10.676   8.631   0.764 -0.3397 -0.0576  1.1166
  332MOL0     C44707  10.523   8.652   0.767 -0.3634  0.3880  0.1119
  332MOL0     C44708  10.483   8.792   0.711 -0.2130 -0.8661 -0.5712
  332MOL0     O44709  10.341   8.791   0.739 -0.5513  0.6130  0.2927
  332MOL0     C44710  10.279   8.906   0.695  0.3335 -0.3890  0.3631
  332MOL0     C44711  10.341   9.031   0.665 -0.0803  0.3840  0.4725
  332MOL0     C44712  10.266   9.146   0.638  0.0566 -0.0747  0.5955
  332MOL0     C44713  10.346   9.269   0.603  0.2538 -0.0033 -0.0262
  332MOL0     C44714  10.123   9.138   0.634 -0.6377 -0.4926  0.7684
  332MOL0     C44715  10.037   9.256   0.617  1.2220 -0.0589 -1.2766
  332MOL0     O44716   9.917   9.224   0.560 -0.0217  0.5651  0.0412
  332MOL0     C44717   9.799   9.304   0.576 -0.3796  0.3275 -0.4027
  332MOL0     C44718   9.691   9.253   0.499  0.3477 -0.2076 -0.1820
  332MOL0     C44719   9.558   9.290   0.528  0.4477  0.4093  0.1220
  332MOL0     C44720   9.540   9.385   0.630  1.2217 -0.3648 -0.4841
  332MOL0     O44721   9.408   9.418   0.657 -0.1329  0.4423  0.1028
  332MOL0     C44722   9.308   9.440   0.557 -0.3222 -0.5969  0.4339
  332MOL0     C44723   9.200   9.523   0.629  0.2381  0.7386 -0.0780
  332MOL0     C44724   9.091   9.436   0.686  0.4317 -0.5275  0.3875
  332MOL0     C44725   8.989   9.514   0.776 -0.3034  0.2867  0.2994
  332MOL0     C44726   8.963   9.437   0.909 -0.2701  0.2583  0.7708
  332MOL0     C44727   8.845   9.508   0.980  0.7890  0.6197 -0.1064
  332MOL0     C44728   8.886   9.640   1.054 -0.3082 -0.0915  0.0964
  332MOL0     C44729   8.771   9.672   1.144  0.3170 -0.6243  0.4081
  332MOL0    Cl44730   8.604   9.670   1.066 -0.1499  0.0822  0.1892
  332MOL0     C44731   9.646   9.443   0.702 -0.4885 -0.2313  0.5685
  332MOL0     C44732   9.774   9.398   0.676 -0.6025 -0.3232  0.2298
  332MOL0     O44733  10.060   9.363   0.679  0.3269  1.0391 -0.4532
  332MOL0     C44734  10.071   9.011   0.652 -0.0557  0.3216 -0.4032
  332MOL0     C44735  10.140   8.899   0.690  0.9141 -0.2769 -0.6676
  332MOL0     N44736  10.527   8.302   0.786 -0.1783 -0.6227 -1.0937
  332MOL0     N44737  10.438   8.256   0.866  0.5396 -0.1004  0.4281
  332MOL0     C44738  10.455   9.253   1.149  0.9685  0.0331  0.4831
  332MOL0     C44739  10.466   9.373   1.225 -0.3025 -0.2956 -0.1235
  332MOL0     C44740  10.350   9.751   1.421 -0.0676  0.9710 -0.2772
  332MOL0     C44741  10.453   9.769   1.513 -0.0372 -0.3417  0.0485
  332MOL0     C44742  10.480   9.890   1.571 -0.6126  0.0566  0.5489
  332MOL0     C44743  10.404  10.004   1.545 -0.2035  0.2087  0.1392
  332MOL0     O44744  10.460  10.125   1.575  0.1250 -0.5066 -0.5550
  332MOL0     C44745  10.469  10.178   1.710 -0.5760 -0.1843  1.0254
  332MOL0     C44746  10.336  10.247   1.754  0.3009 -0.2946 -0.5889
  332MOL0     C44747  10.330  10.283   1.909  0.0331  0.0483 -0.5079
  332MOL0     C44748  10.254  10.420   1.924  0.1485 -0.5004  0.1617
  332MOL0     C44749  10.111  10.406   1.883  0.2951 -0.1322  0.6533
  332MOL0     C44750   9.998  10.401   1.844  0.4542  0.2133  0.0507
  332MOL0     C44751  10.296   9.997   1.452 -0.4923  0.0804 -0.2706
  332MOL0     C44752  10.275   9.872   1.387 -0.1908  0.1309 -0.4982
  332MOL0     H44753  10.226   9.303   1.468 -3.2068  0.0081 -1.2739
  332MOL0     H44754  10.192   9.097   1.314 -0.6127 -0.2224 -0.7616
  332MOL0     H44755  10.138   9.020   1.132 -1.0011 -0.6193 -1.8871
  332MOL0     H44756  10.208   8.971   0.976 -1.8889  2.0443  0.2341
  332MOL0     H44757  10.345   8.813   1.054 -0.3143  1.3452 -0.3586
  332MOL0     H44758  10.303   8.843   1.221 -0.7339 -0.9904  0.3156
  332MOL0     H44759  10.046   8.792   1.065 -1.4488 -1.6555  2.5209
  332MOL0     H44760  10.155   8.672   1.016 -0.9226  2.1411 -1.0116
  332MOL0     H44761  10.062   8.721   1.284  1.8355  0.1449  2.1846
  332MOL0     H44762  10.029   8.588   1.172 -1.2666  0.5684 -1.1602
  332MOL0     H44763  10.303   8.625   1.305 -0.7217 -0.6718  3.9163
  332MOL0     H44764  10.178   8.510   1.343 -1.1627  1.3235  0.5093
  332MOL0     H44765  10.195   8.441   1.103  0.6901  3.7920 -4.0029
  332MOL0     H44766  10.341   8.535   1.082 -0.3524 -0.2714 -1.9520
  332MOL0     H44767  10.468   8.404   1.250 -1.7955  2.1158  1.0108
  332MOL0     H44768  10.319   8.320   1.301 -2.0756  2.4736  0.2325
  332MOL0     H44769  10.323   8.194   1.082 -0.0185  0.4299 -1.6878
  332MOL0     H44770  10.483   8.190   1.141  0.4532  0.7181  1.6637
  332MOL0     H44771  10.629   8.450   1.052 -1.9237 -1.5651  1.9644
  332MOL0     H44772  10.800   8.466   0.838 -0.3180 -1.1027  0.1799
  332MOL0     H44773  10.730   8.440   0.683 -1.4938 -0.5483  0.4823
  332MOL0     H44774  10.710   8.671   0.667 -1.1174 -1.1338  0.3786
  332MOL0     H44775  10.739   8.681   0.838  0.3811 -0.9986  1.1567
  332MOL0     H44776  10.485   8.643   0.869 -5.3400 -1.9361 -1.6184
  332MOL0     H44777  10.472   8.570   0.715  1.6426 -1.3681  0.7863
  332MOL0     H44778  10.508   8.797   0.604  2.8042 -0.5335  0.0814
  332MOL0     H44779  10.535   8.880   0.748 -0.8917 -0.0867 -1.4148
  332MOL0     H44780  10.449   9.037   0.659 -0.0214 -1.0776 -0.4369
  332MOL0     H44781  10.348   9.321   0.700 -1.3523  2.8030 -1.3722
  332MOL0     H44782  10.443   9.257   0.555  0.9416  1.8509  0.7865
  332MOL0     H44783  10.271   9.319   0.541 -0.6894 -1.9416 -0.5214
  332MOL0     H44784   9.716   9.178   0.425  2.9784  0.1875  0.2057
  332MOL0     H44785   9.469   9.262   0.473  2.2024  0.5509 -2.9811
  332MOL0     H44786   9.354   9.500   0.478  0.1352  0.6989  1.6376
  332MOL0     H44787   9.267   9.345   0.523 -2.3326  1.2106 -2.7364
  332MOL0     H44788   9.251   9.581   0.706  1.5452  0.1517 -0.4830
  332MOL0     H44789   9.153   9.589   0.554 -0.8067  0.4203  0.2816
  332MOL0     H44790   9.136   9.347   0.731 -0.2298 -2.5011 -2.5758
  332MOL0     H44791   9.034   9.390   0.605  0.7882  1.0228 -0.7937
  332MOL0     H44792   9.023   9.616   0.793  1.7958  0.3026 -3.0668
  332MOL0     H44793   8.897   9.509   0.718  1.9962 -0.6930 -3.6481
  332MOL0     H44794   9.050   9.431   0.975 -1.6679 -1.0013  2.6094
  332MOL0     H44795   8.928   9.339   0.877 -1.3711  1.0620 -0.5977
  332MOL0     H44796   8.772   9.538   0.905  1.6706  0.5703 -0.9946
  332MOL0     H44797   8.799   9.433   1.046 -0.4300  0.1663 -1.4075
  332MOL0     H44798   8.896   9.726   0.987 -2.5029 -0.4561 -0.7752
  332MOL0     H44799   8.976   9.625   1.113 -1.0669  2.5020  2.0904
  332MOL0     H44800   8.776   9.762   1.205 -1.4304 -0.9460  1.0902
  332MOL0     H44801   8.762   9.592   1.219 -0.4528  0.2061  1.2246
  332MOL0     H44802   9.652   9.518   0.780 -2.2248  1.7590 -1.0932
  332MOL0     H44803   9.853   9.456   0.723  0.2276  0.5039 -2.0618
  332MOL0     H44804   9.963   9.002   0.648  0.0229 -0.7727 -0.4089
  332MOL0     H44805  10.100   8.798   0.696  2.5612 -0.8979  2.9162
  332MOL0     H44806  10.518   9.231   1.063 -0.1261  1.9833 -0.9052
  332MOL0     H44807  10.533   9.452   1.193 -1.9077  0.9713 -0.4391
  332MOL0     H44808  10.529   9.691   1.515  0.8934  0.4898 -1.4192
  332MOL0     H44809  10.573   9.903   1.626 -0.3429  0.0847  0.0951
  332MOL0     H44810  10.503  10.091   1.766  2.3494 -1.8752 -2.9004
  332MOL0     H44811  10.547  10.254   1.712 -0.5414  0.0800 -3.1225
  332MOL0     H44812  10.250  10.182   1.734 -3.3470  3.5632  0.8599
  332MOL0     H44813  10.324  10.335   1.690  2.9561  0.4212 -0.2163
  332MOL0     H44814  10.432  10.277   1.948 -0.2941  1.7191  0.7615
  332MOL0     H44815  10.275  10.203   1.959 -0.3199  0.2265 -0.6051
  332MOL0     H44816  10.292  10.496   1.855 -3.6764  1.0444 -0.4985
  332MOL0     H44817  10.275  10.452   2.026  3.4729 -1.3558 -0.1178
  332MOL0     H44818   9.892  10.390   1.850  0.5574 -1.2213 -0.2412
  332MOL0     H44819  10.245  10.092   1.443 -3.6362 -1.4416  0.0280
  332MOL0     H44820  10.190   9.872   1.319  1.9411  1.0548 -3.3456
  333MOL0     O44821   9.620   7.249   8.602 -0.6372  0.1280 -0.6631
  333MOL0     C44822   9.606   7.313   8.710 -0.0556  0.8798  0.1914
  333MOL0     O44823   9.670   7.430   8.739  0.2193 -0.6612  0.3289
  333MOL0     C44824   9.749   7.487   8.642 -0.4135  0.3628 -0.4238
  333MOL0     C44825   9.697   7.580   8.547 -0.2101  0.4126  1.0528
  333MOL0     C44826   9.771   7.635   8.440  0.0170  0.2399  0.4663
  333MOL0     C44827   9.899   7.583   8.415  0.9473  0.3923 -0.2665
  333MOL0     O44828   9.967   7.615   8.302 -0.2421 -0.0058 -0.0466
  333MOL0     C44829   9.926   7.569   8.172 -0.7543 -0.1638  0.3740
  333MOL0     C44830   9.830   7.669   8.110  0.0151  0.6732  0.0344
  333MOL0     C44831   9.872   7.811   8.127  0.1984 -0.7522 -0.3399
  333MOL0     C44832   9.792   7.909   8.034  0.2653 -1.0533  0.0425
  333MOL0     C44833   9.782   8.045   8.118 -0.0877 -0.2968  0.6331
  333MOL0     C44834   9.918   8.119   8.120 -0.9248  1.4560 -0.2123
  333MOL0     C44835   9.894   8.235   8.200  0.1705  0.2030 -0.1077
  333MOL0     C44836  10.006   8.332   8.199 -0.7080 -0.5411  0.0119
  333MOL0     N44837   9.941   8.465   8.206  1.0469 -0.0773  0.2888
  333MOL0     C44838   9.873   8.510   8.327 -0.3426  0.1786  0.6206
  333MOL0     C44839   9.827   8.627   8.289 -0.1468 -0.7532 -0.6901
  333MOL0     C44840   9.752   8.725   8.375 -0.2052  0.6436 -0.1106
  333MOL0     C44841   9.846   8.777   8.486  0.5506 -0.1030 -1.0229
  333MOL0     C44842   9.949   8.875   8.437 -0.8699 -0.0573  0.0162
  333MOL0     C44843  10.095   8.803   8.433  0.4055  0.2001 -0.2317
  333MOL0     O44844  10.195   8.900   8.431 -0.4834 -0.1194 -0.4009
  333MOL0     C44845  10.327   8.862   8.453  0.0309 -0.4623  0.0842
  333MOL0     C44846  10.374   8.736   8.485  0.2987 -0.1447 -0.6762
  333MOL0     C44847  10.512   8.720   8.506  0.3845 -0.6648 -0.1233
  333MOL0     C44848  10.544   8.576   8.555  0.3457 -0.2684 -0.4038
  333MOL0     C44849  10.607   8.829   8.507  0.3492 -0.3049  0.6219
  333MOL0     C44850  10.754   8.816   8.540 -0.4934  0.2407  0.3993
  333MOL0     O44851  10.806   8.696   8.558 -0.3019  0.5334  0.4057
  333MOL0     C44852  10.939   8.686   8.575 -0.3326 -0.1560  0.1153
  333MOL0     C44853  11.020   8.640   8.476 -0.0480  0.1302 -0.4321
  333MOL0     C44854  11.162   8.637   8.487  0.6996 -0.6710  0.9858
  333MOL0     C44855  11.223   8.687   8.599 -0.2390 -0.9585  0.8759
  333MOL0     O44856  11.357   8.710   8.615 -0.2905 -0.3868 -0.2100
  333MOL0     C44857  11.458   8.648   8.538  0.7661 -0.2378 -0.7282
  333MOL0     C44858  11.476   8.498   8.569  0.1797 -0.0113 -0.0165
  333MOL0     C44859  11.604   8.426   8.531 -0.5789  0.3153 -0.5185
  333MOL0     C44860  11.728   8.493   8.597  0.5981 -0.2521 -0.6349
  333MOL0     C44861  11.855   8.429   8.553 -0.5199  0.0677 -0.4296
  333MOL0     C44862  11.980   8.485   8.614 -0.6251 -0.1837  0.3659
  333MOL0     C44863  12.108   8.419   8.550  0.8575 -0.3906 -0.1816
  333MOL0     C44864  12.239   8.495   8.583 -0.0027 -1.1281  0.5877
  333MOL0    Cl44865  12.261   8.496   8.761  0.4183  0.0405  0.4669
  333MOL0     C44866  11.137   8.728   8.708  1.1907 -0.1026 -0.3401
  333MOL0     C44867  10.997   8.726   8.697  0.1370  0.8700 -0.3020
  333MOL0     O44868  10.821   8.922   8.533 -0.2174 -0.2567 -0.5176
  333MOL0     C44869  10.553   8.952   8.487  0.7824 -0.8181  0.8449
  333MOL0     C44870  10.412   8.968   8.446 -0.3894  0.6246  0.3177
  333MOL0     N44871   9.844   8.650   8.152 -0.0783  0.2307  0.4647
  333MOL0     N44872   9.926   8.554   8.107  0.1268 -0.3793  0.4754
  333MOL0     C44873   9.958   7.507   8.513  0.9605 -0.4926 -0.2272
  333MOL0     C44874   9.890   7.462   8.634 -0.0974 -0.8977  0.2473
  333MOL0     C44875   9.495   7.275   8.802 -0.0941  0.1799 -0.3644
  333MOL0     C44876   9.484   7.343   8.925 -0.4723 -0.3138  0.1494
  333MOL0     C44877   9.372   7.314   8.999  0.7408  0.1503 -0.3436
  333MOL0     C44878   9.272   7.220   8.957 -0.3289  0.1123 -1.4084
  333MOL0     O44879   9.154   7.192   9.022  0.1797 -0.2434 -0.4669
  333MOL0     C44880   9.150   7.217   9.161  0.2735  0.3482 -0.1071
  333MOL0     C44881   9.036   7.149   9.232 -0.0110 -0.0855  0.2265
  333MOL0     C44882   8.905   7.150   9.157  0.6613  0.1265  0.5472
  333MOL0     C44883   8.788   7.095   9.243  0.2923  0.4161 -0.7484
  333MOL0     C44884   8.663   7.108   9.169 -1.0359  0.2638  0.3906
  333MOL0     C44885   8.553   7.123   9.119  0.2660  1.5180 -0.7124
  333MOL0     C44886   9.286   7.161   8.843 -0.0288 -0.2290  0.2347
  333MOL0     C44887   9.391   7.191   8.761  0.3191 -0.5396  0.0993
  333MOL0     H44888   9.593   7.612   8.537  0.0960  0.5883 -2.7425
  333MOL0     H44889   9.717   7.688   8.363 -2.4323 -2.3536  0.2275
  333MOL0     H44890  10.014   7.569   8.108 -0.4764  1.3199  0.7115
  333MOL0     H44891   9.888   7.468   8.190  1.9912 -0.9527  2.3906
  333MOL0     H44892   9.824   7.653   8.002 -0.3812 -0.4033  0.2052
  333MOL0     H44893   9.727   7.659   8.145 -0.5521 -0.3431 -1.7873
  333MOL0     H44894   9.842   7.837   8.229 -1.6251 -1.0174 -0.7669
  333MOL0     H44895   9.977   7.832   8.105 -0.6501  0.0150 -4.5671
  333MOL0     H44896   9.842   7.914   7.937 -0.0084  2.2506 -0.0388
  333MOL0     H44897   9.695   7.867   8.005  1.1959 -3.1121 -0.3281
  333MOL0     H44898   9.707   8.112   8.076  1.2950  1.8901  1.4551
  333MOL0     H44899   9.751   8.022   8.221  0.1089  2.2138  1.3230
  333MOL0     H44900   9.996   8.060   8.168 -1.3652  3.1809  2.8269
  333MOL0     H44901   9.942   8.138   8.015 -0.8091 -1.3471 -0.7678
  333MOL0     H44902   9.806   8.285   8.159  1.1745  1.7328 -0.5056
  333MOL0     H44903   9.880   8.188   8.298  0.4344  0.6032  0.1252
  333MOL0     H44904  10.061   8.328   8.104 -0.3705 -2.4350  0.2450
  333MOL0     H44905  10.073   8.304   8.281 -3.8024  0.5802  3.1612
  333MOL0     H44906   9.871   8.459   8.423  0.4238  2.8979  2.1928
  333MOL0     H44907   9.733   8.812   8.312  0.1219  1.0486  0.3367
  333MOL0     H44908   9.665   8.678   8.422  1.2346 -2.2456 -0.1114
  333MOL0     H44909   9.897   8.701   8.545  1.9824  0.5245 -1.4292
  333MOL0     H44910   9.787   8.823   8.567 -0.6962 -4.2083  0.6878
  333MOL0     H44911   9.958   8.967   8.495  0.8032 -0.0627 -0.1844
  333MOL0     H44912   9.923   8.904   8.335 -0.6064  0.2906  0.0471
  333MOL0     H44913  10.118   8.731   8.353  1.8764  0.2936  0.0889
  333MOL0     H44914  10.098   8.751   8.529 -1.6582  1.0321  0.3396
  333MOL0     H44915  10.308   8.651   8.490 -1.0056  0.8228 -1.0367
  333MOL0     H44916  10.614   8.571   8.639 -2.3512 -1.4363  1.9818
  333MOL0     H44917  10.452   8.533   8.597  0.1644  0.1224 -0.3965
  333MOL0     H44918  10.568   8.514   8.469 -1.2109 -0.6264 -0.6236
  333MOL0     H44919  10.978   8.591   8.389  3.6814 -0.5613 -2.0565
  333MOL0     H44920  11.219   8.592   8.407  1.4331 -0.7612  1.5538
  333MOL0     H44921  11.432   8.656   8.432 -1.2383 -1.6451 -0.4002
  333MOL0     H44922  11.550   8.696   8.575 -0.8140  1.3579  1.3772
  333MOL0     H44923  11.458   8.484   8.676 -0.0010  2.7321  0.3879
  333MOL0     H44924  11.390   8.447   8.523  1.0976 -1.6488  0.0322
  333MOL0     H44925  11.618   8.416   8.423  0.5440 -0.7720 -0.2889
  333MOL0     H44926  11.590   8.322   8.563 -1.3640  0.4360 -0.4463
  333MOL0     H44927  11.747   8.598   8.576  1.9689 -0.2007  0.6910
  333MOL0     H44928  11.707   8.488   8.704 -1.3750 -0.0677 -0.9748
  333MOL0     H44929  11.863   8.439   8.444 -0.6811  0.1089 -0.4373
  333MOL0     H44930  11.849   8.322   8.576 -3.9328  0.3166  0.3272
  333MOL0     H44931  11.986   8.587   8.576  0.3892 -0.3048  0.1827
  333MOL0     H44932  11.988   8.469   8.722  2.7425 -1.2719  0.0834
  333MOL0     H44933  12.095   8.407   8.443 -0.3099 -2.4164  0.1270
  333MOL0     H44934  12.129   8.320   8.591  0.4499 -0.0652  0.8587
  333MOL0     H44935  12.226   8.596   8.543  0.8629  0.2516  3.5082
  333MOL0     H44936  12.323   8.439   8.541 -1.3311 -1.3608 -1.9486
  333MOL0     H44937  11.186   8.753   8.802  1.3369  2.4090 -1.0143
  333MOL0     H44938  10.931   8.751   8.779 -0.2184 -0.1063 -0.2826
  333MOL0     H44939  10.617   9.040   8.493 -0.4113  0.1086  0.2771
  333MOL0     H44940  10.381   9.072   8.440 -3.1924 -0.0975  1.1382
  333MOL0     H44941  10.063   7.487   8.494 -0.0055 -3.6351 -3.2017
  333MOL0     H44942   9.936   7.396   8.707 -2.1847 -1.0688  1.4910
  333MOL0     H44943   9.560   7.408   8.967 -1.5031 -0.1537  1.8427
  333MOL0     H44944   9.343   7.375   9.084 -2.8758  0.3052 -1.5211
  333MOL0     H44945   9.252   7.188   9.189  0.3608  1.4644  0.7997
  333MOL0     H44946   9.150   7.326   9.170 -0.1172  0.3572 -0.1968
  333MOL0     H44947   9.032   7.197   9.330  0.4016  0.8969 -0.2265
  333MOL0     H44948   9.060   7.043   9.247  1.9749  0.0966 -1.3400
  333MOL0     H44949   8.916   7.077   9.076 -1.1808  0.2867  0.1161
  333MOL0     H44950   8.873   7.238   9.100 -1.3929 -0.3771  0.8503
  333MOL0     H44951   8.781   7.144   9.340  4.5020 -0.4842  0.1982
  333MOL0     H44952   8.806   6.987   9.251  1.6104  0.7225  1.1630
  333MOL0     H44953   8.470   7.149   9.055  0.1318  1.6574 -0.4844
  333MOL0     H44954   9.213   7.081   8.833 -1.6344  0.5285  4.1878
  333MOL0     H44955   9.400   7.141   8.665 -2.1451 -0.3711 -0.2779
  334MOL0     O44956   3.359   3.960   6.653 -0.6618 -0.0652 -0.1436
  334MOL0     C44957   3.328   3.996   6.542 -0.5038  0.0866  0.2498
  334MOL0     O44958   3.204   3.996   6.481 -0.4585 -0.0317  0.3173
  334MOL0     C44959   3.091   3.934   6.529  0.2304 -0.0616 -0.5014
  334MOL0     C44960   3.066   3.875   6.650  0.0919 -0.3619  0.7053
  334MOL0     C44961   2.942   3.825   6.674  0.3678 -0.3831 -0.7024
  334MOL0     C44962   2.844   3.817   6.580 -0.2870 -0.1099  0.4475
  334MOL0     O44963   2.728   3.750   6.618  0.3848  0.5311  0.7272
  334MOL0     C44964   2.613   3.817   6.576  0.4592  0.0700  0.1057
  334MOL0     C44965   2.571   3.904   6.704 -1.0438 -0.2235 -0.1491
  334MOL0     C44966   2.433   3.971   6.695 -0.2083  0.3680 -0.4045
  334MOL0     C44967   2.312   3.877   6.693 -0.1494 -0.0618 -0.0641
  334MOL0     C44968   2.187   3.951   6.716 -0.6306  0.3517 -0.5191
  334MOL0     C44969   2.065   3.867   6.687  0.7136 -0.3055  0.7877
  334MOL0     C44970   1.941   3.930   6.743 -0.8619 -0.4409  0.3764
  334MOL0     C44971   1.922   3.927   6.888  0.7344 -0.0296  0.0917
  334MOL0     N44972   1.934   3.794   6.947  0.0884  0.4837  0.5411
  334MOL0     C44973   2.034   3.734   7.030  0.1225  1.1701  0.2532
  334MOL0     C44974   2.002   3.604   7.044 -0.5480 -0.2679  0.1606
  334MOL0     C44975   2.072   3.500   7.133 -0.0477 -1.0628 -0.1949
  334MOL0     C44976   2.212   3.463   7.069  0.1544  0.3586 -0.6197
  334MOL0     C44977   2.284   3.360   7.157 -0.6376  0.4276 -0.9591
  334MOL0     C44978   2.432   3.335   7.118 -0.0520  0.0877  0.5331
  334MOL0     O44979   2.428   3.218   7.028  0.7510  0.7325 -0.4299
  334MOL0     C44980   2.499   3.114   7.078  0.2876  0.2324 -0.9473
  334MOL0     C44981   2.435   3.025   7.171 -1.1685  0.1055  0.1591
  334MOL0     C44982   2.507   2.925   7.230 -0.2860  1.1779 -0.1777
  334MOL0     C44983   2.437   2.832   7.332 -0.6083  0.5094  0.5657
  334MOL0     C44984   2.640   2.907   7.191 -0.5953  0.7440 -0.0894
  334MOL0     C44985   2.720   2.792   7.232 -0.8299 -0.1556  0.5407
  334MOL0     O44986   2.839   2.814   7.278  0.3076 -0.1665  0.5210
  334MOL0     C44987   2.911   2.712   7.334 -0.8822  0.5124 -0.0860
  334MOL0     C44988   2.954   2.606   7.252  0.1205 -0.2788 -0.2699
  334MOL0     C44989   3.053   2.516   7.292  0.1150  0.1199  0.1954
  334MOL0     C44990   3.120   2.535   7.414  0.4573 -0.3253  0.4761
  334MOL0     O44991   3.229   2.467   7.453  0.1150 -0.5267 -0.4060
  334MOL0     C44992   3.309   2.402   7.356  0.1919 -0.0970 -0.1642
  334MOL0     C44993   3.449   2.374   7.406 -0.7815 -1.0611  0.0792
  334MOL0     C44994   3.549   2.331   7.296  0.2534 -0.4074  0.0880
  334MOL0     C44995   3.530   2.190   7.231  0.1757  0.4413 -0.7782
  334MOL0     C44996   3.658   2.145   7.158 -0.3277  0.3858 -0.6849
  334MOL0     C44997   3.650   2.013   7.087  1.0349  0.8061  0.3112
  334MOL0     C44998   3.789   1.971   7.055 -0.9267 -0.0440 -0.5188
  334MOL0     C44999   3.779   1.867   6.947 -0.6317 -0.3793  0.1966
  334MOL0    Cl45000   3.665   1.741   6.990 -0.0691 -0.1902  0.2091
  334MOL0     C45001   3.073   2.622   7.505  0.4942  1.4890  0.9790
  334MOL0     C45002   2.974   2.720   7.461  0.1813  0.2006 -0.2146
  334MOL0     O45003   2.670   2.678   7.212 -0.6684 -0.3021 -0.3778
  334MOL0     C45004   2.702   2.992   7.100 -0.2670  0.0014 -0.6482
  334MOL0     C45005   2.629   3.091   7.041  0.3534 -0.0715  0.0089
  334MOL0     N45006   1.885   3.580   6.975 -0.6704 -0.6062  0.6132
  334MOL0     N45007   1.849   3.694   6.919 -1.0865  0.4716 -0.6474
  334MOL0     C45008   2.871   3.863   6.453 -0.9472 -0.6140 -0.2593
  334MOL0     C45009   2.992   3.928   6.431 -0.5644 -0.5081 -0.1414
  334MOL0     C45010   3.438   4.040   6.452  0.0676  0.4223  0.2433
  334MOL0     C45011   3.404   4.077   6.326  1.0090  0.3941 -0.3962
  334MOL0     C45012   3.504   4.120   6.234 -1.2715 -0.3544 -0.4931
  334MOL0     C45013   3.639   4.124   6.278 -0.0965  0.7274  0.5808
  334MOL0     O45014   3.746   4.173   6.206 -0.0974 -0.3333  0.0930
  334MOL0     C45015   3.729   4.204   6.069 -1.0805  0.0868 -1.0343
  334MOL0     C45016   3.722   4.359   6.056 -0.3176 -0.0228 -0.0365
  334MOL0     C45017   3.591   4.435   6.087  1.5738  0.0752 -0.3371
  334MOL0     C45018   3.473   4.409   5.992  0.0277 -0.6506 -0.3050
  334MOL0     C45019   3.350   4.473   6.039  0.2275 -1.2843 -0.4321
  334MOL0     C45020   3.256   4.540   6.079  0.3032 -0.3609 -0.1673
  334MOL0     C45021   3.669   4.092   6.411  0.2361 -0.0031  0.2222
  334MOL0     C45022   3.573   4.055   6.503  0.3163 -0.1993 -0.0289
  334MOL0     H45023   3.143   3.886   6.726  2.2558 -0.0780 -1.3827
  334MOL0     H45024   2.909   3.785   6.769  0.5192  2.8430  0.8200
  334MOL0     H45025   2.621   3.878   6.486  1.5370 -1.7515 -1.1181
  334MOL0     H45026   2.538   3.739   6.555  2.1250 -1.2267 -1.3423
  334MOL0     H45027   2.572   3.844   6.795  1.1837 -1.9693 -1.2091
  334MOL0     H45028   2.652   3.977   6.707 -1.8277  0.8144 -2.1096
  334MOL0     H45029   2.413   4.043   6.775 -3.2790  0.6790 -1.3458
  334MOL0     H45030   2.445   4.028   6.602 -3.1257  1.2390 -0.3380
  334MOL0     H45031   2.310   3.836   6.592 -0.9138  1.0343 -0.5210
  334MOL0     H45032   2.329   3.790   6.756  0.2242 -0.1931 -0.3412
  334MOL0     H45033   2.198   3.986   6.819 -0.5475 -0.9127 -0.0756
  334MOL0     H45034   2.182   4.049   6.667 -1.7495  0.2376 -0.6561
  334MOL0     H45035   2.050   3.854   6.580 -0.7344  0.1422  0.9176
  334MOL0     H45036   2.091   3.769   6.728  6.1154  0.7366  0.5443
  334MOL0     H45037   1.937   4.032   6.703  0.6579  1.0231  3.6227
  334MOL0     H45038   1.860   3.882   6.688 -0.0740 -0.2070 -1.0467
  334MOL0     H45039   1.819   3.959   6.910  0.0858 -1.6280 -0.4276
  334MOL0     H45040   1.993   3.993   6.937  2.4615 -0.8200 -1.2535
  334MOL0     H45041   2.115   3.789   7.076  0.7233  0.6350 -0.1632
  334MOL0     H45042   2.088   3.523   7.239 -2.0441 -0.9066  0.0992
  334MOL0     H45043   2.003   3.416   7.125  0.0602 -1.0760 -0.9956
  334MOL0     H45044   2.269   3.556   7.060  3.8106 -1.0604  4.1857
  334MOL0     H45045   2.192   3.412   6.975  0.3000 -0.9762  0.0605
  334MOL0     H45046   2.223   3.270   7.170  0.0683 -0.1217 -1.3836
  334MOL0     H45047   2.294   3.411   7.254  0.0596  0.6112 -1.1229
  334MOL0     H45048   2.494   3.313   7.205  1.1812  1.9049  0.1826
  334MOL0     H45049   2.477   3.418   7.061 -0.0330 -0.2702  0.0192
  334MOL0     H45050   2.333   3.046   7.202 -0.7527 -0.6058  2.0820
  334MOL0     H45051   2.486   2.839   7.430 -0.8960 -0.6042  0.8054
  334MOL0     H45052   2.335   2.870   7.344 -0.6700  0.8733 -0.9011
  334MOL0     H45053   2.437   2.731   7.291  1.0650  0.1248  1.4437
  334MOL0     H45054   2.917   2.594   7.150  1.0415  0.8756 -0.7625
  334MOL0     H45055   3.084   2.429   7.235 -1.3061 -0.8532  0.8533
  334MOL0     H45056   3.257   2.310   7.329  0.0314 -0.6737  1.9069
  334MOL0     H45057   3.323   2.466   7.268  1.2143 -0.9187 -0.6193
  334MOL0     H45058   3.492   2.467   7.446 -1.0767 -1.8073  2.2690
  334MOL0     H45059   3.454   2.310   7.495  0.7634  1.9779  2.3857
  334MOL0     H45060   3.653   2.338   7.330  0.1942  0.0998  0.1850
  334MOL0     H45061   3.530   2.406   7.218 -1.7680  0.2863  1.1644
  334MOL0     H45062   3.495   2.116   7.303 -1.0067  0.3454 -1.4201
  334MOL0     H45063   3.449   2.209   7.160 -1.3047  2.0641  1.2030
  334MOL0     H45064   3.726   2.135   7.243 -4.0159  0.2780  2.4994
  334MOL0     H45065   3.693   2.222   7.088  0.3742  0.6884 -0.0214
  334MOL0     H45066   3.595   1.944   7.152 -2.3910  1.1731 -1.9554
  334MOL0     H45067   3.592   2.016   6.995  2.3306  0.9547 -0.5143
  334MOL0     H45068   3.836   1.934   7.147 -1.6401  1.4529  0.4752
  334MOL0     H45069   3.864   2.047   7.031 -1.6038  1.3215  1.4178
  334MOL0     H45070   3.875   1.821   6.923  0.2858  1.1510  0.8296
  334MOL0     H45071   3.735   1.905   6.854  2.2440 -1.0751 -1.5795
  334MOL0     H45072   3.116   2.626   7.605 -0.7328  1.0731  1.5461
  334MOL0     H45073   2.949   2.810   7.516  3.3128 -0.0369  1.7968
  334MOL0     H45074   2.807   2.993   7.075  0.3768  0.4243  1.8741
  334MOL0     H45075   2.667   3.167   6.974 -0.2510  0.3082  0.0902
  334MOL0     H45076   2.801   3.857   6.371 -2.1550  1.9383  0.4775
  334MOL0     H45077   3.014   3.968   6.333  0.1502 -0.4070  0.0592
  334MOL0     H45078   3.305   4.076   6.282 -0.8191 -0.0579  3.3554
  334MOL0     H45079   3.483   4.164   6.137  0.9322 -0.4150 -1.0449
  334MOL0     H45080   3.814   4.170   6.010 -0.4458 -3.7949  1.7715
  334MOL0     H45081   3.642   4.156   6.022 -2.0128 -0.7167  1.3480
  334MOL0     H45082   3.749   4.375   5.952  3.1271 -2.9324  0.2460
  334MOL0     H45083   3.803   4.401   6.116  0.2639 -0.2374 -0.6576
  334MOL0     H45084   3.607   4.542   6.101  0.9283  0.1556 -0.1677
  334MOL0     H45085   3.571   4.410   6.191  3.0897  3.1208  0.8036
  334MOL0     H45086   3.450   4.302   5.987 -2.3176 -0.2556  0.5541
  334MOL0     H45087   3.506   4.449   5.896  2.7906 -2.2844 -0.1513
  334MOL0     H45088   3.176   4.607   6.103  0.1762 -0.7859  0.6201
  334MOL0     H45089   3.775   4.103   6.432  0.0029  2.0769  0.4814
  334MOL0     H45090   3.604   4.036   6.605  2.1317  4.2911  0.4576
  335MOL0     O45091   8.932   7.738  11.100  0.1217 -0.6353  0.9332
  335MOL0     C45092   9.015   7.680  11.031  0.9810  0.0705  0.2921
  335MOL0     O45093   9.009   7.554  10.990  0.1480  0.0376  0.3898
  335MOL0     C45094   8.895   7.474  11.011 -0.8896 -0.4829 -0.1240
  335MOL0     C45095   8.779   7.503  11.080  0.0557  0.2790 -0.0462
  335MOL0     C45096   8.682   7.416  11.109  0.0372 -0.2297  0.2822
  335MOL0     C45097   8.700   7.283  11.068 -0.1706  1.1549 -0.6006
  335MOL0     O45098   8.605   7.185  11.096  0.2110 -0.3895  0.3340
  335MOL0     C45099   8.515   7.204  11.207  0.3197  0.0450  0.1515
  335MOL0     C45100   8.431   7.084  11.214  0.2695  0.1237  0.2955
  335MOL0     C45101   8.307   7.098  11.116 -0.4262 -0.1354  0.3378
  335MOL0     C45102   8.230   6.977  11.082  0.5322 -0.6311 -0.1268
  335MOL0     C45103   8.124   7.015  10.969 -0.0848 -0.2954  0.2565
  335MOL0     C45104   8.021   6.906  10.947  0.2199 -0.0791 -0.1983
  335MOL0     C45105   7.997   6.868  10.799  0.3634  0.3535 -0.7302
  335MOL0     C45106   7.856   6.811  10.764 -0.1854 -1.2168 -0.7153
  335MOL0     N45107   7.798   6.745  10.878  0.3545  1.0672 -0.6905
  335MOL0     C45108   7.819   6.610  10.912  1.0768 -0.1612  0.4229
  335MOL0     C45109   7.736   6.593  11.020 -0.6208 -0.1287 -0.4269
  335MOL0     C45110   7.715   6.456  11.073 -0.1195 -0.3333 -0.5992
  335MOL0     C45111   7.578   6.411  11.018  0.7104  0.9667  0.3386
  335MOL0     C45112   7.579   6.383  10.865 -0.8743 -0.5399  0.6381
  335MOL0     C45113   7.468   6.292  10.814 -0.4749 -0.7658 -0.2750
  335MOL0     O45114   7.401   6.352  10.706  0.5924 -0.2532  0.4965
  335MOL0     C45115   7.270   6.323  10.706  0.4755  1.4873  0.1584
  335MOL0     C45116   7.225   6.185  10.698 -1.5064  0.0100  0.0815
  335MOL0     C45117   7.089   6.155  10.678 -0.0829  0.1772  0.0407
  335MOL0     C45118   7.046   6.012  10.665  0.1216 -0.1532 -0.2298
  335MOL0     C45119   6.998   6.261  10.663  0.2147 -0.6486  0.5324
  335MOL0     C45120   6.852   6.236  10.632  0.3446 -0.7389 -0.2986
  335MOL0     O45121   6.774   6.344  10.665  0.1044 -0.2334 -0.4683
  335MOL0     C45122   6.642   6.354  10.635  0.1866  0.2191 -0.3341
  335MOL0     C45123   6.548   6.259  10.681  0.1049  0.4117 -0.0622
  335MOL0     C45124   6.410   6.273  10.666 -0.7869 -0.0986  0.6357
  335MOL0     C45125   6.363   6.384  10.592  0.5438  1.3239 -0.4053
  335MOL0     O45126   6.231   6.415  10.580 -0.1575 -0.0692 -0.2728
  335MOL0     C45127   6.164   6.466  10.697  0.1857  0.7891  0.3890
  335MOL0     C45128   6.106   6.601  10.677  0.8157  0.0885  0.4105
  335MOL0     C45129   6.008   6.654  10.786 -0.5190 -0.3583 -0.5127
  335MOL0     C45130   5.868   6.589  10.789 -0.2476 -0.0987  0.5274
  335MOL0     C45131   5.795   6.616  10.916  0.3508  0.1350 -0.6137
  335MOL0     C45132   5.655   6.563  10.927 -0.4691  0.9231  0.1411
  335MOL0     C45133   5.658   6.403  10.927  0.4872  0.0920 -0.2978
  335MOL0     C45134   5.525   6.341  10.986 -0.1857  0.4852 -0.3449
  335MOL0    Cl45135   5.389   6.401  10.873 -0.1347 -0.1122 -0.1565
  335MOL0     C45136   6.450   6.475  10.544  0.6252 -0.3018  0.0612
  335MOL0     C45137   6.587   6.460  10.559 -0.2279  0.1349 -0.1676
  335MOL0     O45138   6.803   6.130  10.591 -0.7181  0.3606  0.3650
  335MOL0     C45139   7.042   6.399  10.684  0.0728 -0.6061  0.5430
  335MOL0     C45140   7.179   6.425  10.700  0.6160 -0.1985 -0.5884
  335MOL0     N45141   7.670   6.717  11.053  0.7967 -0.0406 -0.4465
  335MOL0     N45142   7.713   6.805  10.970  0.2133  0.0600  0.3822
  335MOL0     C45143   8.816   7.240  11.009 -0.7152  0.4092 -0.4995
  335MOL0     C45144   8.908   7.342  10.976 -0.0980  0.9014 -0.3126
  335MOL0     C45145   9.133   7.762  10.982  1.1238 -0.0037 -0.4142
  335MOL0     C45146   9.250   7.689  10.951 -0.3491 -0.0210  0.3122
  335MOL0     C45147   9.369   7.761  10.899  0.2165  1.2728  0.7041
  335MOL0     C45148   9.362   7.898  10.881  0.0240 -0.5441  0.2631
  335MOL0     O45149   9.472   7.950  10.830  0.0075 -0.3382 -0.2178
  335MOL0     C45150   9.464   7.996  10.697  0.5786 -0.8462 -0.3106
  335MOL0     C45151   9.601   8.039  10.638 -0.6230 -1.1393  0.3270
  335MOL0     C45152   9.699   7.933  10.664 -0.2728  0.4111  0.7495
  335MOL0     C45153   9.841   7.973  10.617 -0.4063 -1.1202  0.4298
  335MOL0     C45154   9.841   7.962  10.467  0.3668 -0.1664 -0.7051
  335MOL0     C45155   9.836   7.938  10.346  0.0764 -0.3307 -1.1040
  335MOL0     C45156   9.243   7.971  10.910 -0.0175 -0.0313 -0.4913
  335MOL0     C45157   9.136   7.899  10.966  0.7886 -0.0567 -0.4684
  335MOL0     H45158   8.760   7.600  11.123 -2.2471 -0.1583  0.0601
  335MOL0     H45159   8.590   7.448  11.156 -1.1567 -2.8289 -0.0833
  335MOL0     H45160   8.582   7.205  11.293  0.7396  0.9190 -0.1724
  335MOL0     H45161   8.457   7.297  11.204  0.6557  0.2346 -1.8608
  335MOL0     H45162   8.485   6.995  11.182 -4.0110 -2.2579 -1.0909
  335MOL0     H45163   8.400   7.084  11.319  3.8634  0.3110  1.5105
  335MOL0     H45164   8.236   7.170  11.159  0.6519 -0.8296  3.5865
  335MOL0     H45165   8.344   7.149  11.027 -0.2617 -1.2734 -0.2714
  335MOL0     H45166   8.302   6.899  11.054  1.8522 -0.1208  1.6553
  335MOL0     H45167   8.168   6.965  11.171  2.1514 -2.2731  0.8591
  335MOL0     H45168   8.080   7.106  11.011 -0.0922 -0.5204  0.7388
  335MOL0     H45169   8.164   7.041  10.871  0.3361 -0.3913  0.3979
  335MOL0     H45170   8.058   6.826  11.012  3.7997  1.9817  0.5661
  335MOL0     H45171   7.932   6.957  10.985 -0.8171 -1.6921 -0.3594
  335MOL0     H45172   8.000   6.951  10.728 -3.5038 -0.2437 -1.8282
  335MOL0     H45173   8.079   6.799  10.779  0.0608 -0.3472  0.3561
  335MOL0     H45174   7.861   6.741  10.680 -0.6915 -1.1514 -0.8021
  335MOL0     H45175   7.791   6.890  10.725  0.9151  0.8959  1.4454
  335MOL0     H45176   7.878   6.539  10.855  0.6984 -2.0899  2.3217
  335MOL0     H45177   7.800   6.392  11.047  1.8089  0.8843  2.1146
  335MOL0     H45178   7.704   6.462  11.182 -1.3402  0.3930 -0.7547
  335MOL0     H45179   7.495   6.477  11.042 -1.3852 -2.1421  2.4085
  335MOL0     H45180   7.569   6.318  11.074  1.7816  0.7088  0.1229
  335MOL0     H45181   7.680   6.345  10.850 -0.7005 -0.5403  1.6914
  335MOL0     H45182   7.569   6.474  10.806  0.8741 -0.9051 -0.2771
  335MOL0     H45183   7.398   6.263  10.892 -0.1523 -0.0033  0.3042
  335MOL0     H45184   7.502   6.197  10.771  1.9495  0.0469 -0.3069
  335MOL0     H45185   7.295   6.103  10.708 -2.2012 -0.4458  1.4725
  335MOL0     H45186   7.016   6.001  10.560  0.1284 -1.1196 -0.1450
  335MOL0     H45187   7.128   5.941  10.681 -1.3434 -1.4737  1.9438
  335MOL0     H45188   6.969   5.977  10.734 -1.3383  0.9087 -1.2475
  335MOL0     H45189   6.579   6.170  10.736  0.8229  1.6124  1.5703
  335MOL0     H45190   6.338   6.201  10.704 -2.0534  1.6124  1.6201
  335MOL0     H45191   6.085   6.395  10.720  2.3610 -1.8968  0.1323
  335MOL0     H45192   6.244   6.475  10.771  1.8457  0.8094 -1.3203
  335MOL0     H45193   6.181   6.680  10.670  1.8894 -0.9080  0.4185
  335MOL0     H45194   6.064   6.610  10.576  3.6594  1.5040 -0.7660
  335MOL0     H45195   6.006   6.758  10.753  2.3072 -0.4681 -1.3252
  335MOL0     H45196   6.055   6.644  10.884 -1.0219 -0.5203 -0.2867
  335MOL0     H45197   5.803   6.630  10.711 -0.8505  1.1292  1.6327
  335MOL0     H45198   5.873   6.481  10.775  1.9871 -0.1620  1.3822
  335MOL0     H45199   5.788   6.725  10.924  3.4501  0.5593 -2.2284
  335MOL0     H45200   5.846   6.583  11.007 -2.2237 -0.6927  0.6328
  335MOL0     H45201   5.606   6.601  11.016  2.7845  2.4047  1.4569
  335MOL0     H45202   5.597   6.596  10.841 -1.4756  1.4104  0.9902
  335MOL0     H45203   5.739   6.375  10.995 -0.9086  0.3831  1.5746
  335MOL0     H45204   5.677   6.358  10.829  0.5508 -0.1831 -0.1609
  335MOL0     H45205   5.506   6.385  11.085 -0.3198  0.2300 -0.2557
  335MOL0     H45206   5.535   6.234  11.005  0.1794  0.6379  0.3771
  335MOL0     H45207   6.411   6.570  10.506 -0.5622 -1.4068 -1.6393
  335MOL0     H45208   6.647   6.538  10.514  1.8244 -2.9314 -3.2619
  335MOL0     H45209   6.975   6.484  10.677  1.2003  0.2353 -0.5275
  335MOL0     H45210   7.224   6.523  10.689  0.2077  0.0274 -0.2718
  335MOL0     H45211   8.842   7.137  10.988 -1.6045 -0.7004  3.1328
  335MOL0     H45212   9.001   7.318  10.925 -0.3813  1.2086 -0.9846
  335MOL0     H45213   9.252   7.581  10.962 -1.4199 -0.1807 -0.7538
  335MOL0     H45214   9.463   7.710  10.882 -0.9674 -1.2906  1.3940
  335MOL0     H45215   9.438   7.908  10.636  2.3319 -0.2512 -2.0425
  335MOL0     H45216   9.391   8.075  10.682  2.7078  0.8356 -2.7892
  335MOL0     H45217   9.632   8.137  10.675  0.6525 -1.8005  1.1048
  335MOL0     H45218   9.591   8.044  10.529  1.8546 -1.6488  0.0140
  335MOL0     H45219   9.686   7.839  10.610  3.0487  0.0190  0.4347
  335MOL0     H45220   9.704   7.915  10.772  1.9154  0.4401  0.6979
  335MOL0     H45221   9.921   7.906  10.652 -0.0590 -1.3352 -0.7387
  335MOL0     H45222   9.862   8.077  10.645  0.9550 -1.2844  0.1147
  335MOL0     H45223   9.860   7.907  10.246  2.6809 -0.4934 -0.4794
  335MOL0     H45224   9.252   8.077  10.893 -0.3370 -0.2962 -2.5385
  335MOL0     H45225   9.043   7.946  10.996 -0.7676 -2.8060 -0.6021
  336MOL0     O45226   7.322   9.261   1.291  0.4637 -0.1451  0.2157
  336MOL0     C45227   7.383   9.295   1.396  0.7531  0.1709 -0.5240
  336MOL0     O45228   7.336   9.301   1.525  0.5669  0.0466  0.5601
  336MOL0     C45229   7.200   9.248   1.558 -1.1806  0.1835  0.2908
  336MOL0     C45230   7.086   9.276   1.485  0.0605 -1.5378  0.6364
  336MOL0     C45231   6.965   9.250   1.534  0.6238  0.1993 -0.5967
  336MOL0     C45232   6.945   9.179   1.655  0.1914 -0.2398  0.3091
  336MOL0     O45233   6.819   9.156   1.698  0.5185  0.5857 -0.0480
  336MOL0     C45234   6.748   9.070   1.609 -1.1874  0.8095  0.0158
  336MOL0     C45235   6.606   9.052   1.657 -0.1333  0.3512  0.3488
  336MOL0     C45236   6.543   8.947   1.570 -0.4131 -0.5162  0.0898
  336MOL0     C45237   6.458   9.023   1.460  0.2661 -0.2800  0.6168
  336MOL0     C45238   6.390   8.935   1.357  0.8755 -0.2018  0.1131
  336MOL0     C45239   6.312   9.026   1.257 -0.3113  0.2047 -0.0658
  336MOL0     C45240   6.244   8.924   1.159 -0.1030 -0.0641 -0.6443
  336MOL0     C45241   6.133   8.994   1.069 -0.8350  0.3304 -0.0323
  336MOL0     N45242   5.998   9.000   1.124  0.5646  0.8014 -0.3699
  336MOL0     C45243   5.892   9.042   1.044 -0.4341 -0.4391 -0.4659
  336MOL0     C45244   5.785   9.035   1.121  0.0686  0.0619 -0.0928
  336MOL0     C45245   5.636   9.048   1.081  0.0388 -0.1878  0.2490
  336MOL0     C45246   5.544   8.949   1.142  0.8960  0.7689 -0.0385
  336MOL0     C45247   5.397   8.961   1.084 -0.2185  1.2877 -0.2981
  336MOL0     C45248   5.309   8.845   1.134 -0.3210  0.0501 -0.3839
  336MOL0     O45249   5.189   8.831   1.057  0.2021  0.5238 -0.6654
  336MOL0     C45250   5.066   8.822   1.117 -0.1028 -0.3505 -0.6786
  336MOL0     C45251   5.035   8.805   1.260  0.0036  0.5383  0.2192
  336MOL0     C45252   4.902   8.790   1.304 -0.1219 -0.1167  0.5072
  336MOL0     C45253   4.871   8.747   1.441  0.4435 -0.1554 -0.4908
  336MOL0     C45254   4.799   8.787   1.208 -0.2193 -0.1666  0.2711
  336MOL0     C45255   4.657   8.767   1.245  0.1717  0.0296 -0.1591
  336MOL0     O45256   4.581   8.686   1.158 -0.3833 -0.1329 -0.4277
  336MOL0     C45257   4.449   8.658   1.187  0.2648 -0.1522 -0.0936
  336MOL0     C45258   4.415   8.520   1.158  0.7871 -1.0066  0.3319
  336MOL0     C45259   4.282   8.475   1.185 -0.0806  0.5698 -0.5092
  336MOL0     C45260   4.180   8.562   1.230  0.4910  0.3413  0.3486
  336MOL0     O45261   4.048   8.541   1.252  0.4858  1.0426 -0.2061
  336MOL0     C45262   3.962   8.528   1.137 -0.6282 -0.7436 -0.1512
  336MOL0     C45263   3.857   8.625   1.175 -0.0802 -0.6843 -0.6862
  336MOL0     C45264   3.755   8.555   1.269 -0.3802 -0.3076  0.7209
  336MOL0     C45265   3.682   8.657   1.353  0.5250 -1.1712 -0.1197
  336MOL0     C45266   3.542   8.604   1.377 -0.1519 -0.0154  0.1276
  336MOL0     C45267   3.484   8.664   1.503  0.2478  0.4462 -0.4092
  336MOL0     C45268   3.416   8.787   1.459  0.0689 -0.5172 -0.4877
  336MOL0     C45269   3.370   8.865   1.589 -0.3587 -0.0558  0.5654
  336MOL0    Cl45270   3.229   8.781   1.664  0.0972  0.1415  0.3767
  336MOL0     C45271   4.219   8.694   1.263 -0.1000 -0.3027  0.8098
  336MOL0     C45272   4.352   8.744   1.234 -0.1538  0.3844  0.5167
  336MOL0     O45273   4.615   8.821   1.346 -0.1374 -0.2809 -0.0953
  336MOL0     C45274   4.832   8.794   1.075  0.1035 -0.8523 -0.3613
  336MOL0     C45275   4.965   8.816   1.025  0.1511  1.0769  0.1854
  336MOL0     N45276   5.818   9.002   1.256 -0.5948 -0.2046 -0.0525
  336MOL0     N45277   5.951   8.968   1.249 -0.7019 -0.0074  0.4272
  336MOL0     C45278   7.061   9.147   1.736 -0.1921 -0.3183 -0.0832
  336MOL0     C45279   7.190   9.183   1.681 -0.4394  0.4087  0.2963
  336MOL0     C45280   7.524   9.334   1.369 -0.6705  0.1712  0.2245
  336MOL0     C45281   7.595   9.395   1.472  0.3785  0.5414 -0.1722
  336MOL0     C45282   7.728   9.422   1.450 -0.1460 -0.1589  0.0411
  336MOL0     C45283   7.790   9.385   1.333  0.1341  0.8111 -0.0844
  336MOL0     O45284   7.916   9.447   1.318  0.1900  0.9393 -0.3187
  336MOL0     C45285   8.012   9.412   1.223 -0.6906 -0.3658 -0.1957
  336MOL0     C45286   8.141   9.485   1.249 -0.3216  0.6762 -0.0078
  336MOL0     C45287   8.122   9.626   1.298  0.5127 -0.4107  0.0416
  336MOL0     C45288   8.242   9.721   1.287 -0.4916  0.4164  0.3537
  336MOL0     C45289   8.367   9.663   1.338  0.4193 -0.0851  0.2005
  336MOL0     C45290   8.467   9.613   1.388  0.1837 -1.4452 -0.5128
  336MOL0     C45291   7.718   9.325   1.230 -0.1313  1.4192  0.1638
  336MOL0     C45292   7.583   9.302   1.247 -0.2175  0.6241 -0.2369
  336MOL0     H45293   7.087   9.331   1.391  0.9474  0.2630  1.6379
  336MOL0     H45294   6.885   9.280   1.467  0.7168 -0.3109 -0.9457
  336MOL0     H45295   6.747   9.105   1.505 -0.1328 -0.6834 -0.5218
  336MOL0     H45296   6.803   8.976   1.605 -0.6455  1.0733  0.9738
  336MOL0     H45297   6.628   9.015   1.757  0.8675  3.0061  1.1919
  336MOL0     H45298   6.555   9.149   1.654  4.0146  2.7709 -2.7130
  336MOL0     H45299   6.627   8.888   1.533 -1.0556 -2.8166  2.0764
  336MOL0     H45300   6.473   8.889   1.630 -0.2953  0.5858  1.3416
  336MOL0     H45301   6.376   9.077   1.509 -1.0438 -1.3928 -0.2856
  336MOL0     H45302   6.527   9.089   1.407  1.1861 -2.9068 -1.6977
  336MOL0     H45303   6.464   8.874   1.304  1.2611 -3.0559  3.5458
  336MOL0     H45304   6.318   8.863   1.396  1.0004 -1.3625 -1.6951
  336MOL0     H45305   6.237   9.070   1.323 -0.8489  0.1828 -0.6504
  336MOL0     H45306   6.372   9.104   1.211 -0.9871  2.1405  2.1371
  336MOL0     H45307   6.314   8.882   1.087 -0.2355 -0.1078 -0.7482
  336MOL0     H45308   6.200   8.840   1.214 -0.2889 -0.4390 -1.3442
  336MOL0     H45309   6.116   8.927   0.984 -0.3824 -0.8585  0.7816
  336MOL0     H45310   6.171   9.084   1.020  2.5786 -2.0280 -2.1603
  336MOL0     H45311   5.900   9.072   0.940 -3.0792  3.2485  0.1884
  336MOL0     H45312   5.591   9.146   1.098  1.6582  0.8538 -1.1945
  336MOL0     H45313   5.636   9.049   0.971  0.1899  0.8775  0.2486
  336MOL0     H45314   5.543   8.958   1.251 -0.9573 -2.7935  0.3817
  336MOL0     H45315   5.587   8.854   1.110 -1.9728  0.3448 -3.2702
  336MOL0     H45316   5.406   8.975   0.975 -0.0492 -2.6018 -0.9154
  336MOL0     H45317   5.363   9.051   1.136  0.8106  2.7626 -2.0014
  336MOL0     H45318   5.289   8.864   1.239  0.4902 -1.2423  0.0242
  336MOL0     H45319   5.365   8.751   1.130 -2.8393 -1.4990 -1.2373
  336MOL0     H45320   5.104   8.804   1.344 -1.8935  3.6386  2.0201
  336MOL0     H45321   4.812   8.823   1.494 -0.5898 -1.9156  0.9835
  336MOL0     H45322   4.816   8.653   1.443 -1.5666  0.9526 -0.8072
  336MOL0     H45323   4.966   8.740   1.494  1.2746 -2.3287 -2.1351
  336MOL0     H45324   4.499   8.461   1.124  2.0003 -1.3070  3.5055
  336MOL0     H45325   4.265   8.371   1.163 -1.5809  0.7044 -0.0609
  336MOL0     H45326   4.025   8.560   1.053  2.9454  3.2437  3.5484
  336MOL0     H45327   3.919   8.428   1.126 -1.0057 -0.9654  2.6089
  336MOL0     H45328   3.889   8.725   1.205 -2.2425 -0.3858  0.8983
  336MOL0     H45329   3.798   8.641   1.084  0.4003  1.8640 -0.6283
  336MOL0     H45330   3.804   8.487   1.339  2.5625  2.6474  1.8132
  336MOL0     H45331   3.681   8.505   1.206 -0.9650  1.0670  0.2664
  336MOL0     H45332   3.733   8.682   1.446 -0.1641  1.6945 -0.4395
  336MOL0     H45333   3.673   8.745   1.289 -0.7762 -1.3407 -0.1872
  336MOL0     H45334   3.545   8.496   1.388 -0.5481  0.0805  1.3997
  336MOL0     H45335   3.469   8.625   1.299 -1.3694  0.2692  1.3151
  336MOL0     H45336   3.412   8.592   1.543 -0.5899  0.8521 -1.1651
  336MOL0     H45337   3.557   8.692   1.580 -0.9569 -0.4414  1.1095
  336MOL0     H45338   3.330   8.765   1.395 -0.2142  0.0570 -0.3119
  336MOL0     H45339   3.487   8.851   1.407  1.6524 -1.4439  0.4672
  336MOL0     H45340   3.340   8.968   1.571 -0.7201 -0.1936  0.3645
  336MOL0     H45341   3.457   8.863   1.655 -0.2322 -2.9648  0.4458
  336MOL0     H45342   4.139   8.758   1.299 -0.5923  0.1022 -0.9448
  336MOL0     H45343   4.364   8.851   1.250 -1.2370  0.3401  1.8186
  336MOL0     H45344   4.744   8.801   1.011 -1.5007  2.3174  1.8809
  336MOL0     H45345   4.980   8.821   0.918  1.5808  3.3081  0.4383
  336MOL0     H45346   7.060   9.097   1.832 -1.0187  3.0668  1.8425
  336MOL0     H45347   7.279   9.165   1.741 -1.7982 -2.4564  1.6770
  336MOL0     H45348   7.543   9.420   1.563  3.2502  1.3429  1.3702
  336MOL0     H45349   7.788   9.482   1.519  1.1230 -0.8374 -0.4552
  336MOL0     H45350   8.022   9.303   1.222 -0.7389 -0.3678 -1.1057
  336MOL0     H45351   7.969   9.447   1.128  0.1491 -0.7186 -0.7195
  336MOL0     H45352   8.185   9.484   1.149 -2.2710  0.7032 -0.9001
  336MOL0     H45353   8.202   9.423   1.316 -1.9704 -1.8278 -0.7028
  336MOL0     H45354   8.092   9.627   1.404 -1.5989 -1.4469 -0.5084
  336MOL0     H45355   8.037   9.668   1.244 -0.8702  1.0380  3.0534
  336MOL0     H45356   8.220   9.813   1.342 -2.8066  1.1356 -1.6227
  336MOL0     H45357   8.269   9.738   1.182 -0.7482 -2.0026 -0.1651
  336MOL0     H45358   8.556   9.588   1.442 -0.4531  1.1924  2.0581
  336MOL0     H45359   7.767   9.310   1.134 -0.8410  1.0205 -0.1400
  336MOL0     H45360   7.531   9.255   1.164  0.0845 -3.9944  1.8680
  337MOL0     O45361   5.146   8.946   0.300 -0.3478  0.1010  0.3218
  337MOL0     C45362   5.206   8.997   0.205 -0.8344 -0.2857 -0.5398
  337MOL0     O45363   5.153   9.054   0.097 -0.2440 -0.2129  0.1578
  337MOL0     C45364   5.017   9.050   0.068 -0.7542 -0.5152 -0.5372
  337MOL0     C45365   4.934   8.948   0.117  1.1273 -0.4888 -0.4092
  337MOL0     C45366   4.812   8.934   0.060 -0.2302 -0.6417  0.1975
  337MOL0     C45367   4.757   9.036  -0.025  0.5703  0.2229 -0.2046
  337MOL0     O45368   4.645   9.034  -0.099  0.5866  1.0192 -0.1264
  337MOL0     C45369   4.555   8.929  -0.052  0.8321  0.1461  0.7939
  337MOL0     C45370   4.425   8.944  -0.135 -1.4653  0.0212 -1.3881
  337MOL0     C45371   4.296   8.890  -0.051  0.1243 -0.0511  0.5688
  337MOL0     C45372   4.185   8.842  -0.144  0.7223 -0.2029 -1.3807
  337MOL0     C45373   4.054   8.831  -0.066  0.4217 -0.4029  0.8197
  337MOL0     C45374   3.958   8.765  -0.166 -0.3468  0.1888 -0.4404
  337MOL0     C45375   3.819   8.724  -0.113  0.8397  0.0847 -0.2800
  337MOL0     C45376   3.744   8.843  -0.044  0.5178  0.6948  0.2391
  337MOL0     N45377   3.607   8.812  -0.013  0.5689  0.7027  0.6861
  337MOL0     C45378   3.565   8.789   0.116 -0.2735 -0.6354  0.1944
  337MOL0     C45379   3.430   8.802   0.102  0.0098  0.6319 -0.4260
  337MOL0     C45380   3.330   8.789   0.220  0.2215  0.0473  0.5619
  337MOL0     C45381   3.222   8.895   0.221  0.2344  0.0853  0.4404
  337MOL0     C45382   3.109   8.849   0.303  0.9505 -0.9921  0.1593
  337MOL0     C45383   2.971   8.919   0.266 -0.2704  0.7517  0.3864
  337MOL0     O45384   2.858   8.845   0.321  0.1831 -0.7804  0.0219
  337MOL0     C45385   2.729   8.894   0.291  0.5490 -0.4523 -0.3153
  337MOL0     C45386   2.619   8.814   0.321 -0.0839 -0.7844  0.5497
  337MOL0     C45387   2.489   8.863   0.309  0.6667  0.4794 -0.4613
  337MOL0     C45388   2.376   8.774   0.359  0.0302  0.0363  0.1904
  337MOL0     C45389   2.464   8.995   0.259  0.2067  0.3513 -0.2581
  337MOL0     C45390   2.326   9.058   0.258 -0.2106 -0.3736  0.9041
  337MOL0     O45391   2.228   9.040   0.354 -0.0606 -0.2660  0.1965
  337MOL0     C45392   2.121   9.120   0.364 -0.1572  0.8413 -0.0558
  337MOL0     C45393   1.999   9.066   0.336 -0.0264  0.3027  0.1069
  337MOL0     C45394   1.889   9.147   0.338 -0.0307  0.0393  0.0969
  337MOL0     C45395   1.890   9.288   0.350 -0.7880 -0.6051 -0.6074
  337MOL0     O45396   1.769   9.350   0.365  0.5090 -0.2142 -0.0618
  337MOL0     C45397   1.768   9.496   0.348 -0.1368 -0.5985  0.1256
  337MOL0     C45398   1.637   9.556   0.396 -0.0783 -0.8269  0.0577
  337MOL0     C45399   1.515   9.511   0.327  0.6205  0.4240 -0.3476
  337MOL0     C45400   1.388   9.609   0.342  0.3098  0.2098  0.3389
  337MOL0     C45401   1.252   9.548   0.300 -0.0865 -0.0476 -0.1342
  337MOL0     C45402   1.149   9.653   0.284 -0.0426  0.2334  0.1316
  337MOL0     C45403   1.034   9.594   0.206 -0.1408  0.7288  0.3372
  337MOL0     C45404   0.903   9.666   0.234  0.2965  0.3267  0.4928
  337MOL0    Cl45405   0.914   9.833   0.179 -0.3468 -0.1837  0.1112
  337MOL0     C45406   2.013   9.347   0.376 -0.1303  0.0832 -0.6527
  337MOL0     C45407   2.129   9.264   0.377  0.2584 -0.6115 -0.8432
  337MOL0     O45408   2.312   9.135   0.158 -0.3509  0.2183  0.0939
  337MOL0     C45409   2.572   9.071   0.221  0.8235  0.7541 -0.1710
  337MOL0     C45410   2.700   9.029   0.254 -0.2211  0.2669  0.1890
  337MOL0     N45411   3.392   8.818  -0.031 -0.2973  0.2384  1.2489
  337MOL0     N45412   3.500   8.825  -0.095  0.1340 -0.7216 -0.1449
  337MOL0     C45413   4.833   9.149  -0.058 -0.2634  0.1542  0.2865
  337MOL0     C45414   4.970   9.146  -0.015  0.7708  0.3709 -0.0604
  337MOL0     C45415   5.356   8.996   0.216  0.5983 -0.0943  0.0141
  337MOL0     C45416   5.426   8.924   0.316  0.3646  0.2712  0.1094
  337MOL0     C45417   5.563   8.909   0.317 -0.4157  0.6185 -0.0808
  337MOL0     C45418   5.637   8.957   0.209 -0.1287 -0.0604  0.1038
  337MOL0     O45419   5.771   8.953   0.184  0.1238 -0.0134 -0.1217
  337MOL0     C45420   5.849   8.870   0.270 -0.6143 -0.0127 -0.4481
  337MOL0     C45421   5.993   8.875   0.214  1.0449 -0.2432  0.2175
  337MOL0     C45422   6.077   9.000   0.263  0.4508  0.0773  0.3688
  337MOL0     C45423   6.218   8.986   0.215  0.7288  0.6070  0.2986
  337MOL0     C45424   6.277   9.113   0.199 -0.1817 -0.1285  0.2489
  337MOL0     C45425   6.320   9.221   0.193  0.0516  0.5434  0.1931
  337MOL0     C45426   5.572   9.029   0.110  0.2875 -0.3060  0.3505
  337MOL0     C45427   5.433   9.041   0.108 -0.1653  0.2941  0.2841
  337MOL0     H45428   4.958   8.868   0.186  1.7496 -2.7660 -3.0834
  337MOL0     H45429   4.760   8.840   0.076  0.6152 -1.4935 -1.8059
  337MOL0     H45430   4.594   8.827  -0.059  0.5788  0.1647 -1.5107
  337MOL0     H45431   4.526   8.957   0.050  0.9219 -0.9844  1.1382
  337MOL0     H45432   4.398   9.044  -0.168 -1.2559  0.7980  0.6812
  337MOL0     H45433   4.443   8.882  -0.223 -0.9432 -1.3514 -0.3509
  337MOL0     H45434   4.320   8.811   0.021 -0.4476 -0.1256  0.6815
  337MOL0     H45435   4.252   8.973   0.005 -1.3739  0.0959 -0.7646
  337MOL0     H45436   4.177   8.916  -0.224  0.4977  0.4849 -0.7307
  337MOL0     H45437   4.213   8.744  -0.185  0.6963 -0.6973 -0.2364
  337MOL0     H45438   4.067   8.774   0.027  2.2674  0.4304  1.1235
  337MOL0     H45439   4.033   8.935  -0.043  0.0289 -0.5026  0.9138
  337MOL0     H45440   3.925   8.831  -0.247 -3.5265  1.8023  1.9426
  337MOL0     H45441   4.004   8.675  -0.209  1.2000 -0.2878  2.0328
  337MOL0     H45442   3.755   8.696  -0.198 -1.8005  5.3553 -0.4159
  337MOL0     H45443   3.818   8.647  -0.036 -1.0039 -0.3884 -0.7233
  337MOL0     H45444   3.747   8.926  -0.116 -0.8198 -1.0604 -1.9724
  337MOL0     H45445   3.792   8.864   0.052  0.5171 -1.6967  0.8171
  337MOL0     H45446   3.625   8.778   0.206  1.5217  0.2090 -0.8291
  337MOL0     H45447   3.288   8.688   0.211 -1.3879  0.5631  1.7653
  337MOL0     H45448   3.377   8.792   0.318 -1.2852 -1.6026  1.3759
  337MOL0     H45449   3.200   8.926   0.118 -0.3146 -1.0814  0.1938
  337MOL0     H45450   3.257   8.989   0.265  1.6355 -0.5837  0.8021
  337MOL0     H45451   3.129   8.878   0.407  0.6801 -0.2060 -0.0026
  337MOL0     H45452   3.092   8.741   0.301 -3.0352 -0.5778  1.2927
  337MOL0     H45453   2.954   8.917   0.158 -2.5259 -3.2010  0.6068
  337MOL0     H45454   2.958   9.018   0.310 -1.2909  0.5347  0.6100
  337MOL0     H45455   2.637   8.712   0.355 -0.4675 -1.0872 -0.1226
  337MOL0     H45456   2.303   8.760   0.279 -2.5515  1.0937  2.2247
  337MOL0     H45457   2.406   8.676   0.397 -1.3169 -1.7721 -2.9476
  337MOL0     H45458   2.309   8.818   0.432 -1.5086 -2.2362  0.2575
  337MOL0     H45459   1.974   8.965   0.304  0.1831  0.5804 -0.9783
  337MOL0     H45460   1.794   9.099   0.319 -0.1137  0.3481 -0.2908
  337MOL0     H45461   1.849   9.529   0.413 -0.1828 -1.6139  0.7287
  337MOL0     H45462   1.784   9.532   0.246 -2.3161 -1.3099 -0.5354
  337MOL0     H45463   1.619   9.542   0.503 -0.4111 -0.1939  0.0881
  337MOL0     H45464   1.640   9.664   0.380  0.1226 -0.4091  2.4546
  337MOL0     H45465   1.480   9.410   0.347 -0.3822  0.8007 -0.1480
  337MOL0     H45466   1.530   9.501   0.219 -0.8437 -2.7005 -0.3499
  337MOL0     H45467   1.380   9.639   0.447  3.0129  3.9072 -0.3130
  337MOL0     H45468   1.404   9.704   0.289  0.7611  0.0064  0.1022
  337MOL0     H45469   1.218   9.482   0.381  1.6003  1.6041  2.0533
  337MOL0     H45470   1.267   9.499   0.203  4.7595  0.2507  0.2132
  337MOL0     H45471   1.120   9.684   0.386  2.9767  0.9625  0.8663
  337MOL0     H45472   1.176   9.741   0.225  1.3436  1.1893  2.0653
  337MOL0     H45473   1.009   9.488   0.217 -2.2235  1.0078 -1.0384
  337MOL0     H45474   1.062   9.599   0.100 -0.5659  0.0763  0.1836
  337MOL0     H45475   0.892   9.664   0.342  3.0010 -0.4474  0.8047
  337MOL0     H45476   0.821   9.615   0.181  0.7353 -4.1476  3.6000
  337MOL0     H45477   2.024   9.451   0.402 -3.1852  0.4205 -0.4244
  337MOL0     H45478   2.223   9.313   0.400 -0.9635  1.6689 -0.4127
  337MOL0     H45479   2.560   9.171   0.179 -0.3349  0.8416  0.3270
  337MOL0     H45480   2.779   9.101   0.238 -1.7358  1.8333 -0.6004
  337MOL0     H45481   4.787   9.230  -0.115  0.1976 -0.3158 -0.7868
  337MOL0     H45482   5.034   9.227  -0.047 -1.3192  1.9542 -0.5178
  337MOL0     H45483   5.377   8.879   0.403  0.9242 -1.4292 -0.4140
  337MOL0     H45484   5.623   8.864   0.396 -0.0337 -0.5045 -0.9813
  337MOL0     H45485   5.850   8.894   0.377  0.2207  0.1726 -0.4893
  337MOL0     H45486   5.823   8.765   0.260 -0.3538  0.1278 -3.1723
  337MOL0     H45487   5.980   8.881   0.105 -0.7808  1.6261  0.4567
  337MOL0     H45488   6.041   8.782   0.246  0.0977 -0.7186  0.2900
  337MOL0     H45489   6.080   9.013   0.372 -2.4082 -0.1632  0.5498
  337MOL0     H45490   6.030   9.084   0.210 -0.2732 -1.5352 -1.6478
  337MOL0     H45491   6.220   8.939   0.116  0.0659  2.5695 -0.6836
  337MOL0     H45492   6.280   8.922   0.279  1.1053  0.3818 -0.2808
  337MOL0     H45493   6.358   9.320   0.178  2.3793 -0.3252 -0.0201
  337MOL0     H45494   5.639   9.081   0.042 -0.5319  0.9281  0.4582
  337MOL0     H45495   5.388   9.097   0.026  0.8514  0.9195  0.1284
  338MOL0     O45496   6.687   3.243  10.183 -0.1624 -0.1446  0.5874
  338MOL0     C45497   6.732   3.352  10.153 -0.7300 -0.4877  0.7136
  338MOL0     O45498   6.648   3.455  10.112 -0.0106  0.2098  0.0664
  338MOL0     C45499   6.515   3.442  10.135  0.1505  0.7267 -1.2152
  338MOL0     C45500   6.421   3.397  10.046  0.0166 -0.3424  0.0822
  338MOL0     C45501   6.289   3.387  10.082  0.0204 -0.2869 -0.6914
  338MOL0     C45502   6.245   3.414  10.209 -0.4969  0.5917 -0.0257
  338MOL0     O45503   6.110   3.418  10.246 -0.3418 -0.5164  0.3417
  338MOL0     C45504   6.008   3.377  10.160  0.1809  0.7007  0.1992
  338MOL0     C45505   5.898   3.319  10.236 -0.3170 -0.0214 -0.1695
  338MOL0     C45506   5.792   3.251  10.149 -0.0856  0.4399  0.1634
  338MOL0     C45507   5.688   3.162  10.220  0.3115 -0.0774  0.5221
  338MOL0     C45508   5.596   3.242  10.318 -0.6434 -0.0257  0.5372
  338MOL0     C45509   5.477   3.155  10.377  0.5189 -0.6523 -0.2243
  338MOL0     C45510   5.427   3.230  10.511  1.4221 -0.3708  0.0114
  338MOL0     C45511   5.303   3.154  10.556  0.2261 -0.7902  0.4060
  338MOL0     N45512   5.181   3.235  10.598 -0.5280  0.3449  0.3191
  338MOL0     C45513   5.066   3.164  10.611  1.3408 -0.5897  0.1519
  338MOL0     C45514   4.985   3.249  10.696 -0.5349 -0.8486 -0.5682
  338MOL0     C45515   4.850   3.243  10.749  0.7006  0.9275 -0.3786
  338MOL0     C45516   4.747   3.241  10.644  0.5095 -0.6918  0.4775
  338MOL0     C45517   4.604   3.200  10.691  0.2722 -0.3559 -0.3819
  338MOL0     C45518   4.536   3.290  10.801 -0.6090  0.3363 -0.6260
  338MOL0     O45519   4.511   3.419  10.755 -0.3304 -0.4875 -0.2648
  338MOL0     C45520   4.387   3.452  10.700 -0.4424  0.0536 -0.0148
  338MOL0     C45521   4.299   3.352  10.657 -0.3940  0.0221 -0.3339
  338MOL0     C45522   4.177   3.372  10.595  0.9364  0.3961 -0.0384
  338MOL0     C45523   4.084   3.257  10.550 -0.1656  0.3639 -0.8371
  338MOL0     C45524   4.130   3.508  10.586 -0.3415 -0.5390 -0.5380
  338MOL0     C45525   3.997   3.547  10.537 -0.6835 -0.0847 -0.4513
  338MOL0     O45526   3.974   3.500  10.413 -0.3534 -0.4185  0.2235
  338MOL0     C45527   3.858   3.545  10.360  0.4549  0.2843  0.0596
  338MOL0     C45528   3.845   3.668  10.296 -0.4113 -0.4257 -0.4257
  338MOL0     C45529   3.721   3.711  10.241 -0.2967  0.8697  1.1381
  338MOL0     C45530   3.605   3.640  10.258 -0.5390  0.2349  0.0072
  338MOL0     O45531   3.483   3.692  10.214 -0.0883  0.1191 -0.8360
  338MOL0     C45532   3.363   3.644  10.277 -0.7670 -0.3754  0.0124
  338MOL0     C45533   3.250   3.711  10.200  0.3899 -0.3260 -0.9336
  338MOL0     C45534   3.115   3.652  10.240  0.1762  0.2426 -0.8951
  338MOL0     C45535   3.003   3.741  10.182  0.5385  0.2747 -0.4714
  338MOL0     C45536   2.865   3.674  10.200 -0.8426 -0.5151 -0.4855
  338MOL0     C45537   2.747   3.771  10.166  0.2741 -0.1973 -0.2465
  338MOL0     C45538   2.613   3.715  10.193 -0.0935 -0.8090 -0.4069
  338MOL0     C45539   2.505   3.789  10.123  0.0239  0.6781  0.0919
  338MOL0    Cl45540   2.472   3.961  10.185  0.2457  0.2816 -0.1639
  338MOL0     C45541   3.617   3.514  10.315 -0.0467 -1.0182 -0.3991
  338MOL0     C45542   3.743   3.464  10.360  0.6690  0.0042  0.1341
  338MOL0     O45543   3.924   3.623  10.608 -0.2502 -0.5635 -0.9269
  338MOL0     C45544   4.225   3.607  10.617 -0.8755  0.3619 -0.1175
  338MOL0     C45545   4.349   3.583  10.674  0.2970  0.1789  0.2805
  338MOL0     N45546   5.065   3.357  10.723 -0.2318  0.1930 -0.5719
  338MOL0     N45547   5.180   3.347  10.670 -0.6892 -0.5216  0.1925
  338MOL0     C45548   6.342   3.457  10.301 -0.0872  0.2643 -0.6960
  338MOL0     C45549   6.478   3.472  10.267  0.5545  0.2760  1.0258
  338MOL0     C45550   6.878   3.369  10.145 -0.6161 -0.6966  0.8611
  338MOL0     C45551   6.975   3.264  10.169  0.6731 -1.2436  0.4121
  338MOL0     C45552   7.107   3.284  10.158 -0.5210 -0.7041  1.2504
  338MOL0     C45553   7.162   3.407  10.114 -0.3479 -0.3158 -0.7897
  338MOL0     O45554   7.297   3.439  10.113  0.3424  0.5716 -0.2396
  338MOL0     C45555   7.392   3.341  10.138 -0.2039 -0.1358  0.1519
  338MOL0     C45556   7.527   3.390  10.092  0.0484 -0.2341 -0.2149
  338MOL0     C45557   7.576   3.514  10.177  1.0229  0.0908  0.5475
  338MOL0     C45558   7.730   3.508  10.204  0.2824  0.2413  0.0671
  338MOL0     C45559   7.804   3.488  10.078  0.0725 -0.3133 -0.4949
  338MOL0     C45560   7.882   3.477   9.984 -0.2122  0.4203 -0.0266
  338MOL0     C45561   7.077   3.514  10.088 -0.5699 -0.0121 -0.1039
  338MOL0     C45562   6.935   3.501  10.102  1.4505  1.7872 -0.2729
  338MOL0     H45563   6.462   3.385   9.947  1.5949 -0.3756  0.7154
  338MOL0     H45564   6.229   3.357   9.997 -2.4093  2.6057 -0.1804
  338MOL0     H45565   5.961   3.456  10.101 -0.4158 -0.0493 -0.3515
  338MOL0     H45566   6.047   3.307  10.085 -1.1123 -1.1503  1.1665
  338MOL0     H45567   5.940   3.249  10.309  0.4173  0.4472 -0.1371
  338MOL0     H45568   5.840   3.389  10.296 -1.6995 -2.3984  1.4455
  338MOL0     H45569   5.735   3.330  10.099  0.4303 -0.0002 -1.1644
  338MOL0     H45570   5.839   3.183  10.077 -3.1315 -2.7722  0.8983
  338MOL0     H45571   5.621   3.118  10.146  2.5315  2.6415 -3.4754
  338MOL0     H45572   5.743   3.085  10.273 -1.0222 -2.0394 -0.7989
  338MOL0     H45573   5.656   3.258  10.408  1.1416  0.5432 -0.7062
  338MOL0     H45574   5.547   3.331  10.276 -2.6543 -0.7940  1.1089
  338MOL0     H45575   5.396   3.147  10.304 -1.2596 -2.6379  1.8175
  338MOL0     H45576   5.501   3.050  10.395 -4.5806 -2.0792 -0.3551
  338MOL0     H45577   5.495   3.227  10.596  0.7319  1.6275  0.6894
  338MOL0     H45578   5.402   3.336  10.499 -3.5158 -0.4831  5.0825
  338MOL0     H45579   5.326   3.092  10.643  1.0425  0.0466  0.7959
  338MOL0     H45580   5.269   3.094  10.471  2.8720  0.1983 -1.4806
  338MOL0     H45581   5.044   3.067  10.568 -0.1223 -0.6217  0.8909
  338MOL0     H45582   4.853   3.149  10.805  0.8279  0.3064 -1.4008
  338MOL0     H45583   4.825   3.327  10.814 -2.0328  1.2068 -1.6251
  338MOL0     H45584   4.778   3.160  10.577  2.0523 -0.2718  0.6659
  338MOL0     H45585   4.761   3.332  10.586  2.4981 -1.0414  0.3376
  338MOL0     H45586   4.623   3.102  10.735  2.4758 -0.5483 -1.6275
  338MOL0     H45587   4.530   3.181  10.612 -0.8112  0.5701  0.3819
  338MOL0     H45588   4.602   3.303  10.888 -2.9583 -0.0747  1.3165
  338MOL0     H45589   4.437   3.254  10.832  0.5721 -1.0991  1.7938
  338MOL0     H45590   4.316   3.245  10.668 -0.3586  0.1003  0.4179
  338MOL0     H45591   3.989   3.282  10.598  1.6809  0.1580  3.3340
  338MOL0     H45592   4.073   3.253  10.441 -2.5822 -1.4985 -0.6101
  338MOL0     H45593   4.122   3.159  10.580 -1.0250  0.7392  1.6648
  338MOL0     H45594   3.934   3.725  10.275  0.6203 -2.0081 -0.4771
  338MOL0     H45595   3.709   3.803  10.185 -0.9241  0.3416  0.3675
  338MOL0     H45596   3.342   3.538  10.264  2.2429 -1.4161  2.2980
  338MOL0     H45597   3.355   3.668  10.384 -0.0908 -0.5148  0.0982
  338MOL0     H45598   3.260   3.818  10.219 -0.9787 -0.2969 -0.2191
  338MOL0     H45599   3.266   3.694  10.093 -0.7497 -0.5124 -1.0888
  338MOL0     H45600   3.106   3.658  10.349  2.3078 -1.1916 -0.5660
  338MOL0     H45601   3.105   3.544  10.222 -2.5310  0.3217 -0.3140
  338MOL0     H45602   3.020   3.843  10.219  1.8489 -0.3711  0.8241
  338MOL0     H45603   3.015   3.755  10.074  3.7978  1.6973 -0.0567
  338MOL0     H45604   2.849   3.632  10.300 -1.1587  2.4694  0.8303
  338MOL0     H45605   2.869   3.594  10.125 -1.5640 -0.3725 -0.6819
  338MOL0     H45606   2.761   3.859  10.230 -0.4789 -1.0381  1.1501
  338MOL0     H45607   2.752   3.805  10.063 -1.4578 -0.1150 -0.3381
  338MOL0     H45608   2.590   3.712  10.300 -1.7889 -4.6842 -0.7269
  338MOL0     H45609   2.626   3.619  10.142 -2.9328  0.1530 -3.2883
  338MOL0     H45610   2.410   3.738  10.140 -1.2262  2.4988 -1.0983
  338MOL0     H45611   2.521   3.789  10.015 -0.5490 -1.5388 -0.0450
  338MOL0     H45612   3.532   3.450  10.334 -1.6593  0.8121 -1.0827
  338MOL0     H45613   3.741   3.368  10.410 -0.4182 -1.7391 -2.9885
  338MOL0     H45614   4.199   3.709  10.588 -1.1652  0.0085 -1.1616
  338MOL0     H45615   4.424   3.655  10.705  2.2437 -1.0448 -1.3792
  338MOL0     H45616   6.322   3.477  10.406  1.3308 -1.3948 -0.0759
  338MOL0     H45617   6.554   3.502  10.339  3.9088  2.4928 -2.9477
  338MOL0     H45618   6.929   3.166  10.183 -2.6531 -0.0197 -0.8295
  338MOL0     H45619   7.167   3.198  10.184  0.4944 -0.2157  0.5847
  338MOL0     H45620   7.410   3.319  10.244 -0.0101  0.0147  0.1531
  338MOL0     H45621   7.368   3.250  10.083  1.2745  0.2198 -1.1606
  338MOL0     H45622   7.512   3.414   9.986  1.4921  2.3907  0.0963
  338MOL0     H45623   7.595   3.305  10.103  0.7296  0.5608  2.1956
  338MOL0     H45624   7.520   3.524  10.270 -3.0553  1.0534 -1.7585
  338MOL0     H45625   7.550   3.601  10.116  3.0032  2.6110  3.0795
  338MOL0     H45626   7.753   3.421  10.266  0.2423  0.5938  0.5763
  338MOL0     H45627   7.773   3.592  10.259 -1.8363  3.5429 -2.8480
  338MOL0     H45628   7.960   3.476   9.910  0.2983  0.5562  0.5012
  338MOL0     H45629   7.125   3.603  10.049 -0.2102 -0.7048 -1.3020
  338MOL0     H45630   6.863   3.582  10.092 -1.0030 -0.4949 -2.4157
  339MOL0     O45631   9.116   6.707   7.249  0.5050 -0.3121  0.3370
  339MOL0     C45632   9.167   6.666   7.144 -0.1756  0.0397 -0.9883
  339MOL0     O45633   9.104   6.655   7.026  0.1381 -0.4888 -0.3472
  339MOL0     C45634   8.975   6.705   7.022  0.3410  0.2626  0.2913
  339MOL0     C45635   8.942   6.839   7.064  0.2338 -0.2226  0.0852
  339MOL0     C45636   8.810   6.887   7.053 -0.5051  0.5776  0.6089
  339MOL0     C45637   8.710   6.816   6.987  0.2172 -0.5481  0.1058
  339MOL0     O45638   8.580   6.863   6.964 -0.7270 -0.3360 -0.6744
  339MOL0     C45639   8.548   6.985   7.023 -0.2166  0.0387  0.0675
  339MOL0     C45640   8.398   7.004   6.986 -0.0756 -0.2289 -0.0833
  339MOL0     C45641   8.382   7.079   6.852 -0.3015 -0.3565 -0.7864
  339MOL0     C45642   8.233   7.111   6.820 -0.5201 -0.4579  1.0715
  339MOL0     C45643   8.211   7.159   6.672 -0.5586 -0.3235 -0.1099
  339MOL0     C45644   8.074   7.182   6.643  0.0831  0.2010  0.4561
  339MOL0     C45645   8.059   7.256   6.510  0.1443 -0.0844 -0.1953
  339MOL0     C45646   7.938   7.333   6.469  0.4741  0.0434 -1.0532
  339MOL0     N45647   7.816   7.256   6.488  0.0814  1.3324 -0.4937
  339MOL0     C45648   7.743   7.250   6.598  0.1179  0.5201 -0.9701
  339MOL0     C45649   7.631   7.173   6.573 -0.8246  0.3261  0.1555
  339MOL0     C45650   7.519   7.128   6.657  0.4402 -0.2575  0.1524
  339MOL0     C45651   7.438   7.254   6.703  0.2508  0.1016 -0.9551
  339MOL0     C45652   7.347   7.299   6.593  0.7276  0.2882  0.1208
  339MOL0     C45653   7.300   7.440   6.630  0.1037 -0.2846  0.3442
  339MOL0     O45654   7.173   7.454   6.568 -0.4009  0.4754  0.0963
  339MOL0     C45655   7.127   7.575   6.531 -0.7298 -0.1411  0.1514
  339MOL0     C45656   7.178   7.699   6.570  0.2504 -0.8293 -0.7356
  339MOL0     C45657   7.119   7.824   6.516 -0.7111  0.1522  0.5898
  339MOL0     C45658   7.188   7.946   6.564  0.4160 -1.1561 -0.1771
  339MOL0     C45659   7.010   7.816   6.417  0.3698  0.2020  0.4170
  339MOL0     C45660   6.943   7.933   6.357  0.3355  0.5110  0.4258
  339MOL0     O45661   6.810   7.914   6.322 -0.1982 -0.6362  1.1022
  339MOL0     C45662   6.719   8.013   6.346  0.1109 -0.2697  0.3802
  339MOL0     C45663   6.720   8.085   6.469  0.4419  0.6317  0.5797
  339MOL0     C45664   6.632   8.197   6.491 -0.4460  0.2230  0.6102
  339MOL0     C45665   6.531   8.219   6.398  0.1623  0.2007 -0.3345
  339MOL0     O45666   6.436   8.320   6.418  0.3467  0.8001  0.0543
  339MOL0     C45667   6.291   8.275   6.433  0.1236  0.2294  0.0124
  339MOL0     C45668   6.201   8.391   6.470 -0.5758  0.1912 -0.0072
  339MOL0     C45669   6.060   8.354   6.462  0.2362  0.3799  0.4076
  339MOL0     C45670   5.973   8.475   6.488  0.3290  0.9798  0.2536
  339MOL0     C45671   5.833   8.431   6.476 -0.2282 -0.2760  0.5652
  339MOL0     C45672   5.738   8.552   6.488 -0.5287  0.7044 -0.1996
  339MOL0     C45673   5.729   8.626   6.615 -0.1673 -0.7622 -0.5975
  339MOL0     C45674   5.612   8.733   6.604  0.1469  0.3682  0.8928
  339MOL0    Cl45675   5.632   8.875   6.715  0.3725  0.2749 -0.2404
  339MOL0     C45676   6.528   8.154   6.274  0.4873  0.2238 -0.6909
  339MOL0     C45677   6.624   8.050   6.252 -0.2996  0.6348 -0.1139
  339MOL0     O45678   7.009   8.035   6.340 -0.9262 -0.1492 -0.0404
  339MOL0     C45679   6.966   7.688   6.386 -0.1418  0.7535  0.3228
  339MOL0     C45680   7.023   7.571   6.436  0.5550  0.2024 -1.2752
  339MOL0     N45681   7.643   7.141   6.439 -0.6327 -0.6422  0.2635
  339MOL0     N45682   7.752   7.180   6.399 -0.6183 -0.7785  0.1561
  339MOL0     C45683   8.749   6.686   6.947 -0.5898 -0.7080  0.5220
  339MOL0     C45684   8.875   6.630   6.965  0.7290 -1.5171  0.7397
  339MOL0     C45685   9.309   6.642   7.143  0.3984  0.2968  0.5870
  339MOL0     C45686   9.365   6.587   7.020  0.0842 -0.3930  0.4067
  339MOL0     C45687   9.500   6.560   7.006 -0.6104 -0.0435 -0.6724
  339MOL0     C45688   9.585   6.585   7.115 -0.3845  0.2288  0.5448
  339MOL0     O45689   9.720   6.548   7.119  0.7990  0.0172 -0.1410
  339MOL0     C45690   9.778   6.496   6.999 -0.4179 -1.3854  0.5418
  339MOL0     C45691   9.928   6.462   7.028 -1.2412 -0.2113  0.5605
  339MOL0     C45692   9.947   6.305   7.046 -0.2412  0.4744 -0.4741
  339MOL0     C45693   9.924   6.217   6.922 -0.6018 -0.3167  0.3492
  339MOL0     C45694   9.967   6.087   6.940  0.2742 -0.8626  0.9574
  339MOL0     C45695  10.007   5.976   6.964 -0.1268  0.8161  1.5688
  339MOL0     C45696   9.533   6.625   7.234  0.3187 -1.1054  0.0653
  339MOL0     C45697   9.395   6.660   7.253  0.8358 -0.4006  0.4740
  339MOL0     H45698   9.013   6.905   7.113  1.3535  0.2139 -2.0266
  339MOL0     H45699   8.800   6.984   7.101 -0.3036  1.5674 -1.2623
  339MOL0     H45700   8.560   6.976   7.132  4.4149 -0.2604 -0.2852
  339MOL0     H45701   8.608   7.068   6.985  3.2587 -1.9216  0.8964
  339MOL0     H45702   8.343   6.910   6.985 -0.6295  0.0958 -1.4674
  339MOL0     H45703   8.351   7.068   7.062 -0.5542  0.3846 -0.8805
  339MOL0     H45704   8.437   7.172   6.870 -1.1846 -0.4361  3.6111
  339MOL0     H45705   8.427   7.013   6.778  1.1286  3.9364 -4.1726
  339MOL0     H45706   8.180   7.017   6.839 -0.2915 -0.5877  1.0622
  339MOL0     H45707   8.193   7.185   6.889  1.8795  0.9413  1.0562
  339MOL0     H45708   8.272   7.248   6.656 -1.2287 -0.1255 -1.7582
  339MOL0     H45709   8.262   7.083   6.612  2.8010  1.3394  0.4491
  339MOL0     H45710   8.025   7.085   6.628  4.1810 -2.0698  0.3063
  339MOL0     H45711   8.022   7.241   6.720  1.4835  0.6622  1.0690
  339MOL0     H45712   8.143   7.325   6.513  0.6123 -0.6111 -0.9623
  339MOL0     H45713   8.070   7.180   6.432 -1.6527 -0.1911 -0.3796
  339MOL0     H45714   7.957   7.343   6.362  0.7330 -3.9376 -1.5570
  339MOL0     H45715   7.916   7.425   6.524 -1.2491 -0.6909 -0.4489
  339MOL0     H45716   7.763   7.306   6.689 -1.0384 -0.0239 -0.3593
  339MOL0     H45717   7.449   7.050   6.624 -2.1597  1.8857  0.2038
  339MOL0     H45718   7.561   7.089   6.750  1.5816  0.6631  0.0450
  339MOL0     H45719   7.510   7.333   6.726 -2.2816  1.7004  2.1536
  339MOL0     H45720   7.381   7.247   6.796  1.1316 -2.7240 -0.5451
  339MOL0     H45721   7.261   7.231   6.592  1.2355 -0.3667 -0.0435
  339MOL0     H45722   7.396   7.305   6.496  0.7359  1.2228  0.1806
  339MOL0     H45723   7.372   7.517   6.598 -0.4023 -0.2322 -0.7180
  339MOL0     H45724   7.277   7.447   6.736 -3.3400  1.6193 -0.3831
  339MOL0     H45725   7.253   7.697   6.649 -1.9532 -1.6861  1.4775
  339MOL0     H45726   7.120   7.985   6.641  1.9666 -1.7887  1.5838
  339MOL0     H45727   7.278   7.911   6.616  0.4356 -0.5083  0.2440
  339MOL0     H45728   7.211   8.024   6.491 -3.7329 -0.7511 -1.2842
  339MOL0     H45729   6.793   8.066   6.547 -2.4092 -1.4272  2.9603
  339MOL0     H45730   6.651   8.255   6.581 -1.3702 -0.2147  1.1052
  339MOL0     H45731   6.260   8.233   6.337 -1.1465 -0.1304  0.5554
  339MOL0     H45732   6.277   8.202   6.513  0.4471  0.6115  0.4261
  339MOL0     H45733   6.230   8.421   6.571  1.4117 -0.9482 -0.1986
  339MOL0     H45734   6.226   8.479   6.411  1.3503 -1.0245 -1.0954
  339MOL0     H45735   6.031   8.278   6.535  2.9084 -2.3648 -1.1700
  339MOL0     H45736   6.049   8.316   6.360  6.7983 -1.4970 -0.0530
  339MOL0     H45737   5.986   8.522   6.586 -3.3184  1.1397  0.7990
  339MOL0     H45738   5.989   8.553   6.412  3.5341  0.4185  0.2079
  339MOL0     H45739   5.807   8.369   6.563 -0.2376  2.3514  2.5716
  339MOL0     H45740   5.812   8.387   6.378 -0.3226  1.6512 -0.3180
  339MOL0     H45741   5.750   8.623   6.405 -4.3390  0.7137 -0.9458
  339MOL0     H45742   5.642   8.501   6.478 -0.7824  1.6061 -3.4738
  339MOL0     H45743   5.826   8.669   6.639  0.4180  1.1728 -5.3386
  339MOL0     H45744   5.704   8.556   6.695  3.7250  1.1065  2.5794
  339MOL0     H45745   5.517   8.679   6.615  0.5016  0.1705  3.7897
  339MOL0     H45746   5.614   8.765   6.500  1.3311 -2.1051  0.0756
  339MOL0     H45747   6.449   8.180   6.204 -0.8687  0.0404  0.7242
  339MOL0     H45748   6.620   7.997   6.157  4.8584  1.3167 -0.9830
  339MOL0     H45749   6.869   7.673   6.339 -1.0971  1.9098  1.8102
  339MOL0     H45750   6.983   7.472   6.414  1.0324 -0.1271 -0.6830
  339MOL0     H45751   8.671   6.622   6.907 -1.1780  0.4328 -0.2045
  339MOL0     H45752   8.896   6.532   6.925  0.3333 -0.5980 -1.8646
  339MOL0     H45753   9.309   6.569   6.929  1.1841 -1.0628 -0.1646
  339MOL0     H45754   9.525   6.512   6.912 -2.1316 -0.6958 -0.7617
  339MOL0     H45755   9.731   6.402   6.968 -1.1102 -1.4010  1.6054
  339MOL0     H45756   9.798   6.560   6.913  3.7027 -2.5894  0.3962
  339MOL0     H45757   9.969   6.504   7.120  1.2713  0.3650 -0.7264
  339MOL0     H45758   9.998   6.498   6.953  1.3543  0.4245  3.1143
  339MOL0     H45759   9.882   6.273   7.128 -0.5652 -0.5226 -1.0988
  339MOL0     H45760  10.050   6.284   7.074 -0.7714 -1.1655  0.3886
  339MOL0     H45761   9.980   6.268   6.843 -0.9080 -1.2602 -0.4976
  339MOL0     H45762   9.820   6.213   6.888  0.5453  1.0331 -4.0181
  339MOL0     H45763  10.056   5.882   6.979  0.7392  0.5618 -1.9608
  339MOL0     H45764   9.606   6.643   7.313  0.3525 -1.6392  0.1540
  339MOL0     H45765   9.363   6.699   7.349 -1.9933 -1.2536 -0.0443
  340MOL0     O45766   5.908   1.407   2.790 -0.2741 -0.1340 -0.2520
  340MOL0     C45767   5.965   1.459   2.696  0.2399  0.5660  0.7205
  340MOL0     O45768   5.913   1.482   2.567  0.2297  0.6922  0.3551
  340MOL0     C45769   5.791   1.426   2.546 -0.3674  0.1980 -0.2757
  340MOL0     C45770   5.783   1.338   2.440 -0.4062 -0.2233  0.1687
  340MOL0     C45771   5.658   1.290   2.403  0.7181  0.4887 -0.5876
  340MOL0     C45772   5.541   1.328   2.462  1.1639 -0.6288 -0.5381
  340MOL0     O45773   5.417   1.285   2.411  0.1582 -0.4489  0.1769
  340MOL0     C45774   5.301   1.302   2.493 -0.4255 -0.5391 -0.4577
  340MOL0     C45775   5.194   1.206   2.442  0.6626  0.1824  0.0482
  340MOL0     C45776   5.103   1.268   2.341 -1.4260 -0.1049 -0.1724
  340MOL0     C45777   4.989   1.175   2.311  0.7176  0.0394 -0.7429
  340MOL0     C45778   4.896   1.241   2.205 -0.5972 -0.0320  0.1430
  340MOL0     C45779   4.812   1.133   2.148 -0.0846  0.9878  0.5662
  340MOL0     C45780   4.682   1.184   2.091 -0.3743 -0.1926 -0.1983
  340MOL0     C45781   4.584   1.077   2.050 -0.5852 -0.5408  0.6338
  340MOL0     N45782   4.478   1.137   1.981 -0.2855 -0.3297  0.5917
  340MOL0     C45783   4.483   1.235   1.885 -0.0339  0.3242  0.0765
  340MOL0     C45784   4.355   1.281   1.883 -0.1493  1.3579  0.1094
  340MOL0     C45785   4.302   1.383   1.797  0.5891 -0.5372  0.1228
  340MOL0     C45786   4.223   1.335   1.670  0.6900  0.3478 -1.6418
  340MOL0     C45787   4.088   1.280   1.714  0.0067 -0.0879  0.0317
  340MOL0     C45788   3.996   1.243   1.591 -0.0142  0.3451 -0.1079
  340MOL0     O45789   3.962   1.371   1.521  0.3015  0.1126 -0.0403
  340MOL0     C45790   3.833   1.388   1.497 -0.0075  0.2017 -0.1744
  340MOL0     C45791   3.783   1.345   1.379 -0.1679 -0.5705 -0.1142
  340MOL0     C45792   3.638   1.340   1.355 -0.5527  0.5341  0.1678
  340MOL0     C45793   3.592   1.283   1.219 -0.3165  0.4810  0.0900
  340MOL0     C45794   3.557   1.393   1.456  0.1423 -0.7692 -0.2487
  340MOL0     C45795   3.409   1.384   1.458  0.3443  1.3544  0.9678
  340MOL0     O45796   3.339   1.328   1.571  0.8513  0.1154  0.5409
  340MOL0     C45797   3.203   1.319   1.559  0.7447  0.8355 -0.1320
  340MOL0     C45798   3.130   1.281   1.444 -0.2961 -0.0137 -0.6792
  340MOL0     C45799   2.991   1.262   1.460  0.6769 -0.9138  0.5151
  340MOL0     C45800   2.920   1.299   1.576 -0.7243 -0.0461  0.3353
  340MOL0     O45801   2.781   1.298   1.553  0.2158  0.0624  0.6363
  340MOL0     C45802   2.698   1.307   1.669 -0.4455  0.1019  0.3488
  340MOL0     C45803   2.562   1.264   1.635 -0.9570  0.0734 -0.3288
  340MOL0     C45804   2.469   1.224   1.759 -0.3089 -0.4846  0.1582
  340MOL0     C45805   2.409   1.351   1.835  0.1691  0.6809 -0.4465
  340MOL0     C45806   2.287   1.312   1.910  0.7150  0.0969 -0.3440
  340MOL0     C45807   2.168   1.304   1.810  0.4134 -0.5297  0.3795
  340MOL0     C45808   2.041   1.249   1.882 -1.1245 -1.1949  0.0571
  340MOL0     C45809   1.963   1.350   1.964 -0.1569 -0.5025 -0.0293
  340MOL0    Cl45810   1.825   1.298   2.043 -0.2414  0.0598  0.1414
  340MOL0     C45811   2.996   1.332   1.689  0.2266 -0.2103  0.1334
  340MOL0     C45812   3.136   1.340   1.679  0.0573  0.8608 -0.0391
  340MOL0     O45813   3.352   1.439   1.366  0.0211 -0.4987  0.1516
  340MOL0     C45814   3.610   1.451   1.577  0.4833  0.4394  0.1263
  340MOL0     C45815   3.750   1.448   1.594  0.7496 -0.2847 -0.2890
  340MOL0     N45816   4.283   1.212   1.977  0.3178  0.1178  0.1853
  340MOL0     N45817   4.353   1.120   2.026 -0.4246 -0.1699  0.6259
  340MOL0     C45818   5.546   1.434   2.564 -0.3974 -0.4396  0.3685
  340MOL0     C45819   5.675   1.478   2.602 -0.3830 -0.0425 -0.2276
  340MOL0     C45820   6.104   1.499   2.709  0.3901 -0.8205 -0.2188
  340MOL0     C45821   6.178   1.453   2.821  0.6669 -1.0396 -0.2359
  340MOL0     C45822   6.310   1.484   2.829 -0.7676 -0.1779  0.3862
  340MOL0     C45823   6.374   1.579   2.741  1.1025  0.4642 -0.2755
  340MOL0     O45824   6.497   1.614   2.744  0.4576 -0.1878  0.3557
  340MOL0     C45825   6.558   1.637   2.868 -0.2657  0.5449  0.0125
  340MOL0     C45826   6.700   1.578   2.862 -0.2851  0.0854 -0.5668
  340MOL0     C45827   6.777   1.597   2.991  0.5329  0.2440 -1.3229
  340MOL0     C45828   6.894   1.495   3.001 -0.6662 -0.0066 -0.7810
  340MOL0     C45829   6.842   1.363   3.043 -0.4588 -0.1076  0.6455
  340MOL0     C45830   6.833   1.250   3.085  0.2225 -0.6367 -0.9524
  340MOL0     C45831   6.295   1.637   2.651 -0.3942 -0.8936 -0.0586
  340MOL0     C45832   6.165   1.596   2.625 -0.9067  0.1250  0.2944
  340MOL0     H45833   5.867   1.304   2.380  1.7372  1.1670  2.1803
  340MOL0     H45834   5.653   1.228   2.314 -1.7451  0.3156 -0.3905
  340MOL0     H45835   5.340   1.272   2.590 -0.5031  2.1251  0.4769
  340MOL0     H45836   5.271   1.406   2.511  1.2598  0.3694 -2.4558
  340MOL0     H45837   5.240   1.125   2.386 -1.2078  0.2516 -1.6902
  340MOL0     H45838   5.132   1.165   2.522 -0.8543 -0.3709 -1.3651
  340MOL0     H45839   5.060   1.361   2.382  2.5884  0.6087  3.1216
  340MOL0     H45840   5.164   1.298   2.256 -1.3631  0.3004  0.0101
  340MOL0     H45841   5.038   1.085   2.271  0.9058 -0.2125  0.0285
  340MOL0     H45842   4.933   1.151   2.401  1.1326 -0.7097 -0.6681
  340MOL0     H45843   4.837   1.321   2.252  0.8055  0.6316  0.8205
  340MOL0     H45844   4.952   1.289   2.125  0.2241  0.5728  1.0598
  340MOL0     H45845   4.866   1.081   2.069 -0.2280  2.7660 -0.7729
  340MOL0     H45846   4.786   1.058   2.223 -2.1515  1.0236 -0.0459
  340MOL0     H45847   4.637   1.241   2.172  0.3521 -1.0708  0.8549
  340MOL0     H45848   4.702   1.240   1.999 -0.8646 -0.6490 -0.5927
  340MOL0     H45849   4.549   1.034   2.145 -0.9561 -1.3392  0.1540
  340MOL0     H45850   4.631   1.000   1.988  1.1183 -1.6349  3.1023
  340MOL0     H45851   4.570   1.279   1.835  0.2309  1.7430  1.6673
  340MOL0     H45852   4.233   1.446   1.854  0.5020  0.2498 -0.8294
  340MOL0     H45853   4.384   1.444   1.757  0.6937 -1.2797 -0.8138
  340MOL0     H45854   4.286   1.266   1.614  0.7560  0.0746 -1.2387
  340MOL0     H45855   4.196   1.420   1.608 -0.6248  1.2604  0.0997
  340MOL0     H45856   4.028   1.358   1.760  0.3643  1.4574 -1.9744
  340MOL0     H45857   4.113   1.194   1.777 -0.0087 -0.5387 -0.5636
  340MOL0     H45858   3.912   1.174   1.602  0.8900 -0.7229  0.2232
  340MOL0     H45859   4.065   1.195   1.521  2.0544  1.7865  0.8513
  340MOL0     H45860   3.848   1.304   1.303  1.5999 -1.9082  2.0112
  340MOL0     H45861   3.552   1.360   1.152 -1.8745 -1.2468 -1.0441
  340MOL0     H45862   3.673   1.230   1.167 -0.7668  0.0867 -0.2103
  340MOL0     H45863   3.509   1.214   1.233 -0.9465  1.1078 -0.4582
  340MOL0     H45864   3.167   1.237   1.352 -1.1092 -4.0482  0.7349
  340MOL0     H45865   2.935   1.243   1.369  1.0351  0.8143 -0.1277
  340MOL0     H45866   2.727   1.247   1.755  2.5086  1.5613  0.4871
  340MOL0     H45867   2.694   1.413   1.697 -1.1584 -0.4658  2.5936
  340MOL0     H45868   2.510   1.344   1.582 -0.0228  0.1929 -1.1055
  340MOL0     H45869   2.564   1.171   1.578  2.9816 -0.1022 -0.1519
  340MOL0     H45870   2.514   1.164   1.839 -2.2259 -1.3718  0.6234
  340MOL0     H45871   2.386   1.159   1.732  1.2006 -2.4299 -0.0695
  340MOL0     H45872   2.479   1.383   1.914 -1.9578  0.3322  1.6903
  340MOL0     H45873   2.381   1.434   1.770  4.1934  3.4616  0.9419
  340MOL0     H45874   2.270   1.379   1.995  0.8193  0.8343 -0.9028
  340MOL0     H45875   2.293   1.212   1.954 -0.8193  0.3152  0.4453
  340MOL0     H45876   2.141   1.400   1.767 -2.3642 -0.8092  1.2893
  340MOL0     H45877   2.186   1.230   1.731  0.9257  1.7959 -1.7904
  340MOL0     H45878   2.072   1.164   1.943  4.7870 -1.9126 -3.1779
  340MOL0     H45879   1.968   1.211   1.810 -1.8540 -0.0135  0.1478
  340MOL0     H45880   1.923   1.423   1.893 -0.2473 -0.5713 -0.0495
  340MOL0     H45881   2.036   1.401   2.027 -0.8572 -0.7606  1.0006
  340MOL0     H45882   2.968   1.376   1.784  2.6051  0.2670  0.6903
  340MOL0     H45883   3.184   1.384   1.765  2.8897 -1.4128 -0.3190
  340MOL0     H45884   3.557   1.497   1.659  2.7293  0.9962  1.3584
  340MOL0     H45885   3.788   1.478   1.692 -0.6872 -0.5301  0.3649
  340MOL0     H45886   5.458   1.490   2.596  1.5760  4.5875 -1.9160
  340MOL0     H45887   5.684   1.561   2.671 -0.9234  0.8468 -1.1881
  340MOL0     H45888   6.133   1.388   2.895  2.6205 -0.6219  1.3955
  340MOL0     H45889   6.358   1.439   2.916 -1.5644 -0.0063  0.9235
  340MOL0     H45890   6.579   1.741   2.896  0.0979 -0.4444  3.8689
  340MOL0     H45891   6.500   1.593   2.950 -2.8936 -0.4029 -2.2003
  340MOL0     H45892   6.762   1.612   2.778  0.2039  3.4758  1.0052
  340MOL0     H45893   6.677   1.471   2.853 -2.3030  0.5235 -0.9334
  340MOL0     H45894   6.715   1.574   3.078  2.4130  1.2055  0.3366
  340MOL0     H45895   6.806   1.702   3.003  0.6347 -0.0537  1.5452
  340MOL0     H45896   6.955   1.524   3.086  1.1524 -0.5388 -1.8597
  340MOL0     H45897   6.953   1.490   2.909 -2.8456 -2.1895 -2.2086
  340MOL0     H45898   6.818   1.153   3.127  1.3720  0.2459  1.7145
  340MOL0     H45899   6.326   1.726   2.598 -0.9216 -0.8006 -0.2188
  340MOL0     H45900   6.112   1.652   2.549  3.2144  2.0151 -1.5260
  341MOL0     O45901   7.809   6.893   2.381 -1.5719  0.4571  0.0277
  341MOL0     C45902   7.885   6.918   2.289 -0.3224  0.1568 -0.4094
  341MOL0     O45903   7.880   6.847   2.167 -0.1207 -0.2274 -0.2995
  341MOL0     C45904   7.772   6.768   2.145  0.1198 -0.6919  0.1089
  341MOL0     C45905   7.676   6.814   2.057  0.6346  0.7560  0.1391
  341MOL0     C45906   7.554   6.736   2.048 -0.3480 -0.7950 -0.2808
  341MOL0     C45907   7.540   6.621   2.139  0.1556  0.5203  0.1663
  341MOL0     O45908   7.423   6.546   2.140 -0.0918  0.1597  0.0374
  341MOL0     C45909   7.311   6.622   2.195  0.0904 -0.2282 -1.0001
  341MOL0     C45910   7.204   6.537   2.247  0.7902 -0.4614  0.1970
  341MOL0     C45911   7.109   6.476   2.132  0.1523 -0.3383  0.4172
  341MOL0     C45912   6.999   6.394   2.198  0.3826 -0.0888  0.2746
  341MOL0     C45913   6.883   6.364   2.107  0.8815 -0.2940 -0.4995
  341MOL0     C45914   6.791   6.253   2.136 -0.3632 -0.3794 -0.5642
  341MOL0     C45915   6.692   6.223   2.020  0.0055 -0.0544 -0.4712
  341MOL0     C45916   6.611   6.096   2.037  0.2141 -0.0186  0.4726
  341MOL0     N45917   6.480   6.100   2.108 -0.2838  1.2740 -0.4711
  341MOL0     C45918   6.417   6.215   2.154  0.7938 -0.2527 -0.1545
  341MOL0     C45919   6.312   6.160   2.227  0.2846  0.5658  0.0939
  341MOL0     C45920   6.229   6.250   2.315 -0.1575  0.2364 -0.7800
  341MOL0     C45921   6.121   6.179   2.398  0.0558 -0.2903  0.7822
  341MOL0     C45922   5.995   6.148   2.306  0.0337  0.1441  1.4960
  341MOL0     C45923   5.890   6.071   2.375  0.1406 -0.0143 -0.0854
  341MOL0     O45924   5.840   6.133   2.500 -0.3406 -0.8408  0.2827
  341MOL0     C45925   5.748   6.070   2.570  0.2527 -0.0711  0.3546
  341MOL0     C45926   5.718   6.125   2.690 -0.6655 -0.2413  0.5111
  341MOL0     C45927   5.637   6.049   2.785  0.3991 -0.9489 -0.0559
  341MOL0     C45928   5.648   6.103   2.927 -0.3091 -0.4131 -0.4391
  341MOL0     C45929   5.566   5.940   2.745  0.1653  0.4326 -0.4762
  341MOL0     C45930   5.464   5.857   2.819  0.4702 -0.7846 -0.8753
  341MOL0     O45931   5.432   5.905   2.946 -0.5122  0.1806 -0.1429
  341MOL0     C45932   5.317   5.865   3.013  0.3602  0.0777 -1.2067
  341MOL0     C45933   5.301   5.856   3.154  0.2382  0.4023 -0.0922
  341MOL0     C45934   5.185   5.810   3.221  0.2572 -0.3572  1.5760
  341MOL0     C45935   5.072   5.789   3.144 -0.4395  0.7253 -0.0685
  341MOL0     O45936   4.962   5.746   3.213  0.3601  0.0378 -0.2089
  341MOL0     C45937   4.829   5.789   3.180 -0.9921 -0.8493 -1.3443
  341MOL0     C45938   4.754   5.685   3.093 -0.4593 -0.3695 -0.1972
  341MOL0     C45939   4.623   5.753   3.044  0.1936  0.0111 -0.1723
  341MOL0     C45940   4.583   5.709   2.900  0.4696  0.2289 -0.2263
  341MOL0     C45941   4.463   5.791   2.854 -0.4862  0.3822 -0.6335
  341MOL0     C45942   4.475   5.810   2.702  0.2067  0.3061 -0.2034
  341MOL0     C45943   4.344   5.880   2.659  0.2682 -0.9613  0.7196
  341MOL0     C45944   4.339   5.885   2.502 -0.1837  0.7707 -0.5664
  341MOL0    Cl45945   4.463   5.984   2.436 -0.4872 -0.1306 -0.0280
  341MOL0     C45946   5.076   5.801   3.009 -0.3824 -0.4217  0.2295
  341MOL0     C45947   5.199   5.831   2.945  0.7092 -0.6483 -1.1420
  341MOL0     O45948   5.419   5.754   2.767  0.0757  0.3775  0.1917
  341MOL0     C45949   5.574   5.904   2.610 -0.0252 -0.5748 -0.1056
  341MOL0     C45950   5.662   5.969   2.526 -0.4534 -0.1839 -0.3905
  341MOL0     N45951   6.312   6.022   2.218 -0.2179  0.0712 -0.4745
  341MOL0     N45952   6.418   5.985   2.149 -1.0745  0.1462 -0.0511
  341MOL0     C45953   7.639   6.581   2.226  0.5450  0.7174  0.2031
  341MOL0     C45954   7.763   6.649   2.228 -0.1375 -0.2466 -0.1810
  341MOL0     C45955   7.975   7.027   2.310 -0.3694  0.9568  0.2775
  341MOL0     C45956   8.057   7.064   2.198  0.1898  0.8761 -0.0194
  341MOL0     C45957   8.151   7.161   2.222 -0.0628  0.5718 -0.4315
  341MOL0     C45958   8.165   7.228   2.339 -0.9631 -0.5486  0.1670
  341MOL0     O45959   8.255   7.327   2.334  0.0664 -0.2324  0.7275
  341MOL0     C45960   8.313   7.372   2.459 -0.2036 -0.6446 -0.0953
  341MOL0     C45961   8.397   7.497   2.443 -0.6159  0.1821 -0.6173
  341MOL0     C45962   8.539   7.473   2.382 -0.7935 -0.6467  0.7422
  341MOL0     C45963   8.548   7.538   2.241 -0.1190 -0.8511  0.8799
  341MOL0     C45964   8.682   7.514   2.192 -0.4663 -0.1094  0.4237
  341MOL0     C45965   8.799   7.495   2.156  0.2361 -0.4404 -0.4509
  341MOL0     C45966   8.091   7.190   2.446  0.7241  0.7284  0.3570
  341MOL0     C45967   7.992   7.091   2.438  0.8960 -0.5100  0.8877
  341MOL0     H45968   7.696   6.905   2.000  1.1896  0.3291 -0.3612
  341MOL0     H45969   7.469   6.758   1.985  0.2444 -1.8946 -1.5122
  341MOL0     H45970   7.348   6.678   2.281  1.1304  1.1925 -2.3311
  341MOL0     H45971   7.266   6.694   2.126 -2.2930 -3.0233 -2.6206
  341MOL0     H45972   7.244   6.455   2.308  2.3264  1.2155  1.5381
  341MOL0     H45973   7.137   6.591   2.314 -2.0890 -3.3087 -0.0921
  341MOL0     H45974   7.064   6.551   2.067  1.0956 -0.2199 -0.1190
  341MOL0     H45975   7.155   6.397   2.071 -0.2554 -0.1122 -0.1941
  341MOL0     H45976   7.040   6.301   2.239  1.6675  0.6214  0.6436
  341MOL0     H45977   6.958   6.446   2.284  2.8590 -0.1279  1.5687
  341MOL0     H45978   6.829   6.456   2.079  2.3378 -0.2133 -3.4139
  341MOL0     H45979   6.928   6.342   2.010  1.3277  2.1117 -0.9069
  341MOL0     H45980   6.852   6.163   2.146 -0.5808 -0.5187 -0.4681
  341MOL0     H45981   6.735   6.271   2.228  0.2783 -3.0196  0.4369
  341MOL0     H45982   6.618   6.303   2.009 -1.5791 -1.1395  1.6544
  341MOL0     H45983   6.749   6.223   1.926  3.7508 -0.6353  1.6130
  341MOL0     H45984   6.675   6.020   2.082  0.9746  1.2438  1.6434
  341MOL0     H45985   6.598   6.051   1.938  4.3126 -1.1652  0.2875
  341MOL0     H45986   6.442   6.319   2.138  2.5916 -0.3817  1.4115
  341MOL0     H45987   6.301   6.291   2.387  0.3337  0.1855 -1.2297
  341MOL0     H45988   6.181   6.330   2.258 -2.2681 -0.9980 -0.8264
  341MOL0     H45989   6.101   6.256   2.473  0.5447 -0.8362  1.4827
  341MOL0     H45990   6.155   6.083   2.436 -0.1267 -0.9600 -0.6820
  341MOL0     H45991   6.030   6.093   2.218 -1.6781  0.3193  0.6609
  341MOL0     H45992   5.944   6.231   2.257  1.4586 -0.9471 -2.1676
  341MOL0     H45993   5.935   5.973   2.396  2.6860  0.5642 -2.2276
  341MOL0     H45994   5.801   6.048   2.316 -0.7065 -2.8822  2.0512
  341MOL0     H45995   5.760   6.223   2.709 -3.4401  1.1248  0.0400
  341MOL0     H45996   5.738   6.163   2.941 -0.8354  0.5133 -0.9343
  341MOL0     H45997   5.566   6.172   2.949 -0.0044  0.3880 -1.7001
  341MOL0     H45998   5.644   6.025   3.003 -0.2417 -1.4643 -1.4837
  341MOL0     H45999   5.386   5.878   3.219  1.5935 -1.7334 -1.0242
  341MOL0     H46000   5.178   5.798   3.329  0.4905 -1.5737  1.4685
  341MOL0     H46001   4.776   5.815   3.272 -0.6508 -2.7260 -0.5762
  341MOL0     H46002   4.843   5.884   3.128  0.1944  2.4321  4.2371
  341MOL0     H46003   4.821   5.667   3.009  0.7206  2.7149 -0.0367
  341MOL0     H46004   4.721   5.600   3.154 -1.0821  0.8687  1.2759
  341MOL0     H46005   4.626   5.862   3.042 -1.0882  0.0901  0.5687
  341MOL0     H46006   4.542   5.734   3.115 -0.3074 -0.8466 -0.9397
  341MOL0     H46007   4.671   5.724   2.836  0.4652 -1.8415 -0.7827
  341MOL0     H46008   4.557   5.603   2.895  1.9362 -0.1101 -2.0765
  341MOL0     H46009   4.457   5.886   2.908  1.5428 -0.6083  1.5194
  341MOL0     H46010   4.375   5.738   2.892  1.6757 -0.5950  3.6514
  341MOL0     H46011   4.561   5.875   2.686  0.3190  0.4279  0.8335
  341MOL0     H46012   4.497   5.719   2.645  2.3736  1.6271 -1.6074
  341MOL0     H46013   4.342   5.980   2.703 -2.3884 -0.5993 -0.0113
  341MOL0     H46014   4.258   5.831   2.706 -0.1829  1.4887  2.7168
  341MOL0     H46015   4.240   5.917   2.468 -0.5704 -0.1868 -0.3737
  341MOL0     H46016   4.363   5.787   2.460 -0.5708  1.1094 -1.6141
  341MOL0     H46017   5.002   5.755   2.944 -1.3462 -0.4393  1.3083
  341MOL0     H46018   5.197   5.832   2.836 -0.3573  0.7049 -1.1436
  341MOL0     H46019   5.518   5.823   2.563 -0.7916  2.2588 -4.6707
  341MOL0     H46020   5.666   5.932   2.424 -0.4187 -2.2824  0.3318
  341MOL0     H46021   7.609   6.497   2.287 -1.3223  0.6245 -0.7992
  341MOL0     H46022   7.836   6.620   2.303 -1.1423  0.1453  0.9996
  341MOL0     H46023   8.051   7.015   2.101  0.2686  0.2545  0.2828
  341MOL0     H46024   8.218   7.182   2.139  1.4145 -3.2359 -0.3681
  341MOL0     H46025   8.235   7.396   2.531 -0.8648  3.1346 -1.8605
  341MOL0     H46026   8.383   7.297   2.497  0.7941  1.5649  2.8065
  341MOL0     H46027   8.409   7.544   2.541 -0.2764  3.2160 -2.0287
  341MOL0     H46028   8.338   7.569   2.386 -1.4459 -0.6602 -0.8539
  341MOL0     H46029   8.561   7.366   2.386 -2.4237 -1.0828 -0.5668
  341MOL0     H46030   8.614   7.531   2.436  1.1321 -1.3958 -0.9783
  341MOL0     H46031   8.534   7.646   2.243  1.2784 -0.3051 -4.4341
  341MOL0     H46032   8.465   7.494   2.184  0.3605 -1.0610  0.3330
  341MOL0     H46033   8.902   7.465   2.144 -0.7990 -4.7183 -0.1116
  341MOL0     H46034   8.100   7.251   2.535 -1.3346  1.1291  0.3228
  341MOL0     H46035   7.946   7.074   2.535 -4.0748  1.4646 -0.7790
  342MOL0     O46036   6.279   8.026   2.505  0.4151 -0.4005 -0.1786
  342MOL0     C46037   6.380   8.005   2.564 -0.3092 -0.3387 -0.2229
  342MOL0     O46038   6.508   8.005   2.509  1.1766  0.0081  0.0351
  342MOL0     C46039   6.514   7.994   2.370 -0.1717 -0.3398  0.0353
  342MOL0     C46040   6.581   8.103   2.309  0.0000  0.8361  0.0919
  342MOL0     C46041   6.592   8.100   2.161 -0.6035  0.2689  0.2563
  342MOL0     C46042   6.538   7.996   2.080 -0.3602  0.0615  0.2318
  342MOL0     O46043   6.558   7.986   1.947  0.2095 -0.3739  0.3770
  342MOL0     C46044   6.500   8.097   1.874  0.2339  0.6451 -0.2059
  342MOL0     C46045   6.349   8.095   1.888  0.4759  0.0773  0.5003
  342MOL0     C46046   6.291   7.963   1.834 -0.8111 -0.0696  0.2065
  342MOL0     C46047   6.141   7.952   1.793 -0.4103 -0.7840 -0.5379
  342MOL0     C46048   6.117   7.835   1.701 -0.1345 -0.1985 -0.3455
  342MOL0     C46049   5.980   7.832   1.640  0.0057 -0.8184 -0.7599
  342MOL0     C46050   5.951   7.706   1.563 -0.4417  0.3866 -0.1341
  342MOL0     C46051   5.798   7.722   1.519  0.2222  0.4213  0.1679
  342MOL0     N46052   5.741   7.599   1.463  0.5063 -0.2744 -0.0730
  342MOL0     C46053   5.693   7.487   1.530  1.0853 -0.5391  0.2161
  342MOL0     C46054   5.663   7.398   1.428  0.2848 -0.2398 -0.7059
  342MOL0     C46055   5.607   7.260   1.438  0.0328  0.6227 -0.3524
  342MOL0     C46056   5.476   7.234   1.510 -0.1223  0.6934  0.4894
  342MOL0     C46057   5.349   7.283   1.426 -0.2552 -0.5622  0.7815
  342MOL0     C46058   5.278   7.193   1.340 -0.3814 -0.1456  0.1221
  342MOL0     O46059   5.368   7.136   1.241  0.1104  0.2239 -0.6549
  342MOL0     C46060   5.327   7.043   1.153 -1.1200  0.1037  0.3341
  342MOL0     C46061   5.434   6.968   1.109 -0.7787 -0.2174  0.4066
  342MOL0     C46062   5.415   6.853   1.034 -1.0171 -0.2418  0.6441
  342MOL0     C46063   5.531   6.768   0.996 -0.0750  0.7839  0.9291
  342MOL0     C46064   5.285   6.804   1.008  0.2799  0.6124  0.2949
  342MOL0     C46065   5.259   6.677   0.941  0.4862 -0.4474 -0.4575
  342MOL0     O46066   5.337   6.577   0.959  0.2273  0.1809  0.6018
  342MOL0     C46067   5.304   6.448   0.920 -0.7169 -0.2447 -0.6024
  342MOL0     C46068   5.412   6.362   0.894 -0.5250 -0.5487  0.3903
  342MOL0     C46069   5.394   6.236   0.843 -0.1743  0.5165 -0.5906
  342MOL0     C46070   5.261   6.189   0.827 -0.0519 -0.4087 -0.3401
  342MOL0     O46071   5.230   6.063   0.787 -0.0753  0.4313  0.0789
  342MOL0     C46072   5.334   5.958   0.771  0.7366  0.0131 -0.4040
  342MOL0     C46073   5.276   5.836   0.710  0.4176 -0.2617 -0.3062
  342MOL0     C46074   5.370   5.760   0.615 -0.2909 -0.3057 -0.8878
  342MOL0     C46075   5.300   5.677   0.508  0.0951 -0.3269 -0.3884
  342MOL0     C46076   5.401   5.601   0.420  0.5809  0.5370  0.0329
  342MOL0     C46077   5.321   5.508   0.325 -0.3334 -0.5402 -0.4566
  342MOL0     C46078   5.413   5.427   0.228  0.4353 -1.0264  0.0192
  342MOL0     C46079   5.339   5.306   0.169 -0.2772  0.2541  0.5138
  342MOL0    Cl46080   5.202   5.371   0.071 -0.5526 -0.1141  0.2631
  342MOL0     C46081   5.153   6.270   0.858  0.8276 -0.3326 -0.5243
  342MOL0     C46082   5.175   6.392   0.920  0.5002 -0.2168 -1.2225
  342MOL0     O46083   5.157   6.672   0.868  0.5457  0.5309  0.1543
  342MOL0     C46084   5.184   6.888   1.044 -1.0012 -0.1143  0.1333
  342MOL0     C46085   5.206   7.012   1.108 -0.3934  0.4883  0.6269
  342MOL0     N46086   5.694   7.462   1.309  0.5116  0.3056 -0.1528
  342MOL0     N46087   5.749   7.576   1.332 -0.2502  0.6639 -0.2302
  342MOL0     C46088   6.453   7.908   2.141  0.4383  0.3793  0.5791
  342MOL0     C46089   6.438   7.907   2.287 -1.0973 -0.0958 -0.2011
  342MOL0     C46090   6.384   8.002   2.713  0.0842 -0.1682 -0.0768
  342MOL0     C46091   6.266   7.988   2.793 -0.1184 -0.4288  0.8273
  342MOL0     C46092   6.280   7.958   2.929 -0.4041 -0.0793 -0.5538
  342MOL0     C46093   6.408   7.950   2.992 -0.2240 -0.0257 -0.6765
  342MOL0     O46094   6.409   7.911   3.125  0.8238  0.3022  0.0530
  342MOL0     C46095   6.540   7.911   3.201  0.5525 -0.1131  0.1252
  342MOL0     C46096   6.609   8.041   3.247 -0.1433  0.4256 -0.6750
  342MOL0     C46097   6.707   8.014   3.372 -0.1826 -0.5602  0.6259
  342MOL0     C46098   6.765   7.872   3.393 -0.4435  0.7983  0.1979
  342MOL0     C46099   6.850   7.860   3.516 -0.6460 -0.2015  0.4820
  342MOL0     C46100   6.942   7.842   3.601 -0.1745 -0.9814  0.0537
  342MOL0     C46101   6.521   7.980   2.920  0.0069 -0.1169  0.2342
  342MOL0     C46102   6.515   8.004   2.782 -0.0824  0.3639 -0.2265
  342MOL0     H46103   6.640   8.174   2.366 -1.2039  1.7457  0.2562
  342MOL0     H46104   6.646   8.179   2.108  0.8581 -0.5255  0.4993
  342MOL0     H46105   6.540   8.193   1.906 -1.5998  0.8120  1.8050
  342MOL0     H46106   6.543   8.080   1.775  1.3069 -3.0035  0.7236
  342MOL0     H46107   6.319   8.102   1.993 -0.7965 -0.7222  0.2046
  342MOL0     H46108   6.315   8.182   1.831  1.5576  2.4054  3.1697
  342MOL0     H46109   6.358   7.943   1.749  0.3314  3.2043  0.1563
  342MOL0     H46110   6.301   7.878   1.901  0.6370 -0.8354 -0.9339
  342MOL0     H46111   6.084   7.934   1.884  1.9361 -2.5956  0.6792
  342MOL0     H46112   6.124   8.047   1.742  2.0861  0.5538  0.9454
  342MOL0     H46113   6.193   7.822   1.623 -0.5237 -0.4398 -0.6910
  342MOL0     H46114   6.133   7.757   1.775 -2.8826 -1.0380 -0.5249
  342MOL0     H46115   5.910   7.835   1.723 -1.6713 -1.0514 -2.1072
  342MOL0     H46116   5.968   7.915   1.569 -0.4129  0.7252  1.0307
  342MOL0     H46117   6.008   7.709   1.470  1.3759  0.5737  0.9377
  342MOL0     H46118   5.971   7.616   1.621 -1.0294  1.5896  2.0419
  342MOL0     H46119   5.788   7.806   1.449 -0.5620 -0.9093 -1.3916
  342MOL0     H46120   5.739   7.742   1.609 -1.1432  3.8313 -1.2872
  342MOL0     H46121   5.676   7.490   1.637  0.6731  1.8377  0.1459
  342MOL0     H46122   5.602   7.223   1.335 -0.0607 -2.9784  0.8332
  342MOL0     H46123   5.687   7.205   1.487  1.4428  1.3487 -1.7499
  342MOL0     H46124   5.479   7.300   1.597  2.4557 -0.4272  1.3454
  342MOL0     H46125   5.471   7.130   1.545  2.8330  0.1995 -0.2189
  342MOL0     H46126   5.394   7.365   1.370  2.9914 -0.3686  3.3928
  342MOL0     H46127   5.272   7.334   1.486  0.4453  2.2291 -0.5287
  342MOL0     H46128   5.195   7.250   1.298 -1.2114  0.4381  2.4043
  342MOL0     H46129   5.250   7.113   1.409  1.2244 -0.2904  0.6443
  342MOL0     H46130   5.533   6.989   1.147 -1.2354 -0.3995  1.7564
  342MOL0     H46131   5.548   6.732   0.894  0.1090  2.0073  0.5143
  342MOL0     H46132   5.625   6.818   1.021 -1.1005  1.9821  2.6330
  342MOL0     H46133   5.535   6.672   1.050  4.5335 -1.3807 -2.6089
  342MOL0     H46134   5.508   6.409   0.913 -0.0499 -1.2737 -0.1674
  342MOL0     H46135   5.484   6.182   0.817 -0.7833 -0.0990 -1.4594
  342MOL0     H46136   5.400   5.994   0.692 -1.3509 -0.7670 -2.6706
  342MOL0     H46137   5.392   5.927   0.858 -0.7069 -0.9538  0.2633
  342MOL0     H46138   5.234   5.783   0.796  1.5383  2.2822  1.9487
  342MOL0     H46139   5.187   5.866   0.654  0.3838 -0.6393 -0.4618
  342MOL0     H46140   5.412   5.691   0.689 -2.0050  1.2243  1.6653
  342MOL0     H46141   5.441   5.828   0.567  0.0013  0.5908  0.7455
  342MOL0     H46142   5.231   5.610   0.562  0.4585 -0.1283  0.3425
  342MOL0     H46143   5.259   5.744   0.432  1.0351  0.0530 -0.5718
  342MOL0     H46144   5.458   5.530   0.481 -1.8950 -3.0186 -1.4628
  342MOL0     H46145   5.462   5.679   0.373  0.3355 -0.3124 -1.7741
  342MOL0     H46146   5.253   5.446   0.384 -0.6447  1.1221  1.0019
  342MOL0     H46147   5.257   5.576   0.269 -1.8605 -0.4360  1.3077
  342MOL0     H46148   5.506   5.398   0.279 -0.7697 -2.0230  1.7420
  342MOL0     H46149   5.452   5.479   0.140  2.7066 -1.0687  0.9306
  342MOL0     H46150   5.298   5.238   0.245  2.3508 -0.9863  0.9562
  342MOL0     H46151   5.417   5.252   0.114  1.9603  1.2253  2.5273
  342MOL0     H46152   5.054   6.226   0.843  1.0022 -0.8599 -0.1618
  342MOL0     H46153   5.095   6.447   0.969  1.2914  1.9667 -2.2333
  342MOL0     H46154   5.084   6.854   1.018 -0.5091 -0.3781 -1.5431
  342MOL0     H46155   5.119   7.069   1.140  0.0471  1.8351 -0.4914
  342MOL0     H46156   6.419   7.818   2.090  0.8653 -0.8166  2.3085
  342MOL0     H46157   6.381   7.835   2.346 -0.0325  1.9871  3.7095
  342MOL0     H46158   6.171   7.999   2.742  1.4460  1.8007 -1.9382
  342MOL0     H46159   6.192   7.941   2.989 -0.1251 -0.6062 -0.2821
  342MOL0     H46160   6.516   7.844   3.284  0.2905  0.2415  0.3357
  342MOL0     H46161   6.615   7.859   3.140 -0.5526 -3.8384  1.6799
  342MOL0     H46162   6.542   8.125   3.267 -1.9284 -0.9688 -0.4777
  342MOL0     H46163   6.672   8.078   3.165  1.2606  0.6308  0.4508
  342MOL0     H46164   6.648   8.041   3.460  0.0852  0.1072  0.6118
  342MOL0     H46165   6.794   8.079   3.356  1.3755 -3.1365 -2.2536
  342MOL0     H46166   6.822   7.834   3.308  2.0630 -3.0163  3.2304
  342MOL0     H46167   6.688   7.795   3.399 -1.4044  1.5969 -1.1298
  342MOL0     H46168   7.023   7.847   3.672 -1.5627 -0.9915  1.7073
  342MOL0     H46169   6.620   7.963   2.962  0.9119 -2.1352 -2.4201
  342MOL0     H46170   6.613   8.026   2.741  0.8974  0.6814  2.1534
  343MOL0     O46171   9.058   4.562   0.840 -0.7733  0.5320 -0.5556
  343MOL0     C46172   9.065   4.442   0.850 -0.2759 -0.1665  0.9347
  343MOL0     O46173   8.966   4.359   0.895 -0.5932  0.5962 -0.7838
  343MOL0     C46174   8.829   4.394   0.909 -0.7269  0.0167 -0.3414
  343MOL0     C46175   8.744   4.352   0.810  0.8098 -0.3280 -0.1212
  343MOL0     C46176   8.607   4.392   0.814 -0.1247 -0.5231  0.0453
  343MOL0     C46177   8.561   4.489   0.908 -0.7165 -0.3224  0.7222
  343MOL0     O46178   8.439   4.546   0.916  0.3538  0.1934  0.2103
  343MOL0     C46179   8.369   4.580   0.799  0.0120  0.4088 -0.4534
  343MOL0     C46180   8.226   4.553   0.814  0.4056  0.0561  0.1709
  343MOL0     C46181   8.181   4.418   0.874 -0.4202 -0.3918  0.6154
  343MOL0     C46182   8.205   4.293   0.787 -0.0936 -0.6617  0.4128
  343MOL0     C46183   8.115   4.182   0.827  0.2054  0.1671 -0.5879
  343MOL0     C46184   8.177   4.119   0.958  0.0138 -0.8440  0.8242
  343MOL0     C46185   8.111   3.993   1.009  0.7382  0.6344  0.0921
  343MOL0     C46186   8.153   3.956   1.151 -0.1348 -0.9693  0.3009
  343MOL0     N46187   8.295   3.962   1.160  0.1875  0.7288  0.1668
  343MOL0     C46188   8.367   4.054   1.226 -0.6598 -0.5693  0.3702
  343MOL0     C46189   8.490   4.005   1.222  0.9044  0.5300 -0.3762
  343MOL0     C46190   8.603   4.082   1.301  0.8503  0.4216  0.3202
  343MOL0     C46191   8.627   4.212   1.224 -0.1160 -0.1023 -0.0383
  343MOL0     C46192   8.727   4.290   1.301  0.7100 -0.6197 -0.1198
  343MOL0     C46193   8.678   4.354   1.438 -0.0177  0.5764 -0.7399
  343MOL0     O46194   8.574   4.452   1.426  0.7273 -0.2265  0.5794
  343MOL0     C46195   8.437   4.411   1.409 -0.7410  0.2526 -0.1709
  343MOL0     C46196   8.368   4.510   1.332 -0.0853  0.0790 -0.4336
  343MOL0     C46197   8.234   4.494   1.293  0.6405 -0.0676  0.9965
  343MOL0     C46198   8.170   4.604   1.198  0.1601 -0.1353 -0.2861
  343MOL0     C46199   8.162   4.383   1.346 -0.7558 -0.2592  0.2520
  343MOL0     C46200   8.024   4.347   1.314  0.1198 -0.2136 -0.4142
  343MOL0     O46201   7.980   4.223   1.364  0.0160 -0.6265 -0.4398
  343MOL0     C46202   7.869   4.167   1.305  0.1621 -0.2511  0.3848
  343MOL0     C46203   7.789   4.082   1.379 -0.0113  0.4805 -0.4602
  343MOL0     C46204   7.674   4.015   1.328 -0.6951 -0.1503  0.0285
  343MOL0     C46205   7.646   4.042   1.191  0.3856  0.0635 -0.3321
  343MOL0     O46206   7.523   4.000   1.138  0.0092 -0.1337  0.1549
  343MOL0     C46207   7.422   3.939   1.225  0.3372  0.4594 -0.3547
  343MOL0     C46208   7.289   3.912   1.150 -0.1596 -0.0712 -0.6404
  343MOL0     C46209   7.157   3.878   1.237  0.3884  0.0562  0.7383
  343MOL0     C46210   7.033   3.911   1.156 -0.4778  0.3889  0.1346
  343MOL0     C46211   7.018   3.831   1.030 -0.6334 -0.0861  0.1148
  343MOL0     C46212   6.901   3.868   0.945  0.0438 -0.4120  0.0458
  343MOL0     C46213   6.866   3.765   0.833  0.0656 -0.4792  0.1100
  343MOL0     C46214   6.777   3.653   0.896  0.0483 -0.5309 -0.4477
  343MOL0    Cl46215   6.620   3.715   0.945  0.1956  0.3313 -0.0601
  343MOL0     C46216   7.731   4.120   1.112 -0.8779  1.3788 -0.0968
  343MOL0     C46217   7.843   4.183   1.171 -0.7707  0.0593  0.4714
  343MOL0     O46218   7.958   4.433   1.255  0.1450  0.0351 -0.6694
  343MOL0     C46219   8.226   4.298   1.436  0.2354  0.3827 -0.7258
  343MOL0     C46220   8.361   4.309   1.472 -0.6416  0.4185  0.2164
  343MOL0     N46221   8.488   3.880   1.157  0.2112  0.1077 -0.3735
  343MOL0     N46222   8.368   3.855   1.116  0.7794 -0.2471 -0.5181
  343MOL0     C46223   8.656   4.537   1.001 -0.3437 -0.9158 -0.0605
  343MOL0     C46224   8.787   4.486   1.013 -0.8559  0.6827 -0.2403
  343MOL0     C46225   9.194   4.370   0.825  0.4255 -0.5635 -0.0144
  343MOL0     C46226   9.205   4.232   0.837 -0.4191 -0.1837 -0.1595
  343MOL0     C46227   9.324   4.167   0.800  0.4525 -0.4683 -0.0296
  343MOL0     C46228   9.430   4.244   0.752  0.5111  0.0281  0.4658
  343MOL0     O46229   9.537   4.171   0.709  0.5884  0.3791  0.0291
  343MOL0     C46230   9.661   4.231   0.665 -0.1973  0.4374  0.0607
  343MOL0     C46231   9.754   4.118   0.605  0.1479 -0.5368 -0.1393
  343MOL0     C46232   9.887   4.186   0.562  0.1333 -0.3370 -0.5209
  343MOL0     C46233   9.977   4.090   0.499  0.2714 -0.0588  0.8231
  343MOL0     C46234   9.924   4.017   0.379 -1.1244 -0.8721 -0.0377
  343MOL0     C46235   9.881   3.965   0.279 -1.0412 -0.3909 -0.4175
  343MOL0     C46236   9.421   4.380   0.742  0.2213 -0.8200 -0.2223
  343MOL0     C46237   9.298   4.443   0.765 -0.2089  0.3734  0.1054
  343MOL0     H46238   8.774   4.280   0.735 -2.3015 -0.4082 -1.4670
  343MOL0     H46239   8.536   4.342   0.749  0.2644 -0.4237 -0.4680
  343MOL0     H46240   8.371   4.688   0.781 -0.5519  0.3587 -0.8670
  343MOL0     H46241   8.402   4.529   0.708 -3.5412  0.7668 -2.1403
  343MOL0     H46242   8.173   4.636   0.863 -0.8890 -0.5754 -0.1138
  343MOL0     H46243   8.184   4.550   0.713  1.8048 -2.2429 -0.4039
  343MOL0     H46244   8.202   4.402   0.980 -0.4495  0.7372  0.7965
  343MOL0     H46245   8.073   4.437   0.875 -0.5562 -1.0330 -0.5133
  343MOL0     H46246   8.180   4.309   0.682  1.2614 -0.4746  0.0966
  343MOL0     H46247   8.313   4.275   0.784 -0.0324 -0.5144 -4.2570
  343MOL0     H46248   8.011   4.206   0.853 -0.2700 -2.3195  0.0696
  343MOL0     H46249   8.107   4.108   0.747 -2.0483 -1.2933  0.8419
  343MOL0     H46250   8.285   4.111   0.942  0.2953  2.4123  0.2510
  343MOL0     H46251   8.168   4.198   1.032  1.3898  2.2377 -2.0096
  343MOL0     H46252   8.003   4.008   0.998  0.7237  0.6238  0.2204
  343MOL0     H46253   8.136   3.908   0.945 -1.3470 -2.0089  2.5176
  343MOL0     H46254   8.104   3.865   1.189 -2.4121  0.2839  0.5288
  343MOL0     H46255   8.117   4.031   1.221  4.8167  0.2123  2.0229
  343MOL0     H46256   8.328   4.138   1.284 -1.6226 -0.5608 -0.2873
  343MOL0     H46257   8.578   4.089   1.407 -1.8878 -1.6879 -0.0714
  343MOL0     H46258   8.693   4.019   1.307  0.9305  0.5828  0.7906
  343MOL0     H46259   8.529   4.261   1.222 -0.3473 -0.3835  1.9840
  343MOL0     H46260   8.668   4.194   1.124  1.4145  1.6783  0.2238
  343MOL0     H46261   8.749   4.379   1.241  3.4714  0.6291  2.4511
  343MOL0     H46262   8.818   4.231   1.317 -0.3855 -2.9658 -1.9824
  343MOL0     H46263   8.765   4.399   1.486  1.5857  0.5041 -3.3858
  343MOL0     H46264   8.633   4.276   1.500 -0.1559  1.1037 -0.1621
  343MOL0     H46265   8.429   4.594   1.299  1.0818 -1.9926 -4.1805
  343MOL0     H46266   8.249   4.668   1.156  0.3211 -1.3328 -1.8853
  343MOL0     H46267   8.111   4.562   1.117 -1.3324  2.3044 -0.5673
  343MOL0     H46268   8.104   4.672   1.254  0.7433  1.9762 -2.0056
  343MOL0     H46269   7.831   4.085   1.479 -0.3563 -0.5416 -0.2760
  343MOL0     H46270   7.632   3.953   1.407 -0.7753 -0.4351 -0.2352
  343MOL0     H46271   7.456   3.844   1.266 -0.8155 -0.6172 -1.8195
  343MOL0     H46272   7.392   3.999   1.312 -3.0660  0.8368 -1.6324
  343MOL0     H46273   7.268   3.997   1.084 -5.0308 -1.0151 -0.7215
  343MOL0     H46274   7.308   3.828   1.082  0.1517 -0.4880 -0.0440
  343MOL0     H46275   7.164   3.940   1.327 -3.7898  0.1353  1.1714
  343MOL0     H46276   7.163   3.772   1.260  0.2184 -0.9302 -3.0993
  343MOL0     H46277   6.943   3.899   1.217  1.2910  0.8265  2.9667
  343MOL0     H46278   7.037   4.016   1.125  1.3906  0.5851  0.9677
  343MOL0     H46279   7.008   3.728   1.067 -0.8083  0.4239  1.5285
  343MOL0     H46280   7.107   3.831   0.965 -0.0672 -0.0099  0.8703
  343MOL0     H46281   6.806   3.866   1.000 -0.0715 -1.2826 -0.1592
  343MOL0     H46282   6.922   3.957   0.886  2.9335 -0.6155  0.6243
  343MOL0     H46283   6.963   3.728   0.798  1.9058 -0.9483  4.9280
  343MOL0     H46284   6.805   3.809   0.753  0.5586  1.4471  0.7392
  343MOL0     H46285   6.844   3.614   0.974 -2.0132 -1.3974  0.9796
  343MOL0     H46286   6.749   3.575   0.826 -0.6215  0.4507 -1.3060
  343MOL0     H46287   7.711   4.122   1.006  0.0966  2.7775 -0.2792
  343MOL0     H46288   7.919   4.222   1.105 -1.5927 -0.4073 -0.7959
  343MOL0     H46289   8.182   4.221   1.498 -0.8447  0.1813 -1.7233
  343MOL0     H46290   8.418   4.242   1.534  0.7923  1.1496 -0.2710
  343MOL0     H46291   8.631   4.608   1.080 -1.3258  0.0897 -1.2249
  343MOL0     H46292   8.863   4.514   1.084 -0.9024 -0.2758  0.2055
  343MOL0     H46293   9.118   4.170   0.858 -0.3933  0.0528  0.6987
  343MOL0     H46294   9.322   4.059   0.803  0.0405 -0.4501  0.4433
  343MOL0     H46295   9.638   4.299   0.583  0.6568  0.3976 -0.2228
  343MOL0     H46296   9.719   4.279   0.744 -1.4571  1.4727  0.3720
  343MOL0     H46297   9.697   4.074   0.522 -2.1032  1.4830  0.2064
  343MOL0     H46298   9.772   4.037   0.676 -0.4619 -1.3845 -0.9192
  343MOL0     H46299   9.937   4.226   0.650 -0.5134  0.2867 -0.4277
  343MOL0     H46300   9.863   4.268   0.493  1.5766  0.4477 -0.1194
  343MOL0     H46301  10.010   4.019   0.576  1.6424  0.8327  1.0917
  343MOL0     H46302  10.064   4.151   0.475  0.1663  0.6742  2.1705
  343MOL0     H46303   9.854   3.900   0.198  2.7321 -2.8288  0.0260
  343MOL0     H46304   9.506   4.443   0.716  0.7161 -0.2974  2.3762
  343MOL0     H46305   9.283   4.550   0.758  3.2879  0.8822 -1.6333
  344MOL0     O46306   0.950  11.099   9.316 -1.0768 -0.1274  0.0794
  344MOL0     C46307   1.041  11.118   9.231 -0.3345 -0.0050 -0.2402
  344MOL0     O46308   1.029  11.110   9.093  0.6827 -0.1277  0.4074
  344MOL0     C46309   0.913  11.068   9.030  0.6298 -0.7131 -0.4947
  344MOL0     C46310   0.945  10.980   8.924  0.1779 -0.3100 -0.1924
  344MOL0     C46311   0.842  10.934   8.833  0.1842 -0.6973 -0.5690
  344MOL0     C46312   0.709  10.984   8.853 -0.3282 -1.0669  0.3790
  344MOL0     O46313   0.621  10.957   8.760  0.4351 -0.6340 -0.4808
  344MOL0     C46314   0.480  10.983   8.784  0.5504 -0.2668  0.5396
  344MOL0     C46315   0.416  10.902   8.674  0.3000 -0.8508 -0.2299
  344MOL0     C46316   0.420  10.747   8.678  0.8884 -0.6904  0.9785
  344MOL0     C46317   0.401  10.687   8.528  0.1073  0.0974 -1.4176
  344MOL0     C46318   0.368  10.530   8.534 -0.0532 -0.2784 -0.3667
  344MOL0     C46319   0.224  10.496   8.537  0.5885  0.3774 -0.1597
  344MOL0     C46320   0.201  10.354   8.496 -0.0638 -0.7902 -0.1454
  344MOL0     C46321   0.058  10.317   8.542  0.9969  0.8314  0.4035
  344MOL0     N46322   0.047  10.176   8.557  0.2546 -0.2839 -0.2396
  344MOL0     C46323   0.077  10.094   8.671 -0.4794 -0.1792  0.6078
  344MOL0     C46324   0.077   9.967   8.616 -1.6517 -0.1754 -0.0012
  344MOL0     C46325   0.123   9.843   8.681  0.6002  0.8657  0.9302
  344MOL0     C46326   0.264   9.863   8.731 -0.7901  0.1510 -0.1250
  344MOL0     C46327   0.339   9.731   8.773 -0.0605 -0.0339 -0.1726
  344MOL0     C46328   0.488   9.754   8.820 -0.6166  0.4821  0.2798
  344MOL0     O46329   0.552   9.811   8.714 -0.6441  0.2946  0.9271
  344MOL0     C46330   0.683   9.852   8.735  0.4540 -0.1091  0.0255
  344MOL0     C46331   0.755   9.891   8.626 -0.2367 -0.8288  0.3045
  344MOL0     C46332   0.880   9.948   8.640  0.4247 -0.2433  0.8704
  344MOL0     C46333   0.941   9.984   8.512  0.0343 -0.4524 -0.2348
  344MOL0     C46334   0.945   9.967   8.770 -0.7737 -0.0792 -0.5567
  344MOL0     C46335   1.086  10.019   8.800  0.4909 -0.0827  0.3846
  344MOL0     O46336   1.147   9.966   8.912 -0.1658  0.1104 -0.8875
  344MOL0     C46337   1.280  10.008   8.937  0.9220  0.3534  0.6482
  344MOL0     C46338   1.388   9.912   8.935 -0.6708 -0.3257  0.7977
  344MOL0     C46339   1.515   9.958   8.953 -0.3025 -0.7115 -0.2589
  344MOL0     C46340   1.542  10.085   8.996 -0.0803  0.2693  0.1359
  344MOL0     O46341   1.674  10.113   9.014 -0.0854 -0.3194 -0.1764
  344MOL0     C46342   1.706  10.245   9.055 -0.1981 -1.3248  0.5006
  344MOL0     C46343   1.853  10.266   9.079  0.0263 -0.4190  0.5909
  344MOL0     C46344   1.922  10.177   9.187  0.4062  0.3510 -0.8267
  344MOL0     C46345   2.059  10.230   9.209 -0.1520  0.4356  0.2949
  344MOL0     C46346   2.142  10.140   9.306  0.0698 -0.1753  0.6409
  344MOL0     C46347   2.298  10.156   9.286 -0.0108  0.6550  0.4090
  344MOL0     C46348   2.368  10.077   9.165  0.2958 -0.0647  0.7810
  344MOL0     C46349   2.518  10.061   9.177 -0.5220  0.3641 -0.2395
  344MOL0    Cl46350   2.597  10.216   9.200  0.5715 -0.3471  0.1160
  344MOL0     C46351   1.439  10.177   9.014  0.9162 -0.4024 -0.3440
  344MOL0     C46352   1.304  10.132   8.991  0.6743  0.8207 -0.8511
  344MOL0     O46353   1.127  10.109   8.723  0.2629  1.1687 -0.6288
  344MOL0     C46354   0.868   9.916   8.877 -0.6769 -0.7614  0.1202
  344MOL0     C46355   0.751   9.853   8.860 -0.2512  0.2123 -0.5303
  344MOL0     N46356   0.039   9.969   8.485  0.4153 -0.3472 -0.8204
  344MOL0     N46357   0.033  10.095   8.449 -0.6277 -1.2249 -0.4426
  344MOL0     C46358   0.680  11.072   8.964 -0.6054  0.7159  0.1904
  344MOL0     C46359   0.779  11.115   9.044  0.1697  0.8990 -0.3530
  344MOL0     C46360   1.163  11.185   9.275  0.4650  0.4386 -0.5720
  344MOL0     C46361   1.171  11.219   9.415  0.5132  0.1625 -0.0418
  344MOL0     C46362   1.285  11.292   9.457  0.1571  0.2925  0.3522
  344MOL0     C46363   1.384  11.335   9.375  0.4031 -0.1356  0.2210
  344MOL0     O46364   1.502  11.397   9.407  0.3930 -0.0717 -0.4099
  344MOL0     C46365   1.535  11.392   9.543  0.4043  0.4207  0.4744
  344MOL0     C46366   1.651  11.485   9.564  0.0488  0.0057 -0.5316
  344MOL0     C46367   1.717  11.460   9.703 -0.5596 -0.4811 -0.3659
  344MOL0     C46368   1.831  11.561   9.737 -1.0158  0.3328 -0.4212
  344MOL0     C46369   1.947  11.548   9.641  0.5092 -0.3348  0.5721
  344MOL0     C46370   2.049  11.554   9.572 -0.0364 -0.6340 -0.6320
  344MOL0     C46371   1.368  11.299   9.241  0.6795 -0.1750  0.1179
  344MOL0     C46372   1.265  11.226   9.184  0.4614 -0.4571 -0.0898
  344MOL0     H46373   1.041  10.931   8.914 -0.7108 -2.2661  0.2253
  344MOL0     H46374   0.859  10.873   8.745  0.7619 -1.6008  0.1534
  344MOL0     H46375   0.461  10.957   8.889  2.6724  0.5438  1.1829
  344MOL0     H46376   0.457  11.089   8.770 -2.2164 -0.4508  2.7757
  344MOL0     H46377   0.311  10.932   8.663  0.6404  0.3594 -0.3939
  344MOL0     H46378   0.462  10.930   8.578  1.4507 -3.7640 -0.6339
  344MOL0     H46379   0.516  10.716   8.720  2.6956  3.0179 -0.0788
  344MOL0     H46380   0.338  10.702   8.736  0.9094 -2.6888 -0.4317
  344MOL0     H46381   0.324  10.736   8.468 -0.7567 -0.2727 -0.6514
  344MOL0     H46382   0.496  10.714   8.482  2.2960 -2.9644  0.8469
  344MOL0     H46383   0.413  10.488   8.443  1.4772  2.6101 -1.0792
  344MOL0     H46384   0.414  10.472   8.614 -0.7266  0.6294  0.7045
  344MOL0     H46385   0.185  10.511   8.638 -0.6955  1.1456 -0.7453
  344MOL0     H46386   0.165  10.548   8.462 -2.9199 -1.1250  1.3544
  344MOL0     H46387   0.204  10.352   8.386 -3.1697  3.6867 -0.5836
  344MOL0     H46388   0.284  10.290   8.528  0.3991 -1.1387 -1.8983
  344MOL0     H46389  -0.023  10.361   8.483 -0.3076  2.9932  3.5816
  344MOL0     H46390   0.028  10.349   8.642 -0.5973  0.2334  0.1495
  344MOL0     H46391   0.098  10.126   8.773 -0.4567 -1.7662  1.1429
  344MOL0     H46392   0.051   9.822   8.760  0.5769  0.6729  0.8566
  344MOL0     H46393   0.131   9.766   8.603 -1.4020  0.8040  0.7312
  344MOL0     H46394   0.279   9.940   8.806 -1.4907 -0.8533  1.0754
  344MOL0     H46395   0.321   9.885   8.639  0.0664  0.6924  0.5153
  344MOL0     H46396   0.325   9.659   8.692 -4.5741  1.1713 -0.7090
  344MOL0     H46397   0.284   9.698   8.861  0.4572  3.0303  1.4434
  344MOL0     H46398   0.538   9.658   8.840  0.5604  0.5992 -1.7597
  344MOL0     H46399   0.486   9.816   8.909 -1.1359  0.9558 -0.0569
  344MOL0     H46400   0.709   9.891   8.528  0.8592 -3.3628 -0.2799
  344MOL0     H46401   0.898  10.071   8.462 -1.7849 -0.7673  0.7274
  344MOL0     H46402   1.046  10.015   8.521  0.1387 -0.8931  0.1191
  344MOL0     H46403   0.930   9.913   8.430 -0.3401  0.4763 -1.0048
  344MOL0     H46404   1.379   9.808   8.906 -0.6842 -0.0454 -0.2363
  344MOL0     H46405   1.598   9.888   8.947 -0.3374 -0.6525 -1.7678
  344MOL0     H46406   1.678  10.311   8.973 -1.8367 -3.0756 -0.4374
  344MOL0     H46407   1.647  10.271   9.143 -1.0766  1.4552 -0.7940
  344MOL0     H46408   1.915  10.250   8.990 -1.2593  0.7500 -0.5673
  344MOL0     H46409   1.861  10.374   9.093 -3.6665  0.0665 -0.0396
  344MOL0     H46410   1.929  10.077   9.143  0.1357  1.6535 -4.1332
  344MOL0     H46411   1.875  10.170   9.286  2.9124 -2.4500  0.3231
  344MOL0     H46412   2.104  10.235   9.109 -1.9253 -1.1031 -0.6321
  344MOL0     H46413   2.051  10.328   9.258  0.9067  0.6748  0.0187
  344MOL0     H46414   2.108  10.036   9.305  0.9384 -0.4688  0.4940
  344MOL0     H46415   2.133  10.162   9.413 -0.3503 -1.1405  0.8142
  344MOL0     H46416   2.313  10.263   9.268 -1.6506  0.7509 -0.5900
  344MOL0     H46417   2.350  10.130   9.379 -0.5320 -1.0976  0.2453
  344MOL0     H46418   2.346  10.134   9.074 -0.8081 -0.8184  0.5525
  344MOL0     H46419   2.310   9.984   9.171  0.1690 -0.0046  0.5200
  344MOL0     H46420   2.559  10.009   9.090 -1.9103  0.5171 -1.0228
  344MOL0     H46421   2.547  10.000   9.263  0.7825  1.0374 -0.1743
  344MOL0     H46422   1.454  10.282   9.035 -4.8277  0.3596  1.7101
  344MOL0     H46423   1.216  10.196   8.997 -1.6319 -2.0694 -1.4818
  344MOL0     H46424   0.901   9.926   8.980 -0.3537  2.4006 -0.1870
  344MOL0     H46425   0.693   9.811   8.941  1.1615  1.9494  1.5299
  344MOL0     H46426   0.584  11.116   8.990 -0.4955  0.6820  0.6654
  344MOL0     H46427   0.753  11.202   9.104  1.3545  2.6499 -2.2283
  344MOL0     H46428   1.096  11.191   9.487  1.1947  0.0705  0.6457
  344MOL0     H46429   1.291  11.289   9.566  0.5470  2.6743  0.4365
  344MOL0     H46430   1.453  11.416   9.611  0.2695  1.6336 -0.0933
  344MOL0     H46431   1.563  11.287   9.556 -1.3047 -0.1520 -0.3118
  344MOL0     H46432   1.612  11.586   9.555  1.6675  0.6176 -1.0936
  344MOL0     H46433   1.723  11.460   9.485  0.4925 -0.8693  0.1164
  344MOL0     H46434   1.764  11.361   9.699  0.4773  0.0272 -1.5066
  344MOL0     H46435   1.634  11.469   9.774 -0.0768  0.4347  0.0965
  344MOL0     H46436   1.865  11.561   9.841 -0.0921  2.3048 -0.6676
  344MOL0     H46437   1.794  11.664   9.728  2.0067  1.5607 -0.1217
  344MOL0     H46438   2.141  11.570   9.521  1.5450  0.3089  2.3024
  344MOL0     H46439   1.449  11.325   9.174 -0.5162  2.2510 -0.5189
  344MOL0     H46440   1.249  11.206   9.078 -0.0176  3.4097 -0.9279
  345MOL0     O46441   0.552   5.671   0.043  0.5676 -0.3593  0.4605
  345MOL0     C46442   0.645   5.732  -0.013  0.3566 -0.1919  0.3469
  345MOL0     O46443   0.642   5.862  -0.043  0.0584  0.4516  0.3913
  345MOL0     C46444   0.532   5.924   0.013  0.3265  0.4104  0.4084
  345MOL0     C46445   0.531   5.969   0.148 -0.9114 -0.3391 -0.4109
  345MOL0     C46446   0.410   6.027   0.187  0.1859  0.4111 -0.7189
  345MOL0     C46447   0.298   6.044   0.116  0.1865 -0.4252  0.5694
  345MOL0     O46448   0.194   6.118   0.173 -1.2159  0.4639 -0.3268
  345MOL0     C46449   0.081   6.117   0.090  0.2422 -0.5952  0.2506
  345MOL0     C46450  -0.029   6.199   0.161  0.7638 -0.0217  0.2805
  345MOL0     C46451  -0.053   6.158   0.306 -0.5066 -0.7021  0.3496
  345MOL0     C46452  -0.194   6.173   0.364 -0.0737 -0.5581  1.0260
  345MOL0     C46453  -0.268   6.044   0.381  0.7501  0.3119  0.0846
  345MOL0     C46454  -0.237   5.973   0.510  0.4772 -1.2170 -0.1314
  345MOL0     C46455  -0.313   5.838   0.512  0.1879  0.1122 -0.6137
  345MOL0     C46456  -0.298   5.758   0.638  0.4948  0.1447 -0.4581
  345MOL0     N46457  -0.383   5.809   0.747 -0.0777  0.4096  0.6463
  345MOL0     C46458  -0.510   5.861   0.749  0.4175 -0.1913  0.3991
  345MOL0     C46459  -0.525   5.911   0.874 -0.3723  0.2570  0.4576
  345MOL0     C46460  -0.640   5.988   0.921  0.1266 -1.0065  0.0118
  345MOL0     C46461  -0.775   5.917   0.927 -0.4128  0.5781 -0.0883
  345MOL0     C46462  -0.888   6.021   0.950  0.3057 -0.3195  0.3442
  345MOL0     C46463  -1.015   5.961   0.936  0.1496 -0.2494 -0.1836
  345MOL0     O46464  -1.112   6.041   0.992 -0.1580 -0.2263 -1.4549
  345MOL0     C46465  -1.248   6.009   0.985  1.1221 -0.3639 -0.1424
  345MOL0     C46466  -1.320   6.113   1.045  0.8214 -1.0319  0.1206
  345MOL0     C46467  -1.461   6.124   1.053  0.3583  0.8313 -0.2231
  345MOL0     C46468  -1.512   6.207   1.163 -0.7627 -0.3284 -0.4964
  345MOL0     C46469  -1.529   6.016   0.998  0.0313  0.8070  0.0847
  345MOL0     C46470  -1.675   6.001   1.026 -0.6197  0.0088  0.3289
  345MOL0     O46471  -1.751   6.109   1.015  0.2834  0.3642 -0.2384
  345MOL0     C46472  -1.877   6.084   1.069  0.5444 -0.2581 -0.4827
  345MOL0     C46473  -1.896   6.058   1.204 -0.3381  0.1116  0.4380
  345MOL0     C46474  -2.025   6.045   1.256 -0.8787  0.1046 -0.3274
  345MOL0     C46475  -2.140   6.058   1.179 -0.0698 -0.0351  0.1733
  345MOL0     O46476  -2.263   6.056   1.239  0.1571  0.4541 -0.4601
  345MOL0     C46477  -2.333   6.174   1.263 -0.6618 -0.2462  0.6767
  345MOL0     C46478  -2.474   6.123   1.298  0.4283  0.2440  0.6056
  345MOL0     C46479  -2.549   6.064   1.174  0.1626 -0.0451  0.3802
  345MOL0     C46480  -2.695   6.042   1.210 -0.8756 -0.0427 -0.1376
  345MOL0     C46481  -2.723   5.953   1.333  0.8942 -0.0758 -0.2531
  345MOL0     C46482  -2.651   5.815   1.316 -0.3269  0.1446 -0.6674
  345MOL0     C46483  -2.698   5.711   1.410  0.8727  0.0694  0.5617
  345MOL0     C46484  -2.850   5.678   1.417 -0.3034 -0.2194 -0.5223
  345MOL0    Cl46485  -2.949   5.788   1.519  0.4208 -0.0616 -0.0437
  345MOL0     C46486  -2.126   6.070   1.046 -0.0608  0.4154  0.1744
  345MOL0     C46487  -1.990   6.081   0.992 -0.0441  0.0857  0.3446
  345MOL0     O46488  -1.707   5.887   1.054  0.5873  0.2482 -0.8322
  345MOL0     C46489  -1.461   5.912   0.926 -0.5630  0.2188  0.5049
  345MOL0     C46490  -1.315   5.905   0.931  0.4388  0.2079  0.2583
  345MOL0     N46491  -0.406   5.886   0.946 -0.3646 -0.7083 -1.3118
  345MOL0     N46492  -0.325   5.828   0.869 -0.1711  1.2302  0.8365
  345MOL0     C46493   0.307   5.998  -0.020  0.6841  0.4427 -0.4340
  345MOL0     C46494   0.419   5.937  -0.067 -0.4072  0.7738 -0.1340
  345MOL0     C46495   0.753   5.638  -0.059  0.1879 -0.0630 -0.0796
  345MOL0     C46496   0.852   5.677  -0.149 -1.1735 -0.5011  0.5334
  345MOL0     C46497   0.952   5.590  -0.200  0.4955  0.0021  0.1475
  345MOL0     C46498   0.957   5.459  -0.154 -0.2512 -0.4322 -0.7498
  345MOL0     O46499   1.046   5.380  -0.223 -0.3020  0.4906 -0.4609
  345MOL0     C46500   1.048   5.232  -0.199  0.4496 -0.3345  0.4482
  345MOL0     C46501   1.105   5.165  -0.320 -0.0981  0.0445  0.1053
  345MOL0     C46502   1.245   5.217  -0.355 -0.6946 -0.5454  0.1776
  345MOL0     C46503   1.291   5.175  -0.498  1.2833 -0.0729 -0.1412
  345MOL0     C46504   1.431   5.210  -0.518 -0.7922 -0.3071 -0.0471
  345MOL0     C46505   1.553   5.229  -0.520  0.5160  0.2588  0.2301
  345MOL0     C46506   0.877   5.423  -0.045 -0.4057  0.2622  0.0745
  345MOL0     C46507   0.773   5.507  -0.010  0.6049  0.9618 -0.7268
  345MOL0     H46508   0.618   5.946   0.209 -0.6971  0.9044 -0.2191
  345MOL0     H46509   0.411   6.069   0.287 -1.2218  1.5367 -1.1355
  345MOL0     H46510   0.107   6.161  -0.006 -2.0284  1.0113  0.2954
  345MOL0     H46511   0.040   6.019   0.064  0.5917 -0.9037  0.8183
  345MOL0     H46512  -0.004   6.306   0.157  0.1908  0.0866 -1.0623
  345MOL0     H46513  -0.118   6.192   0.099  1.3307 -0.5724 -0.4902
  345MOL0     H46514  -0.031   6.051   0.307  2.9466 -0.1386 -0.8423
  345MOL0     H46515   0.013   6.216   0.372 -1.3284 -1.9636  2.3591
  345MOL0     H46516  -0.191   6.229   0.457 -0.3806  0.1968  0.5926
  345MOL0     H46517  -0.267   6.235   0.310 -1.0463 -1.8677  0.7934
  345MOL0     H46518  -0.374   6.068   0.373  1.2429  2.1904 -1.3991
  345MOL0     H46519  -0.237   5.968   0.308 -0.3876 -1.1166  1.0188
  345MOL0     H46520  -0.128   5.965   0.503  0.6571  0.9085 -0.2969
  345MOL0     H46521  -0.263   6.035   0.596  1.2867  0.8040 -1.2745
  345MOL0     H46522  -0.414   5.845   0.471  0.5902  0.4134 -1.5605
  345MOL0     H46523  -0.255   5.779   0.441  3.3922  3.0979 -0.7738
  345MOL0     H46524  -0.192   5.750   0.664  1.1259  0.1932 -2.7635
  345MOL0     H46525  -0.328   5.657   0.608  1.4610  1.0347 -5.1745
  345MOL0     H46526  -0.571   5.883   0.662  1.3283 -0.5346 -0.3458
  345MOL0     H46527  -0.632   6.033   1.020 -2.7015  0.5179 -0.3561
  345MOL0     H46528  -0.653   6.069   0.850 -2.7189  0.4410  1.9902
  345MOL0     H46529  -0.765   5.844   1.008  2.0579  0.7136 -0.2088
  345MOL0     H46530  -0.778   5.864   0.832  0.9617  0.8902 -0.3174
  345MOL0     H46531  -0.882   6.102   0.877 -1.2383 -0.6684 -0.2119
  345MOL0     H46532  -0.865   6.071   1.045  1.4255 -1.3662  0.6539
  345MOL0     H46533  -1.008   5.864   0.986  2.0449  1.0689  2.3438
  345MOL0     H46534  -1.041   5.943   0.831  0.0249 -1.3017  0.0111
  345MOL0     H46535  -1.263   6.190   1.096  0.1243 -2.1138  2.7272
  345MOL0     H46536  -1.550   6.299   1.117  1.7202  0.8180 -0.3777
  345MOL0     H46537  -1.593   6.158   1.219  0.9626 -5.4210 -1.8441
  345MOL0     H46538  -1.435   6.229   1.237 -2.6129  1.1931  1.1039
  345MOL0     H46539  -1.811   6.045   1.269  2.4929  0.0162 -2.9697
  345MOL0     H46540  -2.057   6.030   1.359 -2.1893  0.4093 -0.6676
  345MOL0     H46541  -2.299   6.213   1.360 -1.6604 -0.0528  0.9580
  345MOL0     H46542  -2.322   6.254   1.190  1.2401 -1.3771 -0.3732
  345MOL0     H46543  -2.472   6.057   1.385 -1.1855  1.6819  1.8064
  345MOL0     H46544  -2.540   6.202   1.336 -0.0692 -0.5733  1.4636
  345MOL0     H46545  -2.491   5.973   1.152  2.5894  1.1842  1.2938
  345MOL0     H46546  -2.556   6.134   1.091 -2.2284  0.5331  0.9891
  345MOL0     H46547  -2.731   6.141   1.241 -1.3774 -0.4851  0.7409
  345MOL0     H46548  -2.745   6.001   1.122  0.2795  0.6616 -1.1650
  345MOL0     H46549  -2.830   5.936   1.353  1.3820  0.3394  3.3430
  345MOL0     H46550  -2.696   6.011   1.421 -2.1468  5.9498 -2.7419
  345MOL0     H46551  -2.651   5.785   1.211  1.9977 -1.4783 -0.2829
  345MOL0     H46552  -2.546   5.828   1.342 -0.2959 -2.3866  0.9155
  345MOL0     H46553  -2.674   5.734   1.514  0.1542 -1.4320  1.0771
  345MOL0     H46554  -2.635   5.625   1.385  1.9422  0.9207  0.2084
  345MOL0     H46555  -2.855   5.572   1.444  2.7159 -0.0882  0.9592
  345MOL0     H46556  -2.900   5.678   1.320  2.3888 -4.5215 -2.2437
  345MOL0     H46557  -2.216   6.095   0.990 -0.1658 -0.3408 -0.0127
  345MOL0     H46558  -1.987   6.096   0.884 -2.1804  1.9353  0.4639
  345MOL0     H46559  -1.510   5.834   0.869  2.6259 -1.5619 -0.0575
  345MOL0     H46560  -1.257   5.822   0.892 -1.9262 -0.5451 -1.9588
  345MOL0     H46561   0.223   5.997  -0.089  1.5097 -1.0359 -1.4691
  345MOL0     H46562   0.428   5.904  -0.170 -0.6040 -1.3798  0.4951
  345MOL0     H46563   0.851   5.776  -0.193 -0.0998  0.4153  2.4384
  345MOL0     H46564   1.013   5.642  -0.274 -0.9092 -1.3351 -2.0704
  345MOL0     H46565   1.101   5.217  -0.105 -0.4826  0.4668  1.1194
  345MOL0     H46566   0.949   5.189  -0.182  1.3622 -2.4126  0.7565
  345MOL0     H46567   1.037   5.168  -0.405  0.9632 -0.9818 -0.8211
  345MOL0     H46568   1.117   5.060  -0.290  0.0283 -0.0127 -0.1442
  345MOL0     H46569   1.323   5.185  -0.284 -0.1581  0.3938  0.0215
  345MOL0     H46570   1.254   5.326  -0.358  1.2346 -0.6456  0.8082
  345MOL0     H46571   1.231   5.226  -0.574  2.4015  0.6966 -0.5338
  345MOL0     H46572   1.290   5.069  -0.522 -0.4751 -0.3442  0.9065
  345MOL0     H46573   1.658   5.251  -0.519  0.8268 -1.1424 -0.2321
  345MOL0     H46574   0.877   5.333   0.015 -0.6953  1.0056  1.2133
  345MOL0     H46575   0.702   5.478   0.066 -0.6323  0.1212 -2.1340
  346MOL0     O46576  10.471   7.588   3.504  0.3256 -0.5776 -0.4440
  346MOL0     C46577  10.507   7.496   3.583 -0.8785 -0.3902 -0.0433
  346MOL0     O46578  10.436   7.454   3.687  1.0665  0.3725 -0.7009
  346MOL0     C46579  10.312   7.512   3.692 -0.4465  1.0543 -1.1146
  346MOL0     C46580  10.193   7.441   3.668  0.5694  0.2543 -0.4483
  346MOL0     C46581  10.072   7.500   3.683  0.4163 -0.6939  0.2518
  346MOL0     C46582  10.057   7.631   3.714  0.4432 -1.4904  0.0093
  346MOL0     O46583   9.931   7.684   3.713  0.4529 -0.3503 -0.0685
  346MOL0     C46584   9.896   7.807   3.785  0.9013 -0.1993  1.0812
  346MOL0     C46585   9.750   7.832   3.749 -0.1340 -0.6432  0.3003
  346MOL0     C46586   9.656   7.709   3.773 -0.1102 -0.3030 -0.4986
  346MOL0     C46587   9.623   7.640   3.639 -0.0156 -0.1195 -0.5755
  346MOL0     C46588   9.614   7.488   3.634  0.0903  0.1929 -0.2808
  346MOL0     C46589   9.509   7.427   3.732 -0.0771 -0.6134  0.0917
  346MOL0     C46590   9.533   7.282   3.775  0.3015 -0.2248 -0.0435
  346MOL0     C46591   9.448   7.246   3.887  0.3300  0.5551 -0.4148
  346MOL0     N46592   9.310   7.256   3.843  0.8044 -0.0128  0.2639
  346MOL0     C46593   9.257   7.180   3.745 -0.1354  0.1948 -1.0648
  346MOL0     C46594   9.123   7.223   3.746 -0.8830  0.1757 -0.4151
  346MOL0     C46595   9.041   7.177   3.628 -0.0300 -0.1468 -0.9784
  346MOL0     C46596   8.907   7.245   3.641 -0.8958  0.1984 -0.2994
  346MOL0     C46597   8.831   7.208   3.510  0.8562  0.4042 -1.0095
  346MOL0     C46598   8.712   7.304   3.482 -1.0911 -0.3720 -0.5094
  346MOL0     O46599   8.612   7.325   3.583  0.2797  0.5137 -0.2014
  346MOL0     C46600   8.492   7.393   3.561 -0.4071 -0.0714 -0.0740
  346MOL0     C46601   8.416   7.441   3.671  0.8254  0.3048 -0.2679
  346MOL0     C46602   8.296   7.508   3.660  0.3603 -0.9468 -0.8334
  346MOL0     C46603   8.223   7.534   3.792 -0.3761 -0.4328  0.3675
  346MOL0     C46604   8.251   7.536   3.533 -0.0220  0.5759 -0.4574
  346MOL0     C46605   8.131   7.622   3.498 -0.4030 -0.1736 -0.3191
  346MOL0     O46606   8.070   7.599   3.381  0.2219 -0.8268 -1.0551
  346MOL0     C46607   7.990   7.696   3.320  0.4680  0.5033  0.1452
  346MOL0     C46608   7.915   7.640   3.221 -0.4021  0.6014 -0.6942
  346MOL0     C46609   7.836   7.720   3.138 -0.2470  0.1910  0.5626
  346MOL0     C46610   7.841   7.866   3.148  0.0575  0.4632 -0.1095
  346MOL0     O46611   7.766   7.953   3.067 -0.0003 -0.1838  0.1364
  346MOL0     C46612   7.625   7.908   3.051 -0.6794 -0.1497  0.0958
  346MOL0     C46613   7.548   8.006   2.960  0.6356 -0.2492 -0.2326
  346MOL0     C46614   7.533   8.150   3.020  0.2710  0.5915 -0.0477
  346MOL0     C46615   7.659   8.239   2.997  0.2015  0.7456 -1.2246
  346MOL0     C46616   7.687   8.345   3.091 -0.1638  0.1138  0.1610
  346MOL0     C46617   7.550   8.410   3.145 -0.3683  0.6044 -0.1455
  346MOL0     C46618   7.565   8.522   3.248 -0.0340  0.3962  0.3276
  346MOL0     C46619   7.440   8.563   3.322 -0.1472  0.9943 -0.6302
  346MOL0    Cl46620   7.376   8.435   3.431 -0.2775  0.1971 -0.5581
  346MOL0     C46621   7.925   7.924   3.248 -0.4763  0.0419  0.3020
  346MOL0     C46622   8.009   7.835   3.324  0.9654  0.2251 -0.2208
  346MOL0     O46623   8.102   7.722   3.576  0.1349  0.4554  0.0618
  346MOL0     C46624   8.330   7.499   3.421  0.1073 -0.5247 -0.1100
  346MOL0     C46625   8.448   7.428   3.432  0.0580  0.8478  0.1807
  346MOL0     N46626   9.095   7.323   3.841 -0.8853  0.0664 -0.1001
  346MOL0     N46627   9.217   7.341   3.902  0.0941  0.4202  0.1507
  346MOL0     C46628  10.169   7.708   3.736 -0.1422 -0.2845  0.1848
  346MOL0     C46629  10.297   7.650   3.729 -0.0862 -0.1885 -0.1095
  346MOL0     C46630  10.623   7.401   3.536  0.4909 -0.4331 -0.1364
  346MOL0     C46631  10.685   7.305   3.611  0.0542  0.4084  0.9334
  346MOL0     C46632  10.793   7.232   3.557  0.0579 -0.6290  0.2774
  346MOL0     C46633  10.828   7.243   3.423 -0.6865  0.2698 -0.6495
  346MOL0     O46634  10.931   7.175   3.370  0.0775 -0.3809  0.7598
  346MOL0     C46635  10.962   7.043   3.429 -0.3665  1.0998 -0.0908
  346MOL0     C46636  11.089   6.981   3.361  0.2464 -0.4830 -0.2842
  346MOL0     C46637  11.088   6.985   3.205 -0.2100 -0.0829 -0.1425
  346MOL0     C46638  11.098   6.852   3.135 -0.5971  0.4022 -0.4191
  346MOL0     C46639  11.235   6.796   3.141 -0.6845  0.5322 -0.2868
  346MOL0     C46640  11.337   6.732   3.148  1.5108  0.4987  0.1323
  346MOL0     C46641  10.761   7.333   3.345 -0.8289 -0.3541 -1.2791
  346MOL0     C46642  10.666   7.421   3.397  0.6607  0.0269 -0.6010
  346MOL0     H46643  10.198   7.334   3.650 -2.6884 -0.4906  2.2110
  346MOL0     H46644   9.981   7.444   3.663  0.6348 -1.1104  0.4141
  346MOL0     H46645   9.900   7.789   3.893 -4.7656 -2.9993  1.1823
  346MOL0     H46646   9.943   7.899   3.750 -1.7083  0.6860 -0.3510
  346MOL0     H46647   9.717   7.904   3.825  2.1992  2.5702 -1.4670
  346MOL0     H46648   9.731   7.868   3.648  0.9239 -2.8571 -0.7547
  346MOL0     H46649   9.701   7.641   3.847  0.3059 -0.9866 -1.3610
  346MOL0     H46650   9.567   7.744   3.826  0.8911  0.7695  0.5311
  346MOL0     H46651   9.535   7.684   3.590  1.2426  2.0835 -0.9870
  346MOL0     H46652   9.707   7.653   3.570  1.1920 -0.6010  0.7486
  346MOL0     H46653   9.575   7.460   3.535 -2.0077  1.9372 -0.0334
  346MOL0     H46654   9.708   7.435   3.651  0.3529  0.8028  0.1958
  346MOL0     H46655   9.506   7.497   3.817 -0.4328 -1.5974  0.9127
  346MOL0     H46656   9.416   7.441   3.678 -0.6921 -0.3474  1.1906
  346MOL0     H46657   9.516   7.216   3.689  1.9071 -2.9003  1.5495
  346MOL0     H46658   9.638   7.263   3.797  1.0030  4.2220  1.4464
  346MOL0     H46659   9.464   7.320   3.967  0.2093 -0.5999  0.7103
  346MOL0     H46660   9.471   7.147   3.927  2.1127  1.1534  0.1789
  346MOL0     H46661   9.301   7.104   3.681 -0.2064  0.6029 -1.6011
  346MOL0     H46662   9.089   7.213   3.537  1.3209 -1.7880 -0.9479
  346MOL0     H46663   9.022   7.070   3.621  0.0318 -0.2125 -0.2373
  346MOL0     H46664   8.921   7.353   3.649  1.0746 -0.1259  1.3723
  346MOL0     H46665   8.850   7.214   3.729  1.0317  2.4080  1.8432
  346MOL0     H46666   8.786   7.110   3.530  0.5944  0.7723  0.3660
  346MOL0     H46667   8.891   7.212   3.419 -0.3466  0.6078 -1.8173
  346MOL0     H46668   8.665   7.269   3.389 -0.0173 -2.1053 -0.4579
  346MOL0     H46669   8.762   7.400   3.463 -0.1056 -0.4825  1.3300
  346MOL0     H46670   8.449   7.410   3.770 -0.3232 -0.4680 -0.1105
  346MOL0     H46671   8.117   7.548   3.771 -0.5996  0.5315  1.9478
  346MOL0     H46672   8.232   7.450   3.862 -0.8130 -1.1538 -0.4364
  346MOL0     H46673   8.263   7.623   3.842 -0.3118 -1.3315  1.9959
  346MOL0     H46674   7.901   7.533   3.219  1.7004  0.2513  0.3027
  346MOL0     H46675   7.771   7.669   3.067  0.1471 -0.6331  0.7835
  346MOL0     H46676   7.617   7.820   2.985 -1.9839  0.7784 -1.0417
  346MOL0     H46677   7.580   7.879   3.146 -2.1891  0.3026 -0.4514
  346MOL0     H46678   7.587   8.010   2.858  0.3346 -1.1162 -0.3879
  346MOL0     H46679   7.446   7.968   2.952 -0.0247 -0.4398  5.2314
  346MOL0     H46680   7.523   8.130   3.127  1.8649  0.1049  0.0288
  346MOL0     H46681   7.437   8.193   2.988 -1.4544 -1.8398  1.4754
  346MOL0     H46682   7.750   8.178   2.996 -0.5005 -0.3714 -0.2028
  346MOL0     H46683   7.656   8.281   2.896  1.9498  1.8506 -0.8621
  346MOL0     H46684   7.767   8.414   3.063  0.2321  0.1092  1.2088
  346MOL0     H46685   7.738   8.304   3.179 -1.1700  0.8824  1.1428
  346MOL0     H46686   7.493   8.445   3.059  1.2273  1.3978 -0.9278
  346MOL0     H46687   7.489   8.332   3.192 -0.8101  0.6195 -0.6926
  346MOL0     H46688   7.588   8.607   3.183 -3.0628  1.6861  0.8194
  346MOL0     H46689   7.649   8.499   3.314  2.1483  1.9053 -1.7380
  346MOL0     H46690   7.364   8.604   3.254 -1.4629  0.3134  0.3869
  346MOL0     H46691   7.470   8.638   3.395  3.0070  0.0530 -0.8435
  346MOL0     H46692   7.942   8.030   3.258  1.6151 -0.4358  3.0312
  346MOL0     H46693   8.085   7.878   3.388  3.5584 -1.9115 -1.6719
  346MOL0     H46694   8.299   7.535   3.323  1.0903  1.6461  0.3315
  346MOL0     H46695   8.504   7.402   3.343  0.8174  0.7852  0.6635
  346MOL0     H46696  10.167   7.816   3.745 -1.6886 -0.0780 -1.9227
  346MOL0     H46697  10.387   7.712   3.734 -0.8625  0.8404  3.2728
  346MOL0     H46698  10.655   7.293   3.714 -1.1806 -2.3056  0.3404
  346MOL0     H46699  10.848   7.170   3.627  0.8264 -1.0437 -0.6714
  346MOL0     H46700  10.987   7.046   3.536  2.9051  0.0638 -0.7016
  346MOL0     H46701  10.882   6.975   3.402 -0.2688  0.0572  1.9977
  346MOL0     H46702  11.084   6.877   3.394 -4.2240  0.1791  1.9012
  346MOL0     H46703  11.179   7.038   3.387  0.9139 -1.0514 -1.2507
  346MOL0     H46704  11.176   7.045   3.180 -0.3464  1.3875  2.5157
  346MOL0     H46705  10.995   7.029   3.168  1.6677  3.1689 -1.4339
  346MOL0     H46706  11.071   6.860   3.029  1.3864 -0.7851 -1.0755
  346MOL0     H46707  11.022   6.786   3.177  1.4590 -2.2355 -0.6193
  346MOL0     H46708  11.428   6.677   3.160  0.8197 -0.7948 -0.2750
  346MOL0     H46709  10.805   7.350   3.248  2.7919 -1.4494  0.0062
  346MOL0     H46710  10.635   7.501   3.331 -0.1780 -0.8898 -1.3441
  347MOL0     O46711  10.982   9.988   0.205  0.0059  0.0948 -0.0017
  347MOL0     C46712  11.011  10.028   0.317 -0.0984 -0.4148  0.5123
  347MOL0     O46713  10.918  10.094   0.401  0.2918  0.2212  0.1837
  347MOL0     C46714  10.790  10.112   0.350 -0.7497 -0.5728  0.1259
  347MOL0     C46715  10.688  10.030   0.395  0.7337 -0.3123  0.3589
  347MOL0     C46716  10.548  10.074   0.374  0.0783 -0.1667 -0.0720
  347MOL0     C46717  10.517  10.174   0.284 -0.3788 -0.3145 -0.3212
  347MOL0     O46718  10.392  10.226   0.253 -0.2045 -0.4216 -0.1854
  347MOL0     C46719  10.276  10.185   0.337 -0.5404  0.1201  0.1239
  347MOL0     C46720  10.186  10.298   0.375  0.1334 -0.1054  0.2469
  347MOL0     C46721  10.079  10.319   0.269  0.7679  0.5815 -0.3042
  347MOL0     C46722   9.968  10.213   0.252 -0.3109 -0.3622 -0.2955
  347MOL0     C46723   9.840  10.300   0.207  0.3273  0.5903  0.9636
  347MOL0     C46724   9.731  10.206   0.150 -0.1191 -0.5076 -0.2216
  347MOL0     C46725   9.598  10.278   0.091 -0.4825 -0.7352 -0.3443
  347MOL0     C46726   9.495  10.170   0.065 -0.0382  0.3095 -0.3096
  347MOL0     N46727   9.368  10.228   0.022  0.5641 -0.2767  0.1576
  347MOL0     C46728   9.251  10.219   0.105 -0.5114 -0.2208  0.3574
  347MOL0     C46729   9.162  10.299   0.037  0.2161 -0.1503 -0.9754
  347MOL0     C46730   9.017  10.331   0.069 -0.8173 -0.4960  0.9186
  347MOL0     C46731   8.990  10.347   0.216 -0.1530 -0.5218 -0.1232
  347MOL0     C46732   8.856  10.414   0.241  0.1596  0.4867 -1.0232
  347MOL0     C46733   8.815  10.417   0.390 -0.2907  0.1001  0.1308
  347MOL0     O46734   8.892  10.518   0.459  0.4712 -0.1296 -0.1853
  347MOL0     C46735   8.858  10.641   0.431 -0.6033  0.4412  1.1876
  347MOL0     C46736   8.956  10.736   0.465 -0.2334 -0.0131 -0.1696
  347MOL0     C46737   8.940  10.869   0.443 -0.7852  0.2090 -0.4046
  347MOL0     C46738   9.054  10.960   0.488  0.4228  0.4167 -0.0118
  347MOL0     C46739   8.815  10.916   0.384 -0.0005  0.8321 -0.3213
  347MOL0     C46740   8.778  11.055   0.369  0.2161 -0.3346 -0.0660
  347MOL0     O46741   8.652  11.080   0.336  0.4317  0.4322  1.2692
  347MOL0     C46742   8.585  11.206   0.325  0.1564  0.2291  0.9504
  347MOL0     C46743   8.534  11.258   0.205  0.3273 -0.5894  0.6088
  347MOL0     C46744   8.481  11.392   0.200 -1.3538 -1.4169  0.3265
  347MOL0     C46745   8.482  11.474   0.311 -0.6969  1.0227  0.3821
  347MOL0     O46746   8.440  11.606   0.314 -0.7449 -0.4747  0.3591
  347MOL0     C46747   8.374  11.658   0.196  0.3174  0.2868  0.5771
  347MOL0     C46748   8.299  11.784   0.237 -0.1049  1.2391  0.3844
  347MOL0     C46749   8.215  11.773   0.364 -0.8791  0.0928  0.7972
  347MOL0     C46750   8.106  11.667   0.352  0.4826  0.1544  0.0539
  347MOL0     C46751   8.008  11.677   0.467 -0.5478 -0.4658 -0.6936
  347MOL0     C46752   7.924  11.797   0.422  0.3474 -0.7103  0.1090
  347MOL0     C46753   7.793  11.808   0.508  0.2233  0.0340  0.8034
  347MOL0     C46754   7.764  11.945   0.553 -0.2750  0.6732 -0.5566
  347MOL0    Cl46755   7.702  12.026   0.398 -0.1749 -0.1432  0.0390
  347MOL0     C46756   8.524  11.409   0.429 -0.2046 -0.3105 -0.0957
  347MOL0     C46757   8.576  11.285   0.436 -0.3963 -0.5273 -0.3634
  347MOL0     O46758   8.857  11.146   0.392  0.1081 -0.0675  0.3267
  347MOL0     C46759   8.718  10.820   0.334 -0.1083  0.5493  0.9201
  347MOL0     C46760   8.739  10.686   0.363 -0.3642 -0.2627  0.7074
  347MOL0     N46761   9.212  10.327  -0.094 -0.6277 -0.8386  1.4282
  347MOL0     N46762   9.336  10.282  -0.102  0.7979  0.1454 -0.3290
  347MOL0     C46763  10.625  10.243   0.232  1.0051  0.5186  0.5789
  347MOL0     C46764  10.756  10.219   0.266 -0.2823 -0.0008  0.2929
  347MOL0     C46765  11.147   9.995   0.360  0.3593  0.3592 -0.7643
  347MOL0     C46766  11.232   9.906   0.291  0.8004 -0.4601  1.1668
  347MOL0     C46767  11.363   9.873   0.331 -1.1251 -0.7462  1.2095
  347MOL0     C46768  11.416   9.925   0.454  0.6509  0.9007 -0.0917
  347MOL0     O46769  11.533   9.880   0.502  0.2709 -0.9452 -0.6000
  347MOL0     C46770  11.574   9.927   0.631 -0.8767  0.2442 -0.4359
  347MOL0     C46771  11.714   9.887   0.675  0.0006  0.3468 -0.6549
  347MOL0     C46772  11.783   9.981   0.774  0.1104 -0.4780  0.0758
  347MOL0     C46773  11.923   9.946   0.787 -0.1941  0.2260 -0.0917
  347MOL0     C46774  12.008   9.982   0.670  0.1248 -0.8113  0.0489
  347MOL0     C46775  12.075  10.016   0.568  1.5216 -0.1496 -0.2880
  347MOL0     C46776  11.326  10.000   0.529  0.1282 -0.1805 -0.4370
  347MOL0     C46777  11.195  10.033   0.484 -0.6757 -0.7226  0.2095
  347MOL0     H46778  10.714   9.945   0.459  1.1561 -0.3812  0.1045
  347MOL0     H46779  10.478  10.016   0.433 -0.4149 -0.7222 -1.1780
  347MOL0     H46780  10.206  10.116   0.288 -3.6844  3.0357  0.0747
  347MOL0     H46781  10.309  10.143   0.432  0.2499 -0.1819 -0.2803
  347MOL0     H46782  10.128  10.287   0.467 -2.9472  1.5709 -1.3384
  347MOL0     H46783  10.237  10.392   0.397 -0.6632 -0.3376  3.7420
  347MOL0     H46784  10.032  10.405   0.317 -2.6015 -1.1680 -0.1961
  347MOL0     H46785  10.106  10.362   0.173 -0.8930  2.8481  0.1698
  347MOL0     H46786   9.988  10.145   0.169  1.2621  0.5806 -0.7389
  347MOL0     H46787   9.937  10.160   0.343 -1.2672 -0.3313 -0.5867
  347MOL0     H46788   9.804  10.349   0.298  0.7203  2.0690  0.3410
  347MOL0     H46789   9.868  10.370   0.127 -1.9523  3.6612  2.6413
  347MOL0     H46790   9.770  10.131   0.081  2.0230 -0.1369  0.5076
  347MOL0     H46791   9.702  10.148   0.238 -0.4501 -4.3143 -2.6191
  347MOL0     H46792   9.562  10.352   0.164  0.4787 -0.7199  0.1226
  347MOL0     H46793   9.626  10.332   0.001  0.2008  0.3404  0.4922
  347MOL0     H46794   9.485  10.119   0.161  2.7902  0.7297  0.3030
  347MOL0     H46795   9.545  10.110  -0.013 -0.1484  1.9818 -1.7417
  347MOL0     H46796   9.252  10.179   0.206  0.4810 -1.4500 -0.1090
  347MOL0     H46797   9.000  10.433   0.032  2.9261  0.5435  1.5918
  347MOL0     H46798   8.951  10.264   0.014  0.6175 -2.2501  1.2535
  347MOL0     H46799   9.064  10.406   0.271  1.3016 -1.3193 -1.1446
  347MOL0     H46800   9.004  10.247   0.258  1.9454 -0.7547 -1.2486
  347MOL0     H46801   8.778  10.357   0.191 -0.3934  0.2132  0.1151
  347MOL0     H46802   8.857  10.510   0.188  0.9055  1.0416 -0.0504
  347MOL0     H46803   8.834  10.318   0.433 -2.3967  0.3951  1.9342
  347MOL0     H46804   8.709  10.434   0.408 -0.4381  1.4412 -1.7039
  347MOL0     H46805   9.046  10.707   0.517  0.7550 -1.2342 -2.4464
  347MOL0     H46806   9.013  11.044   0.545  0.4839  0.5875 -0.2179
  347MOL0     H46807   9.128  10.915   0.555 -0.5064  1.9342  2.1484
  347MOL0     H46808   9.107  10.996   0.399  3.6616 -1.1254  1.1252
  347MOL0     H46809   8.548  11.192   0.120  2.8232 -1.1045  1.3319
  347MOL0     H46810   8.451  11.428   0.102  1.7222  2.3938  0.5467
  347MOL0     H46811   8.443  11.688   0.117  0.8145  0.5499  1.0997
  347MOL0     H46812   8.303  11.579   0.170  2.6211 -1.6724 -0.0650
  347MOL0     H46813   8.367  11.868   0.255 -0.7716  1.3623  2.5609
  347MOL0     H46814   8.242  11.816   0.149 -0.7713  2.9114  1.3860
  347MOL0     H46815   8.186  11.875   0.394 -0.9759 -0.5430  3.0428
  347MOL0     H46816   8.285  11.757   0.446 -1.1158 -1.5027  0.7203
  347MOL0     H46817   8.061  11.670   0.252  0.1992 -1.8402  0.0882
  347MOL0     H46818   8.159  11.572   0.356  3.7246  1.6561 -2.3156
  347MOL0     H46819   8.062  11.693   0.561 -2.4356  0.9935  0.2282
  347MOL0     H46820   7.943  11.589   0.465 -1.4382  0.1754 -2.8417
  347MOL0     H46821   7.982  11.890   0.433 -0.4147 -0.3246  0.9805
  347MOL0     H46822   7.894  11.777   0.319  0.2367 -0.7312  0.1453
  347MOL0     H46823   7.804  11.746   0.598  0.6239 -4.1762 -1.8953
  347MOL0     H46824   7.715  11.773   0.440 -0.0982  4.3972 -1.4001
  347MOL0     H46825   7.858  11.984   0.593 -1.3731  0.4639  2.4879
  347MOL0     H46826   7.685  11.927   0.627 -0.7589 -0.4835 -1.3289
  347MOL0     H46827   8.526  11.479   0.512  1.7218  0.7697 -0.9753
  347MOL0     H46828   8.620  11.248   0.529 -1.0841 -0.0703  0.1479
  347MOL0     H46829   8.631  10.842   0.271 -1.1780 -0.7758  1.8666
  347MOL0     H46830   8.661  10.616   0.335 -0.8650  0.0163  1.3618
  347MOL0     H46831  10.599  10.326   0.167  4.5555 -0.0029 -1.7888
  347MOL0     H46832  10.825  10.283   0.211 -1.0885  0.3831 -0.2909
  347MOL0     H46833  11.195   9.856   0.202 -3.5587 -1.4919  3.2503
  347MOL0     H46834  11.424   9.804   0.274  0.1161  0.8891  0.4547
  347MOL0     H46835  11.571  10.036   0.639  0.0759  0.1494  2.6786
  347MOL0     H46836  11.510   9.884   0.708  0.8116 -1.2474  0.2223
  347MOL0     H46837  11.777   9.881   0.586  0.9331  0.7567 -0.0341
  347MOL0     H46838  11.704   9.788   0.721 -1.3313  0.8304  0.1526
  347MOL0     H46839  11.735   9.956   0.870 -1.2036  2.4376  0.2716
  347MOL0     H46840  11.778  10.087   0.750  0.4012 -0.1466  1.4033
  347MOL0     H46841  11.928   9.838   0.804 -1.2370  0.2637  0.5096
  347MOL0     H46842  11.966   9.984   0.881  1.0060  0.7924 -0.8406
  347MOL0     H46843  12.149  10.031   0.491 -0.0764  0.9579 -1.6867
  347MOL0     H46844  11.347  10.040   0.627 -0.4466  2.9404 -1.4941
  347MOL0     H46845  11.141  10.100   0.551  1.5174  3.2228 -1.6052
  348MOL0     O46846   6.226   0.215   5.015  0.3358  0.2881  0.0165
  348MOL0     C46847   6.252   0.294   5.101  0.6085  0.2880 -0.3217
  348MOL0     O46848   6.170   0.334   5.209 -0.4654  0.2319 -0.5885
  348MOL0     C46849   6.055   0.260   5.225  0.6087  1.5718  0.9096
  348MOL0     C46850   6.056   0.121   5.253 -1.2751 -0.9371 -0.0485
  348MOL0     C46851   5.935   0.063   5.281  0.1602  0.1054  0.1179
  348MOL0     C46852   5.816   0.126   5.274  0.3010  0.2550  0.3874
  348MOL0     O46853   5.706   0.055   5.321 -0.2085  0.1301  0.5690
  348MOL0     C46854   5.585   0.072   5.242 -0.6518 -1.2206 -0.6285
  348MOL0     C46855   5.460   0.004   5.291 -0.3865 -0.3946  0.3505
  348MOL0     C46856   5.472  -0.143   5.279  0.4739 -0.4312 -0.3064
  348MOL0     C46857   5.346  -0.224   5.294  0.3561  0.2045  0.4147
  348MOL0     C46858   5.372  -0.368   5.256  0.4399 -0.2592  0.3043
  348MOL0     C46859   5.235  -0.429   5.222 -0.1927  0.0460  0.0414
  348MOL0     C46860   5.139  -0.466   5.341 -1.1974  0.1280 -0.5554
  348MOL0     C46861   5.004  -0.508   5.280 -1.2006 -1.0346 -0.0318
  348MOL0     N46862   4.945  -0.403   5.203 -0.2927  0.0432 -0.6991
  348MOL0     C46863   4.884  -0.290   5.253  0.1676 -0.0525  0.0856
  348MOL0     C46864   4.818  -0.227   5.148 -0.1147  0.6062  0.3047
  348MOL0     C46865   4.728  -0.112   5.150  0.2557  0.1220  0.0192
  348MOL0     C46866   4.585  -0.144   5.191  0.1900  0.4244  0.4740
  348MOL0     C46867   4.494  -0.181   5.081 -0.7717 -0.2284 -0.2294
  348MOL0     C46868   4.344  -0.179   5.110  1.1395  0.2968  1.3880
  348MOL0     O46869   4.304  -0.050   5.150 -0.6221 -0.4042 -0.5653
  348MOL0     C46870   4.166  -0.029   5.162 -0.3936 -0.1819  0.6864
  348MOL0     C46871   4.125   0.097   5.208  0.1030 -1.1892 -0.4804
  348MOL0     C46872   3.989   0.117   5.248 -0.2064  0.7402 -0.0720
  348MOL0     C46873   3.953   0.255   5.309 -0.0423  0.0802  0.1092
  348MOL0     C46874   3.895   0.016   5.226 -0.2485 -0.1915  0.2809
  348MOL0     C46875   3.750   0.034   5.257 -0.4545  0.5242 -0.5101
  348MOL0     O46876   3.699   0.159   5.264 -0.2733  0.0160 -0.3083
  348MOL0     C46877   3.568   0.184   5.262  0.2332  0.4062  0.2461
  348MOL0     C46878   3.537   0.301   5.197 -0.1634 -0.0831 -0.3182
  348MOL0     C46879   3.403   0.354   5.183 -0.7123 -0.2884 -0.7061
  348MOL0     C46880   3.295   0.278   5.237  0.9884  0.7276  0.2932
  348MOL0     O46881   3.175   0.339   5.220  0.0462 -0.4892  0.3919
  348MOL0     C46882   3.047   0.283   5.270 -0.4903 -0.1619  0.1878
  348MOL0     C46883   2.921   0.342   5.209 -0.4311  0.0722  0.6205
  348MOL0     C46884   2.800   0.248   5.228  0.8195 -0.1583  0.2878
  348MOL0     C46885   2.674   0.312   5.160 -0.4561  0.5601 -0.6839
  348MOL0     C46886   2.550   0.223   5.172 -0.1757  0.3988  0.1593
  348MOL0     C46887   2.415   0.290   5.163 -0.3231 -0.1245 -0.7903
  348MOL0     C46888   2.316   0.177   5.167  0.5893 -0.1092 -0.6039
  348MOL0     C46889   2.184   0.221   5.107 -0.1178 -0.8703 -0.2669
  348MOL0    Cl46890   2.066   0.090   5.121  0.0877  0.2103  0.2619
  348MOL0     C46891   3.325   0.153   5.298  0.2221  0.2418  0.5594
  348MOL0     C46892   3.458   0.103   5.314 -0.1431  0.4004  0.1210
  348MOL0     O46893   3.682  -0.069   5.255  0.5900  0.2559 -0.8919
  348MOL0     C46894   3.939  -0.111   5.193  0.0055 -0.4125 -0.5340
  348MOL0     C46895   4.071  -0.129   5.152 -0.3048  0.1864  0.0570
  348MOL0     N46896   4.835  -0.310   5.037  0.3587 -0.3025  0.1255
  348MOL0     N46897   4.911  -0.415   5.074 -0.4016  0.4613  0.1170
  348MOL0     C46898   5.813   0.262   5.233 -0.4693 -0.0430 -0.0505
  348MOL0     C46899   5.929   0.327   5.215 -0.5049  0.2427 -0.1694
  348MOL0     C46900   6.379   0.369   5.098  0.5146 -0.3752  0.3607
  348MOL0     C46901   6.467   0.357   4.995  0.0450  0.7323  0.0946
  348MOL0     C46902   6.592   0.418   5.002 -0.3388 -0.0935  0.1042
  348MOL0     C46903   6.629   0.486   5.113  0.1067  0.0819 -0.0320
  348MOL0     O46904   6.758   0.530   5.142  0.7680 -0.2862  0.2346
  348MOL0     C46905   6.807   0.611   5.031 -0.1663 -0.0565 -0.0736
  348MOL0     C46906   6.920   0.537   4.964  0.4954  0.4716 -0.1039
  348MOL0     C46907   7.041   0.500   5.040  1.3560  0.4840 -0.0935
  348MOL0     C46908   7.107   0.618   5.104  0.0791 -1.2542  0.1534
  348MOL0     C46909   7.223   0.570   5.186  0.1223  0.1399  0.0276
  348MOL0     C46910   7.320   0.540   5.257  0.3425  0.9746 -0.4882
  348MOL0     C46911   6.538   0.498   5.210  0.9339  0.1542 -0.0886
  348MOL0     C46912   6.411   0.448   5.203  0.5087  0.4260 -0.2405
  348MOL0     H46913   6.154   0.076   5.261 -0.5383 -0.3149 -3.7797
  348MOL0     H46914   5.936  -0.043   5.305 -2.9657 -0.4604 -1.7764
  348MOL0     H46915   5.569   0.180   5.244 -1.6072 -1.3309 -1.3719
  348MOL0     H46916   5.591   0.042   5.137 -1.9918 -0.6395 -0.8892
  348MOL0     H46917   5.441   0.035   5.394 -1.2639 -1.5712  0.5617
  348MOL0     H46918   5.375   0.031   5.227 -0.4192 -2.6229 -0.6478
  348MOL0     H46919   5.526  -0.167   5.187  0.7612  1.9098 -0.8184
  348MOL0     H46920   5.539  -0.173   5.360 -0.9190 -1.4273  0.5157
  348MOL0     H46921   5.311  -0.212   5.397 -0.6232 -1.7275  0.3447
  348MOL0     H46922   5.279  -0.182   5.219  4.8213  0.7481 -3.7997
  348MOL0     H46923   5.437  -0.358   5.168  1.0976  0.7111  0.8814
  348MOL0     H46924   5.429  -0.422   5.332  3.2002 -1.1255 -2.1376
  348MOL0     H46925   5.184  -0.357   5.157  1.5931  0.5456 -0.8655
  348MOL0     H46926   5.242  -0.519   5.160 -1.0800 -1.6301  2.2380
  348MOL0     H46927   5.189  -0.554   5.383  1.3207  0.1240 -3.2267
  348MOL0     H46928   5.130  -0.389   5.419  0.8428 -1.2118  1.1190
  348MOL0     H46929   4.926  -0.538   5.350  0.1562 -2.3645  0.9731
  348MOL0     H46930   5.028  -0.592   5.214 -0.9265  1.3583 -3.2414
  348MOL0     H46931   4.880  -0.271   5.360  1.9256 -2.8140  0.7666
  348MOL0     H46932   4.760  -0.036   5.221  0.2808 -0.8339  1.0560
  348MOL0     H46933   4.724  -0.071   5.048  2.1696  0.2788 -0.0283
  348MOL0     H46934   4.541  -0.062   5.248 -1.1671 -0.9607  1.4631
  348MOL0     H46935   4.601  -0.228   5.258 -0.5790  0.7192  1.0341
  348MOL0     H46936   4.529  -0.279   5.045  0.6680  0.1372  0.1158
  348MOL0     H46937   4.514  -0.116   4.995  3.5328 -1.0440 -0.0850
  348MOL0     H46938   4.321  -0.248   5.191 -0.4469 -1.6693 -0.6215
  348MOL0     H46939   4.297  -0.220   5.021  0.3985  0.3069  1.7675
  348MOL0     H46940   4.194   0.180   5.223  0.6998 -2.1719  3.4721
  348MOL0     H46941   3.867   0.309   5.268 -0.5100 -0.0019  0.9534
  348MOL0     H46942   3.920   0.243   5.413 -2.0296  1.3696 -0.3163
  348MOL0     H46943   4.040   0.321   5.315 -1.2247  1.6577  0.6045
  348MOL0     H46944   3.616   0.366   5.159  1.3074 -1.5224  0.1657
  348MOL0     H46945   3.403   0.452   5.138 -0.0059 -0.5875 -1.3793
  348MOL0     H46946   3.049   0.174   5.254  3.1533 -0.2716  0.4276
  348MOL0     H46947   3.060   0.303   5.377  0.8861 -1.9564  0.4297
  348MOL0     H46948   2.918   0.442   5.253  3.3702 -0.0702  1.5856
  348MOL0     H46949   2.936   0.344   5.101  0.4522  0.9876  0.7390
  348MOL0     H46950   2.786   0.217   5.332 -3.4265  0.8957  0.2013
  348MOL0     H46951   2.826   0.155   5.176 -0.1054 -0.5679  0.5357
  348MOL0     H46952   2.650   0.402   5.218  2.4851  0.5362  0.7559
  348MOL0     H46953   2.692   0.334   5.054 -0.0520  0.5408 -0.6186
  348MOL0     H46954   2.563   0.159   5.259  0.4720  1.3474  0.7911
  348MOL0     H46955   2.562   0.147   5.094  1.9701 -1.0303  1.7553
  348MOL0     H46956   2.402   0.357   5.248  0.4202 -3.0698  1.8071
  348MOL0     H46957   2.408   0.335   5.063 -1.7569  0.8436 -0.2847
  348MOL0     H46958   2.300   0.150   5.272 -0.6195  2.7355  0.0356
  348MOL0     H46959   2.335   0.083   5.114 -2.4158 -0.6855 -0.8306
  348MOL0     H46960   2.194   0.250   5.002  0.1636  1.3911  0.3299
  348MOL0     H46961   2.144   0.311   5.155 -0.8097  0.8525 -3.7581
  348MOL0     H46962   3.239   0.097   5.335 -3.2106  3.2850 -2.0317
  348MOL0     H46963   3.485   0.008   5.359  1.9704  1.1908  0.6945
  348MOL0     H46964   3.869  -0.193   5.195 -1.5829  0.8975 -0.5487
  348MOL0     H46965   4.091  -0.230   5.118  1.0136  0.8729 -1.3120
  348MOL0     H46966   5.722   0.320   5.224 -0.0354  0.5084 -1.0129
  348MOL0     H46967   5.930   0.431   5.183  1.3089 -0.7536 -4.0152
  348MOL0     H46968   6.449   0.274   4.927  0.5583 -0.3659  1.2543
  348MOL0     H46969   6.668   0.402   4.927 -0.7358  2.1184 -0.8460
  348MOL0     H46970   6.727   0.636   4.960 -0.5513  1.1769  0.7550
  348MOL0     H46971   6.853   0.703   5.066  1.2206 -1.0915  0.9030
  348MOL0     H46972   6.959   0.581   4.871  1.0504 -1.4157 -0.8120
  348MOL0     H46973   6.867   0.448   4.929  1.2835  0.6046 -1.7506
  348MOL0     H46974   7.116   0.447   4.981 -0.1499 -1.8177 -0.0474
  348MOL0     H46975   7.011   0.427   5.116  3.1317 -2.3629 -1.9148
  348MOL0     H46976   7.045   0.676   5.173 -2.2752 -2.7578 -0.6008
  348MOL0     H46977   7.141   0.694   5.033 -1.0527 -2.9663 -2.3523
  348MOL0     H46978   7.411   0.507   5.302  1.2105 -0.3156 -3.0287
  348MOL0     H46979   6.569   0.564   5.289 -2.1680  0.1248  1.3144
  348MOL0     H46980   6.340   0.472   5.282  1.8671  2.1481  0.5363
  349MOL0     O46981  10.502   1.951   4.794 -0.2988 -0.3905 -0.0464
  349MOL0     C46982  10.608   1.952   4.731  0.2636 -0.2927 -0.6792
  349MOL0     O46983  10.720   1.896   4.782  0.6505 -0.1303  0.5306
  349MOL0     C46984  10.712   1.822   4.893  0.0950  0.1123  0.2427
  349MOL0     C46985  10.757   1.692   4.881  0.2101 -0.0291  0.0928
  349MOL0     C46986  10.743   1.605   4.994  0.1859  0.0747 -0.9053
  349MOL0     C46987  10.701   1.651   5.125 -0.2890  0.9411  0.6703
  349MOL0     O46988  10.672   1.556   5.225 -0.5655  0.1152 -0.6337
  349MOL0     C46989  10.723   1.579   5.358  0.4818 -0.6253  0.3170
  349MOL0     C46990  10.689   1.461   5.450 -0.1483  0.4461  0.2561
  349MOL0     C46991  10.539   1.430   5.452  0.3203  0.0195 -0.6049
  349MOL0     C46992  10.516   1.318   5.548  0.5706 -0.0758 -0.6081
  349MOL0     C46993  10.360   1.294   5.563  0.4018 -0.1481  0.1906
  349MOL0     C46994  10.303   1.381   5.679  0.4396  0.7382  1.1325
  349MOL0     C46995  10.152   1.353   5.692 -0.3671 -0.1392  0.3699
  349MOL0     C46996  10.093   1.453   5.791  0.0143  1.1743 -0.9446
  349MOL0     N46997   9.954   1.419   5.823 -0.2345  0.6039  0.5230
  349MOL0     C46998   9.863   1.512   5.868  0.5140  0.5638  0.2980
  349MOL0     C46999   9.751   1.440   5.898 -0.2326  0.8368  0.2690
  349MOL0     C47000   9.633   1.486   5.957  0.4520 -0.7626 -0.3923
  349MOL0     C47001   9.503   1.429   5.893  0.2627 -1.1907  0.4610
  349MOL0     C47002   9.379   1.471   5.967  0.1311  1.4225  0.2046
  349MOL0     C47003   9.275   1.362   5.954  0.6274 -0.0773  0.2982
  349MOL0     O47004   9.170   1.380   6.053  0.3756 -0.6678 -1.0695
  349MOL0     C47005   9.042   1.330   6.026  0.4471 -0.0973  0.0695
  349MOL0     C47006   8.937   1.374   6.108  0.8343 -0.0367  0.3718
  349MOL0     C47007   8.804   1.342   6.080 -0.4950  1.2178  0.3451
  349MOL0     C47008   8.704   1.426   6.145 -0.7425  0.8481  0.0800
  349MOL0     C47009   8.773   1.252   5.968 -0.3698  0.4394 -1.2113
  349MOL0     C47010   8.639   1.227   5.927 -0.8637  0.6000 -0.1348
  349MOL0     O47011   8.630   1.105   5.861  0.2942 -0.3431 -0.1775
  349MOL0     C47012   8.508   1.067   5.802 -1.2849 -0.4300 -1.2292
  349MOL0     C47013   8.384   1.068   5.857 -0.1815  1.4097 -0.1956
  349MOL0     C47014   8.271   1.027   5.787 -0.5351  0.3636  0.5747
  349MOL0     C47015   8.276   0.971   5.659 -0.0381  0.7188  1.1603
  349MOL0     O47016   8.166   0.937   5.593 -0.7230  0.2265 -0.2206
  349MOL0     C47017   8.171   0.812   5.521  0.0884  0.0159  0.0090
  349MOL0     C47018   8.032   0.788   5.455 -0.5405  0.9685  0.0185
  349MOL0     C47019   7.920   0.818   5.554  1.0639  0.8102  0.9203
  349MOL0     C47020   7.787   0.794   5.476  0.1773 -0.1639  0.2711
  349MOL0     C47021   7.656   0.850   5.540  0.5118  0.0821 -1.0039
  349MOL0     C47022   7.527   0.805   5.460  0.8417 -0.5249 -0.1300
  349MOL0     C47023   7.384   0.816   5.528 -0.8818  0.5579  0.0318
  349MOL0     C47024   7.378   0.749   5.663 -0.0183  0.3885  0.7170
  349MOL0    Cl47025   7.414   0.581   5.639 -0.1483  0.3174 -0.0335
  349MOL0     C47026   8.402   0.969   5.596 -0.2604 -0.1016  0.1585
  349MOL0     C47027   8.516   1.027   5.672  0.4419 -0.0885 -0.1547
  349MOL0     O47028   8.556   1.311   5.924  0.3751 -0.5229 -0.4087
  349MOL0     C47029   8.889   1.181   5.915 -0.0824  0.4105 -0.0378
  349MOL0     C47030   9.016   1.223   5.936 -0.4562 -0.3161  1.0890
  349MOL0     N47031   9.768   1.312   5.853  0.2707  0.5182 -0.1326
  349MOL0     N47032   9.888   1.303   5.807 -0.2974  0.3954  0.4565
  349MOL0     C47033  10.665   1.792   5.129 -0.3618 -0.0402  0.1567
  349MOL0     C47034  10.675   1.874   5.013  0.2331 -0.4230 -0.1630
  349MOL0     C47035  10.617   1.989   4.595 -0.4713 -0.4288 -0.2651
  349MOL0     C47036  10.738   2.004   4.529 -0.4183  1.0564  0.5346
  349MOL0     C47037  10.745   2.055   4.398  0.2770  0.1736  0.3692
  349MOL0     C47038  10.629   2.092   4.327 -0.3623  0.2373  0.4273
  349MOL0     O47039  10.642   2.130   4.203 -0.3471 -0.4247  0.2762
  349MOL0     C47040  10.532   2.209   4.153 -0.6253  0.1298  0.6263
  349MOL0     C47041  10.568   2.227   4.007 -0.1341 -0.7063  0.0826
  349MOL0     C47042  10.601   2.370   3.957 -0.2960 -0.0342 -0.0772
  349MOL0     C47043  10.749   2.407   4.004 -0.4422 -0.1410 -0.1324
  349MOL0     C47044  10.806   2.530   3.939  1.0745  0.6275  1.2124
  349MOL0     C47045  10.847   2.630   3.894 -0.1323 -0.6505  0.6809
  349MOL0     C47046  10.507   2.093   4.399 -0.2453 -0.1135 -0.0011
  349MOL0     C47047  10.499   2.043   4.533 -0.5985 -0.1098 -0.4988
  349MOL0     H47048  10.792   1.652   4.786 -2.4555 -1.5071 -0.3825
  349MOL0     H47049  10.776   1.503   4.978  4.6877  0.9003  1.5504
  349MOL0     H47050  10.831   1.595   5.357  0.5426 -1.0148  0.5687
  349MOL0     H47051  10.675   1.670   5.394 -0.9842 -0.4040 -1.9321
  349MOL0     H47052  10.745   1.375   5.412  0.9307  0.0456  2.5719
  349MOL0     H47053  10.725   1.477   5.552  2.0341  1.3097 -0.5886
  349MOL0     H47054  10.481   1.521   5.470 -1.3241 -0.7698 -1.5842
  349MOL0     H47055  10.493   1.403   5.356 -3.1343  3.5356 -0.1765
  349MOL0     H47056  10.572   1.233   5.509 -0.7131 -0.7309 -1.1004
  349MOL0     H47057  10.557   1.341   5.646  3.7122 -1.9229 -1.3438
  349MOL0     H47058  10.298   1.308   5.474 -0.9416 -0.6197  1.0204
  349MOL0     H47059  10.348   1.187   5.580 -2.3473 -0.1933 -1.4902
  349MOL0     H47060  10.351   1.358   5.775  0.8915 -0.3310  0.6604
  349MOL0     H47061  10.309   1.489   5.662  1.2127  1.1207  3.4257
  349MOL0     H47062  10.110   1.361   5.591  1.7243 -2.8626 -0.8549
  349MOL0     H47063  10.128   1.248   5.712  1.8588 -0.7658  0.0170
  349MOL0     H47064  10.084   1.552   5.746  0.7304  3.3176  3.0934
  349MOL0     H47065  10.146   1.463   5.886 -3.5444  2.7241  1.1094
  349MOL0     H47066   9.883   1.614   5.900  0.5480  0.3396  1.0148
  349MOL0     H47067   9.632   1.456   6.063 -4.4388  0.7757  0.2565
  349MOL0     H47068   9.624   1.595   5.953  2.5258 -0.4332  1.7991
  349MOL0     H47069   9.508   1.320   5.889  1.3309 -1.1100 -1.9468
  349MOL0     H47070   9.500   1.474   5.794  0.6551  3.0454  2.1353
  349MOL0     H47071   9.346   1.564   5.922 -0.6035  0.8504 -0.4658
  349MOL0     H47072   9.401   1.483   6.073 -0.9551  1.8678  0.3898
  349MOL0     H47073   9.317   1.263   5.973 -0.3457 -0.7202 -0.7577
  349MOL0     H47074   9.215   1.363   5.862 -0.8723 -0.5471  1.2270
  349MOL0     H47075   8.950   1.449   6.186 -0.8546  2.4602 -1.5994
  349MOL0     H47076   8.604   1.382   6.153  0.0295 -1.3149 -1.2523
  349MOL0     H47077   8.742   1.459   6.242 -0.3401 -1.8054  0.8874
  349MOL0     H47078   8.694   1.503   6.068 -0.3324 -0.5370 -1.4183
  349MOL0     H47079   8.374   1.104   5.959 -4.5031  0.4770 -0.0820
  349MOL0     H47080   8.172   1.035   5.831 -1.1947 -2.1562 -0.2290
  349MOL0     H47081   8.246   0.803   5.443  2.3177 -3.6813  2.2776
  349MOL0     H47082   8.215   0.732   5.581  0.8948  0.2278 -0.2792
  349MOL0     H47083   8.021   0.850   5.365 -1.1932 -2.3024 -2.3340
  349MOL0     H47084   8.033   0.690   5.406  0.5267  1.0879 -0.2318
  349MOL0     H47085   7.929   0.923   5.582  1.3796  0.9727  0.2183
  349MOL0     H47086   7.934   0.754   5.642  3.8079 -1.7378 -1.1519
  349MOL0     H47087   7.799   0.841   5.377 -1.1357 -0.0044  0.1653
  349MOL0     H47088   7.776   0.687   5.457 -3.1084  0.5997 -3.8869
  349MOL0     H47089   7.664   0.958   5.557 -1.5025 -0.0040  0.9915
  349MOL0     H47090   7.644   0.808   5.640  0.2239 -1.8529 -1.8103
  349MOL0     H47091   7.508   0.860   5.367 -3.1784  0.4541  1.0678
  349MOL0     H47092   7.539   0.698   5.445  0.4654 -0.9451  2.2773
  349MOL0     H47093   7.314   0.770   5.457  2.8224 -1.8180 -2.3988
  349MOL0     H47094   7.354   0.921   5.537  0.8418  1.0640  0.2100
  349MOL0     H47095   7.275   0.754   5.701 -0.5623  3.3918 -0.8497
  349MOL0     H47096   7.451   0.789   5.734  0.7538  0.3858 -0.0706
  349MOL0     H47097   8.408   0.948   5.490 -1.5936  0.6688 -0.0907
  349MOL0     H47098   8.612   1.019   5.622  0.1664  0.7544 -0.8356
  349MOL0     H47099   8.867   1.099   5.848  0.8772  0.5126 -0.5005
  349MOL0     H47100   9.099   1.170   5.891 -1.4591 -0.9077 -0.1191
  349MOL0     H47101  10.626   1.843   5.217 -0.8290  0.8879 -0.5696
  349MOL0     H47102  10.645   1.977   5.004 -1.1829 -1.0095 -3.5837
  349MOL0     H47103  10.828   1.978   4.584  0.8309  2.2038 -0.8766
  349MOL0     H47104  10.842   2.070   4.353  0.1156 -1.2978 -0.5178
  349MOL0     H47105  10.439   2.153   4.161  0.5279 -2.5076 -2.3157
  349MOL0     H47106  10.545   2.302   4.209  0.0784  0.4611 -0.0634
  349MOL0     H47107  10.477   2.204   3.950 -0.1004  2.3424 -1.4145
  349MOL0     H47108  10.644   2.158   3.969  1.6703  0.5497  1.2386
  349MOL0     H47109  10.532   2.441   4.003 -0.1685 -0.8095  1.3592
  349MOL0     H47110  10.597   2.360   3.848 -0.9075 -1.9502  0.0899
  349MOL0     H47111  10.818   2.323   3.992  0.5258  0.7716 -1.2289
  349MOL0     H47112  10.762   2.441   4.108  1.1277  4.0927 -1.4942
  349MOL0     H47113  10.880   2.724   3.853  4.0632 -1.4696  1.6367
  349MOL0     H47114  10.413   2.128   4.358 -0.5733 -0.8956  0.0535
  349MOL0     H47115  10.406   2.050   4.587  0.3638  3.7487  1.0224
  350MOL0     O47116   1.269   5.467   5.495 -0.5771 -0.1017  0.3078
  350MOL0     C47117   1.288   5.380   5.575 -0.6198 -0.5133  0.2213
  350MOL0     O47118   1.248   5.249   5.557 -0.2375 -0.2110 -0.3818
  350MOL0     C47119   1.226   5.199   5.432 -0.3920  0.0567 -0.9488
  350MOL0     C47120   1.162   5.075   5.416  1.1835  0.6761  0.1276
  350MOL0     C47121   1.156   5.008   5.292  1.1640 -0.3054 -0.2347
  350MOL0     C47122   1.217   5.069   5.185 -0.4687  0.5093 -0.2845
  350MOL0     O47123   1.205   5.024   5.057 -0.4531 -0.8678  0.0289
  350MOL0     C47124   1.231   4.891   5.018  0.6569  0.6674  0.3100
  350MOL0     C47125   1.372   4.847   5.040 -0.0603 -0.2583  0.1970
  350MOL0     C47126   1.470   4.949   4.976 -0.3937  0.0832  0.6430
  350MOL0     C47127   1.489   4.928   4.826  0.1498 -0.1524  0.2510
  350MOL0     C47128   1.564   4.795   4.791 -0.4885 -0.3739 -0.7203
  350MOL0     C47129   1.597   4.800   4.641  1.4787  0.1773 -0.7038
  350MOL0     C47130   1.707   4.694   4.610  0.3345  0.0552 -0.3337
  350MOL0     C47131   1.735   4.697   4.465 -0.1442 -0.3527 -0.2670
  350MOL0     N47132   1.833   4.793   4.430 -0.7194 -0.5051  0.2411
  350MOL0     C47133   1.973   4.784   4.446 -0.4764  0.0282 -0.3653
  350MOL0     C47134   2.015   4.905   4.429 -0.1013 -0.7404 -0.2327
  350MOL0     C47135   2.155   4.956   4.428  0.5291  0.2369  0.6724
  350MOL0     C47136   2.252   4.899   4.321  0.4498  0.3748 -0.0650
  350MOL0     C47137   2.382   4.988   4.310 -0.2355 -0.2160  0.0494
  350MOL0     C47138   2.486   4.930   4.217  0.0821  0.0702  0.6349
  350MOL0     O47139   2.418   4.911   4.087 -0.6659  0.3996  0.3909
  350MOL0     C47140   2.478   4.828   3.995  0.3827 -0.0587  0.4462
  350MOL0     C47141   2.611   4.791   4.013 -1.6395  0.1651  0.7172
  350MOL0     C47142   2.667   4.699   3.919  0.3781 -0.0009 -0.5352
  350MOL0     C47143   2.813   4.654   3.937 -0.3498  0.0568 -0.5535
  350MOL0     C47144   2.594   4.645   3.809 -0.1656  0.4258 -0.5578
  350MOL0     C47145   2.639   4.550   3.706  1.2659  0.6591 -0.5473
  350MOL0     O47146   2.531   4.476   3.659  0.7248 -0.4436 -0.0380
  350MOL0     C47147   2.557   4.388   3.557 -0.6156 -0.5328  0.0896
  350MOL0     C47148   2.612   4.262   3.577 -0.2782  0.1228  0.6564
  350MOL0     C47149   2.637   4.175   3.473  0.5653  0.5323 -1.0160
  350MOL0     C47150   2.603   4.205   3.339 -0.8228  0.4638 -0.3838
  350MOL0     O47151   2.634   4.108   3.251 -0.4404 -0.1458 -0.5618
  350MOL0     C47152   2.595   4.132   3.116 -0.1079  0.1701  0.5695
  350MOL0     C47153   2.683   4.040   3.034  0.1529  0.3189  0.3581
  350MOL0     C47154   2.683   4.089   2.889 -0.0535 -0.5108  0.1084
  350MOL0     C47155   2.751   3.980   2.800 -0.0702  0.2534 -0.0420
  350MOL0     C47156   2.777   4.031   2.667  0.5228  0.4278  1.1407
  350MOL0     C47157   2.917   4.091   2.656 -0.3940 -0.7298 -0.5687
  350MOL0     C47158   2.959   4.090   2.506  0.3668  1.3633 -0.2954
  350MOL0     C47159   3.070   4.194   2.483 -0.0735 -0.5653  0.4672
  350MOL0    Cl47160   3.009   4.363   2.505  0.1724 -0.7665 -0.2533
  350MOL0     C47161   2.552   4.333   3.311  0.5182 -0.7647 -1.1258
  350MOL0     C47162   2.535   4.420   3.422  0.4706  0.0662  0.4100
  350MOL0     O47163   2.752   4.529   3.679 -0.1125  0.1363 -0.1917
  350MOL0     C47164   2.462   4.695   3.800 -0.0261 -0.9859 -0.5757
  350MOL0     C47165   2.405   4.792   3.882  0.0027 -0.3932 -0.0393
  350MOL0     N47166   1.912   4.992   4.408  0.1319  0.3633  0.1271
  350MOL0     N47167   1.804   4.925   4.403  0.2420 -0.1984  1.2199
  350MOL0     C47168   1.274   5.200   5.197  0.6609  0.9456 -0.1247
  350MOL0     C47169   1.290   5.258   5.321  0.2151  0.4376  0.5782
  350MOL0     C47170   1.349   5.416   5.708  0.5524 -0.3294  0.6258
  350MOL0     C47171   1.420   5.537   5.725  0.6007  0.0171 -0.5358
  350MOL0     C47172   1.466   5.568   5.854 -0.7319  0.3505  0.5918
  350MOL0     C47173   1.434   5.500   5.970 -0.3402  0.3373 -0.5784
  350MOL0     O47174   1.478   5.533   6.096  0.8266 -0.9946  0.1320
  350MOL0     C47175   1.593   5.612   6.095  0.3860  1.1230  0.0136
  350MOL0     C47176   1.655   5.614   6.225 -0.2345 -0.4614 -0.1503
  350MOL0     C47177   1.762   5.727   6.230  0.2144  0.6782  0.0268
  350MOL0     C47178   1.825   5.731   6.369 -0.5623 -0.2086  0.3562
  350MOL0     C47179   1.944   5.824   6.373  0.2202 -0.0899 -0.5566
  350MOL0     C47180   2.046   5.899   6.366  0.0938 -0.3248 -0.3318
  350MOL0     C47181   1.364   5.378   5.952 -0.6112  0.2156 -0.7117
  350MOL0     C47182   1.322   5.336   5.828 -0.0877  0.0056  0.5590
  350MOL0     H47183   1.129   5.026   5.507  0.6233 -2.0661 -1.4617
  350MOL0     H47184   1.122   4.906   5.290  1.3202 -0.4086  1.0387
  350MOL0     H47185   1.156   4.826   5.064  0.2497 -0.3179 -1.6210
  350MOL0     H47186   1.206   4.878   4.912  0.3011 -0.1692  0.4929
  350MOL0     H47187   1.385   4.847   5.148  2.2017 -0.0206 -0.0303
  350MOL0     H47188   1.395   4.748   5.000 -0.5828  0.6234 -2.5078
  350MOL0     H47189   1.441   5.053   4.994 -0.5560 -0.1026  1.4838
  350MOL0     H47190   1.565   4.928   5.025  0.1418  0.3517 -0.2508
  350MOL0     H47191   1.391   4.939   4.777 -0.3296  1.6575  1.5041
  350MOL0     H47192   1.546   5.010   4.780 -0.6234 -0.6900 -1.7689
  350MOL0     H47193   1.653   4.791   4.854 -1.3278 -2.9693  0.4628
  350MOL0     H47194   1.506   4.708   4.822  0.7234 -1.2589 -0.8812
  350MOL0     H47195   1.504   4.788   4.586  0.3749 -1.1392  1.3482
  350MOL0     H47196   1.638   4.899   4.616  1.6375  0.0652 -0.8973
  350MOL0     H47197   1.801   4.721   4.659 -1.2183  2.3095  1.6039
  350MOL0     H47198   1.664   4.600   4.645 -1.0007 -0.5911 -3.4128
  350MOL0     H47199   1.644   4.703   4.404  0.3752  0.1487 -1.0009
  350MOL0     H47200   1.774   4.598   4.440 -2.0527 -0.6984 -2.2207
  350MOL0     H47201   2.034   4.696   4.463  1.7480  1.7489  1.1059
  350MOL0     H47202   2.148   5.062   4.403  0.4478 -0.1296 -0.9679
  350MOL0     H47203   2.186   4.944   4.533 -2.3899 -2.1763  1.4015
  350MOL0     H47204   2.191   4.904   4.230 -0.9284  0.2770  0.8116
  350MOL0     H47205   2.270   4.794   4.347 -0.2299  0.9026  2.7823
  350MOL0     H47206   2.425   5.006   4.408  1.9373 -1.7178 -0.5387
  350MOL0     H47207   2.349   5.085   4.273 -1.9302 -0.9482 -0.4835
  350MOL0     H47208   2.512   4.835   4.265 -0.0547  0.2932  1.1555
  350MOL0     H47209   2.577   4.992   4.212 -0.5683  1.1893  2.0345
  350MOL0     H47210   2.684   4.822   4.087 -0.3588 -0.4999 -0.2235
  350MOL0     H47211   2.875   4.666   3.848  0.3064 -0.4007 -0.1633
  350MOL0     H47212   2.864   4.711   4.015 -0.7263  0.2539 -0.4457
  350MOL0     H47213   2.821   4.547   3.957 -0.9725  0.1196  0.0545
  350MOL0     H47214   2.641   4.219   3.672  2.0121 -1.4494 -0.6814
  350MOL0     H47215   2.672   4.074   3.490 -0.2143  0.2830 -0.8560
  350MOL0     H47216   2.488   4.117   3.097 -0.3561  0.0394  2.0171
  350MOL0     H47217   2.622   4.234   3.089  0.3945 -0.1827 -0.3258
  350MOL0     H47218   2.784   4.045   3.076 -0.4160 -0.2327  1.8807
  350MOL0     H47219   2.647   3.938   3.051 -1.1127  0.2012 -2.4858
  350MOL0     H47220   2.738   4.183   2.874  1.5285 -1.6152 -1.4505
  350MOL0     H47221   2.581   4.105   2.853 -0.0909  0.5249  0.6264
  350MOL0     H47222   2.848   3.950   2.842 -0.1533  0.2266  0.1330
  350MOL0     H47223   2.685   3.893   2.794  0.7379 -0.2896 -1.7511
  350MOL0     H47224   2.694   4.097   2.643  0.8286  0.1506 -0.8468
  350MOL0     H47225   2.772   3.948   2.596  2.1144  1.3235 -0.0777
  350MOL0     H47226   2.907   4.194   2.691 -0.1464 -0.7292 -0.4990
  350MOL0     H47227   2.980   4.036   2.726 -2.4881  0.5481  2.5087
  350MOL0     H47228   2.881   4.108   2.432  0.4156  1.5693 -0.2977
  350MOL0     H47229   2.998   3.988   2.493  0.4912  1.4971 -1.0328
  350MOL0     H47230   3.098   4.184   2.378 -0.7719 -0.8972  0.3045
  350MOL0     H47231   3.158   4.178   2.546 -0.0934 -0.0413  0.6364
  350MOL0     H47232   2.520   4.362   3.211  0.2109  0.3947 -0.7111
  350MOL0     H47233   2.477   4.510   3.404 -0.6842 -0.3716  1.7686
  350MOL0     H47234   2.388   4.659   3.730  1.9023 -1.7134 -2.3239
  350MOL0     H47235   2.304   4.826   3.866  0.5234  1.6423  0.6987
  350MOL0     H47236   1.299   5.243   5.101  1.0062 -0.9985 -0.9319
  350MOL0     H47237   1.343   5.352   5.313 -0.0322  0.4693 -1.2603
  350MOL0     H47238   1.433   5.609   5.646  0.3379  2.0457  1.1620
  350MOL0     H47239   1.532   5.652   5.841 -0.7045  0.2827  0.2651
  350MOL0     H47240   1.668   5.588   6.020  0.3765  2.1078 -0.3184
  350MOL0     H47241   1.565   5.716   6.080  1.0388  1.3759  0.4930
  350MOL0     H47242   1.707   5.519   6.241  0.5491  0.0278  0.3057
  350MOL0     H47243   1.581   5.627   6.304  1.2271 -1.5754  1.4846
  350MOL0     H47244   1.712   5.821   6.206 -0.0965  0.5989  0.3552
  350MOL0     H47245   1.827   5.706   6.144 -0.6690 -0.6682 -0.3438
  350MOL0     H47246   1.859   5.633   6.404 -0.9514  0.0762  1.5478
  350MOL0     H47247   1.746   5.756   6.439 -2.0930 -3.2963 -0.1201
  350MOL0     H47248   2.142   5.947   6.363  0.5340 -0.8352  2.5129
  350MOL0     H47249   1.340   5.328   6.046 -1.4568 -1.3254 -1.7166
  350MOL0     H47250   1.268   5.242   5.817  0.3710 -0.0216 -2.1840
  351MOL0     O47251   1.891   2.326  10.665 -0.0307 -0.2625  0.8380
  351MOL0     C47252   1.937   2.211  10.641 -0.1999  0.0935  0.1026
  351MOL0     O47253   1.877   2.097  10.691 -0.0797 -0.1993 -0.4710
  351MOL0     C47254   1.742   2.094  10.735 -0.5445 -0.2187  0.1998
  351MOL0     C47255   1.664   1.990  10.683 -0.5140  0.0207  0.2906
  351MOL0     C47256   1.526   1.983  10.722 -0.4069  0.0615  0.2603
  351MOL0     C47257   1.464   2.087  10.791 -0.0592  0.3291  0.1284
  351MOL0     O47258   1.329   2.082  10.813 -0.2044  0.5167 -0.0186
  351MOL0     C47259   1.248   2.047  10.696 -0.7157 -1.0181  0.1013
  351MOL0     C47260   1.101   2.090  10.732 -0.6358 -0.6257 -0.2249
  351MOL0     C47261   0.981   2.016  10.668  0.0975  0.0114 -0.2169
  351MOL0     C47262   0.962   2.044  10.516 -0.4857  0.4312 -0.1330
  351MOL0     C47263   0.833   1.971  10.484  0.0333  0.5642  0.8089
  351MOL0     C47264   0.766   2.047  10.370  0.8104  0.2709 -0.6654
  351MOL0     C47265   0.862   2.044  10.252 -0.0467  0.6687  0.8626
  351MOL0     C47266   0.820   2.116  10.125 -0.3533 -0.9378 -0.3911
  351MOL0     N47267   0.683   2.082  10.084 -0.2026 -0.5154 -0.5121
  351MOL0     C47268   0.557   2.152  10.105 -0.3867 -1.2571 -0.3820
  351MOL0     C47269   0.460   2.090  10.046 -0.3970 -0.4353  0.0026
  351MOL0     C47270   0.316   2.127  10.068 -0.2083 -0.2472  0.6523
  351MOL0     C47271   0.242   2.149   9.930 -0.3919 -0.7303 -0.3359
  351MOL0     C47272   0.308   2.262   9.834  0.1298 -0.0590 -0.0580
  351MOL0     C47273   0.339   2.399   9.902 -0.0132  0.1149  0.1037
  351MOL0     O47274   0.214   2.460   9.948 -0.2512 -0.0943 -0.5827
  351MOL0     C47275   0.139   2.539   9.866  0.0983  0.5995 -0.0853
  351MOL0     C47276   0.167   2.549   9.725  0.1571  0.5799 -0.8380
  351MOL0     C47277   0.072   2.619   9.647 -1.1308 -0.1014 -0.5260
  351MOL0     C47278   0.093   2.634   9.498  0.6861  0.5635 -0.9112
  351MOL0     C47279  -0.043   2.678   9.708 -1.4528  0.6462  0.5010
  351MOL0     C47280  -0.150   2.731   9.634  0.7886 -0.2089  0.4916
  351MOL0     O47281  -0.175   2.858   9.659  0.9279  0.0828 -0.3719
  351MOL0     C47282  -0.287   2.901   9.593  0.1860  0.1858  0.4736
  351MOL0     C47283  -0.389   2.959   9.671 -0.6576 -0.9980 -0.4188
  351MOL0     C47284  -0.507   2.997   9.612  0.6914 -0.3673 -0.1278
  351MOL0     C47285  -0.521   2.993   9.472  0.0257 -0.2074 -0.1001
  351MOL0     O47286  -0.644   3.020   9.416 -0.1084 -0.4358  0.0273
  351MOL0     C47287  -0.725   2.908   9.382 -0.4076  0.6356  0.5831
  351MOL0     C47288  -0.868   2.916   9.353  0.0999 -0.0938  0.6055
  351MOL0     C47289  -0.957   2.946   9.478 -0.5788 -0.3197  0.7979
  351MOL0     C47290  -1.098   2.922   9.444  0.3971  0.7358 -0.4911
  351MOL0     C47291  -1.192   2.962   9.549 -0.1708  0.3854  0.6256
  351MOL0     C47292  -1.333   2.981   9.511 -0.0456 -0.6348 -0.1058
  351MOL0     C47293  -1.412   3.019   9.634  0.4778  0.0954  0.1270
  351MOL0     C47294  -1.560   2.990   9.631 -0.2377  0.0874  0.1885
  351MOL0    Cl47295  -1.628   3.002   9.465 -0.2866  0.2331 -0.6116
  351MOL0     C47296  -0.411   2.964   9.392  0.1683  0.2284  0.7366
  351MOL0     C47297  -0.299   2.916   9.458 -0.7974 -0.0478  0.8123
  351MOL0     O47298  -0.212   2.657   9.554 -1.2194 -0.3019 -0.1246
  351MOL0     C47299  -0.067   2.663   9.840 -0.2544 -0.5131  0.7741
  351MOL0     C47300   0.027   2.599   9.917  0.4146 -0.0554 -0.4047
  351MOL0     N47301   0.527   1.991   9.973  1.0446  0.6476 -0.2171
  351MOL0     N47302   0.651   1.989   9.994 -0.3710 -0.4079 -0.4399
  351MOL0     C47303   1.543   2.185  10.849 -0.2069  0.1924  0.5877
  351MOL0     C47304   1.682   2.193  10.818  0.1685  0.0002  0.0738
  351MOL0     C47305   2.047   2.197  10.543 -0.1873  0.9392  0.1260
  351MOL0     C47306   2.150   2.294  10.527  0.2347 -0.8759  0.2682
  351MOL0     C47307   2.253   2.274  10.435 -0.4164 -0.1892 -0.0085
  351MOL0     C47308   2.273   2.151  10.370  0.0806 -0.1940 -0.5889
  351MOL0     O47309   2.376   2.126  10.282 -0.0392 -0.2609 -0.2450
  351MOL0     C47310   2.500   2.187  10.305  0.2397  0.5233 -1.0145
  351MOL0     C47311   2.603   2.084  10.277  0.4837  0.4349  0.1540
  351MOL0     C47312   2.742   2.143  10.281  0.3443 -0.7795  0.8649
  351MOL0     C47313   2.849   2.042  10.258 -0.2546  0.3331 -0.2983
  351MOL0     C47314   2.982   2.105  10.270 -0.3850  1.5257  0.2201
  351MOL0     C47315   3.090   2.153  10.306 -0.8587 -0.0255  0.3097
  351MOL0     C47316   2.172   2.057  10.385 -0.3902  1.2986  0.2927
  351MOL0     C47317   2.064   2.077  10.469 -0.4058 -0.9910  0.4546
  351MOL0     H47318   1.707   1.926  10.606 -1.7896  0.8261 -1.1340
  351MOL0     H47319   1.471   1.895  10.690  0.6192 -1.2551  1.8817
  351MOL0     H47320   1.281   2.110  10.612 -0.0424 -0.7912  0.5234
  351MOL0     H47321   1.257   1.941  10.674 -0.8905 -0.9044 -0.5432
  351MOL0     H47322   1.097   2.078  10.841 -0.2228  1.6356  0.0853
  351MOL0     H47323   1.090   2.197  10.715  2.6694 -0.3779 -1.3779
  351MOL0     H47324   0.991   1.908  10.678  0.8483  0.0054 -0.8711
  351MOL0     H47325   0.891   2.039  10.724  0.9903 -0.2568  1.3727
  351MOL0     H47326   0.948   2.151  10.502 -0.4747  0.5567  0.7215
  351MOL0     H47327   1.044   2.021  10.448  1.0916  0.3633  1.6862
  351MOL0     H47328   0.858   1.873  10.441 -0.9789 -0.1391  1.7629
  351MOL0     H47329   0.762   1.953  10.565  0.8885 -0.3445  1.3864
  351MOL0     H47330   0.672   1.999  10.343  0.3386  1.4160 -1.1188
  351MOL0     H47331   0.731   2.144  10.405 -0.0202 -0.3096  0.1864
  351MOL0     H47332   0.965   2.075  10.273  0.1640  1.2988 -0.9159
  351MOL0     H47333   0.871   1.936  10.237  1.0386  0.8845 -0.1949
  351MOL0     H47334   0.878   2.069  10.045  0.1555 -2.1445  0.6419
  351MOL0     H47335   0.839   2.220  10.153  1.3490 -1.7877  1.9770
  351MOL0     H47336   0.541   2.229  10.180  2.6782 -1.3798  0.5682
  351MOL0     H47337   0.266   2.059  10.137  1.2760 -0.5055  1.5089
  351MOL0     H47338   0.313   2.226  10.115 -0.6714  0.0206  0.0751
  351MOL0     H47339   0.139   2.163   9.963 -0.4027 -3.9850  1.4592
  351MOL0     H47340   0.243   2.059   9.868 -3.6766  0.3205 -2.1447
  351MOL0     H47341   0.234   2.274   9.755  2.3625  1.6362 -2.0705
  351MOL0     H47342   0.401   2.226   9.789 -0.6597 -0.9816 -0.9803
  351MOL0     H47343   0.392   2.459   9.828  1.5186 -2.5709 -1.1055
  351MOL0     H47344   0.413   2.395   9.982  0.4332  3.5511  0.0011
  351MOL0     H47345   0.255   2.521   9.669  0.5514  1.3495 -0.6190
  351MOL0     H47346   0.076   2.738   9.469 -1.0730  0.1701 -1.4024
  351MOL0     H47347   0.193   2.604   9.464  0.2815 -1.4510 -0.4743
  351MOL0     H47348   0.015   2.571   9.454 -0.3390  1.2232 -0.0910
  351MOL0     H47349  -0.382   2.954   9.780 -0.1892 -0.3036 -0.4142
  351MOL0     H47350  -0.590   3.017   9.679  1.1750 -3.2159  1.5223
  351MOL0     H47351  -0.685   2.849   9.299 -0.7066  1.9000 -0.4871
  351MOL0     H47352  -0.719   2.841   9.469 -1.4989 -1.4412 -0.8338
  351MOL0     H47353  -0.876   2.996   9.278 -0.1596 -1.7237 -1.1823
  351MOL0     H47354  -0.902   2.828   9.299  2.0659  0.5705 -1.9062
  351MOL0     H47355  -0.952   3.052   9.506  2.0214  0.0690 -0.7350
  351MOL0     H47356  -0.916   2.875   9.550  1.6379 -1.5352 -1.5155
  351MOL0     H47357  -1.133   2.968   9.351 -1.6278  1.9365  0.7879
  351MOL0     H47358  -1.106   2.816   9.419 -1.5717  0.8295 -0.4178
  351MOL0     H47359  -1.166   3.061   9.589 -0.9841  0.7295  0.3302
  351MOL0     H47360  -1.186   2.890   9.630 -0.0552 -0.3588 -0.0358
  351MOL0     H47361  -1.338   3.058   9.433  0.9550 -0.6949 -0.2461
  351MOL0     H47362  -1.375   2.892   9.464 -3.3111 -0.4656  2.1243
  351MOL0     H47363  -1.401   3.126   9.649  3.2135 -0.2884  1.5624
  351MOL0     H47364  -1.384   2.953   9.717  0.5716 -0.0398 -0.0108
  351MOL0     H47365  -1.614   3.060   9.696  0.6025  2.3493 -1.4337
  351MOL0     H47366  -1.579   2.883   9.648 -0.9123 -0.7073 -4.2741
  351MOL0     H47367  -0.431   2.971   9.285  2.3698  0.7161  0.3201
  351MOL0     H47368  -0.217   2.885   9.394 -1.6367  0.2883 -0.4479
  351MOL0     H47369  -0.155   2.697   9.894 -0.6024  1.2621 -0.8212
  351MOL0     H47370   0.011   2.597  10.024  2.9203  2.9277  0.1835
  351MOL0     H47371   1.508   2.278  10.892 -1.3091  0.4506 -0.7939
  351MOL0     H47372   1.738   2.274  10.862  2.2773 -1.6500  0.5830
  351MOL0     H47373   2.154   2.382  10.590 -0.3105  0.2990 -1.2983
  351MOL0     H47374   2.329   2.350  10.419  0.7443 -1.2817  0.1226
  351MOL0     H47375   2.521   2.280  10.252  1.6676  1.6183  1.3030
  351MOL0     H47376   2.509   2.221  10.409  1.5990 -0.8696 -0.6461
  351MOL0     H47377   2.591   2.032  10.181 -0.6597 -1.2100  1.1433
  351MOL0     H47378   2.587   2.015  10.360 -2.6117  1.9277  0.9411
  351MOL0     H47379   2.757   2.191  10.378  1.1700  1.1475 -0.1565
  351MOL0     H47380   2.745   2.220  10.203 -2.5642 -0.4724  0.9486
  351MOL0     H47381   2.836   2.001  10.157 -0.7178  1.0226 -0.5245
  351MOL0     H47382   2.824   1.963  10.329 -2.8524  0.2777 -1.1575
  351MOL0     H47383   3.186   2.186  10.340 -1.1430  1.6361 -0.4051
  351MOL0     H47384   2.171   1.963  10.331 -0.0666  1.5683 -0.1988
  351MOL0     H47385   1.980   2.008  10.457 -0.7616 -0.3308 -1.1810
  352MOL0     O47386   8.505   5.657   7.068 -0.1512 -0.3737  0.3020
  352MOL0     C47387   8.571   5.754   7.102  0.1315 -0.5351 -0.6130
  352MOL0     O47388   8.532   5.892   7.093 -0.7926  0.8913 -0.2723
  352MOL0     C47389   8.405   5.939   7.063 -0.7442  0.2643 -0.3305
  352MOL0     C47390   8.323   5.892   6.965  0.2980 -1.0333 -0.1978
  352MOL0     C47391   8.196   5.952   6.934 -0.4777  0.6180 -0.4972
  352MOL0     C47392   8.155   6.064   7.004  0.3443 -1.7010  0.1263
  352MOL0     O47393   8.040   6.122   6.959 -0.8641  0.5207 -0.6020
  352MOL0     C47394   7.976   6.218   7.034  0.0509  0.4652  0.4304
  352MOL0     C47395   7.865   6.279   6.955 -0.6208  0.0011 -0.2508
  352MOL0     C47396   7.751   6.183   6.943 -0.0399  1.0321 -0.4009
  352MOL0     C47397   7.630   6.259   6.895  0.1758 -0.4384 -0.0832
  352MOL0     C47398   7.496   6.176   6.892 -0.1823  0.4308  0.3986
  352MOL0     C47399   7.506   6.026   6.842  0.5807  0.0758 -0.1510
  352MOL0     C47400   7.368   5.966   6.816  0.3528  0.0388 -0.4739
  352MOL0     C47401   7.303   6.008   6.687  0.5190  0.1430 -0.5352
  352MOL0     N47402   7.160   5.964   6.693 -0.3840 -0.5860 -0.4746
  352MOL0     C47403   7.128   5.835   6.724 -0.1264  0.2727 -0.0108
  352MOL0     C47404   6.997   5.851   6.728  0.2652 -1.0775  0.2316
  352MOL0     C47405   6.889   5.752   6.746  0.5826 -0.4141 -0.6595
  352MOL0     C47406   6.896   5.640   6.635 -1.2019 -0.5084 -0.0970
  352MOL0     C47407   6.867   5.690   6.489 -0.1352 -0.5645  0.0702
  352MOL0     C47408   6.921   5.606   6.371 -0.0949 -0.4880  1.2860
  352MOL0     O47409   6.890   5.685   6.257  0.3555  0.3376 -0.3923
  352MOL0     C47410   6.761   5.694   6.204  0.5375 -0.6746 -0.8917
  352MOL0     C47411   6.715   5.611   6.107 -0.3785  0.5217 -0.4857
  352MOL0     C47412   6.597   5.646   6.043  0.4862  0.6333 -0.1677
  352MOL0     C47413   6.548   5.556   5.930  0.6117 -0.4475  0.2532
  352MOL0     C47414   6.518   5.756   6.077  0.2218  0.5935 -0.1552
  352MOL0     C47415   6.389   5.785   6.023 -0.0272  0.5703  0.0717
  352MOL0     O47416   6.366   5.911   5.986 -0.3934 -0.1210  0.0286
  352MOL0     C47417   6.254   5.943   5.912  0.3339 -0.3217  0.0522
  352MOL0     C47418   6.215   5.870   5.801 -0.4957 -0.2596 -0.3256
  352MOL0     C47419   6.099   5.914   5.733 -1.0425 -0.0152 -0.2008
  352MOL0     C47420   6.026   6.034   5.774 -0.0114 -0.1071  0.0588
  352MOL0     O47421   5.901   6.069   5.719 -0.1998  0.3027  0.4745
  352MOL0     C47422   5.818   5.973   5.651 -0.2161 -0.6028 -0.1227
  352MOL0     C47423   5.676   6.013   5.597  0.3537  0.5674 -0.7858
  352MOL0     C47424   5.581   6.031   5.714 -0.0779 -0.3596 -0.1093
  352MOL0     C47425   5.450   6.095   5.664  0.6862 -0.8144  0.2840
  352MOL0     C47426   5.348   6.125   5.769 -0.3572 -0.1488  0.2547
  352MOL0     C47427   5.233   6.212   5.713 -0.1774 -0.0565 -0.3867
  352MOL0     C47428   5.149   6.129   5.624  0.6270 -0.1954  0.0495
  352MOL0     C47429   5.015   6.195   5.591  0.3889 -0.6552  0.6791
  352MOL0    Cl47430   5.028   6.349   5.514 -0.0336  0.5691  0.3712
  352MOL0     C47431   6.068   6.100   5.890  1.0152 -1.2752  0.4530
  352MOL0     C47432   6.182   6.063   5.957 -0.9036  0.5163  0.2337
  352MOL0     O47433   6.308   5.691   6.022  0.4736  0.4432  0.8991
  352MOL0     C47434   6.567   5.846   6.174  0.0860 -0.1065  0.2326
  352MOL0     C47435   6.684   5.814   6.243  0.0992  0.2565 -0.7448
  352MOL0     N47436   6.960   5.985   6.723  0.0541  0.7983 -1.0438
  352MOL0     N47437   7.059   6.052   6.687 -0.1306 -0.6571  0.2699
  352MOL0     C47438   8.244   6.118   7.100 -0.2410  0.7854 -0.2124
  352MOL0     C47439   8.366   6.057   7.129 -0.5903 -0.0588 -0.3676
  352MOL0     C47440   8.712   5.728   7.152  0.4922  0.2726 -0.2522
  352MOL0     C47441   8.792   5.832   7.149  0.1314 -0.1612  0.5504
  352MOL0     C47442   8.920   5.799   7.203  0.2265  0.2458 -0.8317
  352MOL0     C47443   8.959   5.670   7.246 -0.6009 -0.1921  1.0044
  352MOL0     O47444   9.077   5.645   7.303 -0.3395  0.0451  0.0872
  352MOL0     C47445   9.196   5.732   7.266 -0.1726  0.5292 -0.1904
  352MOL0     C47446   9.209   5.855   7.350  0.4959  0.4602  0.2400
  352MOL0     C47447   9.263   5.970   7.268  0.4425  0.4864  0.7605
  352MOL0     C47448   9.272   6.098   7.359  0.0049  0.4427 -0.8781
  352MOL0     C47449   9.352   6.207   7.289 -0.1977 -0.0181  0.3938
  352MOL0     C47450   9.425   6.285   7.235 -0.5918 -0.5319 -0.4170
  352MOL0     C47451   8.862   5.570   7.251 -1.1553  0.1562  0.9720
  352MOL0     C47452   8.739   5.594   7.197  0.2128  0.1753  0.6650
  352MOL0     H47453   8.355   5.815   6.896  0.3283  0.0848 -1.4779
  352MOL0     H47454   8.144   5.912   6.848  1.5282  0.9200 -1.9331
  352MOL0     H47455   7.936   6.172   7.125 -2.5586  0.3143 -0.7188
  352MOL0     H47456   8.048   6.296   7.059  1.2917  0.0797 -1.6979
  352MOL0     H47457   7.838   6.368   7.013 -1.2637 -0.8670  0.8017
  352MOL0     H47458   7.901   6.300   6.854  1.3799 -1.9324 -0.0160
  352MOL0     H47459   7.779   6.106   6.871 -2.9021 -1.1685  0.6435
  352MOL0     H47460   7.727   6.136   7.039 -0.5958 -0.7968 -1.3853
  352MOL0     H47461   7.615   6.344   6.962  1.7014 -1.1932  1.2769
  352MOL0     H47462   7.651   6.287   6.791 -0.6447 -3.8838 -1.3053
  352MOL0     H47463   7.450   6.158   6.990  0.8879  0.7087  0.9623
  352MOL0     H47464   7.417   6.234   6.842 -0.8783  0.0978  1.0834
  352MOL0     H47465   7.568   6.021   6.753 -0.1517 -0.8025 -0.6377
  352MOL0     H47466   7.559   5.966   6.917  2.7774  1.8194 -0.2240
  352MOL0     H47467   7.373   5.858   6.836  0.6048  0.2044  0.4268
  352MOL0     H47468   7.301   5.990   6.900  2.3566  0.3648  1.1099
  352MOL0     H47469   7.351   5.944   6.612  1.0567 -2.6522  1.9779
  352MOL0     H47470   7.315   6.116   6.674 -0.9088  0.6365  1.6087
  352MOL0     H47471   7.194   5.750   6.731  0.5539  0.8905  1.4844
  352MOL0     H47472   6.895   5.693   6.838  2.2429  0.1853 -0.3470
  352MOL0     H47473   6.791   5.798   6.731  0.0942 -0.8438  0.9936
  352MOL0     H47474   6.820   5.564   6.657 -1.9459  0.5231  1.0378
  352MOL0     H47475   6.995   5.595   6.641 -0.4753  0.6858 -2.3514
  352MOL0     H47476   6.909   5.791   6.475 -0.8240  0.1473  2.5391
  352MOL0     H47477   6.759   5.695   6.479 -0.4723 -0.4062  2.8354
  352MOL0     H47478   6.887   5.504   6.352 -0.0265 -0.1784 -0.7691
  352MOL0     H47479   7.029   5.587   6.372 -0.2738 -1.8234 -0.1637
  352MOL0     H47480   6.770   5.523   6.076 -2.7067 -0.7796 -1.2318
  352MOL0     H47481   6.623   5.496   5.877 -0.6704  0.7234 -3.1938
  352MOL0     H47482   6.477   5.487   5.978  0.7292 -1.1004 -0.4780
  352MOL0     H47483   6.496   5.604   5.846  1.1224 -2.0345 -1.0314
  352MOL0     H47484   6.272   5.786   5.765 -1.4589 -2.4671  2.8865
  352MOL0     H47485   6.071   5.858   5.644 -0.2780  3.0359 -2.5307
  352MOL0     H47486   5.875   5.938   5.565 -1.6590 -0.7838 -1.0328
  352MOL0     H47487   5.804   5.887   5.717 -1.8220  1.8346  2.9882
  352MOL0     H47488   5.681   6.099   5.530  1.1186 -0.1782 -1.7162
  352MOL0     H47489   5.640   5.919   5.553  1.8801  0.2577 -1.4374
  352MOL0     H47490   5.635   6.096   5.783  1.8992 -3.3702  1.3986
  352MOL0     H47491   5.557   5.932   5.753 -2.6807  0.4200  0.4506
  352MOL0     H47492   5.474   6.178   5.598  0.9576 -1.4159 -0.3918
  352MOL0     H47493   5.399   6.032   5.591 -2.2721  2.0038 -0.2724
  352MOL0     H47494   5.402   6.182   5.845  0.2581  0.8077 -0.8623
  352MOL0     H47495   5.313   6.028   5.804 -0.9960  0.3168  0.9452
  352MOL0     H47496   5.167   6.247   5.794  0.1667  1.9074 -0.9045
  352MOL0     H47497   5.277   6.303   5.671 -0.3441  0.5983  0.7897
  352MOL0     H47498   5.133   6.038   5.682 -0.2515  1.0048  1.7768
  352MOL0     H47499   5.193   6.115   5.525  0.5408  1.5494 -0.2701
  352MOL0     H47500   4.951   6.216   5.677 -0.3751 -1.6981  0.3901
  352MOL0     H47501   4.957   6.128   5.527  1.6146 -1.1901  0.0914
  352MOL0     H47502   6.005   6.183   5.922 -0.6517 -1.1943 -2.7059
  352MOL0     H47503   6.217   6.118   6.044 -0.2345 -1.1307  1.0391
  352MOL0     H47504   6.517   5.940   6.194  1.7413  0.3549  2.6638
  352MOL0     H47505   6.729   5.871   6.324  0.2952 -0.8972 -0.0249
  352MOL0     H47506   8.225   6.213   7.149 -1.4023  0.1216  0.6936
  352MOL0     H47507   8.438   6.083   7.206 -1.7505  0.2524  0.6356
  352MOL0     H47508   8.766   5.930   7.111 -1.8633  0.2055  2.6494
  352MOL0     H47509   8.995   5.878   7.204  2.7214 -1.9813 -0.7813
  352MOL0     H47510   9.289   5.675   7.272 -0.6439 -0.9912 -4.0605
  352MOL0     H47511   9.174   5.745   7.159  0.9503  0.5857 -0.4225
  352MOL0     H47512   9.275   5.835   7.435  2.4954  1.0614 -1.0838
  352MOL0     H47513   9.110   5.883   7.384 -0.6634 -0.3793 -2.1810
  352MOL0     H47514   9.183   5.989   7.196  2.5780 -0.4905 -2.0503
  352MOL0     H47515   9.351   5.949   7.206 -0.8583 -0.2375 -0.9319
  352MOL0     H47516   9.329   6.069   7.448  2.9280  2.7327 -1.8488
  352MOL0     H47517   9.170   6.135   7.373 -0.7609 -2.0519  0.9196
  352MOL0     H47518   9.492   6.356   7.192 -0.6926 -0.8013 -1.0214
  352MOL0     H47519   8.887   5.473   7.293 -0.2377 -0.4183 -0.8109
  352MOL0     H47520   8.668   5.513   7.188  2.1349 -1.3930 -1.9237
  353MOL0     O47521   2.259   5.768   1.766 -0.2106  0.0676 -0.7009
  353MOL0     C47522   2.291   5.885   1.748  0.2885  0.2519 -0.2997
  353MOL0     O47523   2.318   5.972   1.845 -0.1692 -0.1848  1.2601
  353MOL0     C47524   2.256   5.960   1.957  0.9009 -0.6568 -0.1379
  353MOL0     C47525   2.327   5.967   2.071  0.4777  0.0930  0.7791
  353MOL0     C47526   2.267   5.972   2.189  0.4525 -0.1453 -0.8054
  353MOL0     C47527   2.120   5.979   2.212  0.0269  0.4768  0.2931
  353MOL0     O47528   2.056   5.983   2.331 -0.3085 -0.8970  1.5398
  353MOL0     C47529   2.126   5.934   2.444  0.7958  0.0166 -0.4324
  353MOL0     C47530   2.026   5.911   2.556  0.2995 -0.2690  0.4420
  353MOL0     C47531   1.920   5.804   2.537  0.2516 -0.2416 -0.1076
  353MOL0     C47532   1.837   5.801   2.667  0.7381 -0.0640  0.0977
  353MOL0     C47533   1.708   5.711   2.640  0.3105 -0.6183 -0.0492
  353MOL0     C47534   1.748   5.563   2.623  0.1548 -0.0425  0.2228
  353MOL0     C47535   1.616   5.479   2.605  0.3285 -0.8333 -0.0907
  353MOL0     C47536   1.560   5.427   2.739 -0.5192  0.1651  0.3231
  353MOL0     N47537   1.443   5.332   2.710  0.4454  0.0097  0.3222
  353MOL0     C47538   1.313   5.360   2.743 -1.0232 -0.4776 -1.1083
  353MOL0     C47539   1.240   5.263   2.689 -0.9099  0.2820  0.2820
  353MOL0     C47540   1.091   5.245   2.712 -0.9254 -0.3885  0.0856
  353MOL0     C47541   1.021   5.256   2.578 -0.5977 -0.4583  0.4913
  353MOL0     C47542   0.992   5.127   2.513 -0.1860  0.3626  0.1849
  353MOL0     C47543   0.897   5.146   2.398  0.3562  0.1108  0.1826
  353MOL0     O47544   0.767   5.147   2.453 -0.2604  0.3595 -0.9455
  353MOL0     C47545   0.661   5.191   2.366 -0.1499  0.7240  0.1152
  353MOL0     C47546   0.531   5.166   2.414  0.0149  0.2037 -0.1982
  353MOL0     C47547   0.415   5.196   2.349  0.0289  0.3557  0.4736
  353MOL0     C47548   0.293   5.169   2.435  0.4697  0.0966  0.7786
  353MOL0     C47549   0.429   5.258   2.227  0.5741  0.6110 -0.4536
  353MOL0     C47550   0.301   5.291   2.158 -0.0231  0.1752 -0.0413
  353MOL0     O47551   0.192   5.322   2.234  0.0722 -0.2457 -0.0755
  353MOL0     C47552   0.065   5.339   2.175 -0.7892 -0.8826  0.4484
  353MOL0     C47553   0.042   5.432   2.072  0.3217 -0.7393 -0.2281
  353MOL0     C47554  -0.093   5.445   2.021 -0.7786  0.7079 -0.2066
  353MOL0     C47555  -0.201   5.369   2.082  0.2001  0.1442  0.2941
  353MOL0     O47556  -0.335   5.390   2.033 -1.7754  0.0532  0.1641
  353MOL0     C47557  -0.375   5.526   2.037  0.4543 -0.5344  0.4517
  353MOL0     C47558  -0.528   5.532   2.005 -0.7223  0.2390 -0.4218
  353MOL0     C47559  -0.571   5.467   1.865 -0.1361 -0.1526  0.4543
  353MOL0     C47560  -0.724   5.415   1.856  0.0024  0.0133  0.1454
  353MOL0     C47561  -0.823   5.536   1.849  0.0153  0.7221  0.7950
  353MOL0     C47562  -0.965   5.491   1.823  0.9681  0.5484 -1.1314
  353MOL0     C47563  -1.049   5.616   1.794 -0.6439  0.9838  0.5233
  353MOL0     C47564  -1.173   5.587   1.720  0.0301  0.8237 -0.0740
  353MOL0    Cl47565  -1.139   5.518   1.558 -0.1722 -0.1406  0.0106
  353MOL0     C47566  -0.166   5.283   2.185  0.2300 -0.1419 -0.3845
  353MOL0     C47567  -0.040   5.270   2.231 -0.0395 -0.4189  0.6517
  353MOL0     O47568   0.305   5.270   2.033 -0.8493  0.4651 -0.1698
  353MOL0     C47569   0.546   5.293   2.177  0.1935 -0.7369 -0.7568
  353MOL0     C47570   0.671   5.262   2.244 -0.6871  0.4863 -0.1584
  353MOL0     N47571   1.328   5.165   2.628 -1.5529 -0.3280  0.5848
  353MOL0     N47572   1.446   5.216   2.639 -0.0801  0.9154  0.4678
  353MOL0     C47573   2.053   5.968   2.096  0.0126  0.1308  0.2011
  353MOL0     C47574   2.114   5.946   1.967 -0.0113  0.3566  0.0914
  353MOL0     C47575   2.301   5.931   1.613 -0.2489 -0.5360 -0.3532
  353MOL0     C47576   2.350   6.060   1.588  0.1233  0.6520 -0.1097
  353MOL0     C47577   2.346   6.112   1.456  0.3349 -0.2036 -0.9861
  353MOL0     C47578   2.309   6.033   1.351  0.5243  0.0151 -0.9643
  353MOL0     O47579   2.303   6.096   1.229  0.1921 -0.0140  0.0730
  353MOL0     C47580   2.341   6.013   1.115  0.6407  0.1508 -0.1720
  353MOL0     C47581   2.215   5.991   1.032 -0.0463  0.3525  0.8686
  353MOL0     C47582   2.187   6.124   0.953  0.9189 -0.8203 -0.3794
  353MOL0     C47583   2.065   6.112   0.852 -0.3617  0.2079 -0.3211
  353MOL0     C47584   2.088   6.001   0.750 -0.6896  0.2736 -0.6524
  353MOL0     C47585   2.118   5.925   0.663  0.0916 -0.5043  0.0830
  353MOL0     C47586   2.280   5.898   1.381  0.2798  0.7301  0.4279
  353MOL0     C47587   2.261   5.851   1.509 -0.9992  0.0186 -0.2107
  353MOL0     H47588   2.435   5.979   2.070  0.5184 -0.0044 -1.4201
  353MOL0     H47589   2.341   5.976   2.269 -1.2279 -1.3584  0.9118
  353MOL0     H47590   2.179   5.840   2.427 -1.5965 -1.3583 -0.6965
  353MOL0     H47591   2.196   6.008   2.484 -1.6384  1.5535  1.2522
  353MOL0     H47592   2.077   5.872   2.645  0.0738 -1.8084 -0.0684
  353MOL0     H47593   1.977   6.007   2.574 -1.1780 -0.2449 -2.9654
  353MOL0     H47594   1.856   5.830   2.452  1.6063 -1.7742 -1.7004
  353MOL0     H47595   1.968   5.707   2.517 -1.7358 -1.7189  1.7228
  353MOL0     H47596   1.898   5.763   2.749 -0.8758  0.8183  1.7705
  353MOL0     H47597   1.804   5.901   2.697 -0.7693 -0.6054  0.3447
  353MOL0     H47598   1.634   5.719   2.720 -1.0292  3.3661 -1.4213
  353MOL0     H47599   1.666   5.742   2.543  1.8186  0.6270 -0.3437
  353MOL0     H47600   1.808   5.549   2.533 -0.6379 -0.4386 -0.2666
  353MOL0     H47601   1.800   5.540   2.717  0.2339  0.7441  0.3783
  353MOL0     H47602   1.531   5.534   2.566 -0.2968 -2.0593 -0.5063
  353MOL0     H47603   1.622   5.405   2.525  1.1101  1.0578 -1.8771
  353MOL0     H47604   1.522   5.512   2.796 -1.3047  0.7939 -1.0675
  353MOL0     H47605   1.630   5.370   2.800  0.2689  0.9193  0.1369
  353MOL0     H47606   1.283   5.449   2.799  2.3566 -1.3364  2.4709
  353MOL0     H47607   1.071   5.146   2.754 -0.2077 -0.4898  0.1989
  353MOL0     H47608   1.053   5.316   2.785  1.3312  1.0912 -0.0768
  353MOL0     H47609   1.063   5.320   2.500 -3.0148  0.1492 -0.3715
  353MOL0     H47610   0.925   5.302   2.603  0.1453  0.9838  0.8003
  353MOL0     H47611   0.948   5.065   2.593 -0.0698  1.6868  1.3166
  353MOL0     H47612   1.082   5.089   2.465 -2.7555 -1.1174 -4.0167
  353MOL0     H47613   0.893   5.060   2.331  1.2036  0.4264 -0.2803
  353MOL0     H47614   0.915   5.242   2.350 -1.2254  2.2685  3.5405
  353MOL0     H47615   0.535   5.102   2.501 -1.6936  0.7927  0.3414
  353MOL0     H47616   0.316   5.104   2.520  4.0185  0.8783  0.5747
  353MOL0     H47617   0.253   5.266   2.464 -1.2021 -1.2899  3.5155
  353MOL0     H47618   0.215   5.123   2.373 -1.7718  1.4482  2.4578
  353MOL0     H47619   0.119   5.491   2.024 -0.3593 -2.2456 -3.4336
  353MOL0     H47620  -0.104   5.509   1.934 -0.4468  0.3339 -0.5245
  353MOL0     H47621  -0.370   5.557   2.142 -0.8863  0.5568  0.2299
  353MOL0     H47622  -0.312   5.587   1.973  1.0394  0.1569  1.6452
  353MOL0     H47623  -0.588   5.481   2.082  0.7795 -0.7125  0.1665
  353MOL0     H47624  -0.560   5.636   2.015 -0.7339  0.1958 -0.0033
  353MOL0     H47625  -0.509   5.381   1.836  1.1473  1.1603 -0.8392
  353MOL0     H47626  -0.546   5.525   1.776 -2.1455  0.4080  0.2171
  353MOL0     H47627  -0.730   5.370   1.756  0.5751  1.5787 -0.6345
  353MOL0     H47628  -0.741   5.341   1.934 -1.2166 -0.2339 -0.3349
  353MOL0     H47629  -0.797   5.594   1.760 -0.1658 -1.4503 -0.7493
  353MOL0     H47630  -0.812   5.597   1.940  2.6633 -0.6272  1.4956
  353MOL0     H47631  -0.977   5.420   1.741 -2.7359 -2.5326  1.6918
  353MOL0     H47632  -1.003   5.440   1.912  0.6271  3.1004  0.2729
  353MOL0     H47633  -0.982   5.689   1.748  2.8648 -0.4644  2.9569
  353MOL0     H47634  -1.081   5.665   1.887 -1.0207  2.4487 -0.3476
  353MOL0     H47635  -1.238   5.672   1.700 -2.4365 -0.8694  0.2215
  353MOL0     H47636  -1.238   5.516   1.773 -1.6684  2.0687 -0.3969
  353MOL0     H47637  -0.240   5.223   2.237 -0.9098  3.1498  2.1016
  353MOL0     H47638  -0.029   5.216   2.325 -0.2360 -1.1834  0.2460
  353MOL0     H47639   0.550   5.362   2.093 -2.4873 -0.3606 -0.6589
  353MOL0     H47640   0.766   5.297   2.204  0.2846 -1.6308  0.1543
  353MOL0     H47641   1.944   5.966   2.096 -0.1422  3.1910  0.9430
  353MOL0     H47642   2.048   5.945   1.881 -2.5256  2.1407  1.8206
  353MOL0     H47643   2.372   6.128   1.670  1.6959  2.4414 -1.9066
  353MOL0     H47644   2.375   6.209   1.417  1.7910 -0.7493 -1.3337
  353MOL0     H47645   2.420   6.063   1.059  0.8011 -1.3029 -1.3153
  353MOL0     H47646   2.393   5.921   1.146  1.4604  0.8501  0.5545
  353MOL0     H47647   2.127   5.964   1.091  0.0412  2.2242  1.9479
  353MOL0     H47648   2.237   5.909   0.963  1.5448 -0.5161  2.3648
  353MOL0     H47649   2.274   6.167   0.902  0.6261  0.6410  0.2879
  353MOL0     H47650   2.169   6.205   1.024  1.1713 -0.9269 -0.1932
  353MOL0     H47651   2.059   6.208   0.801 -1.6873 -0.4896 -1.5403
  353MOL0     H47652   1.976   6.093   0.912  0.0697  1.3192  0.7150
  353MOL0     H47653   2.119   5.851   0.585 -1.2673 -0.7924  0.3195
  353MOL0     H47654   2.257   5.824   1.305 -1.4005  1.3632  0.2704
  353MOL0     H47655   2.218   5.754   1.532  0.9824 -0.5725  1.3916
  354MOL0     O47656   4.025  10.728   8.326  0.3224  0.2534 -0.2926
  354MOL0     C47657   4.098  10.790   8.252  1.1026 -0.4336 -0.1188
  354MOL0     O47658   4.078  10.918   8.211 -0.1527 -0.0492  0.4316
  354MOL0     C47659   3.974  10.996   8.265 -0.1107 -0.6189  0.3700
  354MOL0     C47660   4.010  11.135   8.262 -0.2489 -0.2816 -0.6774
  354MOL0     C47661   3.922  11.235   8.308  0.4408  0.4281 -1.7685
  354MOL0     C47662   3.805  11.204   8.374 -0.2452  0.7356  0.3499
  354MOL0     O47663   3.744  11.312   8.432 -0.5442  0.9420  0.4862
  354MOL0     C47664   3.625  11.285   8.511  0.0906 -0.0932 -0.1156
  354MOL0     C47665   3.547  11.402   8.531  0.0082 -0.5530  0.5811
  354MOL0     C47666   3.406  11.373   8.574  0.4511  0.0888 -0.0477
  354MOL0     C47667   3.397  11.375   8.727  0.6367 -0.1001  0.4203
  354MOL0     C47668   3.252  11.386   8.782 -0.0321  0.5175 -0.7652
  354MOL0     C47669   3.156  11.498   8.732 -0.3872 -0.0409 -0.1314
  354MOL0     C47670   3.042  11.511   8.838 -0.0258 -0.5010  0.8185
  354MOL0     C47671   2.941  11.394   8.825  0.1577 -0.3614 -0.3727
  354MOL0     N47672   2.817  11.422   8.895 -0.1587  0.0476  0.2119
  354MOL0     C47673   2.705  11.480   8.844  0.2325 -0.0894 -0.5915
  354MOL0     C47674   2.622  11.507   8.942  0.9479  0.5132  0.0272
  354MOL0     C47675   2.483  11.575   8.949  0.8227 -0.0086 -0.4961
  354MOL0     C47676   2.378  11.489   9.026 -0.4791  0.2636  0.3693
  354MOL0     C47677   2.341  11.362   8.950  0.6813  0.3335 -0.3241
  354MOL0     C47678   2.206  11.383   8.872  0.5559  0.0661  0.7433
  354MOL0     O47679   2.215  11.486   8.774 -0.0669  0.8534  0.2131
  354MOL0     C47680   2.095  11.542   8.740  0.1295 -0.0248 -0.1869
  354MOL0     C47681   2.096  11.671   8.688  0.1564  0.4343 -0.0065
  354MOL0     C47682   1.985  11.735   8.644  0.2661  1.0289 -0.2889
  354MOL0     C47683   2.004  11.866   8.591 -0.2217  0.1573 -0.3871
  354MOL0     C47684   1.861  11.673   8.652  0.4309  0.0008 -0.1342
  354MOL0     C47685   1.736  11.747   8.601  0.8827  0.0021  0.8539
  354MOL0     O47686   1.723  11.880   8.611  0.2688  0.2152  0.2696
  354MOL0     C47687   1.619  11.961   8.562  0.0885  0.7098 -0.1740
  354MOL0     C47688   1.505  11.918   8.492  0.5035  0.4692 -0.0163
  354MOL0     C47689   1.395  11.997   8.471  0.1803 -0.1223 -0.6790
  354MOL0     C47690   1.405  12.135   8.521 -0.1268 -0.8297 -0.0910
  354MOL0     O47691   1.294  12.212   8.501 -0.0577  0.4024  0.0010
  354MOL0     C47692   1.265  12.311   8.598 -0.2192 -0.7752 -0.2146
  354MOL0     C47693   1.127  12.381   8.570  0.2062  0.2239  0.5016
  354MOL0     C47694   0.999  12.307   8.600  0.4743 -1.0655 -0.1306
  354MOL0     C47695   0.872  12.395   8.577 -0.3626  0.2506  0.5115
  354MOL0     C47696   0.748  12.318   8.626  0.0295  0.1757 -0.7087
  354MOL0     C47697   0.617  12.395   8.602 -0.4420 -0.3000 -0.4036
  354MOL0     C47698   0.578  12.391   8.457 -0.8832  0.5771 -0.0925
  354MOL0     C47699   0.436  12.440   8.434  0.5073 -0.1597 -0.0968
  354MOL0    Cl47700   0.391  12.443   8.260  0.1890 -0.0613 -0.0207
  354MOL0     C47701   1.526  12.184   8.578  0.8753  0.4132 -0.2386
  354MOL0     C47702   1.632  12.094   8.593 -0.3045 -0.7569 -0.2280
  354MOL0     O47703   1.663  11.667   8.535 -0.5148 -0.2071  0.4709
  354MOL0     C47704   1.849  11.543   8.707 -0.5697 -0.1458  1.2861
  354MOL0     C47705   1.966  11.479   8.751 -0.0321  0.7022  0.4153
  354MOL0     N47706   2.687  11.463   9.061 -0.5376 -0.1620  0.5693
  354MOL0     N47707   2.802  11.413   9.028 -0.6263  0.0482 -0.3662
  354MOL0     C47708   3.768  11.070   8.379 -0.5947  0.6833 -0.5273
  354MOL0     C47709   3.854  10.965   8.331  0.0397  0.7747  0.1173
  354MOL0     C47710   4.216  10.722   8.198  0.2492  0.5552  0.7730
  354MOL0     C47711   4.256  10.609   8.257 -0.1629  0.1016  0.5815
  354MOL0     C47712   4.378  10.558   8.210 -0.5856 -0.1782 -0.0384
  354MOL0     C47713   4.467  10.637   8.128  0.3427  0.3150 -0.0026
  354MOL0     O47714   4.586  10.584   8.085  0.5595 -0.2585  0.0090
  354MOL0     C47715   4.698  10.662   8.128  0.3935  0.1103  0.0877
  354MOL0     C47716   4.831  10.606   8.072  0.4116 -0.3420  0.5064
  354MOL0     C47717   4.876  10.488   8.159 -0.1299  0.4209  0.2583
  354MOL0     C47718   5.008  10.421   8.110 -0.1458  0.7249 -0.2882
  354MOL0     C47719   4.989  10.334   7.992  0.0848 -0.3227 -0.1599
  354MOL0     C47720   4.966  10.261   7.897 -0.3844  0.1245 -0.1768
  354MOL0     C47721   4.408  10.744   8.066 -0.2399 -0.1898  0.2817
  354MOL0     C47722   4.281  10.784   8.092 -0.8232 -0.0838  0.1071
  354MOL0     H47723   4.102  11.140   8.205  1.1799  2.3031  1.6115
  354MOL0     H47724   3.951  11.339   8.304 -0.0791  0.8907  2.0695
  354MOL0     H47725   3.567  11.199   8.479 -2.8956  0.5496  3.0497
  354MOL0     H47726   3.648  11.268   8.616 -2.4413  1.1964  0.7238
  354MOL0     H47727   3.599  11.479   8.588 -2.0744  0.7936  0.7952
  354MOL0     H47728   3.546  11.444   8.430 -0.7659 -2.6193 -0.3235
  354MOL0     H47729   3.345  11.445   8.518  2.5274  0.4632 -1.9518
  354MOL0     H47730   3.371  11.276   8.538  1.7165 -0.7076  0.7960
  354MOL0     H47731   3.445  11.280   8.750  1.1294 -0.2183 -1.0275
  354MOL0     H47732   3.457  11.453   8.775 -0.8567  2.2354 -1.3006
  354MOL0     H47733   3.200  11.291   8.763 -0.9991  1.2478 -2.0078
  354MOL0     H47734   3.264  11.391   8.890 -1.2106  1.9952 -0.6722
  354MOL0     H47735   3.203  11.596   8.726 -2.7300  1.0955 -1.6041
  354MOL0     H47736   3.129  11.480   8.628  1.3444  0.3636 -0.6806
  354MOL0     H47737   3.085  11.520   8.938  1.7059  1.3939  0.0002
  354MOL0     H47738   2.990  11.607   8.827  0.6525 -0.1059  0.9804
  354MOL0     H47739   2.978  11.300   8.866  0.5445  0.3422  0.9915
  354MOL0     H47740   2.912  11.381   8.721 -0.4346 -1.0409 -0.1269
  354MOL0     H47741   2.684  11.487   8.738  0.4937 -0.3397 -0.6597
  354MOL0     H47742   2.489  11.671   9.001 -0.3855  0.0230 -0.3724
  354MOL0     H47743   2.448  11.600   8.849 -2.6758 -0.4378  0.4718
  354MOL0     H47744   2.288  11.549   9.041 -0.1280  0.3830  2.2719
  354MOL0     H47745   2.415  11.457   9.124  0.0637 -0.0758  0.0572
  354MOL0     H47746   2.321  11.282   9.022 -1.0700  0.1572 -0.9416
  354MOL0     H47747   2.416  11.333   8.877 -1.9540 -2.0697 -2.2979
  354MOL0     H47748   2.140  11.401   8.958  2.5592 -1.8591  2.8113
  354MOL0     H47749   2.182  11.288   8.824 -3.6290 -0.0963  2.7527
  354MOL0     H47750   2.197  11.710   8.675  0.4665 -0.3499  0.0156
  354MOL0     H47751   1.941  11.873   8.502 -0.9012  0.4836  0.1074
  354MOL0     H47752   1.964  11.934   8.667  1.8457  1.5436 -0.4563
  354MOL0     H47753   2.103  11.902   8.565 -0.1455 -0.5122 -1.0628
  354MOL0     H47754   1.485  11.816   8.460 -0.1498  0.6378 -0.1648
  354MOL0     H47755   1.303  11.957   8.429  0.6298  0.0892 -1.9126
  354MOL0     H47756   1.257  12.274   8.700  1.8391  1.0685  0.6907
  354MOL0     H47757   1.353  12.376   8.592 -1.5640  1.2426  0.8934
  354MOL0     H47758   1.136  12.474   8.627 -0.1755 -0.9197  2.5004
  354MOL0     H47759   1.127  12.400   8.462 -2.1100  0.1554  0.4437
  354MOL0     H47760   1.006  12.294   8.708 -1.0246  2.0687  0.4592
  354MOL0     H47761   1.012  12.211   8.549 -0.3282 -0.7315 -0.9830
  354MOL0     H47762   0.884  12.487   8.634 -2.7320  1.1922 -0.4096
  354MOL0     H47763   0.863  12.420   8.471 -2.0655  1.5332  0.9167
  354MOL0     H47764   0.753  12.305   8.734  0.9986  0.3625 -0.7238
  354MOL0     H47765   0.727  12.226   8.572  0.9669  0.1143 -0.9948
  354MOL0     H47766   0.532  12.356   8.659 -2.0324  1.2117 -1.6276
  354MOL0     H47767   0.634  12.499   8.633 -0.5770 -0.3539 -0.1447
  354MOL0     H47768   0.595  12.289   8.421  2.4150  1.9274 -2.9767
  354MOL0     H47769   0.652  12.452   8.404 -0.9140  0.6536 -0.0469
  354MOL0     H47770   0.431  12.536   8.486  1.3896  0.4596 -1.1040
  354MOL0     H47771   0.365  12.377   8.488  0.9222  1.3877  2.4234
  354MOL0     H47772   1.551  12.281   8.619 -0.5282  0.6467  0.1352
  354MOL0     H47773   1.726  12.113   8.643  0.2156 -2.2219 -0.5994
  354MOL0     H47774   1.758  11.486   8.720 -0.4124 -0.9902 -0.8683
  354MOL0     H47775   1.953  11.379   8.793 -2.9656  0.8483  0.1101
  354MOL0     H47776   3.688  11.039   8.445  1.0757  0.8700  1.7091
  354MOL0     H47777   3.833  10.862   8.355 -1.2388  1.5661  2.8020
  354MOL0     H47778   4.203  10.559   8.338 -1.8520  2.9861  1.4039
  354MOL0     H47779   4.427  10.472   8.255  3.2255  1.9821  0.3926
  354MOL0     H47780   4.666  10.761   8.093 -5.1958 -1.8719 -1.4148
  354MOL0     H47781   4.703  10.671   8.237 -0.1724  0.9105  0.0557
  354MOL0     H47782   4.909  10.682   8.076  1.2996 -0.9529 -2.8134
  354MOL0     H47783   4.821  10.577   7.967  0.1960  0.9008  0.1673
  354MOL0     H47784   4.795  10.417   8.179  0.3427 -0.5999 -1.1863
  354MOL0     H47785   4.895  10.530   8.258  1.4829 -0.8812  0.5519
  354MOL0     H47786   5.045  10.363   8.194 -0.8046 -1.7473 -1.6223
  354MOL0     H47787   5.089  10.492   8.092  0.8804  0.1472  1.8219
  354MOL0     H47788   4.936  10.217   7.804  0.2704  2.6333 -1.6883
  354MOL0     H47789   4.463  10.805   7.995 -0.9218  1.6416  1.2469
  354MOL0     H47790   4.256  10.880   8.048 -2.3766  0.3874  1.8956
  355MOL0     O47791   5.897   8.836   8.529 -0.3146 -0.2057  0.0376
  355MOL0     C47792   5.932   8.719   8.507 -0.0039  0.3634 -0.0069
  355MOL0     O47793   5.861   8.625   8.437 -0.4130 -0.1703 -0.3965
  355MOL0     C47794   5.745   8.661   8.369  0.5340  0.2092  0.0127
  355MOL0     C47795   5.649   8.558   8.364 -0.6618 -1.6909 -0.8165
  355MOL0     C47796   5.535   8.573   8.283 -0.3314  0.4341  0.9621
  355MOL0     C47797   5.520   8.689   8.208  0.0184  0.0861  0.0705
  355MOL0     O47798   5.410   8.709   8.130 -1.0995  0.0168 -0.3445
  355MOL0     C47799   5.429   8.733   7.984 -0.4902 -0.4990  0.6764
  355MOL0     C47800   5.293   8.749   7.917 -0.0166 -0.4243 -0.3883
  355MOL0     C47801   5.324   8.753   7.762  0.3846  0.1046  1.3040
  355MOL0     C47802   5.196   8.753   7.681  0.8559 -1.3496  0.1647
  355MOL0     C47803   5.233   8.797   7.534 -0.1260 -0.3990 -0.5118
  355MOL0     C47804   5.126   8.754   7.428  0.2831 -0.1699  0.6152
  355MOL0     C47805   5.149   8.829   7.295  1.4512  0.2933  0.0511
  355MOL0     C47806   5.092   8.742   7.178  0.4313 -0.1926  0.2584
  355MOL0     N47807   4.950   8.752   7.182  0.3274  0.3326 -0.0086
  355MOL0     C47808   4.872   8.739   7.066 -0.6871  0.4139 -0.0280
  355MOL0     C47809   4.750   8.707   7.113  0.1133 -0.2401 -0.9743
  355MOL0     C47810   4.636   8.688   7.022 -1.3059  0.3139 -0.1544
  355MOL0     C47811   4.532   8.780   7.069 -0.0587  0.7231  0.3133
  355MOL0     C47812   4.545   8.915   7.009  0.1423 -0.3240  0.6052
  355MOL0     C47813   4.452   8.992   7.101  0.0818 -0.8609 -0.5912
  355MOL0     O47814   4.416   9.116   7.050  0.0150 -0.4490  0.6965
  355MOL0     C47815   4.291   9.132   7.014  0.7493  0.6501  0.1075
  355MOL0     C47816   4.199   9.203   7.089 -0.2281 -1.0278  0.2152
  355MOL0     C47817   4.067   9.214   7.053  0.3821  0.9188 -0.1850
  355MOL0     C47818   3.972   9.298   7.143  0.5414 -0.0337 -0.2185
  355MOL0     C47819   4.019   9.152   6.932  0.4910 -0.5899 -0.7415
  355MOL0     C47820   3.880   9.163   6.886  0.0495  0.4115  0.6207
  355MOL0     O47821   3.780   9.201   6.963  0.0862 -0.1001 -0.0067
  355MOL0     C47822   3.655   9.254   6.918  0.9659  0.5345  0.5173
  355MOL0     C47823   3.578   9.332   7.002  0.2170 -0.2298  0.1804
  355MOL0     C47824   3.454   9.378   6.977  0.6410 -0.6635 -0.0062
  355MOL0     C47825   3.405   9.366   6.850  0.1278 -0.2226  0.1379
  355MOL0     O47826   3.285   9.413   6.802 -0.3021 -0.5658  0.0952
  355MOL0     C47827   3.166   9.351   6.838 -0.0487  0.5595 -0.2630
  355MOL0     C47828   3.066   9.457   6.874 -0.4981  0.1850  0.4906
  355MOL0     C47829   3.107   9.535   7.001  0.4104 -0.3135  0.2763
  355MOL0     C47830   3.016   9.661   7.026  0.1926 -0.0073  0.3700
  355MOL0     C47831   2.868   9.629   7.045  1.0404 -0.5447  0.0379
  355MOL0     C47832   2.801   9.773   7.041  0.4090  0.0311 -0.2780
  355MOL0     C47833   2.660   9.752   7.078 -0.6958 -0.2975 -0.4547
  355MOL0     C47834   2.584   9.872   7.035 -0.6362 -0.7644 -0.6247
  355MOL0    Cl47835   2.665  10.026   7.102  0.7129 -0.0068  0.4076
  355MOL0     C47836   3.474   9.287   6.758  0.8713  0.1538  0.1562
  355MOL0     C47837   3.597   9.232   6.790  0.1205  0.3057  0.1082
  355MOL0     O47838   3.880   9.137   6.764 -0.1218  0.0623 -0.1192
  355MOL0     C47839   4.107   9.075   6.859  1.0069  0.1843 -0.1857
  355MOL0     C47840   4.237   9.066   6.899  0.0370  0.0485  1.1253
  355MOL0     N47841   4.758   8.709   7.252 -0.2476  0.3700  0.6977
  355MOL0     N47842   4.875   8.741   7.288  0.1770  0.7472 -0.2348
  355MOL0     C47843   5.615   8.795   8.221  0.1491 -0.1191  0.0853
  355MOL0     C47844   5.730   8.783   8.295 -0.1298  0.3720 -0.1416
  355MOL0     C47845   6.064   8.677   8.548 -0.5182  0.1615  0.2042
  355MOL0     C47846   6.161   8.773   8.582  0.0969 -0.0042 -0.6111
  355MOL0     C47847   6.288   8.741   8.620 -0.7278  0.4485  1.1130
  355MOL0     C47848   6.326   8.606   8.615 -0.6043 -0.2372 -1.2929
  355MOL0     O47849   6.453   8.580   8.671 -0.7265 -1.0247  0.0909
  355MOL0     C47850   6.503   8.452   8.627  0.4841 -1.3664  0.1271
  355MOL0     C47851   6.645   8.447   8.680 -0.5820 -0.0080 -0.4943
  355MOL0     C47852   6.749   8.560   8.641  0.6140 -0.5689 -0.7760
  355MOL0     C47853   6.878   8.557   8.720  0.2269 -1.0558  0.3111
  355MOL0     C47854   6.857   8.594   8.866  0.6257 -0.2941  0.2640
  355MOL0     C47855   6.848   8.630   8.982  0.3540  0.0639  0.1721
  355MOL0     C47856   6.233   8.510   8.568  0.4120  0.3648 -1.3524
  355MOL0     C47857   6.106   8.547   8.532  0.4859 -0.3347  0.2940
  355MOL0     H47858   5.673   8.471   8.425 -2.5659 -2.8212 -1.5988
  355MOL0     H47859   5.459   8.497   8.291 -0.1676  0.1140 -0.3069
  355MOL0     H47860   5.488   8.824   7.964 -1.0093  0.4597  3.1628
  355MOL0     H47861   5.487   8.650   7.943 -0.0479  0.8172 -1.5228
  355MOL0     H47862   5.224   8.676   7.960  0.9627  0.9531  4.0683
  355MOL0     H47863   5.252   8.847   7.942  0.5107  0.3692 -2.4111
  355MOL0     H47864   5.380   8.843   7.735 -1.7711  0.7665 -1.4222
  355MOL0     H47865   5.382   8.665   7.731 -0.1545 -0.8282  2.8218
  355MOL0     H47866   5.134   8.663   7.684 -0.9817 -0.1390  0.2161
  355MOL0     H47867   5.135   8.837   7.717  0.8289 -1.3650  0.1532
  355MOL0     H47868   5.265   8.902   7.531  2.1033 -0.8127  2.7203
  355MOL0     H47869   5.316   8.739   7.494 -1.5053 -1.3176 -2.1682
  355MOL0     H47870   5.128   8.646   7.412 -0.4700 -0.2890  1.2694
  355MOL0     H47871   5.035   8.787   7.479  0.2113 -2.7495  2.3355
  355MOL0     H47872   5.103   8.928   7.290 -1.2392 -0.8869  0.0062
  355MOL0     H47873   5.256   8.827   7.274  1.3187  0.5650 -0.6798
  355MOL0     H47874   5.122   8.637   7.188  2.4400  0.0497 -2.1700
  355MOL0     H47875   5.113   8.786   7.080 -0.8707  2.2517  0.9780
  355MOL0     H47876   4.911   8.757   6.966 -1.3481  1.8145 -0.0504
  355MOL0     H47877   4.653   8.713   6.917  1.0870  1.2390  0.3869
  355MOL0     H47878   4.602   8.584   7.027  1.6890 -0.7863 -0.5636
  355MOL0     H47879   4.538   8.770   7.178  1.5041  0.1035  0.2050
  355MOL0     H47880   4.441   8.736   7.028  0.0092  1.3388 -0.5085
  355MOL0     H47881   4.509   8.907   6.906  0.4436  2.1321  0.2350
  355MOL0     H47882   4.642   8.965   7.005  0.1553 -0.3893 -0.0387
  355MOL0     H47883   4.487   9.005   7.204  2.0302  1.4004 -1.4584
  355MOL0     H47884   4.361   8.938   7.128 -0.0711 -0.0347  0.6380
  355MOL0     H47885   4.230   9.247   7.183  0.4905  0.6415 -0.7596
  355MOL0     H47886   3.912   9.367   7.083 -1.6922 -0.4365  1.4243
  355MOL0     H47887   3.901   9.240   7.202 -1.7393  2.3957 -0.4116
  355MOL0     H47888   4.034   9.343   7.222  1.8182 -3.1854  0.7274
  355MOL0     H47889   3.617   9.345   7.103  1.1649  0.6719 -0.2873
  355MOL0     H47890   3.400   9.434   7.053  3.6128  0.6684  1.2963
  355MOL0     H47891   3.136   9.305   6.743  1.1823 -2.6172  0.7654
  355MOL0     H47892   3.170   9.271   6.912  2.1107 -2.4829 -3.3315
  355MOL0     H47893   3.043   9.534   6.799 -0.1531  1.2477  1.4557
  355MOL0     H47894   2.966   9.415   6.890 -2.2677  2.5163 -3.0533
  355MOL0     H47895   3.214   9.559   7.013  0.6837  0.8285 -3.3033
  355MOL0     H47896   3.084   9.459   7.076 -0.6166 -0.1393  0.1515
  355MOL0     H47897   3.054   9.716   7.113  1.9408 -1.2835  0.4706
  355MOL0     H47898   3.024   9.733   6.944 -0.2774  1.0015  1.1770
  355MOL0     H47899   2.853   9.567   7.134  1.0455 -1.0647 -0.3147
  355MOL0     H47900   2.835   9.580   6.952 -1.1551  0.6935  0.0879
  355MOL0     H47901   2.838   9.835   7.123 -1.6113 -3.4792  3.6241
  355MOL0     H47902   2.803   9.817   6.940 -2.1628 -1.2249 -0.9490
  355MOL0     H47903   2.667   9.736   7.186  2.5976  1.7041 -0.2465
  355MOL0     H47904   2.623   9.656   7.041  1.0291 -0.6697 -1.3259
  355MOL0     H47905   2.484   9.863   7.079 -0.0694 -3.8467  0.2374
  355MOL0     H47906   2.570   9.872   6.926 -1.9408  1.2372 -0.5219
  355MOL0     H47907   3.443   9.282   6.654  1.1236  1.2777  0.0112
  355MOL0     H47908   3.648   9.167   6.720  2.2868 -0.7317  2.4794
  355MOL0     H47909   4.080   9.015   6.772  2.5500  1.3615 -1.5418
  355MOL0     H47910   4.296   9.023   6.819 -2.7780 -0.6719 -0.7117
  355MOL0     H47911   5.585   8.878   8.158 -0.5229 -2.5104 -3.0279
  355MOL0     H47912   5.821   8.842   8.292  0.8449 -0.8990  2.1774
  355MOL0     H47913   6.137   8.878   8.594  0.8429  0.2650 -1.3757
  355MOL0     H47914   6.360   8.813   8.659  4.2713 -2.2682 -2.1282
  355MOL0     H47915   6.454   8.369   8.679  0.4342 -1.9051 -0.7690
  355MOL0     H47916   6.494   8.436   8.520 -3.6600  1.0235 -0.0861
  355MOL0     H47917   6.687   8.354   8.641  0.5960 -0.5332  1.8764
  355MOL0     H47918   6.635   8.445   8.789 -2.0446  1.3615 -0.5660
  355MOL0     H47919   6.711   8.662   8.644  0.8612 -0.3534 -2.9672
  355MOL0     H47920   6.755   8.536   8.534 -0.4551 -0.8879 -0.7721
  355MOL0     H47921   6.937   8.640   8.681 -3.9263  2.9536  1.7574
  355MOL0     H47922   6.918   8.455   8.724 -0.4563 -1.2948  2.2086
  355MOL0     H47923   6.833   8.659   9.084  0.6999 -0.6457  0.4298
  355MOL0     H47924   6.254   8.403   8.567  0.0976  0.2754 -0.1136
  355MOL0     H47925   6.046   8.465   8.494 -1.4519  0.2859  1.8209
  356MOL0     O47926   8.119   6.155   6.179 -0.2714 -0.5345  0.1745
  356MOL0     C47927   8.199   6.158   6.086 -0.0584 -0.3867 -0.5792
  356MOL0     O47928   8.204   6.255   5.984 -0.3153  0.2614 -0.1709
  356MOL0     C47929   8.123   6.363   5.983 -0.0980  0.2746  0.6244
  356MOL0     C47930   7.981   6.358   6.004 -0.4908  0.4561 -0.8941
  356MOL0     C47931   7.907   6.472   5.992 -0.0769  0.2037  0.4068
  356MOL0     C47932   7.967   6.596   5.952 -0.5175 -0.5037  0.3650
  356MOL0     O47933   7.911   6.720   5.942  0.8887  0.5728  0.0480
  356MOL0     C47934   7.865   6.745   5.809  1.6265 -1.2061  0.2633
  356MOL0     C47935   7.809   6.884   5.771 -0.2607  0.6904 -0.9791
  356MOL0     C47936   7.761   6.882   5.629 -0.0878 -0.7084  0.4246
  356MOL0     C47937   7.653   6.769   5.604  0.7169 -0.4387  0.3040
  356MOL0     C47938   7.593   6.796   5.470  0.1051 -0.1995  0.3438
  356MOL0     C47939   7.460   6.709   5.447 -1.0870 -0.5388  0.4468
  356MOL0     C47940   7.336   6.754   5.517 -0.6573 -0.6481  0.1999
  356MOL0     C47941   7.270   6.861   5.455  0.7211 -0.8150  0.5339
  356MOL0     N47942   7.196   6.834   5.332 -0.8145 -0.0608 -0.3990
  356MOL0     C47943   7.087   6.746   5.310 -0.9022 -0.8117  0.4141
  356MOL0     C47944   7.037   6.775   5.189 -0.1419 -0.1258  0.6601
  356MOL0     C47945   6.915   6.713   5.122  0.3133  0.0726 -1.0868
  356MOL0     C47946   6.866   6.762   4.982  0.8507 -0.9203 -0.0693
  356MOL0     C47947   6.977   6.758   4.878  0.0500 -0.0326  0.3788
  356MOL0     C47948   6.930   6.705   4.741 -0.3902 -0.2314  0.1923
  356MOL0     O47949   7.045   6.698   4.660 -0.1023 -0.1468  0.0196
  356MOL0     C47950   7.091   6.796   4.585 -0.1158 -0.3988  0.0923
  356MOL0     C47951   7.215   6.770   4.535 -0.0656 -0.4157  0.1876
  356MOL0     C47952   7.294   6.860   4.461  0.6186  0.6819  0.5890
  356MOL0     C47953   7.423   6.810   4.409  0.3427  0.2979  0.5144
  356MOL0     C47954   7.230   6.990   4.434 -0.0749  0.1345 -0.3208
  356MOL0     C47955   7.283   7.089   4.342 -0.7249  0.2580 -0.1934
  356MOL0     O47956   7.398   7.054   4.268  0.2345 -0.3521 -0.1504
  356MOL0     C47957   7.437   7.149   4.174  0.8095 -0.3625 -0.8083
  356MOL0     C47958   7.408   7.118   4.041  0.1963 -0.4921 -0.3623
  356MOL0     C47959   7.462   7.199   3.937 -0.1805  0.3253 -0.6743
  356MOL0     C47960   7.547   7.306   3.969  0.0718 -0.0693 -1.0603
  356MOL0     O47961   7.609   7.387   3.871  1.4977  0.3528  0.1213
  356MOL0     C47962   7.708   7.489   3.912  0.2147 -0.3451 -0.1040
  356MOL0     C47963   7.787   7.557   3.791  0.1578 -0.1450 -0.5185
  356MOL0     C47964   7.691   7.635   3.693 -0.0890  0.2167 -0.2016
  356MOL0     C47965   7.666   7.546   3.563 -0.4232  1.0469 -0.7658
  356MOL0     C47966   7.586   7.624   3.456 -0.2285  0.5281 -0.5068
  356MOL0     C47967   7.567   7.513   3.353  0.2292  0.1555  0.0376
  356MOL0     C47968   7.482   7.582   3.248 -0.1529  0.1022 -0.2740
  356MOL0     C47969   7.467   7.499   3.129  0.1121  0.2603 -0.5275
  356MOL0    Cl47970   7.628   7.448   3.066 -0.1715 -0.2584 -0.0499
  356MOL0     C47971   7.570   7.329   4.107 -0.1104  0.1207  0.1456
  356MOL0     C47972   7.515   7.252   4.210  0.1008 -0.4313 -0.0543
  356MOL0     O47973   7.230   7.198   4.340 -0.1069 -0.0501  0.2719
  356MOL0     C47974   7.098   7.012   4.477  0.0356  0.4409 -0.6581
  356MOL0     C47975   7.023   6.921   4.555 -0.3653  0.6776  0.1432
  356MOL0     N47976   7.111   6.880   5.141 -0.3442  0.3488  0.5927
  356MOL0     N47977   7.203   6.915   5.223  0.7823 -0.2571 -0.9015
  356MOL0     C47978   8.105   6.600   5.920  0.3729  0.0621  0.0190
  356MOL0     C47979   8.175   6.482   5.934 -0.4825  0.7033 -1.3660
  356MOL0     C47980   8.289   6.047   6.075  0.2776  0.1615  0.2455
  356MOL0     C47981   8.282   5.939   6.157  0.6577 -0.1558  0.2353
  356MOL0     C47982   8.378   5.840   6.158  0.0259  0.2871 -0.2632
  356MOL0     C47983   8.491   5.849   6.078 -0.9716  0.0026 -0.0310
  356MOL0     O47984   8.568   5.736   6.070 -1.2903  0.0163  0.1834
  356MOL0     C47985   8.646   5.723   6.189 -0.3039  0.1341 -0.1586
  356MOL0     C47986   8.763   5.813   6.195 -0.2494  0.3169 -1.0517
  356MOL0     C47987   8.856   5.813   6.077  0.4143 -0.6766 -0.1968
  356MOL0     C47988   8.930   5.685   6.061 -0.5868  0.2632 -1.0376
  356MOL0     C47989   9.056   5.717   5.993  0.5236 -0.7406  0.0283
  356MOL0     C47990   9.158   5.734   5.940 -0.5241 -0.1258 -0.3270
  356MOL0     C47991   8.501   5.959   5.997  0.2591  0.0127  0.2137
  356MOL0     C47992   8.402   6.057   5.996 -0.3141  1.2400  0.3977
  356MOL0     H47993   7.923   6.269   6.027  0.9855 -0.9655 -2.4221
  356MOL0     H47994   7.799   6.464   6.007  0.3607 -3.2151  3.3887
  356MOL0     H47995   7.945   6.717   5.741  0.9078 -0.2049 -1.0378
  356MOL0     H47996   7.780   6.676   5.797 -0.5847  1.4137 -0.1633
  356MOL0     H47997   7.729   6.913   5.840  0.1744 -2.3433  1.0276
  356MOL0     H47998   7.894   6.951   5.788 -0.9578  1.3346  0.0789
  356MOL0     H47999   7.717   6.979   5.604  1.5894  0.5455  2.1205
  356MOL0     H48000   7.850   6.868   5.566 -0.6409  0.6188 -0.6988
  356MOL0     H48001   7.695   6.668   5.602 -1.2444 -1.3012  0.2432
  356MOL0     H48002   7.573   6.770   5.679  2.0906 -1.7315  1.8710
  356MOL0     H48003   7.567   6.901   5.454  1.3598  0.1059  0.2040
  356MOL0     H48004   7.665   6.768   5.392  0.3950 -2.0473  1.2262
  356MOL0     H48005   7.445   6.690   5.340  1.6004  1.5253 -0.4221
  356MOL0     H48006   7.485   6.608   5.481  0.9415 -0.9470 -1.9313
  356MOL0     H48007   7.261   6.674   5.525 -1.3904  0.1250  1.4432
  356MOL0     H48008   7.353   6.771   5.623  1.2490 -3.9628  0.5822
  356MOL0     H48009   7.347   6.936   5.434 -1.5688  1.6282  0.2699
  356MOL0     H48010   7.192   6.899   5.521  0.6163 -3.0099  1.7705
  356MOL0     H48011   7.047   6.676   5.384 -0.0984 -0.8388  0.8387
  356MOL0     H48012   6.934   6.606   5.131 -0.2628  0.1312  4.1999
  356MOL0     H48013   6.824   6.722   5.182  0.3296 -1.3212 -0.8287
  356MOL0     H48014   6.817   6.860   4.975 -1.0622 -1.6384  1.9223
  356MOL0     H48015   6.788   6.694   4.949  1.1520 -1.2063 -0.1949
  356MOL0     H48016   7.041   6.681   4.923 -2.6325 -4.6958 -2.9139
  356MOL0     H48017   7.021   6.858   4.877  1.1511 -0.5025 -0.9278
  356MOL0     H48018   6.868   6.775   4.684  0.1785  0.7008  0.6966
  356MOL0     H48019   6.883   6.606   4.750 -4.5388  1.4094 -1.1753
  356MOL0     H48020   7.245   6.668   4.561 -1.8878 -1.0189  0.0644
  356MOL0     H48021   7.445   6.716   4.460 -2.6667 -0.5974  0.3552
  356MOL0     H48022   7.417   6.796   4.300  1.2525 -0.2256  0.5249
  356MOL0     H48023   7.504   6.877   4.438  1.3742 -0.1143 -1.2648
  356MOL0     H48024   7.334   7.039   4.038 -1.0589  0.5869  0.6713
  356MOL0     H48025   7.461   7.175   3.831 -0.0878  0.7123 -0.7644
  356MOL0     H48026   7.669   7.563   3.981 -0.2308 -0.7325  0.0656
  356MOL0     H48027   7.785   7.425   3.957  0.2187 -2.9701 -3.3908
  356MOL0     H48028   7.852   7.629   3.841  0.2864 -1.5258  1.4157
  356MOL0     H48029   7.855   7.487   3.741  3.6082  2.2172  0.4856
  356MOL0     H48030   7.747   7.727   3.672 -0.5269  0.1722 -1.6481
  356MOL0     H48031   7.598   7.668   3.742 -0.0526  1.7634 -1.1037
  356MOL0     H48032   7.764   7.510   3.529  0.1456  1.5014  0.3419
  356MOL0     H48033   7.622   7.450   3.590  0.0376  1.0699  0.0987
  356MOL0     H48034   7.636   7.710   3.409 -0.5190  1.2971  0.5520
  356MOL0     H48035   7.490   7.648   3.503  0.3112 -1.7476  1.9919
  356MOL0     H48036   7.664   7.486   3.310  1.4816  0.8092  2.2794
  356MOL0     H48037   7.513   7.427   3.393 -1.0226  1.3489  1.0240
  356MOL0     H48038   7.528   7.678   3.223 -0.0236  0.0833 -0.1128
  356MOL0     H48039   7.380   7.595   3.285  0.1229  1.4194  0.0569
  356MOL0     H48040   7.400   7.545   3.057 -2.7645 -0.7331  1.3567
  356MOL0     H48041   7.423   7.401   3.150  1.1555  0.2981  2.2768
  356MOL0     H48042   7.635   7.409   4.139  3.5375 -2.8209  0.7532
  356MOL0     H48043   7.543   7.287   4.309 -0.2296  1.2892 -0.5257
  356MOL0     H48044   7.051   7.105   4.450  1.0447  1.9667  2.3564
  356MOL0     H48045   6.924   6.935   4.597  0.0845  1.1604  1.0631
  356MOL0     H48046   8.155   6.690   5.887  0.6618  1.3196  3.4755
  356MOL0     H48047   8.283   6.494   5.930 -0.6338  3.8850  0.3724
  356MOL0     H48048   8.198   5.918   6.223 -0.5957 -1.5342 -1.7048
  356MOL0     H48049   8.364   5.747   6.213 -1.9313  0.9689  0.4698
  356MOL0     H48050   8.594   5.738   6.284  4.1182  0.9472  2.4015
  356MOL0     H48051   8.684   5.620   6.192 -3.3996 -1.1204  0.0819
  356MOL0     H48052   8.826   5.782   6.279  0.3595  0.9346 -1.2700
  356MOL0     H48053   8.732   5.917   6.205  3.4706  1.6359 -1.3741
  356MOL0     H48054   8.925   5.896   6.094 -0.9462  0.6281 -0.8734
  356MOL0     H48055   8.790   5.835   5.993 -4.2694  0.8542  3.4316
  356MOL0     H48056   8.864   5.614   6.011  0.8720 -2.9218  1.2405
  356MOL0     H48057   8.959   5.640   6.157  0.9638 -1.7750 -2.3834
  356MOL0     H48058   9.253   5.769   5.906 -0.2889 -1.1210 -0.7219
  356MOL0     H48059   8.591   5.976   5.939  0.7030  1.8649  1.3732
  356MOL0     H48060   8.419   6.139   5.928 -2.8944  0.1885 -1.7037
  357MOL0     O48061   5.441   2.303   5.723  1.0624 -0.0804  0.4245
  357MOL0     C48062   5.457   2.426   5.716  0.8785 -0.7781  0.1714
  357MOL0     O48063   5.364   2.513   5.671  0.1101 -0.3311  0.5228
  357MOL0     C48064   5.238   2.461   5.634 -0.8360 -0.1072 -0.2703
  357MOL0     C48065   5.218   2.364   5.535 -0.6458  0.0811 -0.2016
  357MOL0     C48066   5.095   2.305   5.519  0.8231  0.6950  0.3652
  357MOL0     C48067   4.981   2.352   5.587  0.2747  0.5782 -0.3129
  357MOL0     O48068   4.855   2.296   5.543 -0.0211 -0.4882  1.0521
  357MOL0     C48069   4.740   2.325   5.624  0.5817  0.1912  0.4578
  357MOL0     C48070   4.628   2.304   5.530  0.0103  0.7534  1.0733
  357MOL0     C48071   4.495   2.366   5.576  0.0838 -1.0228  0.9334
  357MOL0     C48072   4.376   2.326   5.487  0.1947 -0.1662  0.2395
  357MOL0     C48073   4.241   2.392   5.518 -0.6631  0.5645 -0.2295
  357MOL0     C48074   4.173   2.343   5.655 -1.2394  0.4038  0.8686
  357MOL0     C48075   4.021   2.388   5.639  0.0280 -0.4228 -1.1452
  357MOL0     C48076   3.952   2.335   5.762 -1.1267  0.3192  0.0856
  357MOL0     N48077   3.804   2.356   5.752 -0.5548 -0.0879  0.2585
  357MOL0     C48078   3.746   2.466   5.806  0.3321 -0.4118 -0.2025
  357MOL0     C48079   3.614   2.459   5.785 -0.3849  0.2522 -0.3992
  357MOL0     C48080   3.505   2.547   5.838 -0.2361  0.0173 -0.0829
  357MOL0     C48081   3.508   2.677   5.761 -0.4377  0.9793  0.7772
  357MOL0     C48082   3.486   2.670   5.609  0.0540  0.5948 -0.2716
  357MOL0     C48083   3.359   2.605   5.572 -0.3121  0.6765  0.5975
  357MOL0     O48084   3.237   2.657   5.630  0.2922  0.1621 -0.5419
  357MOL0     C48085   3.119   2.596   5.600 -0.3389 -0.1984  0.2698
  357MOL0     C48086   3.005   2.642   5.672 -0.6117  0.2744 -0.1344
  357MOL0     C48087   2.877   2.594   5.652 -0.1855  0.1621  0.4091
  357MOL0     C48088   2.766   2.658   5.728 -1.2197  0.3060  1.6391
  357MOL0     C48089   2.857   2.493   5.551  0.4624 -0.4801 -0.1102
  357MOL0     C48090   2.724   2.439   5.515  0.6288 -0.6201  0.4346
  357MOL0     O48091   2.721   2.321   5.450 -0.8939  0.0704  0.2849
  357MOL0     C48092   2.605   2.268   5.401 -0.4418  0.1400  0.6902
  357MOL0     C48093   2.586   2.128   5.397 -0.2080 -0.0631  0.1321
  357MOL0     C48094   2.471   2.068   5.339 -0.0270  0.6007  0.1887
  357MOL0     C48095   2.378   2.151   5.285 -0.3157  0.3289  0.4195
  357MOL0     O48096   2.275   2.096   5.212  0.1713 -0.3869 -0.5309
  357MOL0     C48097   2.146   2.134   5.259  0.2164  0.3595 -0.3669
  357MOL0     C48098   2.043   2.049   5.187  1.8929  0.2693 -0.1812
  357MOL0     C48099   1.900   2.079   5.241  0.1567 -0.1241  0.1750
  357MOL0     C48100   1.812   1.970   5.182  0.4546 -0.0133 -0.5626
  357MOL0     C48101   1.660   1.984   5.191  0.0251 -0.5379 -0.3304
  357MOL0     C48102   1.614   2.120   5.251  0.1455  0.2055 -1.2666
  357MOL0     C48103   1.466   2.112   5.250 -0.5045  0.8052 -0.1075
  357MOL0     C48104   1.377   2.212   5.321 -0.3226 -0.1945  0.2721
  357MOL0    Cl48105   1.401   2.211   5.492  0.0130 -0.3097  0.8106
  357MOL0     C48106   2.396   2.292   5.283 -0.8718  0.3051  0.3769
  357MOL0     C48107   2.504   2.351   5.350  0.4559 -0.7149 -0.1956
  357MOL0     O48108   2.625   2.508   5.547 -0.3470 -0.0154 -0.1015
  357MOL0     C48109   2.967   2.447   5.484 -0.0233 -0.0758  0.4494
  357MOL0     C48110   3.096   2.500   5.503  1.5978 -0.6543 -0.2638
  357MOL0     N48111   3.597   2.350   5.700 -0.1457 -0.2050  0.2660
  357MOL0     N48112   3.707   2.290   5.684 -0.3689  0.0706 -0.3179
  357MOL0     C48113   4.999   2.448   5.688 -0.2691 -0.8102  0.3975
  357MOL0     C48114   5.130   2.498   5.709 -0.0104 -0.1356 -0.6504
  357MOL0     C48115   5.594   2.482   5.733 -0.7116 -0.1138 -0.3793
  357MOL0     C48116   5.701   2.402   5.776  0.4425  0.2195  0.5690
  357MOL0     C48117   5.833   2.449   5.776 -0.4348 -0.1050 -0.2968
  357MOL0     C48118   5.867   2.574   5.755  0.3018  0.5355  0.8390
  357MOL0     O48119   5.998   2.607   5.752  0.0068 -0.5582 -0.6581
  357MOL0     C48120   6.038   2.745   5.727 -0.1629 -0.5156 -0.0789
  357MOL0     C48121   6.173   2.738   5.653  0.0455 -0.2243 -0.3244
  357MOL0     C48122   6.287   2.700   5.745 -0.7692  0.1016  0.5019
  357MOL0     C48123   6.414   2.666   5.657 -0.3404  0.2814 -0.8184
  357MOL0     C48124   6.533   2.606   5.734 -0.2404  0.3478  0.4166
  357MOL0     C48125   6.630   2.562   5.796 -0.1792 -0.1574  0.0020
  357MOL0     C48126   5.760   2.657   5.713 -0.6949 -0.6906 -0.2690
  357MOL0     C48127   5.630   2.621   5.703  0.0598  0.7514 -0.8115
  357MOL0     H48128   5.296   2.330   5.469 -0.7859  0.9052 -0.8067
  357MOL0     H48129   5.081   2.222   5.452 -2.0328  2.0063 -0.8093
  357MOL0     H48130   4.730   2.262   5.713 -2.4202 -3.0001 -1.8868
  357MOL0     H48131   4.732   2.433   5.643  1.9839  0.4403 -0.2216
  357MOL0     H48132   4.653   2.347   5.433  1.6515 -0.9161  0.7185
  357MOL0     H48133   4.618   2.197   5.513  1.9302  0.8439 -1.1055
  357MOL0     H48134   4.484   2.337   5.681 -0.5940 -0.0556  1.1373
  357MOL0     H48135   4.510   2.475   5.573 -0.0703 -1.0291 -1.3783
  357MOL0     H48136   4.394   2.344   5.381  0.4550  0.1377  0.3371
  357MOL0     H48137   4.362   2.218   5.504 -2.8765  0.3977  1.9932
  357MOL0     H48138   4.244   2.501   5.507 -0.4672  0.4165 -1.7811
  357MOL0     H48139   4.177   2.356   5.437  0.2120  1.5588 -1.4119
  357MOL0     H48140   4.191   2.236   5.669  0.4113  0.6563  0.9551
  357MOL0     H48141   4.220   2.397   5.739  2.4942  0.5342 -1.0787
  357MOL0     H48142   4.010   2.495   5.621  1.1891  0.0932  0.8488
  357MOL0     H48143   3.967   2.337   5.559  0.3814 -4.2615  0.8427
  357MOL0     H48144   3.995   2.371   5.856 -0.2689 -1.7342  0.5446
  357MOL0     H48145   3.970   2.228   5.778 -0.2027  0.0097 -2.5477
  357MOL0     H48146   3.787   2.540   5.874 -0.6899  0.0199 -0.0355
  357MOL0     H48147   3.409   2.497   5.822 -0.3013 -0.3732  1.4274
  357MOL0     H48148   3.518   2.572   5.943 -2.5189 -1.1139  0.5163
  357MOL0     H48149   3.611   2.708   5.778  1.2450 -2.9685 -1.0461
  357MOL0     H48150   3.443   2.751   5.810 -2.7842  0.7632 -1.7271
  357MOL0     H48151   3.574   2.630   5.558 -0.1640 -0.8073  0.3864
  357MOL0     H48152   3.477   2.776   5.585  0.5276  0.6662 -0.1512
  357MOL0     H48153   3.381   2.499   5.593 -1.6985  0.0704 -0.7936
  357MOL0     H48154   3.352   2.624   5.465 -3.5659  1.0573  0.7700
  357MOL0     H48155   3.023   2.726   5.738 -1.3067  0.2415  0.1016
  357MOL0     H48156   2.797   2.743   5.789 -1.4931  2.8605 -1.5133
  357MOL0     H48157   2.697   2.708   5.659  0.8867 -2.2402 -2.7126
  357MOL0     H48158   2.714   2.582   5.788 -0.0805 -0.7677  1.2992
  357MOL0     H48159   2.665   2.067   5.441 -0.1253 -0.2877 -0.3210
  357MOL0     H48160   2.454   1.960   5.338 -0.4174  0.5888 -2.8414
  357MOL0     H48161   2.139   2.121   5.367 -0.6623 -1.2612 -0.5941
  357MOL0     H48162   2.138   2.241   5.239  2.0762  0.9598  1.6045
  357MOL0     H48163   2.042   2.066   5.079  2.6450  0.1052 -0.2210
  357MOL0     H48164   2.077   1.947   5.210 -1.2581 -0.3115  2.7440
  357MOL0     H48165   1.872   2.179   5.206  1.3034 -0.4060 -1.6656
  357MOL0     H48166   1.893   2.066   5.350 -2.3424 -1.6370 -0.1018
  357MOL0     H48167   1.833   1.951   5.076 -1.3455 -2.0320 -0.6346
  357MOL0     H48168   1.840   1.876   5.231  1.4789  0.6879  0.2541
  357MOL0     H48169   1.623   1.908   5.260 -0.6641  1.5241  1.6911
  357MOL0     H48170   1.622   1.971   5.089  1.8845 -1.2255 -0.9654
  357MOL0     H48171   1.651   2.139   5.352 -0.3794  3.0164 -1.5241
  357MOL0     H48172   1.648   2.204   5.189  2.0181  0.7839  0.4379
  357MOL0     H48173   1.430   2.012   5.278  0.7385 -0.4977 -2.8217
  357MOL0     H48174   1.448   2.123   5.142  1.6888 -1.4368 -0.7820
  357MOL0     H48175   1.274   2.189   5.294 -1.0769  2.5615  0.4073
  357MOL0     H48176   1.402   2.309   5.275  2.2494  0.2161  2.2708
  357MOL0     H48177   2.323   2.348   5.224 -2.5561 -3.1308 -1.0860
  357MOL0     H48178   2.507   2.460   5.349 -5.2925 -0.2762 -1.9733
  357MOL0     H48179   2.956   2.373   5.405 -1.6935  1.5155 -0.8788
  357MOL0     H48180   3.175   2.456   5.443  0.2934 -2.5494 -0.7004
  357MOL0     H48181   4.916   2.499   5.736 -2.9064 -1.0554 -3.4704
  357MOL0     H48182   5.144   2.564   5.795  0.0169 -0.5422 -0.3393
  357MOL0     H48183   5.688   2.303   5.819 -0.3180 -0.1525 -0.4653
  357MOL0     H48184   5.919   2.387   5.797  0.2074  0.9480  0.2725
  357MOL0     H48185   5.966   2.803   5.670 -0.0421  1.4778  1.6708
  357MOL0     H48186   6.045   2.787   5.828 -5.4183 -0.1362  0.4144
  357MOL0     H48187   6.193   2.838   5.612  2.0128 -0.0893  0.8426
  357MOL0     H48188   6.174   2.663   5.573  1.7697 -1.1591  0.5423
  357MOL0     H48189   6.265   2.617   5.812 -2.1969  0.1838  0.1656
  357MOL0     H48190   6.316   2.783   5.809 -1.4112 -0.6684  1.8256
  357MOL0     H48191   6.444   2.755   5.601  0.1369  0.7343  0.1389
  357MOL0     H48192   6.378   2.584   5.593 -0.7743 -1.2513  1.2734
  357MOL0     H48193   6.700   2.522   5.866  0.0494  0.5073  0.1619
  357MOL0     H48194   5.770   2.761   5.686 -0.3600 -0.5810  0.2577
  357MOL0     H48195   5.562   2.692   5.658  0.2988  2.3829  1.2632
  358MOL0     O48196   1.407   9.699   7.033  0.3370 -0.1748 -0.1151
  358MOL0     C48197   1.449   9.646   6.933 -1.0230 -0.4407  0.4971
  358MOL0     O48198   1.379   9.603   6.823  0.3075  0.2512  0.3613
  358MOL0     C48199   1.243   9.618   6.812 -0.0970  0.1252  0.7072
  358MOL0     C48200   1.190   9.649   6.687 -0.3986  0.9208  0.3549
  358MOL0     C48201   1.046   9.659   6.670  0.4740 -0.1631 -0.3487
  358MOL0     C48202   0.968   9.661   6.789  0.2844 -0.8869 -0.4787
  358MOL0     O48203   0.834   9.693   6.760 -0.5978 -0.2812 -0.9379
  358MOL0     C48204   0.736   9.649   6.858  0.6593 -0.3254  0.4511
  358MOL0     C48205   0.594   9.661   6.802  0.3182  0.4914  0.6101
  358MOL0     C48206   0.481   9.685   6.902  0.1576  0.6916 -0.0703
  358MOL0     C48207   0.347   9.703   6.831  0.2236  0.2578  0.3292
  358MOL0     C48208   0.237   9.731   6.929 -1.1767 -0.0252 -0.5528
  358MOL0     C48209   0.105   9.760   6.852  0.0471 -0.6943 -0.1500
  358MOL0     C48210   0.041   9.643   6.770  0.0210  0.2150  0.7336
  358MOL0     C48211  -0.007   9.690   6.630  0.0000 -0.2539  0.5305
  358MOL0     N48212  -0.144   9.738   6.631  0.1044 -0.2098 -0.1480
  358MOL0     C48213  -0.199   9.843   6.693 -0.7155 -0.9068  0.0772
  358MOL0     C48214  -0.331   9.841   6.654 -0.3890 -0.2182 -0.6547
  358MOL0     C48215  -0.434   9.941   6.703  0.4302  0.2559 -0.1114
  358MOL0     C48216  -0.505   9.912   6.837 -0.3849  0.3579 -0.4288
  358MOL0     C48217  -0.640   9.977   6.842  1.3327  0.9498  0.2547
  358MOL0     C48218  -0.644  10.131   6.842 -0.5870  0.5729  0.4390
  358MOL0     O48219  -0.715  10.175   6.957 -0.0666 -0.2066 -0.3845
  358MOL0     C48220  -0.853  10.175   6.954  0.5962  0.1684 -0.6736
  358MOL0     C48221  -0.924  10.238   7.064 -0.0831  0.4017  0.2226
  358MOL0     C48222  -1.061  10.263   7.059  0.1339  0.8191 -0.0040
  358MOL0     C48223  -1.124  10.340   7.167  0.6314  0.2416  0.7461
  358MOL0     C48224  -1.137  10.206   6.954 -0.2024 -0.2125  0.1040
  358MOL0     C48225  -1.287  10.208   6.950 -0.8131 -0.4784  0.0979
  358MOL0     O48226  -1.360  10.101   6.907  0.4176  0.1647 -0.1279
  358MOL0     C48227  -1.491  10.077   6.952 -0.7442 -0.0442 -0.2635
  358MOL0     C48228  -1.518   9.950   6.998  0.2639 -0.5710 -0.5902
  358MOL0     C48229  -1.646   9.909   7.045  0.0908  0.2962  0.1234
  358MOL0     C48230  -1.752  10.000   7.036  0.2177  0.7448 -0.0153
  358MOL0     O48231  -1.870   9.947   7.084  0.3500  0.0938  0.2611
  358MOL0     C48232  -1.979  10.039   7.087  0.4819 -0.2423  0.7469
  358MOL0     C48233  -2.105   9.959   7.116  0.4124  0.1761 -0.1610
  358MOL0     C48234  -2.101   9.897   7.261  0.2353  0.7392  0.6084
  358MOL0     C48235  -2.247   9.857   7.293 -0.5829 -0.7983  0.4578
  358MOL0     C48236  -2.262   9.782   7.421  0.4406 -0.6398  0.0073
  358MOL0     C48237  -2.274   9.885   7.536 -0.2074  0.6250 -0.5876
  358MOL0     C48238  -2.284   9.799   7.673  0.2214 -0.9487 -0.8509
  358MOL0     C48239  -2.405   9.701   7.682  0.0271 -0.0230  0.7552
  358MOL0    Cl48240  -2.549   9.800   7.681  0.2279 -0.3814  0.1869
  358MOL0     C48241  -1.728  10.125   6.992 -1.1470 -0.2572  0.0853
  358MOL0     C48242  -1.602  10.164   6.948 -1.0393 -0.3341 -0.2146
  358MOL0     O48243  -1.340  10.324   6.974 -0.3487 -0.5338 -0.1601
  358MOL0     C48244  -1.066  10.136   6.856 -0.0062 -0.3102  0.0140
  358MOL0     C48245  -0.930  10.125   6.851  0.1688 -0.3487 -0.6510
  358MOL0     N48246  -0.346   9.727   6.580 -0.2429 -0.0710  0.2185
  358MOL0     N48247  -0.238   9.655   6.588  0.1640 -0.1205 -0.0051
  358MOL0     C48248   1.022   9.608   6.910  0.2337 -0.5966 -0.4518
  358MOL0     C48249   1.156   9.589   6.922  0.1130 -0.4334  0.0897
  358MOL0     C48250   1.596   9.633   6.923 -0.4620 -0.4737  0.1540
  358MOL0     C48251   1.660   9.559   6.823  0.2295  0.2129 -0.2793
  358MOL0     C48252   1.796   9.535   6.827  0.0054  0.0119 -0.0949
  358MOL0     C48253   1.883   9.597   6.919  0.4574  0.6107 -0.2602
  358MOL0     O48254   2.008   9.560   6.924 -0.7229 -0.1105 -0.1219
  358MOL0     C48255   2.093   9.632   7.012 -0.0645  0.2440  0.8368
  358MOL0     C48256   2.234   9.580   6.989  0.1697  0.0002  0.0041
  358MOL0     C48257   2.266   9.444   7.043 -0.4028  0.2009  1.1215
  358MOL0     C48258   2.416   9.438   7.091  0.3618  0.2004 -1.1179
  358MOL0     C48259   2.452   9.317   7.162 -0.3757 -0.2588 -0.2746
  358MOL0     C48260   2.486   9.226   7.230 -0.4690  1.7087 -0.0087
  358MOL0     C48261   1.821   9.676   7.024  0.0689 -0.2750 -0.4568
  358MOL0     C48262   1.678   9.702   7.026  0.7443 -0.0642  0.4619
  358MOL0     H48263   1.242   9.664   6.594  0.0585  3.4307  0.9523
  358MOL0     H48264   0.997   9.684   6.576  1.2015 -0.6193 -0.8560
  358MOL0     H48265   0.746   9.544   6.888 -0.7204 -0.3252  0.9935
  358MOL0     H48266   0.738   9.707   6.950 -2.2982  0.4529  0.1428
  358MOL0     H48267   0.596   9.756   6.748 -1.9277  0.4965  0.4581
  358MOL0     H48268   0.569   9.580   6.733  0.7779  1.2057 -0.4273
  358MOL0     H48269   0.479   9.613   6.985 -0.8804 -1.7714 -2.1067
  358MOL0     H48270   0.511   9.779   6.951  1.7209  1.6799 -2.6975
  358MOL0     H48271   0.363   9.792   6.769 -3.0519  0.3847 -0.5228
  358MOL0     H48272   0.327   9.618   6.764  0.7488 -0.4814  1.0923
  358MOL0     H48273   0.235   9.642   6.992 -0.7219 -0.0871 -0.6283
  358MOL0     H48274   0.253   9.818   6.993 -1.6812 -0.8087  0.6780
  358MOL0     H48275   0.028   9.785   6.926  1.6998  2.1014  0.7491
  358MOL0     H48276   0.122   9.854   6.799  0.5472  0.0186  1.2182
  358MOL0     H48277   0.121   9.574   6.743  2.4623  3.1808 -0.2614
  358MOL0     H48278  -0.034   9.585   6.825 -2.6436  0.8508 -1.9464
  358MOL0     H48279   0.008   9.605   6.563  0.9923 -0.3904  0.9172
  358MOL0     H48280   0.053   9.775   6.596 -0.3518  0.5853  1.9062
  358MOL0     H48281  -0.151   9.923   6.748 -1.1170 -1.3074  1.0509
  358MOL0     H48282  -0.391  10.041   6.702 -0.1974  0.5323 -0.5131
  358MOL0     H48283  -0.510   9.951   6.624  1.9072 -3.9198 -2.3605
  358MOL0     H48284  -0.447   9.948   6.922  0.9297 -2.9971  0.2476
  358MOL0     H48285  -0.520   9.805   6.851  2.9187 -0.1403  0.2125
  358MOL0     H48286  -0.682   9.944   6.938 -2.2557  3.0884 -0.4134
  358MOL0     H48287  -0.719   9.935   6.779  2.1338  2.0764 -1.5867
  358MOL0     H48288  -0.685  10.176   6.751  2.4356  1.4205 -0.6322
  358MOL0     H48289  -0.540  10.165   6.840 -0.3228 -0.0543  1.9152
  358MOL0     H48290  -0.874  10.284   7.148  0.8673  0.5399 -0.4050
  358MOL0     H48291  -1.207  10.284   7.210  0.7985 -1.5854 -1.1162
  358MOL0     H48292  -1.045  10.381   7.230  0.5798 -0.7638  1.4973
  358MOL0     H48293  -1.172  10.426   7.120  1.2845  1.2900  1.9509
  358MOL0     H48294  -1.424   9.896   7.007  1.7748  1.9370  0.0551
  358MOL0     H48295  -1.665   9.809   7.083  4.0011  0.2135  2.3878
  358MOL0     H48296  -1.964  10.117   7.162  4.8088  0.6703 -0.8201
  358MOL0     H48297  -1.993  10.079   6.986  3.3422  1.8082  1.0454
  358MOL0     H48298  -2.190  10.026   7.107  0.1829 -0.1545 -0.4948
  358MOL0     H48299  -2.119   9.883   7.038 -0.7960  1.9674 -1.7993
  358MOL0     H48300  -2.070   9.972   7.334  0.2563  2.6315 -1.2566
  358MOL0     H48301  -2.040   9.808   7.278 -2.5298 -1.1998  1.0395
  358MOL0     H48302  -2.306   9.949   7.292  0.1660 -0.2906  1.2605
  358MOL0     H48303  -2.276   9.788   7.213  1.1139 -1.7852  0.6422
  358MOL0     H48304  -2.175   9.715   7.428  1.7884  1.0874  0.5121
  358MOL0     H48305  -2.347   9.714   7.428 -0.3920  0.5302  2.1371
  358MOL0     H48306  -2.181   9.942   7.525  0.3128 -0.5419 -2.7556
  358MOL0     H48307  -2.364   9.946   7.525 -0.8586 -0.5788 -2.3835
  358MOL0     H48308  -2.278   9.865   7.760 -1.1737 -1.0898 -0.6188
  358MOL0     H48309  -2.196   9.733   7.672  1.4989  0.6689  0.0214
  358MOL0     H48310  -2.412   9.656   7.781 -0.8056 -2.3444 -0.2601
  358MOL0     H48311  -2.413   9.623   7.605 -0.4095  1.7509 -1.1060
  358MOL0     H48312  -1.801  10.205   6.988 -2.5666 -1.5621 -1.1363
  358MOL0     H48313  -1.581  10.263   6.908 -1.3677 -0.4419 -0.6656
  358MOL0     H48314  -1.115  10.102   6.766  1.6735  0.7298 -1.3664
  358MOL0     H48315  -0.882  10.083   6.763  1.0813  1.7047 -1.1834
  358MOL0     H48316   0.956   9.583   6.992  0.6107  2.1688  0.8063
  358MOL0     H48317   1.194   9.552   7.016 -2.3299  0.1769  1.4150
  358MOL0     H48318   1.607   9.517   6.738  1.2720 -0.2913 -0.7005
  358MOL0     H48319   1.846   9.483   6.746 -0.6517  0.0533 -0.5400
  358MOL0     H48320   2.082   9.739   6.992 -0.8512  0.0121 -0.0412
  358MOL0     H48321   2.072   9.617   7.118  0.4511  2.0404  1.2308
  358MOL0     H48322   2.306   9.656   7.021 -0.5896  1.0189 -0.6186
  358MOL0     H48323   2.244   9.583   6.880 -0.9118  5.2820 -0.2323
  358MOL0     H48324   2.248   9.373   6.961 -0.4325  3.4692 -1.9501
  358MOL0     H48325   2.201   9.421   7.128  0.9453 -1.1416  1.8430
  358MOL0     H48326   2.439   9.508   7.171  4.3081 -4.9343  2.9731
  358MOL0     H48327   2.481   9.440   7.003 -0.5101  1.1168 -1.7642
  358MOL0     H48328   2.501   9.141   7.294 -1.7960  0.1883 -1.6407
  358MOL0     H48329   1.875   9.736   7.097 -2.9451 -0.2883  1.9911
  358MOL0     H48330   1.635   9.745   7.116 -3.3559 -2.3108 -0.2202
  359MOL0     O48331   3.526   6.623   1.486 -0.4712 -0.0708  0.8881
  359MOL0     C48332   3.586   6.625   1.375  0.3942  1.2902  0.5954
  359MOL0     O48333   3.530   6.612   1.244  0.4850 -0.1099 -0.9161
  359MOL0     C48334   3.399   6.642   1.225 -0.1606 -0.3521  0.3759
  359MOL0     C48335   3.317   6.548   1.153 -0.3074  0.5468 -0.2179
  359MOL0     C48336   3.179   6.567   1.125  0.2373  0.0281  0.0559
  359MOL0     C48337   3.117   6.689   1.165  0.6420  0.1067 -1.5675
  359MOL0     O48338   2.980   6.712   1.157  0.2919 -1.2555  0.3856
  359MOL0     C48339   2.896   6.635   1.068  0.4154 -0.6559  0.2102
  359MOL0     C48340   2.750   6.674   1.081 -0.1733  0.4001  0.0491
  359MOL0     C48341   2.726   6.828   1.063 -0.0790 -0.5536  0.2227
  359MOL0     C48342   2.591   6.868   1.115  0.8545  0.6730  0.1905
  359MOL0     C48343   2.503   6.872   0.991  0.5410  0.7441 -0.1205
  359MOL0     C48344   2.353   6.894   1.017 -0.8143 -0.3005 -1.0942
  359MOL0     C48345   2.271   6.904   0.894  0.0795 -0.6198 -0.2904
  359MOL0     C48346   2.312   7.028   0.808 -0.1616 -0.7690  1.1819
  359MOL0     N48347   2.214   7.057   0.709  1.0635 -0.1195  1.0709
  359MOL0     C48348   2.082   7.019   0.714 -0.1277  1.1198 -1.3455
  359MOL0     C48349   2.024   7.073   0.608  0.7855 -0.0947  0.2216
  359MOL0     C48350   1.869   7.070   0.567 -0.4833  0.3174 -0.4295
  359MOL0     C48351   1.847   7.007   0.431  0.8723  0.0374  0.2811
  359MOL0     C48352   1.706   7.023   0.378  0.5602  1.0591  0.1471
  359MOL0     C48353   1.671   7.161   0.323 -0.4100  0.6132 -0.1773
  359MOL0     O48354   1.702   7.171   0.188  0.0281 -0.6427  0.1205
  359MOL0     C48355   1.598   7.180   0.100  0.4939  0.0931 -0.7185
  359MOL0     C48356   1.502   7.276   0.107 -0.2992 -0.1110 -0.1942
  359MOL0     C48357   1.399   7.274   0.014  0.2947 -0.5968 -0.6350
  359MOL0     C48358   1.292   7.388   0.025 -0.3341  0.6258 -0.5527
  359MOL0     C48359   1.383   7.174  -0.084  0.1738 -0.2064  0.2182
  359MOL0     C48360   1.285   7.168  -0.199  0.6449 -0.3269  0.0844
  359MOL0     O48361   1.160   7.197  -0.160 -0.3150 -0.2735 -0.3293
  359MOL0     C48362   1.061   7.206  -0.255 -0.1590 -0.1559  0.2472
  359MOL0     C48363   0.949   7.120  -0.233 -0.8093 -0.3473  0.2004
  359MOL0     C48364   0.848   7.113  -0.326  0.6482 -0.0315  0.0983
  359MOL0     C48365   0.849   7.195  -0.437  0.1651  0.1347  0.1070
  359MOL0     O48366   0.748   7.178  -0.533 -0.0958  0.0255 -0.2498
  359MOL0     C48367   0.710   7.295  -0.612 -0.0074 -0.3407  1.0028
  359MOL0     C48368   0.555   7.285  -0.621 -0.4964 -0.0344  0.9239
  359MOL0     C48369   0.508   7.151  -0.676  0.1770  0.4713 -0.4617
  359MOL0     C48370   0.498   7.156  -0.830 -0.2211  0.3617  0.5195
  359MOL0     C48371   0.405   7.055  -0.887  0.1478  0.1502  0.1788
  359MOL0     C48372   0.393   7.084  -1.035  0.1145  0.5058 -0.4333
  359MOL0     C48373   0.283   7.008  -1.109  0.1454 -0.6820  0.1213
  359MOL0     C48374   0.259   7.047  -1.262  0.2263 -0.6760 -0.5776
  359MOL0    Cl48375   0.187   7.215  -1.280  0.0495 -0.3503 -0.0549
  359MOL0     C48376   0.949   7.287  -0.458 -0.7176 -0.1048  0.1474
  359MOL0     C48377   1.058   7.291  -0.363 -0.0837  0.3288  0.4983
  359MOL0     O48378   1.317   7.135  -0.314  0.6363  0.5496  0.6253
  359MOL0     C48379   1.493   7.084  -0.092 -0.9212  0.3200 -0.4384
  359MOL0     C48380   1.600   7.079  -0.002  0.3482 -0.0140 -0.6070
  359MOL0     N48381   2.122   7.141   0.536 -0.2607  0.0507  0.0597
  359MOL0     N48382   2.233   7.134   0.600 -0.1660 -0.1873  1.0221
  359MOL0     C48383   3.200   6.780   1.237  1.7248  0.1706  0.5532
  359MOL0     C48384   3.334   6.762   1.264 -0.2172 -0.7802  0.5238
  359MOL0     C48385   3.737   6.642   1.368 -0.5477 -1.0866 -0.5014
  359MOL0     C48386   3.817   6.677   1.475 -0.8228 -0.0011  0.5587
  359MOL0     C48387   3.956   6.696   1.469  0.0946  0.4533  0.9246
  359MOL0     C48388   4.029   6.678   1.350 -0.0194 -0.1098  0.5735
  359MOL0     O48389   4.166   6.707   1.349 -0.4341 -0.1754 -0.0816
  359MOL0     C48390   4.225   6.718   1.219 -0.3918 -0.0594  0.5187
  359MOL0     C48391   4.350   6.798   1.251  0.6428 -0.0005  0.3058
  359MOL0     C48392   4.455   6.789   1.142  0.2140  0.5182  0.0808
  359MOL0     C48393   4.602   6.834   1.190  0.1224 -0.8033 -0.0676
  359MOL0     C48394   4.699   6.792   1.093 -0.6950  0.5537 -0.0383
  359MOL0     C48395   4.784   6.755   1.010 -0.3650  0.1685 -0.0884
  359MOL0     C48396   3.957   6.644   1.237  0.1531 -0.1989 -0.5154
  359MOL0     C48397   3.818   6.627   1.249 -0.4411 -0.4908  0.3024
  359MOL0     H48398   3.364   6.456   1.121 -0.7123  1.4095 -3.6647
  359MOL0     H48399   3.124   6.494   1.068  0.6586  0.4577 -0.9416
  359MOL0     H48400   2.934   6.660   0.969  0.1746  0.0607  0.2900
  359MOL0     H48401   2.897   6.527   1.087  0.9660 -1.2082 -2.6197
  359MOL0     H48402   2.704   6.616   1.001 -0.7663 -2.7679  2.4916
  359MOL0     H48403   2.700   6.640   1.172 -0.9996 -1.2803 -0.9799
  359MOL0     H48404   2.808   6.887   1.106  0.4948  0.7777 -2.4714
  359MOL0     H48405   2.733   6.854   0.956  0.7186  1.2231  0.6626
  359MOL0     H48406   2.539   6.805   1.188 -1.7596  1.2424 -1.0779
  359MOL0     H48407   2.586   6.968   1.160 -0.1034  0.7891 -0.1576
  359MOL0     H48408   2.545   6.940   0.916  0.0989 -1.1861 -2.2503
  359MOL0     H48409   2.512   6.771   0.949 -2.4614  0.6395 -0.7711
  359MOL0     H48410   2.320   6.822   1.093  0.0627 -0.1804 -0.5902
  359MOL0     H48411   2.348   6.994   1.063  0.9716 -0.7906  0.2568
  359MOL0     H48412   2.294   6.811   0.840  1.2365  0.0647 -1.0132
  359MOL0     H48413   2.168   6.903   0.932  0.0254 -1.3618 -0.4347
  359MOL0     H48414   2.400   7.004   0.748 -1.0829  0.4639 -0.7973
  359MOL0     H48415   2.333   7.120   0.863 -1.1348  1.4100 -1.7737
  359MOL0     H48416   2.031   6.975   0.799  0.4296  1.9470 -0.5723
  359MOL0     H48417   1.818   7.003   0.637  1.0644 -1.3893 -0.8568
  359MOL0     H48418   1.832   7.173   0.568  1.0513  0.9327 -1.7930
  359MOL0     H48419   1.871   6.901   0.436  1.5023  0.0462 -1.7834
  359MOL0     H48420   1.917   7.054   0.360 -0.3334 -1.9881 -2.4381
  359MOL0     H48421   1.649   6.997   0.468  3.6288  1.6854  2.4865
  359MOL0     H48422   1.682   6.946   0.305 -1.7077 -0.0337  1.9000
  359MOL0     H48423   1.719   7.241   0.380 -1.2839  1.9372 -1.2056
  359MOL0     H48424   1.564   7.181   0.329 -0.3755  2.3414 -2.9519
  359MOL0     H48425   1.511   7.344   0.191 -1.3255 -0.2507  0.0385
  359MOL0     H48426   1.192   7.345   0.018  0.0472 -0.5228  0.7433
  359MOL0     H48427   1.312   7.434   0.122  0.5858  1.2065 -0.9946
  359MOL0     H48428   1.306   7.468  -0.049 -2.0588 -0.7874 -2.5292
  359MOL0     H48429   0.949   7.051  -0.149  1.5567 -1.2032 -0.4517
  359MOL0     H48430   0.761   7.050  -0.315 -0.3225  1.6077  2.5683
  359MOL0     H48431   0.741   7.386  -0.560  0.3109  3.1015 -4.4372
  359MOL0     H48432   0.748   7.295  -0.715  0.1426  1.5998  1.0252
  359MOL0     H48433   0.510   7.285  -0.521 -0.9681  5.6293  1.0622
  359MOL0     H48434   0.516   7.364  -0.686 -0.4025 -1.1782 -0.5744
  359MOL0     H48435   0.415   7.112  -0.635 -1.2562  3.7448 -0.3287
  359MOL0     H48436   0.571   7.067  -0.645 -0.8734 -0.4162 -0.6741
  359MOL0     H48437   0.464   7.258  -0.852  1.0748  1.1394  1.9126
  359MOL0     H48438   0.598   7.142  -0.872  0.1846 -1.2585  1.8973
  359MOL0     H48439   0.306   7.058  -0.839 -1.0101  0.0985 -2.0928
  359MOL0     H48440   0.441   6.953  -0.870 -2.1001 -0.5552  1.0658
  359MOL0     H48441   0.362   7.189  -1.040 -0.4510  0.3380 -0.4452
  359MOL0     H48442   0.494   7.074  -1.076 -0.3651  0.4653 -1.6376
  359MOL0     H48443   0.189   7.034  -1.059 -0.9168 -1.0413 -1.6026
  359MOL0     H48444   0.294   6.899  -1.104  2.2354 -0.5169 -0.1617
  359MOL0     H48445   0.187   6.976  -1.305 -0.9095 -0.4815  0.9049
  359MOL0     H48446   0.352   7.021  -1.313  0.6336 -0.4200  0.0142
  359MOL0     H48447   0.967   7.350  -0.545  1.4203 -2.4683 -1.2532
  359MOL0     H48448   1.133   7.364  -0.391 -0.3745  0.7824  0.8918
  359MOL0     H48449   1.493   7.004  -0.166  0.3146 -1.0754  0.9728
  359MOL0     H48450   1.679   7.006  -0.012  0.3335 -0.0950 -0.1456
  359MOL0     H48451   3.157   6.873   1.271 -0.1869 -1.3548  2.6606
  359MOL0     H48452   3.379   6.840   1.324 -1.8061  0.5446  0.0724
  359MOL0     H48453   3.778   6.695   1.575 -0.1783 -2.9853  1.4752
  359MOL0     H48454   3.999   6.734   1.561 -0.2629  0.0363  1.2648
  359MOL0     H48455   4.258   6.629   1.166  0.0670  0.5056 -0.1604
  359MOL0     H48456   4.159   6.779   1.157 -0.4570 -0.1284  0.5202
  359MOL0     H48457   4.401   6.766   1.343  2.8310 -0.4329 -0.9801
  359MOL0     H48458   4.310   6.900   1.255 -0.1646 -0.3461  1.4932
  359MOL0     H48459   4.418   6.837   1.051  0.8958 -1.1679 -1.1469
  359MOL0     H48460   4.472   6.686   1.110 -2.5181  1.1713 -4.3736
  359MOL0     H48461   4.621   6.795   1.290 -1.4404 -0.1805  0.5124
  359MOL0     H48462   4.608   6.943   1.200  2.0726 -1.0546  2.4609
  359MOL0     H48463   4.843   6.721   0.928 -1.3690 -0.2778 -0.6374
  359MOL0     H48464   4.001   6.616   1.142 -1.4850 -5.0881 -0.1517
  359MOL0     H48465   3.788   6.605   1.147  3.4913 -1.9360 -0.7335
  360MOL0     O48466   8.071   8.237   9.347  0.6180 -0.2843  0.3012
  360MOL0     C48467   7.961   8.211   9.396 -0.9060  0.1074  0.4842
  360MOL0     O48468   7.845   8.285   9.391 -0.1897  0.1909  0.0937
  360MOL0     C48469   7.826   8.412   9.348 -0.6351  0.8775  0.3704
  360MOL0     C48470   7.688   8.428   9.319  0.0464 -0.3600 -0.2881
  360MOL0     C48471   7.650   8.564   9.320 -0.2061 -0.5798  0.7345
  360MOL0     C48472   7.742   8.669   9.332  0.1500 -0.3770  0.3162
  360MOL0     O48473   7.678   8.790   9.335  0.0072 -0.2886 -0.1255
  360MOL0     C48474   7.758   8.909   9.368  0.5407 -0.1865  0.1752
  360MOL0     C48475   7.669   9.031   9.368  0.2082 -0.0956  0.1196
  360MOL0     C48476   7.604   9.056   9.236 -0.2182 -0.3702 -0.6430
  360MOL0     C48477   7.489   9.159   9.248  0.0683  1.0523  0.7421
  360MOL0     C48478   7.434   9.194   9.113  0.4759  0.3230 -0.7196
  360MOL0     C48479   7.495   9.310   9.050 -0.1521 -0.2828 -0.2214
  360MOL0     C48480   7.486   9.454   9.118  0.0414 -0.0619  0.5240
  360MOL0     C48481   7.540   9.559   9.028  0.3704 -0.1297  0.5038
  360MOL0     N48482   7.492   9.688   9.070  0.1843  0.6737  0.6177
  360MOL0     C48483   7.409   9.762   8.985 -0.4863  0.2341  0.1216
  360MOL0     C48484   7.383   9.876   9.050 -0.3920  0.6260  0.2446
  360MOL0     C48485   7.295   9.994   9.002 -0.2944  0.0184  0.0643
  360MOL0     C48486   7.160   9.979   9.068 -0.4356 -0.3904 -0.7205
  360MOL0     C48487   7.096  10.125   9.101 -0.3518 -0.0535  0.7789
  360MOL0     C48488   6.958  10.108   9.172  0.3951 -0.4572 -0.2530
  360MOL0     O48489   6.887  10.005   9.108 -0.2678 -0.5824  0.3224
  360MOL0     C48490   6.756   9.997   9.114 -0.4258 -0.3898  0.1884
  360MOL0     C48491   6.692  10.036   9.231  0.4285  0.6959  0.0429
  360MOL0     C48492   6.550  10.049   9.234 -0.1098  0.4301  0.6110
  360MOL0     C48493   6.484  10.126   9.353 -0.5048  0.8564  0.4655
  360MOL0     C48494   6.475  10.012   9.121  0.5482 -0.9154  0.1843
  360MOL0     C48495   6.323  10.032   9.105  0.0009  0.5568  0.2241
  360MOL0     O48496   6.262  10.068   9.215 -0.2926 -0.4736 -0.0900
  360MOL0     C48497   6.120  10.060   9.227 -0.1267 -0.4756 -0.4694
  360MOL0     C48498   6.058   9.940   9.215 -0.9639  0.3242 -0.3183
  360MOL0     C48499   5.927   9.931   9.219 -0.0116  0.8154 -0.1672
  360MOL0     C48500   5.846  10.042   9.248  0.5004  0.4671 -0.1060
  360MOL0     O48501   5.709  10.035   9.251 -0.2732  0.2342 -0.1078
  360MOL0     C48502   5.655   9.912   9.302 -0.1344 -0.0650  0.8421
  360MOL0     C48503   5.495   9.928   9.322 -1.1461 -0.0730 -1.0217
  360MOL0     C48504   5.413   9.885   9.194 -0.4607 -0.9219 -0.3861
  360MOL0     C48505   5.259   9.884   9.220 -0.2645 -0.0772 -0.8562
  360MOL0     C48506   5.173   9.868   9.095  0.2759  0.2856  0.3123
  360MOL0     C48507   5.140   9.729   9.043  0.1451 -0.0798 -0.5884
  360MOL0     C48508   5.064   9.656   9.149  0.2040  0.0177 -0.0829
  360MOL0     C48509   5.004   9.515   9.109  0.0027 -0.2954 -1.0093
  360MOL0    Cl48510   4.896   9.545   8.970  0.1696 -0.2130  0.2902
  360MOL0     C48511   5.911  10.171   9.261  0.2737  0.1076 -0.2271
  360MOL0     C48512   6.053  10.177   9.253  0.2665 -0.4198  0.1534
  360MOL0     O48513   6.272  10.023   8.995  0.8009 -0.7606  0.3614
  360MOL0     C48514   6.549   9.954   9.013  0.0916 -0.5989  0.0153
  360MOL0     C48515   6.684   9.950   9.003 -0.2658  0.2126  0.2884
  360MOL0     N48516   7.452   9.879   9.179 -1.0128  0.6665 -0.0477
  360MOL0     N48517   7.529   9.771   9.175  0.1899  0.0845  0.0057
  360MOL0     C48518   7.878   8.645   9.366 -1.1668 -0.6270  0.4287
  360MOL0     C48519   7.917   8.510   9.380  0.0435 -0.0633  0.0920
  360MOL0     C48520   7.969   8.091   9.483  0.3136 -1.1844 -0.2764
  360MOL0     C48521   8.062   7.983   9.466  0.5322  0.3431 -0.6509
  360MOL0     C48522   8.063   7.871   9.556  0.3881 -0.2390 -0.4179
  360MOL0     C48523   7.988   7.879   9.675 -0.3573  0.0963 -0.5342
  360MOL0     O48524   8.003   7.774   9.761  0.3913 -0.4483  0.5643
  360MOL0     C48525   7.888   7.688   9.778 -0.2560 -0.0624 -0.4640
  360MOL0     C48526   7.884   7.570   9.685 -0.0484 -0.4673 -0.3689
  360MOL0     C48527   7.833   7.613   9.546  0.7221 -0.3010 -0.2482
  360MOL0     C48528   7.793   7.498   9.455  0.3172  0.3684  0.1347
  360MOL0     C48529   7.687   7.410   9.515 -0.4797  0.1201  0.7938
  360MOL0     C48530   7.602   7.334   9.557 -0.2240 -0.3669 -0.7928
  360MOL0     C48531   7.888   7.976   9.688 -0.8796 -0.2882 -0.2383
  360MOL0     C48532   7.878   8.082   9.587 -0.1512  0.8953 -0.2073
  360MOL0     H48533   7.614   8.348   9.326 -0.4140 -0.0300 -1.2424
  360MOL0     H48534   7.553   8.603   9.291  0.9031  2.2342  0.5343
  360MOL0     H48535   7.805   8.883   9.463  2.3699 -1.9480 -1.1340
  360MOL0     H48536   7.836   8.908   9.292  0.5138 -0.3347  0.1484
  360MOL0     H48537   7.587   9.017   9.439 -0.6441 -1.2539 -1.0443
  360MOL0     H48538   7.727   9.120   9.395 -3.4656  1.8980  2.3314
  360MOL0     H48539   7.681   9.100   9.172  1.7031  0.0745  1.8178
  360MOL0     H48540   7.571   8.960   9.196 -0.5688 -1.4114  1.9603
  360MOL0     H48541   7.410   9.109   9.305  1.3489  1.4327  3.0007
  360MOL0     H48542   7.524   9.241   9.312 -1.8777  0.9897  1.9820
  360MOL0     H48543   7.424   9.113   9.041 -3.4100  0.7657 -0.9140
  360MOL0     H48544   7.327   9.208   9.136 -0.6562 -1.3100 -4.2335
  360MOL0     H48545   7.603   9.299   9.042 -0.2712 -0.1508 -3.0806
  360MOL0     H48546   7.449   9.322   8.951  1.1327  0.2093 -0.7748
  360MOL0     H48547   7.380   9.464   9.141 -0.3444 -0.3730 -1.0112
  360MOL0     H48548   7.545   9.462   9.210 -0.5001  0.3400  0.8375
  360MOL0     H48549   7.532   9.529   8.923 -0.9194  0.6707  0.3432
  360MOL0     H48550   7.647   9.564   9.047  0.6421  3.0179 -1.1527
  360MOL0     H48551   7.362   9.722   8.896  1.4804  1.0177 -1.3335
  360MOL0     H48552   7.334  10.089   9.041  2.9300 -1.8722  1.9109
  360MOL0     H48553   7.286   9.993   8.893  1.4262 -0.4699 -0.1101
  360MOL0     H48554   7.178   9.932   9.165 -1.9217  0.9493  0.2631
  360MOL0     H48555   7.093   9.915   9.008 -0.6805  2.2573 -3.5405
  360MOL0     H48556   7.076  10.175   9.006  1.2213 -0.9124 -0.0411
  360MOL0     H48557   7.157  10.184   9.169  0.2262 -0.4953  0.6524
  360MOL0     H48558   6.905  10.204   9.168 -0.8617 -1.1562 -1.3854
  360MOL0     H48559   6.976  10.076   9.276  0.0254 -0.5567 -0.2157
  360MOL0     H48560   6.738  10.064   9.325 -2.2075  3.0831  0.7695
  360MOL0     H48561   6.412  10.068   9.413 -1.8991  1.6847 -0.3372
  360MOL0     H48562   6.562  10.146   9.427  0.9154 -3.2195  0.3059
  360MOL0     H48563   6.423  10.208   9.315 -1.3823  0.5275  1.1185
  360MOL0     H48564   6.118   9.852   9.192  0.5193  1.1753  0.1781
  360MOL0     H48565   5.886   9.834   9.194 -0.1197  0.9176 -0.3922
  360MOL0     H48566   5.684   9.822   9.248 -1.4701 -0.5088  0.8239
  360MOL0     H48567   5.700   9.897   9.401 -0.6205 -1.0596  0.9172
  360MOL0     H48568   5.466   9.865   9.406 -0.0784  1.0995  0.2751
  360MOL0     H48569   5.476  10.034   9.341 -1.8690 -0.1452 -1.3303
  360MOL0     H48570   5.449   9.786   9.163  0.3083 -1.5382  2.2209
  360MOL0     H48571   5.429   9.945   9.104 -0.7784  1.5128  1.1073
  360MOL0     H48572   5.233   9.809   9.297 -4.5851 -0.1252 -2.1080
  360MOL0     H48573   5.234   9.984   9.256  0.6469  1.1355 -3.4264
  360MOL0     H48574   5.228   9.925   9.020  0.5562 -0.4660 -0.0626
  360MOL0     H48575   5.077   9.919   9.102  0.0362 -0.1138  0.0392
  360MOL0     H48576   5.080   9.728   8.952 -1.6680  0.3995  0.5650
  360MOL0     H48577   5.238   9.687   9.018  0.8032  1.2173 -0.2620
  360MOL0     H48578   4.983   9.724   9.175 -1.0220 -0.7837 -1.6637
  360MOL0     H48579   5.134   9.643   9.232  2.8852 -2.0536 -2.4640
  360MOL0     H48580   4.943   9.475   9.191 -1.6443 -0.4147 -2.2339
  360MOL0     H48581   5.080   9.441   9.083  1.2436  0.8622 -0.8221
  360MOL0     H48582   5.861  10.264   9.284 -0.8845 -1.1121  2.6199
  360MOL0     H48583   6.102  10.274   9.263 -0.3334  0.1957 -2.0808
  360MOL0     H48584   6.497   9.910   8.928  1.0595 -1.8346  0.0345
  360MOL0     H48585   6.729   9.905   8.915  1.1454  1.4663  0.3444
  360MOL0     H48586   7.945   8.730   9.374 -1.1277 -0.6189  0.0397
  360MOL0     H48587   8.015   8.480   9.417 -0.1766  0.0150  0.7382
  360MOL0     H48588   8.140   7.973   9.391  0.1075  0.7927 -1.1660
  360MOL0     H48589   8.144   7.800   9.544  2.2735  1.9558 -1.3841
  360MOL0     H48590   7.888   7.655   9.882  1.7609  0.0945 -0.3716
  360MOL0     H48591   7.789   7.733   9.766 -0.8487 -0.3712  2.5523
  360MOL0     H48592   7.829   7.491   9.737  0.8175 -0.8984 -0.0839
  360MOL0     H48593   7.981   7.520   9.669  0.1124 -0.0942 -0.5784
  360MOL0     H48594   7.917   7.658   9.491 -0.6811 -0.1255 -2.3769
  360MOL0     H48595   7.755   7.686   9.565 -0.2117 -1.1263 -0.8050
  360MOL0     H48596   7.879   7.437   9.427  0.3829  1.3656 -2.0690
  360MOL0     H48597   7.765   7.550   9.363  2.5675 -1.0118 -1.4377
  360MOL0     H48598   7.522   7.285   9.609  0.7989 -0.0092  1.2182
  360MOL0     H48599   7.823   7.969   9.774  1.1492 -0.9328  1.3054
  360MOL0     H48600   7.803   8.159   9.601 -1.4627 -0.6064  1.7435
  361MOL0     O48601   8.816   1.771   2.422 -0.0307 -0.1241  0.6143
  361MOL0     C48602   8.745   1.675   2.415 -0.3938  0.0107 -0.5721
  361MOL0     O48603   8.776   1.553   2.349  1.2811  0.3116  0.7296
  361MOL0     C48604   8.893   1.549   2.274  0.9951 -1.1281  0.3207
  361MOL0     C48605   8.895   1.633   2.153 -0.2191 -0.0883 -0.0345
  361MOL0     C48606   9.015   1.643   2.083 -0.8063  0.3186  0.2055
  361MOL0     C48607   9.123   1.575   2.126  0.4484  0.2886 -0.5345
  361MOL0     O48608   9.233   1.599   2.050 -0.4134 -0.3408  0.1756
  361MOL0     C48609   9.363   1.605   2.102 -0.4392 -0.8974 -0.6444
  361MOL0     C48610   9.380   1.739   2.182 -0.2665 -0.5185 -0.2219
  361MOL0     C48611   9.525   1.759   2.227  0.0046 -0.1221  1.8088
  361MOL0     C48612   9.567   1.651   2.329 -0.3897 -0.4611 -0.1869
  361MOL0     C48613   9.642   1.534   2.268 -0.3860 -0.2397  0.4715
  361MOL0     C48614   9.715   1.440   2.371  0.1615 -0.1794 -0.4853
  361MOL0     C48615   9.785   1.320   2.295  0.6127 -0.6226  0.2839
  361MOL0     C48616   9.853   1.203   2.377  1.1019  0.6236  0.7955
  361MOL0     N48617   9.815   1.069   2.321 -0.0754  0.0238  0.4277
  361MOL0     C48618   9.881   1.009   2.210  0.4239  0.2733 -0.1869
  361MOL0     C48619   9.820   0.895   2.189 -0.3869 -0.3398  1.0478
  361MOL0     C48620   9.876   0.793   2.090  0.5068  0.4161 -0.0201
  361MOL0     C48621   9.870   0.646   2.146 -0.0151  0.5563 -0.1221
  361MOL0     C48622   9.739   0.582   2.119 -0.0488  0.0458  0.2801
  361MOL0     C48623   9.715   0.455   2.213  0.5764 -0.2024 -0.2227
  361MOL0     O48624   9.577   0.417   2.214 -0.0219  0.4225  0.4684
  361MOL0     C48625   9.486   0.501   2.285 -0.4478 -0.4399  0.3464
  361MOL0     C48626   9.360   0.449   2.292 -0.4404  0.8185  0.4994
  361MOL0     C48627   9.269   0.498   2.381 -0.1204  0.6174  0.0605
  361MOL0     C48628   9.135   0.442   2.390  0.2563  0.0062  0.4666
  361MOL0     C48629   9.296   0.621   2.456  0.3404 -0.8651  0.7591
  361MOL0     C48630   9.201   0.692   2.544 -0.5918  0.1152 -0.2913
  361MOL0     O48631   9.251   0.753   2.658 -0.2061  0.2129 -0.3034
  361MOL0     C48632   9.197   0.718   2.776 -0.4751 -0.9465 -0.1004
  361MOL0     C48633   9.228   0.796   2.895 -0.0825  1.0258  0.7745
  361MOL0     C48634   9.167   0.770   3.018  0.4871 -1.4685 -0.1883
  361MOL0     C48635   9.069   0.666   3.027 -0.0158 -0.2876 -0.2481
  361MOL0     O48636   9.006   0.632   3.142  0.0938  0.2002 -0.1092
  361MOL0     C48637   9.088   0.567   3.240  0.5300 -0.3967 -0.1746
  361MOL0     C48638   9.110   0.419   3.194 -0.3653 -0.5349  0.0686
  361MOL0     C48639   9.213   0.332   3.270 -0.1522  0.1725  0.6250
  361MOL0     C48640   9.351   0.390   3.284 -0.2372  0.3376 -0.1353
  361MOL0     C48641   9.417   0.442   3.147 -0.6071  0.6137  0.2378
  361MOL0     C48642   9.523   0.549   3.182  0.5614  0.0686 -0.6939
  361MOL0     C48643   9.597   0.588   3.048 -0.7006 -0.6122  0.5212
  361MOL0     C48644   9.712   0.685   3.081 -0.3006  0.5556  0.0971
  361MOL0    Cl48645   9.782   0.747   2.920  0.7561 -0.1266 -0.2786
  361MOL0     C48646   9.027   0.600   2.913 -0.0186 -0.0613 -0.1934
  361MOL0     C48647   9.087   0.621   2.791  0.0155 -1.5699  0.1080
  361MOL0     O48648   9.084   0.691   2.513 -0.7893 -0.5859  0.1700
  361MOL0     C48649   9.428   0.677   2.447  0.4485  0.0312 -0.5608
  361MOL0     C48650   9.514   0.622   2.355 -0.1518  0.4802 -0.0375
  361MOL0     N48651   9.715   0.895   2.276  0.7157 -0.1357 -0.1775
  361MOL0     N48652   9.715   0.989   2.362 -0.2982 -1.2379  1.1376
  361MOL0     C48653   9.119   1.485   2.229 -0.7848 -0.3516  0.1341
  361MOL0     C48654   9.003   1.469   2.303 -0.6285  0.7081  0.4154
  361MOL0     C48655   8.622   1.682   2.481  0.5126 -0.7948 -0.7933
  361MOL0     C48656   8.579   1.803   2.538 -0.3154 -0.5663 -0.0720
  361MOL0     C48657   8.463   1.819   2.603  1.0970  0.5230  0.2739
  361MOL0     C48658   8.368   1.702   2.608  0.0289 -0.1458  0.0363
  361MOL0     O48659   8.259   1.714   2.691  0.1296  0.8074 -0.1883
  361MOL0     C48660   8.160   1.605   2.696  0.4780 -0.3369 -0.0823
  361MOL0     C48661   8.052   1.617   2.589  0.0312  0.8850 -0.3861
  361MOL0     C48662   8.030   1.758   2.524  0.2217  0.1529  0.2683
  361MOL0     C48663   7.904   1.765   2.430  0.7406 -0.3270  0.0314
  361MOL0     C48664   7.890   1.658   2.330 -1.1142  0.0339  0.0073
  361MOL0     C48665   7.881   1.578   2.242  0.2664  0.1793 -0.5665
  361MOL0     C48666   8.405   1.587   2.536 -0.0435 -0.0609  0.3364
  361MOL0     C48667   8.532   1.579   2.477  0.5454  0.4579 -0.0606
  361MOL0     H48668   8.806   1.690   2.129 -0.7903 -0.4619  1.0972
  361MOL0     H48669   9.021   1.718   2.005 -1.6408  1.7419  1.4486
  361MOL0     H48670   9.383   1.512   2.156 -0.0152 -1.2625 -1.4142
  361MOL0     H48671   9.432   1.608   2.017 -0.3812 -1.3055 -0.6130
  361MOL0     H48672   9.345   1.817   2.114 -2.8337 -0.8119  0.6462
  361MOL0     H48673   9.319   1.734   2.272 -2.5228 -1.6688 -1.7089
  361MOL0     H48674   9.603   1.771   2.152  0.4328  0.9411  2.3981
  361MOL0     H48675   9.523   1.846   2.293  0.3690 -1.5823  3.8509
  361MOL0     H48676   9.633   1.695   2.404  0.4232 -0.9129 -0.6259
  361MOL0     H48677   9.480   1.621   2.388 -0.6773  0.9898  0.1632
  361MOL0     H48678   9.574   1.468   2.214  0.8813 -0.4743 -0.9192
  361MOL0     H48679   9.720   1.569   2.200 -0.4235 -1.0315  0.0195
  361MOL0     H48680   9.786   1.500   2.429  0.0098  1.0181 -1.5078
  361MOL0     H48681   9.643   1.398   2.443 -1.2114 -3.5045 -3.5208
  361MOL0     H48682   9.705   1.281   2.232 -1.2988  0.9348  1.6511
  361MOL0     H48683   9.858   1.362   2.225  0.1689  0.0982  0.2542
  361MOL0     H48684   9.817   1.205   2.480  0.1817 -2.2942  0.6134
  361MOL0     H48685   9.959   1.228   2.378  1.1885  0.6000 -1.5764
  361MOL0     H48686   9.977   1.046   2.174 -0.0315  1.5332 -0.1632
  361MOL0     H48687   9.827   0.801   1.992  1.7569  0.3884 -0.6712
  361MOL0     H48688   9.982   0.807   2.066  1.1820 -0.6821  2.0663
  361MOL0     H48689   9.877   0.651   2.255 -0.4448  0.2665 -0.0789
  361MOL0     H48690   9.948   0.584   2.102 -1.4403  0.6010 -2.9413
  361MOL0     H48691   9.740   0.551   2.014  1.1755 -0.9049  0.5456
  361MOL0     H48692   9.658   0.654   2.132 -0.8088 -0.1303 -2.6700
  361MOL0     H48693   9.734   0.482   2.317  1.0517 -1.2596 -0.0222
  361MOL0     H48694   9.767   0.363   2.187  0.1660 -0.1269 -1.3509
  361MOL0     H48695   9.342   0.355   2.242 -0.3815  2.1418 -2.1636
  361MOL0     H48696   9.060   0.505   2.342 -1.8144 -1.5578  1.4441
  361MOL0     H48697   9.132   0.344   2.342 -3.8456  0.0249  0.3809
  361MOL0     H48698   9.094   0.436   2.491 -1.6818  0.7702 -0.2309
  361MOL0     H48699   9.302   0.875   2.892 -0.7199  1.6140 -0.2007
  361MOL0     H48700   9.176   0.835   3.104 -4.1438  0.8773 -1.1242
  361MOL0     H48701   9.190   0.604   3.254  1.9336 -3.4686 -1.4342
  361MOL0     H48702   9.029   0.574   3.331 -0.5130 -3.5886 -0.4751
  361MOL0     H48703   9.014   0.371   3.178 -0.1003  0.2213 -6.1375
  361MOL0     H48704   9.131   0.426   3.087 -1.1541 -1.3407 -0.1511
  361MOL0     H48705   9.230   0.246   3.206 -0.9172  1.7656 -1.8448
  361MOL0     H48706   9.163   0.289   3.357  1.1618  0.6186  1.6452
  361MOL0     H48707   9.356   0.475   3.353 -2.7097  3.0268 -2.9443
  361MOL0     H48708   9.409   0.308   3.325  0.2592  1.9462  2.6454
  361MOL0     H48709   9.339   0.495   3.091 -0.9097  0.2576  0.3165
  361MOL0     H48710   9.457   0.351   3.101  0.1205  0.4835  1.0937
  361MOL0     H48711   9.475   0.635   3.229  2.0568  0.8875 -0.5960
  361MOL0     H48712   9.599   0.505   3.248  0.4360  1.0589  0.1321
  361MOL0     H48713   9.532   0.635   2.973 -1.0412  2.2364  2.4372
  361MOL0     H48714   9.633   0.500   2.994 -0.5304  0.1427 -0.6366
  361MOL0     H48715   9.788   0.634   3.142  0.4713  0.3965 -0.9752
  361MOL0     H48716   9.677   0.772   3.137 -1.9428  0.4332 -0.6782
  361MOL0     H48717   8.943   0.533   2.923  0.1366 -0.0788  1.1220
  361MOL0     H48718   9.061   0.562   2.704 -2.2760  0.6213 -0.7846
  361MOL0     H48719   9.454   0.774   2.487 -1.7470  0.2283  0.5838
  361MOL0     H48720   9.611   0.671   2.351  0.8031 -1.2492  0.9914
  361MOL0     H48721   9.212   1.430   2.246 -0.0195  0.9877  0.4324
  361MOL0     H48722   8.992   1.402   2.388  1.6438  0.4237  0.5355
  361MOL0     H48723   8.655   1.880   2.548 -0.2626 -0.1892 -2.7100
  361MOL0     H48724   8.437   1.911   2.653 -0.1359  0.7323 -0.6916
  361MOL0     H48725   8.206   1.506   2.688  1.8620  0.3922 -1.6481
  361MOL0     H48726   8.113   1.608   2.795 -2.5611 -1.1130 -1.3981
  361MOL0     H48727   7.962   1.586   2.643  0.1464  0.5790 -0.3683
  361MOL0     H48728   8.080   1.538   2.519  0.8940 -1.2661  2.1949
  361MOL0     H48729   8.123   1.782   2.472  0.4629  0.7216  0.9443
  361MOL0     H48730   8.015   1.834   2.602 -0.6584  0.5145 -0.2308
  361MOL0     H48731   7.897   1.866   2.389 -2.0628 -1.1211 -1.6238
  361MOL0     H48732   7.818   1.756   2.497  2.2498 -0.0378  2.1490
  361MOL0     H48733   7.872   1.504   2.166 -2.5010 -0.1031 -0.0633
  361MOL0     H48734   8.333   1.508   2.518 -0.6367  0.9691 -2.3597
  361MOL0     H48735   8.561   1.483   2.435 -2.4254 -2.2623  3.3480
  362MOL0     O48736   6.703   2.621   3.376 -1.0587  0.7900  0.6187
  362MOL0     C48737   6.760   2.515   3.402  0.1967  0.7239  0.1237
  362MOL0     O48738   6.701   2.396   3.430  0.3246  0.6651  0.1896
  362MOL0     C48739   6.565   2.384   3.407 -0.0007  0.1151 -0.4567
  362MOL0     C48740   6.522   2.271   3.340  0.2403 -0.2871 -0.0484
  362MOL0     C48741   6.388   2.247   3.315  0.3967 -0.4602 -0.3690
  362MOL0     C48742   6.292   2.329   3.367  0.0054 -0.0159 -0.2550
  362MOL0     O48743   6.165   2.292   3.357 -0.6185 -0.4923  0.5451
  362MOL0     C48744   6.058   2.387   3.370 -0.9491  0.3683 -0.5970
  362MOL0     C48745   5.925   2.310   3.358  0.2997 -0.3504 -0.3960
  362MOL0     C48746   5.925   2.215   3.233 -0.1900 -0.3976 -0.5660
  362MOL0     C48747   5.790   2.162   3.208  0.0814 -0.6480  0.4241
  362MOL0     C48748   5.797   2.069   3.081  0.2159 -0.8475 -0.6859
  362MOL0     C48749   5.672   2.081   3.006  0.4832 -0.5614  0.4557
  362MOL0     C48750   5.549   2.022   3.076 -0.1053  0.1925 -0.4383
  362MOL0     C48751   5.431   2.021   2.982  0.0556 -0.6781 -0.3168
  362MOL0     N48752   5.301   1.961   3.027  0.1665 -0.3136  0.0565
  362MOL0     C48753   5.268   1.833   2.993 -0.3558 -0.7213  0.2582
  362MOL0     C48754   5.142   1.827   3.011 -0.0122  0.3820  0.8022
  362MOL0     C48755   5.055   1.701   2.985 -0.6963 -0.2372 -0.2190
  362MOL0     C48756   4.916   1.715   3.051 -0.0265 -0.1187 -0.1301
  362MOL0     C48757   4.817   1.639   2.968 -0.3574  1.1368  0.3086
  362MOL0     C48758   4.674   1.666   3.016 -0.1601 -0.3624  0.5310
  362MOL0     O48759   4.598   1.726   2.902 -0.4123  0.0909  0.0130
  362MOL0     C48760   4.488   1.657   2.868  0.6829  0.9203  0.3418
  362MOL0     C48761   4.456   1.519   2.882 -0.2489 -0.4015 -0.0107
  362MOL0     C48762   4.340   1.458   2.828 -0.1563  0.9032  0.1130
  362MOL0     C48763   4.316   1.307   2.834  0.0983 -0.2864 -0.2589
  362MOL0     C48764   4.234   1.551   2.784 -0.8436  1.0098  1.3741
  362MOL0     C48765   4.108   1.502   2.724 -0.0460  0.6686 -0.4803
  362MOL0     O48766   4.003   1.585   2.725 -0.0262 -0.4682  0.3459
  362MOL0     C48767   3.892   1.549   2.658  0.2110  0.8711  0.0468
  362MOL0     C48768   3.858   1.605   2.541 -0.2130  0.0828  0.4273
  362MOL0     C48769   3.742   1.589   2.463  0.2785 -0.3828 -0.9827
  362MOL0     C48770   3.640   1.516   2.521 -1.2989 -0.5145 -1.0652
  362MOL0     O48771   3.521   1.511   2.453 -0.5485 -0.1065 -0.5558
  362MOL0     C48772   3.424   1.420   2.498  0.7009  0.6895 -0.1621
  362MOL0     C48773   3.285   1.470   2.439  0.0827  0.3685  0.3152
  362MOL0     C48774   3.177   1.358   2.451 -0.0921 -0.3215 -0.3690
  362MOL0     C48775   3.032   1.412   2.428  0.5138  0.0565  0.2904
  362MOL0     C48776   2.933   1.311   2.354 -0.0262  0.5708 -0.5167
  362MOL0     C48777   2.794   1.369   2.345 -0.2942 -0.5010  0.5908
  362MOL0     C48778   2.676   1.281   2.281  0.0684  0.3520 -0.7954
  362MOL0     C48779   2.542   1.271   2.375  0.2874  0.1471 -0.4591
  362MOL0    Cl48780   2.404   1.225   2.273 -0.5983 -0.2414  0.3043
  362MOL0     C48781   3.659   1.456   2.650 -0.0141 -0.0151  0.6365
  362MOL0     C48782   3.782   1.467   2.720 -0.9430 -1.1143  0.9677
  362MOL0     O48783   4.099   1.382   2.684 -0.0143 -0.1687  0.1566
  362MOL0     C48784   4.266   1.687   2.778  0.9687  0.4985  0.6360
  362MOL0     C48785   4.383   1.740   2.819 -0.4089  0.6470 -0.5485
  362MOL0     N48786   5.100   1.952   3.058  0.6247 -0.5830 -0.8059
  362MOL0     N48787   5.192   2.031   3.075 -0.0327 -0.4220  0.2369
  362MOL0     C48788   6.326   2.440   3.450  0.5708 -0.5266  0.7265
  362MOL0     C48789   6.465   2.463   3.469 -0.5248 -0.5891 -1.2356
  362MOL0     C48790   6.913   2.509   3.383  0.9595 -0.0841  0.4157
  362MOL0     C48791   6.990   2.398   3.421 -0.3270  0.3028  0.1737
  362MOL0     C48792   7.126   2.394   3.412 -0.2257  0.8427 -0.0249
  362MOL0     C48793   7.203   2.503   3.370  0.3581  0.4483 -0.2707
  362MOL0     O48794   7.347   2.491   3.369  0.1591  0.4444 -0.1176
  362MOL0     C48795   7.435   2.599   3.333 -0.1306 -0.7442  0.3210
  362MOL0     C48796   7.470   2.683   3.451  0.3123  0.9023 -0.5893
  362MOL0     C48797   7.553   2.606   3.546 -0.1367  0.5606 -0.5635
  362MOL0     C48798   7.544   2.653   3.692  0.3417  0.1512  0.9333
  362MOL0     C48799   7.618   2.563   3.783  0.7215 -0.3958  1.3615
  362MOL0     C48800   7.674   2.491   3.861 -0.3400  0.3191 -0.3604
  362MOL0     C48801   7.128   2.617   3.343 -0.1887 -0.5563  0.0608
  362MOL0     C48802   6.987   2.625   3.356 -0.4357  0.0750  0.4156
  362MOL0     H48803   6.597   2.200   3.307  0.9366 -1.6916  3.9289
  362MOL0     H48804   6.351   2.169   3.249 -0.2844  0.0607 -0.6087
  362MOL0     H48805   6.069   2.425   3.472  3.6319  0.3774 -0.8660
  362MOL0     H48806   6.064   2.469   3.298  0.9930  1.1204  0.3395
  362MOL0     H48807   5.899   2.259   3.451 -1.9371  1.7994  0.2533
  362MOL0     H48808   5.849   2.386   3.340 -0.3376 -1.3293 -2.1373
  362MOL0     H48809   5.958   2.273   3.147  0.4267  2.5692  1.5193
  362MOL0     H48810   5.992   2.132   3.253  1.9666  1.7340  1.8327
  362MOL0     H48811   5.769   2.091   3.288  3.9011 -1.9308  0.5171
  362MOL0     H48812   5.716   2.242   3.207  1.4639  0.7720  3.2858
  362MOL0     H48813   5.872   2.112   3.014 -0.7634  3.1602  0.4922
  362MOL0     H48814   5.815   1.966   3.110 -0.4357 -0.4271  1.3906
  362MOL0     H48815   5.649   2.186   2.985  1.5799 -0.4139 -0.0676
  362MOL0     H48816   5.702   2.045   2.907 -0.5924 -1.4111  0.4192
  362MOL0     H48817   5.562   1.921   3.117 -1.4133  0.8084  1.6555
  362MOL0     H48818   5.534   2.094   3.157  0.9775  1.9088 -1.7170
  362MOL0     H48819   5.472   1.965   2.898  0.8105  0.0629 -0.4546
  362MOL0     H48820   5.419   2.128   2.961  0.9876 -0.6476 -0.7189
  362MOL0     H48821   5.334   1.753   2.961  0.7972 -2.1845  5.3982
  362MOL0     H48822   5.042   1.701   2.877 -1.4610 -0.7377 -0.1322
  362MOL0     H48823   5.116   1.616   3.018 -0.0309  0.5535  0.6340
  362MOL0     H48824   4.881   1.818   3.064 -1.9663 -0.7022 -0.3780
  362MOL0     H48825   4.927   1.668   3.149  3.0956 -1.8993 -1.1910
  362MOL0     H48826   4.842   1.533   2.974  0.9997  1.4213 -0.0931
  362MOL0     H48827   4.838   1.668   2.865  0.0779 -0.6738 -0.1523
  362MOL0     H48828   4.676   1.724   3.109 -1.3732  1.4357 -0.5120
  362MOL0     H48829   4.631   1.570   3.045 -4.1301  0.6799 -1.2276
  362MOL0     H48830   4.519   1.446   2.933 -2.0497 -2.5364 -0.6784
  362MOL0     H48831   4.215   1.290   2.873  0.0660 -0.4550 -0.4147
  362MOL0     H48832   4.338   1.259   2.738  0.8499  0.1524 -0.3191
  362MOL0     H48833   4.393   1.272   2.905  1.1428 -0.3631 -1.4048
  362MOL0     H48834   3.933   1.666   2.492 -1.3849  0.2402 -1.2397
  362MOL0     H48835   3.718   1.637   2.368 -0.5464 -0.9267 -1.0667
  362MOL0     H48836   3.451   1.323   2.456  1.2825  0.7616  0.0318
  362MOL0     H48837   3.416   1.415   2.607 -0.1504  1.2907 -0.1879
  362MOL0     H48838   3.254   1.562   2.490  2.2581  3.3203 -3.2123
  362MOL0     H48839   3.310   1.502   2.338 -2.9059  2.0534 -0.0016
  362MOL0     H48840   3.174   1.327   2.556 -1.8470  2.0639  0.3607
  362MOL0     H48841   3.197   1.270   2.388  0.8058 -2.3319  2.5466
  362MOL0     H48842   2.997   1.422   2.531  2.1834  3.1389  0.6687
  362MOL0     H48843   3.030   1.507   2.374  1.5218  1.0203  1.8906
  362MOL0     H48844   2.937   1.207   2.388 -1.6073  0.1223 -1.5869
  362MOL0     H48845   2.974   1.292   2.254  3.1046 -2.7067  1.1797
  362MOL0     H48846   2.765   1.397   2.447  1.1015  1.4230  0.5187
  362MOL0     H48847   2.797   1.450   2.272  0.6836 -0.6555  0.4413
  362MOL0     H48848   2.726   1.184   2.273  1.3752  1.1716 -4.7313
  362MOL0     H48849   2.645   1.328   2.187  0.4461  1.5036 -0.3578
  362MOL0     H48850   2.532   1.372   2.416  3.2444  0.3301  0.0871
  362MOL0     H48851   2.550   1.198   2.456  0.7222 -2.1908 -2.4844
  362MOL0     H48852   3.591   1.384   2.694 -1.1963  1.4055  1.2302
  362MOL0     H48853   3.795   1.420   2.817 -1.1278 -0.4409  1.3212
  362MOL0     H48854   4.192   1.762   2.753  0.4067 -0.4705 -0.6792
  362MOL0     H48855   4.406   1.846   2.822  0.8082  0.5482 -3.4431
  362MOL0     H48856   6.253   2.508   3.492 -0.2674 -0.0212 -1.4227
  362MOL0     H48857   6.492   2.548   3.530 -1.2294 -0.8577 -0.5316
  362MOL0     H48858   6.943   2.309   3.461  1.4820  0.7046  3.5333
  362MOL0     H48859   7.186   2.309   3.445 -0.1402  1.7169  2.3138
  362MOL0     H48860   7.524   2.561   3.282 -0.7335 -2.0881  0.2112
  362MOL0     H48861   7.386   2.667   3.262  0.4808 -0.4487  0.1777
  362MOL0     H48862   7.375   2.714   3.496  0.1798  1.1720 -1.0401
  362MOL0     H48863   7.520   2.780   3.440 -1.5627  2.4468  2.8113
  362MOL0     H48864   7.651   2.627   3.501 -1.3452  1.6350 -2.8341
  362MOL0     H48865   7.530   2.499   3.539 -1.3072  0.7496  0.2563
  362MOL0     H48866   7.438   2.663   3.715  0.8452  3.2287  2.2724
  362MOL0     H48867   7.591   2.749   3.714 -0.6963  0.5691  1.4020
  362MOL0     H48868   7.714   2.423   3.933 -1.5675 -2.5994 -2.2411
  362MOL0     H48869   7.192   2.703   3.325 -2.4201  1.3657  0.9367
  362MOL0     H48870   6.942   2.722   3.333  0.8911  0.2739 -1.5388
  363MOL0     O48871   7.153  10.819   5.092  0.3089 -0.3453  0.2149
  363MOL0     C48872   7.208  10.770   5.192  0.0831  0.5852  0.1168
  363MOL0     O48873   7.141  10.706   5.293 -0.3121 -0.3416  0.1921
  363MOL0     C48874   7.007  10.706   5.286 -1.2306 -0.1638 -0.5982
  363MOL0     C48875   6.932  10.818   5.246 -0.0661 -0.1941  0.1040
  363MOL0     C48876   6.800  10.822   5.225 -0.1649 -0.2969  0.0994
  363MOL0     C48877   6.727  10.700   5.240  0.7137  0.5714 -0.1251
  363MOL0     O48878   6.591  10.681   5.236  0.6880  0.4719  0.1842
  363MOL0     C48879   6.501  10.795   5.252 -0.1933 -0.3901  0.2703
  363MOL0     C48880   6.360  10.752   5.287  1.4275 -0.1134  0.2387
  363MOL0     C48881   6.257  10.859   5.329  0.7943 -0.5125  0.1587
  363MOL0     C48882   6.172  10.823   5.454  0.1623 -0.6358 -0.8243
  363MOL0     C48883   6.055  10.727   5.431  0.0968 -0.4636 -0.0146
  363MOL0     C48884   6.083  10.591   5.365  0.1332 -0.4374 -0.1216
  363MOL0     C48885   5.990  10.482   5.393 -0.2633 -0.8708  0.8932
  363MOL0     C48886   5.853  10.506   5.346 -0.2548  0.3264  0.3508
  363MOL0     N48887   5.769  10.395   5.387  0.0704  0.2151 -0.2110
  363MOL0     C48888   5.742  10.283   5.316 -1.2810 -0.1139  0.1214
  363MOL0     C48889   5.630  10.241   5.369  0.5064  0.5806 -1.0905
  363MOL0     C48890   5.544  10.125   5.316  0.4063  0.4823 -0.2381
  363MOL0     C48891   5.433  10.179   5.221 -0.0149 -0.3785 -0.3586
  363MOL0     C48892   5.340  10.081   5.142  1.2468 -0.2157 -0.6926
  363MOL0     C48893   5.424   9.981   5.066 -0.1706 -0.4561 -0.7390
  363MOL0     O48894   5.512  10.036   4.967  0.2799 -0.4795 -0.0964
  363MOL0     C48895   5.471  10.046   4.836 -0.1175 -0.6714  0.3644
  363MOL0     C48896   5.356   9.999   4.775  0.2142  0.3349  0.8637
  363MOL0     C48897   5.336   9.993   4.636 -0.0050  0.0212 -0.2088
  363MOL0     C48898   5.219   9.920   4.579 -0.7530  0.1123  0.3599
  363MOL0     C48899   5.434  10.060   4.553 -0.4537  0.3661 -0.3600
  363MOL0     C48900   5.448  10.036   4.410  0.2481 -0.0264 -0.0551
  363MOL0     O48901   5.579  10.049   4.366  0.4323  0.6833  0.7116
  363MOL0     C48902   5.630  10.002   4.238  0.1755 -0.2011 -0.2093
  363MOL0     C48903   5.707  10.091   4.174  0.1987  0.2339 -0.3256
  363MOL0     C48904   5.767  10.062   4.048 -0.2402 -0.7209  0.6696
  363MOL0     C48905   5.761   9.935   3.996 -0.1825  1.0112 -0.2418
  363MOL0     O48906   5.829   9.904   3.878  0.3737 -0.0163  0.0478
  363MOL0     C48907   5.768   9.806   3.792  0.5275 -0.0866  0.1843
  363MOL0     C48908   5.640   9.862   3.718  0.2994 -0.7524 -0.2728
  363MOL0     C48909   5.550   9.757   3.654  0.0797 -0.5450 -0.5636
  363MOL0     C48910   5.429   9.814   3.592  0.1263 -0.1125 -0.1216
  363MOL0     C48911   5.387   9.728   3.462  0.3082 -0.1173  0.3558
  363MOL0     C48912   5.271   9.784   3.378  0.1612 -0.2459 -0.3090
  363MOL0     C48913   5.300   9.925   3.337 -0.8080  0.1252  0.2153
  363MOL0     C48914   5.220   9.972   3.213  0.5310 -0.3721 -0.6464
  363MOL0    Cl48915   5.041   9.957   3.237  0.1083 -0.1226  0.4499
  363MOL0     C48916   5.693   9.834   4.066 -0.5580 -1.1504  0.0843
  363MOL0     C48917   5.616   9.876   4.183  0.1365 -0.1288  0.0887
  363MOL0     O48918   5.350  10.019   4.340 -0.7077  0.3585  0.4230
  363MOL0     C48919   5.547  10.119   4.624 -0.0166  0.0439  1.0544
  363MOL0     C48920   5.563  10.115   4.758  0.1970  0.7874 -0.6708
  363MOL0     N48921   5.589  10.318   5.481 -0.3433 -0.0075  0.1030
  363MOL0     N48922   5.680  10.413   5.492 -0.7495  0.0747  0.2699
  363MOL0     C48923   6.801  10.582   5.271  0.6658  0.6418 -0.9567
  363MOL0     C48924   6.940  10.586   5.294  0.5434 -0.6177  0.2515
  363MOL0     C48925   7.358  10.774   5.209  0.0236 -0.3302 -0.0066
  363MOL0     C48926   7.414  10.758   5.332  0.8623 -0.3239 -0.6488
  363MOL0     C48927   7.544  10.801   5.345 -0.6703  0.0229  0.3100
  363MOL0     C48928   7.624  10.846   5.232 -0.1958 -0.5806 -0.4325
  363MOL0     O48929   7.758  10.874   5.270 -0.1596 -0.2685 -0.3126
  363MOL0     C48930   7.846  10.911   5.155 -0.1135  0.7773 -0.5591
  363MOL0     C48931   7.982  10.953   5.212  0.1543 -0.2512  0.8353
  363MOL0     C48932   8.099  10.944   5.113  0.0113 -0.5433  0.4236
  363MOL0     C48933   8.222  11.019   5.146 -0.3553 -0.3667  0.5665
  363MOL0     C48934   8.198  11.168   5.159 -0.4983  0.3196  0.0394
  363MOL0     C48935   8.190  11.285   5.173 -0.6046 -1.0570 -0.2742
  363MOL0     C48936   7.562  10.859   5.110  0.5737 -0.1030  0.3574
  363MOL0     C48937   7.427  10.824   5.098  0.1372  0.0033  0.9644
  363MOL0     H48938   6.977  10.914   5.222  0.9146 -0.9180 -1.0885
  363MOL0     H48939   6.752  10.911   5.184  0.0120 -1.7288 -3.5945
  363MOL0     H48940   6.534  10.850   5.341 -1.5436  0.2145  0.4237
  363MOL0     H48941   6.515  10.863   5.168  0.3003  0.3019  0.8960
  363MOL0     H48942   6.325  10.695   5.200  1.8686  1.2980 -0.8981
  363MOL0     H48943   6.364  10.674   5.363 -0.5356  0.2693  0.7833
  363MOL0     H48944   6.313  10.950   5.351  1.0434 -0.9625  1.4736
  363MOL0     H48945   6.187  10.867   5.245  1.0427  0.4779  0.0359
  363MOL0     H48946   6.236  10.790   5.537  1.5159  1.3919 -1.0056
  363MOL0     H48947   6.128  10.918   5.484  1.3821  0.6118 -2.7794
  363MOL0     H48948   6.002  10.717   5.526 -0.1613 -0.1782 -0.1265
  363MOL0     H48949   5.979  10.772   5.366 -1.1475 -4.7504 -1.9391
  363MOL0     H48950   6.096  10.594   5.257 -0.3182  1.9108 -0.1729
  363MOL0     H48951   6.182  10.564   5.403 -0.4097 -4.2631 -1.0870
  363MOL0     H48952   6.025  10.394   5.338 -2.6623 -2.3290  1.5585
  363MOL0     H48953   5.991  10.471   5.501 -0.3927  1.0088  1.1156
  363MOL0     H48954   5.838  10.506   5.238 -1.8346  2.1172  0.5292
  363MOL0     H48955   5.815  10.596   5.395  0.0613  1.1684 -0.9077
  363MOL0     H48956   5.800  10.236   5.237 -1.5919 -0.0801 -0.1302
  363MOL0     H48957   5.615  10.059   5.266  0.1189  2.6252 -3.8740
  363MOL0     H48958   5.506  10.087   5.411  0.4577  1.8079  0.3397
  363MOL0     H48959   5.478  10.242   5.144 -0.4242  1.6981  1.0501
  363MOL0     H48960   5.367  10.252   5.267  0.6298  0.3692 -0.6087
  363MOL0     H48961   5.271  10.132   5.074  1.2903  0.6097 -0.1387
  363MOL0     H48962   5.267  10.026   5.202 -0.1623  2.0597 -0.2012
  363MOL0     H48963   5.349   9.913   5.026 -1.0622 -0.6012  1.0692
  363MOL0     H48964   5.488   9.939   5.145  1.9570 -0.1345 -2.1984
  363MOL0     H48965   5.283   9.943   4.832  0.6475 -0.9285  0.1994
  363MOL0     H48966   5.168   9.873   4.663 -0.0937  0.8195  1.1718
  363MOL0     H48967   5.156   9.988   4.521 -0.6740 -0.1753 -0.0647
  363MOL0     H48968   5.248   9.844   4.506  2.7995  3.8836 -2.6785
  363MOL0     H48969   5.728  10.190   4.213  1.4095  0.8471 -2.3579
  363MOL0     H48970   5.825  10.135   3.993 -0.4903 -2.2116 -1.7321
  363MOL0     H48971   5.842   9.788   3.713  1.5762  0.9718  0.8820
  363MOL0     H48972   5.742   9.708   3.833  0.7879 -0.0529  0.4351
  363MOL0     H48973   5.576   9.921   3.785 -0.4510 -1.4057 -0.3977
  363MOL0     H48974   5.669   9.937   3.643 -1.3725  1.1646  0.8807
  363MOL0     H48975   5.506   9.685   3.724 -0.0033  0.0522  0.0063
  363MOL0     H48976   5.602   9.707   3.572  2.2446  1.2120 -0.3508
  363MOL0     H48977   5.348   9.822   3.665  0.6733 -2.7952  0.8998
  363MOL0     H48978   5.446   9.917   3.560 -1.5602 -0.6149 -3.0750
  363MOL0     H48979   5.363   9.623   3.483 -0.3610  0.0853  0.6236
  363MOL0     H48980   5.469   9.727   3.390  1.0845  2.1147  1.1182
  363MOL0     H48981   5.242   9.726   3.290 -1.4102  3.5508 -2.5461
  363MOL0     H48982   5.186   9.788   3.447  2.3336 -1.5677  2.6525
  363MOL0     H48983   5.406   9.928   3.307 -0.2067 -4.3099  1.1249
  363MOL0     H48984   5.286  10.000   3.414 -0.8330  1.1303 -0.7405
  363MOL0     H48985   5.253   9.908   3.131  0.4017 -0.5951 -0.5241
  363MOL0     H48986   5.252  10.075   3.193  1.6462 -0.6303 -0.2781
  363MOL0     H48987   5.692   9.727   4.047  0.7976 -1.1544 -0.0886
  363MOL0     H48988   5.556   9.805   4.239 -0.1431 -0.5117 -0.6803
  363MOL0     H48989   5.631  10.162   4.570  0.0148  0.4930  1.4541
  363MOL0     H48990   5.653  10.155   4.802 -0.0811  5.0623 -3.4240
  363MOL0     H48991   6.759  10.482   5.274  0.5474  0.7122 -0.0925
  363MOL0     H48992   6.976  10.486   5.314 -3.3668 -2.3427 -0.3425
  363MOL0     H48993   7.351  10.728   5.415 -0.8347  2.8657 -0.5992
  363MOL0     H48994   7.599  10.788   5.437 -0.4550 -2.0268 -0.0594
  363MOL0     H48995   7.859  10.826   5.087  0.2968  0.6671 -0.3459
  363MOL0     H48996   7.804  10.996   5.102 -0.0346 -0.0191 -1.9333
  363MOL0     H48997   7.998  10.873   5.286 -0.2139  0.2518  1.4654
  363MOL0     H48998   7.980  11.049   5.264 -2.7066 -0.7970  1.9171
  363MOL0     H48999   8.073  10.980   5.013  1.4814 -0.2282  0.1258
  363MOL0     H49000   8.136  10.841   5.100  0.6563 -0.3022  0.3178
  363MOL0     H49001   8.308  11.006   5.081 -0.2764 -0.8782  0.7661
  363MOL0     H49002   8.261  10.976   5.239  1.1851 -1.3919 -0.5078
  363MOL0     H49003   8.173  11.390   5.184 -0.8955 -1.3398  2.4422
  363MOL0     H49004   7.621  10.899   5.028  0.8558 -2.5143 -0.6990
  363MOL0     H49005   7.373  10.833   5.004 -0.5812  0.7865  1.4348
  364MOL0     O49006   4.349   7.091   2.932 -0.6127 -0.4981  0.0630
  364MOL0     C49007   4.386   7.187   2.871  0.5233 -0.1641 -0.3886
  364MOL0     O49008   4.306   7.289   2.828 -0.5395  0.0431 -0.0315
  364MOL0     C49009   4.199   7.325   2.905  0.2564 -0.3694  0.3988
  364MOL0     C49010   4.066   7.294   2.877 -0.5657  0.4254 -0.9345
  364MOL0     C49011   3.961   7.343   2.957  0.0438 -0.1998 -0.0579
  364MOL0     C49012   3.986   7.428   3.069  0.5523 -0.8078 -0.1240
  364MOL0     O49013   3.893   7.481   3.157  0.3130  0.8686 -0.5477
  364MOL0     C49014   3.755   7.484   3.126 -0.6411 -0.6209 -0.0136
  364MOL0     C49015   3.681   7.560   3.240 -0.8316 -0.9786  0.7424
  364MOL0     C49016   3.559   7.625   3.180  0.3394 -0.1620  0.4862
  364MOL0     C49017   3.462   7.661   3.297 -0.0298 -0.1788 -0.1640
  364MOL0     C49018   3.351   7.756   3.251 -0.4045 -0.3759  0.1302
  364MOL0     C49019   3.251   7.790   3.368  0.0361 -0.2030  0.0749
  364MOL0     C49020   3.135   7.885   3.320  0.5507  0.9016  0.8211
  364MOL0     C49021   3.049   7.842   3.201 -0.7626  0.0111  0.9728
  364MOL0     N49022   2.992   7.713   3.223 -0.3845 -0.3436 -0.7351
  364MOL0     C49023   2.868   7.708   3.278 -0.6361 -0.0645  0.4691
  364MOL0     C49024   2.832   7.576   3.274 -0.6482 -0.4900  0.2762
  364MOL0     C49025   2.701   7.510   3.308  0.0142 -0.3481 -0.5586
  364MOL0     C49026   2.615   7.516   3.183 -0.7357 -0.3478 -0.2738
  364MOL0     C49027   2.478   7.447   3.197 -0.2767 -0.0929 -0.7466
  364MOL0     C49028   2.385   7.496   3.310 -0.5606 -0.0022 -0.0656
  364MOL0     O49029   2.340   7.623   3.277 -0.0038 -0.3916 -0.0143
  364MOL0     C49030   2.244   7.687   3.348  0.1548 -0.9414  0.4377
  364MOL0     C49031   2.185   7.790   3.290  0.0313 -0.1913  0.3462
  364MOL0     C49032   2.080   7.861   3.354 -0.0421 -0.8985  0.2894
  364MOL0     C49033   2.014   7.979   3.280 -0.5720 -0.5726  0.4338
  364MOL0     C49034   2.041   7.828   3.489 -0.8557  0.2968  0.5538
  364MOL0     C49035   1.955   7.905   3.572 -0.0498 -0.0847  0.1600
  364MOL0     O49036   1.962   7.883   3.702 -0.2767  0.7249 -0.2376
  364MOL0     C49037   1.890   7.960   3.793 -0.0184 -1.1249 -0.5042
  364MOL0     C49038   1.809   7.907   3.882  0.3818  0.5836  0.7210
  364MOL0     C49039   1.716   7.980   3.959 -0.7107  0.2776 -0.6692
  364MOL0     C49040   1.705   8.118   3.946  0.4171 -0.0564 -0.0032
  364MOL0     O49041   1.602   8.184   4.011  0.3690  0.4656  0.1577
  364MOL0     C49042   1.605   8.330   4.003 -0.4603  0.2543  0.6546
  364MOL0     C49043   1.472   8.384   4.059 -0.4375 -1.0731 -0.4543
  364MOL0     C49044   1.351   8.343   3.975  0.1705 -1.0916  0.2675
  364MOL0     C49045   1.203   8.380   4.009  0.8661  0.0336  0.1619
  364MOL0     C49046   1.154   8.328   4.137 -1.2400 -0.4019 -0.6440
  364MOL0     C49047   1.003   8.319   4.156  0.5321 -0.3890 -0.7555
  364MOL0     C49048   0.929   8.455   4.148  0.9131 -0.0319 -0.0279
  364MOL0     C49049   0.805   8.438   4.232 -1.2514  0.6258  0.8569
  364MOL0    Cl49050   0.695   8.574   4.211 -0.1242  0.1197  0.0020
  364MOL0     C49051   1.799   8.177   3.860  0.2469 -0.2679 -0.4657
  364MOL0     C49052   1.894   8.104   3.791 -0.5186 -0.3145  0.3001
  364MOL0     O49053   1.870   7.982   3.524 -0.0033  0.6633  0.4696
  364MOL0     C49054   2.113   7.713   3.547 -0.3435 -0.1562 -0.1769
  364MOL0     C49055   2.213   7.646   3.475  0.4111 -0.2159 -0.4359
  364MOL0     N49056   2.948   7.504   3.233  0.6917  0.1273  0.8785
  364MOL0     N49057   3.035   7.584   3.196  0.5522  0.1994 -0.3437
  364MOL0     C49058   4.122   7.456   3.103  0.2553 -0.1837 -0.4884
  364MOL0     C49059   4.227   7.405   3.022 -0.5786  0.4070  0.5106
  364MOL0     C49060   4.532   7.210   2.852 -0.1806 -0.0717  0.2029
  364MOL0     C49061   4.574   7.341   2.817 -0.4381  0.1706  0.7457
  364MOL0     C49062   4.707   7.361   2.790 -0.4634 -0.6894 -0.1141
  364MOL0     C49063   4.801   7.262   2.792  0.4451 -0.0739  0.7889
  364MOL0     O49064   4.923   7.298   2.753 -0.1056  0.2450  0.3481
  364MOL0     C49065   5.025   7.193   2.723 -0.5771  0.1977 -0.0691
  364MOL0     C49066   4.987   7.094   2.612 -0.2745 -0.3223 -0.0354
  364MOL0     C49067   5.078   6.976   2.606 -1.0096 -0.7615  0.4949
  364MOL0     C49068   5.030   6.887   2.493  0.5695 -0.3075  0.9526
  364MOL0     C49069   4.919   6.801   2.541 -1.3753  0.3052  0.7275
  364MOL0     C49070   4.827   6.740   2.606 -0.2246 -0.3455 -0.2565
  364MOL0     C49071   4.757   7.141   2.831 -0.2288  0.1349 -0.0609
  364MOL0     C49072   4.631   7.109   2.870 -0.1946  0.2779  0.9402
  364MOL0     H49073   4.043   7.241   2.785 -0.6398  1.0136 -1.2605
  364MOL0     H49074   3.863   7.320   2.917  0.3049 -0.7008 -0.4308
  364MOL0     H49075   3.733   7.534   3.031  0.4496  1.6142  0.8304
  364MOL0     H49076   3.713   7.383   3.122  1.5142 -1.6155  0.7507
  364MOL0     H49077   3.658   7.489   3.320 -0.9203 -2.4420 -0.5323
  364MOL0     H49078   3.750   7.636   3.278 -2.2520  0.1267  1.2201
  364MOL0     H49079   3.582   7.719   3.129 -0.8735 -0.6573 -1.0456
  364MOL0     H49080   3.498   7.558   3.120  1.6326 -0.0651 -1.0003
  364MOL0     H49081   3.429   7.561   3.327 -1.8157  0.1867 -0.7907
  364MOL0     H49082   3.515   7.698   3.385 -0.2397 -2.6027  1.0661
  364MOL0     H49083   3.396   7.845   3.207  4.0300 -3.4671 -2.3703
  364MOL0     H49084   3.291   7.710   3.172 -1.8468  0.5816  0.6318
  364MOL0     H49085   3.202   7.700   3.407  1.2235 -1.2733 -0.8238
  364MOL0     H49086   3.312   7.834   3.447 -2.1798  3.8523 -0.1887
  364MOL0     H49087   3.073   7.910   3.406  1.7698  3.5778  1.0146
  364MOL0     H49088   3.179   7.979   3.289 -0.5077  0.8269 -1.0547
  364MOL0     H49089   3.112   7.833   3.111  0.4128  1.9343  1.5513
  364MOL0     H49090   2.978   7.923   3.183 -0.8895 -0.3994 -0.5886
  364MOL0     H49091   2.812   7.799   3.301 -0.1690 -0.0381  1.5737
  364MOL0     H49092   2.722   7.407   3.339  1.7654  0.2046  0.1826
  364MOL0     H49093   2.649   7.576   3.379 -2.2802 -2.1231 -0.4761
  364MOL0     H49094   2.678   7.473   3.104 -0.1451  0.1608 -0.0883
  364MOL0     H49095   2.598   7.622   3.165  0.0485 -0.5447 -2.4849
  364MOL0     H49096   2.493   7.339   3.196 -2.4171 -0.4709 -4.0473
  364MOL0     H49097   2.425   7.471   3.105 -0.3101 -1.2565 -1.0357
  364MOL0     H49098   2.434   7.491   3.408 -2.1801  1.2978  0.8620
  364MOL0     H49099   2.302   7.425   3.310  0.0361 -0.7547  1.2862
  364MOL0     H49100   2.211   7.815   3.188 -4.6129  2.3055 -0.5065
  364MOL0     H49101   2.067   7.989   3.185  1.6568  0.4202  1.6892
  364MOL0     H49102   1.908   7.953   3.270 -0.7943  0.2761  0.4201
  364MOL0     H49103   2.027   8.078   3.326 -1.7072 -1.2010  2.2038
  364MOL0     H49104   1.823   7.800   3.893 -0.4665  0.2880 -0.7718
  364MOL0     H49105   1.654   7.930   4.033 -0.1934  0.2910 -0.2215
  364MOL0     H49106   1.689   8.354   4.068  0.0446 -4.5038  2.1967
  364MOL0     H49107   1.611   8.375   3.903 -0.6077 -3.2480 -1.0833
  364MOL0     H49108   1.461   8.360   4.165  0.8376  2.3347  0.6034
  364MOL0     H49109   1.478   8.493   4.072 -2.0527 -1.1833  1.7438
  364MOL0     H49110   1.353   8.237   3.948  0.1727 -1.5019  1.8122
  364MOL0     H49111   1.369   8.399   3.882 -3.6677 -1.9901 -1.2179
  364MOL0     H49112   1.198   8.489   4.004  1.6469  0.0696 -0.0057
  364MOL0     H49113   1.136   8.342   3.931 -1.4115  3.4438  0.2247
  364MOL0     H49114   1.205   8.381   4.218 -2.4584  0.2407 -0.2581
  364MOL0     H49115   1.195   8.227   4.133 -0.4134 -0.0529 -1.3795
  364MOL0     H49116   0.967   8.258   4.073  2.0733  1.2223 -2.6959
  364MOL0     H49117   0.974   8.272   4.250 -1.3131  1.0381 -0.5604
  364MOL0     H49118   0.913   8.488   4.045  1.4029  0.0526 -0.0758
  364MOL0     H49119   0.987   8.533   4.198  0.9515  0.2254 -0.4643
  364MOL0     H49120   0.831   8.443   4.338 -0.5072 -3.6365  1.0263
  364MOL0     H49121   0.751   8.344   4.216 -0.5979  0.5129 -0.8699
  364MOL0     H49122   1.796   8.283   3.837 -1.3591 -0.0133  0.7375
  364MOL0     H49123   1.960   8.153   3.721 -1.4240 -3.1177 -2.7501
  364MOL0     H49124   2.092   7.691   3.652 -0.1915  1.3980  0.2086
  364MOL0     H49125   2.264   7.571   3.534 -0.7589  1.0810  2.4111
  364MOL0     H49126   4.138   7.519   3.189 -0.7231 -0.5860  0.0136
  364MOL0     H49127   4.329   7.420   3.056 -0.9184  3.8537  0.4378
  364MOL0     H49128   4.506   7.425   2.816 -1.8530 -0.9470  0.2224
  364MOL0     H49129   4.744   7.458   2.759 -0.0390 -0.9102 -0.2940
  364MOL0     H49130   5.116   7.241   2.687  0.8405 -0.6500  2.1558
  364MOL0     H49131   5.044   7.149   2.822  1.8373 -0.1507 -0.6268
  364MOL0     H49132   4.997   7.160   2.526 -2.2309  0.5050  0.3136
  364MOL0     H49133   4.883   7.060   2.610  0.1792 -1.7685 -2.1127
  364MOL0     H49134   5.081   6.938   2.708 -4.5451 -0.0044  1.0362
  364MOL0     H49135   5.173   7.026   2.586 -0.5633 -2.0061 -0.6055
  364MOL0     H49136   5.102   6.815   2.455 -1.1376 -0.4358 -2.3966
  364MOL0     H49137   5.002   6.952   2.409 -0.3737 -0.0701  1.4375
  364MOL0     H49138   4.759   6.692   2.675 -0.6835  1.3850  0.5372
  364MOL0     H49139   4.820   7.054   2.845 -0.9702 -0.4203 -0.1263
  364MOL0     H49140   4.619   7.004   2.894  1.8784 -0.4723 -1.0008
  365MOL0     O49141   8.998   9.557   4.272 -0.2612 -0.0556  0.3609
  365MOL0     C49142   9.090   9.638   4.302  0.0488 -0.3675  0.2227
  365MOL0     O49143   9.083   9.767   4.363  0.2653  0.0748 -0.1257
  365MOL0     C49144   8.956   9.820   4.382  0.4953  0.5576  0.1595
  365MOL0     C49145   8.844   9.808   4.297 -0.7714 -0.1442  0.1624
  365MOL0     C49146   8.726   9.869   4.325 -0.0092  0.5769  0.0950
  365MOL0     C49147   8.712   9.949   4.432 -1.0174  0.1210  0.0572
  365MOL0     O49148   8.586   9.991   4.464  0.7500  0.0884  0.0001
  365MOL0     C49149   8.553  10.047   4.596 -0.9111 -0.1912 -0.8218
  365MOL0     C49150   8.395  10.061   4.615  0.2450 -0.2759 -0.6535
  365MOL0     C49151   8.338  10.170   4.525  0.5055 -0.1319  0.0102
  365MOL0     C49152   8.199  10.210   4.567 -0.0936 -0.0187  0.3309
  365MOL0     C49153   8.099  10.127   4.493  0.2162  0.5987 -0.4005
  365MOL0     C49154   7.962  10.184   4.521 -0.3755 -1.2320  0.1078
  365MOL0     C49155   7.856  10.094   4.444  0.2657 -0.5932  0.6718
  365MOL0     C49156   7.719  10.154   4.447  0.1948 -0.7458 -0.3603
  365MOL0     N49157   7.635  10.116   4.564 -0.8100 -0.1007  0.4162
  365MOL0     C49158   7.560  10.000   4.580  0.9687  0.6805 -1.1580
  365MOL0     C49159   7.487  10.022   4.693 -0.4651 -0.5859 -0.0369
  365MOL0     C49160   7.376   9.933   4.761 -0.2066 -0.1789 -0.6568
  365MOL0     C49161   7.239   9.947   4.686 -0.3963 -1.1667 -0.6895
  365MOL0     C49162   7.186  10.088   4.663 -0.3738  0.2860  0.0839
  365MOL0     C49163   7.053  10.080   4.589  0.4720  0.0958 -0.9968
  365MOL0     O49164   6.954  10.030   4.686  0.4067 -0.8341 -0.0823
  365MOL0     C49165   6.824  10.053   4.645 -0.0499 -0.2720 -0.3628
  365MOL0     C49166   6.730   9.982   4.718  0.2807 -0.5868 -0.2628
  365MOL0     C49167   6.590   9.995   4.701  0.2095 -0.1353 -0.3376
  365MOL0     C49168   6.506   9.895   4.779  0.3663 -0.5191 -0.2514
  365MOL0     C49169   6.547  10.083   4.598  0.0896  0.5660 -0.6446
  365MOL0     C49170   6.395  10.098   4.560 -0.3499 -0.2377  0.8573
  365MOL0     O49171   6.362  10.148   4.437 -0.4763 -0.4989  0.3651
  365MOL0     C49172   6.242  10.215   4.430  0.7588  0.6083 -0.6798
  365MOL0     C49173   6.202  10.306   4.523 -0.5898 -0.7821 -0.6738
  365MOL0     C49174   6.080  10.369   4.522  0.0331  0.7084  0.3487
  365MOL0     C49175   5.984  10.343   4.415 -0.7112  0.1758  0.8253
  365MOL0     O49176   5.863  10.404   4.405 -0.0784 -0.6812  0.8740
  365MOL0     C49177   5.829  10.511   4.497 -0.8490  0.5640 -0.1825
  365MOL0     C49178   5.694  10.560   4.465  0.1742  0.0819  0.9970
  365MOL0     C49179   5.585  10.464   4.506  0.1026  0.8263 -0.4135
  365MOL0     C49180   5.450  10.533   4.499 -0.4762 -0.0338 -0.2393
  365MOL0     C49181   5.330  10.443   4.510 -0.3458  0.7736 -0.9294
  365MOL0     C49182   5.199  10.504   4.486 -0.6710  0.4173 -0.0172
  365MOL0     C49183   5.083  10.404   4.507 -0.0683 -0.7024 -0.3426
  365MOL0     C49184   5.096  10.285   4.420 -0.2608  0.7118  0.1251
  365MOL0    Cl49185   4.937  10.205   4.417 -0.2553 -0.3977 -0.5098
  365MOL0     C49186   6.031  10.257   4.316 -0.0499 -0.4179  0.3459
  365MOL0     C49187   6.155  10.191   4.321 -0.8029  0.2697  0.3402
  365MOL0     O49188   6.316  10.061   4.645  0.1546  0.4200 -0.1056
  365MOL0     C49189   6.635  10.144   4.513 -0.0137 -0.3926 -0.0137
  365MOL0     C49190   6.778  10.131   4.537 -0.7293 -0.1371  0.0690
  365MOL0     N49191   7.507  10.160   4.729 -0.2471  0.1859 -0.0609
  365MOL0     N49192   7.610  10.210   4.670 -0.8859  0.4741  0.1491
  365MOL0     C49193   8.827   9.980   4.501 -0.0536  0.2369  0.1865
  365MOL0     C49194   8.939   9.911   4.482 -0.8137  0.5074  0.2209
  365MOL0     C49195   9.227   9.592   4.285 -0.0907 -0.0695  0.5907
  365MOL0     C49196   9.334   9.676   4.306 -0.7319  0.3006  0.1127
  365MOL0     C49197   9.467   9.644   4.274  0.2015  0.5045 -0.8057
  365MOL0     C49198   9.504   9.513   4.247 -0.2414  1.0525  0.5835
  365MOL0     O49199   9.634   9.479   4.238  0.4926  0.6502 -0.1197
  365MOL0     C49200   9.659   9.337   4.216 -0.6290  0.2584 -0.7399
  365MOL0     C49201   9.812   9.316   4.226 -0.0840 -0.2744 -0.2347
  365MOL0     C49202   9.890   9.381   4.115  0.1853 -0.1355 -0.8775
  365MOL0     C49203  10.025   9.416   4.174  0.6636  0.5179 -0.5627
  365MOL0     C49204  10.108   9.297   4.162  0.2346 -0.3241 -0.3039
  365MOL0     C49205  10.193   9.204   4.145  0.7327 -0.1039  0.2492
  365MOL0     C49206   9.396   9.428   4.221  0.0277 -0.1373 -0.1997
  365MOL0     C49207   9.260   9.466   4.240  0.5213 -0.5065  0.4845
  365MOL0     H49208   8.847   9.738   4.214 -1.6051 -1.6510  1.3580
  365MOL0     H49209   8.641   9.835   4.266  0.2410  2.2327 -1.3030
  365MOL0     H49210   8.570   9.978   4.680 -1.2414  0.5112 -0.1582
  365MOL0     H49211   8.605  10.142   4.610 -1.8967  0.1713  0.7665
  365MOL0     H49212   8.343   9.969   4.586 -0.3903  0.4701 -2.0087
  365MOL0     H49213   8.385  10.083   4.721  0.7692 -0.8531 -0.4736
  365MOL0     H49214   8.395  10.263   4.526  1.0636 -0.4579 -0.5515
  365MOL0     H49215   8.346  10.138   4.421  0.8032  0.1226 -0.0483
  365MOL0     H49216   8.185  10.194   4.674  1.0051  2.8971  1.0001
  365MOL0     H49217   8.194  10.317   4.543 -0.2271 -0.2987 -1.0117
  365MOL0     H49218   8.114  10.125   4.385 -1.9253 -0.3059 -0.7188
  365MOL0     H49219   8.090  10.025   4.532 -1.8567  2.1831  3.8354
  365MOL0     H49220   7.937  10.191   4.627 -0.4529  0.1538  0.0245
  365MOL0     H49221   7.958  10.288   4.488  1.1776 -1.7364 -1.8552
  365MOL0     H49222   7.883  10.094   4.338  3.0915 -0.9684  1.2842
  365MOL0     H49223   7.853   9.991   4.481 -0.5665 -0.5694  0.6854
  365MOL0     H49224   7.663  10.120   4.359  0.8170  0.2728 -1.1623
  365MOL0     H49225   7.736  10.262   4.451  1.0661 -0.8261 -1.3766
  365MOL0     H49226   7.535   9.916   4.515 -2.9040  0.1425  0.7771
  365MOL0     H49227   7.421   9.833   4.752  0.8583  0.3859 -1.8478
  365MOL0     H49228   7.372   9.961   4.867  0.7191 -0.3598 -0.5652
  365MOL0     H49229   7.165   9.889   4.742 -1.6712 -0.2128 -1.3503
  365MOL0     H49230   7.256   9.899   4.589  1.4121  1.1990 -1.6410
  365MOL0     H49231   7.252  10.151   4.603 -0.7920  1.8203  1.1716
  365MOL0     H49232   7.172  10.146   4.755  1.0434  1.0540 -0.1610
  365MOL0     H49233   7.063  10.011   4.505  2.6409  1.4220 -1.9014
  365MOL0     H49234   7.032  10.183   4.561  0.0427  0.5751  0.9278
  365MOL0     H49235   6.757   9.918   4.802  0.4409 -1.4664 -0.9683
  365MOL0     H49236   6.447   9.830   4.714 -2.7282  1.5653  0.2748
  365MOL0     H49237   6.559   9.845   4.861  1.1793  1.2783  0.3563
  365MOL0     H49238   6.426   9.956   4.822  1.8425  1.8109 -0.6177
  365MOL0     H49239   6.264  10.341   4.605 -3.1168  1.9815  0.2403
  365MOL0     H49240   6.064  10.438   4.604 -0.4808 -1.5416  2.2599
  365MOL0     H49241   5.834  10.477   4.601 -1.0930 -1.6133 -0.8525
  365MOL0     H49242   5.909  10.586   4.489 -0.1093 -0.1142  0.6848
  365MOL0     H49243   5.688  10.656   4.516  3.6099  1.5595 -1.0222
  365MOL0     H49244   5.692  10.574   4.357  2.9983  1.7336  1.0544
  365MOL0     H49245   5.598  10.443   4.613 -0.7902  0.1500 -0.4292
  365MOL0     H49246   5.591  10.375   4.443  4.1188  1.2099 -0.8496
  365MOL0     H49247   5.441  10.615   4.571  0.0907  1.6770 -2.0229
  365MOL0     H49248   5.451  10.581   4.401 -2.9625 -0.3926 -0.5069
  365MOL0     H49249   5.339  10.407   4.613  2.6805 -1.0971 -1.7116
  365MOL0     H49250   5.346  10.376   4.425 -2.1486  0.5446 -1.1290
  365MOL0     H49251   5.191  10.593   4.549 -0.1474  1.2690 -1.1265
  365MOL0     H49252   5.196  10.540   4.383 -0.2182 -0.7590 -0.4554
  365MOL0     H49253   4.989  10.451   4.476 -0.1699 -1.6832 -1.6090
  365MOL0     H49254   5.071  10.382   4.613  2.9768 -2.9753 -0.3225
  365MOL0     H49255   5.169  10.215   4.463  2.8327  3.0099 -1.0631
  365MOL0     H49256   5.138  10.309   4.322 -0.7700  1.2351  0.0296
  365MOL0     H49257   5.969  10.241   4.228  1.7966  1.3146 -1.3724
  365MOL0     H49258   6.191  10.116   4.250  0.2219 -1.9491  3.0122
  365MOL0     H49259   6.598  10.205   4.432 -0.3787 -0.3846  0.1579
  365MOL0     H49260   6.849  10.184   4.474  1.3462 -2.0614  0.6349
  365MOL0     H49261   8.817  10.034   4.595 -2.4928  2.4054 -1.1625
  365MOL0     H49262   9.021   9.916   4.553 -2.0015  2.6493  1.5631
  365MOL0     H49263   9.312   9.779   4.332 -0.5364  0.2943  0.3033
  365MOL0     H49264   9.540   9.721   4.298  0.8095  0.5137 -2.5723
  365MOL0     H49265   9.607   9.282   4.294 -0.5955 -1.8266 -2.1084
  365MOL0     H49266   9.615   9.293   4.126 -2.7055 -1.0297  0.8164
  365MOL0     H49267   9.834   9.209   4.222  1.3630  0.0165 -0.2425
  365MOL0     H49268   9.838   9.344   4.328  2.2421 -0.2169 -0.7882
  365MOL0     H49269   9.832   9.469   4.083 -0.3491 -0.6412 -1.3503
  365MOL0     H49270   9.906   9.328   4.020 -0.9847 -0.4738 -0.9073
  365MOL0     H49271  10.016   9.447   4.278 -1.1784  1.2343 -0.9066
  365MOL0     H49272  10.074   9.494   4.115  1.4639  0.1739 -0.3703
  365MOL0     H49273  10.267   9.127   4.139 -0.8542 -1.7095  0.6013
  365MOL0     H49274   9.416   9.330   4.177  2.2518 -0.2460  0.9209
  365MOL0     H49275   9.184   9.390   4.227 -1.1693  1.1769  0.0602
  366MOL0     O49276   6.768   5.410   1.865 -0.4068  0.3999  0.2859
  366MOL0     C49277   6.868   5.347   1.828  0.4688  0.0079 -0.3252
  366MOL0     O49278   6.868   5.232   1.738  0.0851 -0.7756 -0.2846
  366MOL0     C49279   6.752   5.191   1.678  0.5266  1.1250  0.5975
  366MOL0     C49280   6.631   5.262   1.654  0.1202  0.1485 -0.1655
  366MOL0     C49281   6.525   5.198   1.584 -0.5324 -0.0795 -0.6060
  366MOL0     C49282   6.537   5.066   1.543 -0.8174 -0.1252  0.3984
  366MOL0     O49283   6.439   5.004   1.471  0.1775  0.1457  0.0694
  366MOL0     C49284   6.301   5.045   1.474  0.0582 -0.0892  0.2910
  366MOL0     C49285   6.221   4.928   1.408 -0.1261 -1.1864 -0.7122
  366MOL0     C49286   6.069   4.962   1.383 -0.7437  0.2797  0.2630
  366MOL0     C49287   6.003   4.846   1.307  0.2799 -0.8655  0.3253
  366MOL0     C49288   5.853   4.870   1.292 -0.0534  0.2264  0.5480
  366MOL0     C49289   5.834   4.878   1.137  0.9068  0.2811  0.2129
  366MOL0     C49290   5.686   4.893   1.104  0.3060  0.3886  0.0396
  366MOL0     C49291   5.659   4.899   0.954 -0.0864 -0.1376  0.1493
  366MOL0     N49292   5.520   4.939   0.919 -0.4324  0.0206 -0.1646
  366MOL0     C49293   5.419   4.854   0.885  1.3972  0.3860  0.5946
  366MOL0     C49294   5.312   4.927   0.834  0.2035  0.7376  1.1690
  366MOL0     C49295   5.179   4.875   0.761 -1.0301  0.1176  0.2633
  366MOL0     C49296   5.054   4.940   0.800 -0.3092 -0.1919  0.8410
  366MOL0     C49297   4.931   4.885   0.745  0.5037  1.0299  0.4633
  366MOL0     C49298   4.808   4.936   0.814 -0.7933  0.2691 -0.1665
  366MOL0     O49299   4.706   4.839   0.815  0.3769 -0.6021  0.6150
  366MOL0     C49300   4.574   4.875   0.826  0.0054  0.6855 -0.5767
  366MOL0     C49301   4.485   4.767   0.803  0.0981 -0.5118  0.4082
  366MOL0     C49302   4.349   4.781   0.831  0.2002  0.3138 -0.7223
  366MOL0     C49303   4.262   4.656   0.817  1.1096 -0.3596 -0.6181
  366MOL0     C49304   4.296   4.913   0.857 -0.2823 -0.7380  0.5230
  366MOL0     C49305   4.158   4.936   0.900  0.4824 -0.1515 -0.0616
  366MOL0     O49306   4.077   4.835   0.946 -0.7623  0.0849 -0.3700
  366MOL0     C49307   3.954   4.867   0.988  0.9088 -0.0134  0.6459
  366MOL0     C49308   3.861   4.834   0.882  0.2364 -0.2659 -0.1520
  366MOL0     C49309   3.727   4.871   0.899  1.1465 -0.5283 -0.4118
  366MOL0     C49310   3.682   4.941   1.017 -0.2848  0.1369 -0.2207
  366MOL0     O49311   3.555   4.991   1.039  0.5756  0.5937 -0.2801
  366MOL0     C49312   3.454   4.961   0.937  0.2446 -0.0060  0.3312
  366MOL0     C49313   3.335   5.048   0.978 -0.1612  0.3290 -0.2524
  366MOL0     C49314   3.221   5.027   0.880 -0.8763 -0.1738  1.1332
  366MOL0     C49315   3.104   5.117   0.907 -0.7643  0.2702 -0.0547
  366MOL0     C49316   2.993   5.090   0.804  0.5617  0.3485  0.2653
  366MOL0     C49317   3.031   5.152   0.671 -0.3386 -0.6381 -0.0465
  366MOL0     C49318   2.914   5.159   0.568 -0.6896 -0.0397 -0.3666
  366MOL0     C49319   2.953   5.222   0.439  0.6364 -0.7874  0.5603
  366MOL0    Cl49320   3.071   5.139   0.356  0.0823 -0.0141 -0.3057
  366MOL0     C49321   3.780   4.962   1.122  0.6599 -0.0069  0.6860
  366MOL0     C49322   3.918   4.922   1.108  0.5125 -0.1528  0.8123
  366MOL0     O49323   4.114   5.048   0.864  0.0791 -0.1874 -0.5989
  366MOL0     C49324   4.383   5.026   0.868  0.3106  1.0337  0.2458
  366MOL0     C49325   4.523   4.998   0.861  0.2604 -0.5861 -0.5149
  366MOL0     N49326   5.360   5.060   0.841  0.7120  0.0910 -0.2306
  366MOL0     N49327   5.483   5.067   0.886 -0.1512  0.7007  0.8198
  366MOL0     C49328   6.658   4.993   1.561  0.5514 -1.1926 -0.0875
  366MOL0     C49329   6.765   5.051   1.636 -0.3842 -0.4171  0.0081
  366MOL0     C49330   6.986   5.378   1.896  0.0279  0.8848  0.0197
  366MOL0     C49331   6.997   5.490   1.978  0.3084 -0.9651  0.9266
  366MOL0     C49332   7.112   5.509   2.056 -0.4383  0.4085 -0.3922
  366MOL0     C49333   7.225   5.429   2.051 -0.4758 -0.1104 -0.1546
  366MOL0     O49334   7.341   5.432   2.123  0.0917 -0.4452  0.1803
  366MOL0     C49335   7.362   5.545   2.207 -0.2964  0.0488 -0.4530
  366MOL0     C49336   7.467   5.499   2.303 -0.1036 -0.0002  0.1479
  366MOL0     C49337   7.519   5.602   2.408 -0.1413 -0.5192 -0.1002
  366MOL0     C49338   7.401   5.629   2.506  0.2200  0.0387 -0.3882
  366MOL0     C49339   7.466   5.681   2.619 -0.1054 -0.2546 -0.3099
  366MOL0     C49340   7.514   5.722   2.720 -0.2524 -0.8785 -0.3071
  366MOL0     C49341   7.213   5.316   1.967 -0.2061 -0.1523 -0.3987
  366MOL0     C49342   7.096   5.292   1.891 -0.4542 -0.4305 -0.1837
  366MOL0     H49343   6.618   5.369   1.667 -1.5782 -0.0302 -0.2584
  366MOL0     H49344   6.432   5.250   1.566 -0.4951  1.5324  2.9686
  366MOL0     H49345   6.261   5.048   1.576  0.3103 -2.7342  0.5537
  366MOL0     H49346   6.278   5.135   1.418  3.6343 -0.0307 -1.3664
  366MOL0     H49347   6.275   4.915   1.314  2.4079  1.8902  0.1205
  366MOL0     H49348   6.233   4.834   1.463 -0.0932 -1.7266 -1.6319
  366MOL0     H49349   6.024   4.974   1.482 -0.6306 -1.0006  0.4901
  366MOL0     H49350   6.064   5.061   1.338  1.9188  0.6336  0.6013
  366MOL0     H49351   6.058   4.827   1.215  0.3615 -0.8781  0.3766
  366MOL0     H49352   6.001   4.756   1.370 -1.4561 -0.9395  0.2235
  366MOL0     H49353   5.801   4.784   1.334 -0.7997  0.8137  0.8562
  366MOL0     H49354   5.823   4.961   1.346  3.2085  0.4456  2.2473
  366MOL0     H49355   5.889   4.969   1.109 -0.5906  1.5071  1.1122
  366MOL0     H49356   5.867   4.782   1.095  1.6172  0.3770  0.5398
  366MOL0     H49357   5.630   4.815   1.156 -0.7618  0.3571 -1.1150
  366MOL0     H49358   5.643   4.981   1.152 -0.3133 -0.2949  0.7812
  366MOL0     H49359   5.660   4.801   0.904 -1.8677 -1.1333  1.9173
  366MOL0     H49360   5.737   4.960   0.907  3.7024 -2.9893  2.1640
  366MOL0     H49361   5.410   4.746   0.878  0.0078  0.3773  2.0404
  366MOL0     H49362   5.196   4.890   0.654  0.7926  1.9788  0.7305
  366MOL0     H49363   5.168   4.768   0.782  0.2433 -0.4487 -1.6918
  366MOL0     H49364   5.072   5.045   0.772  4.6167 -1.2324 -0.8924
  366MOL0     H49365   5.046   4.919   0.907  2.4385 -1.3312  0.9066
  366MOL0     H49366   4.931   4.775   0.746  0.0227  0.8601 -3.1314
  366MOL0     H49367   4.926   4.907   0.638 -2.3812 -1.6625 -0.1396
  366MOL0     H49368   4.773   5.032   0.773 -0.1120  0.6901  0.2081
  366MOL0     H49369   4.831   4.963   0.917 -4.0866  1.4022  0.3875
  366MOL0     H49370   4.533   4.674   0.771  0.5936  0.6978 -2.7583
  366MOL0     H49371   4.183   4.675   0.743  1.6863 -0.5260 -1.2891
  366MOL0     H49372   4.322   4.577   0.772 -0.4611 -0.8618 -1.9238
  366MOL0     H49373   4.215   4.626   0.911 -1.2180  2.5068 -0.7331
  366MOL0     H49374   3.900   4.776   0.800  1.6293 -1.6774  1.4258
  366MOL0     H49375   3.664   4.851   0.813  1.8238  0.5858 -1.1882
  366MOL0     H49376   3.499   4.982   0.839  0.1919 -1.1434  0.0509
  366MOL0     H49377   3.436   4.854   0.931 -0.4858 -0.0780  2.8051
  366MOL0     H49378   3.307   5.018   1.080  0.8037 -0.6233 -0.2552
  366MOL0     H49379   3.369   5.153   0.977  3.2432 -0.5885  1.8612
  366MOL0     H49380   3.190   4.923   0.894  0.9730 -1.2456 -1.7706
  366MOL0     H49381   3.245   5.043   0.774 -1.7858 -0.2629  0.9039
  366MOL0     H49382   3.053   5.078   0.995 -2.5885  1.5236 -0.4798
  366MOL0     H49383   3.142   5.219   0.915  0.1358 -0.0408 -0.2663
  366MOL0     H49384   2.904   5.143   0.840 -0.5586  0.2590 -2.1931
  366MOL0     H49385   2.967   4.984   0.803 -0.0801  0.4967  0.8478
  366MOL0     H49386   3.075   5.251   0.686  0.0090 -1.0454  1.7524
  366MOL0     H49387   3.107   5.096   0.616  1.7348  2.2139 -0.3390
  366MOL0     H49388   2.826   5.213   0.604 -1.0201  0.4758 -1.8803
  366MOL0     H49389   2.879   5.056   0.562  0.4874 -0.6320  1.8456
  366MOL0     H49390   2.986   5.325   0.451 -2.4724  0.3063  0.6745
  366MOL0     H49391   2.869   5.220   0.369  0.3913  0.6843  0.7929
  366MOL0     H49392   3.748   5.014   1.212 -0.6600  2.3404 -1.0347
  366MOL0     H49393   3.983   4.952   1.190 -1.6819  1.1110  2.1846
  366MOL0     H49394   4.352   5.128   0.886 -0.2749  1.0572 -0.8182
  366MOL0     H49395   4.587   5.078   0.896 -0.0498 -0.3125 -0.5746
  366MOL0     H49396   6.670   4.888   1.539  1.5802 -0.5532 -3.0025
  366MOL0     H49397   6.859   5.002   1.661  1.6206  1.3077 -3.4333
  366MOL0     H49398   6.912   5.558   1.980  0.5355 -0.6524  3.1067
  366MOL0     H49399   7.115   5.592   2.125  0.2348 -0.3537  0.5110
  366MOL0     H49400   7.393   5.640   2.162 -0.2174  1.1678  1.8339
  366MOL0     H49401   7.273   5.569   2.266  0.6564 -0.0091  1.0395
  366MOL0     H49402   7.554   5.466   2.245 -0.6604  2.3161 -2.1353
  366MOL0     H49403   7.431   5.419   2.369  3.7157  0.5325  3.3009
  366MOL0     H49404   7.562   5.692   2.360  0.0336 -0.7958 -0.4712
  366MOL0     H49405   7.593   5.554   2.472 -1.5955 -0.3607  1.7635
  366MOL0     H49406   7.347   5.538   2.534  1.1189 -0.4472 -0.1751
  366MOL0     H49407   7.327   5.705   2.479 -0.3231 -0.3954 -0.1328
  366MOL0     H49408   7.542   5.770   2.811 -0.1645  0.3606 -0.9667
  366MOL0     H49409   7.293   5.244   1.955 -2.5587 -3.7535  2.9385
  366MOL0     H49410   7.095   5.206   1.825  1.3170 -0.0937 -0.6825
  367MOL0     O49411   1.629   9.680  10.775 -0.2847 -0.6315  1.0589
  367MOL0     C49412   1.667   9.759  10.683  0.3322  1.0676  0.5118
  367MOL0     O49413   1.580   9.831  10.600 -0.1652  0.3230  0.1539
  367MOL0     C49414   1.448   9.807  10.621  0.0541  0.4489  0.3587
  367MOL0     C49415   1.375   9.892  10.701  0.6082 -0.8790 -0.6310
  367MOL0     C49416   1.233   9.867  10.728  0.4082  0.5557  0.0425
  367MOL0     C49417   1.170   9.753  10.665  0.6025 -0.0913  1.1217
  367MOL0     O49418   1.044   9.715  10.690 -0.0921 -0.2259  0.5487
  367MOL0     C49419   0.952   9.825  10.675 -1.2463 -0.1250 -1.0584
  367MOL0     C49420   0.816   9.767  10.717 -0.5678  0.1396  0.6250
  367MOL0     C49421   0.711   9.863  10.662  0.2670  0.4265  0.1596
  367MOL0     C49422   0.683   9.842  10.513 -0.1403 -0.5527 -0.0698
  367MOL0     C49423   0.584   9.955  10.468  0.3359 -0.0237 -0.5640
  367MOL0     C49424   0.524   9.926  10.327 -0.1972 -0.9694 -0.7097
  367MOL0     C49425   0.622   9.965  10.213 -0.0061  1.0140 -0.5583
  367MOL0     C49426   0.600   9.888  10.083  0.6391 -0.1397  0.3948
  367MOL0     N49427   0.476   9.933  10.014  0.2765 -0.1367 -0.7031
  367MOL0     C49428   0.417  10.058  10.017  0.0760 -0.6538  0.4751
  367MOL0     C49429   0.292  10.043   9.971 -0.3964  0.7299 -0.1234
  367MOL0     C49430   0.183  10.141   9.979  0.2632  0.0417 -0.6096
  367MOL0     C49431   0.188  10.257   9.884 -0.6046  0.1090  1.1329
  367MOL0     C49432   0.056  10.333   9.891 -0.4782 -0.2476 -0.7138
  367MOL0     C49433  -0.053  10.254   9.815  0.5443  0.0465  0.8250
  367MOL0     O49434  -0.170  10.332   9.819 -0.1189 -0.4196  0.4969
  367MOL0     C49435  -0.264  10.330   9.715  0.2234  0.4169 -0.2970
  367MOL0     C49436  -0.307  10.448   9.661 -0.6995  0.0632 -0.3995
  367MOL0     C49437  -0.393  10.457   9.554  0.7503 -0.0199  0.3863
  367MOL0     C49438  -0.432  10.590   9.505 -0.2438  0.1630  0.4359
  367MOL0     C49439  -0.447  10.336   9.496 -0.1572 -0.4790  0.1889
  367MOL0     C49440  -0.532  10.334   9.370 -0.2364 -0.2388  0.7700
  367MOL0     O49441  -0.512  10.225   9.296  0.6973  0.3957  0.1210
  367MOL0     C49442  -0.603  10.175   9.203  0.0739 -0.4764  0.8641
  367MOL0     C49443  -0.739  10.154   9.229 -0.3374  0.0513 -0.1527
  367MOL0     C49444  -0.829  10.097   9.142  0.0874 -0.4324 -0.3935
  367MOL0     C49445  -0.789  10.060   9.024 -1.5821  0.1918  0.5954
  367MOL0     O49446  -0.881  10.043   8.927  0.4074 -0.1424  0.1017
  367MOL0     C49447  -0.934  10.171   8.883  0.6696 -0.7154 -0.0460
  367MOL0     C49448  -1.002  10.142   8.747  0.2243 -0.1141  0.5519
  367MOL0     C49449  -0.896  10.096   8.644 -0.5522 -0.3649 -0.4182
  367MOL0     C49450  -0.914  10.163   8.503  0.1456  0.3603 -1.0030
  367MOL0     C49451  -0.854  10.074   8.397 -0.3456 -0.2213 -1.0688
  367MOL0     C49452  -0.833  10.151   8.265  0.2022 -0.6150  0.7331
  367MOL0     C49453  -0.753  10.053   8.173 -0.5722 -0.4775 -0.3216
  367MOL0     C49454  -0.747  10.101   8.024 -0.6237 -0.6203 -0.3396
  367MOL0    Cl49455  -0.892  10.071   7.944 -0.2594  0.2624 -0.2915
  367MOL0     C49456  -0.649  10.068   8.995 -0.5435 -0.3659  0.3309
  367MOL0     C49457  -0.563  10.137   9.075  0.6782 -0.4233 -0.1422
  367MOL0     O49458  -0.619  10.417   9.349  0.3380 -0.6537 -0.1239
  367MOL0     C49459  -0.407  10.217   9.556 -0.0319  0.0388  1.0283
  367MOL0     C49460  -0.324  10.215   9.667 -0.2821  0.1005 -0.1966
  367MOL0     N49461   0.283   9.915   9.921  0.1204 -0.1121  0.0893
  367MOL0     N49462   0.386   9.851   9.960 -0.7758  0.4053  0.4649
  367MOL0     C49463   1.249   9.668  10.589  0.0296  0.1235 -0.2346
  367MOL0     C49464   1.384   9.693  10.558  0.0783  0.1352 -0.7969
  367MOL0     C49465   1.814   9.766  10.677  0.2710 -0.0906  0.1493
  367MOL0     C49466   1.900   9.688  10.763  0.1826 -0.1113  0.9184
  367MOL0     C49467   2.039   9.715  10.754 -0.6926  0.3550 -0.1035
  367MOL0     C49468   2.090   9.815  10.665  0.0869 -0.2302  0.4852
  367MOL0     O49469   2.227   9.838  10.643 -0.1995 -0.6332  0.2431
  367MOL0     C49470   2.324   9.746  10.696  0.2902  0.6744  0.1101
  367MOL0     C49471   2.319   9.596  10.641  0.3327  0.6887 -0.1304
  367MOL0     C49472   2.373   9.491  10.741  0.1315 -0.5160  0.4841
  367MOL0     C49473   2.523   9.507  10.778  0.2589  0.4323  0.0078
  367MOL0     C49474   2.612   9.496  10.666 -0.3872  0.9426 -0.0526
  367MOL0     C49475   2.681   9.508  10.565 -0.2889 -0.2360  0.4693
  367MOL0     C49476   2.004   9.898  10.592 -0.1469  0.4072 -0.0751
  367MOL0     C49477   1.867   9.873  10.605  0.3316 -0.2612  0.3327
  367MOL0     H49478   1.430   9.970  10.752  0.1341 -1.0082  0.0957
  367MOL0     H49479   1.190   9.935  10.800 -1.4739  2.7536 -2.9266
  367MOL0     H49480   0.968   9.913  10.738 -0.0558  0.1732 -1.7558
  367MOL0     H49481   0.958   9.865  10.574  2.2259 -0.0690 -0.9361
  367MOL0     H49482   0.799   9.667  10.676  1.4049 -0.3423  0.8430
  367MOL0     H49483   0.807   9.736  10.822 -1.6386 -4.4673 -0.5977
  367MOL0     H49484   0.616   9.840  10.713 -0.1123  2.2953  0.3420
  367MOL0     H49485   0.739   9.967  10.675 -0.9528  1.0675 -1.8801
  367MOL0     H49486   0.776   9.838  10.456  0.3008  0.2821  0.5585
  367MOL0     H49487   0.622   9.751  10.512  1.6335 -1.8059  0.4791
  367MOL0     H49488   0.505   9.959  10.545 -0.1461  1.4673 -1.0973
  367MOL0     H49489   0.631  10.053  10.482 -0.8258  0.2719  1.7458
  367MOL0     H49490   0.478   9.827  10.322 -2.0597 -0.2016  0.0997
  367MOL0     H49491   0.436   9.992  10.328  1.6853  1.8318 -3.4581
  367MOL0     H49492   0.637  10.071  10.192  0.3548  1.0974  0.0843
  367MOL0     H49493   0.721   9.935  10.248  0.7275  1.5586 -2.0379
  367MOL0     H49494   0.614   9.779  10.083  3.0630  0.1102  0.2512
  367MOL0     H49495   0.690   9.924  10.031  0.8267 -1.9005 -0.5734
  367MOL0     H49496   0.461  10.147  10.062  1.9657 -0.5122 -1.4654
  367MOL0     H49497   0.093  10.083   9.953 -1.2825  3.2296 -3.1730
  367MOL0     H49498   0.183  10.180  10.081  1.7521  0.2855 -0.6809
  367MOL0     H49499   0.218  10.225   9.784  1.6357  1.7042  1.2137
  367MOL0     H49500   0.260  10.335   9.911  0.2778  0.0472 -0.8647
  367MOL0     H49501   0.064  10.433   9.847  1.0354 -0.5504 -1.1719
  367MOL0     H49502   0.027  10.361   9.992  0.6834  1.9407 -0.9387
  367MOL0     H49503  -0.080  10.158   9.859 -2.6771  0.3211 -0.3107
  367MOL0     H49504  -0.030  10.232   9.710 -0.5788 -0.4687  0.6788
  367MOL0     H49505  -0.259  10.534   9.706  1.5817 -1.4425  0.1991
  367MOL0     H49506  -0.435  10.591   9.395  1.5057  0.5951  0.3588
  367MOL0     H49507  -0.535  10.611   9.534 -0.1562  2.0256 -0.4597
  367MOL0     H49508  -0.363  10.667   9.542 -2.6228  1.9912  1.2866
  367MOL0     H49509  -0.766  10.189   9.328  3.1819 -2.6350  2.0081
  367MOL0     H49510  -0.937  10.098   9.153 -0.0283  0.1779 -1.4345
  367MOL0     H49511  -0.999  10.213   8.960  1.2554 -1.8234  1.1006
  367MOL0     H49512  -0.850  10.241   8.876  1.3857 -1.1506  2.8044
  367MOL0     H49513  -1.071  10.059   8.759 -1.6849  0.6662 -3.3557
  367MOL0     H49514  -1.051  10.227   8.699  0.1007 -0.9511 -0.8405
  367MOL0     H49515  -0.897   9.987   8.638 -1.5532 -0.3286 -1.2187
  367MOL0     H49516  -0.798  10.126   8.684 -2.3100  1.0177  3.2671
  367MOL0     H49517  -1.021  10.177   8.489  0.1990  1.4610 -0.3854
  367MOL0     H49518  -0.874  10.264   8.509  4.2811 -0.8868 -3.3914
  367MOL0     H49519  -0.906   9.979   8.382  0.2579 -0.7856  0.2750
  367MOL0     H49520  -0.752  10.058   8.434 -1.7487 -0.8559  3.0402
  367MOL0     H49521  -0.929  10.174   8.217 -0.4594  2.1412  3.0712
  367MOL0     H49522  -0.788  10.250   8.274  0.4549 -0.4430 -1.8237
  367MOL0     H49523  -0.767   9.945   8.178  2.9558 -1.1323 -1.6813
  367MOL0     H49524  -0.650  10.059   8.209 -1.3983  4.3560  2.1171
  367MOL0     H49525  -0.676  10.042   7.966  0.0030 -0.7020  0.4832
  367MOL0     H49526  -0.721  10.207   8.016  1.0855 -0.9207  0.6897
  367MOL0     H49527  -0.630  10.054   8.889 -0.8920  3.5030 -0.3968
  367MOL0     H49528  -0.464  10.173   9.051  0.2483  1.3462  0.5765
  367MOL0     H49529  -0.460  10.128   9.525  0.7980 -0.2105  0.2676
  367MOL0     H49530  -0.317  10.121   9.721 -0.8341  1.1634  1.8536
  367MOL0     H49531   1.201   9.574  10.565 -1.3875  0.7863 -0.0992
  367MOL0     H49532   1.444   9.632  10.491  2.8490  2.3845 -0.4999
  367MOL0     H49533   1.846   9.635  10.841 -1.4148  0.2364  0.1002
  367MOL0     H49534   2.110   9.657  10.813  0.4187  0.0958 -1.6470
  367MOL0     H49535   2.420   9.796  10.683  0.8876 -0.6408 -0.7367
  367MOL0     H49536   2.322   9.739  10.805  1.3723 -2.5671  0.0276
  367MOL0     H49537   2.375   9.584  10.548  0.7774  0.9016  0.1090
  367MOL0     H49538   2.216   9.569  10.617  1.1161 -0.9735 -1.9434
  367MOL0     H49539   2.364   9.387  10.708  0.9117 -0.2580 -0.6184
  367MOL0     H49540   2.311   9.482  10.830 -0.5305  1.5010  0.2753
  367MOL0     H49541   2.549   9.423  10.844 -0.1445  0.0966 -0.2596
  367MOL0     H49542   2.545   9.594  10.840 -1.6104  0.4964  0.6312
  367MOL0     H49543   2.736   9.527  10.475 -4.3306  0.0636 -2.2536
  367MOL0     H49544   2.048   9.974  10.528 -2.8194  0.2236 -2.2698
  367MOL0     H49545   1.798   9.919  10.535  0.3334 -1.2627 -0.3443
  368MOL0     O49546   7.895   5.028   9.675 -0.1931  0.5557  0.1228
  368MOL0     C49547   7.975   5.090   9.605 -0.3478  0.6196 -0.5427
  368MOL0     O49548   7.945   5.197   9.526 -0.4244  0.1142 -0.7263
  368MOL0     C49549   7.824   5.211   9.469 -0.0416 -0.0657 -0.5505
  368MOL0     C49550   7.737   5.102   9.447  0.2929  0.6479  1.2105
  368MOL0     C49551   7.610   5.129   9.388 -0.5065  0.1698 -0.5893
  368MOL0     C49552   7.567   5.257   9.364 -0.4228 -0.0820 -0.2191
  368MOL0     O49553   7.443   5.287   9.310 -0.9718  0.0375 -0.2931
  368MOL0     C49554   7.355   5.184   9.279  0.1780 -0.2483 -0.2404
  368MOL0     C49555   7.241   5.249   9.212  0.1345 -0.4666 -0.7628
  368MOL0     C49556   7.128   5.266   9.309  0.8410  0.5422 -1.0268
  368MOL0     C49557   7.027   5.373   9.257 -0.0581  0.2769  0.8680
  368MOL0     C49558   6.918   5.375   9.360  0.7554  0.6272  0.1027
  368MOL0     C49559   6.800   5.456   9.307  0.7808  0.2042 -0.5829
  368MOL0     C49560   6.681   5.469   9.407 -0.1019 -0.1667 -0.0677
  368MOL0     C49561   6.584   5.576   9.363  0.0995 -0.4474  0.5259
  368MOL0     N49562   6.444   5.564   9.411 -0.2375  0.9642  0.4924
  368MOL0     C49563   6.412   5.530   9.542 -0.0449 -0.1371  0.1447
  368MOL0     C49564   6.273   5.504   9.535 -0.0101  0.1511  0.7741
  368MOL0     C49565   6.171   5.485   9.642 -0.2603  1.1126  0.3692
  368MOL0     C49566   6.154   5.625   9.709 -0.0218  0.5501  0.5144
  368MOL0     C49567   6.079   5.728   9.628  0.7366 -0.2159 -0.1230
  368MOL0     C49568   5.947   5.681   9.589  1.3083 -0.2931 -0.4896
  368MOL0     O49569   5.872   5.793   9.544  0.2128  0.3001 -0.2411
  368MOL0     C49570   5.734   5.784   9.523  1.2623  0.3852  0.4876
  368MOL0     C49571   5.662   5.898   9.537  0.0016  0.2755  0.1178
  368MOL0     C49572   5.528   5.910   9.504 -1.0266  0.4701 -0.6175
  368MOL0     C49573   5.460   6.051   9.524 -1.0885 -0.3351  0.6938
  368MOL0     C49574   5.456   5.789   9.461  0.6943  0.4075  0.1767
  368MOL0     C49575   5.316   5.784   9.415  0.1816 -0.1409  0.4830
  368MOL0     O49576   5.264   5.679   9.347 -0.4612  0.2456 -0.6818
  368MOL0     C49577   5.137   5.662   9.311 -0.3177 -0.3484  0.2922
  368MOL0     C49578   5.089   5.537   9.331 -1.3733  0.3704  0.8994
  368MOL0     C49579   4.963   5.500   9.281  1.2403  0.1136  0.8082
  368MOL0     C49580   4.895   5.592   9.196  0.3858  1.0733  0.2091
  368MOL0     O49581   4.773   5.565   9.144  0.2050 -0.2458  0.4912
  368MOL0     C49582   4.711   5.447   9.180  0.4837 -0.0377 -0.2617
  368MOL0     C49583   4.595   5.432   9.074 -1.2186 -0.4297 -0.4880
  368MOL0     C49584   4.467   5.504   9.116 -0.8515 -0.4175 -0.0414
  368MOL0     C49585   4.391   5.442   9.235 -0.0164  0.2668  0.5836
  368MOL0     C49586   4.258   5.503   9.271  0.1742  0.0709 -0.6851
  368MOL0     C49587   4.162   5.407   9.341  0.2505 -0.5213 -0.1962
  368MOL0     C49588   4.018   5.434   9.288  0.2686  0.1377  0.3117
  368MOL0     C49589   3.985   5.584   9.340 -0.3590  0.0724  0.1426
  368MOL0    Cl49590   3.806   5.604   9.351 -0.3290 -0.0887 -0.3363
  368MOL0     C49591   4.946   5.716   9.169 -0.3495  0.4913  0.2235
  368MOL0     C49592   5.072   5.754   9.227  0.2004  0.4351  0.3899
  368MOL0     O49593   5.241   5.862   9.471  0.5174 -0.7095  0.2319
  368MOL0     C49594   5.527   5.674   9.442 -0.1500  0.6228  0.1603
  368MOL0     C49595   5.668   5.678   9.468 -0.0884  1.0095  0.0125
  368MOL0     N49596   6.239   5.521   9.402  0.0211 -0.7370 -0.8323
  368MOL0     N49597   6.335   5.549   9.332  0.5571  0.3616 -0.6031
  368MOL0     C49598   7.652   5.367   9.385 -0.5060  0.7127 -0.5224
  368MOL0     C49599   7.786   5.342   9.437  0.7565  0.0844  0.0717
  368MOL0     C49600   8.118   5.052   9.629 -0.2005 -0.0159 -0.4485
  368MOL0     C49601   8.163   4.944   9.706  1.1656  0.6633  0.1296
  368MOL0     C49602   8.298   4.917   9.721 -0.9802 -0.0048  0.4460
  368MOL0     C49603   8.397   5.013   9.667 -0.5442 -0.1792 -0.3637
  368MOL0     O49604   8.524   4.989   9.670  0.0584  0.1729  0.0170
  368MOL0     C49605   8.599   4.917   9.773 -0.4287 -0.4607 -0.5766
  368MOL0     C49606   8.601   4.980   9.912 -0.5333 -0.6401 -1.2687
  368MOL0     C49607   8.654   5.123   9.922  0.2231  0.4698  0.4278
  368MOL0     C49608   8.649   5.182  10.063 -0.4762 -0.2169  0.3819
  368MOL0     C49609   8.714   5.316  10.061  0.8260 -0.3063  0.5708
  368MOL0     C49610   8.762   5.428  10.073  0.2205  0.6979  0.4768
  368MOL0     C49611   8.347   5.121   9.592  0.0322 -0.6957 -0.5673
  368MOL0     C49612   8.209   5.142   9.575 -0.8644  0.1037 -0.1138
  368MOL0     H49613   7.758   4.998   9.471  2.8632  1.1047  1.1516
  368MOL0     H49614   7.556   5.038   9.365 -2.1115  1.1768 -0.9079
  368MOL0     H49615   7.400   5.125   9.199 -1.0218 -3.0055  1.0029
  368MOL0     H49616   7.330   5.127   9.369 -1.2088 -1.2713 -1.2389
  368MOL0     H49617   7.267   5.349   9.176 -1.8336 -0.2318 -1.6333
  368MOL0     H49618   7.199   5.189   9.131 -1.5735 -2.4318  1.4449
  368MOL0     H49619   7.071   5.173   9.312 -1.4226  1.8241 -1.7354
  368MOL0     H49620   7.167   5.292   9.407  0.4894 -2.9708  0.2000
  368MOL0     H49621   7.074   5.471   9.244  0.6542 -0.4386 -3.3342
  368MOL0     H49622   6.990   5.347   9.157  3.0698 -0.2135 -0.2928
  368MOL0     H49623   6.890   5.273   9.385  0.1701  0.6403 -0.4659
  368MOL0     H49624   6.952   5.418   9.455 -1.9976  3.0496  0.1247
  368MOL0     H49625   6.838   5.559   9.299  0.2619  0.4618  0.1591
  368MOL0     H49626   6.783   5.434   9.201  1.8652 -1.2243 -0.4907
  368MOL0     H49627   6.640   5.368   9.404 -2.0643  0.5864  0.1007
  368MOL0     H49628   6.722   5.491   9.507  0.6903 -0.4996 -0.3092
  368MOL0     H49629   6.582   5.576   9.253 -1.3287  0.5823  0.5211
  368MOL0     H49630   6.619   5.672   9.402 -1.7850  1.2833 -1.7488
  368MOL0     H49631   6.469   5.515   9.633 -0.3362  0.9434  0.5179
  368MOL0     H49632   6.078   5.446   9.601 -0.6917  2.7573 -0.2872
  368MOL0     H49633   6.219   5.420   9.716  0.7610  3.2402  1.6817
  368MOL0     H49634   6.242   5.655   9.766 -1.2667  2.4101  1.5341
  368MOL0     H49635   6.091   5.616   9.798 -1.7383  2.5252 -0.4251
  368MOL0     H49636   6.136   5.762   9.541  2.0372  2.2215  1.5597
  368MOL0     H49637   6.073   5.810   9.700  3.2297 -1.3684  1.5729
  368MOL0     H49638   5.896   5.635   9.674  1.3710  3.3803  1.7534
  368MOL0     H49639   5.959   5.619   9.499  2.4614  0.1256 -0.6385
  368MOL0     H49640   5.715   5.989   9.564  0.7349 -0.3717  0.9334
  368MOL0     H49641   5.527   6.135   9.543 -0.5850 -0.4868 -0.3485
  368MOL0     H49642   5.412   6.074   9.428 -0.3206 -3.3530 -0.5375
  368MOL0     H49643   5.385   6.048   9.604  0.3608 -1.5612  2.0847
  368MOL0     H49644   5.157   5.468   9.381  0.8428  0.5539 -1.6301
  368MOL0     H49645   4.924   5.403   9.308  0.8392 -0.3623 -1.3434
  368MOL0     H49646   4.777   5.360   9.172  0.9455  0.4120 -1.8283
  368MOL0     H49647   4.666   5.455   9.279 -0.7112 -0.3096 -0.7637
  368MOL0     H49648   4.634   5.466   8.978  1.2553 -2.0651 -0.1616
  368MOL0     H49649   4.579   5.324   9.067 -1.2600 -0.5747  1.3679
  368MOL0     H49650   4.400   5.506   9.029  0.8210  1.1850 -1.3701
  368MOL0     H49651   4.491   5.608   9.136 -1.5287 -0.0809 -0.9101
  368MOL0     H49652   4.381   5.335   9.213 -0.6815  0.3017  0.6985
  368MOL0     H49653   4.458   5.453   9.321 -1.7566  0.4192  1.9758
  368MOL0     H49654   4.219   5.550   9.180  2.2398  1.5866 -0.8466
  368MOL0     H49655   4.275   5.577   9.349  0.4729  0.8363 -1.4585
  368MOL0     H49656   4.195   5.305   9.321  1.1833 -0.1063 -0.8269
  368MOL0     H49657   4.162   5.425   9.449  0.0051 -2.6909  0.2116
  368MOL0     H49658   3.943   5.368   9.333 -0.4205 -0.1908 -1.2603
  368MOL0     H49659   4.010   5.410   9.182 -1.2690 -2.0128  0.8393
  368MOL0     H49660   4.011   5.653   9.259 -2.4864 -2.0387 -2.5334
  368MOL0     H49661   4.018   5.601   9.443  0.5430  0.8610 -0.2631
  368MOL0     H49662   4.887   5.793   9.120 -1.3240  1.7078  3.1055
  368MOL0     H49663   5.123   5.845   9.199 -0.1471  0.1740 -1.2007
  368MOL0     H49664   5.484   5.584   9.401  0.5248  1.3290 -2.2714
  368MOL0     H49665   5.727   5.588   9.458 -0.0404  1.1787 -1.4217
  368MOL0     H49666   7.624   5.469   9.363 -4.3215 -0.3963 -1.5965
  368MOL0     H49667   7.854   5.425   9.448  2.2327 -0.9346 -1.0496
  368MOL0     H49668   8.095   4.867   9.742 -1.8182  2.3331 -1.5448
  368MOL0     H49669   8.327   4.831   9.779 -1.9414 -2.3309 -2.2745
  368MOL0     H49670   8.557   4.818   9.793 -1.8698  0.2565  0.1419
  368MOL0     H49671   8.704   4.910   9.743 -0.2498  0.5562 -0.2361
  368MOL0     H49672   8.674   4.924   9.971  0.0967  0.3599 -1.0768
  368MOL0     H49673   8.499   4.991   9.952  0.4161  4.7664  0.4126
  368MOL0     H49674   8.601   5.188   9.853  1.6133 -0.6770 -1.8301
  368MOL0     H49675   8.758   5.109   9.890  0.0323  0.6901 -0.2952
  368MOL0     H49676   8.708   5.124  10.135 -4.8159 -0.6627  3.9940
  368MOL0     H49677   8.544   5.185  10.093 -1.3018 -0.2159 -2.2299
  368MOL0     H49678   8.791   5.531  10.077  0.5210  0.5661  2.2476
  368MOL0     H49679   8.427   5.184   9.553  2.0130 -2.1308  0.9551
  368MOL0     H49680   8.180   5.229   9.519  3.1419  0.3310 -2.2330
  369MOL0     O49681   0.270   8.816   3.329  0.3081 -0.2866  0.3138
  369MOL0     C49682   0.341   8.778   3.424  0.1419  0.9345  0.4978
  369MOL0     O49683   0.296   8.743   3.545  0.0811  0.1676 -0.4432
  369MOL0     C49684   0.176   8.786   3.588  1.1894 -0.8391  0.3097
  369MOL0     C49685   0.058   8.769   3.508  0.0123 -0.1361 -1.0412
  369MOL0     C49686  -0.069   8.826   3.554  0.2357  0.5012 -0.2458
  369MOL0     C49687  -0.072   8.913   3.661 -0.3724 -0.6260  0.0456
  369MOL0     O49688  -0.190   8.972   3.684  0.2188  0.0731  0.1395
  369MOL0     C49689  -0.239   8.969   3.813  0.5626  0.5240 -0.5475
  369MOL0     C49690  -0.375   9.053   3.814  0.0764  0.4927  0.2337
  369MOL0     C49691  -0.431   9.052   3.955  1.1142 -1.1553 -0.8589
  369MOL0     C49692  -0.577   9.096   3.962 -0.1861 -0.1712 -0.0615
  369MOL0     C49693  -0.670   8.971   3.938  0.1878  0.4351 -0.5293
  369MOL0     C49694  -0.664   8.873   4.066 -0.0844  0.3977  0.6602
  369MOL0     C49695  -0.722   8.935   4.194  0.5385 -1.0055 -0.8888
  369MOL0     C49696  -0.773   8.825   4.291  0.6327 -0.4688 -0.2416
  369MOL0     N49697  -0.906   8.858   4.355 -0.5617  0.5975 -0.9413
  369MOL0     C49698  -1.035   8.801   4.327 -0.1196 -0.2371 -0.0908
  369MOL0     C49699  -1.116   8.870   4.414 -0.9537 -0.5629  1.6110
  369MOL0     C49700  -1.266   8.864   4.423 -0.1309  0.3429 -0.2456
  369MOL0     C49701  -1.337   8.992   4.370  0.6644 -0.3111  0.6945
  369MOL0     C49702  -1.294   9.115   4.449 -0.5475 -0.1977  0.0015
  369MOL0     C49703  -1.307   9.095   4.600  1.0765  1.2677  0.2576
  369MOL0     O49704  -1.432   9.050   4.650 -0.1360  0.1217  0.1093
  369MOL0     C49705  -1.542   9.135   4.643  0.0368 -0.0927 -0.0748
  369MOL0     C49706  -1.540   9.271   4.625 -0.4602  0.0991  0.5118
  369MOL0     C49707  -1.660   9.345   4.614  0.5574 -0.0539 -0.1585
  369MOL0     C49708  -1.652   9.491   4.589 -0.7612  0.0079  0.4773
  369MOL0     C49709  -1.791   9.288   4.637 -0.8936 -0.3724  0.3720
  369MOL0     C49710  -1.926   9.361   4.638 -0.6359  0.2055 -0.7627
  369MOL0     O49711  -2.030   9.290   4.694  0.1591 -0.2600  0.3864
  369MOL0     C49712  -2.159   9.332   4.693  0.0517 -1.0838 -0.5859
  369MOL0     C49713  -2.249   9.233   4.728  0.0782  0.6846  0.3664
  369MOL0     C49714  -2.385   9.245   4.722  1.2502  0.0581  0.1180
  369MOL0     C49715  -2.437   9.364   4.688  0.9197 -0.6124  0.4617
  369MOL0     O49716  -2.570   9.363   4.684  0.1582  0.7443 -0.3173
  369MOL0     C49717  -2.645   9.483   4.684  0.3646 -0.3040 -0.2555
  369MOL0     C49718  -2.792   9.450   4.665 -0.7394  0.1281 -0.3914
  369MOL0     C49719  -2.870   9.584   4.658  0.6555  0.0080 -0.3514
  369MOL0     C49720  -3.017   9.545   4.671  0.2898 -0.0065 -0.9746
  369MOL0     C49721  -3.116   9.670   4.661 -0.1073 -0.1864 -0.0578
  369MOL0     C49722  -3.260   9.622   4.670  0.3401  0.0087 -0.5065
  369MOL0     C49723  -3.373   9.725   4.657  0.0990 -0.2260  0.1606
  369MOL0     C49724  -3.508   9.646   4.631  0.4743  0.0906  0.0232
  369MOL0    Cl49725  -3.658   9.755   4.645  0.2550  0.1949 -1.0001
  369MOL0     C49726  -2.352   9.473   4.656  0.4066 -0.5202  0.7443
  369MOL0     C49727  -2.213   9.452   4.643  0.2389  0.5302 -0.2078
  369MOL0     O49728  -1.935   9.471   4.586 -0.2707  0.6013  0.3065
  369MOL0     C49729  -1.790   9.152   4.685 -0.9795 -0.8876  0.2985
  369MOL0     C49730  -1.661   9.076   4.681  0.1514  0.5007 -0.1619
  369MOL0     N49731  -1.032   8.945   4.488 -1.1375 -0.6276 -0.0269
  369MOL0     N49732  -0.906   8.946   4.457 -0.6151  0.4636 -0.2221
  369MOL0     C49733   0.041   8.924   3.745  0.4616  0.0983  0.6486
  369MOL0     C49734   0.160   8.861   3.701 -0.3203 -0.5905 -0.1329
  369MOL0     C49735   0.488   8.764   3.404  0.1831  0.1662 -0.5709
  369MOL0     C49736   0.565   8.710   3.504 -0.5821  0.2902  0.8402
  369MOL0     C49737   0.700   8.690   3.483 -0.4035  0.9487 -0.1366
  369MOL0     C49738   0.761   8.720   3.371  0.4946 -0.3634  0.5323
  369MOL0     O49739   0.896   8.705   3.370 -0.5278 -0.2974 -0.0679
  369MOL0     C49740   0.986   8.778   3.287  0.1004 -0.1782  0.2188
  369MOL0     C49741   1.115   8.801   3.360 -0.0482 -0.2809 -0.4431
  369MOL0     C49742   1.187   8.675   3.411  0.1929 -0.0283 -0.2117
  369MOL0     C49743   1.307   8.728   3.491 -0.5247 -0.2328  0.7177
  369MOL0     C49744   1.368   8.615   3.557  0.7612 -0.1363  0.0336
  369MOL0     C49745   1.396   8.512   3.609  0.2330  0.0837 -0.2897
  369MOL0     C49746   0.680   8.783   3.273 -0.0848  0.0074  0.3488
  369MOL0     C49747   0.545   8.803   3.284 -0.3078  0.3217 -0.6214
  369MOL0     H49748   0.061   8.699   3.424  0.1892 -0.8683 -0.4328
  369MOL0     H49749  -0.160   8.816   3.495  1.9904  0.4370 -3.1041
  369MOL0     H49750  -0.249   8.866   3.846 -0.5846  0.2212 -1.7154
  369MOL0     H49751  -0.166   9.010   3.883 -1.2841  4.0505 -0.4349
  369MOL0     H49752  -0.376   9.154   3.771 -1.7588  1.6402  2.7650
  369MOL0     H49753  -0.450   8.998   3.757  0.4871  0.5549 -0.3738
  369MOL0     H49754  -0.419   8.955   4.005  0.6540  0.0070  1.6834
  369MOL0     H49755  -0.390   9.136   4.012  1.4638 -0.3039 -2.3129
  369MOL0     H49756  -0.611   9.140   4.056 -0.7703 -1.7024  0.4917
  369MOL0     H49757  -0.591   9.170   3.883 -0.7191  0.0041  0.1914
  369MOL0     H49758  -0.771   9.011   3.938  0.3199  0.8037  0.3880
  369MOL0     H49759  -0.636   8.926   3.844 -0.0607  1.7895 -1.2865
  369MOL0     H49760  -0.736   8.790   4.059  0.1368  0.3052 -0.7949
  369MOL0     H49761  -0.563   8.840   4.090  0.5161  1.3842 -0.4734
  369MOL0     H49762  -0.650   9.002   4.242 -1.4720 -1.0192  2.4524
  369MOL0     H49763  -0.806   8.999   4.167  1.9183  1.8641  1.1116
  369MOL0     H49764  -0.702   8.821   4.374 -0.3685  1.2607  0.7785
  369MOL0     H49765  -0.787   8.726   4.246 -1.2014  0.0101 -0.8300
  369MOL0     H49766  -1.066   8.729   4.252 -3.2692  2.7919 -1.9880
  369MOL0     H49767  -1.312   8.781   4.369  0.1539 -0.6607  1.0075
  369MOL0     H49768  -1.291   8.831   4.524  0.6849 -1.5633 -0.6167
  369MOL0     H49769  -1.446   8.976   4.367  0.7772 -1.3405  1.5267
  369MOL0     H49770  -1.309   9.001   4.264 -1.4124 -2.4372 -0.1534
  369MOL0     H49771  -1.355   9.200   4.419 -0.2182  0.1500  0.3141
  369MOL0     H49772  -1.193   9.151   4.429  0.7862 -2.7075  1.6475
  369MOL0     H49773  -1.278   9.194   4.636 -1.1920  2.4498 -0.9281
  369MOL0     H49774  -1.219   9.040   4.635  1.8681  1.9632 -0.5750
  369MOL0     H49775  -1.443   9.319   4.623  1.3784 -3.1119  3.0582
  369MOL0     H49776  -1.548   9.527   4.591 -1.6253  2.9406 -0.9263
  369MOL0     H49777  -1.691   9.508   4.488  0.9997 -1.8194 -0.5869
  369MOL0     H49778  -1.704   9.547   4.668  1.3576 -1.2513  2.9253
  369MOL0     H49779  -2.212   9.135   4.757 -2.6007  0.2291  2.6756
  369MOL0     H49780  -2.452   9.161   4.742  0.7643 -0.9588 -4.6023
  369MOL0     H49781  -2.634   9.542   4.775 -1.2161  1.2589 -1.0215
  369MOL0     H49782  -2.612   9.544   4.599 -0.1440  0.2509 -0.0603
  369MOL0     H49783  -2.806   9.376   4.586  0.5922  1.1454 -1.6512
  369MOL0     H49784  -2.819   9.394   4.754 -1.3373 -1.0507 -1.2859
  369MOL0     H49785  -2.864   9.642   4.566  1.0759  0.4685 -0.0400
  369MOL0     H49786  -2.836   9.643   4.744  1.5481  3.6126 -2.9650
  369MOL0     H49787  -3.034   9.480   4.585 -0.9287  1.5831 -1.9841
  369MOL0     H49788  -3.038   9.486   4.761  0.5212 -3.1606 -2.8610
  369MOL0     H49789  -3.108   9.719   4.563  0.8634 -1.2123 -0.5237
  369MOL0     H49790  -3.091   9.742   4.739 -0.8384 -0.2386  0.2260
  369MOL0     H49791  -3.269   9.532   4.610 -1.3472 -0.3985  0.3094
  369MOL0     H49792  -3.269   9.578   4.770 -1.0014  0.4327 -0.4179
  369MOL0     H49793  -3.342   9.792   4.576  0.2316 -0.8729 -0.3317
  369MOL0     H49794  -3.382   9.792   4.743 -0.1652  3.8866 -2.7497
  369MOL0     H49795  -3.526   9.555   4.689 -1.3482 -0.6904 -1.6706
  369MOL0     H49796  -3.516   9.615   4.527 -4.6533  1.6737 -0.3003
  369MOL0     H49797  -2.397   9.567   4.623  2.4975  0.6301  1.0420
  369MOL0     H49798  -2.163   9.543   4.612 -0.3139  0.4715 -1.3352
  369MOL0     H49799  -1.885   9.107   4.711 -3.4512  1.4089 -3.7047
  369MOL0     H49800  -1.652   8.974   4.718  2.4632  0.7767  0.2236
  369MOL0     H49801   0.053   8.984   3.834  1.1637 -1.1124  1.4134
  369MOL0     H49802   0.240   8.879   3.771 -1.1380  1.3686  0.3746
  369MOL0     H49803   0.522   8.700   3.603 -0.5372  1.7314  1.0210
  369MOL0     H49804   0.762   8.656   3.565 -0.2330  2.7857  0.5452
  369MOL0     H49805   1.016   8.723   3.198  0.0054  1.6450 -0.9854
  369MOL0     H49806   0.937   8.872   3.260 -0.1922  0.0852  1.5888
  369MOL0     H49807   1.093   8.871   3.441  1.2524 -0.4273  0.0616
  369MOL0     H49808   1.178   8.849   3.284 -1.4680  3.0099  0.2471
  369MOL0     H49809   1.225   8.617   3.326  1.0355 -1.2107  0.9315
  369MOL0     H49810   1.115   8.623   3.475  1.2348 -1.9497 -0.5269
  369MOL0     H49811   1.274   8.803   3.565 -1.9857  0.8890 -0.9803
  369MOL0     H49812   1.384   8.768   3.424 -0.8454 -3.3488 -1.7063
  369MOL0     H49813   1.444   8.426   3.653 -0.2920  0.0060  0.1356
  369MOL0     H49814   0.730   8.825   3.186 -0.6713  2.4853  1.1314
  369MOL0     H49815   0.472   8.838   3.212  0.7620  1.9221 -0.9904
  370MOL0     O49816   6.415   2.200   9.783  0.3983  0.2067 -0.9814
  370MOL0     C49817   6.507   2.269   9.834  0.3664 -0.6015 -0.0313
  370MOL0     O49818   6.518   2.407   9.819 -0.6873  0.4718  0.0549
  370MOL0     C49819   6.426   2.489   9.770 -1.0318  0.2233  0.9776
  370MOL0     C49820   6.373   2.597   9.843 -0.9194  0.5191 -0.0145
  370MOL0     C49821   6.279   2.682   9.790  0.6474  0.1699 -0.1969
  370MOL0     C49822   6.238   2.675   9.653  0.4015  0.0871 -0.7324
  370MOL0     O49823   6.158   2.774   9.610  0.2092  0.4792 -0.6677
  370MOL0     C49824   6.052   2.743   9.521  1.1163  0.3729  0.6360
  370MOL0     C49825   5.930   2.842   9.520 -0.4973 -0.0993  0.0067
  370MOL0     C49826   5.812   2.784   9.449  1.4935 -0.1044 -0.6080
  370MOL0     C49827   5.700   2.893   9.424  0.9573 -0.9210  0.2413
  370MOL0     C49828   5.593   2.838   9.336 -0.4881  0.2400 -0.6358
  370MOL0     C49829   5.495   2.948   9.286 -0.3408 -0.3583  0.4780
  370MOL0     C49830   5.398   3.008   9.388 -0.7482  0.7187 -0.0104
  370MOL0     C49831   5.311   3.102   9.313  0.0119  0.3188 -0.0943
  370MOL0     N49832   5.205   3.156   9.396  0.2116 -0.2890 -0.0760
  370MOL0     C49833   5.072   3.170   9.365 -0.3067  0.0105  0.0398
  370MOL0     C49834   5.013   3.244   9.469 -0.1857  1.0092 -0.5750
  370MOL0     C49835   4.868   3.283   9.479  0.3149  0.0741  0.1969
  370MOL0     C49836   4.771   3.161   9.491 -0.6768  0.3149 -0.8595
  370MOL0     C49837   4.626   3.206   9.510 -0.3798  0.8259  0.1459
  370MOL0     C49838   4.532   3.089   9.485 -0.4819 -1.0170 -0.3792
  370MOL0     O49839   4.482   3.100   9.346  0.2188 -0.2508 -0.4799
  370MOL0     C49840   4.345   3.089   9.353  0.3287 -0.6661  0.2608
  370MOL0     C49841   4.282   2.961   9.352  0.5917 -0.0155  0.0005
  370MOL0     C49842   4.143   2.951   9.374  0.1234 -0.2001  0.1303
  370MOL0     C49843   4.083   2.808   9.392 -0.5681 -0.1328  0.5153
  370MOL0     C49844   4.066   3.064   9.387  0.2298 -0.1288  0.2969
  370MOL0     C49845   3.914   3.059   9.396 -0.4869  0.3159 -1.5156
  370MOL0     O49846   3.859   3.180   9.442 -0.3936  0.0022 -0.2230
  370MOL0     C49847   3.724   3.183   9.433  1.2415 -1.0418 -0.1052
  370MOL0     C49848   3.654   3.229   9.320  0.0239 -0.2939  0.7038
  370MOL0     C49849   3.516   3.233   9.310  0.3451 -0.2900 -0.5084
  370MOL0     C49850   3.445   3.197   9.426 -0.8529  0.2882 -1.0808
  370MOL0     O49851   3.312   3.177   9.411  0.1954 -0.2324  0.2854
  370MOL0     C49852   3.245   3.076   9.482 -0.4515  0.7109 -0.1185
  370MOL0     C49853   3.103   3.067   9.434 -0.5831  0.0532  0.6548
  370MOL0     C49854   3.018   2.954   9.490 -0.4066 -0.1161 -0.1200
  370MOL0     C49855   2.991   2.969   9.641  0.6866  0.0349  0.2943
  370MOL0     C49856   2.918   2.835   9.692  1.0573  1.1387 -0.0299
  370MOL0     C49857   3.015   2.718   9.702 -0.3863 -0.2909 -0.3494
  370MOL0     C49858   3.104   2.739   9.823  0.6713  0.4714  0.8455
  370MOL0     C49859   3.185   2.616   9.846 -0.0450  0.4013 -0.3614
  370MOL0    Cl49860   3.294   2.604   9.712 -0.0279 -0.2220  0.2849
  370MOL0     C49861   3.509   3.148   9.545  0.1853 -0.2938 -0.5010
  370MOL0     C49862   3.653   3.145   9.551 -0.0804  0.0618  0.1871
  370MOL0     O49863   3.851   2.966   9.350  0.1133 -0.5806  0.3675
  370MOL0     C49864   4.128   3.187   9.382 -0.1234  0.9781  0.7722
  370MOL0     C49865   4.259   3.202   9.369 -0.8264 -0.0172 -0.3050
  370MOL0     N49866   5.114   3.275   9.557 -0.1670  0.4084  0.0284
  370MOL0     N49867   5.222   3.223   9.511 -0.5378 -0.2366  0.2082
  370MOL0     C49868   6.287   2.561   9.576  0.8394 -0.3603  0.4890
  370MOL0     C49869   6.392   2.478   9.630  0.0072  0.4081  0.2175
  370MOL0     C49870   6.602   2.205   9.919  0.3631  0.1868 -0.4434
  370MOL0     C49871   6.574   2.082   9.989 -0.2959  0.0411  0.5651
  370MOL0     C49872   6.669   2.002  10.047 -0.0269 -0.6140  0.1051
  370MOL0     C49873   6.801   2.050  10.056  0.6637  0.4072 -1.0458
  370MOL0     O49874   6.890   1.965  10.116  0.0308 -0.0284 -0.5256
  370MOL0     C49875   7.015   2.016  10.165 -0.3513 -0.3206 -0.8775
  370MOL0     C49876   7.091   1.916  10.250  0.1257  0.8316  1.1362
  370MOL0     C49877   7.045   1.916  10.395  0.0784  0.4122  0.0330
  370MOL0     C49878   7.105   1.808  10.470 -0.3546 -0.0211 -0.4117
  370MOL0     C49879   7.047   1.680  10.435 -0.0219  0.1418 -0.5260
  370MOL0     C49880   6.989   1.577  10.428  0.2106  0.1245 -0.0017
  370MOL0     C49881   6.832   2.175   9.995 -0.1630 -0.3602  0.2635
  370MOL0     C49882   6.731   2.252   9.931  0.1064  0.3062 -0.3860
  370MOL0     H49883   6.392   2.604   9.949  1.2417 -0.6036 -0.2673
  370MOL0     H49884   6.240   2.768   9.842  1.7460  1.8098 -1.9652
  370MOL0     H49885   6.094   2.751   9.421 -0.8085 -0.8981 -0.3344
  370MOL0     H49886   6.007   2.645   9.539  2.0851 -0.2319 -0.1400
  370MOL0     H49887   5.896   2.875   9.618 -0.1354  0.8113 -0.1690
  370MOL0     H49888   5.957   2.929   9.459 -2.7116  1.8906  1.7008
  370MOL0     H49889   5.841   2.741   9.353 -0.9192 -0.4198 -1.2589
  370MOL0     H49890   5.767   2.714   9.520  1.4145  0.6468  0.1051
  370MOL0     H49891   5.652   2.917   9.519 -0.9047 -3.9038  0.2180
  370MOL0     H49892   5.748   2.980   9.378 -0.7811  0.1767  0.4204
  370MOL0     H49893   5.636   2.792   9.246 -1.6834 -2.7703  0.1878
  370MOL0     H49894   5.543   2.753   9.384  0.2900 -1.7079 -3.0723
  370MOL0     H49895   5.563   3.029   9.256 -1.1505  1.1650  2.4746
  370MOL0     H49896   5.432   2.925   9.199 -1.3747  1.8834  0.5577
  370MOL0     H49897   5.334   2.931   9.431  0.4844  1.6358  3.9136
  370MOL0     H49898   5.444   3.062   9.472  2.8054  1.7065 -2.3483
  370MOL0     H49899   5.270   3.050   9.226 -0.3048  0.8705 -0.2804
  370MOL0     H49900   5.374   3.185   9.277  0.5471 -0.7379 -1.6856
  370MOL0     H49901   5.018   3.116   9.288  0.5495 -5.6147  2.8334
  370MOL0     H49902   4.857   3.362   9.553  0.3812 -1.2342  1.6407
  370MOL0     H49903   4.847   3.317   9.377 -0.3943 -1.0643 -0.0522
  370MOL0     H49904   4.806   3.100   9.575  0.2391  1.1523 -0.6203
  370MOL0     H49905   4.780   3.109   9.395  0.9238  1.4221 -1.3392
  370MOL0     H49906   4.613   3.286   9.436  1.9585  1.2005  0.0780
  370MOL0     H49907   4.607   3.256   9.606 -0.0438 -1.2448  1.3338
  370MOL0     H49908   4.447   3.096   9.553  0.1865  3.1964  0.2915
  370MOL0     H49909   4.594   3.000   9.498  0.9531 -0.0558 -0.4114
  370MOL0     H49910   4.345   2.873   9.348 -0.6809 -0.9271 -1.9490
  370MOL0     H49911   4.023   2.781   9.305  1.8570  2.5918 -2.2465
  370MOL0     H49912   4.155   2.726   9.398 -0.3098  0.1249  1.0147
  370MOL0     H49913   4.026   2.805   9.486 -1.8966 -2.1004 -0.2705
  370MOL0     H49914   3.714   3.274   9.241 -0.6405 -0.2260  0.2281
  370MOL0     H49915   3.465   3.270   9.222 -2.8723  0.7389  1.6284
  370MOL0     H49916   3.296   2.981   9.464 -0.8307  0.7356 -1.4895
  370MOL0     H49917   3.251   3.099   9.588 -1.7982 -1.8108  0.5796
  370MOL0     H49918   3.051   3.160   9.459 -1.1960 -0.4834  1.4607
  370MOL0     H49919   3.103   3.058   9.325 -2.2907 -0.3223  0.6535
  370MOL0     H49920   3.079   2.864   9.471 -0.2030 -0.4307  1.8281
  370MOL0     H49921   2.932   2.936   9.425  1.0222 -1.6683 -1.7039
  370MOL0     H49922   3.087   2.974   9.693  1.6682  0.5065 -1.4846
  370MOL0     H49923   2.930   3.059   9.655 -0.3822 -1.0019  2.8578
  370MOL0     H49924   2.830   2.806   9.634 -0.5521  3.0747  1.2855
  370MOL0     H49925   2.871   2.850   9.790 -2.8199  1.2381 -1.7230
  370MOL0     H49926   2.953   2.630   9.723  0.1187 -1.0760 -1.9665
  370MOL0     H49927   3.070   2.701   9.609  2.0039 -0.7541  1.0674
  370MOL0     H49928   3.044   2.767   9.910 -2.1929  0.5451 -1.0343
  370MOL0     H49929   3.178   2.818   9.804  1.0982  0.0744  0.8535
  370MOL0     H49930   3.128   2.523   9.845  1.3412 -0.4787 -0.6095
  370MOL0     H49931   3.240   2.629   9.940 -1.0881  0.6354  0.2383
  370MOL0     H49932   3.457   3.108   9.632  0.9547 -1.4214 -0.5411
  370MOL0     H49933   3.700   3.089   9.631  0.1210  1.2256  0.9117
  370MOL0     H49934   4.067   3.277   9.371 -0.9767  0.1307 -2.6941
  370MOL0     H49935   4.293   3.304   9.385  3.0981 -1.1062 -0.6454
  370MOL0     H49936   6.247   2.540   9.478 -1.3838  0.3268  1.1951
  370MOL0     H49937   6.441   2.394   9.582  1.9671  1.4494  0.2950
  370MOL0     H49938   6.471   2.049   9.993 -0.4545  0.3114 -0.8706
  370MOL0     H49939   6.632   1.909  10.089 -3.3400  0.2427 -0.6507
  370MOL0     H49940   7.090   2.029  10.086  1.1433  0.2317  0.5770
  370MOL0     H49941   6.995   2.107  10.222  1.2877  0.3621 -1.3235
  370MOL0     H49942   7.200   1.926  10.239  0.3428 -1.6220  0.3752
  370MOL0     H49943   7.074   1.812  10.220  0.2866  0.8575  0.9491
  370MOL0     H49944   6.936   1.913  10.403  0.2078 -0.3938  2.2656
  370MOL0     H49945   7.069   2.015  10.437 -2.7001  1.7909 -1.3526
  370MOL0     H49946   7.092   1.818  10.578 -1.1757 -2.7787 -0.1804
  370MOL0     H49947   7.213   1.814  10.451 -0.0414 -0.1803  1.1872
  370MOL0     H49948   6.934   1.485  10.429  2.3386 -1.2145  0.6218
  370MOL0     H49949   6.933   2.213   9.982 -1.7330  3.0316 -5.3022
  370MOL0     H49950   6.768   2.338   9.876 -1.4630  1.2401 -0.0567
  371MOL0     O49951   6.645  10.837  10.370  0.0585  0.0339  0.7820
  371MOL0     C49952   6.552  10.767  10.323  0.1824 -0.3730 -0.3540
  371MOL0     O49953   6.443  10.728  10.392 -0.2258  0.3124 -0.2601
  371MOL0     C49954   6.449  10.683  10.523  0.1117  0.2679 -0.4876
  371MOL0     C49955   6.554  10.685  10.611  0.4384 -0.0784 -0.3212
  371MOL0     C49956   6.531  10.647  10.750  0.5078 -0.8357  0.3239
  371MOL0     C49957   6.409  10.608  10.801 -0.3392  0.2468 -0.7564
  371MOL0     O49958   6.386  10.554  10.930 -0.4142  0.6175  0.8241
  371MOL0     C49959   6.481  10.562  11.037 -0.0247 -0.4946 -0.1503
  371MOL0     C49960   6.423  10.517  11.171  0.5708 -0.8263  0.6139
  371MOL0     C49961   6.373  10.624  11.275  0.1000  0.5618  0.2310
  371MOL0     C49962   6.291  10.749  11.231 -0.3631 -0.3569  0.1061
  371MOL0     C49963   6.176  10.702  11.140 -0.3679  0.1744 -0.5142
  371MOL0     C49964   6.077  10.808  11.102 -0.4221 -0.2638 -0.6344
  371MOL0     C49965   5.969  10.730  11.017 -0.3359 -0.2757 -1.0289
  371MOL0     C49966   5.871  10.640  11.102 -0.5998 -0.3897  0.6199
  371MOL0     N49967   5.741  10.609  11.035 -0.3252  0.4376  0.4392
  371MOL0     C49968   5.630  10.690  11.018  0.2266 -0.2734  0.3320
  371MOL0     C49969   5.549  10.617  10.933 -0.9157  0.2426 -0.2508
  371MOL0     C49970   5.423  10.671  10.867 -0.4975  0.5518  0.1101
  371MOL0     C49971   5.295  10.582  10.877  0.3859 -0.2631 -0.7114
  371MOL0     C49972   5.229  10.603  11.007  0.4845  0.7605 -0.5859
  371MOL0     C49973   5.095  10.527  11.013 -0.3739  0.7667 -0.5357
  371MOL0     O49974   5.052  10.510  11.143  0.0108 -0.0961 -0.0866
  371MOL0     C49975   4.919  10.465  11.154 -0.8942  0.3169 -0.2966
  371MOL0     C49976   4.878  10.335  11.188  0.6167 -0.4719 -0.6834
  371MOL0     C49977   4.740  10.299  11.193  0.5164 -0.4130 -0.0365
  371MOL0     C49978   4.705  10.153  11.239 -0.0007  0.0342 -0.2965
  371MOL0     C49979   4.639  10.393  11.152  0.7739 -0.2043 -0.6128
  371MOL0     C49980   4.493  10.379  11.161  0.5688 -0.5329 -1.1644
  371MOL0     O49981   4.440  10.259  11.185 -0.2532 -0.0229 -0.2318
  371MOL0     C49982   4.302  10.264  11.207 -0.3300 -0.0467 -0.0895
  371MOL0     C49983   4.234  10.234  11.088 -0.1889 -0.4289  0.2472
  371MOL0     C49984   4.092  10.236  11.090 -0.2240  1.1812  0.5596
  371MOL0     C49985   4.023  10.244  11.216  0.9253  0.2821 -0.0664
  371MOL0     O49986   3.891  10.245  11.234  0.7347 -0.0466 -0.1357
  371MOL0     C49987   3.834  10.120  11.204  0.4729 -0.0308 -0.2322
  371MOL0     C49988   3.686  10.129  11.189  0.1140  0.2047  0.7454
  371MOL0     C49989   3.618  10.161  11.326 -0.5045 -0.1952 -0.2882
  371MOL0     C49990   3.469  10.205  11.302 -0.6347  0.3347 -0.0984
  371MOL0     C49991   3.414  10.235  11.446  0.0453 -0.2602 -0.6879
  371MOL0     C49992   3.267  10.288  11.440 -0.5116 -0.1030 -1.4004
  371MOL0     C49993   3.170  10.168  11.410  1.2957  0.4754  0.2189
  371MOL0     C49994   3.030  10.225  11.376  0.0320 -0.4932 -0.0707
  371MOL0    Cl49995   2.924  10.087  11.326  0.0852  0.1307  0.1417
  371MOL0     C49996   4.095  10.260  11.333 -0.3383 -0.7368  0.2484
  371MOL0     C49997   4.236  10.270  11.328 -0.2022 -0.6526  0.0868
  371MOL0     O49998   4.426  10.483  11.157  0.2284  0.1015  0.4913
  371MOL0     C49999   4.684  10.523  11.124 -0.2104 -0.0769 -0.4018
  371MOL0     C50000   4.820  10.558  11.127 -0.8989 -0.2163 -0.7780
  371MOL0     N50001   5.611  10.498  10.907 -0.3045 -0.3626 -0.5735
  371MOL0     N50002   5.726  10.495  10.966 -1.4032  0.1868  0.4671
  371MOL0     C50003   6.302  10.603  10.710 -0.4990 -0.6650  0.4074
  371MOL0     C50004   6.321  10.647  10.571  0.2669 -0.4667  0.2028
  371MOL0     C50005   6.538  10.722  10.187 -0.4517  0.2244 -0.5249
  371MOL0     C50006   6.654  10.735  10.101  0.4781 -0.3147 -0.7282
  371MOL0     C50007   6.641  10.710   9.961 -0.2880  0.1454  0.1952
  371MOL0     C50008   6.516  10.698   9.901  0.6083 -0.1330 -1.1478
  371MOL0     O50009   6.519  10.678   9.764  0.3036 -1.0420 -0.3750
  371MOL0     C50010   6.424  10.761   9.689 -0.2730  0.2246 -0.5064
  371MOL0     C50011   6.304  10.679   9.629 -0.5205 -0.2322  0.7853
  371MOL0     C50012   6.344  10.585   9.513  0.2108 -0.1225  0.3592
  371MOL0     C50013   6.250  10.467   9.497 -0.8216  0.7253  0.7884
  371MOL0     C50014   6.114  10.505   9.452 -0.2799  0.1464 -0.6068
  371MOL0     C50015   6.003  10.541   9.423  0.1033  0.6467  0.1441
  371MOL0     C50016   6.407  10.682   9.983  0.4491  0.2624 -0.4262
  371MOL0     C50017   6.412  10.697  10.126  0.1170  0.1627  0.0675
  371MOL0     H50018   6.652  10.712  10.572 -0.6525  0.3448 -2.9898
  371MOL0     H50019   6.615  10.624  10.814  0.9233 -1.6261 -0.4801
  371MOL0     H50020   6.546  10.481  11.002 -0.3950 -1.2773  0.9097
  371MOL0     H50021   6.529  10.658  11.055  1.3890 -1.0138 -1.0232
  371MOL0     H50022   6.345  10.442  11.152 -1.7200  1.5047  0.2330
  371MOL0     H50023   6.508  10.480  11.229  3.8442  6.0894  1.2546
  371MOL0     H50024   6.301  10.558  11.323  3.2120 -2.8272  0.7021
  371MOL0     H50025   6.450  10.663  11.343 -2.6051  2.3450  2.5064
  371MOL0     H50026   6.250  10.788  11.324 -3.1968 -3.0624  0.1623
  371MOL0     H50027   6.355  10.814  11.171 -0.8811 -0.2745 -0.3601
  371MOL0     H50028   6.216  10.662  11.046  1.7986 -0.6735  0.6798
  371MOL0     H50029   6.122  10.614  11.175 -2.6238  0.3567 -3.1793
  371MOL0     H50030   6.027  10.857  11.186  1.2415 -1.3052  1.0434
  371MOL0     H50031   6.139  10.870  11.036 -0.5108 -0.4751 -0.9173
  371MOL0     H50032   5.907  10.797  10.956  1.4907  0.9954 -1.5755
  371MOL0     H50033   6.025  10.669  10.946  1.7072 -1.0949  1.1739
  371MOL0     H50034   5.840  10.696  11.191 -1.4043  1.3499 -0.6926
  371MOL0     H50035   5.915  10.548  11.141  0.8615 -0.3376 -0.7976
  371MOL0     H50036   5.629  10.797  11.036  0.9473  0.1025 -1.6383
  371MOL0     H50037   5.392  10.769  10.906  0.2120  1.1477 -0.7564
  371MOL0     H50038   5.437  10.679  10.758 -1.1958 -0.5393 -0.0655
  371MOL0     H50039   5.327  10.480  10.856  0.2433 -0.8656  1.6781
  371MOL0     H50040   5.231  10.623  10.798 -0.0668 -0.2102 -0.3195
  371MOL0     H50041   5.204  10.708  11.027  1.5297  0.9926 -0.4539
  371MOL0     H50042   5.296  10.563  11.083  0.2751  1.5124  0.0105
  371MOL0     H50043   5.106  10.424  10.978  1.7708  1.3655 -1.8527
  371MOL0     H50044   5.027  10.580  10.946 -1.2224 -1.4023 -1.4747
  371MOL0     H50045   4.960  10.265  11.194  3.2440  2.4570  0.0326
  371MOL0     H50046   4.661  10.162  11.339 -1.1550 -1.7122 -0.5844
  371MOL0     H50047   4.628  10.097  11.185  1.4199 -1.6253 -0.6626
  371MOL0     H50048   4.802  10.103  11.239  0.0938  0.1735  0.8566
  371MOL0     H50049   4.300  10.228  11.002  0.5079  1.2234  0.6232
  371MOL0     H50050   4.044  10.215  10.995 -1.0588 -2.5772  1.6316
  371MOL0     H50051   3.869  10.086  11.106  0.3734 -1.1990  0.1285
  371MOL0     H50052   3.857  10.043  11.279 -1.2821 -0.4909 -0.1113
  371MOL0     H50053   3.673  10.202  11.109  3.8531  0.3870  0.1346
  371MOL0     H50054   3.654  10.031  11.153 -0.5277  0.0054  1.8113
  371MOL0     H50055   3.680  10.235  11.378  0.7226 -2.4531  1.6541
  371MOL0     H50056   3.616  10.072  11.390  2.5467  0.4611  0.8808
  371MOL0     H50057   3.458  10.300  11.250  1.3556  1.7199  1.8177
  371MOL0     H50058   3.416  10.127  11.247 -1.1856 -1.7014  3.0406
  371MOL0     H50059   3.476  10.314  11.490  1.7589 -0.7342 -2.1299
  371MOL0     H50060   3.406  10.148  11.511 -1.9789  1.3615  1.4005
  371MOL0     H50061   3.245  10.348  11.529 -0.7968 -1.5779 -0.4564
  371MOL0     H50062   3.248  10.370  11.369 -0.6878  2.7121  1.6411
  371MOL0     H50063   3.157  10.106  11.499 -0.3032 -0.3548 -0.5468
  371MOL0     H50064   3.207  10.109  11.326  1.0004  2.0784 -1.0909
  371MOL0     H50065   3.045  10.293  11.292 -0.0597 -2.7054 -1.9936
  371MOL0     H50066   2.990  10.290  11.454 -2.6087 -1.4032 -0.5731
  371MOL0     H50067   4.037  10.267  11.425  0.3892  0.7283  0.6323
  371MOL0     H50068   4.298  10.284  11.416  2.4207 -0.5030 -1.6827
  371MOL0     H50069   4.606  10.595  11.104 -2.6245 -1.8457  1.9231
  371MOL0     H50070   4.843  10.664  11.135 -1.8455 -0.1510  2.4644
  371MOL0     H50071   6.201  10.577  10.740 -1.0416 -0.2924 -1.0004
  371MOL0     H50072   6.237  10.648  10.502  0.2877  0.7537  0.1654
  371MOL0     H50073   6.752  10.751  10.145  0.5950 -3.2752  0.2988
  371MOL0     H50074   6.726  10.718   9.894 -2.4457  0.4092 -2.7297
  371MOL0     H50075   6.385  10.838   9.757 -3.5277 -2.1744  0.6041
  371MOL0     H50076   6.472  10.806   9.601 -0.6380 -0.5338 -1.0997
  371MOL0     H50077   6.235  10.758   9.598  0.5282  1.9394  3.5306
  371MOL0     H50078   6.256  10.613   9.703  4.4126 -2.5292  2.3247
  371MOL0     H50079   6.445  10.548   9.533  2.9592  6.6664  1.9243
  371MOL0     H50080   6.353  10.637   9.417 -0.1979 -3.8345 -1.8735
  371MOL0     H50081   6.250  10.414   9.593  1.3363 -1.7877 -0.4651
  371MOL0     H50082   6.290  10.401   9.420  0.9266  0.8108  1.5864
  371MOL0     H50083   5.899  10.568   9.425  0.6306  2.7263  1.2278
  371MOL0     H50084   6.315  10.653   9.932  0.1866 -3.5127  1.8131
  371MOL0     H50085   6.317  10.709  10.177 -1.4151  0.7731 -2.7302
  372MOL0     O50086   5.284   7.609  10.514 -0.7790 -0.5253 -0.1123
  372MOL0     C50087   5.283   7.722  10.465  0.2916 -0.2483 -0.0894
  372MOL0     O50088   5.172   7.782  10.402 -0.3103  0.5389 -0.0934
  372MOL0     C50089   5.058   7.708  10.394 -0.7221 -0.1603  0.6996
  372MOL0     C50090   4.980   7.697  10.276  0.3943  0.3522 -0.1115
  372MOL0     C50091   4.857   7.631  10.284 -0.2430 -0.0530 -0.0582
  372MOL0     C50092   4.808   7.577  10.406  1.6464 -0.3746  0.5481
  372MOL0     O50093   4.685   7.509  10.414  0.7264 -0.1551 -0.0599
  372MOL0     C50094   4.597   7.508  10.307  0.9081 -0.3503  0.9987
  372MOL0     C50095   4.641   7.389  10.220  0.1978 -0.8816  0.1248
  372MOL0     C50096   4.609   7.254  10.301  0.3870 -0.0910  0.0529
  372MOL0     C50097   4.472   7.251  10.377  0.2129 -0.2330  0.0378
  372MOL0     C50098   4.462   7.107  10.426 -0.7058  1.2785  0.3348
  372MOL0     C50099   4.336   7.099  10.510  0.6442 -0.1156 -0.0081
  372MOL0     C50100   4.294   6.954  10.535 -0.2541  0.7294 -0.5549
  372MOL0     C50101   4.390   6.881  10.634 -0.7270  1.3088 -1.2892
  372MOL0     N50102   4.360   6.745  10.649 -0.0646 -0.7922  0.0574
  372MOL0     C50103   4.252   6.704  10.719  0.3806  0.2334  0.7884
  372MOL0     C50104   4.236   6.565  10.692 -0.3892 -0.4667  0.4448
  372MOL0     C50105   4.142   6.472  10.767  1.0686  0.6484 -0.2828
  372MOL0     C50106   3.981   6.493  10.738 -0.7358  0.0852 -1.1913
  372MOL0     C50107   3.968   6.516  10.584 -0.0902 -0.4586  0.5118
  372MOL0     C50108   4.022   6.397  10.506  0.4944 -0.4827 -0.1157
  372MOL0     O50109   3.966   6.270  10.535  0.0427  0.8442 -1.2326
  372MOL0     C50110   3.879   6.209  10.449  0.6598  0.3363 -0.5589
  372MOL0     C50111   3.871   6.068  10.457 -0.1898 -0.4472  0.5364
  372MOL0     C50112   3.773   6.004  10.376 -0.1736 -0.7540 -0.9230
  372MOL0     C50113   3.761   5.858  10.395 -0.3992  0.2500 -0.7504
  372MOL0     C50114   3.692   6.069  10.281 -0.6647  0.0327  0.6035
  372MOL0     C50115   3.579   6.007  10.198 -0.7576 -0.0635 -0.4465
  372MOL0     O50116   3.514   6.100  10.113  0.5769 -0.1405 -0.4380
  372MOL0     C50117   3.392   6.063  10.064 -0.2736  0.2458  0.4830
  372MOL0     C50118   3.282   6.122  10.127  0.1942  0.2116 -0.1090
  372MOL0     C50119   3.156   6.089  10.087  0.2345  1.7473 -0.1255
  372MOL0     C50120   3.133   5.985   9.987  0.1051  0.3495 -0.6696
  372MOL0     O50121   3.011   5.934   9.962 -0.0565 -0.0472  0.2915
  372MOL0     C50122   2.889   6.011   9.991 -0.4928 -0.2576 -0.6033
  372MOL0     C50123   2.772   5.970   9.905  1.2479 -0.0451  0.0371
  372MOL0     C50124   2.643   6.039   9.967 -0.7512 -0.1808 -0.5546
  372MOL0     C50125   2.526   6.029   9.876  0.8410 -0.2931  1.1533
  372MOL0     C50126   2.404   6.097   9.935 -0.2918 -0.2498  0.2771
  372MOL0     C50127   2.275   6.054   9.861  0.0861 -0.2653  0.0061
  372MOL0     C50128   2.139   6.069   9.939 -0.3219 -0.1728  0.2697
  372MOL0     C50129   2.052   5.951   9.909 -0.1970 -0.0523  0.8060
  372MOL0    Cl50130   1.915   5.978  10.011  0.1853 -0.1373  0.2468
  372MOL0     C50131   3.244   5.926   9.926 -0.1601 -0.6084 -0.4568
  372MOL0     C50132   3.368   5.962   9.964 -0.4248  0.1632 -0.3080
  372MOL0     O50133   3.545   5.890  10.215  0.0251 -0.0380  0.1300
  372MOL0     C50134   3.717   6.209  10.265  0.2297  0.1467  0.3414
  372MOL0     C50135   3.804   6.273  10.356  0.0195 -0.5223  0.2371
  372MOL0     N50136   4.335   6.537  10.602  0.8353  0.4040 -0.7096
  372MOL0     N50137   4.408   6.637  10.577  0.9975 -0.8217  0.5094
  372MOL0     C50138   4.891   7.595  10.518  0.9777  0.3008  0.4496
  372MOL0     C50139   5.004   7.665  10.516 -0.0272  0.9508 -0.0514
  372MOL0     C50140   5.423   7.790  10.462  0.2744  1.2428 -0.2387
  372MOL0     C50141   5.538   7.722  10.490  0.1105  0.6919  0.1030
  372MOL0     C50142   5.664   7.780  10.485  0.1292  0.6513 -0.6253
  372MOL0     C50143   5.675   7.915  10.448  0.2901 -0.3271  0.3270
  372MOL0     O50144   5.802   7.974  10.434 -0.1355  0.6369  0.3529
  372MOL0     C50145   5.810   8.121  10.438  0.4664  0.8709  0.2876
  372MOL0     C50146   5.931   8.186  10.497  0.3497  0.4038  0.3859
  372MOL0     C50147   6.041   8.224  10.402  0.4395 -0.3898 -0.2057
  372MOL0     C50148   6.160   8.272  10.486  0.4062  0.4256 -0.1582
  372MOL0     C50149   6.280   8.301  10.406 -0.5115  0.0871  0.3549
  372MOL0     C50150   6.398   8.319  10.351  0.7966 -0.5326  0.0933
  372MOL0     C50151   5.553   7.982  10.416 -0.0339 -0.4728 -0.4059
  372MOL0     C50152   5.431   7.918  10.420  0.4614 -0.8096 -0.4464
  372MOL0     H50153   5.020   7.756  10.194  1.7995 -2.9231 -2.0025
  372MOL0     H50154   4.820   7.619  10.183  2.2960 -0.2103 -1.0493
  372MOL0     H50155   4.493   7.496  10.336 -0.0336  2.3384 -0.8596
  372MOL0     H50156   4.599   7.603  10.253 -0.8178 -0.3078  0.9689
  372MOL0     H50157   4.588   7.386  10.124 -0.5955 -0.5693  0.5467
  372MOL0     H50158   4.748   7.396  10.198 -0.0052 -2.3204 -1.6184
  372MOL0     H50159   4.609   7.165  10.236 -0.0103  0.5662 -0.8764
  372MOL0     H50160   4.692   7.237  10.371  0.0665  0.6383  0.6118
  372MOL0     H50161   4.472   7.326  10.456 -2.0721  0.3483 -0.4290
  372MOL0     H50162   4.390   7.285  10.313 -1.4312 -1.0521  1.6162
  372MOL0     H50163   4.458   7.036  10.344 -1.1407  0.6510  0.8871
  372MOL0     H50164   4.546   7.085  10.493 -2.3636  1.4220  2.5778
  372MOL0     H50165   4.350   7.146  10.607  3.1956 -2.3193  0.8219
  372MOL0     H50166   4.266   7.152  10.445  0.0821  1.6608  1.9475
  372MOL0     H50167   4.199   6.969  10.587  0.0868 -0.8542  0.6216
  372MOL0     H50168   4.263   6.903  10.444 -0.7161  0.1586 -0.0935
  372MOL0     H50169   4.396   6.925  10.734  0.7967 -1.0773 -0.2350
  372MOL0     H50170   4.494   6.883  10.600 -0.7779 -3.5765 -2.4805
  372MOL0     H50171   4.185   6.761  10.782  0.4402 -0.8549  1.8944
  372MOL0     H50172   4.171   6.368  10.749 -0.3615  0.5074 -2.0278
  372MOL0     H50173   4.151   6.497  10.873  0.0436  1.8160 -0.4539
  372MOL0     H50174   3.942   6.582  10.786 -0.8871 -1.7291  2.4064
  372MOL0     H50175   3.920   6.407  10.766 -1.5739  0.3360 -2.1925
  372MOL0     H50176   4.010   6.615  10.565 -0.3616 -1.1456 -5.2470
  372MOL0     H50177   3.860   6.531  10.571  0.4775  2.8357 -1.3702
  372MOL0     H50178   4.129   6.390  10.525  0.6437  1.3883 -0.1150
  372MOL0     H50179   4.012   6.431  10.402  0.9335  0.9826  0.3000
  372MOL0     H50180   3.932   6.001  10.518  0.9862 -0.9917 -1.1802
  372MOL0     H50181   3.658   5.824  10.384 -1.5309  3.3911 -0.7339
  372MOL0     H50182   3.825   5.797  10.330 -0.7347 -0.3800 -0.5004
  372MOL0     H50183   3.780   5.841  10.502  1.8757 -0.5503 -1.2138
  372MOL0     H50184   3.298   6.189  10.212 -0.5011  2.1615 -1.4430
  372MOL0     H50185   3.070   6.126  10.142 -0.3499 -0.4323  0.5599
  372MOL0     H50186   2.863   5.990  10.095 -0.0871  1.1478 -0.2006
  372MOL0     H50187   2.912   6.117   9.979 -2.1247  0.2331  0.3616
  372MOL0     H50188   2.796   5.991   9.801 -0.6324  0.5831 -0.3145
  372MOL0     H50189   2.749   5.863   9.905 -2.2619  0.5983 -0.5771
  372MOL0     H50190   2.662   6.146   9.976 -0.9209 -0.1326 -0.7506
  372MOL0     H50191   2.622   5.984  10.059  2.6806  0.2277  0.6240
  372MOL0     H50192   2.551   6.076   9.781  0.7791 -0.9628  0.8022
  372MOL0     H50193   2.503   5.927   9.846  3.9557 -0.7623 -0.0281
  372MOL0     H50194   2.426   6.204   9.943  0.5051 -0.5134  1.9920
  372MOL0     H50195   2.389   6.067  10.039  0.7273  3.0538  1.5018
  372MOL0     H50196   2.275   6.116   9.771  0.9827 -0.8574 -0.4276
  372MOL0     H50197   2.281   5.951   9.824  0.9256 -0.5846  0.9660
  372MOL0     H50198   2.080   6.155   9.906 -2.2049 -0.7340  2.0083
  372MOL0     H50199   2.159   6.065  10.047  0.1874  0.8714  0.2243
  372MOL0     H50200   2.096   5.857   9.943  3.9706  1.0108 -0.9600
  372MOL0     H50201   2.034   5.942   9.802 -2.7068 -1.3026  1.2504
  372MOL0     H50202   3.227   5.845   9.855 -1.8959 -1.3288  0.7046
  372MOL0     H50203   3.459   5.938   9.909  0.1539  3.4567 -0.9871
  372MOL0     H50204   3.686   6.275  10.186  0.3898 -1.5739 -1.2337
  372MOL0     H50205   3.820   6.380  10.354  2.0968 -0.7955 -1.0434
  372MOL0     H50206   4.860   7.565  10.617  2.6826  3.7409  2.2209
  372MOL0     H50207   5.060   7.689  10.606  3.4431 -0.4215 -1.7116
  372MOL0     H50208   5.532   7.620  10.527 -1.1336  0.8014  0.2320
  372MOL0     H50209   5.755   7.731  10.520  1.6249  2.6961 -1.4306
  372MOL0     H50210   5.792   8.165  10.340 -0.4951  1.9362  0.9134
  372MOL0     H50211   5.725   8.153  10.500 -0.7560  0.5323 -1.1605
  372MOL0     H50212   5.966   8.108  10.565 -1.7215 -0.0090  1.0556
  372MOL0     H50213   5.906   8.278  10.550  0.1838  1.3380 -1.2616
  372MOL0     H50214   6.005   8.301  10.333  0.9921 -1.2956 -1.5617
  372MOL0     H50215   6.071   8.137  10.342  0.4082  0.0943 -0.9273
  372MOL0     H50216   6.191   8.188  10.549 -1.1103  1.0628  1.5477
  372MOL0     H50217   6.126   8.362  10.538 -3.4516 -0.8341 -0.1800
  372MOL0     H50218   6.494   8.325  10.304  0.9825  0.1874  0.5513
  372MOL0     H50219   5.558   8.084  10.378  0.3231 -0.4407 -0.2751
  372MOL0     H50220   5.340   7.962  10.382 -0.6143  0.6014  3.2419
  373MOL0     O50221  10.818   4.139   1.973  0.7032 -0.1678 -0.4926
  373MOL0     C50222  10.833   4.261   1.954  0.3211 -0.9182 -0.3701
  373MOL0     O50223  10.741   4.358   1.972 -0.2408  0.7789  0.4021
  373MOL0     C50224  10.638   4.337   2.058 -0.8750  0.4786  0.0480
  373MOL0     C50225  10.652   4.256   2.168 -0.9302  0.3217  0.2742
  373MOL0     C50226  10.543   4.252   2.255 -0.5056  0.2139  0.2108
  373MOL0     C50227  10.423   4.316   2.245  0.1551 -1.2288  0.1877
  373MOL0     O50228  10.336   4.286   2.343 -0.6025 -0.1251  0.6166
  373MOL0     C50229  10.199   4.329   2.325  0.5293 -0.5483 -0.3875
  373MOL0     C50230  10.114   4.266   2.427 -0.4674 -0.5684 -0.5005
  373MOL0     C50231   9.966   4.308   2.425  0.1714  0.1914  0.0496
  373MOL0     C50232   9.890   4.246   2.544  0.0249 -0.3782 -0.2042
  373MOL0     C50233   9.741   4.250   2.520 -0.8980  0.0438  0.8220
  373MOL0     C50234   9.665   4.199   2.651 -0.0732  0.0108  0.0892
  373MOL0     C50235   9.524   4.171   2.627  0.0564 -0.3861  0.0701
  373MOL0     C50236   9.450   4.298   2.581  0.1351  0.5064  0.3518
  373MOL0     N50237   9.311   4.268   2.556  0.2771 -0.2547  0.5618
  373MOL0     C50238   9.229   4.171   2.603 -1.1386 -0.5430 -0.5802
  373MOL0     C50239   9.108   4.196   2.549  0.2803 -0.1744  0.3146
  373MOL0     C50240   8.971   4.136   2.575  0.2453 -0.3782 -0.7744
  373MOL0     C50241   8.895   4.127   2.441 -0.1715  0.7432  0.2471
  373MOL0     C50242   8.754   4.100   2.452  0.4266  0.4456  0.5843
  373MOL0     C50243   8.694   4.086   2.313 -0.5268  0.3372 -0.4998
  373MOL0     O50244   8.563   4.135   2.304 -0.0641 -0.1317 -0.6097
  373MOL0     C50245   8.496   4.087   2.194 -0.3722  0.0552 -0.9884
  373MOL0     C50246   8.526   4.129   2.067 -0.4546  0.7498  0.5389
  373MOL0     C50247   8.456   4.080   1.955 -0.5963  0.0949 -0.3159
  373MOL0     C50248   8.494   4.134   1.819  0.1310 -0.0976 -0.5811
  373MOL0     C50249   8.339   3.999   1.969 -0.6179  0.9108 -0.3014
  373MOL0     C50250   8.259   3.925   1.870  0.5178  0.6768  0.8340
  373MOL0     O50251   8.304   3.942   1.734 -0.9697  0.2243  0.3790
  373MOL0     C50252   8.241   3.867   1.638  0.1936  0.9035  0.0894
  373MOL0     C50253   8.319   3.756   1.603 -0.5057 -0.5601 -1.0521
  373MOL0     C50254   8.283   3.675   1.493 -0.2150  0.6354  0.2251
  373MOL0     C50255   8.160   3.698   1.430  0.3321 -0.1701  0.2428
  373MOL0     O50256   8.117   3.629   1.318 -0.6220 -0.7279  0.3032
  373MOL0     C50257   8.185   3.514   1.275 -0.1805 -0.5129 -0.3385
  373MOL0     C50258   8.136   3.447   1.155 -0.6045  0.2596  0.4098
  373MOL0     C50259   8.101   3.532   1.030 -0.8306 -0.0967  0.4821
  373MOL0     C50260   7.959   3.587   1.027  0.3728 -0.9424 -1.2495
  373MOL0     C50261   7.919   3.663   0.906  0.0222  0.8899  1.4802
  373MOL0     C50262   7.781   3.732   0.911 -0.3553  0.0252 -0.0979
  373MOL0     C50263   7.653   3.651   0.901 -1.0994  0.3240  0.3438
  373MOL0     C50264   7.530   3.731   0.910  0.5490  0.0570  1.1794
  373MOL0    Cl50265   7.387   3.638   0.899 -0.2323  0.0064 -0.1378
  373MOL0     C50266   8.077   3.800   1.474 -0.0852 -0.7067  0.1430
  373MOL0     C50267   8.123   3.892   1.570 -0.1825  0.0428 -0.5683
  373MOL0     O50268   8.174   3.849   1.908 -0.7033  0.2573  0.0517
  373MOL0     C50269   8.303   3.969   2.110  0.1411 -0.4022 -0.0212
  373MOL0     C50270   8.384   4.013   2.220 -0.4590  0.1177  0.0180
  373MOL0     N50271   9.122   4.298   2.465  0.0998 -0.3350  0.3884
  373MOL0     N50272   9.238   4.346   2.481 -0.3199 -0.0035  0.0336
  373MOL0     C50273  10.419   4.407   2.134 -0.0373  0.3842  1.0187
  373MOL0     C50274  10.519   4.416   2.041 -0.2205 -0.0000  0.0343
  373MOL0     C50275  10.958   4.307   1.893  0.1817 -0.0888 -0.2432
  373MOL0     C50276  10.960   4.418   1.813  1.0361  0.3616 -0.0135
  373MOL0     C50277  11.079   4.454   1.744 -0.3391  0.3498 -0.0552
  373MOL0     C50278  11.196   4.382   1.757 -0.1230  0.5062 -0.2430
  373MOL0     O50279  11.318   4.417   1.696  0.4566 -1.1381 -0.5914
  373MOL0     C50280  11.404   4.320   1.641  0.0539 -0.8327  0.6871
  373MOL0     C50281  11.502   4.382   1.538 -0.7116 -1.0475  0.3176
  373MOL0     C50282  11.600   4.285   1.486 -1.1553  0.2111  0.1784
  373MOL0     C50283  11.688   4.346   1.377  0.6354  1.3147  0.4146
  373MOL0     C50284  11.756   4.240   1.304 -0.2957  0.6252  0.2276
  373MOL0     C50285  11.820   4.164   1.240 -1.2057  0.1200  0.3539
  373MOL0     C50286  11.190   4.265   1.842  1.0446  0.2097  0.6639
  373MOL0     C50287  11.073   4.228   1.910  0.3812 -0.0721 -0.0044
  373MOL0     H50288  10.742   4.200   2.187 -1.2403 -0.0999  0.5140
  373MOL0     H50289  10.546   4.182   2.338 -1.9108  1.1681  1.1251
  373MOL0     H50290  10.184   4.437   2.339 -3.7180 -1.3884  4.1059
  373MOL0     H50291  10.162   4.306   2.225 -0.2604 -0.0611 -0.2188
  373MOL0     H50292  10.116   4.157   2.417  1.2594 -0.4019 -2.7543
  373MOL0     H50293  10.145   4.306   2.524 -0.5589 -2.0078  0.1458
  373MOL0     H50294   9.963   4.417   2.437  1.2537  0.0811  1.5651
  373MOL0     H50295   9.934   4.274   2.326 -0.6708 -4.4527  1.6938
  373MOL0     H50296   9.922   4.142   2.556 -0.2438 -0.3630  0.6598
  373MOL0     H50297   9.912   4.283   2.644  1.1462 -1.8181  0.1199
  373MOL0     H50298   9.707   4.353   2.512  0.2130  0.4201  0.9097
  373MOL0     H50299   9.716   4.197   2.428 -0.2004 -1.6667  1.5745
  373MOL0     H50300   9.721   4.114   2.690  0.2092 -0.1853 -0.7214
  373MOL0     H50301   9.677   4.270   2.733 -2.2843 -0.8325  1.2396
  373MOL0     H50302   9.529   4.107   2.538  1.9523  1.3356 -1.1654
  373MOL0     H50303   9.485   4.125   2.717 -1.2541 -0.8345 -0.7008
  373MOL0     H50304   9.488   4.330   2.483  1.4754  0.4140  0.8299
  373MOL0     H50305   9.469   4.385   2.644 -0.4578  0.9084 -0.0055
  373MOL0     H50306   9.249   4.108   2.689 -3.0100  2.7092  2.4957
  373MOL0     H50307   8.985   4.037   2.619 -1.5525 -1.2331 -2.0052
  373MOL0     H50308   8.921   4.213   2.635 -0.4705 -0.3894 -1.3462
  373MOL0     H50309   8.947   4.057   2.375 -0.6685  1.4677 -0.9550
  373MOL0     H50310   8.910   4.223   2.390  2.1813  0.4314  0.2692
  373MOL0     H50311   8.712   4.196   2.486 -0.1272  1.9923 -3.8480
  373MOL0     H50312   8.727   4.015   2.515  0.3851  1.8710  2.6145
  373MOL0     H50313   8.684   3.982   2.281 -0.0135 -0.0619  0.5786
  373MOL0     H50314   8.761   4.125   2.237  3.8911 -5.9750 -0.6806
  373MOL0     H50315   8.611   4.195   2.054  0.6450 -0.8139 -0.4879
  373MOL0     H50316   8.577   4.206   1.821 -0.7234  0.9701  2.1428
  373MOL0     H50317   8.527   4.053   1.755  0.3895 -0.9654  0.6079
  373MOL0     H50318   8.404   4.175   1.773 -2.0122 -2.7686  0.9291
  373MOL0     H50319   8.408   3.739   1.664  1.0843 -0.2438 -3.1611
  373MOL0     H50320   8.340   3.586   1.469 -1.1428 -0.9638  3.3072
  373MOL0     H50321   8.285   3.545   1.245  0.0462 -0.2878  0.6198
  373MOL0     H50322   8.186   3.437   1.353  0.8924  0.4510  0.6230
  373MOL0     H50323   8.209   3.369   1.130 -0.4124  0.7304 -0.5396
  373MOL0     H50324   8.047   3.396   1.191  0.1657 -1.3439  0.1158
  373MOL0     H50325   8.105   3.461   0.947 -0.1022 -2.4202  2.3900
  373MOL0     H50326   8.169   3.617   1.022  2.3859 -2.1075  3.5074
  373MOL0     H50327   7.894   3.500   1.038 -0.3580 -0.5046 -2.0226
  373MOL0     H50328   7.942   3.647   1.117  2.8832 -0.3275 -1.1157
  373MOL0     H50329   7.920   3.594   0.821 -2.0081  2.7393 -0.1504
  373MOL0     H50330   7.997   3.735   0.882 -0.4396  1.0493  0.3795
  373MOL0     H50331   7.774   3.789   1.004  0.7748  0.7260 -0.4201
  373MOL0     H50332   7.793   3.795   0.822 -0.2516 -0.0098 -0.1083
  373MOL0     H50333   7.658   3.565   0.969  0.6137 -2.5826 -3.1023
  373MOL0     H50334   7.657   3.599   0.804 -0.8788  1.5629 -0.3286
  373MOL0     H50335   7.530   3.801   0.826 -2.7317 -0.9892  0.1291
  373MOL0     H50336   7.550   3.779   1.006  0.6333 -0.7962  1.5958
  373MOL0     H50337   7.981   3.815   1.426 -0.8957  0.9113  2.1496
  373MOL0     H50338   8.075   3.984   1.601  2.0928  0.8446  0.7893
  373MOL0     H50339   8.218   3.911   2.142 -1.5934  2.4293  0.8465
  373MOL0     H50340   8.358   3.979   2.320 -1.1372 -1.4151 -0.6377
  373MOL0     H50341  10.329   4.466   2.119  1.1380  1.6561 -1.7041
  373MOL0     H50342  10.515   4.479   1.952 -1.8990 -1.3970 -0.9506
  373MOL0     H50343  10.885   4.496   1.822  4.0240  3.1633  4.4580
  373MOL0     H50344  11.089   4.549   1.693  0.3536  0.3402  0.0488
  373MOL0     H50345  11.451   4.253   1.714  0.3586 -2.2975 -0.7924
  373MOL0     H50346  11.349   4.254   1.574 -0.4045  1.7706 -1.7364
  373MOL0     H50347  11.555   4.465   1.586 -1.2001 -2.7378  4.2191
  373MOL0     H50348  11.451   4.420   1.449  0.0310 -0.5408  0.0986
  373MOL0     H50349  11.545   4.201   1.443 -0.7028  0.8100 -1.6270
  373MOL0     H50350  11.665   4.246   1.565  1.4525  1.7151 -1.1024
  373MOL0     H50351  11.759   4.421   1.414  3.0635 -1.7993  2.5086
  373MOL0     H50352  11.629   4.396   1.299  0.2716  1.1233  0.5665
  373MOL0     H50353  11.886   4.094   1.193 -2.0206  1.9265 -3.8941
  373MOL0     H50354  11.283   4.213   1.864 -0.1115 -2.1441  0.2654
  373MOL0     H50355  11.063   4.132   1.961 -2.2588 -2.5806 -4.5574
  374MOL0     O50356   9.942   1.744   9.996  0.2182  0.4847 -0.8974
  374MOL0     C50357   9.993   1.669  10.082 -0.1162 -0.1430 -0.6337
  374MOL0     O50358   9.915   1.610  10.187  0.9716  0.6968  0.2958
  374MOL0     C50359   9.778   1.630  10.190 -0.5220  0.6602  0.3873
  374MOL0     C50360   9.719   1.718  10.283  0.1592  0.4022  0.5032
  374MOL0     C50361   9.575   1.730  10.294 -0.5613  0.9397 -0.3034
  374MOL0     C50362   9.491   1.648  10.216 -0.2343  0.5550 -0.0953
  374MOL0     O50363   9.351   1.648  10.215  0.0557  0.0447  0.0432
  374MOL0     C50364   9.279   1.751  10.292 -0.0757 -0.0437 -0.1595
  374MOL0     C50365   9.128   1.738  10.278 -0.4152 -0.0327 -0.4164
  374MOL0     C50366   9.065   1.682  10.401  0.0082 -0.2820 -0.5442
  374MOL0     C50367   8.914   1.665  10.377  0.0934 -0.4663  0.7508
  374MOL0     C50368   8.852   1.639  10.511  0.6568  0.1998 -0.2531
  374MOL0     C50369   8.700   1.614  10.512 -0.3125 -0.0032 -0.0139
  374MOL0     C50370   8.654   1.564  10.644 -0.3348 -0.2610 -0.4335
  374MOL0     C50371   8.505   1.565  10.657  0.3079  0.8638  0.2303
  374MOL0     N50372   8.457   1.557  10.792  1.3280  1.1128  0.1215
  374MOL0     C50373   8.492   1.457  10.884  0.2005  0.2892  0.0311
  374MOL0     C50374   8.417   1.484  10.990  1.0092 -0.0828 -0.2245
  374MOL0     C50375   8.403   1.410  11.117 -1.1986  0.3883  0.6191
  374MOL0     C50376   8.284   1.320  11.100  0.5380  0.5230 -0.7079
  374MOL0     C50377   8.268   1.205  11.204 -0.6250 -0.0622 -0.3138
  374MOL0     C50378   8.129   1.144  11.230  0.5716 -0.6215  0.6360
  374MOL0     O50379   8.037   1.234  11.287  1.1177 -0.2580 -0.3871
  374MOL0     C50380   7.901   1.188  11.284  0.3155 -0.8097 -0.9059
  374MOL0     C50381   7.866   1.054  11.294 -0.2185 -0.3244  0.6133
  374MOL0     C50382   7.735   1.006  11.296 -0.4917 -0.3105 -0.1698
  374MOL0     C50383   7.721   0.861  11.329  0.0327  0.2487  0.7386
  374MOL0     C50384   7.628   1.102  11.278 -0.5055 -0.9773 -0.0811
  374MOL0     C50385   7.479   1.075  11.282 -0.4436 -0.1766  1.0386
  374MOL0     O50386   7.394   1.183  11.251 -0.5536 -0.1773 -0.0208
  374MOL0     C50387   7.262   1.158  11.216  0.0001  1.0416 -0.3042
  374MOL0     C50388   7.231   1.044  11.143  0.7189  0.5791  0.1998
  374MOL0     C50389   7.094   1.026  11.109  0.3410  0.5006  0.1132
  374MOL0     C50390   7.002   1.132  11.126  0.4965 -0.3622 -0.6467
  374MOL0     O50391   6.882   1.107  11.058  0.1670  0.2440 -0.0730
  374MOL0     C50392   6.778   1.211  11.069 -0.5264  0.5570  0.5562
  374MOL0     C50393   6.666   1.148  11.000  0.1906 -0.7116 -0.3016
  374MOL0     C50394   6.524   1.198  11.042 -0.0300  0.6506 -0.5387
  374MOL0     C50395   6.410   1.127  10.968  0.6636 -0.1616  0.0946
  374MOL0     C50396   6.269   1.193  10.995 -0.6784  0.6019  0.2028
  374MOL0     C50397   6.212   1.164  11.143  0.4220 -0.3864 -0.1810
  374MOL0     C50398   6.086   1.245  11.172 -0.0382  0.5772 -0.7595
  374MOL0     C50399   5.966   1.203  11.074 -1.0133 -0.2812 -0.6604
  374MOL0    Cl50400   5.807   1.230  11.150 -0.3338  0.1609 -0.0088
  374MOL0     C50401   7.046   1.244  11.200  0.1000  0.6351  0.4090
  374MOL0     C50402   7.178   1.256  11.240  0.0629 -0.1637 -0.2780
  374MOL0     O50403   7.446   0.970  11.341 -0.0023  0.4056  0.0603
  374MOL0     C50404   7.664   1.246  11.258  0.3861  0.8876 -0.6268
  374MOL0     C50405   7.798   1.285  11.271  0.3905 -0.4033  0.3227
  374MOL0     N50406   8.339   1.594  10.955 -0.3018 -0.1597  0.1301
  374MOL0     N50407   8.366   1.640  10.839 -1.1689 -0.3675 -0.1208
  374MOL0     C50408   9.550   1.561  10.127  0.0682 -0.8579  0.0625
  374MOL0     C50409   9.689   1.551  10.118 -0.4173  0.3819 -0.4813
  374MOL0     C50410  10.133   1.622  10.073 -0.0792 -0.0396 -0.1050
  374MOL0     C50411  10.187   1.520  10.151  0.6810 -0.4558 -0.7996
  374MOL0     C50412  10.320   1.479  10.136  0.6232 -0.4798 -0.1588
  374MOL0     C50413  10.399   1.522  10.033 -0.1735 -0.0813  0.5174
  374MOL0     O50414  10.525   1.461  10.020  0.4221 -0.7859  0.6926
  374MOL0     C50415  10.618   1.511   9.923  0.2066  0.0938 -0.2660
  374MOL0     C50416  10.747   1.427   9.933  0.2545  0.0485 -0.6336
  374MOL0     C50417  10.856   1.492   9.842 -0.4726  0.9349 -0.1457
  374MOL0     C50418  10.956   1.580   9.922  0.4853 -0.0070  0.5338
  374MOL0     C50419  10.890   1.683  10.002  0.2357  0.2570  0.3930
  374MOL0     C50420  10.831   1.754  10.084  0.3930  0.6528  0.0573
  374MOL0     C50421  10.348   1.630   9.961  0.5493 -0.0564 -0.0594
  374MOL0     C50422  10.225   1.685   9.983  0.7861 -0.1262 -1.1427
  374MOL0     H50423   9.789   1.764  10.351 -1.0505  0.3771  1.8180
  374MOL0     H50424   9.531   1.801  10.363 -0.7796 -1.5387  2.3142
  374MOL0     H50425   9.289   1.740  10.401  0.6614  1.7222 -0.0195
  374MOL0     H50426   9.310   1.853  10.270 -0.0428  0.6245  2.5690
  374MOL0     H50427   9.098   1.841  10.258 -0.0344 -0.1488 -1.6073
  374MOL0     H50428   9.105   1.672  10.194 -1.7496  1.1945 -1.0578
  374MOL0     H50429   9.113   1.593  10.442  4.3849  1.9706 -0.1995
  374MOL0     H50430   9.071   1.755  10.482  1.0503  1.4544 -2.0932
  374MOL0     H50431   8.862   1.752  10.337  0.5452  0.1600  1.4929
  374MOL0     H50432   8.900   1.575  10.316  0.0454 -0.0447  0.1357
  374MOL0     H50433   8.901   1.544  10.537 -0.9128 -1.1163 -1.8222
  374MOL0     H50434   8.863   1.712  10.591 -1.3706 -1.0050  1.2364
  374MOL0     H50435   8.664   1.713  10.483  0.0694  0.4690  1.0598
  374MOL0     H50436   8.683   1.539  10.434 -0.8307 -0.6472  0.7023
  374MOL0     H50437   8.675   1.460  10.668  0.5096 -0.2171 -0.9609
  374MOL0     H50438   8.690   1.634  10.720  2.1872 -3.6372  1.7459
  374MOL0     H50439   8.467   1.473  10.613  1.2134  0.1589  0.8798
  374MOL0     H50440   8.469   1.659  10.614 -1.8979  0.7160  1.6202
  374MOL0     H50441   8.559   1.376  10.857  3.3099  1.7854  2.5868
  374MOL0     H50442   8.502   1.364  11.124 -0.1148  2.2583 -1.1864
  374MOL0     H50443   8.402   1.472  11.207  3.7616 -0.9805  1.9411
  374MOL0     H50444   8.265   1.284  10.998 -0.2530  2.5660 -1.3269
  374MOL0     H50445   8.203   1.389  11.126  0.3252  0.1372 -0.3475
  374MOL0     H50446   8.299   1.234  11.304 -1.3024 -4.3316  1.3643
  374MOL0     H50447   8.330   1.117  11.183 -0.8670 -0.6890  1.4522
  374MOL0     H50448   8.151   1.056  11.292 -1.3174 -1.9994 -0.5274
  374MOL0     H50449   8.086   1.111  11.135 -1.3214  2.0927  0.4483
  374MOL0     H50450   7.945   0.980  11.296  0.8341  0.7228 -0.2842
  374MOL0     H50451   7.640   0.822  11.267 -0.6441  1.0294  1.1209
  374MOL0     H50452   7.811   0.804  11.302 -0.5105 -0.7203  0.9170
  374MOL0     H50453   7.692   0.849  11.433  0.3228  2.8877  1.1813
  374MOL0     H50454   7.308   0.969  11.130 -0.4158 -0.4576 -0.8332
  374MOL0     H50455   7.065   0.938  11.052  0.4195  0.6707 -0.1920
  374MOL0     H50456   6.763   1.246  11.172 -0.4710  3.6476 -0.3699
  374MOL0     H50457   6.818   1.297  11.014 -0.1124  0.1722  0.2562
  374MOL0     H50458   6.687   1.166  10.895 -0.3874 -0.4893 -0.3781
  374MOL0     H50459   6.663   1.040  11.020 -0.1842 -0.7846 -0.7589
  374MOL0     H50460   6.515   1.305  11.023  0.0546  0.4868 -1.5425
  374MOL0     H50461   6.516   1.179  11.150  2.3638  0.8750 -0.2560
  374MOL0     H50462   6.419   1.127  10.859 -1.3247 -1.2887 -0.1264
  374MOL0     H50463   6.396   1.023  10.999 -1.3381 -0.1211 -0.5324
  374MOL0     H50464   6.203   1.149  10.920  1.3097  1.2608 -2.0333
  374MOL0     H50465   6.268   1.301  10.985 -0.1356  0.4771 -1.3600
  374MOL0     H50466   6.180   1.060  11.149 -2.1126  0.1160 -2.9359
  374MOL0     H50467   6.299   1.175  11.209  1.0074 -4.2856 -0.0460
  374MOL0     H50468   6.107   1.353  11.168 -1.1837  0.8138 -0.9319
  374MOL0     H50469   6.056   1.221  11.274  2.2848  0.8369  0.0347
  374MOL0     H50470   5.982   1.100  11.041  1.2413 -0.0505 -0.4760
  374MOL0     H50471   5.981   1.279  10.997 -3.3785  0.2734 -0.6551
  374MOL0     H50472   6.966   1.318  11.208 -2.6551 -1.8913 -1.5302
  374MOL0     H50473   7.207   1.338  11.306 -1.9548 -0.0095  0.4943
  374MOL0     H50474   7.589   1.323  11.243 -1.7695 -0.5536  1.9431
  374MOL0     H50475   7.813   1.392  11.273 -1.0232 -0.1683  2.1041
  374MOL0     H50476   9.481   1.503  10.066 -0.7570  0.8298 -0.6910
  374MOL0     H50477   9.717   1.479  10.043  1.0699  1.0219 -0.5650
  374MOL0     H50478  10.126   1.472  10.227 -0.5315  2.2562  0.0839
  374MOL0     H50479  10.358   1.398  10.198 -1.1417 -0.6402  0.7967
  374MOL0     H50480  10.583   1.488   9.822 -2.6327 -0.9527  0.8614
  374MOL0     H50481  10.631   1.619   9.937 -0.3899 -0.0241  1.4637
  374MOL0     H50482  10.730   1.325   9.896  0.8677 -0.0289 -0.7063
  374MOL0     H50483  10.765   1.423  10.041 -1.2084  0.7974 -0.3401
  374MOL0     H50484  10.806   1.555   9.768  0.1329  1.3737 -0.1867
  374MOL0     H50485  10.906   1.414   9.783 -3.9351  1.0147 -3.6246
  374MOL0     H50486  11.030   1.630   9.858  0.7489 -1.2803 -0.1903
  374MOL0     H50487  10.999   1.505   9.988 -0.2173 -1.2195 -0.3466
  374MOL0     H50488  10.765   1.811  10.147 -0.3019 -0.4162  0.3098
  374MOL0     H50489  10.398   1.667   9.872 -1.3612  2.7441 -0.1146
  374MOL0     H50490  10.195   1.779   9.938  1.8050  1.1547  0.7363
  375MOL0     O50491   4.409   7.872   6.985 -0.3203 -0.3447  0.6386
  375MOL0     C50492   4.423   7.901   7.108  0.5144  0.0224 -0.1238
  375MOL0     O50493   4.337   7.868   7.209  0.1673 -0.3345  0.0310
  375MOL0     C50494   4.226   7.789   7.187 -0.9554  0.4639 -0.2587
  375MOL0     C50495   4.138   7.811   7.086  0.6936  0.1851  0.0614
  375MOL0     C50496   4.019   7.734   7.088  0.2863 -1.1430 -0.1022
  375MOL0     C50497   4.003   7.623   7.172 -0.8171 -0.3959 -0.4938
  375MOL0     O50498   3.893   7.544   7.155  0.0276 -0.0096 -0.6064
  375MOL0     C50499   3.927   7.429   7.079 -1.0353  1.1790 -0.7634
  375MOL0     C50500   3.816   7.319   7.092  0.4334  0.4898 -0.0316
  375MOL0     C50501   3.797   7.263   7.238 -0.0884  0.1044  0.3153
  375MOL0     C50502   3.922   7.185   7.283  0.2313  0.0702 -0.2141
  375MOL0     C50503   3.894   7.134   7.423 -1.0220  0.3691  0.5108
  375MOL0     C50504   3.804   7.012   7.432  0.4005  0.2305 -0.4330
  375MOL0     C50505   3.763   6.974   7.571  0.8999 -0.6382  0.6286
  375MOL0     C50506   3.694   7.084   7.662 -0.7836 -0.5207 -0.5259
  375MOL0     N50507   3.546   7.094   7.656 -0.3465  0.2047 -1.0551
  375MOL0     C50508   3.460   7.105   7.553 -1.3414 -1.2657 -0.0325
  375MOL0     C50509   3.338   7.087   7.603 -0.2953 -0.1331  0.2934
  375MOL0     C50510   3.223   7.117   7.507 -0.1801  0.3822  0.3127
  375MOL0     C50511   3.121   7.006   7.475 -0.5481  0.6500  0.3417
  375MOL0     C50512   3.046   7.028   7.345  0.3141  0.3471  0.0361
  375MOL0     C50513   2.985   7.172   7.316  0.1725 -0.1439  0.2774
  375MOL0     O50514   2.919   7.216   7.430  0.8826 -0.0541 -0.4645
  375MOL0     C50515   2.785   7.198   7.442 -0.0709  0.4101  0.2924
  375MOL0     C50516   2.733   7.287   7.545 -0.1857  0.4388  0.1787
  375MOL0     C50517   2.595   7.300   7.562  0.7583 -0.1730 -0.0738
  375MOL0     C50518   2.524   7.396   7.660  0.2092  0.1690 -0.8015
  375MOL0     C50519   2.514   7.218   7.481  0.3935  0.3790 -0.8701
  375MOL0     C50520   2.369   7.202   7.501  0.1676 -0.0882  0.5612
  375MOL0     O50521   2.327   7.080   7.521  0.3697  0.2995  0.3399
  375MOL0     C50522   2.185   7.065   7.540  0.0719 -0.0094  0.6336
  375MOL0     C50523   2.137   7.019   7.663  0.3797  0.1805  0.4261
  375MOL0     C50524   2.005   6.976   7.683 -0.2668  0.7270 -0.1543
  375MOL0     C50525   1.913   6.999   7.587 -1.0363 -0.2792 -0.6072
  375MOL0     O50526   1.784   6.964   7.613 -0.1537 -0.1502  0.8759
  375MOL0     C50527   1.688   7.074   7.607 -0.9167  0.3196  0.3578
  375MOL0     C50528   1.574   7.031   7.523 -0.0895  0.0345  0.2837
  375MOL0     C50529   1.501   6.905   7.576 -0.9342 -0.6099 -0.1669
  375MOL0     C50530   1.367   6.897   7.518  0.3316  1.5459 -0.0971
  375MOL0     C50531   1.277   6.804   7.595  0.1112  0.1347 -0.5675
  375MOL0     C50532   1.145   6.793   7.523  0.5002  0.3047  0.2078
  375MOL0     C50533   1.043   6.697   7.599  0.2939 -0.6231  1.1024
  375MOL0     C50534   0.945   6.639   7.493  0.7654  0.0534 -0.0516
  375MOL0    Cl50535   0.858   6.793   7.436 -0.2594 -0.3971 -0.0794
  375MOL0     C50536   1.951   7.069   7.476  0.0888  0.3754  0.8152
  375MOL0     C50537   2.086   7.097   7.447 -0.6588 -0.3776  0.2373
  375MOL0     O50538   2.305   7.303   7.481  0.1798 -0.4402  0.3066
  375MOL0     C50539   2.568   7.132   7.386 -0.9329 -0.1993  0.4340
  375MOL0     C50540   2.703   7.129   7.361  0.3662 -0.0499  0.1125
  375MOL0     N50541   3.347   7.058   7.736  0.3378 -0.6066  0.3693
  375MOL0     N50542   3.472   7.064   7.771  0.5514  0.8107  0.1292
  375MOL0     C50543   4.099   7.600   7.272 -0.6014 -0.5021  0.4245
  375MOL0     C50544   4.203   7.690   7.284  0.5624 -0.4846 -0.0802
  375MOL0     C50545   4.546   7.967   7.139  0.1085 -0.6199 -0.1405
  375MOL0     C50546   4.634   8.005   7.034 -0.8532 -0.0784  1.0248
  375MOL0     C50547   4.748   8.087   7.059 -0.0188 -0.4327  0.4581
  375MOL0     C50548   4.778   8.131   7.194 -0.0149 -0.3032  0.8126
  375MOL0     O50549   4.884   8.212   7.206  0.2097  0.1674 -0.4082
  375MOL0     C50550   4.981   8.177   7.305 -0.2154  0.2541  1.1517
  375MOL0     C50551   5.052   8.302   7.363  0.6843 -0.0202 -0.0007
  375MOL0     C50552   5.197   8.275   7.421  0.6814 -0.5215 -0.1901
  375MOL0     C50553   5.277   8.403   7.456  1.1887 -0.1331  0.3821
  375MOL0     C50554   5.407   8.386   7.499 -0.6088 -0.0246 -0.6143
  375MOL0     C50555   5.518   8.362   7.549  0.1751  0.6770 -0.0177
  375MOL0     C50556   4.700   8.092   7.292  0.7443 -0.1916 -0.8191
  375MOL0     C50557   4.586   8.007   7.262 -0.1385 -0.3808  0.3473
  375MOL0     H50558   4.143   7.898   7.021  0.7260 -0.6417 -1.0750
  375MOL0     H50559   3.932   7.771   7.035 -0.2681 -0.6114  1.1449
  375MOL0     H50560   3.936   7.452   6.972  1.2695 -4.0834 -2.0120
  375MOL0     H50561   4.021   7.387   7.116 -2.5911 -2.4072 -0.4932
  375MOL0     H50562   3.725   7.361   7.048 -0.2601 -1.5068 -0.6313
  375MOL0     H50563   3.839   7.233   7.028 -3.0959 -0.0629 -0.7541
  375MOL0     H50564   3.777   7.341   7.312  0.9723  1.8658 -1.1660
  375MOL0     H50565   3.709   7.197   7.243 -0.7591  0.6945 -2.1794
  375MOL0     H50566   3.956   7.103   7.220  0.9563 -0.2785  0.6077
  375MOL0     H50567   4.011   7.245   7.301  1.2653 -1.8029  1.2222
  375MOL0     H50568   3.991   7.108   7.468  0.0943  0.3574 -1.7453
  375MOL0     H50569   3.841   7.211   7.479 -2.8610  0.9498 -1.8738
  375MOL0     H50570   3.717   7.037   7.369  1.5907  4.8541 -0.5957
  375MOL0     H50571   3.865   6.930   7.392 -1.4009 -0.0345 -2.8903
  375MOL0     H50572   3.703   6.882   7.571  1.3910 -0.9896 -1.1574
  375MOL0     H50573   3.858   6.944   7.616 -0.3895 -0.6330  3.5540
  375MOL0     H50574   3.723   7.184   7.630  0.3619 -0.3752  0.8565
  375MOL0     H50575   3.734   7.063   7.762  1.3697  2.8256 -0.5415
  375MOL0     H50576   3.488   7.139   7.454  4.3727 -0.0196  1.6207
  375MOL0     H50577   3.175   7.203   7.555 -0.9317  1.1705 -1.7266
  375MOL0     H50578   3.259   7.149   7.408 -5.2692 -0.6182 -2.2074
  375MOL0     H50579   3.054   6.995   7.560 -1.0586 -0.1139 -0.1469
  375MOL0     H50580   3.187   6.918   7.467  0.3305  0.8496  3.7446
  375MOL0     H50581   2.970   6.950   7.340  0.5909  0.0522  0.3329
  375MOL0     H50582   3.109   7.003   7.258  0.7091  2.8753 -0.4848
  375MOL0     H50583   2.926   7.179   7.225 -0.0748 -0.5258  0.4046
  375MOL0     H50584   3.063   7.247   7.301 -2.8930  3.2070 -0.3322
  375MOL0     H50585   2.803   7.351   7.597  1.0450 -0.7417  0.0334
  375MOL0     H50586   2.468   7.345   7.739  0.0538  1.6283  0.0521
  375MOL0     H50587   2.603   7.444   7.718 -0.4317  0.4725 -0.1702
  375MOL0     H50588   2.453   7.466   7.616 -3.7425 -0.6298  3.5754
  375MOL0     H50589   2.195   6.984   7.748 -2.7762 -2.3537  1.7108
  375MOL0     H50590   1.987   6.945   7.785  1.6169 -1.7451 -0.4951
  375MOL0     H50591   1.653   7.098   7.708 -0.5937  0.9833  0.3178
  375MOL0     H50592   1.723   7.159   7.547  0.3404 -0.5384 -0.1623
  375MOL0     H50593   1.504   7.115   7.533  0.1957  0.0819  2.4114
  375MOL0     H50594   1.607   7.033   7.419  0.6242 -0.0108  0.4975
  375MOL0     H50595   1.501   6.917   7.685  1.5506 -1.1417 -0.0577
  375MOL0     H50596   1.558   6.815   7.554  1.4693  0.9066 -0.4958
  375MOL0     H50597   1.320   6.995   7.532 -3.3543 -0.0307 -0.1724
  375MOL0     H50598   1.366   6.863   7.414  1.1108 -0.1553  0.4235
  375MOL0     H50599   1.256   6.852   7.691 -2.7167 -1.6886 -0.1704
  375MOL0     H50600   1.322   6.707   7.616 -2.1924 -0.9076 -0.2356
  375MOL0     H50601   1.101   6.892   7.505  0.8407  0.1187 -1.9870
  375MOL0     H50602   1.164   6.755   7.422  0.1019  0.8251 -0.0659
  375MOL0     H50603   0.984   6.747   7.676 -0.8253  0.7575 -0.5505
  375MOL0     H50604   1.101   6.615   7.642 -0.6502 -2.3251 -0.7231
  375MOL0     H50605   0.870   6.579   7.545  0.2300  1.1656  0.4928
  375MOL0     H50606   0.985   6.577   7.412  1.0472 -1.3232  1.1104
  375MOL0     H50607   1.872   7.085   7.403 -1.0017 -0.6500  1.7440
  375MOL0     H50608   2.115   7.140   7.351  0.3088 -2.3559 -0.3988
  375MOL0     H50609   2.509   7.060   7.331  0.4140 -1.9084  1.1322
  375MOL0     H50610   2.744   7.070   7.279 -1.4883  1.0163 -1.6845
  375MOL0     H50611   4.100   7.514   7.338  3.4155 -1.6724 -0.8761
  375MOL0     H50612   4.263   7.689   7.375 -0.5498  0.9910  0.7074
  375MOL0     H50613   4.619   7.967   6.933  0.0665  0.4219  0.6888
  375MOL0     H50614   4.813   8.125   6.980 -1.0018  0.7611  0.1955
  375MOL0     H50615   4.937   8.113   7.381 -1.9039  0.7045  0.5925
  375MOL0     H50616   5.051   8.112   7.251  1.4817  1.5767  1.6514
  375MOL0     H50617   4.979   8.344   7.433 -0.3132 -0.5228 -0.7216
  375MOL0     H50618   5.077   8.372   7.283  1.7811 -0.6840 -0.2617
  375MOL0     H50619   5.247   8.220   7.340 -0.4565  0.5838 -1.6980
  375MOL0     H50620   5.189   8.220   7.515  1.1827 -0.4092 -0.0795
  375MOL0     H50621   5.230   8.453   7.541 -0.0129  2.3807 -1.6256
  375MOL0     H50622   5.271   8.473   7.372  0.4243  0.4427  0.9066
  375MOL0     H50623   5.599   8.356   7.619  0.0836  0.0069  0.0337
  375MOL0     H50624   4.715   8.115   7.397 -0.0650 -2.9243 -0.0201
  375MOL0     H50625   4.530   7.979   7.351 -0.5982 -0.9504 -0.1058
  376MOL0     O50626   2.095   8.607   2.411  0.6444  0.4043  0.7370
  376MOL0     C50627   2.128   8.504   2.466  0.5355  0.4590 -0.8519
  376MOL0     O50628   2.047   8.419   2.532  0.5307 -0.5951 -0.4185
  376MOL0     C50629   1.932   8.473   2.584  0.2769 -0.3434 -0.3728
  376MOL0     C50630   1.802   8.456   2.530  0.4531  0.1194  0.8099
  376MOL0     C50631   1.684   8.524   2.581 -0.3946 -0.5411  0.1299
  376MOL0     C50632   1.703   8.604   2.692  0.6811 -0.5583  0.3528
  376MOL0     O50633   1.586   8.665   2.745 -0.0857  0.1066  0.8030
  376MOL0     C50634   1.573   8.656   2.888  0.1598  0.2106  0.1890
  376MOL0     C50635   1.425   8.700   2.932  0.9521  0.8545  0.2118
  376MOL0     C50636   1.328   8.584   2.901 -0.0137 -0.2277  0.3636
  376MOL0     C50637   1.178   8.611   2.931 -0.4867 -0.6538 -1.4685
  376MOL0     C50638   1.107   8.483   2.949  0.4840 -0.1988  0.2455
  376MOL0     C50639   0.954   8.504   2.962  0.2492 -0.0758  0.4505
  376MOL0     C50640   0.878   8.399   3.038 -1.0674 -0.6509  0.1586
  376MOL0     C50641   0.735   8.445   3.056  0.2864  0.5120 -0.1150
  376MOL0     N50642   0.661   8.345   3.141 -0.2961  0.0113 -0.2336
  376MOL0     C50643   0.593   8.372   3.253 -0.6025  0.4845  0.5012
  376MOL0     C50644   0.522   8.264   3.280 -0.6621  0.3943 -0.2290
  376MOL0     C50645   0.424   8.252   3.387 -0.2538 -0.4088 -0.2311
  376MOL0     C50646   0.307   8.346   3.378  0.2927  0.3307  0.0701
  376MOL0     C50647   0.198   8.314   3.476  0.2030  0.6957  0.6584
  376MOL0     C50648   0.237   8.326   3.626  0.4577  0.0927 -0.6354
  376MOL0     O50649   0.205   8.210   3.706  0.1385 -0.1272 -0.3653
  376MOL0     C50650   0.143   8.224   3.829  0.1818 -0.2923  0.2892
  376MOL0     C50651   0.183   8.143   3.934  0.9681  0.0917  0.2581
  376MOL0     C50652   0.129   8.143   4.067  0.9646 -0.2223  0.9318
  376MOL0     C50653   0.182   8.053   4.177  0.9940  0.3408 -0.2645
  376MOL0     C50654   0.039   8.247   4.100  0.2100 -0.1953  0.0077
  376MOL0     C50655  -0.028   8.266   4.236  0.4712  0.8307 -0.2304
  376MOL0     O50656   0.003   8.180   4.337  0.5372  0.5695 -1.0940
  376MOL0     C50657  -0.073   8.179   4.446 -1.0020 -0.0212 -0.2124
  376MOL0     C50658  -0.180   8.085   4.440  0.1896  0.3809 -0.1859
  376MOL0     C50659  -0.281   8.096   4.542 -0.5595  0.4860  0.6924
  376MOL0     C50660  -0.277   8.198   4.639 -0.1453  0.1235  0.5468
  376MOL0     O50661  -0.364   8.207   4.749 -0.0535 -0.3253  0.1674
  376MOL0     C50662  -0.354   8.092   4.829  0.5812  0.5180 -0.3661
  376MOL0     C50663  -0.235   8.079   4.922 -0.1478  0.3290  0.6838
  376MOL0     C50664  -0.217   8.192   5.029  0.3171 -0.3944  0.1450
  376MOL0     C50665  -0.346   8.220   5.095  0.0166  0.1925  0.3314
  376MOL0     C50666  -0.335   8.305   5.219 -0.0187 -0.3284  0.3523
  376MOL0     C50667  -0.460   8.285   5.308  0.2641  0.5267 -0.8089
  376MOL0     C50668  -0.471   8.394   5.421  0.3439  0.1282  0.1524
  376MOL0     C50669  -0.602   8.383   5.507 -0.5048 -0.0280  0.2419
  376MOL0    Cl50670  -0.744   8.416   5.399 -0.4135  0.2315  0.0642
  376MOL0     C50671  -0.180   8.294   4.636  0.2613 -1.1216 -0.0706
  376MOL0     C50672  -0.075   8.284   4.542 -0.2946 -0.1647 -0.1458
  376MOL0     O50673  -0.105   8.356   4.243 -0.5883 -0.3525  1.2616
  376MOL0     C50674   0.008   8.343   3.995 -0.4900  0.0745 -0.2194
  376MOL0     C50675   0.052   8.323   3.863 -0.6707 -0.5861 -0.5019
  376MOL0     N50676   0.551   8.160   3.191 -0.1385 -0.3159 -0.3944
  376MOL0     N50677   0.635   8.214   3.110 -0.1858 -0.3750  0.0837
  376MOL0     C50678   1.830   8.627   2.741  0.2333 -1.0224  0.2081
  376MOL0     C50679   1.943   8.556   2.699 -0.7331  0.2645  0.9692
  376MOL0     C50680   2.264   8.450   2.444 -0.7671 -0.7942  0.2211
  376MOL0     C50681   2.289   8.313   2.445 -0.4096  0.2527  0.1304
  376MOL0     C50682   2.423   8.261   2.438 -0.5226 -0.8632 -0.5737
  376MOL0     C50683   2.530   8.340   2.401  1.1297  0.0927  0.1483
  376MOL0     O50684   2.656   8.290   2.389  0.3498 -0.5150  0.7104
  376MOL0     C50685   2.666   8.170   2.321 -0.3530  0.5889 -0.4722
  376MOL0     C50686   2.594   8.138   2.187 -0.3876  0.2770 -0.2484
  376MOL0     C50687   2.620   8.003   2.139 -0.8864 -0.6023  0.0551
  376MOL0     C50688   2.536   7.969   2.018  1.0960 -0.3471 -1.0596
  376MOL0     C50689   2.618   7.885   1.935  1.5059 -0.1754  0.0207
  376MOL0     C50690   2.702   7.824   1.873  0.2204  0.2973  1.0537
  376MOL0     C50691   2.503   8.480   2.386 -0.7765 -0.1043 -0.0469
  376MOL0     C50692   2.373   8.529   2.410 -0.6771  0.2897  0.1481
  376MOL0     H50693   1.795   8.397   2.440  2.8542  2.7098 -1.2600
  376MOL0     H50694   1.586   8.522   2.535 -1.2090  3.0993  1.3593
  376MOL0     H50695   1.595   8.554   2.919 -1.0191 -0.2017 -0.2587
  376MOL0     H50696   1.645   8.713   2.946  0.9510 -0.7920  0.2076
  376MOL0     H50697   1.424   8.713   3.040  0.1836 -1.2411  0.5051
  376MOL0     H50698   1.404   8.796   2.884  1.0571 -0.2799 -2.2965
  376MOL0     H50699   1.327   8.559   2.794 -1.1960 -1.8363  0.7092
  376MOL0     H50700   1.368   8.497   2.954 -3.3429 -2.0846  0.1310
  376MOL0     H50701   1.171   8.672   3.021 -1.6969  1.6748 -3.0413
  376MOL0     H50702   1.133   8.668   2.849 -1.8131  1.0020  0.3284
  376MOL0     H50703   1.121   8.416   2.863 -0.0100  0.6421 -0.5021
  376MOL0     H50704   1.151   8.447   3.043 -0.4573 -1.1499  0.3488
  376MOL0     H50705   0.939   8.603   3.006  1.8286  0.6173 -0.4989
  376MOL0     H50706   0.909   8.495   2.863 -1.3252 -0.2546  1.1448
  376MOL0     H50707   0.879   8.295   3.003 -0.6057  0.4030 -3.3007
  376MOL0     H50708   0.927   8.407   3.136 -2.6911 -3.1319  1.2819
  376MOL0     H50709   0.689   8.432   2.957 -2.0308 -5.1091  1.2672
  376MOL0     H50710   0.725   8.546   3.096 -0.3961  0.5571 -0.3858
  376MOL0     H50711   0.588   8.464   3.311 -0.5396 -0.4631  2.0446
  376MOL0     H50712   0.386   8.151   3.373  1.4123 -1.1277  0.1514
  376MOL0     H50713   0.477   8.267   3.482  1.9871 -4.9993 -0.4885
  376MOL0     H50714   0.264   8.347   3.278 -1.7443  3.2081  0.8372
  376MOL0     H50715   0.333   8.452   3.388  0.3957  0.5903 -2.3068
  376MOL0     H50716   0.157   8.215   3.452 -3.4809  2.3257 -0.5647
  376MOL0     H50717   0.106   8.370   3.455 -2.0422 -2.4347  1.2874
  376MOL0     H50718   0.193   8.414   3.673  0.4287 -1.5636  2.7873
  376MOL0     H50719   0.344   8.342   3.639  0.3106  2.6438 -1.9171
  376MOL0     H50720   0.257   8.069   3.903  0.4148  0.0238 -0.9692
  376MOL0     H50721   0.266   8.000   4.131  1.6621 -3.0320  4.1417
  376MOL0     H50722   0.215   8.120   4.258 -4.3689  2.0597  0.9099
  376MOL0     H50723   0.113   7.982   4.223 -0.0743  1.7309  0.3829
  376MOL0     H50724  -0.191   8.018   4.355 -1.5825 -0.0165  0.3171
  376MOL0     H50725  -0.376   8.044   4.537 -0.3903  0.1573  0.8193
  376MOL0     H50726  -0.447   8.100   4.886 -0.2590  1.2558 -1.8065
  376MOL0     H50727  -0.376   8.005   4.767  3.2494 -0.0952 -0.6092
  376MOL0     H50728  -0.257   7.987   4.977 -1.9990  2.0107  2.9441
  376MOL0     H50729  -0.144   8.066   4.863 -1.6358 -0.1289 -1.6342
  376MOL0     H50730  -0.180   8.281   4.977 -0.8164  0.5225  0.8842
  376MOL0     H50731  -0.142   8.154   5.100 -0.9152 -1.5536  0.8691
  376MOL0     H50732  -0.417   8.263   5.025  0.6822 -0.5170 -0.8065
  376MOL0     H50733  -0.387   8.125   5.131  1.5602 -0.6693 -0.0781
  376MOL0     H50734  -0.344   8.410   5.190 -2.0496 -0.3611  0.7461
  376MOL0     H50735  -0.239   8.287   5.270 -0.7629 -2.6704  1.0683
  376MOL0     H50736  -0.553   8.295   5.251 -0.7566  0.7050  0.8256
  376MOL0     H50737  -0.469   8.187   5.356 -1.3342  1.8563  1.8686
  376MOL0     H50738  -0.463   8.493   5.375 -3.2221  1.4337  2.0243
  376MOL0     H50739  -0.389   8.388   5.494  0.9844  1.4724 -0.4102
  376MOL0     H50740  -0.609   8.464   5.580 -3.9026  1.1874 -1.2319
  376MOL0     H50741  -0.602   8.281   5.546 -2.4270 -0.7651 -1.5202
  376MOL0     H50742  -0.171   8.364   4.718  1.1103 -0.3858 -0.7775
  376MOL0     H50743  -0.002   8.365   4.540 -0.9874  0.5634 -3.8378
  376MOL0     H50744  -0.063   8.420   4.022  0.1314  0.6642 -0.2472
  376MOL0     H50745   0.023   8.400   3.792  2.9359  2.7776  1.3211
  376MOL0     H50746   1.840   8.689   2.830 -1.5856  1.3667 -1.1286
  376MOL0     H50747   2.040   8.558   2.747 -0.7392  0.7166  0.9649
  376MOL0     H50748   2.212   8.238   2.463  1.5749 -2.0848 -0.5904
  376MOL0     H50749   2.431   8.155   2.456  1.0956 -1.2597 -3.1524
  376MOL0     H50750   2.774   8.158   2.305 -0.6281  0.1147 -2.1430
  376MOL0     H50751   2.634   8.090   2.389  1.3396  1.1158  1.0263
  376MOL0     H50752   2.606   8.224   2.120 -1.8541  0.6738 -0.0484
  376MOL0     H50753   2.486   8.133   2.205 -0.1013 -0.4858  1.3813
  376MOL0     H50754   2.594   7.934   2.220  1.6523 -0.0716  1.4285
  376MOL0     H50755   2.729   7.997   2.130 -0.8279  0.1647  0.2326
  376MOL0     H50756   2.498   8.063   1.978 -2.3993 -1.8381 -1.5834
  376MOL0     H50757   2.451   7.911   2.057  0.5450 -0.2157 -2.0429
  376MOL0     H50758   2.772   7.762   1.823 -0.3591 -0.2515  0.9094
  376MOL0     H50759   2.583   8.552   2.371 -1.4039  0.3477 -1.3478
  376MOL0     H50760   2.352   8.636   2.403  0.0793  0.3400 -3.8352
  377MOL0     O50761   5.920   0.452   7.122 -0.0271 -1.2056  0.3504
  377MOL0     C50762   5.991   0.436   7.030 -0.2729 -0.1997  0.6883
  377MOL0     O50763   5.954   0.395   6.909  0.0991 -0.3823 -0.6140
  377MOL0     C50764   5.817   0.383   6.893 -0.5434  0.0296 -1.1349
  377MOL0     C50765   5.752   0.263   6.922  0.2219  0.0476  0.1753
  377MOL0     C50766   5.618   0.257   6.901 -0.2328 -0.7377 -0.1004
  377MOL0     C50767   5.539   0.362   6.858  0.5443 -0.1963  0.5834
  377MOL0     O50768   5.401   0.356   6.841 -0.0233 -1.0740  0.0634
  377MOL0     C50769   5.356   0.226   6.802 -0.0566  0.8290 -1.0966
  377MOL0     C50770   5.222   0.228   6.725  0.7728  0.6674  0.2292
  377MOL0     C50771   5.187   0.080   6.683 -0.7357 -0.6429 -0.0393
  377MOL0     C50772   5.049   0.063   6.740 -0.0719  0.3986  0.6399
  377MOL0     C50773   4.995  -0.071   6.691 -0.4564  0.5505 -0.1425
  377MOL0     C50774   5.075  -0.194   6.730 -0.0495 -1.1251 -0.3655
  377MOL0     C50775   5.025  -0.314   6.661  0.6608  0.3850 -0.0673
  377MOL0     C50776   5.063  -0.456   6.705  0.0023 -0.1896 -0.1444
  377MOL0     N50777   5.014  -0.574   6.633  0.2217 -0.1245  0.6657
  377MOL0     C50778   4.919  -0.658   6.686  0.7741 -0.6031 -0.5842
  377MOL0     C50779   4.890  -0.746   6.594  0.1475  0.2895 -0.5652
  377MOL0     C50780   4.782  -0.849   6.602 -0.7127  0.1062 -0.0542
  377MOL0     C50781   4.827  -0.969   6.685 -0.4264 -0.1644  0.1277
  377MOL0     C50782   4.733  -1.093   6.683  0.2578 -0.6447 -0.5863
  377MOL0     C50783   4.588  -1.053   6.699  0.5217 -0.4734 -0.0815
  377MOL0     O50784   4.581  -0.978   6.823 -0.5067  0.3769  0.4006
  377MOL0     C50785   4.471  -0.894   6.840 -0.6854  0.2230 -0.0975
  377MOL0     C50786   4.456  -0.856   6.976 -0.6471 -0.2998  0.5999
  377MOL0     C50787   4.350  -0.774   7.014  0.1267 -0.4260  0.8430
  377MOL0     C50788   4.342  -0.736   7.155 -0.2819  0.6395  0.1058
  377MOL0     C50789   4.252  -0.733   6.920 -0.3384  0.9984  0.2500
  377MOL0     C50790   4.133  -0.643   6.949 -0.1562  0.3659  0.0591
  377MOL0     O50791   4.059  -0.617   6.841  0.8148 -0.1543 -0.2699
  377MOL0     C50792   3.944  -0.546   6.848  0.3277  0.2700 -0.3190
  377MOL0     C50793   3.925  -0.438   6.763  0.7561 -0.4561 -0.8975
  377MOL0     C50794   3.810  -0.353   6.768 -0.4468  0.6904 -0.1828
  377MOL0     C50795   3.706  -0.382   6.857  0.4421 -0.2716  0.4860
  377MOL0     O50796   3.580  -0.320   6.844  0.6723 -0.3906 -0.3028
  377MOL0     C50797   3.574  -0.207   6.762  0.0313 -0.8415 -0.4836
  377MOL0     C50798   3.418  -0.176   6.754 -0.4330  0.0882  0.3621
  377MOL0     C50799   3.369  -0.106   6.624  0.4039 -0.1031  0.0320
  377MOL0     C50800   3.349   0.043   6.642 -0.3578 -0.0740  0.0350
  377MOL0     C50801   3.329   0.128   6.519 -0.4141  0.1750  0.1036
  377MOL0     C50802   3.469   0.146   6.457 -0.0061  0.2803  0.2583
  377MOL0     C50803   3.461   0.247   6.339  0.8348  0.5423 -1.2966
  377MOL0     C50804   3.382   0.214   6.215 -0.0188 -0.3419  0.1620
  377MOL0    Cl50805   3.393   0.052   6.161  0.3965  0.1198 -0.1452
  377MOL0     C50806   3.730  -0.489   6.944  0.5471 -0.6619 -0.1305
  377MOL0     C50807   3.849  -0.560   6.949  0.2156 -0.7644  0.3668
  377MOL0     O50808   4.113  -0.604   7.060 -0.2245  0.0075 -0.2032
  377MOL0     C50809   4.267  -0.784   6.792  0.8575  0.3041 -0.4267
  377MOL0     C50810   4.372  -0.857   6.746 -0.7574  0.5132 -0.3578
  377MOL0     N50811   4.968  -0.725   6.479  0.0666  1.0316 -0.4475
  377MOL0     N50812   5.032  -0.614   6.501 -0.0881 -0.1798 -0.4247
  377MOL0     C50813   5.604   0.485   6.833 -0.2196  0.4092 -0.7889
  377MOL0     C50814   5.742   0.491   6.854 -0.4319  0.7564  0.1355
  377MOL0     C50815   6.129   0.458   7.052 -0.1009 -0.2038 -0.0247
  377MOL0     C50816   6.228   0.479   6.951 -0.3586 -0.3559  0.3592
  377MOL0     C50817   6.363   0.476   6.980 -0.1733  0.8080  0.2683
  377MOL0     C50818   6.407   0.460   7.108 -0.2694 -0.3948  0.4237
  377MOL0     O50819   6.550   0.456   7.123  0.1734 -0.4438  0.5774
  377MOL0     C50820   6.606   0.435   7.251  0.2043 -0.6669  0.1757
  377MOL0     C50821   6.769   0.439   7.256  0.1935  0.4738  0.5498
  377MOL0     C50822   6.841   0.365   7.143  0.8151 -0.1571  0.5092
  377MOL0     C50823   6.839   0.212   7.167  0.3217 -0.9828  0.7445
  377MOL0     C50824   6.936   0.179   7.267  0.2973 -0.2839 -0.1373
  377MOL0     C50825   7.016   0.169   7.357 -0.3667 -0.0411 -0.2924
  377MOL0     C50826   6.318   0.452   7.214  0.3142 -0.2867  0.3625
  377MOL0     C50827   6.173   0.452   7.189 -0.3895 -0.5282  0.2636
  377MOL0     H50828   5.808   0.176   6.954 -0.5666 -1.7122 -2.8483
  377MOL0     H50829   5.567   0.165   6.927 -2.7248  0.2074 -1.3082
  377MOL0     H50830   5.439   0.178   6.749  3.0061  2.9890  1.3554
  377MOL0     H50831   5.333   0.168   6.892  2.4014  1.6147  0.1301
  377MOL0     H50832   5.148   0.268   6.795  2.2213  0.1912  2.1155
  377MOL0     H50833   5.222   0.295   6.638  0.0207 -0.8942 -1.0198
  377MOL0     H50834   5.198   0.063   6.576  0.6114  0.7087 -0.1436
  377MOL0     H50835   5.256   0.004   6.723  0.6660 -0.4475 -1.9548
  377MOL0     H50836   5.057   0.080   6.848  0.3704  2.3753  0.3349
  377MOL0     H50837   4.985   0.141   6.699 -0.6015  0.5750  1.7680
  377MOL0     H50838   4.890  -0.089   6.719 -0.0474 -1.2871  0.3537
  377MOL0     H50839   5.000  -0.066   6.582  1.8140  1.3529 -0.0425
  377MOL0     H50840   5.183  -0.187   6.716 -0.2354 -0.8607 -1.9603
  377MOL0     H50841   5.074  -0.192   6.839  2.1771 -0.5834 -0.2976
  377MOL0     H50842   4.917  -0.306   6.677  0.8329  3.7225  0.1025
  377MOL0     H50843   5.062  -0.305   6.559  1.7975  1.6097  0.4146
  377MOL0     H50844   5.036  -0.468   6.811  1.6175 -3.3962  0.0216
  377MOL0     H50845   5.173  -0.457   6.703  0.0103 -2.0879 -2.2926
  377MOL0     H50846   4.874  -0.650   6.785 -0.4872  0.3659 -1.2026
  377MOL0     H50847   4.694  -0.796   6.639 -1.2822  1.4332 -3.0356
  377MOL0     H50848   4.763  -0.882   6.499 -0.8709  1.7297 -0.5709
  377MOL0     H50849   4.826  -0.949   6.793 -1.4889 -1.5642  0.4113
  377MOL0     H50850   4.924  -1.005   6.651 -0.8232  0.4955 -1.8401
  377MOL0     H50851   4.755  -1.162   6.765  0.9121  0.3749  0.1183
  377MOL0     H50852   4.757  -1.150   6.592 -0.6717 -1.7090 -0.1864
  377MOL0     H50853   4.527  -1.141   6.722  0.8492 -0.4674  0.8394
  377MOL0     H50854   4.556  -1.000   6.609  0.5020 -0.8949 -0.3256
  377MOL0     H50855   4.522  -0.897   7.051 -0.2535  0.5873  0.7495
  377MOL0     H50856   4.254  -0.782   7.200  0.2719 -0.2057  0.3627
  377MOL0     H50857   4.423  -0.787   7.209  0.1049 -1.8591 -2.5990
  377MOL0     H50858   4.352  -0.628   7.167  0.2985  0.6951 -0.7474
  377MOL0     H50859   4.002  -0.405   6.693  0.0117 -0.7938 -1.9032
  377MOL0     H50860   3.809  -0.269   6.699  3.1429  2.8671  2.0558
  377MOL0     H50861   3.630  -0.126   6.808 -0.5247 -0.3809 -0.6070
  377MOL0     H50862   3.611  -0.230   6.661 -4.1862 -4.5162 -1.5113
  377MOL0     H50863   3.360  -0.267   6.771 -1.1718  0.2906 -0.9074
  377MOL0     H50864   3.401  -0.113   6.842 -1.1428 -0.5147  0.6655
  377MOL0     H50865   3.282  -0.168   6.604  1.7311 -2.2326  0.4618
  377MOL0     H50866   3.443  -0.113   6.544 -2.7034  0.2192 -3.0976
  377MOL0     H50867   3.257   0.063   6.697 -1.2357  0.7225 -1.6331
  377MOL0     H50868   3.434   0.081   6.700 -1.5294  0.1548  1.6460
  377MOL0     H50869   3.269   0.219   6.535 -2.2652 -0.7290 -1.3406
  377MOL0     H50870   3.263   0.066   6.458 -2.2505 -0.3213  2.4584
  377MOL0     H50871   3.539   0.191   6.529 -0.7058  1.7213  0.0783
  377MOL0     H50872   3.521   0.054   6.433 -0.3444 -0.2631  1.5312
  377MOL0     H50873   3.563   0.273   6.312  1.9768 -0.5901  1.5454
  377MOL0     H50874   3.424   0.339   6.386 -3.5363 -0.5533 -2.1037
  377MOL0     H50875   3.388   0.287   6.134  0.5649 -1.3490 -0.7289
  377MOL0     H50876   3.280   0.240   6.243 -0.1455 -0.5693 -0.0824
  377MOL0     H50877   3.659  -0.513   7.023 -1.5691  0.3254 -1.6094
  377MOL0     H50878   3.862  -0.640   7.021 -2.4831 -2.4444 -0.8901
  377MOL0     H50879   4.202  -0.756   6.709  1.1438 -3.5736 -2.1921
  377MOL0     H50880   4.370  -0.891   6.643 -0.3016  1.7572 -0.7987
  377MOL0     H50881   5.555   0.580   6.814 -0.5044  0.1145 -1.5654
  377MOL0     H50882   5.785   0.587   6.828 -1.6652  0.6430 -2.6635
  377MOL0     H50883   6.209   0.490   6.845  0.1175 -0.9453  0.2109
  377MOL0     H50884   6.435   0.494   6.901  0.9424  0.6092  1.2265
  377MOL0     H50885   6.575   0.512   7.323  0.5346  0.5727 -0.9750
  377MOL0     H50886   6.569   0.335   7.276  0.6626 -1.0777 -0.7519
  377MOL0     H50887   6.805   0.392   7.348  1.5447 -2.7779 -1.4498
  377MOL0     H50888   6.798   0.545   7.257 -2.1390  1.2902  4.6299
  377MOL0     H50889   6.948   0.387   7.131  0.2334  1.5342 -2.7202
  377MOL0     H50890   6.797   0.390   7.046  1.6767 -1.9739 -0.4089
  377MOL0     H50891   6.873   0.173   7.071 -0.6166 -1.5225  0.6200
  377MOL0     H50892   6.742   0.163   7.174  0.0154 -0.3475  1.0344
  377MOL0     H50893   7.071   0.156   7.449  0.3436 -0.3893 -0.7589
  377MOL0     H50894   6.352   0.435   7.315  1.8058 -3.8758 -0.5900
  377MOL0     H50895   6.107   0.452   7.275 -1.3534  1.9569 -0.4048
  378MOL0     O50896   4.700   1.872  10.644  0.3596 -0.4528 -0.4655
  378MOL0     C50897   4.764   1.919  10.551 -0.5282 -0.2145  0.3821
  378MOL0     O50898   4.713   1.997  10.454  0.0051 -0.3096 -0.6044
  378MOL0     C50899   4.582   2.012  10.445  0.2069 -0.2751 -0.4152
  378MOL0     C50900   4.497   1.920  10.383  0.1637  0.5268  0.4435
  378MOL0     C50901   4.358   1.941  10.380  0.7225  1.1439 -0.4445
  378MOL0     C50902   4.321   2.072  10.407  0.1248 -0.5416  0.4171
  378MOL0     O50903   4.196   2.122  10.374 -0.1106  0.3482 -0.6963
  378MOL0     C50904   4.095   2.048  10.434  0.5506  0.6910 -0.8193
  378MOL0     C50905   3.966   2.131  10.408  0.1550  0.6950  0.0673
  378MOL0     C50906   3.858   2.078  10.501  0.6014 -0.5582  0.3595
  378MOL0     C50907   3.741   2.190  10.496 -0.1180  0.1706  0.8153
  378MOL0     C50908   3.609   2.142  10.571  0.6451 -0.3546  0.0776
  378MOL0     C50909   3.499   2.250  10.549 -0.2904  0.7281  0.1309
  378MOL0     C50910   3.354   2.219  10.590  0.6377  0.2346 -0.0625
  378MOL0     C50911   3.242   2.320  10.579  0.1053 -0.0987  0.1692
  378MOL0     N50912   3.228   2.396  10.698  0.1465  0.8424  0.0995
  378MOL0     C50913   3.328   2.448  10.782  0.4560  0.1725  0.4579
  378MOL0     C50914   3.268   2.497  10.889 -0.2138 -0.0019 -0.5310
  378MOL0     C50915   3.312   2.592  10.998 -0.6816  0.4031 -0.4672
  378MOL0     C50916   3.364   2.515  11.125  0.4625 -0.2407 -0.3427
  378MOL0     C50917   3.257   2.436  11.202  0.2140  0.2927 -0.4045
  378MOL0     C50918   3.333   2.372  11.321  0.2296  0.4160 -0.0151
  378MOL0     O50919   3.241   2.283  11.396 -0.0576  0.0844  0.5507
  378MOL0     C50920   3.118   2.337  11.437 -0.5098  0.1613  0.7129
  378MOL0     C50921   3.101   2.408  11.564 -0.7782  0.1656 -0.1082
  378MOL0     C50922   2.979   2.464  11.609 -0.4839  0.7290 -0.0633
  378MOL0     C50923   2.984   2.544  11.739  1.0680 -0.8660  0.8439
  378MOL0     C50924   2.863   2.445  11.526 -0.5839  0.5846 -0.0077
  378MOL0     C50925   2.735   2.500  11.551  0.2872 -0.1868  0.8028
  378MOL0     O50926   2.666   2.542  11.440 -0.6164 -0.1930  0.3681
  378MOL0     C50927   2.538   2.584  11.463 -0.2814 -0.9483 -0.1188
  378MOL0     C50928   2.439   2.491  11.478  0.5332 -0.4257  0.2113
  378MOL0     C50929   2.305   2.534  11.496  0.5797 -0.3846  0.0503
  378MOL0     C50930   2.275   2.670  11.498 -0.4102 -0.2938 -1.1170
  378MOL0     O50931   2.148   2.721  11.502 -0.2776 -0.2648  0.9510
  378MOL0     C50932   2.046   2.643  11.561 -0.1257 -0.0441 -0.6060
  378MOL0     C50933   1.948   2.741  11.626 -0.5953 -0.5698  0.2767
  378MOL0     C50934   1.830   2.638  11.654  0.6961 -0.0030 -0.3189
  378MOL0     C50935   1.700   2.726  11.650  0.7275  0.2865 -0.2917
  378MOL0     C50936   1.584   2.641  11.682 -0.1615 -0.5606 -0.1282
  378MOL0     C50937   1.467   2.686  11.583 -0.1651  0.5838  0.5639
  378MOL0     C50938   1.338   2.598  11.602 -0.0583  0.1644 -0.2463
  378MOL0     C50939   1.215   2.677  11.562 -0.6029  0.3923  0.3032
  378MOL0    Cl50940   1.077   2.603  11.635 -0.2795 -0.4021  0.0156
  378MOL0     C50941   2.377   2.764  11.492 -0.7439  0.5180  0.4904
  378MOL0     C50942   2.506   2.722  11.460 -0.9461  0.1144  0.3596
  378MOL0     O50943   2.682   2.470  11.654 -0.1009  0.7616 -0.7834
  378MOL0     C50944   2.878   2.356  11.412  0.1725  0.0241 -0.0915
  378MOL0     C50945   3.002   2.313  11.362  0.1009 -0.8123  0.2641
  378MOL0     N50946   3.137   2.466  10.873  0.7748 -0.0878  0.6323
  378MOL0     N50947   3.110   2.399  10.768 -0.2819  0.2070  0.4762
  378MOL0     C50948   4.402   2.172  10.449  0.1455  0.9340 -0.0243
  378MOL0     C50949   4.537   2.141  10.477  0.5968 -0.6189 -0.1025
  378MOL0     C50950   4.910   1.884  10.544  0.3371 -0.0732  0.4548
  378MOL0     C50951   4.964   1.799  10.647  0.1115  0.4666  0.4794
  378MOL0     C50952   5.098   1.764  10.654 -0.4974 -0.4742 -1.3008
  378MOL0     C50953   5.190   1.816  10.555 -0.3397  0.4251  0.1498
  378MOL0     O50954   5.323   1.780  10.563  0.3055 -0.2489 -0.5770
  378MOL0     C50955   5.360   1.669  10.647 -0.1791 -0.2079 -0.2919
  378MOL0     C50956   5.492   1.601  10.608  0.2595  0.5869  0.1426
  378MOL0     C50957   5.616   1.690  10.650  0.8151 -0.0929  0.7117
  378MOL0     C50958   5.603   1.839  10.667  0.7423  0.2347  0.0590
  378MOL0     C50959   5.731   1.907  10.683 -0.1038  0.0061 -0.5474
  378MOL0     C50960   5.824   1.985  10.685  0.5424 -0.1985  0.8625
  378MOL0     C50961   5.134   1.896  10.444  0.0724 -0.5480 -0.7656
  378MOL0     C50962   4.994   1.921  10.437 -1.2395  0.6552 -1.1758
  378MOL0     H50963   4.530   1.823  10.348  0.9766  1.0752 -0.3614
  378MOL0     H50964   4.295   1.879  10.316 -0.5239 -0.6676  2.3388
  378MOL0     H50965   4.080   1.941  10.415  1.8424  0.0643  1.3783
  378MOL0     H50966   4.111   2.039  10.541  1.0454 -1.0238 -0.9972
  378MOL0     H50967   3.978   2.238  10.425  0.9020  0.4044  1.6261
  378MOL0     H50968   3.936   2.117  10.304  2.8550 -4.8021 -0.3787
  378MOL0     H50969   3.829   1.976  10.474  3.6803 -1.6391  0.7143
  378MOL0     H50970   3.876   2.068  10.608  0.9356 -1.0874  0.2562
  378MOL0     H50971   3.781   2.279  10.545  3.1340  0.1171 -1.3798
  378MOL0     H50972   3.711   2.204  10.391  1.3696 -2.0442  0.0227
  378MOL0     H50973   3.585   2.041  10.538  3.1807 -1.6369  1.7739
  378MOL0     H50974   3.624   2.141  10.680 -3.6954  1.4720  0.8905
  378MOL0     H50975   3.528   2.342  10.600  0.5061 -0.6409  2.2901
  378MOL0     H50976   3.492   2.267  10.441 -1.1773 -2.6749 -0.4651
  378MOL0     H50977   3.316   2.134  10.532 -1.5285  0.4722  0.9023
  378MOL0     H50978   3.361   2.185  10.694 -2.1905 -1.3697 -0.2840
  378MOL0     H50979   3.145   2.278  10.550 -0.3662  1.2646 -0.3243
  378MOL0     H50980   3.265   2.390  10.498 -0.1061  0.6293  0.7328
  378MOL0     H50981   3.434   2.461  10.759  0.5635  1.8478  1.6621
  378MOL0     H50982   3.391   2.655  10.957  0.4872 -2.0939 -2.3560
  378MOL0     H50983   3.234   2.665  11.023  1.0189  1.4331  2.2394
  378MOL0     H50984   3.412   2.587  11.193  4.1710 -1.8915 -0.9742
  378MOL0     H50985   3.439   2.442  11.094  1.0877 -0.9860  2.5884
  378MOL0     H50986   3.211   2.365  11.133  3.4034 -1.5443 -0.8614
  378MOL0     H50987   3.185   2.510  11.238 -1.6299 -1.3959 -0.4242
  378MOL0     H50988   3.352   2.451  11.394  0.4132 -0.3398  0.7762
  378MOL0     H50989   3.428   2.326  11.291  0.1161  0.3716 -0.3100
  378MOL0     H50990   3.191   2.414  11.624 -2.4868 -0.8185  2.7002
  378MOL0     H50991   3.049   2.504  11.816 -0.8816 -1.3185  2.3280
  378MOL0     H50992   3.015   2.647  11.720 -1.0262 -0.0966  1.2599
  378MOL0     H50993   2.884   2.541  11.784  0.9209  0.7102  0.6805
  378MOL0     H50994   2.461   2.385  11.470  0.0226 -0.4296 -1.7324
  378MOL0     H50995   2.230   2.455  11.507  4.5979 -4.3974  1.9083
  378MOL0     H50996   1.993   2.579  11.489 -1.4929 -2.1934  2.1108
  378MOL0     H50997   2.080   2.578  11.642 -0.1782  0.3774 -0.2466
  378MOL0     H50998   1.981   2.790  11.718 -1.7600  0.7113  0.0522
  378MOL0     H50999   1.917   2.814  11.551 -0.1397 -1.8377 -1.1991
  378MOL0     H51000   1.848   2.588  11.750 -0.6769  1.3583  0.6862
  378MOL0     H51001   1.820   2.559  11.578  0.0166  0.0493 -0.2944
  378MOL0     H51002   1.719   2.809  11.718  2.5702  0.0240 -0.4363
  378MOL0     H51003   1.690   2.758  11.546  1.0753  0.8610 -0.1551
  378MOL0     H51004   1.550   2.671  11.781  0.4046  0.9777 -0.3660
  378MOL0     H51005   1.598   2.533  11.675 -2.7325 -0.9048 -1.1107
  378MOL0     H51006   1.443   2.789  11.610 -0.6286  0.1506  1.8756
  378MOL0     H51007   1.489   2.682  11.476  1.4683  0.0927  0.8902
  378MOL0     H51008   1.331   2.603  11.711 -1.1533  1.7444 -0.3537
  378MOL0     H51009   1.344   2.494  11.568 -1.7010 -0.5358  1.4173
  378MOL0     H51010   1.214   2.664  11.453 -0.5881 -1.0435  0.4646
  378MOL0     H51011   1.222   2.783  11.588  2.0172  0.4756 -0.4066
  378MOL0     H51012   2.357   2.870  11.499 -0.8511  0.5859 -0.7369
  378MOL0     H51013   2.590   2.790  11.452  1.3688 -2.7894 -3.2353
  378MOL0     H51014   2.784   2.333  11.363  0.5332 -1.9374  0.0624
  378MOL0     H51015   3.009   2.266  11.265 -4.5893  0.9825 -1.2130
  378MOL0     H51016   4.365   2.274  10.457  2.0857  1.7823 -1.1432
  378MOL0     H51017   4.611   2.217  10.501  1.4821 -0.0247 -3.9666
  378MOL0     H51018   4.897   1.756  10.721  0.1772 -1.0483 -0.3203
  378MOL0     H51019   5.131   1.704  10.739 -0.6610 -0.4603 -1.2278
  378MOL0     H51020   5.353   1.708  10.749 -2.0216  1.6698 -1.0538
  378MOL0     H51021   5.287   1.588  10.645  0.4997 -1.0893  3.8352
  378MOL0     H51022   5.492   1.596  10.499  0.6785  3.2492 -0.0540
  378MOL0     H51023   5.509   1.507  10.661  1.2887  1.6828  1.8855
  378MOL0     H51024   5.679   1.677  10.562 -1.0780 -5.5863 -0.2349
  378MOL0     H51025   5.661   1.644  10.739  2.3395  2.2931  1.2650
  378MOL0     H51026   5.530   1.859  10.746 -1.0752 -0.4347 -1.3789
  378MOL0     H51027   5.562   1.877  10.573  2.8612 -0.0373 -1.0587
  378MOL0     H51028   5.906   2.051  10.698 -0.3700  0.9404  0.9975
  378MOL0     H51029   5.208   1.925  10.370  2.1388 -0.8796  1.0723
  378MOL0     H51030   4.946   1.987  10.365 -2.2309  2.1073  0.7150
  379MOL0     O51031   8.464   6.182   5.221 -0.4109 -0.5925 -0.1877
  379MOL0     C51032   8.556   6.226   5.148  1.1158  0.0957  0.1904
  379MOL0     O51033   8.659   6.307   5.190 -0.1485 -0.0173 -0.7405
  379MOL0     C51034   8.664   6.377   5.313  0.1319 -0.2959  0.3333
  379MOL0     C51035   8.550   6.429   5.378  0.0907 -0.1387  0.5699
  379MOL0     C51036   8.561   6.515   5.483  0.6819  0.1330 -0.0516
  379MOL0     C51037   8.673   6.555   5.535 -0.8862  0.3098  0.0612
  379MOL0     O51038   8.681   6.639   5.637  0.4745 -0.1106 -0.3923
  379MOL0     C51039   8.742   6.583   5.758 -0.5651  0.4567 -0.2219
  379MOL0     C51040   8.650   6.497   5.838  0.0311  0.4817  1.3510
  379MOL0     C51041   8.724   6.449   5.971  0.2661  0.1645  0.1460
  379MOL0     C51042   8.629   6.367   6.047 -0.9155 -0.6433 -0.5196
  379MOL0     C51043   8.679   6.323   6.182  0.0048 -0.5441 -0.5836
  379MOL0     C51044   8.702   6.440   6.288 -1.6243  0.2299  0.7362
  379MOL0     C51045   8.719   6.386   6.431  0.6135  0.4778  0.0816
  379MOL0     C51046   8.776   6.497   6.531  0.3212  0.7502  0.3708
  379MOL0     N51047   8.695   6.617   6.509 -0.2364  0.1161 -0.0250
  379MOL0     C51048   8.566   6.636   6.563  0.3123 -0.2802  1.2015
  379MOL0     C51049   8.513   6.735   6.491  1.1062 -1.1356  0.5956
  379MOL0     C51050   8.376   6.800   6.491  1.0453  0.1779 -0.5101
  379MOL0     C51051   8.265   6.695   6.460  0.0164  0.2101 -0.4031
  379MOL0     C51052   8.128   6.766   6.484 -0.0577 -0.0969  0.0504
  379MOL0     C51053   8.016   6.680   6.426 -0.3121 -0.3316  0.5255
  379MOL0     O51054   7.904   6.768   6.398 -0.9029  0.5662  0.7488
  379MOL0     C51055   7.807   6.718   6.324 -0.8580 -0.6927  0.8385
  379MOL0     C51056   7.734   6.818   6.254  0.0984 -0.2338 -0.4244
  379MOL0     C51057   7.623   6.788   6.167  0.3199 -0.0424  0.5244
  379MOL0     C51058   7.555   6.908   6.094  0.4345 -0.0362  0.1923
  379MOL0     C51059   7.583   6.651   6.155  0.5609 -0.1644 -0.6791
  379MOL0     C51060   7.486   6.601   6.061 -0.3560 -0.0593  0.7582
  379MOL0     O51061   7.492   6.471   6.018 -0.7616  0.0260  0.4392
  379MOL0     C51062   7.441   6.434   5.893 -0.3782 -0.1538  0.0457
  379MOL0     C51063   7.305   6.416   5.880  0.5520 -0.4475 -0.2262
  379MOL0     C51064   7.248   6.385   5.762  1.5169 -0.4481 -0.5364
  379MOL0     C51065   7.323   6.368   5.650 -0.1499  0.1496  0.6238
  379MOL0     O51066   7.253   6.337   5.535 -0.1102  0.3672  0.2158
  379MOL0     C51067   7.316   6.236   5.456  0.3504 -0.2744  0.5104
  379MOL0     C51068   7.219   6.182   5.355 -0.4017  0.2868  0.0942
  379MOL0     C51069   7.115   6.102   5.430 -0.1414  0.2419 -1.4548
  379MOL0     C51070   7.015   6.040   5.335  0.2320 -0.7214 -0.5216
  379MOL0     C51071   6.922   5.961   5.426 -0.2041  0.2771 -0.4040
  379MOL0     C51072   6.817   5.885   5.334  0.3499  0.7179  0.4729
  379MOL0     C51073   6.880   5.763   5.253 -0.2142 -0.5759  0.1353
  379MOL0     C51074   6.798   5.699   5.144 -0.2217  0.0651  0.3902
  379MOL0    Cl51075   6.664   5.617   5.216 -0.5451 -0.1085  0.1252
  379MOL0     C51076   7.465   6.377   5.660  0.3170 -0.3319  0.5097
  379MOL0     C51077   7.524   6.405   5.785 -0.1888 -0.1990 -0.7688
  379MOL0     O51078   7.400   6.676   6.019  0.0425  0.3103  0.6767
  379MOL0     C51079   7.645   6.555   6.240 -1.3949 -0.5640  0.4859
  379MOL0     C51080   7.759   6.585   6.318  0.5859  0.4678  0.4079
  379MOL0     N51081   8.612   6.791   6.416  0.3904 -0.1665 -0.0836
  379MOL0     N51082   8.718   6.717   6.424 -0.1818  0.0142  0.4865
  379MOL0     C51083   8.793   6.497   5.486  0.0982  0.3095  0.0842
  379MOL0     C51084   8.791   6.413   5.377 -0.5927 -0.3692  0.6845
  379MOL0     C51085   8.567   6.172   5.002 -0.5905  0.7351 -1.2491
  379MOL0     C51086   8.467   6.092   4.948 -0.3085  0.2109 -0.1228
  379MOL0     C51087   8.490   6.022   4.824 -0.2792  0.1247 -0.2899
  379MOL0     C51088   8.615   6.023   4.758 -0.0819 -0.5713  0.6760
  379MOL0     O51089   8.643   5.958   4.642  1.0105 -0.2038  0.3489
  379MOL0     C51090   8.633   6.055   4.533 -0.2293  0.1217  1.1046
  379MOL0     C51091   8.514   6.149   4.538  0.9816  0.3164 -0.5305
  379MOL0     C51092   8.382   6.077   4.516 -0.1009 -0.2973  0.0257
  379MOL0     C51093   8.266   6.179   4.513 -0.0740  0.1888 -0.6105
  379MOL0     C51094   8.257   6.274   4.615 -0.0230 -0.8430 -0.2406
  379MOL0     C51095   8.250   6.355   4.702 -0.3468 -0.5309 -0.0425
  379MOL0     C51096   8.711   6.110   4.809  0.4725 -0.4085  0.0186
  379MOL0     C51097   8.692   6.180   4.930 -0.1185  0.7482 -0.7173
  379MOL0     H51098   8.451   6.402   5.344 -0.4095  2.5671 -0.3398
  379MOL0     H51099   8.472   6.554   5.533  0.2312 -0.1356 -0.6316
  379MOL0     H51100   8.831   6.522   5.744  1.0721  2.4860  0.7049
  379MOL0     H51101   8.777   6.661   5.827 -0.6870  0.1710  0.1656
  379MOL0     H51102   8.562   6.558   5.860 -0.4263  1.0879 -1.6148
  379MOL0     H51103   8.626   6.417   5.768  0.3198  2.5498 -1.2885
  379MOL0     H51104   8.804   6.379   5.945  0.0071  0.1605 -0.6564
  379MOL0     H51105   8.762   6.529   6.036  1.2147 -0.4805  0.4149
  379MOL0     H51106   8.540   6.430   6.055  0.0770  0.7075  0.1858
  379MOL0     H51107   8.598   6.280   5.988 -0.1419 -2.7944  2.0363
  379MOL0     H51108   8.599   6.255   6.214 -0.3630  0.2516  0.2350
  379MOL0     H51109   8.772   6.270   6.161 -1.3898 -2.7461 -1.5580
  379MOL0     H51110   8.800   6.476   6.257 -1.1019  2.0800  4.0620
  379MOL0     H51111   8.622   6.513   6.273  1.6721  3.8744 -1.0309
  379MOL0     H51112   8.622   6.358   6.474 -0.2008  0.5769 -1.5751
  379MOL0     H51113   8.771   6.290   6.426  0.4938  0.3812  0.6364
  379MOL0     H51114   8.880   6.528   6.514 -0.5165  3.4669 -0.4686
  379MOL0     H51115   8.773   6.458   6.633  0.9509 -3.7190 -1.0981
  379MOL0     H51116   8.519   6.567   6.632  0.0995  0.2917  1.6393
  379MOL0     H51117   8.366   6.852   6.587  2.1336  1.1265 -0.8889
  379MOL0     H51118   8.360   6.883   6.420 -0.4278 -0.1979 -0.6487
  379MOL0     H51119   8.281   6.604   6.519 -1.2716 -0.2826 -0.7763
  379MOL0     H51120   8.261   6.652   6.360 -1.0234 -2.7077  0.7875
  379MOL0     H51121   8.131   6.862   6.431 -0.4614 -1.5099 -2.7692
  379MOL0     H51122   8.096   6.794   6.585 -2.7222  0.8128 -0.9490
  379MOL0     H51123   7.989   6.593   6.488  1.4157 -2.2611 -1.2604
  379MOL0     H51124   8.054   6.637   6.333  4.7958 -0.6899  2.4791
  379MOL0     H51125   7.745   6.925   6.271 -2.0820 -0.2159  1.5854
  379MOL0     H51126   7.451   6.915   6.124  0.4408  0.7208  0.0566
  379MOL0     H51127   7.603   7.003   6.118 -3.7459  2.3879 -0.2157
  379MOL0     H51128   7.544   6.900   5.985 -2.6510  0.1853  0.4067
  379MOL0     H51129   7.243   6.411   5.969  1.3681 -2.6039  0.2843
  379MOL0     H51130   7.141   6.372   5.771  1.3143  1.4268  0.2556
  379MOL0     H51131   7.397   6.273   5.394 -1.5008  0.2770 -1.7162
  379MOL0     H51132   7.355   6.151   5.512  1.3495 -0.8319 -0.9713
  379MOL0     H51133   7.176   6.269   5.305 -1.2457 -0.8764 -1.2622
  379MOL0     H51134   7.269   6.125   5.276  0.7045  1.8583 -0.3855
  379MOL0     H51135   7.073   6.176   5.500  0.1699  1.0669 -2.1177
  379MOL0     H51136   7.169   6.037   5.499  1.4462  3.0531  0.1605
  379MOL0     H51137   6.949   6.110   5.282 -0.6960 -1.1716  0.0238
  379MOL0     H51138   7.069   5.979   5.262 -2.8749  1.1518 -4.8427
  379MOL0     H51139   6.871   6.039   5.484  1.2381 -0.7344  2.3882
  379MOL0     H51140   6.981   5.902   5.497  0.5437 -0.5373 -1.6585
  379MOL0     H51141   6.741   5.843   5.400  0.2169  0.3702  0.1001
  379MOL0     H51142   6.772   5.962   5.270 -2.6999 -1.6114 -0.4049
  379MOL0     H51143   6.905   5.683   5.324 -1.1566  0.5187  1.7855
  379MOL0     H51144   6.971   5.789   5.197 -0.3437 -1.5391 -0.5311
  379MOL0     H51145   6.857   5.630   5.083  1.6707 -0.2077  2.4164
  379MOL0     H51146   6.757   5.763   5.064 -2.3206 -3.0925 -1.2944
  379MOL0     H51147   7.527   6.346   5.577 -0.5931 -1.6483  0.2853
  379MOL0     H51148   7.629   6.431   5.795  0.2239 -1.5520 -1.3359
  379MOL0     H51149   7.617   6.451   6.238 -1.8880 -0.4337  0.6462
  379MOL0     H51150   7.814   6.511   6.375  1.1621  2.5035  2.6763
  379MOL0     H51151   8.888   6.502   5.539 -1.2872  1.2938  2.6300
  379MOL0     H51152   8.880   6.362   5.342 -2.3574 -3.6990  0.6506
  379MOL0     H51153   8.369   6.100   4.994 -0.2526  2.3842 -0.2826
  379MOL0     H51154   8.412   5.952   4.794 -0.7587 -0.3491  1.9060
  379MOL0     H51155   8.724   6.114   4.521 -0.5783  0.3728 -0.6633
  379MOL0     H51156   8.627   6.004   4.436 -0.1584  3.3380 -0.7453
  379MOL0     H51157   8.529   6.217   4.454  0.7276 -0.0810 -0.9014
  379MOL0     H51158   8.515   6.214   4.626 -1.8208  0.5456 -0.5797
  379MOL0     H51159   8.347   6.013   4.598 -0.5166  0.0672  0.1370
  379MOL0     H51160   8.388   6.013   4.427 -0.0183  0.8539 -0.8127
  379MOL0     H51161   8.170   6.126   4.506 -0.0064 -0.0320  0.0480
  379MOL0     H51162   8.273   6.237   4.420 -0.7786 -2.1434 -2.2174
  379MOL0     H51163   8.252   6.443   4.763  2.3212 -0.3760 -0.2635
  379MOL0     H51164   8.798   6.127   4.746  0.3210 -0.7490 -0.2881
  379MOL0     H51165   8.775   6.238   4.970 -2.3322  1.2102  3.9723
  380MOL0     O51166   2.572   4.658   9.149  0.2697 -0.3398  0.1298
  380MOL0     C51167   2.573   4.583   9.243  0.0972 -0.0222 -0.2694
  380MOL0     O51168   2.600   4.624   9.374  0.0697 -0.0796 -1.0380
  380MOL0     C51169   2.613   4.762   9.397  0.0516  0.6395  0.4710
  380MOL0     C51170   2.744   4.817   9.399 -0.7445  0.1345  0.5139
  380MOL0     C51171   2.763   4.964   9.401 -0.3782  0.1452  0.3228
  380MOL0     C51172   2.642   5.043   9.417 -1.1126  0.2787  0.1835
  380MOL0     O51173   2.641   5.174   9.426 -0.5196 -1.0730 -0.3570
  380MOL0     C51174   2.764   5.250   9.456 -0.3939 -0.1184 -0.5310
  380MOL0     C51175   2.736   5.392   9.460  0.3481  1.1475 -0.0086
  380MOL0     C51176   2.630   5.422   9.577  0.9509 -0.2636  0.2785
  380MOL0     C51177   2.659   5.565   9.614  0.2488  0.4113  0.4854
  380MOL0     C51178   2.587   5.605   9.742 -0.0391  0.5094 -0.4958
  380MOL0     C51179   2.432   5.579   9.725 -0.1799  0.3525  0.3481
  380MOL0     C51180   2.351   5.670   9.829 -0.4910 -0.2214 -0.0811
  380MOL0     C51181   2.396   5.657   9.981  0.3635 -0.3751 -0.3158
  380MOL0     N51182   2.298   5.728  10.076  0.2146  0.4163 -0.6746
  380MOL0     C51183   2.321   5.832  10.165 -0.1260 -0.5862 -0.7418
  380MOL0     C51184   2.204   5.845  10.238  0.6333 -0.3072  0.3465
  380MOL0     C51185   2.165   5.940  10.359 -0.1059  0.3703  0.4199
  380MOL0     C51186   2.159   5.850  10.482  0.2343 -0.1104 -0.3396
  380MOL0     C51187   2.146   5.933  10.608 -0.4290  0.3923 -0.3558
  380MOL0     C51188   2.055   5.859  10.705  0.2927  0.8787 -0.2247
  380MOL0     O51189   2.085   5.719  10.716 -0.5453 -0.4278 -0.0703
  380MOL0     C51190   2.026   5.650  10.823  0.5435 -0.1856  0.5781
  380MOL0     C51191   1.924   5.704  10.907  1.2449  0.4537 -0.0608
  380MOL0     C51192   1.852   5.626  11.003  0.3263  0.1729  0.5823
  380MOL0     C51193   1.740   5.686  11.076 -0.0576 -0.3503 -0.9704
  380MOL0     C51194   1.892   5.491  11.025 -0.2615  0.1953  0.0439
  380MOL0     C51195   1.827   5.408  11.123 -0.9893  0.0524 -0.0872
  380MOL0     O51196   1.793   5.282  11.095  0.1140 -0.0468 -0.1363
  380MOL0     C51197   1.697   5.229  11.186 -0.2892  0.5596  0.2604
  380MOL0     C51198   1.577   5.288  11.220 -0.5792 -0.6084  0.2728
  380MOL0     C51199   1.504   5.232  11.321 -0.1417  0.7975 -0.2636
  380MOL0     C51200   1.536   5.107  11.383  0.5383  0.0390  0.4977
  380MOL0     O51201   1.434   5.041  11.453  1.0232 -0.2202  0.1036
  380MOL0     C51202   1.468   4.915  11.515  1.1693 -0.0755  0.4052
  380MOL0     C51203   1.344   4.875  11.604 -0.1571  0.9133 -0.4191
  380MOL0     C51204   1.323   4.967  11.731  0.0332 -0.6810  0.1680
  380MOL0     C51205   1.207   4.925  11.815 -0.0390  0.1695 -0.0480
  380MOL0     C51206   1.214   4.775  11.870  0.7610 -0.7166  0.2672
  380MOL0     C51207   1.065   4.727  11.913  0.7906 -0.2814 -0.1596
  380MOL0     C51208   1.054   4.588  11.975 -0.3810 -0.3880  0.3336
  380MOL0     C51209   1.093   4.465  11.890  0.0323 -0.5856  0.7293
  380MOL0    Cl51210   1.006   4.474  11.736  0.4046  0.3771 -0.2387
  380MOL0     C51211   1.655   5.046  11.357 -0.4957 -0.0529 -0.3930
  380MOL0     C51212   1.732   5.115  11.262  0.2169  0.0190  0.6233
  380MOL0     O51213   1.819   5.455  11.235  0.4115 -0.0035 -0.5213
  380MOL0     C51214   1.998   5.438  10.940 -0.2979 -1.6618 -0.9250
  380MOL0     C51215   2.061   5.518  10.842 -0.6181 -0.2212  0.4563
  380MOL0     N51216   2.124   5.736  10.202 -0.4080 -0.5585  0.4796
  380MOL0     N51217   2.173   5.671  10.100  0.4229 -0.5872  0.6656
  380MOL0     C51218   2.520   4.985   9.431 -0.7563  0.8227  0.1050
  380MOL0     C51219   2.500   4.843   9.425 -0.9050  0.4737 -0.0384
  380MOL0     C51220   2.566   4.442   9.230 -0.5989  0.2982  0.7849
  380MOL0     C51221   2.574   4.374   9.098 -0.8562 -0.9748  0.7086
  380MOL0     C51222   2.612   4.247   9.091 -0.1375  0.4751 -0.7685
  380MOL0     C51223   2.606   4.156   9.204  0.1854 -1.1244 -0.8070
  380MOL0     O51224   2.620   4.026   9.178 -0.2021  0.4937  0.1798
  380MOL0     C51225   2.674   3.971   9.053 -0.5191 -0.1580 -0.5567
  380MOL0     C51226   2.701   3.817   9.051  0.4095 -0.9499 -0.8761
  380MOL0     C51227   2.566   3.738   9.077 -0.8974 -1.2386  0.9299
  380MOL0     C51228   2.587   3.593   9.064  0.5350 -1.2130  0.3511
  380MOL0     C51229   2.471   3.520   9.109  0.3920 -0.6594 -0.3736
  380MOL0     C51230   2.377   3.457   9.139 -0.0315 -0.6449 -0.1696
  380MOL0     C51231   2.573   4.212   9.331 -0.6967 -0.4739 -0.0730
  380MOL0     C51232   2.564   4.356   9.342 -0.0909 -0.3795 -0.3470
  380MOL0     H51233   2.824   4.745   9.384  0.7349  1.9485 -0.7374
  380MOL0     H51234   2.858   5.015   9.389  0.6520 -1.4566  1.3849
  380MOL0     H51235   2.811   5.214   9.548 -2.4682  0.9075  1.0274
  380MOL0     H51236   2.831   5.234   9.372 -0.1151  1.3802 -0.6169
  380MOL0     H51237   2.828   5.450   9.465  1.0997 -0.0992  3.0167
  380MOL0     H51238   2.682   5.409   9.366 -0.3829  1.3064  0.4313
  380MOL0     H51239   2.534   5.425   9.526  1.2477  1.5639 -0.2565
  380MOL0     H51240   2.629   5.347   9.656 -1.2173 -3.8676 -2.8067
  380MOL0     H51241   2.766   5.578   9.631  0.8003 -2.6441 -0.1420
  380MOL0     H51242   2.616   5.619   9.529 -1.2466 -1.1996  0.1413
  380MOL0     H51243   2.618   5.541   9.825 -2.5337 -1.2259 -0.7901
  380MOL0     H51244   2.614   5.707   9.771 -2.0374  1.4500 -1.7245
  380MOL0     H51245   2.399   5.598   9.622 -0.1743 -1.4582 -0.0097
  380MOL0     H51246   2.401   5.475   9.730  0.5095  0.1964  1.9146
  380MOL0     H51247   2.387   5.769   9.800  1.4214 -0.5918  0.8315
  380MOL0     H51248   2.242   5.660   9.827 -0.4334 -1.5415  1.2509
  380MOL0     H51249   2.495   5.696  10.006  0.3130  0.7295 -1.7340
  380MOL0     H51250   2.397   5.550  10.003 -1.0248 -0.5514 -1.0055
  380MOL0     H51251   2.407   5.898  10.179  0.1476 -1.1369  0.3125
  380MOL0     H51252   2.236   6.023  10.365  0.7150 -0.0478 -2.3261
  380MOL0     H51253   2.064   5.977  10.342 -0.4734  0.7198  2.9506
  380MOL0     H51254   2.256   5.799  10.482  2.0885  3.1187 -1.0015
  380MOL0     H51255   2.079   5.776  10.477 -0.2651  0.4087  0.0061
  380MOL0     H51256   2.123   6.035  10.575  0.0456  0.7783  0.4797
  380MOL0     H51257   2.246   5.936  10.653 -0.7790 -3.4043  1.0342
  380MOL0     H51258   1.949   5.863  10.681  0.1913  2.2243  0.3446
  380MOL0     H51259   2.071   5.916  10.797  0.6093  2.7500 -1.3691
  380MOL0     H51260   1.898   5.809  10.897 -2.6586 -0.3920 -0.2875
  380MOL0     H51261   1.652   5.622  11.064 -0.2584  0.3349 -3.9551
  380MOL0     H51262   1.774   5.702  11.179  2.5337 -1.3937 -1.5633
  380MOL0     H51263   1.716   5.782  11.031  0.8450  1.4509  2.1174
  380MOL0     H51264   1.529   5.376  11.177 -1.1039 -2.9634 -4.7429
  380MOL0     H51265   1.403   5.268  11.339 -0.4503 -0.2498  0.2043
  380MOL0     H51266   1.468   4.829  11.448 -0.3246 -1.0491  1.5975
  380MOL0     H51267   1.561   4.922  11.572  0.8539 -1.7257  1.2003
  380MOL0     H51268   1.249   4.877  11.551  0.3246  0.4765 -1.3200
  380MOL0     H51269   1.357   4.768  11.627  0.4970  1.2017  0.6341
  380MOL0     H51270   1.317   5.070  11.696  0.2507 -1.0344 -0.9547
  380MOL0     H51271   1.402   4.966  11.806 -1.2477  0.9938  1.6275
  380MOL0     H51272   1.193   4.989  11.903 -4.0879 -0.6509  0.1260
  380MOL0     H51273   1.125   4.949  11.746  0.8469  1.4327 -0.7157
  380MOL0     H51274   1.280   4.771  11.957  0.6149  0.2031  0.4334
  380MOL0     H51275   1.243   4.699  11.798 -1.1300 -2.3274  1.1093
  380MOL0     H51276   1.022   4.798  11.984 -2.1939 -0.4958 -1.6007
  380MOL0     H51277   0.996   4.733  11.828  3.0139  3.2112 -1.9434
  380MOL0     H51278   0.947   4.571  11.992 -0.6882 -0.4588 -1.4311
  380MOL0     H51279   1.102   4.591  12.073 -1.0422  0.0826  0.6553
  380MOL0     H51280   1.065   4.377  11.949 -3.1593  0.5527  1.1263
  380MOL0     H51281   1.200   4.467  11.867 -0.0660  2.0733  0.2513
  380MOL0     H51282   1.678   4.953  11.408  1.8439 -0.7358 -2.4719
  380MOL0     H51283   1.835   5.095  11.235 -0.0675 -1.2188  0.4034
  380MOL0     H51284   2.054   5.349  10.966  0.3794 -0.9749  0.0639
  380MOL0     H51285   2.143   5.473  10.788  0.8479  3.5588 -0.7839
  380MOL0     H51286   2.430   5.045   9.428 -0.6452  0.9638 -0.5831
  380MOL0     H51287   2.401   4.799   9.431  0.3382 -2.9555 -1.7620
  380MOL0     H51288   2.584   4.433   9.008  1.9083 -0.7868  1.0410
  380MOL0     H51289   2.649   4.204   8.998  0.2408 -1.1957  0.1012
  380MOL0     H51290   2.603   3.983   8.971  1.0424  1.2566 -1.7640
  380MOL0     H51291   2.770   4.021   9.038 -0.9946  0.6064 -1.0746
  380MOL0     H51292   2.785   3.795   9.118 -0.4762 -2.2929 -0.1555
  380MOL0     H51293   2.739   3.800   8.950  0.3252  1.7530 -1.4144
  380MOL0     H51294   2.488   3.778   9.012  0.4300 -2.1618 -1.3228
  380MOL0     H51295   2.544   3.755   9.183 -1.0219 -1.3069  0.9147
  380MOL0     H51296   2.673   3.562   9.124  1.4537 -0.2447 -0.4267
  380MOL0     H51297   2.604   3.576   8.957 -1.1153  0.3232 -0.2037
  380MOL0     H51298   2.288   3.403   9.164 -0.2716  0.1653  0.8010
  380MOL0     H51299   2.578   4.153   9.422 -0.9109  1.1983  1.0539
  380MOL0     H51300   2.537   4.400   9.437 -3.6896  0.2229 -1.5017
  381MOL0     O51301   6.609   9.586  10.904  0.1365  0.7631 -0.1262
  381MOL0     C51302   6.666   9.475  10.907  0.2649 -0.2924  1.0393
  381MOL0     O51303   6.607   9.350  10.877 -0.3064 -0.2691 -0.2111
  381MOL0     C51304   6.475   9.341  10.841 -0.1675  0.6272 -0.1422
  381MOL0     C51305   6.455   9.297  10.718 -1.4304  0.4254  0.1464
  381MOL0     C51306   6.326   9.297  10.665 -0.0509  0.2925 -0.1409
  381MOL0     C51307   6.216   9.335  10.740 -0.4050  0.6833 -0.4073
  381MOL0     O51308   6.089   9.347  10.677 -0.2397 -0.1518 -0.4837
  381MOL0     C51309   6.067   9.251  10.575  0.6999  0.3928  0.5864
  381MOL0     C51310   5.931   9.200  10.569 -0.6849 -0.5452  0.3798
  381MOL0     C51311   5.833   9.307  10.505  0.3908  0.3990  0.0809
  381MOL0     C51312   5.691   9.257  10.489  0.4531  0.4748 -0.4298
  381MOL0     C51313   5.607   9.333  10.383  0.0203 -0.1248  0.1465
  381MOL0     C51314   5.482   9.249  10.336  0.1550  0.0194 -0.8268
  381MOL0     C51315   5.357   9.325  10.271  1.1083 -1.4278  0.4333
  381MOL0     C51316   5.248   9.373  10.372  0.1624 -0.7752 -0.3603
  381MOL0     N51317   5.146   9.264  10.401 -1.1329 -0.4378 -0.3970
  381MOL0     C51318   5.159   9.168  10.503 -0.0971 -0.3779  0.3344
  381MOL0     C51319   5.036   9.111  10.511  0.4802 -0.1888 -0.4051
  381MOL0     C51320   5.005   9.008  10.614 -1.0074 -0.1315  0.1381
  381MOL0     C51321   5.023   8.866  10.567 -0.8193  0.9361  0.4121
  381MOL0     C51322   5.040   8.765  10.685  0.1331  0.1581 -0.8894
  381MOL0     C51323   5.065   8.615  10.643  0.7347  0.2866  0.3676
  381MOL0     O51324   4.955   8.562  10.571  0.1308  0.4897  0.2096
  381MOL0     C51325   4.822   8.558  10.619 -0.0794 -1.2065 -1.4954
  381MOL0     C51326   4.719   8.570  10.529  1.0810 -0.2206  0.7419
  381MOL0     C51327   4.588   8.552  10.569 -0.2294 -0.9388  0.0319
  381MOL0     C51328   4.503   8.556  10.454  0.8426 -0.3167 -0.1751
  381MOL0     C51329   4.553   8.545  10.706  0.2502  0.5368 -0.3237
  381MOL0     C51330   4.412   8.535  10.750 -0.8898  0.5690 -0.0732
  381MOL0     O51331   4.323   8.630  10.704 -0.4824  0.2899  0.1631
  381MOL0     C51332   4.190   8.613  10.715  0.4416 -0.4281  1.8756
  381MOL0     C51333   4.127   8.504  10.653  0.4111  0.1936 -0.9434
  381MOL0     C51334   3.989   8.491  10.670 -0.8261 -0.4405 -1.1398
  381MOL0     C51335   3.909   8.592  10.724 -0.5558 -0.3897  0.5492
  381MOL0     O51336   3.774   8.564  10.732 -0.2959 -0.5322  0.6693
  381MOL0     C51337   3.681   8.672  10.765 -0.4556  0.1083 -0.1929
  381MOL0     C51338   3.537   8.623  10.731 -0.4736 -0.3629  0.2128
  381MOL0     C51339   3.431   8.705  10.798 -0.3760  0.6791 -0.1060
  381MOL0     C51340   3.432   8.849  10.747 -0.4532  0.1784 -0.3934
  381MOL0     C51341   3.323   8.923  10.831  0.0916  0.1626  0.2943
  381MOL0     C51342   3.353   8.965  10.973 -0.5515 -0.8463 -0.0100
  381MOL0     C51343   3.464   9.069  10.991 -0.1246  0.4030  0.0726
  381MOL0     C51344   3.528   9.097  11.133 -0.0786 -0.0743  0.0427
  381MOL0    Cl51345   3.633   9.240  11.120 -0.1781 -0.1114 -0.4962
  381MOL0     C51346   3.970   8.704  10.784 -0.2643  0.1585 -0.7103
  381MOL0     C51347   4.116   8.717  10.776  0.5182  0.2637  0.4619
  381MOL0     O51348   4.390   8.444  10.834 -0.1927  0.3581 -0.2377
  381MOL0     C51349   4.651   8.544  10.802 -0.0130 -0.1190  0.3008
  381MOL0     C51350   4.790   8.548  10.758  0.6199  0.1624  0.7668
  381MOL0     N51351   4.956   9.169  10.408 -0.0355 -0.3232  0.1462
  381MOL0     N51352   5.017   9.267  10.352 -0.1943 -0.0472  0.0919
  381MOL0     C51353   6.237   9.369  10.869 -0.2684 -0.8547 -0.6025
  381MOL0     C51354   6.365   9.379  10.920 -0.5417 -0.0454 -0.6816
  381MOL0     C51355   6.794   9.468  10.967 -0.3934 -0.6246 -0.1312
  381MOL0     C51356   6.859   9.584  11.007  0.5158 -0.3747 -0.9786
  381MOL0     C51357   6.982   9.589  11.070  0.5189 -0.0219  0.3594
  381MOL0     C51358   7.049   9.473  11.107  0.8822  0.2060  0.3218
  381MOL0     O51359   7.170   9.477  11.176 -0.6378 -0.9802  0.4008
  381MOL0     C51360   7.240   9.365  11.213  1.2032  0.7896 -0.5152
  381MOL0     C51361   7.347   9.394  11.321 -0.4827  0.8755 -0.5578
  381MOL0     C51362   7.477   9.443  11.265  0.7439  0.0468  0.4608
  381MOL0     C51363   7.555   9.508  11.376  0.1553  0.2159  0.3558
  381MOL0     C51364   7.694   9.519  11.346 -0.0047  0.4548  1.0784
  381MOL0     C51365   7.810   9.540  11.322 -0.2874  0.2418 -0.4387
  381MOL0     C51366   6.990   9.356  11.062  0.1239  0.6765  0.1421
  381MOL0     C51367   6.863   9.350  11.005  0.2206  0.2669  0.0257
  381MOL0     H51368   6.535   9.277  10.648 -1.3166  0.2766  0.3178
  381MOL0     H51369   6.321   9.282  10.557  1.8084 -2.5224  0.0555
  381MOL0     H51370   6.094   9.302  10.482  2.9485  0.2697  1.1148
  381MOL0     H51371   6.132   9.163  10.574  0.6496  0.3547  0.7499
  381MOL0     H51372   5.939   9.115  10.501 -1.7863  1.4323 -2.4249
  381MOL0     H51373   5.883   9.169  10.662 -1.4821 -0.6867 -0.0672
  381MOL0     H51374   5.838   9.392  10.573  3.0438  2.2762 -2.2580
  381MOL0     H51375   5.860   9.343  10.406  0.8441  1.1074  0.4538
  381MOL0     H51376   5.706   9.152  10.460  3.2319  0.6040  0.1987
  381MOL0     H51377   5.641   9.262  10.586  2.0340  5.4223  0.3924
  381MOL0     H51378   5.576   9.431  10.421  2.3604  0.2859  1.2187
  381MOL0     H51379   5.669   9.350  10.294 -0.1354  0.5819  0.1649
  381MOL0     H51380   5.517   9.170  10.269 -0.2554 -1.9608  1.1517
  381MOL0     H51381   5.451   9.188  10.422 -1.1630  0.6943 -0.8037
  381MOL0     H51382   5.389   9.419  10.225  1.8021 -0.3695  2.9004
  381MOL0     H51383   5.305   9.278  10.186  2.8315  4.3705 -4.5421
  381MOL0     H51384   5.199   9.464  10.335  0.0622 -0.3450  0.7798
  381MOL0     H51385   5.296   9.412  10.462 -1.7376  2.2646 -0.5134
  381MOL0     H51386   5.253   9.151  10.555  0.5700 -0.3739 -0.8330
  381MOL0     H51387   5.070   9.015  10.701 -1.5564 -1.9851  0.7295
  381MOL0     H51388   4.903   9.019  10.652 -1.2235 -0.1843 -0.4087
  381MOL0     H51389   5.111   8.865  10.501 -2.3453 -0.7689 -1.7698
  381MOL0     H51390   4.941   8.849  10.497 -1.2561  2.7359  0.4480
  381MOL0     H51391   4.952   8.773  10.749  1.7966  1.7443  1.3675
  381MOL0     H51392   5.116   8.790  10.759 -1.7370  1.5135  0.6820
  381MOL0     H51393   5.099   8.549  10.724  1.2557 -2.1132 -1.6921
  381MOL0     H51394   5.152   8.615  10.577 -0.0796  1.6370 -0.7443
  381MOL0     H51395   4.742   8.587  10.424 -1.4712 -0.8766  0.0006
  381MOL0     H51396   4.556   8.541  10.359  0.0721 -4.1287 -0.1555
  381MOL0     H51397   4.439   8.467  10.460  0.8394 -0.2164  2.3144
  381MOL0     H51398   4.444   8.648  10.457 -1.1707 -1.5627  0.5716
  381MOL0     H51399   4.176   8.424  10.598  0.4181 -0.2828 -0.2553
  381MOL0     H51400   3.942   8.399  10.638 -1.8486 -0.5529  0.5646
  381MOL0     H51401   3.693   8.688  10.873 -0.1674  1.7084 -0.4431
  381MOL0     H51402   3.702   8.771  10.725 -1.6941  0.1379 -0.8321
  381MOL0     H51403   3.532   8.613  10.623  5.0779 -0.6720 -0.3071
  381MOL0     H51404   3.535   8.519  10.765  0.7607 -0.2928  0.5547
  381MOL0     H51405   3.439   8.702  10.907 -4.1279 -0.8631  0.3015
  381MOL0     H51406   3.338   8.653  10.774  0.7653 -0.4228 -2.4877
  381MOL0     H51407   3.527   8.903  10.747 -1.3630  1.8692 -0.4231
  381MOL0     H51408   3.400   8.830  10.644  1.9209 -1.9574 -0.8336
  381MOL0     H51409   3.232   8.862  10.837 -1.2093  2.1684  3.6057
  381MOL0     H51410   3.289   9.015  10.782 -0.8774 -0.6484 -0.5940
  381MOL0     H51411   3.263   9.009  11.018 -1.1036  0.2260 -2.0059
  381MOL0     H51412   3.378   8.880  11.037  1.4188 -0.2069  0.1320
  381MOL0     H51413   3.423   9.165  10.959  3.1822  1.6124 -1.0146
  381MOL0     H51414   3.544   9.042  10.922  0.8928  0.2742  1.2644
  381MOL0     H51415   3.600   9.018  11.158  1.4727  1.2027 -0.1898
  381MOL0     H51416   3.454   9.110  11.213  1.9426  0.0368  2.0024
  381MOL0     H51417   3.909   8.769  10.845 -0.6581 -2.6723  2.2492
  381MOL0     H51418   4.163   8.811  10.804 -2.1880  1.2581  2.0254
  381MOL0     H51419   4.630   8.542  10.908  1.4494  3.5417  0.8112
  381MOL0     H51420   4.870   8.551  10.832  0.8715  1.1182  0.4672
  381MOL0     H51421   6.143   9.395  10.918 -0.1591  1.4868 -1.5056
  381MOL0     H51422   6.389   9.417  11.019 -1.5684  2.6941 -1.3967
  381MOL0     H51423   6.814   9.681  10.991 -1.1634 -1.1101 -0.8589
  381MOL0     H51424   7.019   9.682  11.112 -0.6544  1.5107 -1.7979
  381MOL0     H51425   7.172   9.284  11.241  2.2523  0.3227  0.7243
  381MOL0     H51426   7.291   9.325  11.125  0.2138  1.3923 -1.3945
  381MOL0     H51427   7.366   9.300  11.372  1.3075  0.2457 -2.2781
  381MOL0     H51428   7.298   9.468  11.386 -3.2541  0.2857 -1.7877
  381MOL0     H51429   7.461   9.517  11.186  0.1150 -0.1073  0.4369
  381MOL0     H51430   7.531   9.363  11.215  1.6654  1.0987 -0.2559
  381MOL0     H51431   7.549   9.445  11.466  1.8479 -1.0665 -0.3672
  381MOL0     H51432   7.502   9.601  11.397 -1.0478 -0.3732  0.0105
  381MOL0     H51433   7.915   9.553  11.302 -0.0730  3.5886  1.9643
  381MOL0     H51434   7.042   9.263  11.084  1.4389  0.9478 -1.5925
  381MOL0     H51435   6.812   9.256  10.989  1.6069 -0.7876  1.5059
  382MOL0     O51436   7.177   8.511   7.392 -0.7292  0.6616 -0.5796
  382MOL0     C51437   7.133   8.619   7.376 -0.8973 -0.2617  0.4867
  382MOL0     O51438   7.161   8.696   7.268  0.4642 -0.9164  0.3134
  382MOL0     C51439   7.264   8.649   7.188 -0.1064 -0.9798  0.1659
  382MOL0     C51440   7.386   8.716   7.206 -0.6067 -0.7077  0.3876
  382MOL0     C51441   7.496   8.691   7.125  0.6464  0.5613 -0.1821
  382MOL0     C51442   7.492   8.581   7.034  0.6589 -0.9686 -0.5262
  382MOL0     O51443   7.610   8.555   6.977 -0.0955  0.9040 -0.3965
  382MOL0     C51444   7.625   8.442   6.891 -0.2408  0.2329  0.1006
  382MOL0     C51445   7.736   8.468   6.788  0.5711  0.6000  0.3440
  382MOL0     C51446   7.868   8.512   6.851  0.4544 -0.1326 -0.3097
  382MOL0     C51447   7.984   8.490   6.768  0.7856 -0.4456 -0.6588
  382MOL0     C51448   8.105   8.573   6.815 -0.3839  0.1758  0.2146
  382MOL0     C51449   8.221   8.549   6.724  0.3056  0.2675  0.2140
  382MOL0     C51450   8.345   8.603   6.791 -0.1542  0.9190  1.0922
  382MOL0     C51451   8.466   8.584   6.689  0.4418  0.7619 -0.0625
  382MOL0     N51452   8.527   8.454   6.724 -0.5696  0.1670  0.2708
  382MOL0     C51453   8.503   8.333   6.659  0.1889  0.1302 -0.3243
  382MOL0     C51454   8.581   8.246   6.725 -0.1713 -0.2298  0.0772
  382MOL0     C51455   8.579   8.099   6.703 -0.0188 -0.0551  0.1341
  382MOL0     C51456   8.453   8.027   6.759 -0.8504 -0.2357 -0.1483
  382MOL0     C51457   8.477   7.992   6.902 -0.5987 -0.4594  0.7313
  382MOL0     C51458   8.354   7.913   6.959 -0.2186  0.2143  0.1111
  382MOL0     O51459   8.342   7.954   7.093 -0.3086  0.9176 -0.2893
  382MOL0     C51460   8.440   7.911   7.175  0.0255 -0.2447 -0.8575
  382MOL0     C51461   8.498   8.010   7.246  0.0074  0.8967 -1.0416
  382MOL0     C51462   8.604   7.989   7.340 -1.4450 -0.3976  0.2166
  382MOL0     C51463   8.631   8.094   7.449 -0.0439  0.2477  0.5024
  382MOL0     C51464   8.651   7.856   7.350  0.3433  0.6061  0.3516
  382MOL0     C51465   8.783   7.833   7.411  0.8449 -0.4742  0.4043
  382MOL0     O51466   8.878   7.927   7.386 -0.6363 -0.9305 -0.6957
  382MOL0     C51467   8.994   7.924   7.457  0.0673  0.0633  0.5329
  382MOL0     C51468   9.112   7.927   7.387  0.1412  0.2404  0.2809
  382MOL0     C51469   9.242   7.921   7.447 -0.0196  0.0377  0.0173
  382MOL0     C51470   9.255   7.922   7.580 -0.0159 -0.1715 -0.9726
  382MOL0     O51471   9.369   7.934   7.644 -0.2812  1.0960  0.4699
  382MOL0     C51472   9.489   7.947   7.557  0.0238 -0.6715  0.7513
  382MOL0     C51473   9.601   7.970   7.641  0.0482 -0.3036 -0.0945
  382MOL0     C51474   9.727   7.978   7.561  1.0793 -0.5033  0.5144
  382MOL0     C51475   9.853   7.983   7.642  0.2772  0.0179  0.0029
  382MOL0     C51476   9.976   8.003   7.557  0.2159  0.5445 -0.1931
  382MOL0     C51477  10.087   7.951   7.644  0.2927  0.5110  0.0942
  382MOL0     C51478  10.211   8.045   7.625 -0.8985 -0.1639 -0.2054
  382MOL0     C51479  10.206   8.160   7.732 -0.5501  0.3127 -0.9936
  382MOL0    Cl51480  10.266   8.100   7.893 -0.2018 -0.4250  0.3246
  382MOL0     C51481   9.140   7.921   7.661 -0.0278 -0.6530  0.1237
  382MOL0     C51482   9.008   7.918   7.595  0.4443 -0.0838 -0.5175
  382MOL0     O51483   8.797   7.722   7.463 -0.4744 -0.2434  0.1202
  382MOL0     C51484   8.590   7.756   7.275 -0.1313 -0.9944  0.1782
  382MOL0     C51485   8.488   7.786   7.195  0.0638  0.7728  0.4534
  382MOL0     N51486   8.646   8.316   6.826  0.9350  0.2141  0.7689
  382MOL0     N51487   8.613   8.436   6.823  0.0955 -0.9117  0.3687
  382MOL0     C51488   7.367   8.525   7.006 -0.3422  0.6911 -0.1338
  382MOL0     C51489   7.253   8.555   7.086 -0.2760 -0.1397 -0.2464
  382MOL0     C51490   7.033   8.681   7.464  0.0424 -0.4934  1.4918
  382MOL0     C51491   7.005   8.604   7.583 -1.1193 -0.2570 -0.7656
  382MOL0     C51492   6.932   8.656   7.683  0.1526  0.7668 -0.5750
  382MOL0     C51493   6.855   8.772   7.668 -0.4529 -0.5483  0.2706
  382MOL0     O51494   6.771   8.831   7.763 -0.1281 -0.5248  0.2097
  382MOL0     C51495   6.714   8.733   7.857  0.7313  0.0698 -0.9412
  382MOL0     C51496   6.684   8.801   7.992 -1.0282  0.4680  0.3761
  382MOL0     C51497   6.590   8.923   7.990  0.3811 -0.2020 -0.2269
  382MOL0     C51498   6.583   9.007   8.121 -1.0070  0.3960 -1.1592
  382MOL0     C51499   6.544   8.925   8.238  0.2052  0.3470  0.3303
  382MOL0     C51500   6.511   8.868   8.340  0.2028  0.1037  0.3650
  382MOL0     C51501   6.886   8.846   7.550  0.0670 -0.7301 -0.0583
  382MOL0     C51502   6.973   8.800   7.446  0.1162  0.1265 -0.2269
  382MOL0     H51503   7.385   8.795   7.280 -1.1640  1.4312 -1.7789
  382MOL0     H51504   7.595   8.731   7.143  1.7925 -2.1882  0.1712
  382MOL0     H51505   7.664   8.351   6.938  1.3670 -0.0575 -1.6473
  382MOL0     H51506   7.532   8.418   6.839 -0.5843 -0.8374  1.1674
  382MOL0     H51507   7.757   8.381   6.724 -0.5238  0.1712  0.5488
  382MOL0     H51508   7.712   8.557   6.729 -0.5692  1.6945  2.3653
  382MOL0     H51509   7.863   8.618   6.879  2.1846  0.0354 -0.5134
  382MOL0     H51510   7.891   8.451   6.939  2.8560 -0.9957 -1.4333
  382MOL0     H51511   7.999   8.382   6.764  0.0441 -0.5999  0.4716
  382MOL0     H51512   7.945   8.517   6.669  1.2693 -0.9054 -0.9878
  382MOL0     H51513   8.073   8.678   6.810 -0.7889  0.0240 -0.5566
  382MOL0     H51514   8.136   8.548   6.916  1.2484  2.1648  0.2848
  382MOL0     H51515   8.243   8.444   6.702  4.7904  1.2157 -0.7632
  382MOL0     H51516   8.198   8.593   6.627  2.5009 -0.1399 -0.5379
  382MOL0     H51517   8.328   8.709   6.808 -3.2058  0.7163 -0.1877
  382MOL0     H51518   8.365   8.545   6.882 -1.4843  0.0386  0.8403
  382MOL0     H51519   8.543   8.662   6.689 -1.2454  2.5019 -0.4727
  382MOL0     H51520   8.429   8.583   6.586 -0.3962  0.9855  0.2316
  382MOL0     H51521   8.432   8.313   6.580 -0.3106  0.5437  0.0112
  382MOL0     H51522   8.587   8.091   6.594 -0.0253  0.8544  0.0556
  382MOL0     H51523   8.661   8.049   6.754 -1.0150 -3.2802 -1.1603
  382MOL0     H51524   8.443   7.930   6.710  2.5353  0.3237 -2.2963
  382MOL0     H51525   8.363   8.090   6.754  1.3874  3.1824 -0.7312
  382MOL0     H51526   8.498   8.085   6.957 -1.2251  1.9078 -2.7233
  382MOL0     H51527   8.566   7.930   6.913 -1.6758 -2.0703  0.7973
  382MOL0     H51528   8.375   7.806   6.954 -0.7072  0.1214 -0.0698
  382MOL0     H51529   8.258   7.925   6.909 -0.2943 -2.9650 -0.7113
  382MOL0     H51530   8.464   8.109   7.217  1.0153  2.6586  3.1059
  382MOL0     H51531   8.691   8.181   7.422  1.3444 -0.4556  1.2242
  382MOL0     H51532   8.532   8.131   7.480  0.1099 -0.7210  2.2409
  382MOL0     H51533   8.673   8.036   7.531  1.4379  0.1720 -0.2825
  382MOL0     H51534   9.110   7.935   7.278 -1.4457  1.2643  0.3550
  382MOL0     H51535   9.324   7.921   7.376 -1.0119 -1.2767 -1.1926
  382MOL0     H51536   9.511   7.854   7.502  2.9038  0.8845 -0.9747
  382MOL0     H51537   9.485   8.034   7.490  1.0285 -0.4713  0.9314
  382MOL0     H51538   9.590   8.071   7.682  1.5313 -0.4639  0.7626
  382MOL0     H51539   9.615   7.896   7.721  3.5201 -1.3659 -1.5232
  382MOL0     H51540   9.733   8.070   7.501  0.6996 -0.9087 -0.1634
  382MOL0     H51541   9.740   7.902   7.484  4.5884  2.2472 -1.9826
  382MOL0     H51542   9.855   8.064   7.716  1.3907  0.5365 -0.5868
  382MOL0     H51543   9.868   7.882   7.681  1.1333 -0.7838 -2.2499
  382MOL0     H51544   9.971   8.104   7.515  1.2905  0.0408 -1.6158
  382MOL0     H51545   9.975   7.940   7.467  1.1811 -1.0986  0.8933
  382MOL0     H51546  10.051   7.954   7.747  0.1832 -0.6505  0.0991
  382MOL0     H51547  10.114   7.848   7.619 -3.2669 -0.6186  0.3516
  382MOL0     H51548  10.228   8.091   7.528  0.2670 -0.9883 -0.4128
  382MOL0     H51549  10.304   7.988   7.636  0.5206  2.2898  1.5749
  382MOL0     H51550  10.108   8.209   7.738 -0.7214  0.1845 -2.4446
  382MOL0     H51551  10.268   8.243   7.697  1.7680 -0.2716  1.3806
  382MOL0     H51552   9.152   7.923   7.769  0.7255 -1.1520  0.0538
  382MOL0     H51553   8.916   7.906   7.651  0.1658  2.0662 -0.4133
  382MOL0     H51554   8.626   7.654   7.270 -2.7922 -1.9478 -3.6558
  382MOL0     H51555   8.441   7.701   7.147 -1.4336 -1.0351  4.5962
  382MOL0     H51556   7.361   8.440   6.940  2.4653 -0.9730  1.5523
  382MOL0     H51557   7.163   8.497   7.071  0.5613 -1.6177  0.2509
  382MOL0     H51558   7.067   8.518   7.607 -2.0065 -1.9778 -3.9465
  382MOL0     H51559   6.941   8.597   7.774 -1.5014  1.1851 -0.1014
  382MOL0     H51560   6.619   8.692   7.821  1.2502 -1.8710 -0.2266
  382MOL0     H51561   6.780   8.651   7.887  0.0772  0.4974  1.9515
  382MOL0     H51562   6.784   8.837   8.016 -0.8759  0.7730 -0.6611
  382MOL0     H51563   6.650   8.725   8.064  1.2152  0.7048  1.7882
  382MOL0     H51564   6.488   8.884   7.989 -1.1770  3.3841  1.5331
  382MOL0     H51565   6.618   8.997   7.914 -1.5665 -0.3441 -1.1369
  382MOL0     H51566   6.512   9.090   8.111  2.2997  3.6462  0.1421
  382MOL0     H51567   6.682   9.046   8.148  0.6927 -3.0963 -1.7836
  382MOL0     H51568   6.482   8.815   8.429 -1.8402  0.5914  0.0436
  382MOL0     H51569   6.852   8.949   7.548  0.0599 -0.7101  0.6780
  382MOL0     H51570   6.992   8.857   7.356  2.4440 -0.1869  0.0006
  383MOL0     O51571  10.753   0.075  10.655  0.1720  0.4389 -0.0006
  383MOL0     C51572  10.794  -0.041  10.680 -0.3926 -0.4435 -0.9533
  383MOL0     O51573  10.707  -0.156  10.695  0.1814  0.2544  0.2549
  383MOL0     C51574  10.572  -0.133  10.682  0.0384  0.2286 -0.9787
  383MOL0     C51575  10.511  -0.126  10.563 -0.4043 -0.2945  0.1672
  383MOL0     C51576  10.368  -0.120  10.561  0.1608 -0.2771 -0.4407
  383MOL0     C51577  10.299  -0.118  10.678  0.0032 -0.6918 -0.9716
  383MOL0     O51578  10.168  -0.086  10.702  0.4533 -0.3730 -0.3425
  383MOL0     C51579  10.090  -0.044  10.581  0.3261  0.8307 -0.3645
  383MOL0     C51580   9.947  -0.001  10.627 -0.7130  0.7708  0.8262
  383MOL0     C51581   9.847  -0.121  10.648  0.4250 -0.1583 -0.3634
  383MOL0     C51582   9.704  -0.055  10.678  0.0931  0.5167 -0.7840
  383MOL0     C51583   9.625  -0.158  10.760  0.4918 -0.1962  0.0522
  383MOL0     C51584   9.492  -0.104  10.815 -1.0700  0.5726 -0.0029
  383MOL0     C51585   9.415  -0.215  10.876  0.0890 -0.6126 -0.1930
  383MOL0     C51586   9.269  -0.161  10.897 -0.7239 -0.1859  0.1482
  383MOL0     N51587   9.207  -0.080  10.789  0.2156  0.0578 -0.3650
  383MOL0     C51588   9.167  -0.125  10.659  0.5888  0.0292 -0.1545
  383MOL0     C51589   9.122  -0.021  10.590  0.0388 -0.0851 -0.0970
  383MOL0     C51590   9.052  -0.016  10.455  0.1760  0.5988 -0.9473
  383MOL0     C51591   9.056   0.109  10.376 -0.2249 -0.6911 -0.3785
  383MOL0     C51592   9.173   0.110  10.270  0.5654  0.1120 -0.6189
  383MOL0     C51593   9.304   0.157  10.344  0.6319  0.3363  0.0158
  383MOL0     O51594   9.392   0.219  10.245 -0.2552 -0.7013  1.1890
  383MOL0     C51595   9.503   0.288  10.278  0.8314  0.0469 -0.9916
  383MOL0     C51596   9.551   0.293  10.414 -0.6893 -0.6791 -0.2168
  383MOL0     C51597   9.660   0.379  10.449  0.1019  0.2532 -0.0865
  383MOL0     C51598   9.703   0.375  10.590  0.2758 -1.0314 -0.2007
  383MOL0     C51599   9.712   0.465  10.353  0.5186 -1.0193 -0.3571
  383MOL0     C51600   9.802   0.571  10.385 -1.1042 -0.2088  1.5148
  383MOL0     O51601   9.765   0.704  10.378  0.1957 -1.1337 -0.8416
  383MOL0     C51602   9.634   0.749  10.409  0.4323 -0.8437  0.3433
  383MOL0     C51603   9.576   0.721  10.532  0.0219 -0.5680 -0.0397
  383MOL0     C51604   9.437   0.742  10.550  0.2675 -0.7966 -0.6516
  383MOL0     C51605   9.368   0.816  10.450 -0.5589  0.3858 -0.0598
  383MOL0     O51606   9.253   0.883  10.471 -0.6529  0.4624 -0.6331
  383MOL0     C51607   9.149   0.839  10.559  0.1924 -0.1453 -0.8303
  383MOL0     C51608   9.172   0.913  10.691 -0.4801 -0.3485 -0.1543
  383MOL0     C51609   9.176   1.074  10.683  0.0403  0.4241 -0.0317
  383MOL0     C51610   9.202   1.141  10.814 -0.4481 -0.0802 -0.3513
  383MOL0     C51611   9.193   1.296  10.816  0.0794  0.3906  0.1703
  383MOL0     C51612   9.064   1.362  10.759 -0.2848 -0.6626 -0.5419
  383MOL0     C51613   8.933   1.303  10.824  0.4045  0.6904 -0.6074
  383MOL0     C51614   8.912   1.341  10.963  0.0933  0.3602 -0.4986
  383MOL0    Cl51615   8.754   1.273  11.003 -0.3909  0.7865  0.4153
  383MOL0     C51616   9.429   0.851  10.333 -0.9508 -0.6539  0.2707
  383MOL0     C51617   9.561   0.803  10.301  0.6903 -0.0992 -0.7668
  383MOL0     O51618   9.919   0.533  10.410 -0.6735  0.0788 -0.3471
  383MOL0     C51619   9.661   0.463  10.222 -0.5490  0.0810  0.4292
  383MOL0     C51620   9.562   0.375  10.186  0.9047 -0.1863 -0.5646
  383MOL0     N51621   9.129   0.080  10.683  1.3713  0.3190  0.0435
  383MOL0     N51622   9.186   0.053  10.790 -0.3035 -0.6877  0.3061
  383MOL0     C51623  10.367  -0.130  10.801 -0.5574 -0.6658 -0.3411
  383MOL0     C51624  10.507  -0.132  10.807  0.2635 -0.1722 -0.4565
  383MOL0     C51625  10.938  -0.050  10.683 -0.4983 -0.3135 -0.2072
  383MOL0     C51626  11.015   0.053  10.711  0.0480  0.0744  0.6055
  383MOL0     C51627  11.155   0.049  10.705 -0.0490 -0.2903 -0.8868
  383MOL0     C51628  11.217  -0.061  10.671 -0.6820  0.5655  0.3065
  383MOL0     O51629  11.357  -0.058  10.667  0.8386  0.1964 -0.6029
  383MOL0     C51630  11.425  -0.181  10.648 -0.3147 -0.1405  0.3017
  383MOL0     C51631  11.576  -0.157  10.667 -0.0204  0.2720  0.2990
  383MOL0     C51632  11.676  -0.279  10.670 -0.3083  0.2793  0.1125
  383MOL0     C51633  11.826  -0.231  10.674 -0.3674 -0.9210  0.6585
  383MOL0     C51634  11.922  -0.342  10.656  0.1877 -0.2988 -0.0130
  383MOL0     C51635  12.008  -0.426  10.646  0.1343 -0.3040 -0.2789
  383MOL0     C51636  11.143  -0.174  10.657 -0.3275  0.1658  0.3328
  383MOL0     C51637  11.001  -0.169  10.664  0.2879  0.4076 -0.1647
  383MOL0     H51638  10.574  -0.114  10.475  2.0321 -0.4772  1.8056
  383MOL0     H51639  10.328  -0.106  10.461  0.2006  0.2560 -0.3841
  383MOL0     H51640  10.136   0.034  10.521 -0.2847  2.5249  1.2646
  383MOL0     H51641  10.064  -0.118  10.505 -0.5192 -0.3136  0.9724
  383MOL0     H51642   9.970   0.057  10.717  1.6005  2.4156 -0.7209
  383MOL0     H51643   9.911   0.064  10.547 -0.3630  0.0039  0.0328
  383MOL0     H51644   9.850  -0.194  10.567  2.6272 -0.3642 -0.1388
  383MOL0     H51645   9.879  -0.172  10.739 -0.4857 -0.7072 -0.3394
  383MOL0     H51646   9.727   0.038  10.731  1.2925  1.3539 -2.6647
  383MOL0     H51647   9.649  -0.034  10.586 -2.3990 -2.0609 -0.0287
  383MOL0     H51648   9.608  -0.239  10.689  0.9403 -0.1864 -0.0699
  383MOL0     H51649   9.688  -0.199  10.839 -0.6391 -1.2123  0.4593
  383MOL0     H51650   9.518  -0.032  10.893 -2.4078 -1.4589  2.4653
  383MOL0     H51651   9.449  -0.051  10.729 -0.3874  0.0072 -0.7144
  383MOL0     H51652   9.414  -0.307  10.818  1.1671 -1.1642  0.6379
  383MOL0     H51653   9.456  -0.233  10.976  1.1166  3.1947  0.2360
  383MOL0     H51654   9.271  -0.097  10.986 -1.0625 -1.1279  0.8566
  383MOL0     H51655   9.202  -0.247  10.911 -1.2616 -0.3214 -2.7256
  383MOL0     H51656   9.160  -0.230  10.632  1.3004 -0.3607  1.0762
  383MOL0     H51657   9.083  -0.110  10.408 -0.7376 -0.5176  0.5827
  383MOL0     H51658   8.946  -0.022  10.483  0.9975  0.3390  2.4851
  383MOL0     H51659   9.077   0.186  10.451  0.2783 -1.6981  0.5440
  383MOL0     H51660   8.961   0.137  10.330 -2.5019 -1.6988  3.3254
  383MOL0     H51661   9.162   0.192  10.198  1.7411  2.5021  1.7283
  383MOL0     H51662   9.180   0.011  10.224 -0.5219 -1.0328  1.5363
  383MOL0     H51663   9.357   0.085  10.407  0.4807 -1.0992 -1.4189
  383MOL0     H51664   9.273   0.241  10.407 -0.2473 -0.5730  0.8203
  383MOL0     H51665   9.514   0.219  10.484 -3.8567  0.4649 -0.5382
  383MOL0     H51666   9.736   0.275  10.623  0.3142 -0.7323  0.6989
  383MOL0     H51667   9.789   0.437  10.617 -0.0373 -2.5267  5.6058
  383MOL0     H51668   9.624   0.405  10.659  1.2864  1.8311 -0.1703
  383MOL0     H51669   9.638   0.661  10.599 -1.4184 -1.0142  0.9360
  383MOL0     H51670   9.396   0.710  10.644  1.0484  0.1505  0.0345
  383MOL0     H51671   9.056   0.860  10.505  0.9143  0.2644 -1.9555
  383MOL0     H51672   9.159   0.731  10.572 -1.3671 -0.0565  1.6865
  383MOL0     H51673   9.089   0.877  10.752 -0.9991 -1.8480 -1.6626
  383MOL0     H51674   9.266   0.874  10.733 -0.3487  0.5283  0.3884
  383MOL0     H51675   9.073   1.098  10.654  0.8527  2.0596 -1.7715
  383MOL0     H51676   9.250   1.107  10.610 -1.0102  0.3868 -1.1577
  383MOL0     H51677   9.124   1.107  10.882 -1.5274  0.3178 -1.3582
  383MOL0     H51678   9.296   1.112  10.863 -0.9190 -1.8942 -0.4825
  383MOL0     H51679   9.277   1.343  10.765  0.4599 -0.6099 -0.1530
  383MOL0     H51680   9.202   1.315  10.924  2.1335 -2.9461  0.7347
  383MOL0     H51681   9.078   1.468  10.785 -0.8667 -1.2132  2.2983
  383MOL0     H51682   9.050   1.353  10.651 -2.2520 -1.4377 -0.2641
  383MOL0     H51683   8.927   1.194  10.820  3.2037  0.2095  2.9028
  383MOL0     H51684   8.845   1.343  10.773 -0.6387 -1.1223 -0.3067
  383MOL0     H51685   8.903   1.450  10.972  1.0307  0.4735 -0.7590
  383MOL0     H51686   8.991   1.304  11.028  2.6074  0.3961 -3.2882
  383MOL0     H51687   9.384   0.895  10.244  0.6250  1.7779  0.5840
  383MOL0     H51688   9.607   0.807  10.202  2.2775 -0.4659 -0.0850
  383MOL0     H51689   9.704   0.519  10.140  0.0415 -0.3408  0.4488
  383MOL0     H51690   9.528   0.374  10.083 -0.4544  1.0775 -0.1559
  383MOL0     H51691  10.305  -0.133  10.890 -1.1082 -2.4944 -0.7429
  383MOL0     H51692  10.564  -0.135  10.900  1.0727  2.9851 -0.7364
  383MOL0     H51693  10.958   0.143  10.734 -0.7175 -0.8794  2.6651
  383MOL0     H51694  11.211   0.138  10.731  0.1592 -0.7946  0.5105
  383MOL0     H51695  11.403  -0.253  10.728  3.7893 -0.0545  1.7428
  383MOL0     H51696  11.402  -0.231  10.553  0.0038 -4.3499  2.2084
  383MOL0     H51697  11.590  -0.099  10.759 -2.1646  0.8814  0.2878
  383MOL0     H51698  11.610  -0.084  10.592 -0.6498 -0.6178 -0.8883
  383MOL0     H51699  11.671  -0.339  10.578  0.0744 -2.7419  1.9310
  383MOL0     H51700  11.642  -0.353  10.743  1.4129 -0.0360  0.6351
  383MOL0     H51701  11.844  -0.170  10.763 -3.1932 -0.3841  0.9676
  383MOL0     H51702  11.838  -0.163  10.589 -0.7766 -0.1545  1.2001
  383MOL0     H51703  12.098  -0.484  10.650  0.7820  0.4856 -2.2165
  383MOL0     H51704  11.185  -0.268  10.624 -0.7902  0.8257 -2.3540
  383MOL0     H51705  10.940  -0.259  10.659 -0.3028  0.4875  3.2983
  384MOL0     O51706  10.686  11.296   1.142 -0.4410  0.7072  0.1048
  384MOL0     C51707  10.777  11.329   1.221 -0.2797  0.2223  0.3322
  384MOL0     O51708  10.771  11.320   1.355  0.0034  0.2361 -0.0943
  384MOL0     C51709  10.650  11.304   1.414  0.1587  0.1578  0.0889
  384MOL0     C51710  10.556  11.201   1.386 -0.8176  0.5868  0.3489
  384MOL0     C51711  10.436  11.185   1.451  0.0655  0.6422  0.0426
  384MOL0     C51712  10.413  11.275   1.558  0.7008 -0.6402  0.0017
  384MOL0     O51713  10.289  11.287   1.621 -0.3210  0.0735  0.4905
  384MOL0     C51714  10.176  11.233   1.551 -1.3566  0.2511  0.5811
  384MOL0     C51715  10.057  11.307   1.590  0.3242  0.3214 -0.2284
  384MOL0     C51716  10.048  11.442   1.524  0.7949 -0.0981 -0.2475
  384MOL0     C51717   9.996  11.453   1.379  0.5987  0.2483  0.2955
  384MOL0     C51718   9.928  11.587   1.347 -0.1215 -0.3637 -0.2403
  384MOL0     C51719   9.873  11.582   1.208  0.2594  0.6504 -0.1602
  384MOL0     C51720   9.818  11.714   1.148 -0.3527  0.6453 -0.4969
  384MOL0     C51721   9.700  11.772   1.223 -0.8252  0.4212 -0.5500
  384MOL0     N51722   9.592  11.676   1.244 -0.1101 -0.4562  0.7555
  384MOL0     C51723   9.472  11.675   1.181  0.5009  0.1887  0.6958
  384MOL0     C51724   9.402  11.578   1.240  0.4091 -0.3396  0.3097
  384MOL0     C51725   9.266  11.541   1.189 -0.1022 -0.3647 -0.8673
  384MOL0     C51726   9.186  11.482   1.292  0.2856 -0.5712  0.1939
  384MOL0     C51727   9.064  11.418   1.228  0.5246  0.0067  0.1276
  384MOL0     C51728   8.937  11.378   1.322 -0.7523 -0.1766  0.2515
  384MOL0     O51729   8.840  11.342   1.223 -0.2237  0.0223 -0.4317
  384MOL0     C51730   8.708  11.338   1.268 -0.1995 -0.0867 -0.0688
  384MOL0     C51731   8.608  11.416   1.208 -0.1916 -0.5135  0.7249
  384MOL0     C51732   8.477  11.416   1.251  0.3924  0.0521  0.2648
  384MOL0     C51733   8.390  11.515   1.177  0.1654 -0.1543 -0.2199
  384MOL0     C51734   8.437  11.333   1.362  0.0814  0.0290  0.0847
  384MOL0     C51735   8.287  11.316   1.405 -0.7373  0.2166  0.1968
  384MOL0     O51736   8.192  11.320   1.313  1.0241  0.2208  0.4731
  384MOL0     C51737   8.079  11.238   1.331  0.0446  0.9766  0.0425
  384MOL0     C51738   7.972  11.261   1.243  0.1154  0.5946 -0.1523
  384MOL0     C51739   7.854  11.191   1.257  0.0814  0.4643  0.9592
  384MOL0     C51740   7.837  11.095   1.354 -0.4459  0.0568  0.1956
  384MOL0     O51741   7.718  11.028   1.349 -0.3390  1.1717 -0.4843
  384MOL0     C51742   7.714  10.889   1.402  0.6936  0.6762  0.0693
  384MOL0     C51743   7.615  10.813   1.310 -0.4509 -0.6698  0.0787
  384MOL0     C51744   7.476  10.811   1.375 -0.3657 -0.1174  0.4004
  384MOL0     C51745   7.376  10.744   1.285  1.0306 -0.0160 -0.1284
  384MOL0     C51746   7.230  10.775   1.341  0.2429 -0.2086  0.1075
  384MOL0     C51747   7.125  10.661   1.323 -0.0887 -0.1086 -0.2015
  384MOL0     C51748   7.121  10.585   1.192  0.8678 -0.3994  0.1547
  384MOL0     C51749   6.990  10.496   1.192  0.2672 -0.8483  0.8506
  384MOL0    Cl51750   6.978  10.373   1.315  0.1413 -0.1119  0.4564
  384MOL0     C51751   7.943  11.067   1.444 -0.5643  0.3579  0.6967
  384MOL0     C51752   8.060  11.139   1.425  0.6672 -1.2922 -0.0911
  384MOL0     O51753   8.267  11.329   1.520  0.1000 -0.1250 -0.5284
  384MOL0     C51754   8.535  11.254   1.422  0.3293  0.1679  0.5028
  384MOL0     C51755   8.672  11.251   1.378 -0.2488  0.4088 -0.0448
  384MOL0     N51756   9.480  11.526   1.340  0.5920  1.0698  0.1254
  384MOL0     N51757   9.595  11.573   1.342  0.1734 -0.2373  0.4706
  384MOL0     C51758  10.510  11.372   1.598  0.5905  0.0498  0.1043
  384MOL0     C51759  10.626  11.379   1.531  0.2400 -0.6799  1.0025
  384MOL0     C51760  10.887  11.393   1.144 -0.6748 -0.1164  0.8345
  384MOL0     C51761  10.999  11.443   1.220  1.1036 -0.5486  0.2263
  384MOL0     C51762  11.116  11.479   1.152  0.7452 -1.0089 -0.0104
  384MOL0     C51763  11.122  11.467   1.018 -0.5718 -0.5968  0.4333
  384MOL0     O51764  11.242  11.503   0.957  0.6736  0.7426 -0.2917
  384MOL0     C51765  11.268  11.455   0.823 -0.2846  0.2878  0.6633
  384MOL0     C51766  11.413  11.476   0.804 -0.0667  0.4565  0.7823
  384MOL0     C51767  11.493  11.353   0.856  0.6396  0.0398 -0.7408
  384MOL0     C51768  11.637  11.342   0.806 -0.0796  0.3355  0.4355
  384MOL0     C51769  11.723  11.452   0.832  0.5677  0.0850 -0.4165
  384MOL0     C51770  11.785  11.554   0.842 -0.2407 -1.0629 -0.9381
  384MOL0     C51771  11.013  11.435   0.942 -0.2715  1.0231  0.4598
  384MOL0     C51772  10.897  11.400   1.004 -0.3398  0.0389  0.1137
  384MOL0     H51773  10.580  11.137   1.301 -1.4489 -0.1528  0.7092
  384MOL0     H51774  10.362  11.111   1.419  0.6536 -0.4819  1.1782
  384MOL0     H51775  10.191  11.221   1.443  0.9506 -2.5747  1.0835
  384MOL0     H51776  10.170  11.129   1.586  0.9813 -0.1855 -0.1311
  384MOL0     H51777   9.975  11.241   1.561  1.2109 -1.0433  0.2306
  384MOL0     H51778  10.068  11.326   1.697 -0.6264 -1.7708  0.2909
  384MOL0     H51779   9.993  11.504   1.595 -0.4085 -1.2487 -0.1395
  384MOL0     H51780  10.143  11.496   1.532  0.5406  0.0320  3.3845
  384MOL0     H51781  10.078  11.431   1.310 -1.4038 -0.8744 -1.8534
  384MOL0     H51782   9.923  11.377   1.351 -0.2969  1.0490  0.4235
  384MOL0     H51783   9.844  11.594   1.416 -0.6741 -0.4964 -0.8831
  384MOL0     H51784   9.989  11.675   1.370 -1.4526  0.6027 -0.2616
  384MOL0     H51785   9.959  11.548   1.149  0.4733 -1.0900  1.0871
  384MOL0     H51786   9.796  11.505   1.202 -0.2349  1.0549  0.8422
  384MOL0     H51787   9.897  11.790   1.139 -1.4798  1.6548 -2.4269
  384MOL0     H51788   9.799  11.705   1.041  2.4316  0.8338 -1.0983
  384MOL0     H51789   9.668  11.861   1.167  1.6649  1.2964 -0.7139
  384MOL0     H51790   9.735  11.805   1.321 -6.0753 -0.0388  1.8075
  384MOL0     H51791   9.444  11.728   1.090  0.5630 -0.3306  0.3665
  384MOL0     H51792   9.218  11.623   1.136 -0.7083  0.4126  0.7996
  384MOL0     H51793   9.277  11.460   1.116 -1.4019 -1.9658  0.6060
  384MOL0     H51794   9.156  11.556   1.367 -0.2827 -1.3756  0.7839
  384MOL0     H51795   9.243  11.401   1.339  2.1998  0.7677  0.2781
  384MOL0     H51796   9.090  11.332   1.166 -1.6427 -0.0560 -0.7967
  384MOL0     H51797   9.029  11.493   1.157  0.6027  0.0743  0.1598
  384MOL0     H51798   8.916  11.460   1.391  1.4142  0.0843  0.6473
  384MOL0     H51799   8.961  11.294   1.387 -1.6701 -0.6722 -0.0231
  384MOL0     H51800   8.633  11.495   1.139 -2.2925 -1.3919 -1.1599
  384MOL0     H51801   8.445  11.604   1.145  1.6485 -0.3941  1.5525
  384MOL0     H51802   8.350  11.469   1.086  1.0854  1.3330 -1.4254
  384MOL0     H51803   8.305  11.535   1.242  0.1008  0.7935 -0.5696
  384MOL0     H51804   7.991  11.336   1.167  0.0198 -0.1501 -0.9300
  384MOL0     H51805   7.775  11.208   1.185  0.7837 -1.8120 -0.4567
  384MOL0     H51806   7.811  10.839   1.406 -0.6933 -2.1146  2.3057
  384MOL0     H51807   7.686  10.895   1.507  1.9842 -1.0715  0.5682
  384MOL0     H51808   7.601  10.855   1.210 -4.1454  0.3067  0.8839
  384MOL0     H51809   7.653  10.710   1.301 -2.5926 -1.9346  3.4528
  384MOL0     H51810   7.461  10.914   1.410  2.8547  1.2708 -1.7972
  384MOL0     H51811   7.469  10.748   1.464  0.6907  1.5766  1.7548
  384MOL0     H51812   7.377  10.791   1.186 -2.7479 -1.3500 -0.9356
  384MOL0     H51813   7.413  10.641   1.281  2.3605  0.3882  0.8079
  384MOL0     H51814   7.200  10.858   1.276 -0.0863  0.0929  0.6339
  384MOL0     H51815   7.232  10.810   1.445  2.5462  2.0754 -0.6087
  384MOL0     H51816   7.157  10.580   1.390  2.2049 -1.8701 -3.2080
  384MOL0     H51817   7.024  10.694   1.350  0.0005 -0.1664  0.2147
  384MOL0     H51818   7.213  10.528   1.177  0.5072 -0.4066 -2.4066
  384MOL0     H51819   7.109  10.665   1.119 -1.2657 -0.3904  0.4499
  384MOL0     H51820   6.999  10.446   1.095  3.9658 -0.1377  0.6820
  384MOL0     H51821   6.898  10.555   1.187  1.8316  1.7338  1.0661
  384MOL0     H51822   7.947  10.991   1.521 -1.2157 -0.1079  0.2797
  384MOL0     H51823   8.141  11.109   1.491  0.2362 -1.7978  0.2113
  384MOL0     H51824   8.508  11.196   1.509 -1.2090  0.4796  0.2560
  384MOL0     H51825   8.748  11.196   1.434 -3.2276 -2.7172  1.2821
  384MOL0     H51826  10.486  11.438   1.681 -2.3670 -0.1402 -0.4879
  384MOL0     H51827  10.695  11.452   1.572 -0.7990  1.4914 -0.8355
  384MOL0     H51828  10.985  11.459   1.327 -3.4171 -2.1069  0.1106
  384MOL0     H51829  11.201  11.494   1.217 -1.0055 -0.0718  2.2170
  384MOL0     H51830  11.239  11.351   0.811 -0.6126  0.5540 -1.0800
  384MOL0     H51831  11.213  11.523   0.758  1.4405  1.2599  0.1509
  384MOL0     H51832  11.449  11.564   0.859  1.9722  0.7905 -0.9394
  384MOL0     H51833  11.442  11.495   0.701  0.6434 -0.2030  0.8467
  384MOL0     H51834  11.433  11.262   0.845 -2.1522  0.7175  5.0734
  384MOL0     H51835  11.497  11.367   0.964  2.1082  0.4235 -0.8275
  384MOL0     H51836  11.636  11.320   0.699 -1.1219 -0.3974  0.5729
  384MOL0     H51837  11.690  11.260   0.854  1.4873  1.4638  0.7192
  384MOL0     H51838  11.850  11.639   0.845 -0.7258 -0.7307  1.0476
  384MOL0     H51839  11.014  11.418   0.835 -1.4341 -0.2760  0.6183
  384MOL0     H51840  10.828  11.358   0.932  0.6331 -2.4212  0.5257
  385MOL0     O51841   5.251   5.718   7.934 -0.3214  0.0337  0.3535
  385MOL0     C51842   5.253   5.787   8.038  0.5717  0.2014  0.1564
  385MOL0     O51843   5.151   5.813   8.123  0.0593 -0.0645 -0.1928
  385MOL0     C51844   5.025   5.779   8.084 -0.0157 -0.2338 -0.2241
  385MOL0     C51845   4.979   5.647   8.055 -0.4212  0.2235  0.2933
  385MOL0     C51846   4.843   5.623   8.015 -0.0707 -0.3965  0.2818
  385MOL0     C51847   4.753   5.725   8.023  0.9861  0.4268  0.0385
  385MOL0     O51848   4.621   5.708   7.995  0.2737  0.0249 -0.5057
  385MOL0     C51849   4.555   5.802   7.915 -0.5146 -0.3167  0.5255
  385MOL0     C51850   4.410   5.836   7.958 -0.1957 -0.7477 -0.0106
  385MOL0     C51851   4.316   5.735   7.901  0.1164  0.7943  0.4430
  385MOL0     C51852   4.178   5.742   7.971  0.7797  0.0246  0.0703
  385MOL0     C51853   4.068   5.663   7.901 -0.1429  0.1594  0.3360
  385MOL0     C51854   3.946   5.670   7.983 -0.5420 -0.2466 -0.2331
  385MOL0     C51855   3.834   5.604   7.908  0.6358  0.0237  0.0060
  385MOL0     C51856   3.704   5.587   7.998 -0.1451 -0.1989  0.5916
  385MOL0     N51857   3.589   5.550   7.922  0.7792  0.2430  0.2807
  385MOL0     C51858   3.458   5.588   7.936 -0.1120  0.0266  0.4178
  385MOL0     C51859   3.393   5.545   7.825  0.0478  0.8849  0.7249
  385MOL0     C51860   3.247   5.577   7.804 -1.0755 -0.5762 -0.3423
  385MOL0     C51861   3.158   5.499   7.911  0.1503 -0.3138 -0.2009
  385MOL0     C51862   3.143   5.350   7.867  0.3799 -0.2084 -0.3142
  385MOL0     C51863   3.091   5.325   7.723  0.6908  0.1862  1.1272
  385MOL0     O51864   2.969   5.397   7.701  0.7323 -0.5333  0.5739
  385MOL0     C51865   2.862   5.349   7.628  0.0315 -0.5733 -0.4502
  385MOL0     C51866   2.846   5.233   7.558 -0.3286 -0.4411  0.0731
  385MOL0     C51867   2.732   5.199   7.475  0.3712  0.5690  0.4385
  385MOL0     C51868   2.739   5.066   7.404 -0.5016 -0.3905 -0.7777
  385MOL0     C51869   2.633   5.299   7.457 -0.4710 -0.2110  1.0925
  385MOL0     C51870   2.517   5.297   7.361 -0.4685 -1.1458  0.2462
  385MOL0     O51871   2.403   5.373   7.385 -0.2536  0.0249  0.8200
  385MOL0     C51872   2.297   5.366   7.296 -0.3415  0.1993 -0.1225
  385MOL0     C51873   2.227   5.247   7.297  0.1266 -1.0961 -0.0697
  385MOL0     C51874   2.123   5.240   7.213 -0.1593 -0.2925  0.0862
  385MOL0     C51875   2.095   5.345   7.120  0.9025  0.6678 -0.1923
  385MOL0     O51876   2.000   5.340   7.018 -0.3202 -0.6539 -0.3739
  385MOL0     C51877   1.921   5.225   7.000  0.1378 -0.5782 -0.1734
  385MOL0     C51878   1.816   5.227   7.113  0.3429 -0.3155 -0.2619
  385MOL0     C51879   1.701   5.313   7.063  0.3027 -0.2363  0.5278
  385MOL0     C51880   1.626   5.361   7.182  0.4079  1.5597 -0.4997
  385MOL0     C51881   1.497   5.427   7.144  1.2902  0.2256 -0.5973
  385MOL0     C51882   1.427   5.497   7.261  1.1620  0.9175  0.8598
  385MOL0     C51883   1.288   5.563   7.234 -1.0531 -0.8698  0.4206
  385MOL0     C51884   1.301   5.685   7.134 -0.3967 -0.3632  0.4155
  385MOL0    Cl51885   1.136   5.734   7.100 -0.0245 -0.5527  0.0491
  385MOL0     C51886   2.161   5.470   7.135  0.3372 -0.5096  0.5894
  385MOL0     C51887   2.267   5.477   7.219  0.3350 -0.4021  0.8342
  385MOL0     O51888   2.537   5.228   7.267  0.2748 -0.3594  0.8151
  385MOL0     C51889   2.644   5.412   7.538 -0.4333 -0.2869  1.1410
  385MOL0     C51890   2.751   5.440   7.611 -0.1130 -0.1058  0.6729
  385MOL0     N51891   3.483   5.487   7.740  0.5637  0.4928  0.3498
  385MOL0     N51892   3.597   5.499   7.796 -0.5968 -0.1381 -0.2579
  385MOL0     C51893   4.799   5.852   8.060  0.4679 -0.3203  0.6771
  385MOL0     C51894   4.931   5.880   8.084  0.5230 -0.2214  0.7413
  385MOL0     C51895   5.375   5.849   8.084  0.0998  0.3796  0.6965
  385MOL0     C51896   5.384   5.904   8.215 -0.6780  0.3528  0.2843
  385MOL0     C51897   5.497   5.971   8.256  0.3907  0.6213 -0.7031
  385MOL0     C51898   5.608   5.969   8.170 -0.9606  0.7821  0.0446
  385MOL0     O51899   5.738   6.011   8.187 -0.8208  0.4527 -0.1848
  385MOL0     C51900   5.772   6.076   8.311 -0.1922  0.5642  0.0383
  385MOL0     C51901   5.881   6.171   8.273 -0.6692 -1.3801  0.0063
  385MOL0     C51902   5.910   6.271   8.383 -0.5959  1.0151 -0.7104
  385MOL0     C51903   5.995   6.382   8.347 -0.3192  0.6968 -0.3583
  385MOL0     C51904   5.992   6.501   8.435 -0.3719 -0.0771 -0.3733
  385MOL0     C51905   5.968   6.601   8.494  0.2995 -0.7739 -0.7801
  385MOL0     C51906   5.590   5.911   8.042 -0.0407 -0.6276 -0.0946
  385MOL0     C51907   5.479   5.859   8.000  0.1352 -0.1135  0.1195
  385MOL0     H51908   5.047   5.563   8.063 -1.4576 -0.4611  3.6114
  385MOL0     H51909   4.795   5.531   7.983 -2.1561  0.4739  0.7724
  385MOL0     H51910   4.611   5.896   7.908  1.6558 -1.6242 -1.4656
  385MOL0     H51911   4.559   5.761   7.813  0.3636 -1.6784  1.0811
  385MOL0     H51912   4.408   5.848   8.066  1.7329  1.7364 -0.1457
  385MOL0     H51913   4.374   5.931   7.917  0.9093 -0.4898 -0.4335
  385MOL0     H51914   4.306   5.744   7.792  0.3540 -1.8235  0.1497
  385MOL0     H51915   4.353   5.633   7.913 -0.8635  0.5751  1.7966
  385MOL0     H51916   4.174   5.717   8.078 -0.4079  0.0550  0.0502
  385MOL0     H51917   4.143   5.846   7.971 -1.3509 -0.5920 -2.3252
  385MOL0     H51918   4.050   5.722   7.811 -0.0630  3.1856  2.1653
  385MOL0     H51919   4.100   5.568   7.859 -1.2459  1.0939 -2.8816
  385MOL0     H51920   3.955   5.633   8.085  1.4159  1.4007  0.2628
  385MOL0     H51921   3.929   5.778   7.986  0.7166  0.0569 -2.2898
  385MOL0     H51922   3.819   5.673   7.825  0.2116 -0.3009 -0.1873
  385MOL0     H51923   3.870   5.507   7.873  1.4401  1.1969 -2.6092
  385MOL0     H51924   3.691   5.680   8.054  4.7657  0.5965  0.8548
  385MOL0     H51925   3.717   5.514   8.079 -0.5789 -1.4005 -0.3869
  385MOL0     H51926   3.409   5.628   8.025 -5.8374 -2.4542 -1.1273
  385MOL0     H51927   3.230   5.685   7.802 -1.1488 -0.5991 -1.3977
  385MOL0     H51928   3.228   5.543   7.702  4.7104 -2.6350 -1.1549
  385MOL0     H51929   3.057   5.540   7.916 -0.2455 -1.0337 -1.6329
  385MOL0     H51930   3.205   5.504   8.010 -0.3046 -1.2288  0.0704
  385MOL0     H51931   3.070   5.302   7.933  0.4412 -0.8673 -0.7168
  385MOL0     H51932   3.231   5.298   7.904  1.0947  1.9718  1.2636
  385MOL0     H51933   3.086   5.216   7.718  1.9185  0.1343  0.7639
  385MOL0     H51934   3.167   5.349   7.649 -0.2576 -1.5916 -0.5017
  385MOL0     H51935   2.940   5.181   7.560  1.0076  1.8255 -0.2349
  385MOL0     H51936   2.806   4.987   7.439 -1.2908 -0.6717  0.1442
  385MOL0     H51937   2.635   5.036   7.392 -0.5189 -0.1821 -1.1826
  385MOL0     H51938   2.775   5.080   7.301 -0.8423 -0.2456 -0.8763
  385MOL0     H51939   2.267   5.161   7.351 -1.5208 -0.9537  1.4751
  385MOL0     H51940   2.060   5.151   7.213 -3.4090  1.8595 -0.8977
  385MOL0     H51941   1.870   5.227   6.904 -0.8745  0.4892  0.3613
  385MOL0     H51942   1.977   5.134   7.021  1.5395  0.2145 -0.3247
  385MOL0     H51943   1.792   5.121   7.123 -0.2930 -0.3926 -2.1734
  385MOL0     H51944   1.848   5.272   7.207 -0.3965  1.4990 -0.8196
  385MOL0     H51945   1.632   5.250   7.007 -1.2416  1.8992 -0.0797
  385MOL0     H51946   1.739   5.393   6.999  3.3542 -2.9094 -1.3474
  385MOL0     H51947   1.598   5.281   7.253 -3.1913  2.4371 -0.7145
  385MOL0     H51948   1.692   5.432   7.232  2.3986  0.6671 -1.7595
  385MOL0     H51949   1.428   5.357   7.098  1.6669  0.6149 -1.7925
  385MOL0     H51950   1.520   5.495   7.061  2.7285 -0.8000 -1.0792
  385MOL0     H51951   1.394   5.422   7.333 -3.7533  0.7333 -1.2068
  385MOL0     H51952   1.503   5.566   7.298 -0.4461  3.1217  0.2299
  385MOL0     H51953   1.253   5.608   7.327  1.7151  0.6434  0.8626
  385MOL0     H51954   1.213   5.490   7.202  0.5599 -2.0783 -0.7736
  385MOL0     H51955   1.353   5.670   7.039 -1.3170  1.0889 -0.3575
  385MOL0     H51956   1.350   5.760   7.197  0.8369 -0.3672 -0.5070
  385MOL0     H51957   2.136   5.551   7.067  0.8155  0.2739  1.3262
  385MOL0     H51958   2.333   5.562   7.235  3.7068 -2.7181  0.3987
  385MOL0     H51959   2.573   5.492   7.518  0.7221  0.2422 -1.1846
  385MOL0     H51960   2.758   5.528   7.674  3.2652 -1.8283  3.0734
  385MOL0     H51961   4.734   5.938   8.069  1.5410  0.4303  1.4448
  385MOL0     H51962   4.966   5.976   8.120 -0.7333  0.9709 -1.0896
  385MOL0     H51963   5.300   5.908   8.285  0.4415  1.9100  1.6023
  385MOL0     H51964   5.508   6.025   8.349 -1.6020  1.3604 -0.8456
  385MOL0     H51965   5.686   6.136   8.343 -1.0169  0.0061 -1.0508
  385MOL0     H51966   5.808   6.008   8.389  2.1793  0.4786 -1.0221
  385MOL0     H51967   5.859   6.233   8.185  1.6586 -0.3768  0.0691
  385MOL0     H51968   5.974   6.114   8.265 -0.3933 -1.0961  1.0164
  385MOL0     H51969   5.960   6.217   8.464 -1.0032  4.0070  1.7518
  385MOL0     H51970   5.817   6.308   8.426  0.5407  2.5380  0.5960
  385MOL0     H51971   5.964   6.410   8.246  0.4239  0.4892 -0.6476
  385MOL0     H51972   6.095   6.342   8.328 -0.4684  0.5708 -0.8854
  385MOL0     H51973   5.937   6.689   8.547 -3.1707 -0.7239 -2.5898
  385MOL0     H51974   5.671   5.917   7.970 -1.2179 -0.7445 -1.4632
  385MOL0     H51975   5.486   5.818   7.900  1.4904 -0.7257  0.4430
  386MOL0     O51976   9.887   5.061   0.735 -0.7923 -0.0138 -0.9669
  386MOL0     C51977   9.900   4.950   0.676 -0.0851  0.2404  0.3032
  386MOL0     O51978   9.808   4.839   0.679  0.1405  0.5484 -0.1051
  386MOL0     C51979   9.705   4.854   0.768  0.5086 -1.1856  0.4388
  386MOL0     C51980   9.722   4.871   0.904 -0.6285 -0.5664 -0.3292
  386MOL0     C51981   9.615   4.886   0.993  0.4095 -0.4525 -0.0157
  386MOL0     C51982   9.485   4.872   0.945  0.9512  0.3505  0.0730
  386MOL0     O51983   9.380   4.874   1.036  0.3452  0.8641  0.4903
  386MOL0     C51984   9.256   4.808   1.010  0.0360  0.9850  0.5824
  386MOL0     C51985   9.178   4.833   1.134  0.0920 -0.1953 -0.7896
  386MOL0     C51986   9.023   4.815   1.106 -0.6474 -0.5945  0.0621
  386MOL0     C51987   8.941   4.863   1.222  0.1921 -0.6753  0.8014
  386MOL0     C51988   8.800   4.905   1.174 -0.4855 -0.0800  0.4579
  386MOL0     C51989   8.719   4.930   1.302 -0.7096  0.2120 -0.3067
  386MOL0     C51990   8.585   4.979   1.271  0.4015 -0.2119  0.6251
  386MOL0     C51991   8.492   4.869   1.218  0.4861  0.6545 -0.8261
  386MOL0     N51992   8.360   4.923   1.181  0.3523 -0.2082  0.2735
  386MOL0     C51993   8.317   4.907   1.056 -0.5732 -0.9703 -0.3240
  386MOL0     C51994   8.191   4.959   1.051 -0.2335 -0.0034  1.5903
  386MOL0     C51995   8.108   4.984   0.930 -0.2376 -0.1632 -0.2107
  386MOL0     C51996   8.128   5.136   0.903  0.2044  0.3659 -0.2392
  386MOL0     C51997   8.092   5.158   0.755  0.5552 -0.2290  0.6291
  386MOL0     C51998   8.096   5.311   0.725  0.0624  0.1682  0.5498
  386MOL0     O51999   8.216   5.381   0.749 -0.2054  0.6885  0.8253
  386MOL0     C52000   8.326   5.334   0.675 -0.3935  0.3163 -0.0588
  386MOL0     C52001   8.325   5.272   0.550 -0.7626  0.1342  0.0826
  386MOL0     C52002   8.439   5.229   0.488  0.0221  0.3908  0.0186
  386MOL0     C52003   8.418   5.160   0.355  0.8667  0.0659  0.3762
  386MOL0     C52004   8.569   5.250   0.543 -0.0473  0.7239  0.2324
  386MOL0     C52005   8.707   5.211   0.483 -0.6651  0.4062 -0.4007
  386MOL0     O52006   8.820   5.212   0.569  0.0870 -0.3391  0.3024
  386MOL0     C52007   8.936   5.153   0.521  0.5452 -0.4690 -0.6990
  386MOL0     C52008   8.993   5.181   0.395 -0.5284 -0.2683 -0.2849
  386MOL0     C52009   9.104   5.119   0.344  0.5502 -0.0680 -0.9549
  386MOL0     C52010   9.162   5.019   0.426 -0.9483 -0.2748  0.2716
  386MOL0     O52011   9.273   4.944   0.384 -0.0590  0.3271  0.4182
  386MOL0     C52012   9.361   4.995   0.278 -0.0030 -0.0901  0.2755
  386MOL0     C52013   9.505   4.940   0.305 -0.0175 -0.6472 -0.4938
  386MOL0     C52014   9.596   4.961   0.191 -0.1718  0.1941  0.4416
  386MOL0     C52015   9.744   4.960   0.236  0.6191 -0.2737  0.2637
  386MOL0     C52016   9.841   4.977   0.105  0.1658 -0.4657 -0.1749
  386MOL0     C52017   9.891   4.842   0.039 -0.7889 -0.0679  0.2901
  386MOL0     C52018   9.962   4.869  -0.090 -0.1960 -0.5161 -0.9079
  386MOL0     C52019  10.082   4.953  -0.077 -1.1247 -0.5424  0.0566
  386MOL0    Cl52020  10.201   4.893   0.042 -0.5552  0.6597 -0.4301
  386MOL0     C52021   9.116   4.989   0.554 -0.7719  0.1970  0.1198
  386MOL0     C52022   9.006   5.060   0.604 -0.9604 -0.0424  0.0147
  386MOL0     O52023   8.710   5.187   0.362 -0.5237  0.3250  0.7844
  386MOL0     C52024   8.561   5.332   0.659  0.2985  0.2474  0.0951
  386MOL0     C52025   8.445   5.355   0.740  0.3982 -0.1826  0.4429
  386MOL0     N52026   8.164   5.018   1.170 -0.3904 -0.5626 -0.7571
  386MOL0     N52027   8.269   4.998   1.248  0.5766 -0.3564  0.2008
  386MOL0     C52028   9.464   4.841   0.807 -0.0917  0.1386  0.0055
  386MOL0     C52029   9.575   4.840   0.725  0.5895  0.4573  0.3875
  386MOL0     C52030  10.025   4.938   0.594  0.2122 -0.1269 -0.3013
  386MOL0     C52031  10.026   4.835   0.499 -0.5611  0.8124 -0.2480
  386MOL0     C52032  10.146   4.818   0.420 -0.2567 -0.2371  0.1279
  386MOL0     C52033  10.269   4.886   0.444  0.3532 -0.4245 -0.0477
  386MOL0     O52034  10.393   4.859   0.391 -0.5578  0.3619  0.8700
  386MOL0     C52035  10.394   4.735   0.316  0.3527 -0.6754  0.5901
  386MOL0     C52036  10.524   4.726   0.232 -0.3706  0.6090  0.3681
  386MOL0     C52037  10.543   4.846   0.146  0.5775 -0.8247  0.3881
  386MOL0     C52038  10.668   4.836   0.054 -0.8610 -0.4041  0.5675
  386MOL0     C52039  10.652   4.720  -0.041  0.8166  0.8947  0.4720
  386MOL0     C52040  10.634   4.631  -0.122  1.0051 -0.4621  0.2456
  386MOL0     C52041  10.256   4.985   0.542 -0.1268  0.3631  0.6648
  386MOL0     C52042  10.140   5.015   0.613 -0.2508 -0.0779 -0.2869
  386MOL0     H52043   9.824   4.888   0.938 -0.9355  0.0769  0.3011
  386MOL0     H52044   9.626   4.927   1.093  0.1295  0.1733 -0.2394
  386MOL0     H52045   9.197   4.855   0.931  0.5942 -0.6878 -0.8708
  386MOL0     H52046   9.260   4.701   0.990 -0.4767  0.4732  2.9064
  386MOL0     H52047   9.214   4.774   1.219 -1.0147  2.5825  1.7921
  386MOL0     H52048   9.204   4.935   1.165  0.5070  0.6182 -3.5935
  386MOL0     H52049   8.993   4.874   1.019 -1.0766 -0.0890  0.5507
  386MOL0     H52050   8.996   4.711   1.087 -4.4367  0.4401 -1.0556
  386MOL0     H52051   8.940   4.784   1.298  0.1665 -0.3858  1.1016
  386MOL0     H52052   8.993   4.946   1.271 -0.3387 -0.9823  1.9158
  386MOL0     H52053   8.805   4.990   1.105  1.8578 -0.2613  0.3188
  386MOL0     H52054   8.758   4.819   1.121  0.2490 -0.4748  0.4971
  386MOL0     H52055   8.698   4.844   1.366 -1.0844  0.6100  0.1189
  386MOL0     H52056   8.777   5.006   1.355  2.0712 -0.9937 -1.4131
  386MOL0     H52057   8.526   5.006   1.359 -0.6241  0.1937 -0.1605
  386MOL0     H52058   8.585   5.068   1.208  2.2766 -2.0619 -2.2486
  386MOL0     H52059   8.466   4.804   1.302  0.2893  1.6410 -0.1039
  386MOL0     H52060   8.537   4.809   1.138  0.9540 -3.5184  2.2000
  386MOL0     H52061   8.378   4.878   0.971 -1.4158 -0.5021 -1.1051
  386MOL0     H52062   8.144   4.930   0.842 -1.7427 -0.5519 -0.6272
  386MOL0     H52063   8.004   4.954   0.947  0.0694 -1.4217 -0.4914
  386MOL0     H52064   8.231   5.167   0.919 -0.2102  2.3670 -1.1417
  386MOL0     H52065   8.061   5.199   0.962 -1.5790  1.2525 -2.9943
  386MOL0     H52066   7.990   5.126   0.731  2.1518 -4.8445 -1.1500
  386MOL0     H52067   8.154   5.093   0.693  1.4561 -0.2779  1.5473
  386MOL0     H52068   8.021   5.341   0.799 -0.6228 -0.4510  0.1310
  386MOL0     H52069   8.052   5.336   0.628 -0.5410  0.3127  0.8555
  386MOL0     H52070   8.230   5.250   0.503 -1.0511  0.7450  0.3761
  386MOL0     H52071   8.453   5.223   0.272  0.9094  2.8959  2.3830
  386MOL0     H52072   8.476   5.068   0.354 -1.4717 -1.5046  0.4603
  386MOL0     H52073   8.313   5.132   0.344  1.6885 -2.5140 -1.8464
  386MOL0     H52074   8.944   5.255   0.332 -1.2525 -0.6531 -0.1751
  386MOL0     H52075   9.143   5.160   0.251  0.0835  1.2903 -0.5791
  386MOL0     H52076   9.317   4.960   0.184  0.1831  2.1607 -0.7106
  386MOL0     H52077   9.363   5.104   0.286  1.1636 -0.0088 -0.7329
  386MOL0     H52078   9.552   4.979   0.396  1.3945 -0.5777 -1.2251
  386MOL0     H52079   9.495   4.833   0.322  0.9613 -0.4782  1.4003
  386MOL0     H52080   9.578   5.050   0.131  0.0459 -0.7930 -1.1365
  386MOL0     H52081   9.586   4.873   0.127  2.5069  1.6551 -2.2405
  386MOL0     H52082   9.747   5.048   0.300 -1.8071  1.9000 -2.3427
  386MOL0     H52083   9.774   4.869   0.288  0.7058 -1.5791 -1.9618
  386MOL0     H52084   9.923   5.042   0.136  1.7577 -2.7371  0.6616
  386MOL0     H52085   9.796   5.027   0.019  1.6217 -2.7513 -2.4183
  386MOL0     H52086   9.947   4.783   0.112  0.8299  0.8279 -0.1976
  386MOL0     H52087   9.802   4.781   0.019  0.4853 -2.4525  1.5588
  386MOL0     H52088   9.891   4.917  -0.157 -0.4200  0.9597  0.3296
  386MOL0     H52089   9.981   4.772  -0.137 -1.6221 -1.0248 -0.5016
  386MOL0     H52090  10.052   5.058  -0.084 -0.1094 -0.3256 -4.7810
  386MOL0     H52091  10.131   4.949  -0.175  1.0242  0.3792  1.0289
  386MOL0     H52092   9.166   4.917   0.618  2.6187 -0.9113 -3.4071
  386MOL0     H52093   8.973   5.039   0.706  3.1937 -3.3711  0.9185
  386MOL0     H52094   8.645   5.375   0.713  0.7689  1.7794 -1.7550
  386MOL0     H52095   8.444   5.406   0.836 -1.6925  1.0346 -0.1439
  386MOL0     H52096   9.364   4.813   0.777 -0.6862 -1.6326  3.1850
  386MOL0     H52097   9.573   4.819   0.618  1.8369  1.5326  0.1178
  386MOL0     H52098   9.937   4.778   0.474  0.6116 -1.3652  0.2638
  386MOL0     H52099  10.143   4.736   0.349  2.4253 -0.5831  0.3049
  386MOL0     H52100  10.376   4.652   0.385 -1.0110  2.3019  4.2013
  386MOL0     H52101  10.316   4.731   0.240  1.3642  1.3840 -0.6742
  386MOL0     H52102  10.511   4.638   0.168 -0.8414  0.1141  1.1265
  386MOL0     H52103  10.605   4.708   0.302 -2.2238  1.8204  2.9696
  386MOL0     H52104  10.569   4.929   0.212  1.0929  1.5282 -2.5513
  386MOL0     H52105  10.460   4.875   0.080 -0.8473 -1.7289  1.7106
  386MOL0     H52106  10.753   4.814   0.119 -1.8293  0.7923  2.2927
  386MOL0     H52107  10.692   4.927  -0.001  1.9362 -0.8904  0.8180
  386MOL0     H52108  10.620   4.558  -0.198  1.4707  0.8004 -1.0898
  386MOL0     H52109  10.349   5.033   0.570 -0.6609  1.1060  1.1909
  386MOL0     H52110  10.152   5.097   0.683  0.3810 -0.0355 -0.4312
  387MOL0     O52111   7.180   0.775   9.968 -0.0316 -0.0268  0.3874
  387MOL0     C52112   7.207   0.829  10.071  0.3120 -0.5617  0.1794
  387MOL0     O52113   7.142   0.940  10.125 -0.2603 -0.0684  0.4318
  387MOL0     C52114   7.034   0.990  10.048 -0.5370  0.5774 -0.5089
  387MOL0     C52115   6.917   0.917  10.006  0.4013  0.8444 -1.0503
  387MOL0     C52116   6.821   0.988   9.931 -0.4033 -0.2192  0.1074
  387MOL0     C52117   6.818   1.125   9.913 -0.3183  0.4536  0.6519
  387MOL0     O52118   6.733   1.199   9.834  0.4565 -0.1158  0.1727
  387MOL0     C52119   6.643   1.132   9.739 -0.2769 -0.0104  0.6350
  387MOL0     C52120   6.541   1.220   9.664  0.8964  0.6660 -0.5889
  387MOL0     C52121   6.442   1.301   9.747 -0.1176 -0.2508  0.4536
  387MOL0     C52122   6.354   1.377   9.641 -0.4262  0.9976 -0.4654
  387MOL0     C52123   6.232   1.452   9.712  0.2859 -0.1985  0.0572
  387MOL0     C52124   6.119   1.485   9.610 -0.3233 -0.5468 -0.7665
  387MOL0     C52125   6.013   1.595   9.649 -1.2616  0.0955 -0.9147
  387MOL0     C52126   5.894   1.604   9.550  0.1613  1.0002  0.2746
  387MOL0     N52127   5.789   1.695   9.584  0.3677  0.0342 -0.1723
  387MOL0     C52128   5.791   1.822   9.532 -0.4340  0.0577 -0.2712
  387MOL0     C52129   5.680   1.877   9.591 -0.3828  0.3551  0.2661
  387MOL0     C52130   5.625   2.011   9.561  0.2665 -0.1318  0.2972
  387MOL0     C52131   5.498   2.017   9.478  0.5489  0.2535 -0.2243
  387MOL0     C52132   5.450   2.154   9.451 -0.6132  0.4598 -0.1755
  387MOL0     C52133   5.321   2.165   9.371 -0.3067 -0.8052 -0.9576
  387MOL0     O52134   5.212   2.102   9.451  0.2572 -0.0048  0.0325
  387MOL0     C52135   5.086   2.124   9.412  0.3657 -0.3841  0.7711
  387MOL0     C52136   5.031   2.072   9.289 -0.2785  0.3320 -1.2633
  387MOL0     C52137   4.899   2.090   9.245  1.4168 -0.7369  0.3270
  387MOL0     C52138   4.859   2.003   9.127  0.1841  0.3533  0.4309
  387MOL0     C52139   4.803   2.158   9.329 -0.4062 -0.3028  0.6992
  387MOL0     C52140   4.662   2.178   9.307  0.5974 -0.7137 -0.6890
  387MOL0     O52141   4.607   2.118   9.202 -0.5063 -0.0088 -1.0081
  387MOL0     C52142   4.468   2.119   9.182  0.0598 -0.5304 -0.4111
  387MOL0     C52143   4.428   2.064   9.062 -0.7857 -0.4980  0.1017
  387MOL0     C52144   4.290   2.058   9.013 -0.8179  0.4278  0.4195
  387MOL0     C52145   4.190   2.101   9.094  0.0815 -0.3611 -1.1458
  387MOL0     O52146   4.059   2.096   9.052 -0.0303 -0.1299 -0.3709
  387MOL0     C52147   3.957   2.084   9.154 -0.3531  1.1168  0.2370
  387MOL0     C52148   3.841   2.001   9.103  0.4642 -0.0406  0.4223
  387MOL0     C52149   3.743   2.095   9.023 -0.1905  0.0346 -0.7703
  387MOL0     C52150   3.645   2.015   8.933  0.8769  1.6579  0.4526
  387MOL0     C52151   3.539   2.102   8.874 -0.6062 -0.5760  0.0070
  387MOL0     C52152   3.586   2.245   8.822  0.5990  0.4506 -0.3939
  387MOL0     C52153   3.483   2.317   8.751  0.1938 -0.3716  1.0635
  387MOL0     C52154   3.516   2.468   8.713 -0.4860  0.1580 -0.8947
  387MOL0    Cl52155   3.513   2.563   8.860  0.4551 -0.2853  0.1771
  387MOL0     C52156   4.228   2.151   9.221  0.1592 -0.5950 -0.7596
  387MOL0     C52157   4.359   2.172   9.261  0.0008  0.2757  0.4819
  387MOL0     O52158   4.609   2.263   9.373 -0.0123 -0.4262  0.7290
  387MOL0     C52159   4.861   2.199   9.457  0.6292  0.1716  0.3523
  387MOL0     C52160   4.990   2.174   9.495 -0.8417 -0.4158  0.1089
  387MOL0     N52161   5.612   1.779   9.674 -0.2283 -0.1360  0.2908
  387MOL0     N52162   5.686   1.671   9.675  0.3760 -0.2591  0.3227
  387MOL0     C52163   6.928   1.191   9.967 -0.0766  0.5062 -0.2930
  387MOL0     C52164   7.035   1.130  10.032  0.3257  0.3924 -0.3584
  387MOL0     C52165   7.334   0.793  10.142  0.9743  0.7592 -0.7514
  387MOL0     C52166   7.362   0.858  10.267  1.4850 -0.1744  0.6467
  387MOL0     C52167   7.482   0.834  10.335  0.3745 -0.5242  0.1737
  387MOL0     C52168   7.584   0.745  10.279  0.5025  1.1659  0.5327
  387MOL0     O52169   7.683   0.711  10.358  0.4853 -0.1921  0.8415
  387MOL0     C52170   7.645   0.668  10.489  0.5089 -0.0001 -0.2543
  387MOL0     C52171   7.772   0.617  10.561 -0.3853 -0.1929  0.6825
  387MOL0     C52172   7.835   0.490  10.506 -0.1664 -0.9173 -0.1151
  387MOL0     C52173   7.983   0.484  10.541  0.3300 -0.3707 -0.5240
  387MOL0     C52174   8.050   0.381  10.457  1.0525 -0.2664 -0.8059
  387MOL0     C52175   8.089   0.289  10.390  0.0511  1.0321 -0.0756
  387MOL0     C52176   7.541   0.674  10.172  0.0695  0.3244  0.1850
  387MOL0     C52177   7.424   0.700  10.096 -0.2086  1.2818  0.3342
  387MOL0     H52178   6.922   0.811  10.028 -2.0523  0.9113  0.2106
  387MOL0     H52179   6.740   0.934   9.883 -0.9854 -0.4491  1.3181
  387MOL0     H52180   6.711   1.080   9.671 -0.7809 -1.4719  1.2121
  387MOL0     H52181   6.584   1.062   9.798 -0.1921  0.4157  1.2351
  387MOL0     H52182   6.602   1.291   9.607 -0.1178  1.5521 -0.6118
  387MOL0     H52183   6.490   1.159   9.590 -2.0096 -1.9507  3.2082
  387MOL0     H52184   6.375   1.246   9.813 -0.6727  1.0894  1.0421
  387MOL0     H52185   6.496   1.376   9.805 -0.0540 -2.5555  3.5886
  387MOL0     H52186   6.410   1.439   9.571 -2.0111 -2.6980 -5.5766
  387MOL0     H52187   6.313   1.302   9.574 -2.0168  1.7168 -0.3543
  387MOL0     H52188   6.190   1.384   9.787  1.3626  1.4584  2.2965
  387MOL0     H52189   6.260   1.544   9.763 -0.3911 -0.5087  1.0266
  387MOL0     H52190   6.180   1.509   9.522  1.4569  0.3190  0.6331
  387MOL0     H52191   6.063   1.394   9.590 -3.8823  1.4653 -0.8447
  387MOL0     H52192   5.974   1.558   9.744  1.0904  0.1634  0.1586
  387MOL0     H52193   6.082   1.678   9.668  3.1365 -3.6629  1.6207
  387MOL0     H52194   5.867   1.500   9.534  1.9441  0.6145 -0.3962
  387MOL0     H52195   5.940   1.637   9.456  1.1311  1.9274  1.0501
  387MOL0     H52196   5.874   1.865   9.476  3.3351 -3.0153  2.3483
  387MOL0     H52197   5.591   2.052   9.656 -0.2813  1.3134 -0.4967
  387MOL0     H52198   5.709   2.069   9.522 -0.6394  1.1563  0.2324
  387MOL0     H52199   5.414   1.959   9.517 -0.3882  2.0165  0.5112
  387MOL0     H52200   5.531   1.988   9.378 -1.1100  0.4132 -0.8530
  387MOL0     H52201   5.530   2.199   9.392  1.6599 -0.7565  1.8031
  387MOL0     H52202   5.428   2.211   9.541  2.2121  0.4574  0.6101
  387MOL0     H52203   5.334   2.128   9.269  1.1379  0.7606 -1.3845
  387MOL0     H52204   5.301   2.272   9.360  4.0441  0.4486  0.8920
  387MOL0     H52205   5.096   2.006   9.233  1.9890  1.3798 -0.0113
  387MOL0     H52206   4.822   1.909   9.168 -1.9498  1.3497  0.9070
  387MOL0     H52207   4.780   2.041   9.062  1.7609  3.2108  0.0259
  387MOL0     H52208   4.951   1.985   9.069  1.3808  0.0321  2.3518
  387MOL0     H52209   4.506   2.014   9.006  1.6364  2.4909  0.5254
  387MOL0     H52210   4.268   2.024   8.912 -0.1903 -0.6640  0.6398
  387MOL0     H52211   3.990   2.028   9.242  1.7347  1.2519 -0.3963
  387MOL0     H52212   3.924   2.180   9.193 -1.0606  1.0292 -0.1369
  387MOL0     H52213   3.869   1.930   9.025 -1.4283 -1.2689  0.8092
  387MOL0     H52214   3.796   1.951   9.189 -0.0683  2.6762  1.8341
  387MOL0     H52215   3.799   2.166   8.962 -1.4638  3.0254  1.2710
  387MOL0     H52216   3.683   2.161   9.087 -2.0072 -1.3160 -0.9756
  387MOL0     H52217   3.708   1.974   8.852  2.9965  2.4685  1.6041
  387MOL0     H52218   3.606   1.930   8.989 -0.0619 -0.1539 -2.6844
  387MOL0     H52219   3.456   2.115   8.945 -1.7506 -1.6475 -1.0840
  387MOL0     H52220   3.495   2.058   8.784 -0.4465 -1.2300  0.2443
  387MOL0     H52221   3.627   2.298   8.909  0.9842 -1.5540  0.6875
  387MOL0     H52222   3.673   2.227   8.759  0.5537 -0.7219 -0.1319
  387MOL0     H52223   3.394   2.332   8.813 -0.7786 -4.1077  0.8023
  387MOL0     H52224   3.450   2.263   8.662  0.3038  1.6891 -0.2972
  387MOL0     H52225   3.445   2.510   8.641  0.8365  3.0675 -0.6304
  387MOL0     H52226   3.614   2.477   8.666 -0.1778 -0.9363 -0.4948
  387MOL0     H52227   4.149   2.185   9.287  2.4684  0.1689  1.8201
  387MOL0     H52228   4.378   2.232   9.349  0.3856  1.1717 -0.1870
  387MOL0     H52229   4.800   2.233   9.539 -1.5707  1.6203 -1.7510
  387MOL0     H52230   5.016   2.208   9.594  1.2410  1.3787 -0.9723
  387MOL0     H52231   6.930   1.299   9.954  2.7950  0.3866 -1.6675
  387MOL0     H52232   7.117   1.190  10.070  0.7215  0.0195 -0.6182
  387MOL0     H52233   7.304   0.934  10.318 -0.2159  1.3516 -3.2321
  387MOL0     H52234   7.508   0.894  10.422 -0.3991 -2.2315  1.6510
  387MOL0     H52235   7.603   0.742  10.559  1.4439  0.6046 -0.3133
  387MOL0     H52236   7.571   0.588  10.484  2.3303 -1.8105  0.2395
  387MOL0     H52237   7.746   0.592  10.665  0.1844 -1.2865  0.5707
  387MOL0     H52238   7.849   0.694  10.568 -2.1652  1.8964 -1.3715
  387MOL0     H52239   7.827   0.493  10.397 -1.1020  0.4596 -0.0401
  387MOL0     H52240   7.784   0.403  10.548  0.5823 -1.0952  0.4499
  387MOL0     H52241   8.003   0.467  10.648  2.5173  0.4633 -0.7464
  387MOL0     H52242   8.033   0.580  10.522 -1.1652  0.1443 -2.1481
  387MOL0     H52243   8.121   0.208  10.328 -0.4709  2.4333 -2.2956
  387MOL0     H52244   7.600   0.593  10.132  0.2951 -0.9072  2.7703
  387MOL0     H52245   7.395   0.646  10.006  1.3519  0.1132  0.4925
  388MOL0     O52246   7.115   5.876   8.944 -0.3335 -0.8144  0.2588
  388MOL0     C52247   7.148   5.766   8.986 -0.2471  0.2523 -0.2021
  388MOL0     O52248   7.070   5.656   8.988  0.3300  0.3619  0.0505
  388MOL0     C52249   6.937   5.666   8.960 -0.1322 -0.7746  0.4354
  388MOL0     C52250   6.875   5.567   8.887 -0.1113 -0.5561  0.6486
  388MOL0     C52251   6.740   5.573   8.860  0.2223  0.2213  0.8032
  388MOL0     C52252   6.660   5.668   8.920  0.0723 -0.0145 -1.2709
  388MOL0     O52253   6.529   5.658   8.892 -0.2311  0.1042  0.0521
  388MOL0     C52254   6.440   5.648   9.003 -0.0539  0.1710  0.0266
  388MOL0     C52255   6.293   5.650   8.957 -0.6517 -1.0656  1.9053
  388MOL0     C52256   6.256   5.545   8.848 -0.5008  0.0561 -0.5751
  388MOL0     C52257   6.107   5.522   8.850 -0.4947  0.7022 -0.4489
  388MOL0     C52258   6.066   5.420   8.752  0.4030 -0.6575  0.2813
  388MOL0     C52259   5.915   5.382   8.748  0.4557 -0.2349  0.5033
  388MOL0     C52260   5.805   5.504   8.739 -0.2154 -0.1440 -0.8975
  388MOL0     C52261   5.789   5.562   8.594  0.2024 -0.3912  0.2521
  388MOL0     N52262   5.689   5.679   8.590  0.0476 -0.2019  0.0350
  388MOL0     C52263   5.564   5.687   8.656 -0.9993  0.0777 -0.2818
  388MOL0     C52264   5.532   5.819   8.647 -0.3406 -0.6468  0.0100
  388MOL0     C52265   5.412   5.872   8.704  0.4508  1.1357 -0.4908
  388MOL0     C52266   5.302   5.826   8.612  0.9294 -0.8819 -0.1842
  388MOL0     C52267   5.167   5.868   8.663 -0.6121  0.3132  0.6022
  388MOL0     C52268   5.050   5.830   8.561 -0.0237  0.2431  0.3964
  388MOL0     O52269   5.040   5.686   8.568  0.0677  0.2897  0.4741
  388MOL0     C52270   4.920   5.639   8.527  0.1627 -0.9928 -0.2627
  388MOL0     C52271   4.864   5.539   8.603  1.0543 -0.0890 -0.0530
  388MOL0     C52272   4.743   5.476   8.570 -0.6406 -0.6972  0.8548
  388MOL0     C52273   4.690   5.371   8.669 -0.0632  0.0633  0.5003
  388MOL0     C52274   4.665   5.524   8.461  0.4708  1.0397  0.6332
  388MOL0     C52275   4.518   5.486   8.425  0.0827  0.2840 -0.3133
  388MOL0     O52276   4.476   5.542   8.307  0.2709  0.5425  0.8698
  388MOL0     C52277   4.375   5.493   8.249  1.0132  0.8514 -1.0116
  388MOL0     C52278   4.383   5.434   8.114 -0.8408  0.1965 -0.7997
  388MOL0     C52279   4.263   5.405   8.051  0.0946  0.1672  0.6966
  388MOL0     C52280   4.139   5.405   8.111 -0.6195  0.1458  0.1094
  388MOL0     O52281   4.038   5.364   8.039  0.2684  0.7970 -0.1357
  388MOL0     C52282   3.919   5.297   8.093  0.4832 -0.3299 -0.2572
  388MOL0     C52283   3.969   5.161   8.149  0.2012  0.4805  0.0341
  388MOL0     C52284   3.855   5.071   8.207  0.2256  0.8827  0.9078
  388MOL0     C52285   3.900   4.996   8.333 -0.2914  0.0075  1.1306
  388MOL0     C52286   3.789   4.895   8.374 -0.9346  0.0817 -0.3652
  388MOL0     C52287   3.791   4.814   8.503 -1.0096 -0.4029  0.3637
  388MOL0     C52288   3.792   4.903   8.624  0.0234 -0.5551 -0.3560
  388MOL0     C52289   3.795   4.830   8.757 -0.7700  0.3382 -0.2125
  388MOL0    Cl52290   3.752   4.922   8.892 -0.0343  0.5851 -0.1159
  388MOL0     C52291   4.131   5.442   8.251 -0.3974  0.2102 -0.5210
  388MOL0     C52292   4.250   5.483   8.311 -0.4632  0.1085 -0.1330
  388MOL0     O52293   4.466   5.392   8.485 -0.2100  1.0643  0.2133
  388MOL0     C52294   4.732   5.616   8.379 -0.9413 -0.0894  1.0555
  388MOL0     C52295   4.858   5.672   8.405  0.0238  0.1637 -0.4225
  388MOL0     N52296   5.622   5.894   8.573 -0.3657 -0.5813  0.5964
  388MOL0     N52297   5.714   5.804   8.541 -0.8852  0.6906 -0.3894
  388MOL0     C52298   6.722   5.766   8.999  0.8312 -0.4771 -0.3645
  388MOL0     C52299   6.861   5.769   9.014  0.2002 -0.0710  0.0368
  388MOL0     C52300   7.275   5.772   9.057 -0.2752  0.0273  0.5193
  388MOL0     C52301   7.362   5.886   9.048  1.0891  0.9843  0.9395
  388MOL0     C52302   7.490   5.883   9.097 -0.3045 -0.2716  0.0836
  388MOL0     C52303   7.539   5.771   9.168  0.2019  0.9400  0.3967
  388MOL0     O52304   7.660   5.742   9.232 -0.2335 -0.4611  0.2278
  388MOL0     C52305   7.765   5.831   9.194 -0.6459  1.0196 -0.0652
  388MOL0     C52306   7.892   5.768   9.250 -0.7810  0.0771 -0.6292
  388MOL0     C52307   8.023   5.841   9.222  0.6486  0.8290  0.2999
  388MOL0     C52308   8.044   5.970   9.296 -0.4082 -0.2868  0.5216
  388MOL0     C52309   8.128   6.057   9.217 -0.4500  0.1326 -0.1683
  388MOL0     C52310   8.210   6.124   9.161  0.7898 -0.2873 -0.8533
  388MOL0     C52311   7.448   5.671   9.180  0.0276  0.1727 -0.4136
  388MOL0     C52312   7.314   5.665   9.134  0.6422 -0.7969 -0.1685
  388MOL0     H52313   6.927   5.475   8.864 -0.6708 -1.1502  1.6722
  388MOL0     H52314   6.697   5.493   8.800  0.5822  1.9598 -1.9276
  388MOL0     H52315   6.451   5.549   9.049 -2.0455 -0.0932  0.0106
  388MOL0     H52316   6.456   5.714   9.089 -1.4076  0.2195  0.2537
  388MOL0     H52317   6.236   5.638   9.050 -1.6277  0.2671  1.5118
  388MOL0     H52318   6.277   5.748   8.912  4.2325 -0.6659  0.5277
  388MOL0     H52319   6.290   5.583   8.751 -0.3689 -0.3683 -0.6974
  388MOL0     H52320   6.315   5.455   8.864 -0.5830 -0.2981 -2.0852
  388MOL0     H52321   6.077   5.475   8.943  0.9583 -0.2895 -0.4582
  388MOL0     H52322   6.037   5.605   8.834 -0.2675  0.2927 -5.0673
  388MOL0     H52323   6.082   5.462   8.652 -2.6345  1.0271  0.3765
  388MOL0     H52324   6.132   5.333   8.762  0.5815 -0.5805 -0.1802
  388MOL0     H52325   5.901   5.320   8.659 -0.8493 -1.5553  1.5769
  388MOL0     H52326   5.888   5.318   8.833 -0.7487  0.7237  0.8627
  388MOL0     H52327   5.706   5.461   8.755 -0.3318 -0.1305 -1.5644
  388MOL0     H52328   5.821   5.573   8.823  2.1121 -0.8193 -0.7174
  388MOL0     H52329   5.763   5.483   8.523 -0.0449  0.1612 -0.2850
  388MOL0     H52330   5.882   5.610   8.564 -0.5934  0.0042 -1.6945
  388MOL0     H52331   5.503   5.610   8.702 -0.5311 -1.0619 -1.4877
  388MOL0     H52332   5.391   5.827   8.802 -2.4530  0.9617 -1.0995
  388MOL0     H52333   5.430   5.980   8.709  0.1041  1.1510  1.0385
  388MOL0     H52334   5.288   5.718   8.602  0.4847 -0.6463 -2.6470
  388MOL0     H52335   5.314   5.864   8.510  2.0798  0.3741  0.3991
  388MOL0     H52336   5.162   5.977   8.676 -1.0641  0.3803 -0.1030
  388MOL0     H52337   5.158   5.819   8.760 -1.7264 -1.8941 -0.5466
  388MOL0     H52338   5.074   5.864   8.460 -2.4037 -2.3827 -1.2011
  388MOL0     H52339   4.956   5.880   8.585 -0.6164 -0.8701  0.4220
  388MOL0     H52340   4.908   5.516   8.700 -0.0544 -2.5305 -0.0650
  388MOL0     H52341   4.767   5.355   8.744 -0.6444 -0.8306  0.9305
  388MOL0     H52342   4.595   5.395   8.719 -1.0278 -0.4698 -1.0050
  388MOL0     H52343   4.678   5.276   8.616  1.3385 -0.9233  1.8593
  388MOL0     H52344   4.476   5.435   8.059 -1.0250 -0.7101 -1.1391
  388MOL0     H52345   4.284   5.382   7.948 -0.6992 -0.6229  0.6981
  388MOL0     H52346   3.878   5.359   8.173  1.3081 -1.5653  1.1816
  388MOL0     H52347   3.851   5.276   8.010  0.0573 -1.1471  0.2880
  388MOL0     H52348   4.026   5.110   8.071 -1.2166 -1.7588  0.3662
  388MOL0     H52349   4.045   5.175   8.226  1.5293  0.3051 -1.2023
  388MOL0     H52350   3.833   5.000   8.127  2.0864  0.4991  0.7003
  388MOL0     H52351   3.770   5.128   8.247  0.9535  0.3504  3.4054
  388MOL0     H52352   3.999   4.949   8.327  0.1101  0.8370  1.0139
  388MOL0     H52353   3.931   5.068   8.410  3.8810 -1.8981  1.4923
  388MOL0     H52354   3.770   4.824   8.293  1.9528 -1.7720  0.4719
  388MOL0     H52355   3.697   4.955   8.372 -2.8363 -2.5981  0.5299
  388MOL0     H52356   3.707   4.743   8.506 -2.1405  0.8632 -0.1300
  388MOL0     H52357   3.886   4.760   8.501 -0.3897  0.5095  2.5597
  388MOL0     H52358   3.704   4.966   8.613  0.8162  0.8755  1.0642
  388MOL0     H52359   3.877   4.971   8.632  0.8758 -1.5025 -1.0546
  388MOL0     H52360   3.886   4.770   8.762  0.1269  1.7855  2.5791
  388MOL0     H52361   3.717   4.753   8.762 -1.5944  1.2428  2.6243
  388MOL0     H52362   4.041   5.456   8.310 -0.4434 -0.5902 -0.3881
  388MOL0     H52363   4.245   5.517   8.414  1.5331  2.5173 -0.7266
  388MOL0     H52364   4.687   5.640   8.284 -0.5449 -1.5333  0.4840
  388MOL0     H52365   4.900   5.746   8.337  1.9506  0.7348  1.2562
  388MOL0     H52366   6.673   5.853   9.043 -0.7702 -0.0703 -2.7375
  388MOL0     H52367   6.905   5.848   9.073  0.9842 -0.4074 -0.0899
  388MOL0     H52368   7.324   5.975   8.998 -1.8207 -1.1345 -0.9461
  388MOL0     H52369   7.557   5.968   9.083  1.2895 -1.2188  1.5332
  388MOL0     H52370   7.771   5.837   9.085 -1.0576 -0.4474 -0.1955
  388MOL0     H52371   7.760   5.934   9.230 -0.9150  0.0886  2.8862
  388MOL0     H52372   7.899   5.664   9.218 -2.0481 -0.7939  1.6334
  388MOL0     H52373   7.877   5.761   9.359 -0.7881  2.0107 -0.4779
  388MOL0     H52374   8.018   5.856   9.114 -4.4048 -2.3917 -0.2794
  388MOL0     H52375   8.107   5.777   9.249 -0.0407 -0.3681 -0.2857
  388MOL0     H52376   8.078   5.956   9.399 -1.7528  0.4258  1.0927
  388MOL0     H52377   7.945   6.017   9.302 -0.1279  0.2304  1.2986
  388MOL0     H52378   8.270   6.192   9.104 -1.4681 -1.3745 -4.9444
  388MOL0     H52379   7.467   5.577   9.231  0.4787 -1.3998 -3.2558
  388MOL0     H52380   7.262   5.572   9.153  1.2631 -0.7538  2.0322
  389MOL0     O52381   1.438   3.512   2.775 -0.2540 -0.8268  0.1755
  389MOL0     C52382   1.511   3.567   2.686 -0.0801  0.4401  0.1265
  389MOL0     O52383   1.461   3.657   2.598 -0.1065  0.1808  0.0372
  389MOL0     C52384   1.334   3.676   2.580  0.9283 -0.0008 -0.6432
  389MOL0     C52385   1.243   3.581   2.544 -0.6621 -0.5801 -0.4708
  389MOL0     C52386   1.125   3.621   2.492 -0.4046  0.8052 -0.1255
  389MOL0     C52387   1.077   3.745   2.484 -0.0686 -0.0328 -0.8627
  389MOL0     O52388   0.950   3.767   2.430 -0.0496  0.0238  0.2866
  389MOL0     C52389   0.887   3.899   2.454 -0.3078  0.9001 -0.3000
  389MOL0     C52390   0.740   3.891   2.421 -0.5259  1.1383  0.4519
  389MOL0     C52391   0.668   3.770   2.493  0.4171 -0.0714  0.0724
  389MOL0     C52392   0.523   3.739   2.437  0.1012  0.0751  0.2754
  389MOL0     C52393   0.425   3.854   2.481 -0.0857 -0.0698  0.3304
  389MOL0     C52394   0.284   3.816   2.451  0.0674 -0.1019 -0.1098
  389MOL0     C52395   0.182   3.881   2.545 -0.2852  0.1179  0.6648
  389MOL0     C52396   0.051   3.816   2.521 -1.2808  0.6761  0.5684
  389MOL0     N52397  -0.013   3.866   2.402  0.1896  0.3392 -0.4802
  389MOL0     C52398  -0.134   3.926   2.409 -1.2827  0.2592 -0.3394
  389MOL0     C52399  -0.190   3.916   2.286  0.0144  1.2869 -0.2489
  389MOL0     C52400  -0.335   3.947   2.253 -0.7935 -0.0257  0.5759
  389MOL0     C52401  -0.415   3.824   2.281  0.1078 -0.3498  0.1130
  389MOL0     C52402  -0.565   3.848   2.253  0.0290 -0.4980 -0.5192
  389MOL0     C52403  -0.648   3.741   2.312  0.5082  0.0024 -0.1424
  389MOL0     O52404  -0.652   3.758   2.457  0.5669 -0.9749 -0.1635
  389MOL0     C52405  -0.737   3.685   2.529 -0.0447  0.2983 -0.9689
  389MOL0     C52406  -0.721   3.701   2.672  0.1867  0.2482  0.5375
  389MOL0     C52407  -0.823   3.651   2.755 -0.2771 -0.1513 -0.1603
  389MOL0     C52408  -0.801   3.685   2.902  0.4254  0.2650 -0.1512
  389MOL0     C52409  -0.924   3.573   2.699  0.6199  0.4312  0.5459
  389MOL0     C52410  -1.022   3.498   2.778  0.5225  0.3475  0.0749
  389MOL0     O52411  -1.057   3.540   2.898 -0.0028 -0.1426 -0.3934
  389MOL0     C52412  -1.190   3.529   2.941  0.6216 -0.1131  0.1349
  389MOL0     C52413  -1.205   3.491   3.076 -0.1188  0.5341  0.0260
  389MOL0     C52414  -1.328   3.472   3.134  0.0009  0.2832 -0.6562
  389MOL0     C52415  -1.445   3.507   3.064 -0.3829 -0.3027 -0.1855
  389MOL0     O52416  -1.573   3.499   3.111 -0.2108  0.4742 -0.0183
  389MOL0     C52417  -1.605   3.451   3.242  0.1559  0.1651  0.4304
  389MOL0     C52418  -1.731   3.509   3.296 -0.2131 -1.0819  0.8980
  389MOL0     C52419  -1.740   3.512   3.450  0.2251 -0.2610  0.1836
  389MOL0     C52420  -1.793   3.635   3.516  0.2740 -0.6130 -0.1997
  389MOL0     C52421  -1.935   3.664   3.479  0.5990 -0.8723 -0.4379
  389MOL0     C52422  -1.990   3.804   3.534 -0.5240  0.8647 -0.0080
  389MOL0     C52423  -2.134   3.822   3.521 -0.1437  0.0510 -0.0417
  389MOL0     C52424  -2.180   3.921   3.621 -0.3888 -0.4422 -0.4463
  389MOL0    Cl52425  -2.366   3.935   3.623  0.5058 -0.1071 -0.0479
  389MOL0     C52426  -1.435   3.528   2.925  0.3323 -0.2045 -1.2139
  389MOL0     C52427  -1.307   3.537   2.865 -0.5236  0.1404  0.5320
  389MOL0     O52428  -1.088   3.404   2.717 -0.2482 -0.2750  0.3609
  389MOL0     C52429  -0.926   3.549   2.557  0.5633  1.0011  0.8059
  389MOL0     C52430  -0.831   3.597   2.474 -0.3777 -0.3153  0.1650
  389MOL0     N52431  -0.101   3.859   2.198 -0.1364  0.5347  0.5466
  389MOL0     N52432   0.009   3.833   2.270 -0.2107 -0.3010 -0.1843
  389MOL0     C52433   1.161   3.836   2.538 -0.1290  0.0965  0.2867
  389MOL0     C52434   1.287   3.810   2.581  0.8239  0.8933 -0.7210
  389MOL0     C52435   1.659   3.531   2.681  0.8113  0.5318 -0.6971
  389MOL0     C52436   1.721   3.479   2.802  0.0661  0.4950 -0.0881
  389MOL0     C52437   1.862   3.457   2.804 -0.3544  1.0290 -0.3544
  389MOL0     C52438   1.934   3.476   2.685 -0.1282  0.4749  0.3984
  389MOL0     O52439   2.066   3.463   2.662 -0.7973 -0.5487  0.1903
  389MOL0     C52440   2.148   3.431   2.781  0.7900  0.3858  0.2592
  389MOL0     C52441   2.297   3.426   2.752  0.2715 -0.7005 -0.3054
  389MOL0     C52442   2.350   3.552   2.677  0.5094 -0.4925  0.3045
  389MOL0     C52443   2.346   3.683   2.746 -0.3380 -1.4463 -0.9830
  389MOL0     C52444   2.415   3.780   2.658 -0.7331  0.2182  0.5361
  389MOL0     C52445   2.469   3.860   2.587  0.2747 -0.2787  0.7765
  389MOL0     C52446   1.863   3.510   2.567  0.3219  0.6644 -0.5824
  389MOL0     C52447   1.731   3.543   2.561  1.1103  0.2029 -0.5820
  389MOL0     H52448   1.266   3.478   2.571  2.7539 -0.2667 -1.6923
  389MOL0     H52449   1.062   3.539   2.458 -0.9414 -0.8475  4.2444
  389MOL0     H52450   0.898   3.930   2.558 -1.4066 -2.0432  0.7952
  389MOL0     H52451   0.938   3.972   2.391  2.4933  0.9000  1.7492
  389MOL0     H52452   0.696   3.986   2.450  2.0157  2.2739  0.8624
  389MOL0     H52453   0.730   3.869   2.314 -2.2925  1.1383  0.5898
  389MOL0     H52454   0.729   3.679   2.495  0.3676 -0.2718  5.0368
  389MOL0     H52455   0.654   3.796   2.598  1.7320  1.3730 -0.0736
  389MOL0     H52456   0.529   3.719   2.330 -0.8083 -0.2103  0.2779
  389MOL0     H52457   0.496   3.637   2.465  1.1881 -0.2873  0.0749
  389MOL0     H52458   0.438   3.869   2.589  0.6782 -1.6565  0.4799
  389MOL0     H52459   0.456   3.943   2.425  2.1429  0.3808  2.1182
  389MOL0     H52460   0.261   3.842   2.347  3.0257  0.5562 -0.6897
  389MOL0     H52461   0.272   3.707   2.460 -5.7679  0.3089  1.4460
  389MOL0     H52462   0.221   3.856   2.644  2.3521 -1.4270 -0.6491
  389MOL0     H52463   0.174   3.990   2.540 -0.8704  0.1148  1.3524
  389MOL0     H52464  -0.010   3.849   2.606 -0.0303  2.3380  0.8665
  389MOL0     H52465   0.052   3.707   2.526 -0.7297  0.6752  0.5396
  389MOL0     H52466  -0.188   3.966   2.495 -2.6101  2.4006 -2.0743
  389MOL0     H52467  -0.359   4.031   2.320 -2.5013 -1.1002  1.3958
  389MOL0     H52468  -0.337   3.981   2.149  0.2288 -2.5122 -0.3131
  389MOL0     H52469  -0.397   3.801   2.387 -0.2971 -0.5298  0.1459
  389MOL0     H52470  -0.387   3.740   2.216  1.5944 -0.3785  0.7662
  389MOL0     H52471  -0.580   3.863   2.145  0.4377 -2.3377 -0.8538
  389MOL0     H52472  -0.603   3.937   2.304  1.5379 -1.1307  1.8321
  389MOL0     H52473  -0.617   3.647   2.266  1.4095 -0.0697  0.5962
  389MOL0     H52474  -0.742   3.772   2.264 -0.5429  2.9561  3.3258
  389MOL0     H52475  -0.660   3.777   2.719 -2.0062  1.6436  1.2593
  389MOL0     H52476  -0.803   3.598   2.969 -3.0586  0.4561  0.1835
  389MOL0     H52477  -0.705   3.735   2.913  0.7641 -0.1895 -1.0134
  389MOL0     H52478  -0.878   3.753   2.942  1.2746  1.3935 -0.3950
  389MOL0     H52479  -1.112   3.479   3.130  0.1519  2.2811  0.0019
  389MOL0     H52480  -1.328   3.448   3.240 -1.4825  1.8191 -0.2630
  389MOL0     H52481  -1.617   3.342   3.240 -1.4620  0.3246 -0.1471
  389MOL0     H52482  -1.521   3.452   3.312 -0.5524 -1.8136  1.3738
  389MOL0     H52483  -1.745   3.614   3.269 -1.7152 -1.3602  0.4883
  389MOL0     H52484  -1.806   3.442   3.254 -1.3313 -0.4417  1.8044
  389MOL0     H52485  -1.643   3.497   3.498 -0.6644  2.2293  3.0345
  389MOL0     H52486  -1.804   3.426   3.473  0.1782 -0.2987 -0.0778
  389MOL0     H52487  -1.785   3.620   3.624 -1.1173 -1.8531 -0.2303
  389MOL0     H52488  -1.733   3.725   3.497 -0.9661 -0.1691 -2.3462
  389MOL0     H52489  -2.004   3.591   3.521 -0.5919  2.4947  4.2796
  389MOL0     H52490  -1.950   3.670   3.371 -0.9876  0.0529 -0.1922
  389MOL0     H52491  -1.955   3.804   3.638 -1.9480 -2.0697  0.5728
  389MOL0     H52492  -1.944   3.891   3.485 -0.4568  0.3899 -0.7928
  389MOL0     H52493  -2.194   3.732   3.537  2.5466 -1.7835  0.4603
  389MOL0     H52494  -2.152   3.859   3.420  0.6257 -1.0052 -0.5887
  389MOL0     H52495  -2.137   4.020   3.605 -1.4150 -0.1261 -1.3496
  389MOL0     H52496  -2.149   3.873   3.715 -1.1939  0.5396  0.3286
  389MOL0     H52497  -1.530   3.542   2.875 -1.1591 -2.1305  0.8990
  389MOL0     H52498  -1.292   3.553   2.759 -0.5083  2.9304  0.8622
  389MOL0     H52499  -1.006   3.490   2.514  2.6216 -3.1961  2.1570
  389MOL0     H52500  -0.831   3.575   2.367  1.4791  3.5940 -0.8395
  389MOL0     H52501   1.134   3.940   2.555 -0.9026  0.0261 -0.4259
  389MOL0     H52502   1.349   3.891   2.616 -0.4431  1.9860 -0.9305
  389MOL0     H52503   1.668   3.486   2.896  0.8828 -0.0088  0.4141
  389MOL0     H52504   1.907   3.429   2.898 -1.5403  0.2554 -0.0074
  389MOL0     H52505   2.125   3.501   2.862 -0.2357 -0.9561  1.1609
  389MOL0     H52506   2.115   3.331   2.809  1.4981 -0.1915 -0.8865
  389MOL0     H52507   2.310   3.336   2.692  0.0431 -0.8747 -0.0935
  389MOL0     H52508   2.350   3.412   2.846 -0.7874  0.0093  0.4146
  389MOL0     H52509   2.302   3.562   2.579  0.8403  1.1527  0.2931
  389MOL0     H52510   2.454   3.522   2.662  1.0269 -1.7762  5.0175
  389MOL0     H52511   2.388   3.695   2.846  0.4527 -0.5329 -1.4113
  389MOL0     H52512   2.243   3.721   2.746  0.0202 -0.4398 -1.9533
  389MOL0     H52513   2.524   3.930   2.528 -0.9053 -1.1209 -1.4732
  389MOL0     H52514   1.931   3.521   2.482 -0.1903  1.5921 -0.8889
  389MOL0     H52515   1.672   3.552   2.470  0.6153 -0.1341 -0.2992
  390MOL0     O52516   0.061   4.003   3.934 -0.1438 -0.0078  0.5036
  390MOL0     C52517   0.108   4.113   3.937  0.0617  0.4109  0.0663
  390MOL0     O52518   0.046   4.224   3.988 -0.1722  0.6559 -0.6234
  390MOL0     C52519  -0.083   4.229   4.032  0.8973 -0.5420 -0.0750
  390MOL0     C52520  -0.176   4.123   4.047  0.4496 -0.6073 -0.4859
  390MOL0     C52521  -0.303   4.142   4.107  0.5146  0.0075  1.0963
  390MOL0     C52522  -0.345   4.270   4.146  0.1286 -0.7621  0.5717
  390MOL0     O52523  -0.465   4.290   4.206 -0.3447 -0.0034 -0.7480
  390MOL0     C52524  -0.516   4.424   4.236 -1.2638  0.0836  0.1002
  390MOL0     C52525  -0.651   4.405   4.306  0.1620 -0.1155  0.1482
  390MOL0     C52526  -0.733   4.539   4.294 -0.8894 -0.6986  0.0248
  390MOL0     C52527  -0.678   4.638   4.400  0.8028  0.9030  0.2659
  390MOL0     C52528  -0.772   4.756   4.426  0.5727 -0.2460  0.0668
  390MOL0     C52529  -0.888   4.738   4.525  0.1779  0.0123 -0.5684
  390MOL0     C52530  -0.963   4.873   4.564  0.2046  0.6828 -0.1073
  390MOL0     C52531  -0.892   4.942   4.683 -0.0644 -1.0129 -0.5554
  390MOL0     N52532  -0.969   5.059   4.731 -0.3186  0.1482  0.6391
  390MOL0     C52533  -1.076   5.127   4.669 -0.4676  0.0223  0.4636
  390MOL0     C52534  -1.119   5.216   4.762  0.6190 -0.3393  0.0978
  390MOL0     C52535  -1.250   5.301   4.738 -0.4372 -0.0023 -0.0610
  390MOL0     C52536  -1.329   5.263   4.618  0.0818 -0.0151 -0.7549
  390MOL0     C52537  -1.469   5.319   4.613  0.5727  0.5907  0.0387
  390MOL0     C52538  -1.550   5.259   4.493  0.0769  0.1465 -0.2087
  390MOL0     O52539  -1.691   5.265   4.516 -0.2032 -0.2198 -0.4185
  390MOL0     C52540  -1.767   5.358   4.447  0.8613  0.0007 -0.5379
  390MOL0     C52541  -1.719   5.487   4.406  0.0479 -0.3021 -0.5176
  390MOL0     C52542  -1.806   5.578   4.337 -0.2181 -0.1787 -0.8662
  390MOL0     C52543  -1.758   5.711   4.303 -0.4677  0.0302 -0.0584
  390MOL0     C52544  -1.931   5.536   4.297  0.4633  0.0528  0.0011
  390MOL0     C52545  -2.034   5.617   4.232 -0.5172  0.0670 -0.3924
  390MOL0     O52546  -2.167   5.603   4.272  0.6236  0.0402 -0.8054
  390MOL0     C52547  -2.276   5.666   4.214 -0.5079  0.5650 -1.7699
  390MOL0     C52548  -2.361   5.730   4.302 -0.0970  0.2846  0.1550
  390MOL0     C52549  -2.467   5.807   4.253  1.3736  0.3263  0.6030
  390MOL0     C52550  -2.510   5.798   4.117  0.8497  0.5777 -1.0781
  390MOL0     O52551  -2.624   5.862   4.064 -0.0360 -0.8113  0.6639
  390MOL0     C52552  -2.723   5.922   4.153  0.3564 -0.3174  0.0173
  390MOL0     C52553  -2.865   5.950   4.083 -0.8163  0.9920 -0.1516
  390MOL0     C52554  -2.852   6.034   3.961 -0.4287  0.5244  0.1325
  390MOL0     C52555  -2.980   6.067   3.885 -0.1239  0.5688 -0.6802
  390MOL0     C52556  -2.965   6.158   3.767  0.8054  0.3407  0.6503
  390MOL0     C52557  -3.090   6.183   3.686  0.2794  0.4450  0.5019
  390MOL0     C52558  -3.192   6.069   3.682  0.2134 -0.0786  0.1387
  390MOL0     C52559  -3.289   6.081   3.564  0.2846  0.7083  0.5092
  390MOL0    Cl52560  -3.200   6.043   3.414  0.1795 -0.1520 -0.5477
  390MOL0     C52561  -2.433   5.718   4.029 -0.8017 -0.5353 -0.3402
  390MOL0     C52562  -2.318   5.654   4.079  0.0989  0.0195 -0.7914
  390MOL0     O52563  -1.994   5.687   4.146  0.1145 -0.3514  0.3781
  390MOL0     C52564  -1.974   5.406   4.337 -0.8772 -0.2975 -0.1671
  390MOL0     C52565  -1.889   5.322   4.411  0.2991  0.2112 -0.6330
  390MOL0     N52566  -1.030   5.211   4.869 -0.2197  0.1570  0.1227
  390MOL0     N52567  -0.941   5.114   4.848  0.3569 -0.0525  0.2476
  390MOL0     C52568  -0.256   4.375   4.131 -0.5600  0.6043 -0.5028
  390MOL0     C52569  -0.126   4.352   4.084  0.5422 -0.3969 -0.0977
  390MOL0     C52570   0.252   4.134   3.899  0.0019  0.3473 -0.0629
  390MOL0     C52571   0.325   4.247   3.932 -0.8306  0.1095 -0.0219
  390MOL0     C52572   0.465   4.260   3.915 -0.4151  1.1141  0.4906
  390MOL0     C52573   0.538   4.155   3.859 -1.2467 -0.0219  0.8645
  390MOL0     O52574   0.676   4.153   3.833  0.1365 -0.4423  0.3683
  390MOL0     C52575   0.743   4.276   3.851  0.3032 -0.5325  0.2610
  390MOL0     C52576   0.895   4.253   3.836 -1.1662  0.5180  0.0892
  390MOL0     C52577   0.940   4.271   3.686 -0.5128 -0.5238  0.9146
  390MOL0     C52578   1.049   4.160   3.648 -0.3824 -0.3899  1.0621
  390MOL0     C52579   1.118   4.188   3.518  0.0042  0.3060 -0.6429
  390MOL0     C52580   1.150   4.224   3.407  0.6009 -0.0254  0.1963
  390MOL0     C52581   0.468   4.041   3.818  0.1346 -0.4196  0.7548
  390MOL0     C52582   0.325   4.033   3.842 -0.2855  0.7625 -0.0697
  390MOL0     H52583  -0.145   4.023   4.019  0.3770 -0.7995  0.0958
  390MOL0     H52584  -0.377   4.064   4.115  2.0580 -1.8388 -1.2042
  390MOL0     H52585  -0.449   4.475   4.306  0.3998 -1.0486 -0.5961
  390MOL0     H52586  -0.513   4.476   4.140 -2.5603  0.5740  0.3054
  390MOL0     H52587  -0.705   4.336   4.240  0.4833  0.6769 -0.9548
  390MOL0     H52588  -0.624   4.372   4.407 -2.3628 -0.5160  0.7529
  390MOL0     H52589  -0.728   4.577   4.192 -1.1486 -1.5529 -0.3203
  390MOL0     H52590  -0.836   4.519   4.323 -0.7517  0.8134  1.6719
  390MOL0     H52591  -0.647   4.590   4.493 -1.8656 -3.0088 -0.6155
  390MOL0     H52592  -0.587   4.674   4.352  0.1315  0.2014 -1.6321
  390MOL0     H52593  -0.716   4.837   4.473  0.8755 -0.4974  0.1447
  390MOL0     H52594  -0.814   4.792   4.332  0.7885  1.0365  0.4435
  390MOL0     H52595  -0.962   4.666   4.488 -1.8367  0.4779  2.2674
  390MOL0     H52596  -0.858   4.697   4.621 -2.4458 -1.1619 -0.1498
  390MOL0     H52597  -0.969   4.932   4.472 -0.4264  0.6044 -0.1238
  390MOL0     H52598  -1.062   4.837   4.593  0.6895  1.1575  2.3839
  390MOL0     H52599  -0.804   4.982   4.633 -0.1645 -2.0629 -1.6286
  390MOL0     H52600  -0.879   4.867   4.762 -1.7356  1.2793  2.0692
  390MOL0     H52601  -1.117   5.109   4.569  2.3406 -4.5220 -0.1471
  390MOL0     H52602  -1.318   5.300   4.824 -1.4643  1.2715 -0.8181
  390MOL0     H52603  -1.207   5.401   4.735 -1.7385  0.5562 -0.6639
  390MOL0     H52604  -1.335   5.155   4.632  0.6556  0.2002  1.5642
  390MOL0     H52605  -1.294   5.297   4.520 -3.0191 -1.0527 -2.3409
  390MOL0     H52606  -1.457   5.427   4.605 -0.9655  0.9677  1.9087
  390MOL0     H52607  -1.522   5.305   4.708 -0.2684 -0.6548 -0.5998
  390MOL0     H52608  -1.513   5.156   4.482  0.6422  0.1807  1.1741
  390MOL0     H52609  -1.520   5.300   4.396  0.1559 -1.7685 -1.0425
  390MOL0     H52610  -1.617   5.507   4.438 -0.7548 -0.2656  2.2514
  390MOL0     H52611  -1.656   5.726   4.340 -1.0564 -1.4389  2.3289
  390MOL0     H52612  -1.747   5.738   4.197 -0.9610  1.3482  0.2076
  390MOL0     H52613  -1.825   5.783   4.350 -1.6875  0.5518 -2.4111
  390MOL0     H52614  -2.336   5.740   4.407  0.2363  0.1402  0.0923
  390MOL0     H52615  -2.519   5.878   4.316  0.5673  1.1516 -0.9141
  390MOL0     H52616  -2.732   5.863   4.244 -0.3320  0.6493  0.5995
  390MOL0     H52617  -2.684   6.018   4.187 -0.1321 -0.0588 -0.1506
  390MOL0     H52618  -2.900   5.850   4.056 -0.7220  0.0242  2.8960
  390MOL0     H52619  -2.928   5.996   4.159  1.2623  3.4199  0.2078
  390MOL0     H52620  -2.777   5.989   3.895 -0.1934 -0.9718  1.3686
  390MOL0     H52621  -2.814   6.132   3.991 -2.3853  2.3714 -2.8873
  390MOL0     H52622  -3.019   5.968   3.857  3.8352 -1.3286 -0.1275
  390MOL0     H52623  -3.056   6.111   3.951  1.3062  0.3005  1.2373
  390MOL0     H52624  -2.886   6.118   3.703 -0.2362 -0.9611  0.1287
  390MOL0     H52625  -2.943   6.257   3.807 -0.9165  1.5712 -1.2253
  390MOL0     H52626  -3.137   6.277   3.717  1.5457  1.3435 -0.2273
  390MOL0     H52627  -3.055   6.208   3.586  0.7767  3.2787  1.2983
  390MOL0     H52628  -3.235   6.060   3.783 -2.7645 -1.6299 -1.1337
  390MOL0     H52629  -3.131   5.982   3.656  0.0210  0.0461 -0.7454
  390MOL0     H52630  -3.345   6.175   3.554 -1.6848 -0.3859  0.7972
  390MOL0     H52631  -3.367   6.007   3.582 -0.0435  1.5740  2.9282
  390MOL0     H52632  -2.474   5.702   3.930  0.6290 -0.3878 -0.9823
  390MOL0     H52633  -2.263   5.583   4.018  1.9665  0.9522 -0.2551
  390MOL0     H52634  -2.067   5.371   4.294 -1.1922  1.7506 -1.2669
  390MOL0     H52635  -1.932   5.225   4.434  1.4561 -0.3842 -0.9122
  390MOL0     H52636  -0.289   4.469   4.173 -1.0560 -0.1051  0.7600
  390MOL0     H52637  -0.062   4.439   4.093  0.1390 -0.3157  4.3902
  390MOL0     H52638   0.277   4.329   3.985 -1.0783 -0.6881  1.0145
  390MOL0     H52639   0.506   4.361   3.918 -1.8777  1.7545 -0.1497
  390MOL0     H52640   0.702   4.352   3.784  1.1847 -0.5797 -0.3524
  390MOL0     H52641   0.744   4.313   3.954  0.4117 -0.1682  0.1318
  390MOL0     H52642   0.922   4.149   3.860  0.3119  1.3332  2.3093
  390MOL0     H52643   0.951   4.322   3.899  2.6215 -1.3008 -0.9677
  390MOL0     H52644   0.989   4.367   3.667  0.2611 -1.3728 -1.8704
  390MOL0     H52645   0.863   4.266   3.609 -1.6826  1.0488  1.9394
  390MOL0     H52646   0.989   4.069   3.637  0.3367 -0.9820  1.9848
  390MOL0     H52647   1.112   4.157   3.737 -1.2974  0.0883  1.7413
  390MOL0     H52648   1.174   4.248   3.305 -1.9795  0.7114 -0.3175
  390MOL0     H52649   0.524   3.959   3.775  0.5899  0.3473 -0.1575
  390MOL0     H52650   0.277   3.940   3.815 -2.6631  0.8401  3.3493
  391MOL0     O52651  10.960   9.380   2.279 -0.3071 -0.2565  0.0442
  391MOL0     C52652  10.969   9.291   2.361 -0.1801  0.3612 -0.4416
  391MOL0     O52653  10.860   9.222   2.418 -0.0754  0.7997 -0.0620
  391MOL0     C52654  10.740   9.277   2.381  0.2001 -0.5966 -1.5765
  391MOL0     C52655  10.677   9.256   2.252  0.3619 -0.0048 -0.3069
  391MOL0     C52656  10.551   9.313   2.224 -0.1605 -0.0884 -0.1535
  391MOL0     C52657  10.489   9.391   2.320  0.3251  0.0390 -0.4618
  391MOL0     O52658  10.360   9.436   2.302  0.1082 -0.5712 -0.2682
  391MOL0     C52659  10.321   9.480   2.173 -0.4535 -0.5128  0.7912
  391MOL0     C52660  10.226   9.379   2.106 -0.1515 -0.8699  0.0309
  391MOL0     C52661  10.136   9.442   1.996 -0.5789 -0.6478  0.0212
  391MOL0     C52662  10.040   9.342   1.924 -0.5146  0.2714 -0.0335
  391MOL0     C52663   9.998   9.395   1.788  0.3366  0.3093 -0.0760
  391MOL0     C52664   9.912   9.287   1.716  0.6608 -0.6434  0.4306
  391MOL0     C52665   9.838   9.355   1.599  0.0424 -0.6474 -0.7394
  391MOL0     C52666   9.932   9.365   1.478 -1.0802  0.6564 -0.1694
  391MOL0     N52667   9.875   9.425   1.363 -0.1924  0.5137  0.5321
  391MOL0     C52668   9.942   9.449   1.247 -1.0637  0.3109  1.0600
  391MOL0     C52669   9.863   9.522   1.167  0.4341  0.1322  0.3465
  391MOL0     C52670   9.882   9.549   1.023 -0.3251 -0.6739 -0.2534
  391MOL0     C52671   9.949   9.686   0.998 -0.4785 -0.6234 -0.3472
  391MOL0     C52672   9.848   9.801   1.003  0.6197 -0.1654 -1.2439
  391MOL0     C52673   9.822   9.861   0.867 -0.2870  0.7411  0.4416
  391MOL0     O52674   9.735   9.976   0.882  0.1511 -0.0443 -1.3627
  391MOL0     C52675   9.603   9.970   0.923 -0.3068  0.1058  1.4164
  391MOL0     C52676   9.535   9.851   0.936 -0.3584 -0.3934  0.5232
  391MOL0     C52677   9.402   9.841   0.986  0.1323 -0.2016 -0.0650
  391MOL0     C52678   9.336   9.704   0.994  1.3248  0.7604  0.1752
  391MOL0     C52679   9.339   9.958   1.029  0.0981  0.6601  0.2568
  391MOL0     C52680   9.199   9.954   1.083 -0.1139  0.3657 -1.0048
  391MOL0     O52681   9.134  10.076   1.080  0.1028 -0.2556 -1.3223
  391MOL0     C52682   9.023  10.094   1.160  0.0599  0.3584 -0.0655
  391MOL0     C52683   9.018  10.188   1.264 -0.7160  0.3228  0.1164
  391MOL0     C52684   8.890  10.213   1.334  0.0867 -0.7112 -0.4715
  391MOL0     C52685   8.773  10.147   1.299  0.0838  0.2927 -0.4736
  391MOL0     O52686   8.656  10.178   1.370 -0.6447  0.4338  0.1723
  391MOL0     C52687   8.530  10.128   1.333  0.0145  0.3619 -1.0108
  391MOL0     C52688   8.425  10.223   1.407  0.1066 -0.3629  0.2277
  391MOL0     C52689   8.282  10.167   1.367  0.0081  1.1220 -0.9503
  391MOL0     C52690   8.166  10.250   1.426 -0.0073  0.0404  0.5520
  391MOL0     C52691   8.033  10.196   1.366  0.1735  0.4679 -0.2210
  391MOL0     C52692   7.985  10.063   1.421 -0.1931 -0.4155 -0.6177
  391MOL0     C52693   7.871   9.999   1.341 -0.5600 -1.1756  0.0029
  391MOL0     C52694   7.849   9.863   1.395  1.1993 -0.6213 -0.4622
  391MOL0    Cl52695   7.721   9.889   1.522  0.1813 -0.2123  0.4359
  391MOL0     C52696   8.779  10.056   1.195 -0.6194 -0.8700 -0.0734
  391MOL0     C52697   8.902  10.031   1.124 -0.1319 -0.1586 -0.3317
  391MOL0     O52698   9.147   9.847   1.129  0.0485  0.4863  0.1143
  391MOL0     C52699   9.404  10.073   0.999  0.9237  0.0117  0.2680
  391MOL0     C52700   9.535  10.085   0.950  0.1202  0.1081  0.0046
  391MOL0     N52701   9.749   9.556   1.246 -0.6352  0.0946  0.2410
  391MOL0     N52702   9.753   9.488   1.353 -0.6032 -0.7958  0.1947
  391MOL0     C52703  10.545   9.415   2.448  0.0613  0.5763  1.0632
  391MOL0     C52704  10.670   9.356   2.480  0.0907 -0.7541  0.5277
  391MOL0     C52705  11.110   9.260   2.410  0.6001  1.1105 -0.1789
  391MOL0     C52706  11.217   9.328   2.369  0.0408  0.3375  0.5796
  391MOL0     C52707  11.348   9.304   2.412  0.3100  0.5469 -0.2171
  391MOL0     C52708  11.373   9.206   2.505  0.3098  0.1673 -0.0159
  391MOL0     O52709  11.508   9.189   2.549  0.2388  0.7146  0.0179
  391MOL0     C52710  11.543   9.069   2.622 -0.4785 -0.6138 -0.5119
  391MOL0     C52711  11.552   8.937   2.542  0.0232  1.0376 -0.3665
  391MOL0     C52712  11.556   8.820   2.630 -0.1645 -0.1169  0.1966
  391MOL0     C52713  11.554   8.685   2.550  0.4023 -0.5752 -0.8678
  391MOL0     C52714  11.676   8.671   2.470 -0.3426 -0.3856  0.1287
  391MOL0     C52715  11.778   8.656   2.405  0.1243  0.1852 -0.3067
  391MOL0     C52716  11.257   9.139   2.554 -0.5512  1.0319 -0.3203
  391MOL0     C52717  11.135   9.166   2.509  0.0082 -0.2870  0.7030
  391MOL0     H52718  10.723   9.202   2.171 -1.4605 -0.6699 -0.9500
  391MOL0     H52719  10.515   9.276   2.128 -0.7807 -2.1071  0.8120
  391MOL0     H52720  10.274   9.574   2.201 -0.0809  0.0447 -0.3735
  391MOL0     H52721  10.406   9.493   2.105 -0.2910 -0.5073  0.9939
  391MOL0     H52722  10.288   9.307   2.053  1.1836 -0.2254  0.6902
  391MOL0     H52723  10.161   9.330   2.179 -1.9628  1.2204 -0.0426
  391MOL0     H52724  10.082   9.528   2.036 -0.0119  1.3639 -3.1831
  391MOL0     H52725  10.200   9.483   1.917  2.1059 -2.5482  1.0282
  391MOL0     H52726  10.096   9.248   1.922 -0.9591  0.0112 -0.7411
  391MOL0     H52727   9.948   9.333   1.983 -0.2835  0.1841  0.3193
  391MOL0     H52728   9.942   9.487   1.809 -1.6865 -0.9235  0.1705
  391MOL0     H52729  10.086   9.417   1.727  0.1336 -1.3111 -1.0101
  391MOL0     H52730   9.980   9.206   1.687  1.6326  0.1327  0.5039
  391MOL0     H52731   9.835   9.242   1.780  0.5854 -0.1091  0.7168
  391MOL0     H52732   9.754   9.287   1.577 -1.9605  1.7123 -0.8128
  391MOL0     H52733   9.800   9.455   1.619  0.3720 -0.7624  0.5001
  391MOL0     H52734   9.965   9.268   1.440 -1.6868  0.8582 -1.2453
  391MOL0     H52735  10.020   9.425   1.505  0.3791 -1.6601  0.5011
  391MOL0     H52736  10.039   9.423   1.205 -0.7331 -0.1117  2.0727
  391MOL0     H52737   9.944   9.467   0.985  0.7944 -0.6994  1.4598
  391MOL0     H52738   9.784   9.540   0.975 -1.6303  0.8999  1.9164
  391MOL0     H52739  10.010   9.687   0.907  0.6368 -0.7463  0.3826
  391MOL0     H52740  10.023   9.707   1.075 -1.5553 -0.4745  0.6829
  391MOL0     H52741   9.890   9.883   1.063 -0.0225 -1.2055  0.7286
  391MOL0     H52742   9.757   9.760   1.048  0.5196 -1.7582 -2.7974
  391MOL0     H52743   9.773   9.789   0.801  2.1391 -1.2839  0.7129
  391MOL0     H52744   9.909   9.900   0.814 -2.0856  3.4166 -0.7897
  391MOL0     H52745   9.576   9.766   0.883 -1.7377  0.8945 -2.9122
  391MOL0     H52746   9.376   9.611   0.953  1.5365  1.2583 -0.7735
  391MOL0     H52747   9.315   9.682   1.099 -0.8420 -0.2440 -0.3875
  391MOL0     H52748   9.237   9.713   0.948  0.4361 -4.1858  0.4873
  391MOL0     H52749   9.113  10.233   1.292 -1.3496  0.8953  1.4544
  391MOL0     H52750   8.888  10.276   1.422 -2.3535 -0.8265 -0.3831
  391MOL0     H52751   8.511  10.137   1.225  0.8956  1.2530 -1.1148
  391MOL0     H52752   8.511  10.028   1.374  1.7448  0.6032  0.5381
  391MOL0     H52753   8.446  10.208   1.513  3.6682 -2.0858 -0.5578
  391MOL0     H52754   8.434  10.330   1.385  1.2509 -0.8007 -1.6236
  391MOL0     H52755   8.271  10.061   1.391 -1.3608  1.5650  0.5171
  391MOL0     H52756   8.286  10.183   1.259  1.1908  2.4449 -0.7561
  391MOL0     H52757   8.168  10.240   1.535  2.7607  0.7304  0.6561
  391MOL0     H52758   8.176  10.356   1.400  0.8053  0.0912  1.0123
  391MOL0     H52759   8.048  10.184   1.258 -4.0822  0.9708 -1.0288
  391MOL0     H52760   7.951  10.267   1.376  0.3712  0.5088  1.2264
  391MOL0     H52761   8.073   9.999   1.436  1.9029  2.9132  3.3156
  391MOL0     H52762   7.940  10.096   1.514  0.1927 -3.1115  0.6208
  391MOL0     H52763   7.909   9.981   1.240 -2.1421  1.1700 -1.0776
  391MOL0     H52764   7.788  10.067   1.323 -0.7410 -1.7630 -1.5633
  391MOL0     H52765   7.935   9.818   1.446 -0.6924 -2.6733  1.0802
  391MOL0     H52766   7.823   9.788   1.320  1.2471 -2.2043  1.0619
  391MOL0     H52767   8.698   9.993   1.158  0.4644 -2.3809  0.0511
  391MOL0     H52768   8.908   9.953   1.049  1.3171  1.8569 -2.5002
  391MOL0     H52769   9.354  10.164   1.029 -0.7778 -1.1388  1.1007
  391MOL0     H52770   9.579  10.184   0.944  1.8279 -0.4251  2.2057
  391MOL0     H52771  10.494   9.475   2.523 -1.3761 -0.2989  0.8387
  391MOL0     H52772  10.716   9.368   2.578 -4.1189 -1.8778  2.8894
  391MOL0     H52773  11.223   9.403   2.291 -1.1506 -0.6464 -0.4874
  391MOL0     H52774  11.434   9.361   2.379  1.3825 -0.0720  1.3835
  391MOL0     H52775  11.645   9.084   2.659 -0.9066  0.8638  0.1513
  391MOL0     H52776  11.473   9.059   2.705 -1.0089  1.4837 -0.6375
  391MOL0     H52777  11.628   8.933   2.463 -1.0157  1.8754 -1.4422
  391MOL0     H52778  11.455   8.933   2.492 -0.6729 -0.2515  1.0292
  391MOL0     H52779  11.465   8.819   2.690 -0.3291  1.5072  0.0237
  391MOL0     H52780  11.645   8.812   2.693  0.1538 -5.9906 -0.4569
  391MOL0     H52781  11.466   8.684   2.484 -0.5470 -1.8181  0.3501
  391MOL0     H52782  11.545   8.601   2.619 -3.2595  0.3643  0.0132
  391MOL0     H52783  11.864   8.644   2.342  0.7997  3.6488 -0.2684
  391MOL0     H52784  11.264   9.058   2.626 -3.4390  0.4193 -0.6115
  391MOL0     H52785  11.047   9.113   2.545 -1.0612  0.3088 -0.9306
  392MOL0     O52786   6.884   7.505   0.273  0.5737 -0.2264  0.4799
  392MOL0     C52787   6.870   7.383   0.300 -0.2098  0.2250 -0.2335
  392MOL0     O52788   6.746   7.321   0.306  0.4611 -0.0996  0.1572
  392MOL0     C52789   6.644   7.385   0.239  0.6470  0.1152  1.2399
  392MOL0     C52790   6.654   7.406   0.103 -0.3190  0.1589  0.1739
  392MOL0     C52791   6.534   7.452   0.029 -0.6123  0.2916 -0.3080
  392MOL0     C52792   6.409   7.463   0.094 -0.0765  0.4354  0.2801
  392MOL0     O52793   6.295   7.498   0.034  0.0411 -0.4275 -0.2065
  392MOL0     C52794   6.257   7.442  -0.096  0.6101 -0.8114  0.1903
  392MOL0     C52795   6.126   7.486  -0.148  0.0336 -0.2988 -0.1016
  392MOL0     C52796   6.005   7.451  -0.068 -0.2264 -0.4857 -0.2285
  392MOL0     C52797   5.884   7.540  -0.101 -0.2188  0.1028  0.1646
  392MOL0     C52798   5.746   7.463  -0.102  0.1144  0.1282 -0.6229
  392MOL0     C52799   5.636   7.543  -0.165 -0.3323  0.3716  0.0088
  392MOL0     C52800   5.516   7.457  -0.144 -0.5880 -0.0442  0.0115
  392MOL0     C52801   5.391   7.510  -0.210  0.1800  0.5350  0.6704
  392MOL0     N52802   5.265   7.438  -0.181 -0.1944 -0.6656  0.5828
  392MOL0     C52803   5.217   7.426  -0.049 -0.1683 -0.4347  0.3009
  392MOL0     C52804   5.127   7.321  -0.045 -0.0130 -0.6138 -0.4541
  392MOL0     C52805   5.044   7.269   0.072 -0.0607 -0.3705  0.0852
  392MOL0     C52806   5.104   7.122   0.092 -0.1071 -0.1577  0.1999
  392MOL0     C52807   5.060   7.052   0.228  0.1044  0.5873  0.3693
  392MOL0     C52808   5.179   6.965   0.284 -0.0218 -0.3306  0.4519
  392MOL0     O52809   5.222   6.884   0.169  0.3131  0.2513 -0.9948
  392MOL0     C52810   5.353   6.849   0.181  0.8284 -0.0558  0.0187
  392MOL0     C52811   5.400   6.784   0.068 -0.8120 -0.1297 -1.1979
  392MOL0     C52812   5.532   6.751   0.052  0.4023  0.5042  0.1746
  392MOL0     C52813   5.571   6.680  -0.085  0.2617 -0.3260 -0.5198
  392MOL0     C52814   5.625   6.777   0.157  0.5314 -0.1491  0.0135
  392MOL0     C52815   5.761   6.726   0.162 -0.3992  0.4873  0.5701
  392MOL0     O52816   5.812   6.675   0.051  0.1922  0.6051 -0.2661
  392MOL0     C52817   5.933   6.618   0.023  0.3522  0.1148 -0.5871
  392MOL0     C52818   6.045   6.633   0.104  0.3178  0.6924  0.2951
  392MOL0     C52819   6.165   6.577   0.061  0.5765  0.2356  0.3727
  392MOL0     C52820   6.176   6.498  -0.056  0.5988  0.1028 -0.5476
  392MOL0     O52821   6.302   6.439  -0.079 -0.2979 -0.2119  0.2920
  392MOL0     C52822   6.328   6.383  -0.206 -0.0185  0.0500  0.2849
  392MOL0     C52823   6.476   6.339  -0.196 -0.3249 -0.2536 -0.1668
  392MOL0     C52824   6.520   6.288  -0.332  0.2624  0.7319  0.2232
  392MOL0     C52825   6.632   6.184  -0.316 -0.8923  0.2928  0.0288
  392MOL0     C52826   6.770   6.249  -0.338  0.7301 -0.2566  0.1245
  392MOL0     C52827   6.879   6.139  -0.346  0.1295 -0.2494 -0.4372
  392MOL0     C52828   7.019   6.203  -0.365 -0.6054  0.1281 -0.0777
  392MOL0     C52829   7.065   6.251  -0.220  0.4268 -0.5566 -0.0992
  392MOL0    Cl52830   7.222   6.337  -0.241 -0.0671  0.1423 -0.4707
  392MOL0     C52831   6.062   6.489  -0.131 -0.2021  0.6276  0.8034
  392MOL0     C52832   5.944   6.535  -0.087 -0.0206 -0.7999 -0.2312
  392MOL0     O52833   5.810   6.719   0.272 -0.1927  0.1832 -0.5173
  392MOL0     C52834   5.574   6.854   0.265 -0.8811  0.2179  0.4683
  392MOL0     C52835   5.443   6.888   0.286  0.5926 -0.1173  0.2498
  392MOL0     N52836   5.122   7.265  -0.174 -0.0249 -0.5994  0.4636
  392MOL0     N52837   5.199   7.344  -0.252  0.7442  0.0538  0.9277
  392MOL0     C52838   6.410   7.442   0.234  0.2438 -0.2735 -0.0559
  392MOL0     C52839   6.527   7.413   0.305 -0.6644  0.2399 -0.0629
  392MOL0     C52840   6.986   7.308   0.339 -0.1383 -0.2978  0.3696
  392MOL0     C52841   6.976   7.165   0.355 -0.5292  0.2661 -0.8737
  392MOL0     C52842   7.077   7.087   0.396 -0.2370  0.2476  0.5957
  392MOL0     C52843   7.199   7.145   0.408 -0.0143  0.4626 -0.4417
  392MOL0     O52844   7.312   7.074   0.439 -0.4480  0.9300 -0.6706
  392MOL0     C52845   7.309   6.967   0.530  0.2686 -0.3923 -0.1007
  392MOL0     C52846   7.443   6.964   0.609  0.5226 -0.2300 -0.2517
  392MOL0     C52847   7.566   7.006   0.529 -0.3698  0.6265  0.8167
  392MOL0     C52848   7.599   7.155   0.529  0.2251 -0.1789  0.5081
  392MOL0     C52849   7.661   7.202   0.649  0.0759  0.8522 -0.2918
  392MOL0     C52850   7.701   7.227   0.759 -0.6573 -0.5134 -0.5684
  392MOL0     C52851   7.220   7.285   0.384  0.0601 -0.1491  0.2226
  392MOL0     C52852   7.109   7.366   0.356 -0.2309  0.0562 -0.6342
  392MOL0     H52853   6.751   7.389   0.057  0.3041  2.2031  0.6330
  392MOL0     H52854   6.545   7.482  -0.075 -0.6388  0.5151 -0.2446
  392MOL0     H52855   6.325   7.473  -0.176 -1.9833  2.7659 -0.8757
  392MOL0     H52856   6.254   7.333  -0.090  2.5734 -0.8461  1.5626
  392MOL0     H52857   6.139   7.592  -0.175 -0.2164 -0.0281  0.8117
  392MOL0     H52858   6.117   7.434  -0.244  1.8366 -0.6058 -0.1381
  392MOL0     H52859   5.987   7.345  -0.087  0.2231 -0.4821 -0.7171
  392MOL0     H52860   6.024   7.482   0.035  1.5836  2.0424 -1.2192
  392MOL0     H52861   5.885   7.626  -0.033  1.8817  1.4864 -1.4981
  392MOL0     H52862   5.894   7.593  -0.196 -2.7754 -1.6171 -1.1885
  392MOL0     H52863   5.763   7.363  -0.143  1.6559 -0.2535  0.8265
  392MOL0     H52864   5.723   7.440   0.003  1.8869 -0.4760 -0.3287
  392MOL0     H52865   5.635   7.648  -0.133  1.6659  1.0119 -1.7929
  392MOL0     H52866   5.658   7.551  -0.272 -0.2074  1.3599  0.1049
  392MOL0     H52867   5.536   7.359  -0.188 -1.1495  0.3383 -1.1150
  392MOL0     H52868   5.495   7.446  -0.037 -2.9928 -1.1359 -0.4975
  392MOL0     H52869   5.408   7.503  -0.318 -2.0029  4.3122 -0.0813
  392MOL0     H52870   5.387   7.618  -0.196 -0.1524  0.6468 -0.2290
  392MOL0     H52871   5.251   7.493   0.029 -1.8303 -0.9713  1.5450
  392MOL0     H52872   5.090   7.320   0.157  0.4657  1.2307 -1.1165
  392MOL0     H52873   4.937   7.284   0.058  0.3897  2.7790 -0.7479
  392MOL0     H52874   5.213   7.126   0.082 -0.0543 -1.6479 -0.0303
  392MOL0     H52875   5.063   7.058   0.013 -1.4825 -0.7344  1.3394
  392MOL0     H52876   4.971   6.990   0.208  0.4484 -0.0238  0.7100
  392MOL0     H52877   5.036   7.124   0.306  2.2066  2.6297 -0.7765
  392MOL0     H52878   5.153   6.903   0.370  0.5221 -0.1366  0.7638
  392MOL0     H52879   5.250   7.041   0.319 -0.1729 -0.3631  0.8371
  392MOL0     H52880   5.332   6.758  -0.012  0.6620  0.4781 -2.7207
  392MOL0     H52881   5.479   6.673  -0.144 -0.3287 -2.3137  0.5497
  392MOL0     H52882   5.650   6.738  -0.135  1.0984 -0.9633  0.0418
  392MOL0     H52883   5.611   6.578  -0.084 -1.7255 -1.1258  0.4243
  392MOL0     H52884   6.042   6.703   0.188  0.5103  0.7899  0.2213
  392MOL0     H52885   6.261   6.600   0.107  0.8855  0.2029 -0.2355
  392MOL0     H52886   6.270   6.299  -0.245  1.1094  0.2705 -2.0778
  392MOL0     H52887   6.328   6.462  -0.282  0.0170  0.3186  0.5637
  392MOL0     H52888   6.539   6.425  -0.173 -0.2277 -0.9152  2.2954
  392MOL0     H52889   6.485   6.267  -0.115  0.4155 -0.7558 -0.6798
  392MOL0     H52890   6.553   6.367  -0.400  1.3782 -1.4914 -1.9648
  392MOL0     H52891   6.445   6.230  -0.386  0.0264  0.3506  0.9431
  392MOL0     H52892   6.632   6.135  -0.219 -0.9672  0.6343  0.2001
  392MOL0     H52893   6.612   6.105  -0.389 -0.8281  1.9417 -1.8747
  392MOL0     H52894   6.793   6.327  -0.264  0.2967 -0.7286  0.7723
  392MOL0     H52895   6.761   6.293  -0.438 -1.9520  2.0481  1.2465
  392MOL0     H52896   6.869   6.073  -0.260  1.3005  0.3810  0.2089
  392MOL0     H52897   6.854   6.083  -0.437 -0.3972 -3.3257  1.4640
  392MOL0     H52898   7.013   6.279  -0.444  1.5097  1.1500  0.6733
  392MOL0     H52899   7.091   6.129  -0.400 -1.7579  0.6160 -3.9256
  392MOL0     H52900   7.088   6.161  -0.162 -0.0390 -0.7551 -0.2149
  392MOL0     H52901   6.997   6.324  -0.174  1.1950  1.4827 -2.0175
  392MOL0     H52902   6.062   6.451  -0.232 -0.4255  1.6855  0.3930
  392MOL0     H52903   5.855   6.521  -0.147 -1.5239 -1.2903  1.9727
  392MOL0     H52904   5.645   6.865   0.346 -1.3421 -1.6209  1.1819
  392MOL0     H52905   5.413   6.959   0.362  0.1683 -0.0283  0.0012
  392MOL0     H52906   6.317   7.433   0.288  0.4635  3.2386  1.1631
  392MOL0     H52907   6.528   7.391   0.411  1.6934 -0.9435 -0.2627
  392MOL0     H52908   6.882   7.111   0.349  0.7741 -2.6368  1.6478
  392MOL0     H52909   7.071   6.980   0.413  1.9917 -0.2340 -1.1196
  392MOL0     H52910   7.222   6.971   0.596 -0.7080 -0.1216 -1.3661
  392MOL0     H52911   7.291   6.883   0.462  2.5252 -0.0998 -1.1473
  392MOL0     H52912   7.460   6.868   0.658 -0.7193 -0.6214 -0.5672
  392MOL0     H52913   7.438   7.040   0.687  0.6280  0.3327 -0.7768
  392MOL0     H52914   7.555   6.971   0.427  1.2607  3.1099 -0.3295
  392MOL0     H52915   7.646   6.954   0.583 -1.9137 -1.8035  0.8799
  392MOL0     H52916   7.511   7.214   0.501 -0.0365 -0.8043  0.0055
  392MOL0     H52917   7.673   7.174   0.451  0.3788 -1.6182  0.2808
  392MOL0     H52918   7.715   7.255   0.861 -1.8601 -2.9488  0.3712
  392MOL0     H52919   7.325   7.312   0.380  0.1108  0.1847  2.5386
  392MOL0     H52920   7.113   7.473   0.338  0.0926  0.1183 -0.2119
  393MOL0     O52921   8.356  10.766   0.982 -1.0555 -0.5076  0.0204
  393MOL0     C52922   8.285  10.841   1.040  0.2863 -0.2784  0.1496
  393MOL0     O52923   8.297  10.888   1.162 -0.2760  0.7991 -0.0623
  393MOL0     C52924   8.420  10.881   1.233  0.0108 -0.1960  0.4591
  393MOL0     C52925   8.408  10.900   1.369 -0.1903 -0.6517  0.1109
  393MOL0     C52926   8.520  10.890   1.444 -0.1008  0.5651 -0.4491
  393MOL0     C52927   8.643  10.870   1.381 -0.1617 -0.4063 -0.3479
  393MOL0     O52928   8.757  10.854   1.463  0.9092 -0.4341  0.2053
  393MOL0     C52929   8.779  10.723   1.521 -0.0233  0.3415 -0.7757
  393MOL0     C52930   8.903  10.663   1.457 -1.1744  0.7557  0.6015
  393MOL0     C52931   9.035  10.727   1.507  0.0317 -0.0333  0.1051
  393MOL0     C52932   9.072  10.659   1.642 -0.4718  0.0579 -0.5188
  393MOL0     C52933   9.204  10.725   1.693 -0.6367  0.2708 -0.0912
  393MOL0     C52934   9.248  10.659   1.817 -0.3291 -0.2077 -0.2001
  393MOL0     C52935   9.335  10.750   1.900  0.7472  0.5807  0.4111
  393MOL0     C52936   9.259  10.867   1.970  0.7691  0.8372  0.5125
  393MOL0     N52937   9.147  10.814   2.053  0.0913 -0.5871  0.0008
  393MOL0     C52938   9.028  10.876   2.062 -0.5822  0.0032 -0.1143
  393MOL0     C52939   8.960  10.795   2.142 -0.0539 -0.0859 -0.5503
  393MOL0     C52940   8.821  10.824   2.192  0.5940  0.4141 -0.0190
  393MOL0     C52941   8.708  10.775   2.101 -0.9760 -0.7630 -0.0200
  393MOL0     C52942   8.572  10.772   2.170  1.0237  0.3532  0.1481
  393MOL0     C52943   8.527  10.895   2.253 -0.3955 -0.7188  0.1895
  393MOL0     O52944   8.390  10.872   2.271  0.8463 -0.5961  0.3554
  393MOL0     C52945   8.287  10.972   2.253  0.1319  0.3637 -0.3780
  393MOL0     C52946   8.304  11.103   2.206  0.7842  0.6539 -0.5259
  393MOL0     C52947   8.196  11.184   2.187  0.0546 -0.0052  0.0168
  393MOL0     C52948   8.225  11.319   2.141  0.5353 -0.3448  0.1741
  393MOL0     C52949   8.068  11.133   2.216  0.6763 -0.3481  0.1864
  393MOL0     C52950   7.941  11.213   2.195  0.4182  0.6150  1.0277
  393MOL0     O52951   7.817  11.147   2.213 -1.1116 -0.2726  0.5236
  393MOL0     C52952   7.694  11.198   2.181  0.6884 -0.0770  0.3794
  393MOL0     C52953   7.650  11.323   2.212  0.9547 -0.1231 -0.3835
  393MOL0     C52954   7.513  11.365   2.196  0.2815 -1.2344  0.3292
  393MOL0     C52955   7.416  11.272   2.152 -0.4367 -0.7649 -0.0044
  393MOL0     O52956   7.290  11.322   2.140 -0.5250 -0.1583 -0.3748
  393MOL0     C52957   7.177  11.235   2.119 -0.3920  1.0884  0.2799
  393MOL0     C52958   7.138  11.162   2.249  0.4837 -0.6744 -0.4686
  393MOL0     C52959   6.992  11.144   2.244  0.6689 -0.3689  0.0047
  393MOL0     C52960   6.931  11.120   2.383 -0.8722  0.2448 -0.6451
  393MOL0     C52961   6.787  11.087   2.374  0.0059  0.9646 -0.2880
  393MOL0     C52962   6.701  11.207   2.339 -0.5926 -0.3667 -0.1164
  393MOL0     C52963   6.561  11.163   2.290  0.3717 -0.3326  0.0800
  393MOL0     C52964   6.472  11.137   2.409 -0.0385  0.1395  0.3556
  393MOL0    Cl52965   6.400  11.273   2.494 -0.1331  0.1875 -0.3695
  393MOL0     C52966   7.455  11.141   2.118 -0.5047  0.4039  0.5664
  393MOL0     C52967   7.591  11.112   2.123  0.2837 -0.0202 -0.3577
  393MOL0     O52968   7.952  11.326   2.150  0.0132 -0.8798  0.1825
  393MOL0     C52969   8.055  11.002   2.253 -0.4264 -0.1617  0.5001
  393MOL0     C52970   8.164  10.917   2.270  0.0913 -0.9017 -0.4474
  393MOL0     N52971   9.032  10.688   2.183  0.5582 -0.3507  0.5431
  393MOL0     N52972   9.152  10.706   2.136  0.6767  0.0700  0.0516
  393MOL0     C52973   8.657  10.860   1.246 -0.3381  0.4577 -1.8208
  393MOL0     C52974   8.540  10.869   1.173  0.5833  0.2453 -0.6077
  393MOL0     C52975   8.157  10.862   0.976  0.2264  0.2352  0.1648
  393MOL0     C52976   8.093  10.787   0.877  0.2830  0.2729  0.6255
  393MOL0     C52977   7.966  10.819   0.818  0.1448  0.2001 -0.1843
  393MOL0     C52978   7.885  10.922   0.869 -0.0882 -0.4029  0.0440
  393MOL0     O52979   7.760  10.945   0.825  0.4143  0.5164 -0.4335
  393MOL0     C52980   7.703  11.075   0.844 -0.2931 -0.0855 -0.6906
  393MOL0     C52981   7.596  11.107   0.739 -0.3168  0.1662 -0.9983
  393MOL0     C52982   7.461  11.038   0.785 -0.3145  0.6403  0.4878
  393MOL0     C52983   7.356  11.040   0.667 -0.0807 -0.3345 -0.2361
  393MOL0     C52984   7.417  10.982   0.555  0.2025  0.8942  0.4585
  393MOL0     C52985   7.465  10.921   0.456 -0.2012 -1.0236 -0.2890
  393MOL0     C52986   7.949  10.999   0.967  0.3032 -0.6273 -0.0229
  393MOL0     C52987   8.078  10.967   1.018 -0.3319 -0.2650 -0.2391
  393MOL0     H52988   8.306  10.904   1.405 -1.2353  5.1650 -2.3220
  393MOL0     H52989   8.514  10.888   1.553 -1.4632  2.2974 -0.4476
  393MOL0     H52990   8.780  10.724   1.631 -0.3768  5.4441 -0.5603
  393MOL0     H52991   8.695  10.661   1.489 -0.4821  0.9165 -0.7065
  393MOL0     H52992   8.916  10.555   1.470 -0.9581  0.5432 -1.0995
  393MOL0     H52993   8.894  10.668   1.348  0.8634 -0.2843  0.3332
  393MOL0     H52994   9.120  10.708   1.440 -0.4121 -0.6811 -0.2890
  393MOL0     H52995   9.016  10.835   1.515 -1.7798 -0.3815  1.0386
  393MOL0     H52996   8.989  10.676   1.710 -0.1970 -1.3548  0.2127
  393MOL0     H52997   9.091  10.551   1.637  2.1832  0.4973 -3.1689
  393MOL0     H52998   9.279  10.729   1.614  0.8752 -1.3786  1.1789
  393MOL0     H52999   9.185  10.831   1.709  0.6277  0.5801 -0.5931
  393MOL0     H53000   9.167  10.613   1.875  0.0085 -2.7364 -1.5876
  393MOL0     H53001   9.305  10.571   1.788  1.3903  0.5251  0.8083
  393MOL0     H53002   9.388  10.694   1.978 -0.6383  0.1425  1.0525
  393MOL0     H53003   9.406  10.796   1.830  1.3776 -0.6698  0.2081
  393MOL0     H53004   9.225  10.936   1.892 -0.1418 -0.5840 -0.3944
  393MOL0     H53005   9.322  10.919   2.042  2.8177 -0.5986 -0.1209
  393MOL0     H53006   9.007  10.972   2.017  2.3610  0.1113 -1.4434
  393MOL0     H53007   8.817  10.789   2.295 -0.1790  0.7639  0.0815
  393MOL0     H53008   8.822  10.934   2.193  2.2458  0.5933 -3.4755
  393MOL0     H53009   8.733  10.671   2.079  1.8259 -0.1653 -0.0146
  393MOL0     H53010   8.707  10.838   2.012  2.2976 -0.6407 -0.0877
  393MOL0     H53011   8.573  10.685   2.236 -0.9598  0.4053  0.3062
  393MOL0     H53012   8.503  10.750   2.089  2.1682 -2.2664 -0.2287
  393MOL0     H53013   8.545  10.979   2.186  1.5657 -0.8052  0.5369
  393MOL0     H53014   8.574  10.916   2.350  0.1636  2.0851 -0.5918
  393MOL0     H53015   8.406  11.128   2.179  1.1445  0.2160  0.3996
  393MOL0     H53016   8.183  11.335   2.041 -0.5087 -1.4860  0.4116
  393MOL0     H53017   8.198  11.390   2.220  4.4262 -0.3130  1.7341
  393MOL0     H53018   8.334  11.334   2.137  0.5753 -0.7349 -0.2844
  393MOL0     H53019   7.726  11.384   2.261  1.1420 -0.2608 -0.4997
  393MOL0     H53020   7.480  11.466   2.217 -0.2103 -1.2707 -0.2588
  393MOL0     H53021   7.105  11.298   2.065  1.1492  1.9102 -0.9239
  393MOL0     H53022   7.207  11.148   2.059  0.2408 -0.3166  2.4965
  393MOL0     H53023   7.195  11.069   2.259 -0.1947 -1.1964 -1.3067
  393MOL0     H53024   7.175  11.236   2.321  0.2749  2.2142 -3.0954
  393MOL0     H53025   6.983  11.050   2.189  4.0055 -0.4648 -0.5959
  393MOL0     H53026   6.937  11.228   2.201  2.4950  1.2545  0.7142
  393MOL0     H53027   6.981  11.034   2.426 -1.9478  0.5322  1.2670
  393MOL0     H53028   6.933  11.210   2.446 -0.4904  0.8746 -1.5285
  393MOL0     H53029   6.744  11.053   2.469  2.6166  1.7936  1.2959
  393MOL0     H53030   6.771  11.007   2.301 -2.9858  1.5599 -0.4478
  393MOL0     H53031   6.699  11.284   2.417  2.1559  0.2215 -0.5249
  393MOL0     H53032   6.756  11.263   2.263  3.6134 -1.6219  1.6766
  393MOL0     H53033   6.561  11.073   2.228 -0.2839 -0.5611  0.3973
  393MOL0     H53034   6.519  11.244   2.229 -2.8494 -1.6234  0.3857
  393MOL0     H53035   6.518  11.065   2.477  1.8913 -0.4019 -1.4372
  393MOL0     H53036   6.383  11.081   2.378 -0.6622  0.3535  1.6560
  393MOL0     H53037   7.391  11.062   2.081  1.0754 -0.6747  0.0289
  393MOL0     H53038   7.616  11.011   2.094 -1.9525 -0.2851 -1.6142
  393MOL0     H53039   7.958  10.954   2.256 -0.8810  0.7291  0.2242
  393MOL0     H53040   8.156  10.812   2.294 -0.9987 -0.9060 -0.7871
  393MOL0     H53041   8.748  10.832   1.193  1.3023  0.5066  0.8043
  393MOL0     H53042   8.549  10.857   1.065  2.4089 -2.7156 -0.2558
  393MOL0     H53043   8.149  10.703   0.836  1.8935  1.4342  0.3627
  393MOL0     H53044   7.928  10.754   0.741 -0.4383 -0.4142  0.6042
  393MOL0     H53045   7.678  11.094   0.949  2.2397  2.2802 -0.4022
  393MOL0     H53046   7.793  11.136   0.831 -1.3437  1.5107 -0.8006
  393MOL0     H53047   7.632  11.092   0.637  0.5251  2.3684 -1.0763
  393MOL0     H53048   7.573  11.214   0.744 -1.7631 -0.1549 -0.0099
  393MOL0     H53049   7.421  11.088   0.874 -0.3118  2.3973 -0.4706
  393MOL0     H53050   7.480  10.934   0.815  2.1944 -0.0955 -3.1058
  393MOL0     H53051   7.322  11.140   0.636 -2.2812 -0.2968  1.9763
  393MOL0     H53052   7.264  10.988   0.695  0.3566 -2.5053 -2.5084
  393MOL0     H53053   7.508  10.866   0.375 -0.3170 -0.8664 -0.4572
  393MOL0     H53054   7.894  11.083   1.008  1.2058 -0.9819  2.0225
  393MOL0     H53055   8.119  11.041   1.085  2.2354 -0.6349 -1.2906
  394MOL0     O53056   1.904  10.789   0.330  0.4729 -0.0415 -0.4906
  394MOL0     C53057   1.988  10.704   0.329 -0.5173 -0.7368 -0.5439
  394MOL0     O53058   1.986  10.579   0.386  0.2013 -0.3215 -0.0268
  394MOL0     C53059   1.864  10.554   0.463 -0.1644 -0.1107  0.0345
  394MOL0     C53060   1.824  10.630   0.578 -0.8455  0.5180  0.3049
  394MOL0     C53061   1.712  10.604   0.652 -0.0712 -0.1252  0.8136
  394MOL0     C53062   1.633  10.484   0.617 -0.2895  0.2156 -0.7396
  394MOL0     O53063   1.516  10.465   0.692 -0.4713  0.3358  0.4306
  394MOL0     C53064   1.439  10.342   0.663  0.0393 -0.2342 -0.5441
  394MOL0     C53065   1.304  10.358   0.725  0.3357  0.1386  0.2875
  394MOL0     C53066   1.229  10.456   0.642 -0.9036 -0.4160 -0.3601
  394MOL0     C53067   1.173  10.400   0.511  1.3953  0.8455  0.0833
  394MOL0     C53068   1.106  10.519   0.433 -0.1765 -0.2717  0.8422
  394MOL0     C53069   0.976  10.555   0.491  0.6220 -0.3879  0.1148
  394MOL0     C53070   0.880  10.625   0.395 -0.4852 -0.2086 -0.2561
  394MOL0     C53071   0.745  10.661   0.459  0.7156  0.0055  0.8999
  394MOL0     N53072   0.675  10.533   0.483 -0.2234 -0.5967 -0.0872
  394MOL0     C53073   0.590  10.474   0.395 -0.7599 -0.5230  0.2155
  394MOL0     C53074   0.563  10.360   0.450  1.0569  0.3074  0.6987
  394MOL0     C53075   0.462  10.279   0.383 -0.2302  0.4952  0.0473
  394MOL0     C53076   0.319  10.344   0.362 -0.9828  0.2617  0.3552
  394MOL0     C53077   0.249  10.380   0.485 -0.2394 -0.9479 -0.7363
  394MOL0     C53078   0.105  10.420   0.453  0.9223 -0.8166 -0.7244
  394MOL0     O53079   0.035  10.439   0.574 -0.2436 -0.7652 -0.0147
  394MOL0     C53080  -0.101  10.472   0.563 -0.7556 -0.4867  0.0268
  394MOL0     C53081  -0.156  10.553   0.660  0.7035  0.1220  0.1015
  394MOL0     C53082  -0.287  10.576   0.674  0.9761  0.2522  0.0019
  394MOL0     C53083  -0.325  10.649   0.794  0.1061 -0.1464  0.0127
  394MOL0     C53084  -0.380  10.508   0.580  0.5625  1.0280  1.2914
  394MOL0     C53085  -0.521  10.545   0.567  0.3747 -0.5385  1.5292
  394MOL0     O53086  -0.595  10.555   0.681 -0.4269  0.0318 -0.3402
  394MOL0     C53087  -0.724  10.594   0.681 -0.0892 -0.0077 -0.7755
  394MOL0     C53088  -0.754  10.654   0.805  0.3021  0.8948  0.2041
  394MOL0     C53089  -0.876  10.709   0.827  0.3059 -0.1677  0.2857
  394MOL0     C53090  -0.990  10.681   0.745 -0.2652  0.2649  0.8555
  394MOL0     O53091  -1.114  10.731   0.764 -0.3076 -0.2224 -0.5568
  394MOL0     C53092  -1.154  10.760   0.903 -0.4921  0.6350  0.0399
  394MOL0     C53093  -1.289  10.833   0.901  0.6038 -0.1755  0.4433
  394MOL0     C53094  -1.414  10.737   0.883  0.6666 -0.0355 -0.4037
  394MOL0     C53095  -1.535  10.815   0.841 -0.1758 -0.7446  0.1434
  394MOL0     C53096  -1.643  10.718   0.815 -0.2852  0.7576 -0.3599
  394MOL0     C53097  -1.757  10.792   0.740  0.7483  0.0026  0.0733
  394MOL0     C53098  -1.876  10.695   0.712 -0.3048  0.1735 -0.0829
  394MOL0     C53099  -1.981  10.753   0.612  1.3583  0.3407  0.6196
  394MOL0    Cl53100  -1.996  10.932   0.628  0.0046  0.6852 -0.5612
  394MOL0     C53101  -0.968  10.613   0.622 -0.3974 -0.7779 -0.1074
  394MOL0     C53102  -0.833  10.570   0.591  0.4756  0.4772  0.3830
  394MOL0     O53103  -0.565  10.580   0.450 -0.8657 -0.2483  0.0390
  394MOL0     C53104  -0.331  10.418   0.478 -0.3831  0.5092 -0.1511
  394MOL0     C53105  -0.186  10.403   0.479  1.1587 -0.2118 -0.4580
  394MOL0     N53106   0.608  10.348   0.577 -0.3312  0.7051 -0.4119
  394MOL0     N53107   0.680  10.453   0.592 -0.2583  0.3206  0.3036
  394MOL0     C53108   1.685  10.401   0.511 -0.2817 -0.3214  0.3789
  394MOL0     C53109   1.794  10.440   0.437  0.1318 -0.3326 -0.1157
  394MOL0     C53110   2.110  10.741   0.253 -0.5977 -0.4849  0.1842
  394MOL0     C53111   2.124  10.874   0.211 -0.1929 -0.3288  0.8488
  394MOL0     C53112   2.231  10.914   0.138  0.1521 -0.5192 -0.0450
  394MOL0     C53113   2.340  10.831   0.117 -0.0206  0.6939 -0.2533
  394MOL0     O53114   2.460  10.861   0.058  0.3986 -0.1869  0.1038
  394MOL0     C53115   2.474  10.988  -0.011 -0.1099  0.0692  0.3585
  394MOL0     C53116   2.612  10.992  -0.076  0.9168  0.0197 -0.3992
  394MOL0     C53117   2.604  11.099  -0.194 -0.0682 -0.0466 -0.2308
  394MOL0     C53118   2.715  11.089  -0.295  1.4192  0.0046 -0.1230
  394MOL0     C53119   2.847  11.083  -0.234 -0.1806 -0.5486 -0.5049
  394MOL0     C53120   2.958  11.065  -0.179  0.4256 -0.2885  0.1494
  394MOL0     C53121   2.334  10.698   0.151  0.7246  0.0146  0.7675
  394MOL0     C53122   2.211  10.649   0.215 -0.2869  0.5259 -0.5509
  394MOL0     H53123   1.870  10.726   0.601 -1.4599  0.7935  0.4056
  394MOL0     H53124   1.670  10.670   0.727  0.9636  0.0838  1.2331
  394MOL0     H53125   1.442  10.318   0.556  1.3506  2.5222 -1.2201
  394MOL0     H53126   1.491  10.262   0.718  0.8289  1.3521  1.1017
  394MOL0     H53127   1.262  10.258   0.715  4.8438 -1.9271 -0.7836
  394MOL0     H53128   1.311  10.384   0.831 -1.1365 -0.9887  0.6908
  394MOL0     H53129   1.153  10.499   0.707 -1.4865 -4.2753  1.7696
  394MOL0     H53130   1.298  10.535   0.611  0.9595 -0.0491  3.9713
  394MOL0     H53131   1.261  10.360   0.461  2.6345  1.5329  1.6351
  394MOL0     H53132   1.099  10.321   0.526  1.7946  0.3638 -0.4618
  394MOL0     H53133   1.164  10.612   0.436 -1.9665  0.8871  1.1116
  394MOL0     H53134   1.102  10.488   0.328  2.2400 -2.0058  1.1725
  394MOL0     H53135   0.933  10.457   0.514 -1.8233  0.3205 -1.1042
  394MOL0     H53136   0.984  10.611   0.584 -0.8136  1.7224 -0.9580
  394MOL0     H53137   0.918  10.723   0.362  0.1629 -1.1232 -2.4243
  394MOL0     H53138   0.849  10.565   0.309  0.0704 -1.3953  0.3591
  394MOL0     H53139   0.679  10.710   0.388 -2.0808 -0.2714  3.1272
  394MOL0     H53140   0.757  10.721   0.550 -0.4053  0.4744  0.7569
  394MOL0     H53141   0.544  10.491   0.298 -1.3709  2.5406  0.9338
  394MOL0     H53142   0.499  10.241   0.287 -0.5769  2.3450 -0.8764
  394MOL0     H53143   0.460  10.191   0.448  3.6364  0.5128  0.4568
  394MOL0     H53144   0.263  10.271   0.303  1.6964  0.2678 -2.4747
  394MOL0     H53145   0.329  10.434   0.301 -2.0851 -0.3965 -0.8558
  394MOL0     H53146   0.315  10.451   0.537  1.0378 -1.3230 -1.7718
  394MOL0     H53147   0.257  10.297   0.556  2.1573  0.1885  0.4611
  394MOL0     H53148   0.061  10.335   0.399  0.6791 -0.6163 -0.8460
  394MOL0     H53149   0.090  10.505   0.384 -1.8989 -0.5195  0.1380
  394MOL0     H53150  -0.089  10.603   0.729  1.5452 -1.9360  0.8578
  394MOL0     H53151  -0.243  10.708   0.836 -1.2053 -0.4498  3.3157
  394MOL0     H53152  -0.418  10.706   0.788 -0.5389 -0.9505  1.5888
  394MOL0     H53153  -0.361  10.567   0.857 -0.4536 -0.0709 -0.1998
  394MOL0     H53154  -0.677  10.667   0.881 -1.8202 -1.9636  3.1245
  394MOL0     H53155  -0.884  10.761   0.922 -1.5160  3.0249 -1.4456
  394MOL0     H53156  -1.173  10.676   0.970  0.8999  1.9929  2.2634
  394MOL0     H53157  -1.095  10.827   0.966 -0.8691 -1.1752  2.4581
  394MOL0     H53158  -1.328  10.894   0.983  0.0018  2.4453 -1.6538
  394MOL0     H53159  -1.283  10.902   0.816 -3.0094 -1.6813 -1.2285
  394MOL0     H53160  -1.437  10.692   0.980  1.1834 -0.4879 -0.4899
  394MOL0     H53161  -1.391  10.658   0.811  0.5610 -0.0660 -0.4043
  394MOL0     H53162  -1.555  10.884   0.924  0.1449 -2.7687  1.9852
  394MOL0     H53163  -1.507  10.867   0.749 -0.2610 -1.0690 -0.0647
  394MOL0     H53164  -1.687  10.668   0.902 -2.8848  2.7907 -0.3984
  394MOL0     H53165  -1.603  10.632   0.759 -1.2268  0.0139  0.0804
  394MOL0     H53166  -1.794  10.875   0.801 -0.0897  1.7210 -2.6132
  394MOL0     H53167  -1.714  10.832   0.648  0.2768 -2.4944 -1.3182
  394MOL0     H53168  -1.936  10.680   0.802 -1.7834  1.8901 -0.7231
  394MOL0     H53169  -1.836  10.599   0.678 -1.8366 -1.3501  2.1754
  394MOL0     H53170  -2.080  10.714   0.636  1.4915 -1.0325 -0.9095
  394MOL0     H53171  -1.955  10.739   0.507 -1.9016  2.0032 -0.5677
  394MOL0     H53172  -1.050  10.597   0.553  1.2079  1.9245 -2.8471
  394MOL0     H53173  -0.807  10.510   0.505  0.0912 -1.4314  1.5307
  394MOL0     H53174  -0.400  10.375   0.407 -0.8438 -0.1278  0.6647
  394MOL0     H53175  -0.144  10.333   0.407  1.8865 -0.8619  0.5736
  394MOL0     H53176   1.644  10.308   0.473 -0.4742 -0.6753  1.4219
  394MOL0     H53177   1.834  10.374   0.361  1.0314  1.0260 -0.8645
  394MOL0     H53178   2.053  10.951   0.238  0.6889  0.8448 -0.0295
  394MOL0     H53179   2.233  11.016   0.101  0.9527 -0.4710  0.1112
  394MOL0     H53180   2.398  10.983  -0.090  0.1730 -0.1882  0.0993
  394MOL0     H53181   2.451  11.066   0.062 -1.4148  1.3867 -1.3840
  394MOL0     H53182   2.639  10.902  -0.131 -1.6898  0.6730 -2.9836
  394MOL0     H53183   2.679  11.024   0.005 -1.6238  0.8002  1.5619
  394MOL0     H53184   2.614  11.204  -0.165  0.5298  1.2205 -4.3630
  394MOL0     H53185   2.507  11.095  -0.244 -0.2813 -0.1855  0.1936
  394MOL0     H53186   2.711  11.171  -0.368 -0.0531 -0.0039 -0.0888
  394MOL0     H53187   2.691  11.002  -0.357 -4.2041  1.0522 -0.0005
  394MOL0     H53188   3.054  11.054  -0.135  2.1469  2.2282 -2.5487
  394MOL0     H53189   2.414  10.629   0.126 -0.0383 -1.0819  1.2385
  394MOL0     H53190   2.202  10.542   0.231  0.7656  0.4290 -0.5172
  395MOL0     O53191   8.710  11.157   2.413 -0.3739 -0.8141  0.5046
  395MOL0     C53192   8.763  11.248   2.344 -0.0097 -0.6352 -0.3630
  395MOL0     O53193   8.704  11.356   2.292  0.3748 -0.2960  0.0372
  395MOL0     C53194   8.587  11.405   2.328  0.3328 -0.7044 -0.2267
  395MOL0     C53195   8.499  11.353   2.430  0.6188  0.3325  0.3135
  395MOL0     C53196   8.379  11.424   2.473 -0.3063  0.8353  0.0850
  395MOL0     C53197   8.329  11.530   2.403 -0.7666 -0.6883 -0.7177
  395MOL0     O53198   8.210  11.579   2.435  0.2271  0.2883 -0.5276
  395MOL0     C53199   8.164  11.701   2.373 -0.4814  0.9566  0.2404
  395MOL0     C53200   8.026  11.731   2.425 -0.2281  0.0785  0.0301
  395MOL0     C53201   7.923  11.614   2.401  0.4793 -0.7986  0.3271
  395MOL0     C53202   7.776  11.657   2.409 -0.2874 -0.1209 -1.2517
  395MOL0     C53203   7.746  11.726   2.545 -0.1537 -0.7579 -0.3275
  395MOL0     C53204   7.605  11.791   2.559  0.3068  0.0114  0.0393
  395MOL0     C53205   7.489  11.696   2.568  0.3043 -0.1435  0.2684
  395MOL0     C53206   7.364  11.791   2.551  0.4632 -0.9698 -1.0153
  395MOL0     N53207   7.235  11.719   2.524 -0.4884 -0.4391  0.0145
  395MOL0     C53208   7.198  11.649   2.407  0.0050 -0.4116 -0.0585
  395MOL0     C53209   7.068  11.611   2.424 -0.0724 -1.1044 -0.0392
  395MOL0     C53210   6.997  11.513   2.346  0.7887 -0.0073 -0.3352
  395MOL0     C53211   6.922  11.565   2.216  0.0497  0.4833 -0.1293
  395MOL0     C53212   7.017  11.618   2.107  0.3341 -0.3133 -1.2226
  395MOL0     C53213   6.941  11.622   1.971 -0.2361 -0.1488  0.4020
  395MOL0     O53214   6.959  11.498   1.901 -0.2173 -0.0534 -0.0058
  395MOL0     C53215   6.847  11.443   1.851  0.4093 -0.7198  0.2293
  395MOL0     C53216   6.817  11.311   1.885 -1.2844  0.0020  0.2753
  395MOL0     C53217   6.712  11.235   1.832 -0.7990 -0.4439  0.1216
  395MOL0     C53218   6.690  11.102   1.895 -0.6049  0.3198 -0.5595
  395MOL0     C53219   6.621  11.295   1.745 -0.0261  0.4174  0.0456
  395MOL0     C53220   6.495  11.227   1.707 -0.0064 -1.1454  0.6189
  395MOL0     O53221   6.384  11.304   1.703 -0.3054  0.0488 -0.3209
  395MOL0     C53222   6.267  11.248   1.661  0.0059 -0.7769 -0.6338
  395MOL0     C53223   6.202  11.171   1.752  0.9080 -0.0017 -1.2071
  395MOL0     C53224   6.076  11.126   1.716  0.8994  0.3943  0.6225
  395MOL0     C53225   6.023  11.147   1.587 -0.4918  0.2595 -0.0932
  395MOL0     O53226   5.896  11.093   1.575  0.1383 -0.4656  0.5263
  395MOL0     C53227   5.815  11.106   1.454  0.2125  0.0464  0.3648
  395MOL0     C53228   5.698  11.010   1.476 -0.0163  0.1635  0.6408
  395MOL0     C53229   5.610  11.039   1.599  0.3758 -0.8640  0.0185
  395MOL0     C53230   5.481  10.959   1.580  0.2325  0.8527  0.2305
  395MOL0     C53231   5.378  10.978   1.691 -0.1408 -0.0229  0.2616
  395MOL0     C53232   5.247  10.912   1.649  0.2591  0.6099  0.6237
  395MOL0     C53233   5.129  10.917   1.748 -0.3335 -0.2922  0.5430
  395MOL0     C53234   5.012  10.857   1.682 -1.6286  0.3983 -0.0197
  395MOL0    Cl53235   4.868  10.897   1.786  0.0707 -0.0151  0.1766
  395MOL0     C53236   6.098  11.215   1.487  1.1811  1.0370  0.4319
  395MOL0     C53237   6.219  11.266   1.526 -0.1588  0.7213  0.1460
  395MOL0     O53238   6.504  11.108   1.673 -0.1055 -0.6841  0.4507
  395MOL0     C53239   6.652  11.427   1.706  1.1417  1.4514  0.6172
  395MOL0     C53240   6.760  11.505   1.750  0.2343 -0.3797 -0.8441
  395MOL0     N53241   7.012  11.674   2.538  0.3650 -0.1636  0.2020
  395MOL0     N53242   7.121  11.738   2.598  0.2882 -0.5299  0.7484
  395MOL0     C53243   8.408  11.590   2.302 -0.2995  0.7298 -0.5763
  395MOL0     C53244   8.528  11.519   2.268  0.3736 -1.3974  0.0979
  395MOL0     C53245   8.907  11.236   2.313 -0.3702 -0.3083 -0.2237
  395MOL0     C53246   8.975  11.339   2.248 -0.3531  0.6128 -0.0806
  395MOL0     C53247   9.106  11.325   2.204 -1.3031 -0.7373 -0.0596
  395MOL0     C53248   9.169  11.201   2.216 -0.1494 -0.7611 -0.1412
  395MOL0     O53249   9.299  11.175   2.178  0.0058 -0.0334  0.4374
  395MOL0     C53250   9.389  11.266   2.106  0.2391 -0.1317  0.2218
  395MOL0     C53251   9.528  11.209   2.085  0.1226 -0.4143  0.1952
  395MOL0     C53252   9.611  11.182   2.216 -0.6275 -0.6739 -1.0312
  395MOL0     C53253   9.739  11.107   2.180  0.5591 -0.0535 -0.8275
  395MOL0     C53254   9.834  11.133   2.291 -0.2278 -0.4293  0.2027
  395MOL0     C53255   9.900  11.146   2.390 -0.3317 -0.6401  0.5195
  395MOL0     C53256   9.102  11.098   2.285 -0.5833 -0.2650  0.1789
  395MOL0     C53257   8.973  11.112   2.329  0.4430 -0.6556 -0.3317
  395MOL0     H53258   8.515  11.270   2.498  1.2963  0.8744  0.8254
  395MOL0     H53259   8.307  11.383   2.543  0.4562  2.1056  1.6567
  395MOL0     H53260   8.237  11.780   2.393 -0.2123  0.7075  0.2662
  395MOL0     H53261   8.155  11.700   2.264 -2.8901  1.9527  0.3728
  395MOL0     H53262   8.036  11.737   2.534 -1.1931  0.9689  0.0792
  395MOL0     H53263   7.990  11.826   2.385 -1.6788 -0.7646 -0.7706
  395MOL0     H53264   7.933  11.576   2.299  0.5555 -2.3370  0.8965
  395MOL0     H53265   7.944  11.534   2.471  2.8630  0.2879  0.9573
  395MOL0     H53266   7.747  11.719   2.324 -0.9239  1.0891 -0.1860
  395MOL0     H53267   7.720  11.563   2.399 -1.7865  0.8147 -2.0703
  395MOL0     H53268   7.761  11.650   2.623 -1.0609 -1.7237 -1.0626
  395MOL0     H53269   7.822  11.803   2.555  2.1999 -3.0554  0.7770
  395MOL0     H53270   7.602  11.854   2.648 -0.2642 -0.6485  0.4980
  395MOL0     H53271   7.592  11.854   2.471 -1.9025 -2.6962 -1.7631
  395MOL0     H53272   7.489  11.620   2.489  0.3373  1.9222 -1.8173
  395MOL0     H53273   7.491  11.653   2.669 -1.8478 -1.6606 -0.2658
  395MOL0     H53274   7.386  11.860   2.469  1.3194  1.8885  1.4646
  395MOL0     H53275   7.353  11.854   2.640  1.1480 -1.8271 -0.3117
  395MOL0     H53276   7.270  11.609   2.336  0.1640  2.7307 -1.8516
  395MOL0     H53277   7.060  11.425   2.326 -1.6606 -2.1025  0.5441
  395MOL0     H53278   6.923  11.469   2.414  1.3541 -1.5267 -0.6525
  395MOL0     H53279   6.868  11.655   2.248  3.7085  2.2764  1.6637
  395MOL0     H53280   6.850  11.493   2.176 -0.7521  2.3586 -2.2284
  395MOL0     H53281   7.108  11.559   2.099  0.5045 -0.6082  1.7867
  395MOL0     H53282   7.047  11.719   2.137 -2.5869  0.1238  0.6483
  395MOL0     H53283   6.976  11.708   1.914 -0.2005  0.1487  0.8757
  395MOL0     H53284   6.836  11.649   1.986 -0.0079  1.5226 -0.6737
  395MOL0     H53285   6.890  11.266   1.950 -0.8085  1.3293  0.6797
  395MOL0     H53286   6.607  11.090   1.965 -2.3277 -0.4387 -2.6405
  395MOL0     H53287   6.680  11.020   1.824 -0.5065 -0.6391  0.5071
  395MOL0     H53288   6.782  11.080   1.950  0.9387  1.7119 -2.4531
  395MOL0     H53289   6.247  11.158   1.850  0.3682 -0.0270 -0.9622
  395MOL0     H53290   6.015  11.064   1.781 -0.9238  0.5126 -0.8756
  395MOL0     H53291   5.767  11.202   1.432 -1.3382 -0.5054  1.1706
  395MOL0     H53292   5.869  11.061   1.371  1.2301  0.6864  0.6684
  395MOL0     H53293   5.637  11.019   1.386 -0.9140 -2.0280  0.9578
  395MOL0     H53294   5.732  10.906   1.484 -0.9802 -0.6176 -3.2019
  395MOL0     H53295   5.578  11.144   1.598  1.2907 -0.5816 -1.2044
  395MOL0     H53296   5.665  11.025   1.692 -0.4869  1.7313  1.0249
  395MOL0     H53297   5.432  10.999   1.491 -0.1083  0.3001  0.1636
  395MOL0     H53298   5.503  10.852   1.568  2.3097  0.9637  2.2589
  395MOL0     H53299   5.369  11.083   1.721  2.7060 -0.1539  1.9631
  395MOL0     H53300   5.420  10.921   1.775 -0.9624 -2.4262 -0.8900
  395MOL0     H53301   5.211  10.965   1.561 -3.4777 -1.3426  0.7881
  395MOL0     H53302   5.272  10.809   1.623 -0.0837  0.2891  1.5147
  395MOL0     H53303   5.096  11.018   1.776 -1.1451 -1.2853  3.5493
  395MOL0     H53304   5.151  10.856   1.836 -1.7160  0.5470  1.5148
  395MOL0     H53305   5.027  10.749   1.683 -1.6471  0.3623  2.5260
  395MOL0     H53306   4.988  10.885   1.579  0.4924 -3.6552 -1.8617
  395MOL0     H53307   6.057  11.233   1.388 -0.4567  3.0253  1.3829
  395MOL0     H53308   6.287  11.308   1.452  0.0904 -1.7102 -1.0990
  395MOL0     H53309   6.592  11.475   1.629  0.0304  1.6064  1.5540
  395MOL0     H53310   6.771  11.607   1.715 -1.9614  0.1823 -0.0348
  395MOL0     H53311   8.380  11.679   2.246 -2.3185  0.7861  0.4398
  395MOL0     H53312   8.588  11.560   2.187  2.7393 -0.1857  2.3166
  395MOL0     H53313   8.925  11.433   2.232 -0.3828  0.2028 -2.8600
  395MOL0     H53314   9.160  11.401   2.149 -0.2033  0.0856  2.0268
  395MOL0     H53315   9.339  11.273   2.009  2.4000  3.2932 -0.8035
  395MOL0     H53316   9.388  11.368   2.146  2.2134  0.1415 -0.3193
  395MOL0     H53317   9.592  11.269   2.019  1.1272  0.5256  1.9526
  395MOL0     H53318   9.523  11.107   2.044  0.0200 -1.1016  1.8299
  395MOL0     H53319   9.549  11.120   2.281 -0.6763  2.9740  2.8636
  395MOL0     H53320   9.629  11.275   2.270  1.7215 -2.5793  1.6980
  395MOL0     H53321   9.786  11.158   2.096  1.1427  0.0887 -0.4193
  395MOL0     H53322   9.734  11.000   2.159  0.8554  0.2074 -2.3775
  395MOL0     H53323   9.973  11.142   2.468  0.2550 -0.9535 -0.0364
  395MOL0     H53324   9.146  10.998   2.292  0.0664  0.1191  2.7842
  395MOL0     H53325   8.915  11.031   2.372 -0.9706  0.1412 -0.6743
  396MOL0     O53326   0.965   3.172   1.198 -0.2302  0.5879 -0.2548
  396MOL0     C53327   0.987   3.280   1.250 -0.4177 -0.1676 -0.2012
  396MOL0     O53328   0.904   3.375   1.259 -0.7950  0.6912 -0.2596
  396MOL0     C53329   0.780   3.361   1.210 -0.1849 -0.0172 -0.5116
  396MOL0     C53330   0.736   3.460   1.122  0.2268  1.5338 -0.5390
  396MOL0     C53331   0.608   3.452   1.071  0.2460  0.3187 -0.0340
  396MOL0     C53332   0.518   3.358   1.106  0.0324  0.9701  0.5769
  396MOL0     O53333   0.403   3.366   1.041 -0.3178 -0.0383  1.2252
  396MOL0     C53334   0.300   3.298   1.113  0.3861 -0.4653 -0.1524
  396MOL0     C53335   0.233   3.204   1.011 -0.5001  0.1656 -0.6733
  396MOL0     C53336   0.329   3.088   0.990 -0.1969  0.5208 -0.0120
  396MOL0     C53337   0.254   2.981   0.903 -0.6675  0.1145 -1.3186
  396MOL0     C53338   0.189   3.038   0.777  1.0799  0.7545 -0.3103
  396MOL0     C53339   0.104   2.927   0.710 -0.0279  0.5688 -0.1711
  396MOL0     C53340   0.022   2.977   0.597  0.0155  0.5165  0.3843
  396MOL0     C53341  -0.072   2.875   0.530 -0.1979  0.8647 -0.6723
  396MOL0     N53342  -0.173   2.941   0.446 -0.5019  0.2220 -0.0238
  396MOL0     C53343  -0.251   3.046   0.480 -0.0476  0.3837  0.4060
  396MOL0     C53344  -0.327   3.077   0.374 -0.0639  0.3810  0.1849
  396MOL0     C53345  -0.413   3.202   0.367 -0.5429  0.5086 -0.5794
  396MOL0     C53346  -0.504   3.188   0.244 -0.4705  0.6884 -0.8212
  396MOL0     C53347  -0.584   3.317   0.213 -0.2888 -0.5480 -0.1641
  396MOL0     C53348  -0.662   3.368   0.331 -1.1645 -0.5619 -0.5203
  396MOL0     O53349  -0.727   3.494   0.318  0.7529 -0.1905 -0.0752
  396MOL0     C53350  -0.863   3.504   0.285 -0.9791  1.0761  0.3240
  396MOL0     C53351  -0.933   3.625   0.302  0.3522 -0.4340 -0.8116
  396MOL0     C53352  -1.070   3.639   0.283 -0.6404  0.0494 -0.2534
  396MOL0     C53353  -1.133   3.766   0.341  0.2007 -0.0129 -0.2746
  396MOL0     C53354  -1.143   3.517   0.249  0.3074 -0.7066 -0.1253
  396MOL0     C53355  -1.286   3.520   0.232 -0.0377  0.6288 -0.2682
  396MOL0     O53356  -1.335   3.392   0.233 -0.0137  0.0147  0.0997
  396MOL0     C53357  -1.467   3.372   0.207 -0.5377 -0.7283  0.3094
  396MOL0     C53358  -1.531   3.427   0.090  0.6643 -0.2374 -0.0608
  396MOL0     C53359  -1.656   3.385   0.068  1.1337  0.0620  0.1892
  396MOL0     C53360  -1.737   3.301   0.145  0.8435 -0.3734 -0.4799
  396MOL0     O53361  -1.872   3.274   0.129  0.1052  0.3067 -0.4291
  396MOL0     C53362  -1.933   3.293   0.000 -0.3126 -0.4924  0.1159
  396MOL0     C53363  -2.084   3.282   0.017 -0.4797 -0.4740 -0.2188
  396MOL0     C53364  -2.162   3.286  -0.114 -0.8578  0.0598 -0.4400
  396MOL0     C53365  -2.312   3.298  -0.077 -0.6255  0.1970 -0.1824
  396MOL0     C53366  -2.394   3.301  -0.213 -0.0079  0.1157  0.1826
  396MOL0     C53367  -2.545   3.320  -0.183 -0.2920  0.1953 -0.7829
  396MOL0     C53368  -2.629   3.291  -0.309 -0.3889 -0.6506 -0.8549
  396MOL0     C53369  -2.785   3.327  -0.284  0.0718  1.0666  0.0034
  396MOL0    Cl53370  -2.869   3.224  -0.164  0.4501 -0.2247  0.1573
  396MOL0     C53371  -1.675   3.258   0.259 -0.0806  0.2298  0.4281
  396MOL0     C53372  -1.545   3.290   0.291 -0.3284  0.6933 -0.2589
  396MOL0     O53373  -1.355   3.620   0.232  0.2463  0.5293 -0.1978
  396MOL0     C53374  -1.068   3.408   0.212  0.3588 -0.8133 -0.4603
  396MOL0     C53375  -0.934   3.402   0.232 -0.3223  0.5004  1.0966
  396MOL0     N53376  -0.299   2.983   0.280  0.0867 -0.3163  0.8874
  396MOL0     N53377  -0.215   2.895   0.325 -0.2590 -0.9258 -0.0177
  396MOL0     C53378   0.562   3.257   1.194 -0.3320  0.9132 -0.6121
  396MOL0     C53379   0.688   3.261   1.247  0.3314 -0.4868 -0.1884
  396MOL0     C53380   1.132   3.311   1.269 -0.0368 -0.0587  0.3374
  396MOL0     C53381   1.233   3.215   1.231  0.0943 -0.3356 -1.7280
  396MOL0     C53382   1.364   3.253   1.233 -1.1565 -0.4570 -0.0151
  396MOL0     C53383   1.408   3.384   1.261  0.8653 -0.2343 -0.7917
  396MOL0     O53384   1.525   3.445   1.248 -0.7772  0.8577 -0.3488
  396MOL0     C53385   1.639   3.357   1.237 -0.4220  0.5536 -0.0327
  396MOL0     C53386   1.763   3.437   1.250  0.5538 -0.6754 -0.5382
  396MOL0     C53387   1.884   3.340   1.243 -0.4113 -0.1965  0.1953
  396MOL0     C53388   2.016   3.411   1.285 -0.3776  0.2058 -0.5421
  396MOL0     C53389   2.013   3.485   1.418 -0.2549  0.0073  0.2426
  396MOL0     C53390   2.008   3.537   1.524  0.7762  0.5516  0.5335
  396MOL0     C53391   1.311   3.471   1.312 -0.2887 -0.4122  0.0092
  396MOL0     C53392   1.174   3.435   1.307  0.3054  0.9951 -0.5077
  396MOL0     H53393   0.809   3.538   1.100  1.6625  0.3146 -0.2942
  396MOL0     H53394   0.588   3.525   0.993 -0.6579 -0.8517 -0.9437
  396MOL0     H53395   0.315   3.239   1.204 -1.4896 -1.2076 -0.2697
  396MOL0     H53396   0.224   3.373   1.134 -0.2712 -1.0240 -0.4966
  396MOL0     H53397   0.139   3.164   1.051  1.3548 -1.0956  2.7812
  396MOL0     H53398   0.214   3.259   0.918 -0.8963 -1.4667 -1.6046
  396MOL0     H53399   0.422   3.114   0.939  1.3649  1.3189  3.0119
  396MOL0     H53400   0.364   3.033   1.078  1.8615 -0.6611 -1.4818
  396MOL0     H53401   0.329   2.905   0.881  2.0112  2.2063  0.0323
  396MOL0     H53402   0.176   2.937   0.966 -1.1165 -0.9771 -2.5920
  396MOL0     H53403   0.108   3.094   0.825  2.3850 -0.3182  3.4890
  396MOL0     H53404   0.250   3.084   0.699 -0.5256  0.2006 -1.9841
  396MOL0     H53405   0.171   2.851   0.668 -3.2512 -1.4497 -2.1072
  396MOL0     H53406   0.040   2.882   0.787 -2.2033 -1.2195 -2.8639
  396MOL0     H53407  -0.036   3.061   0.637 -1.4436 -0.6240  0.7475
  396MOL0     H53408   0.087   3.010   0.516 -1.4002  0.8352 -0.6739
  396MOL0     H53409  -0.124   2.819   0.608 -0.2545 -0.0137 -1.3316
  396MOL0     H53410  -0.025   2.800   0.466 -2.3245  0.1917 -1.5165
  396MOL0     H53411  -0.233   3.106   0.568  3.1123  0.2903 -0.0268
  396MOL0     H53412  -0.466   3.208   0.463  2.3161  0.5307  1.1152
  396MOL0     H53413  -0.346   3.287   0.356 -0.6846  0.8572  1.0182
  396MOL0     H53414  -0.576   3.109   0.268 -1.6672  1.6440 -1.1745
  396MOL0     H53415  -0.455   3.158   0.150  0.2321 -0.6001 -0.0763
  396MOL0     H53416  -0.652   3.303   0.128 -0.4840 -0.1818 -0.0737
  396MOL0     H53417  -0.521   3.400   0.177  0.0388 -0.5155  0.4776
  396MOL0     H53418  -0.588   3.389   0.410 -0.5536  1.0610 -1.4750
  396MOL0     H53419  -0.725   3.286   0.366  0.8298 -2.9449 -2.1744
  396MOL0     H53420  -0.866   3.703   0.338  2.7786 -2.6099 -0.3322
  396MOL0     H53421  -1.056   3.818   0.399  0.8739  0.5106 -1.5896
  396MOL0     H53422  -1.175   3.832   0.263 -1.0838 -0.0818  0.3344
  396MOL0     H53423  -1.199   3.746   0.425  0.4859  0.4382  0.0611
  396MOL0     H53424  -1.479   3.505   0.034 -0.1554 -0.6048 -1.3697
  396MOL0     H53425  -1.698   3.430  -0.021 -0.1727  1.8982  1.6640
  396MOL0     H53426  -1.915   3.397  -0.029  0.0073 -0.4280  0.5375
  396MOL0     H53427  -1.890   3.210  -0.056 -0.3421 -3.2324  3.7637
  396MOL0     H53428  -2.108   3.188   0.067 -1.3878  0.5155  1.2804
  396MOL0     H53429  -2.122   3.372   0.066 -0.3047 -0.5393  0.0341
  396MOL0     H53430  -2.149   3.191  -0.165 -0.1632  0.3431 -0.8066
  396MOL0     H53431  -2.121   3.368  -0.175  1.3706  0.2202  1.1370
  396MOL0     H53432  -2.347   3.216  -0.013 -0.9621  2.1427  2.2975
  396MOL0     H53433  -2.327   3.389  -0.018 -3.4881  1.4781 -2.6314
  396MOL0     H53434  -2.376   3.205  -0.263 -1.7631  0.7248 -1.7576
  396MOL0     H53435  -2.359   3.379  -0.282 -1.3856 -0.5099 -1.2936
  396MOL0     H53436  -2.582   3.243  -0.116  0.7331  0.4285  0.0787
  396MOL0     H53437  -2.559   3.416  -0.133  1.9336 -0.2429  0.8195
  396MOL0     H53438  -2.623   3.186  -0.337 -0.5292 -0.9444  0.1756
  396MOL0     H53439  -2.589   3.351  -0.391  2.3141 -1.7902 -0.4638
  396MOL0     H53440  -2.829   3.317  -0.383  0.8640  2.2577 -0.4925
  396MOL0     H53441  -2.811   3.428  -0.252 -2.4722  0.4812  0.0052
  396MOL0     H53442  -1.724   3.183   0.320  2.2245 -1.7892 -0.0779
  396MOL0     H53443  -1.495   3.256   0.381 -0.6784 -0.9214 -0.6548
  396MOL0     H53444  -1.125   3.325   0.171  0.1761 -1.7148  1.5108
  396MOL0     H53445  -0.892   3.303   0.215 -1.4072 -0.0648  1.6023
  396MOL0     H53446   0.498   3.178   1.232  1.0768 -0.0668 -0.1916
  396MOL0     H53447   0.702   3.177   1.315 -1.7563  1.0432  2.3033
  396MOL0     H53448   1.200   3.118   1.196 -1.9565  0.8744 -3.3842
  396MOL0     H53449   1.433   3.189   1.178 -2.6750  0.0405 -2.6903
  396MOL0     H53450   1.638   3.276   1.312 -2.7833  2.8467  2.6427
  396MOL0     H53451   1.625   3.306   1.141  2.3130  1.8734 -1.2485
  396MOL0     H53452   1.758   3.476   1.352 -0.8747  0.6350 -1.0763
  396MOL0     H53453   1.776   3.519   1.179 -1.4556  1.0570  0.9577
  396MOL0     H53454   1.890   3.306   1.139 -2.5120 -0.0144 -0.0281
  396MOL0     H53455   1.875   3.250   1.304 -0.3377 -0.9389 -0.8564
  396MOL0     H53456   2.034   3.489   1.210 -1.6571  0.7738 -0.2913
  396MOL0     H53457   2.096   3.336   1.282  0.2039  0.8197 -2.7706
  396MOL0     H53458   1.992   3.575   1.623  1.0476  5.2481 -0.9877
  396MOL0     H53459   1.337   3.571   1.345 -0.4741 -0.4839  0.3871
  396MOL0     H53460   1.099   3.506   1.341 -0.6023 -0.7331  1.3079
  397MOL0     O53461   5.157   7.196   9.806  0.3523  0.5859 -0.0420
  397MOL0     C53462   5.216   7.093   9.785  0.0619  0.1081 -0.4124
  397MOL0     O53463   5.157   6.973   9.758  0.0436  0.4061 -0.1862
  397MOL0     C53464   5.025   6.973   9.731  0.9796  0.0212  0.5507
  397MOL0     C53465   4.970   6.998   9.602 -0.1213 -0.3089  0.6724
  397MOL0     C53466   4.828   7.007   9.577 -0.6536  0.5624 -0.5072
  397MOL0     C53467   4.744   6.997   9.691 -0.1228  0.0821  0.1542
  397MOL0     O53468   4.604   7.005   9.697  0.2956  0.0085 -0.6695
  397MOL0     C53469   4.541   7.068   9.589  0.5456 -0.5987  0.4821
  397MOL0     C53470   4.401   7.101   9.646 -0.5165  0.5896  0.0044
  397MOL0     C53471   4.304   7.120   9.533  0.2745  0.7979 -0.9820
  397MOL0     C53472   4.162   7.146   9.576  0.0002  0.3155 -0.6187
  397MOL0     C53473   4.086   7.022   9.625 -0.8268  0.1668 -0.3402
  397MOL0     C53474   3.954   7.061   9.694 -0.0440 -0.6265 -0.4906
  397MOL0     C53475   3.871   6.942   9.743  0.3640 -0.2747 -0.6979
  397MOL0     C53476   3.919   6.898   9.887  0.1522  0.9595  0.3662
  397MOL0     N53477   3.864   6.762   9.924  0.2251 -0.1520 -0.4606
  397MOL0     C53478   3.732   6.755   9.967  0.5480  0.1915 -0.5346
  397MOL0     C53479   3.712   6.625   9.993  0.1021  0.4123 -0.7469
  397MOL0     C53480   3.591   6.540  10.025  0.1473  0.2250 -0.2381
  397MOL0     C53481   3.523   6.578  10.157 -0.1009 -0.1373  0.6141
  397MOL0     C53482   3.391   6.504  10.172  0.1997  0.5012 -0.2797
  397MOL0     C53483   3.310   6.571  10.289 -1.0851  0.4445 -0.6697
  397MOL0     O53484   3.177   6.516  10.279  0.5007  0.2350  0.3169
  397MOL0     C53485   3.074   6.598  10.340 -0.6034  0.6271 -0.1865
  397MOL0     C53486   3.079   6.730  10.364 -0.9690  0.2804 -0.2508
  397MOL0     C53487   2.967   6.815  10.398 -0.6234  0.2499  1.3327
  397MOL0     C53488   2.988   6.960  10.420  0.2728  0.0375  0.5744
  397MOL0     C53489   2.843   6.750  10.410 -0.5895 -0.0374  0.4982
  397MOL0     C53490   2.710   6.807  10.441  0.2924  0.2976  0.6042
  397MOL0     O53491   2.602   6.747  10.393  0.5600  0.1582 -0.1732
  397MOL0     C53492   2.483   6.806  10.417 -0.1020 -0.0842  0.1261
  397MOL0     C53493   2.381   6.727  10.463  0.0992  0.5135 -0.4699
  397MOL0     C53494   2.253   6.774  10.485  0.0907 -0.2136 -0.3539
  397MOL0     C53495   2.209   6.911  10.457 -0.5944 -0.7615 -0.8084
  397MOL0     O53496   2.082   6.958  10.480  0.0037  0.2238 -0.0301
  397MOL0     C53497   1.987   6.864  10.534 -0.0280 -0.4757 -0.0100
  397MOL0     C53498   1.849   6.934  10.522 -0.4935  0.1587  0.5121
  397MOL0     C53499   1.834   7.056  10.610 -0.0604  0.2684 -0.0953
  397MOL0     C53500   1.698   7.120  10.586  0.2318 -0.3869  0.1236
  397MOL0     C53501   1.679   7.239  10.688  0.1502  0.4420 -0.8071
  397MOL0     C53502   1.554   7.322  10.649  0.5963  0.1510  0.2994
  397MOL0     C53503   1.417   7.255  10.657  0.3906 -0.7073  0.1796
  397MOL0     C53504   1.304   7.353  10.626  0.7322  0.2635 -0.4823
  397MOL0    Cl53505   1.323   7.412  10.454  0.1786  0.5108 -0.3988
  397MOL0     C53506   2.321   7.002  10.426  0.4935 -0.2942  0.3609
  397MOL0     C53507   2.453   6.945  10.407  0.0519  0.0979  0.1796
  397MOL0     O53508   2.717   6.911  10.506  0.8169 -0.4944 -0.0318
  397MOL0     C53509   2.831   6.614  10.385 -0.1924  0.5071 -0.2699
  397MOL0     C53510   2.943   6.545  10.348  0.9596  0.3199  0.1634
  397MOL0     N53511   3.837   6.568   9.978  1.1832  0.4319 -0.2261
  397MOL0     N53512   3.929   6.647   9.951  0.0150  0.0641  0.3657
  397MOL0     C53513   4.796   6.984   9.817 -0.2265 -0.3119 -0.9123
  397MOL0     C53514   4.933   6.970   9.838  0.6852  0.4866 -0.1293
  397MOL0     C53515   5.370   7.095   9.791 -0.5312 -0.2725  0.1906
  397MOL0     C53516   5.455   6.994   9.742  0.0657 -0.7346 -0.0208
  397MOL0     C53517   5.599   7.009   9.760  0.8998  0.7077 -1.2193
  397MOL0     C53518   5.645   7.107   9.843 -0.9138  0.0570  0.0831
  397MOL0     O53519   5.780   7.111   9.871  0.0036  0.7206  0.1188
  397MOL0     C53520   5.837   7.242   9.849 -0.0614  0.9109 -0.7920
  397MOL0     C53521   5.991   7.244   9.836  0.7547 -0.3140  0.4507
  397MOL0     C53522   6.062   7.206   9.956 -0.2315  0.4132  0.0764
  397MOL0     C53523   6.219   7.201   9.934  0.2589  0.5758 -0.6382
  397MOL0     C53524   6.266   7.133  10.051 -1.4723  0.2297  0.4586
  397MOL0     C53525   6.319   7.089  10.150 -0.8478  0.1267 -0.2678
  397MOL0     C53526   5.555   7.192   9.904 -0.0186  0.0474  0.8305
  397MOL0     C53527   5.422   7.192   9.875  0.2813  0.0842  0.6021
  397MOL0     H53528   5.047   7.012   9.527 -2.2509 -0.8482 -1.7440
  397MOL0     H53529   4.778   7.006   9.481 -1.0500  2.0162 -0.3433
  397MOL0     H53530   4.592   7.162   9.563 -0.5341  0.2862  1.4429
  397MOL0     H53531   4.531   6.999   9.505 -2.1575 -2.1077  1.9162
  397MOL0     H53532   4.368   7.029   9.722  1.4724 -0.3716  0.0142
  397MOL0     H53533   4.416   7.200   9.690 -0.5388  0.7500 -0.3424
  397MOL0     H53534   4.353   7.196   9.471  2.3213  1.5900  1.4115
  397MOL0     H53535   4.306   7.027   9.476 -2.9103  0.5110 -0.7789
  397MOL0     H53536   4.173   7.225   9.651  2.3728  0.1874 -0.7409
  397MOL0     H53537   4.103   7.182   9.492  0.0091  0.9432 -0.3574
  397MOL0     H53538   4.072   6.961   9.535  0.2723  1.0397 -1.1313
  397MOL0     H53539   4.139   6.964   9.701 -0.1333 -1.0165 -1.6816
  397MOL0     H53540   3.972   7.123   9.782  0.1663 -0.9861 -0.2813
  397MOL0     H53541   3.891   7.119   9.626 -2.6548  1.1736  3.1268
  397MOL0     H53542   3.764   6.968   9.744  0.1768 -1.0288 -0.9791
  397MOL0     H53543   3.877   6.861   9.670  3.1406 -0.8337  0.0522
  397MOL0     H53544   3.893   6.974   9.961 -0.1604  1.5378 -0.3279
  397MOL0     H53545   4.028   6.887   9.877  0.2507  2.4428 -0.3892
  397MOL0     H53546   3.661   6.838   9.971 -0.0158 -0.3267  0.9412
  397MOL0     H53547   3.529   6.548   9.935  1.9675 -0.5307 -1.6125
  397MOL0     H53548   3.616   6.434  10.035 -1.8857 -0.4979 -2.0660
  397MOL0     H53549   3.500   6.683  10.141  2.8098  0.5640  0.5057
  397MOL0     H53550   3.590   6.561  10.243  0.8450  0.0427 -0.0701
  397MOL0     H53551   3.413   6.397  10.183  0.4720  0.8490  4.1341
  397MOL0     H53552   3.335   6.514  10.078  1.0312 -1.9061 -1.1239
  397MOL0     H53553   3.324   6.679  10.287  0.2822  0.2943 -0.0120
  397MOL0     H53554   3.343   6.540  10.389 -1.2556 -0.8093 -0.9822
  397MOL0     H53555   3.169   6.785  10.337  0.2181 -1.0620  0.8022
  397MOL0     H53556   2.979   6.978  10.528  1.0210  0.6504  0.5356
  397MOL0     H53557   3.088   6.985  10.384  0.6502 -1.8586  0.1765
  397MOL0     H53558   2.925   7.034  10.370  2.3774  2.1857  0.9365
  397MOL0     H53559   2.404   6.621  10.468  1.0362  0.6658 -1.3625
  397MOL0     H53560   2.179   6.700  10.515 -2.4138  2.0781 -0.5802
  397MOL0     H53561   1.984   6.774  10.472 -0.1742  0.8675 -2.0336
  397MOL0     H53562   2.012   6.836  10.637  0.2003  0.6097  0.2405
  397MOL0     H53563   1.827   6.957  10.417 -4.4894  1.6055  1.5008
  397MOL0     H53564   1.768   6.867  10.550 -1.5572  1.5902  0.9777
  397MOL0     H53565   1.903   7.140  10.597 -1.0210  1.2545  0.8776
  397MOL0     H53566   1.831   7.031  10.717 -0.3413  3.0239  0.6161
  397MOL0     H53567   1.677   7.146  10.482  3.7826 -1.9098 -1.1186
  397MOL0     H53568   1.630   7.041  10.619  2.2975 -1.2955  2.6732
  397MOL0     H53569   1.768   7.299  10.671 -0.4281  1.2068 -1.1761
  397MOL0     H53570   1.669   7.195  10.788 -1.0636  1.2090 -0.5691
  397MOL0     H53571   1.547   7.414  10.707  0.6726  0.9632 -0.9254
  397MOL0     H53572   1.574   7.348  10.544  2.3715  1.5738  0.9360
  397MOL0     H53573   1.402   7.228  10.762  1.4068  1.6092  0.9910
  397MOL0     H53574   1.412   7.169  10.589  3.7292 -0.3103 -0.7628
  397MOL0     H53575   1.317   7.447  10.681 -1.5900  0.4130 -0.0527
  397MOL0     H53576   1.203   7.319  10.650  0.8487  0.4012  0.2278
  397MOL0     H53577   2.301   7.109  10.428  4.6054  0.7411 -2.3465
  397MOL0     H53578   2.527   7.018  10.374  1.4933 -0.8135  1.2751
  397MOL0     H53579   2.736   6.563  10.392 -0.7836  1.2736 -2.1240
  397MOL0     H53580   2.929   6.438  10.332  1.4463  0.2589  0.1441
  397MOL0     H53581   4.740   6.959   9.906  2.2955 -1.7739  0.3727
  397MOL0     H53582   4.966   6.973   9.941 -0.7040 -0.5229  0.3787
  397MOL0     H53583   5.417   6.907   9.689 -1.6096 -0.9453  1.4183
  397MOL0     H53584   5.668   6.939   9.715 -1.0095 -2.5475  0.4999
  397MOL0     H53585   5.800   7.281   9.754  1.6497  1.1854 -1.3784
  397MOL0     H53586   5.805   7.305   9.933  0.4349 -0.9005  0.8398
  397MOL0     H53587   6.018   7.348   9.817  0.5692  0.0948  2.2403
  397MOL0     H53588   6.035   7.179   9.760  0.2871 -1.5661  1.2280
  397MOL0     H53589   6.027   7.103   9.970  0.2741 -0.4554 -3.8699
  397MOL0     H53590   6.031   7.257  10.048 -1.5921  4.2179 -2.2468
  397MOL0     H53591   6.262   7.300   9.916 -1.1197  1.0613 -1.4163
  397MOL0     H53592   6.239   7.137   9.847  0.3744 -0.4997  0.1492
  397MOL0     H53593   6.360   7.055  10.243  1.2884  0.3112 -1.0984
  397MOL0     H53594   5.594   7.273   9.964  2.4628 -0.0117 -0.5612
  397MOL0     H53595   5.357   7.268   9.917 -1.1403  1.0607 -2.9368
  398MOL0     O53596   0.064   7.325   6.116 -0.7827  0.2181  0.4189
  398MOL0     C53597  -0.008   7.241   6.050 -0.0809 -0.5393  0.5053
  398MOL0     O53598   0.042   7.153   5.966  1.1156 -0.4611 -0.4844
  398MOL0     C53599   0.175   7.134   5.953 -0.6908  0.2520 -0.9886
  398MOL0     C53600   0.258   7.235   5.901 -0.5382 -0.3620  0.4131
  398MOL0     C53601   0.396   7.224   5.887  0.7393  0.7848  0.5339
  398MOL0     C53602   0.449   7.087   5.897 -0.3356  0.7016  0.6553
  398MOL0     O53603   0.577   7.041   5.877 -0.6309 -0.1326  0.1752
  398MOL0     C53604   0.670   7.145   5.832  0.2331 -0.8639 -0.1865
  398MOL0     C53605   0.791   7.066   5.783 -0.1335  0.5752 -0.0399
  398MOL0     C53606   0.907   7.162   5.743 -0.7217  0.0703 -0.4713
  398MOL0     C53607   1.012   7.109   5.648 -1.0035  0.0228 -0.0868
  398MOL0     C53608   1.126   7.208   5.604  1.2200  0.4556  0.5370
  398MOL0     C53609   1.055   7.316   5.512 -0.7106  0.7562 -0.5836
  398MOL0     C53610   1.160   7.373   5.421 -0.2742 -0.5026 -0.3599
  398MOL0     C53611   1.281   7.447   5.494  0.2683 -0.0739 -0.5449
  398MOL0     N53612   1.243   7.553   5.586  0.6520 -0.1774  0.0055
  398MOL0     C53613   1.185   7.672   5.546 -0.1067  0.1066  0.4203
  398MOL0     C53614   1.168   7.742   5.669 -0.5433  0.1386 -0.6373
  398MOL0     C53615   1.124   7.879   5.699  0.4071  0.2542  0.0101
  398MOL0     C53616   0.974   7.899   5.719 -0.4365 -0.3142  0.0077
  398MOL0     C53617   0.884   7.872   5.593 -0.9757  0.0238 -0.1355
  398MOL0     C53618   0.741   7.924   5.610  0.8764  0.5483 -0.1642
  398MOL0     O53619   0.730   8.068   5.637  0.2856 -0.2658  0.4495
  398MOL0     C53620   0.607   8.118   5.687  0.0806 -1.1201 -0.1829
  398MOL0     C53621   0.489   8.046   5.719  1.0673  0.9245 -0.1048
  398MOL0     C53622   0.376   8.107   5.775  0.0651  0.0839  0.3418
  398MOL0     C53623   0.252   8.029   5.806  0.6585 -0.0377 -0.0980
  398MOL0     C53624   0.382   8.244   5.804 -0.5103 -0.3179  0.1973
  398MOL0     C53625   0.271   8.336   5.846  0.4723  0.2491  0.5579
  398MOL0     O53626   0.302   8.462   5.847  0.2880  0.4594 -0.3710
  398MOL0     C53627   0.225   8.558   5.901  0.8597 -0.4162 -0.0450
  398MOL0     C53628   0.230   8.687   5.842 -0.0478 -0.4998 -0.0484
  398MOL0     C53629   0.145   8.790   5.887  0.6771  0.5012 -0.7946
  398MOL0     C53630   0.072   8.777   6.003 -0.3527 -0.6656 -0.1724
  398MOL0     O53631   0.021   8.898   6.046  0.3922  0.3926  0.1849
  398MOL0     C53632  -0.085   8.897   6.147  0.7143  0.4876  0.5040
  398MOL0     C53633  -0.042   8.880   6.287  0.0561  0.2698  0.3158
  398MOL0     C53634  -0.142   8.937   6.388 -0.7905  0.1585  0.0467
  398MOL0     C53635  -0.275   8.853   6.392 -0.5500 -0.4178  0.9854
  398MOL0     C53636  -0.382   8.922   6.485 -1.1949 -0.2557 -0.5436
  398MOL0     C53637  -0.518   8.864   6.453  0.1351 -0.1076 -0.2990
  398MOL0     C53638  -0.615   8.887   6.570  0.4564  0.3164 -0.1128
  398MOL0     C53639  -0.761   8.900   6.535  0.7328 -0.3054  1.2041
  398MOL0    Cl53640  -0.811   8.726   6.493  0.3789 -0.0509 -0.0609
  398MOL0     C53641   0.078   8.657   6.071 -0.6731 -0.5097 -0.4008
  398MOL0     C53642   0.152   8.544   6.020  0.3457  0.2006  0.0117
  398MOL0     O53643   0.154   8.292   5.852 -0.2561 -1.2749  0.0886
  398MOL0     C53644   0.503   8.317   5.776  0.3836  0.1548 -0.4804
  398MOL0     C53645   0.614   8.257   5.710  0.2903 -0.2225  0.9458
  398MOL0     N53646   1.204   7.659   5.772  0.1900 -0.4837  0.1331
  398MOL0     N53647   1.246   7.546   5.723 -1.0953  0.0230  0.0292
  398MOL0     C53648   0.363   6.989   5.942 -0.3267  0.2587 -0.7833
  398MOL0     C53649   0.234   7.009   5.977 -0.1580 -0.0353 -0.5833
  398MOL0     C53650  -0.154   7.262   6.029  0.4799  0.2291  0.2594
  398MOL0     C53651  -0.216   7.363   6.098  0.0982 -0.3058  0.1372
  398MOL0     C53652  -0.350   7.394   6.081  0.1340  0.1054  0.4106
  398MOL0     C53653  -0.426   7.329   5.988 -0.4308 -0.0650  0.6784
  398MOL0     O53654  -0.550   7.360   5.965 -0.6521 -0.0753 -1.0272
  398MOL0     C53655  -0.639   7.396   6.066  0.8514  0.5895 -0.0725
  398MOL0     C53656  -0.774   7.320   6.064 -0.8572  0.4147  1.0432
  398MOL0     C53657  -0.867   7.399   5.970 -0.3437  0.7015 -0.8409
  398MOL0     C53658  -0.818   7.392   5.820 -0.2767 -0.0379 -0.1214
  398MOL0     C53659  -0.919   7.445   5.735  0.4790  0.0917  0.2295
  398MOL0     C53660  -1.014   7.463   5.659  0.5460 -0.5791  0.2021
  398MOL0     C53661  -0.362   7.224   5.904 -0.1527  0.0708 -0.4268
  398MOL0     C53662  -0.229   7.184   5.930 -0.4711  0.4860  0.3052
  398MOL0     H53663   0.207   7.327   5.875 -1.2933 -0.9671 -0.2862
  398MOL0     H53664   0.452   7.314   5.865  0.9558 -0.0312 -2.8841
  398MOL0     H53665   0.628   7.195   5.744  0.2716  2.3524  1.4877
  398MOL0     H53666   0.690   7.220   5.909 -0.8610 -1.0297  0.2726
  398MOL0     H53667   0.824   6.987   5.850  1.0811 -3.9038 -5.2756
  398MOL0     H53668   0.765   7.011   5.692  1.8027  3.0942 -2.2955
  398MOL0     H53669   0.863   7.246   5.688 -2.4608 -0.4958 -0.0226
  398MOL0     H53670   0.961   7.186   5.835 -0.6439 -1.2826 -0.1453
  398MOL0     H53671   1.066   7.033   5.705  0.9610  1.2512 -0.2057
  398MOL0     H53672   0.949   7.061   5.572 -3.4122 -0.3262  2.0094
  398MOL0     H53673   1.161   7.252   5.697  0.9992  0.8197  0.4493
  398MOL0     H53674   1.204   7.154   5.549  1.0436 -0.6089  1.3085
  398MOL0     H53675   0.985   7.269   5.442 -0.9348  1.4441 -0.8314
  398MOL0     H53676   1.017   7.395   5.576  2.7511 -0.3597  3.2790
  398MOL0     H53677   1.210   7.294   5.364  4.0372 -0.0611  2.3048
  398MOL0     H53678   1.119   7.454   5.360 -3.0295  0.0088  1.9919
  398MOL0     H53679   1.345   7.493   5.418 -1.5044  0.9606 -1.4796
  398MOL0     H53680   1.337   7.367   5.543 -1.6962  1.0541  3.9905
  398MOL0     H53681   1.175   7.712   5.445 -0.2466 -0.4387  0.2147
  398MOL0     H53682   1.167   7.905   5.796  1.3408 -1.2657  0.0350
  398MOL0     H53683   1.168   7.942   5.621  3.4780 -0.0068  1.4049
  398MOL0     H53684   0.965   8.006   5.739  0.9999 -0.3301  0.8787
  398MOL0     H53685   0.932   7.846   5.805 -0.6726 -3.0496 -1.6481
  398MOL0     H53686   0.881   7.763   5.580  1.5573  0.1393 -2.5397
  398MOL0     H53687   0.930   7.914   5.503  1.7605 -0.6487  0.8574
  398MOL0     H53688   0.697   7.868   5.694  2.5313 -1.5772 -0.6049
  398MOL0     H53689   0.683   7.900   5.521  0.4108  0.8058  0.0651
  398MOL0     H53690   0.478   7.941   5.695  0.6097  1.1070 -0.7219
  398MOL0     H53691   0.167   8.071   5.751  2.1246  2.4117 -0.6549
  398MOL0     H53692   0.259   7.920   5.797 -2.3975 -0.3414  0.0095
  398MOL0     H53693   0.230   8.047   5.912 -3.1147 -1.5381 -0.4639
  398MOL0     H53694   0.304   8.693   5.763 -0.6818  1.3912 -0.5519
  398MOL0     H53695   0.158   8.886   5.837  0.4649  1.6975  1.3159
  398MOL0     H53696  -0.135   8.993   6.137  2.3973  1.6018  2.0547
  398MOL0     H53697  -0.162   8.825   6.118  0.0175  0.7763  1.5943
  398MOL0     H53698  -0.033   8.774   6.313 -4.4225  0.2071  2.5806
  398MOL0     H53699   0.055   8.929   6.294  1.1070 -1.5398 -0.8650
  398MOL0     H53700  -0.160   9.044   6.371  1.2198  0.3708 -1.1257
  398MOL0     H53701  -0.094   8.934   6.487  0.5606 -2.3061 -0.6042
  398MOL0     H53702  -0.312   8.842   6.290 -0.8031 -2.3160  1.2525
  398MOL0     H53703  -0.252   8.752   6.428  0.7427 -0.4790  0.0523
  398MOL0     H53704  -0.365   9.030   6.477  1.3568 -0.6263 -0.9247
  398MOL0     H53705  -0.352   8.907   6.589 -2.2492  4.0445  0.5707
  398MOL0     H53706  -0.554   8.916   6.364 -1.4032  0.0309  0.3656
  398MOL0     H53707  -0.514   8.755   6.445 -1.0489 -0.1612 -0.3611
  398MOL0     H53708  -0.583   8.982   6.614  1.0707  0.0722 -0.0196
  398MOL0     H53709  -0.596   8.822   6.655  0.7076  1.6455  0.8838
  398MOL0     H53710  -0.782   8.977   6.460  1.4805 -1.1431  0.0953
  398MOL0     H53711  -0.820   8.924   6.624  0.3799  0.2139  0.8328
  398MOL0     H53712   0.032   8.636   6.167  3.1950 -0.6708  1.5893
  398MOL0     H53713   0.163   8.454   6.079 -0.1925 -1.4513 -2.2742
  398MOL0     H53714   0.512   8.425   5.774  0.6094  0.1488 -0.0597
  398MOL0     H53715   0.702   8.314   5.680  0.2076 -0.7137 -0.2891
  398MOL0     H53716   0.396   6.886   5.934 -1.3744 -0.2978  1.3772
  398MOL0     H53717   0.168   6.929   6.010 -0.4468  1.1672  2.0187
  398MOL0     H53718  -0.170   7.423   6.175 -0.7870 -0.8064  1.0822
  398MOL0     H53719  -0.402   7.470   6.139 -3.1742  1.1335 -3.4369
  398MOL0     H53720  -0.598   7.397   6.167  1.1037  1.5223 -0.1767
  398MOL0     H53721  -0.663   7.501   6.045 -1.3925  0.1601  0.1153
  398MOL0     H53722  -0.823   7.302   6.160 -1.0509  3.0647  1.5193
  398MOL0     H53723  -0.771   7.216   6.031  1.7407 -0.3464  3.3999
  398MOL0     H53724  -0.884   7.501   6.004  0.4231  0.5280  0.1112
  398MOL0     H53725  -0.963   7.346   5.973 -1.3014  2.2550 -2.1446
  398MOL0     H53726  -0.781   7.296   5.782  0.8231  1.6673 -3.8358
  398MOL0     H53727  -0.732   7.458   5.802 -1.1608  1.7488  1.7507
  398MOL0     H53728  -1.084   7.486   5.582  0.4290  3.0425  1.2054
  398MOL0     H53729  -0.428   7.165   5.841 -0.5745 -1.6156  1.4864
  398MOL0     H53730  -0.184   7.108   5.867  2.5868  1.1952  1.4399
  399MOL0     O53731   7.379   5.401   0.717  0.8950  0.4447  0.0300
  399MOL0     C53732   7.407   5.521   0.730  0.4489 -0.5684  0.3924
  399MOL0     O53733   7.345   5.618   0.660 -0.3593 -0.7162  0.0843
  399MOL0     C53734   7.271   5.584   0.551  0.8662 -0.4093 -0.4133
  399MOL0     C53735   7.319   5.504   0.446 -0.0161  0.2366 -0.3766
  399MOL0     C53736   7.244   5.484   0.332  0.0937  0.7374  0.0483
  399MOL0     C53737   7.115   5.533   0.327 -0.1387  0.8271  0.4228
  399MOL0     O53738   7.030   5.509   0.222  0.3965  0.1031  0.2016
  399MOL0     C53739   7.046   5.388   0.145 -0.5145 -0.0847  0.0416
  399MOL0     C53740   6.931   5.352   0.047  0.0457  0.1556  0.9205
  399MOL0     C53741   6.799   5.342   0.118  0.0474 -0.5554 -0.7711
  399MOL0     C53742   6.689   5.303   0.024  0.0794  0.0341  0.3140
  399MOL0     C53743   6.670   5.404  -0.093 -0.1610  0.9603 -0.1736
  399MOL0     C53744   6.565   5.343  -0.190  0.2249 -0.7786 -0.9631
  399MOL0     C53745   6.515   5.434  -0.304  0.2969  0.6961  0.4891
  399MOL0     C53746   6.623   5.472  -0.407 -0.7389  0.4957 -0.4329
  399MOL0     N53747   6.715   5.366  -0.446  0.0424 -0.2020  0.4278
  399MOL0     C53748   6.696   5.273  -0.550  0.0159 -0.9256  0.0244
  399MOL0     C53749   6.810   5.201  -0.531  0.2695 -0.0740 -0.5664
  399MOL0     C53750   6.848   5.097  -0.627  0.0948 -0.3010 -0.2529
  399MOL0     C53751   6.838   4.953  -0.579  0.2888  0.3523  0.2335
  399MOL0     C53752   6.908   4.853  -0.673  0.1415 -0.5711  0.6400
  399MOL0     C53753   6.809   4.807  -0.785  0.0824  0.2052  0.1407
  399MOL0     O53754   6.695   4.740  -0.718  0.6333  0.7204 -0.1391
  399MOL0     C53755   6.574   4.742  -0.778 -0.1077 -0.5015  0.5893
  399MOL0     C53756   6.540   4.699  -0.910  0.7774 -0.7624  0.7331
  399MOL0     C53757   6.406   4.694  -0.949  0.2627 -0.5602 -0.2688
  399MOL0     C53758   6.394   4.666  -1.098  0.2546  0.3441  0.0335
  399MOL0     C53759   6.301   4.718  -0.856 -0.1683 -0.5286 -0.2327
  399MOL0     C53760   6.156   4.706  -0.885 -0.4920  0.0579  0.7845
  399MOL0     O53761   6.128   4.649  -1.004  0.4536 -0.3532 -0.2959
  399MOL0     C53762   5.998   4.618  -1.043  0.4563 -0.1691 -1.3918
  399MOL0     C53763   5.877   4.620  -0.975 -0.0462  0.2505 -0.3346
  399MOL0     C53764   5.759   4.578  -1.040  0.2972  0.7104  0.3286
  399MOL0     C53765   5.762   4.528  -1.171 -0.3135  0.3348  0.0120
  399MOL0     O53766   5.648   4.484  -1.237  0.0435 -0.2091  0.4378
  399MOL0     C53767   5.523   4.532  -1.200  0.5613 -0.0712  0.1312
  399MOL0     C53768   5.419   4.501  -1.313 -0.3321  0.3060 -0.3793
  399MOL0     C53769   5.284   4.556  -1.269 -0.9066  0.1408  0.4546
  399MOL0     C53770   5.185   4.527  -1.383  0.2642  0.1090  0.4804
  399MOL0     C53771   5.038   4.574  -1.348  0.0994 -0.2843  0.3691
  399MOL0     C53772   4.924   4.518  -1.441  0.4272 -0.4801 -0.2764
  399MOL0     C53773   4.905   4.359  -1.425  0.4968  0.2273 -0.4855
  399MOL0     C53774   4.759   4.309  -1.417  0.6649 -1.0935  0.0987
  399MOL0    Cl53775   4.691   4.331  -1.578 -0.1345  0.1388  0.1774
  399MOL0     C53776   5.884   4.507  -1.233  0.0741 -0.3504 -0.2148
  399MOL0     C53777   6.003   4.548  -1.167 -0.0719 -0.2507 -0.4443
  399MOL0     O53778   6.068   4.763  -0.816 -0.0583 -0.4579 -0.0206
  399MOL0     C53779   6.333   4.762  -0.728 -0.4795 -0.8450 -1.1011
  399MOL0     C53780   6.468   4.772  -0.687 -0.3449 -0.7186  0.1801
  399MOL0     N53781   6.894   5.252  -0.431 -0.3954 -0.5463  0.2864
  399MOL0     N53782   6.837   5.363  -0.392 -0.5999 -0.2149  0.1956
  399MOL0     C53783   7.068   5.604   0.434 -0.4204  0.2402 -0.1766
  399MOL0     C53784   7.145   5.635   0.548 -0.8253 -0.4943 -0.0261
  399MOL0     C53785   7.516   5.557   0.818  0.1606  0.1696  0.6443
  399MOL0     C53786   7.570   5.474   0.917 -0.3121  1.0003  0.4392
  399MOL0     C53787   7.684   5.511   0.978  0.9752  0.3477  0.4786
  399MOL0     C53788   7.751   5.632   0.951  0.3528  0.3959 -0.1849
  399MOL0     O53789   7.863   5.649   1.024 -0.5693  0.4962 -0.5324
  399MOL0     C53790   7.949   5.760   0.983  0.1043  0.5573 -0.0058
  399MOL0     C53791   8.091   5.754   1.051  0.6457  0.1193  0.1958
  399MOL0     C53792   8.170   5.880   1.015  0.8340 -0.8171 -0.2405
  399MOL0     C53793   8.295   5.879   1.099 -0.0345  0.5292 -0.7092
  399MOL0     C53794   8.412   5.815   1.038  0.5771  0.6174 -0.4978
  399MOL0     C53795   8.499   5.749   0.985 -0.8170 -0.0754  0.0575
  399MOL0     C53796   7.688   5.726   0.870 -0.0990 -0.8600  0.4869
  399MOL0     C53797   7.569   5.687   0.810 -0.0650  0.2015  0.2346
  399MOL0     H53798   7.425   5.481   0.460  0.8846  2.8314 -2.1442
  399MOL0     H53799   7.280   5.416   0.255  1.9759  1.5191  0.1674
  399MOL0     H53800   7.134   5.401   0.083  1.1255 -0.0255  2.2623
  399MOL0     H53801   7.052   5.313   0.225 -1.1429  2.2846  2.4554
  399MOL0     H53802   6.927   5.433  -0.026  0.9973 -1.1091 -0.5928
  399MOL0     H53803   6.944   5.259  -0.010  1.4943  0.3468  0.9100
  399MOL0     H53804   6.821   5.265   0.193 -0.2084  1.0735  1.0506
  399MOL0     H53805   6.785   5.439   0.166  0.0792 -1.9886  2.3995
  399MOL0     H53806   6.725   5.206  -0.011  1.3633 -0.3933  2.6668
  399MOL0     H53807   6.594   5.287   0.077 -0.4601 -0.3584 -0.7317
  399MOL0     H53808   6.643   5.498  -0.043 -0.8959  0.7114 -0.0909
  399MOL0     H53809   6.763   5.426  -0.145  0.6033  0.8777  1.1004
  399MOL0     H53810   6.595   5.248  -0.237  4.2915 -2.1269  3.4587
  399MOL0     H53811   6.476   5.316  -0.131 -1.0848 -2.2848 -3.4607
  399MOL0     H53812   6.443   5.370  -0.356 -1.3666  1.4753  1.7520
  399MOL0     H53813   6.464   5.520  -0.260  0.2132  1.8147 -1.6394
  399MOL0     H53814   6.682   5.556  -0.368 -1.1932  0.6611 -0.0908
  399MOL0     H53815   6.573   5.519  -0.493 -0.2343 -2.1681 -2.3098
  399MOL0     H53816   6.626   5.269  -0.632  0.6004  2.0033 -0.7421
  399MOL0     H53817   6.774   5.095  -0.707  0.3212 -0.6166 -0.4601
  399MOL0     H53818   6.949   5.117  -0.664  0.6887 -1.4966  0.6379
  399MOL0     H53819   6.731   4.932  -0.565  0.7581 -2.3279  0.2745
  399MOL0     H53820   6.883   4.943  -0.480  0.1564  0.5012  0.3092
  399MOL0     H53821   6.947   4.772  -0.609  1.1969 -0.5738  0.0200
  399MOL0     H53822   6.986   4.906  -0.728 -0.0053  0.1528  1.1206
  399MOL0     H53823   6.868   4.740  -0.849  2.0258 -1.0547  3.0202
  399MOL0     H53824   6.796   4.901  -0.840  1.6581 -0.5334 -1.6049
  399MOL0     H53825   6.613   4.682  -0.988 -0.7949 -1.1959 -0.7023
  399MOL0     H53826   6.341   4.570  -1.101  0.0363  0.2734  2.9772
  399MOL0     H53827   6.334   4.749  -1.137  0.2569  1.0202  1.4170
  399MOL0     H53828   6.490   4.655  -1.150  1.1365 -1.7213  1.9540
  399MOL0     H53829   5.870   4.665  -0.876 -0.9152 -0.2423 -0.1600
  399MOL0     H53830   5.673   4.595  -0.977 -0.3969  0.0083 -0.4203
  399MOL0     H53831   5.498   4.483  -1.106  0.9675 -1.6507 -0.5525
  399MOL0     H53832   5.543   4.640  -1.194  0.4524 -0.0129 -0.5078
  399MOL0     H53833   5.454   4.545  -1.407 -1.5941 -0.2438 -1.1334
  399MOL0     H53834   5.419   4.393  -1.328  0.2132  0.5798 -2.8132
  399MOL0     H53835   5.300   4.664  -1.260  3.1163 -0.1402 -1.0228
  399MOL0     H53836   5.254   4.515  -1.173  1.5198  1.6867  1.9766
  399MOL0     H53837   5.227   4.567  -1.476  3.8313  0.6277  2.1421
  399MOL0     H53838   5.188   4.417  -1.384 -0.7378  0.0018  2.9124
  399MOL0     H53839   5.041   4.683  -1.351  1.1858 -0.1867  2.7224
  399MOL0     H53840   5.021   4.547  -1.244  1.5410  0.2083  0.7541
  399MOL0     H53841   4.828   4.553  -1.401  0.3445 -0.8784 -0.1232
  399MOL0     H53842   4.927   4.550  -1.546 -0.8568 -2.4459 -0.9819
  399MOL0     H53843   4.947   4.324  -1.330  1.0176 -1.0696 -1.1733
  399MOL0     H53844   4.947   4.313  -1.515  4.0621  1.6051  0.2907
  399MOL0     H53845   4.701   4.377  -1.353  0.4899 -0.5951 -0.5840
  399MOL0     H53846   4.742   4.203  -1.391 -0.7194 -0.9939 -0.3113
  399MOL0     H53847   5.885   4.455  -1.329 -2.2329 -0.0920 -0.4427
  399MOL0     H53848   6.090   4.520  -1.225 -1.6851 -2.3814 -1.9864
  399MOL0     H53849   6.259   4.790  -0.654  1.2511  0.2355  0.3135
  399MOL0     H53850   6.483   4.782  -0.580 -1.3638 -2.3807  0.5091
  399MOL0     H53851   6.964   5.635   0.445 -0.9744 -2.1551  2.4582
  399MOL0     H53852   7.105   5.695   0.629  0.8445 -1.0144  1.2357
  399MOL0     H53853   7.516   5.382   0.934 -0.0168  0.1149 -2.6762
  399MOL0     H53854   7.724   5.453   1.060  2.1284  0.3637 -0.0616
  399MOL0     H53855   7.957   5.760   0.874  0.0394 -1.9985 -0.0627
  399MOL0     H53856   7.908   5.855   1.020 -0.9702 -0.7036  2.2487
  399MOL0     H53857   8.139   5.662   1.017  0.6277 -0.3530  1.3788
  399MOL0     H53858   8.070   5.743   1.158 -1.6820 -0.9486 -0.3073
  399MOL0     H53859   8.111   5.966   1.048 -0.3990 -2.2141  1.3561
  399MOL0     H53860   8.189   5.886   0.907 -1.1082  3.4755 -0.5563
  399MOL0     H53861   8.272   5.831   1.195  0.3394  3.1475  0.7612
  399MOL0     H53862   8.329   5.979   1.124 -2.0092  1.3878 -1.2478
  399MOL0     H53863   8.564   5.671   0.953 -0.1936  0.9596 -1.2741
  399MOL0     H53864   7.752   5.798   0.820 -0.9320 -2.2406 -2.8780
  399MOL0     H53865   7.528   5.756   0.738  0.4534 -0.2154 -0.4797
  400MOL0     O53866   9.907   3.355   3.563  0.7383 -0.1724  0.5385
  400MOL0     C53867   9.955   3.246   3.594 -0.4875 -0.6176  0.7713
  400MOL0     O53868   9.910   3.122   3.557  0.8901  0.1380 -0.1946
  400MOL0     C53869   9.794   3.111   3.492 -0.0847 -0.6852  0.4959
  400MOL0     C53870   9.669   3.158   3.540 -0.2224  0.0725 -0.2498
  400MOL0     C53871   9.552   3.137   3.460 -0.1718 -0.2437 -0.8007
  400MOL0     C53872   9.553   3.081   3.339  0.0710 -0.4450  0.5125
  400MOL0     O53873   9.446   3.051   3.265 -0.3470  0.2482  0.0065
  400MOL0     C53874   9.358   3.155   3.228  0.0567 -0.7679  0.3189
  400MOL0     C53875   9.381   3.199   3.086  0.2670  0.4700 -0.2493
  400MOL0     C53876   9.338   3.108   2.963  0.7163  0.0755 -0.2553
  400MOL0     C53877   9.189   3.101   2.919 -0.6017  0.0583  0.1964
  400MOL0     C53878   9.150   3.026   2.783  0.2336  0.5007 -0.0060
  400MOL0     C53879   9.206   2.874   2.783  0.8144 -0.9312  0.0357
  400MOL0     C53880   9.171   2.803   2.649  0.3998 -0.0262 -0.2306
  400MOL0     C53881   9.278   2.833   2.541  0.9468 -0.1111  0.1275
  400MOL0     N53882   9.248   2.771   2.409  0.0722  0.7845  0.0158
  400MOL0     C53883   9.185   2.650   2.401 -0.2743  0.2713 -0.5903
  400MOL0     C53884   9.189   2.626   2.264 -0.1524  0.2279  0.1618
  400MOL0     C53885   9.126   2.494   2.226  0.5017  0.6048 -0.1880
  400MOL0     C53886   8.981   2.527   2.173 -0.3970 -0.2821  0.2799
  400MOL0     C53887   8.940   2.394   2.109 -0.1198  0.4002 -0.0699
  400MOL0     C53888   8.792   2.389   2.059  0.4039 -0.1068  0.7107
  400MOL0     O53889   8.793   2.284   1.967 -0.3074 -0.6181  0.3266
  400MOL0     C53890   8.676   2.219   1.951 -0.4656 -0.4668 -0.2564
  400MOL0     C53891   8.554   2.278   1.954 -0.3580 -1.2518 -0.6288
  400MOL0     C53892   8.438   2.223   1.909 -0.2715  1.0629  0.2680
  400MOL0     C53893   8.312   2.306   1.914  0.4864 -0.4062 -0.3344
  400MOL0     C53894   8.431   2.088   1.856  0.2829  0.5218 -0.0149
  400MOL0     C53895   8.314   2.011   1.811  0.0696  0.5444 -0.3539
  400MOL0     O53896   8.346   1.884   1.741 -0.4742 -0.7655 -0.7127
  400MOL0     C53897   8.252   1.792   1.702  0.3615 -0.0188  0.7303
  400MOL0     C53898   8.257   1.746   1.568  0.2770 -0.9535 -0.8025
  400MOL0     C53899   8.173   1.646   1.529 -0.0105  0.4421  0.0548
  400MOL0     C53900   8.078   1.597   1.617 -0.0822  0.1351 -0.1328
  400MOL0     O53901   7.977   1.507   1.582 -0.3175  0.0748  0.6250
  400MOL0     C53902   7.960   1.450   1.446  0.1286 -0.0122 -0.1945
  400MOL0     C53903   7.846   1.347   1.443  0.5577  0.5188 -0.8254
  400MOL0     C53904   7.854   1.270   1.310  1.0555  0.8276  0.1242
  400MOL0     C53905   7.751   1.158   1.290  0.6594 -0.2561  0.0160
  400MOL0     C53906   7.618   1.219   1.239  0.1036 -0.5237 -0.2212
  400MOL0     C53907   7.501   1.117   1.264 -0.6389 -0.0906 -0.5439
  400MOL0     C53908   7.522   0.976   1.204 -0.6450 -0.7299 -0.1848
  400MOL0     C53909   7.396   0.906   1.162  0.2810 -0.1886 -0.0020
  400MOL0    Cl53910   7.431   0.727   1.156  0.3082  0.0096  0.3642
  400MOL0     C53911   8.068   1.646   1.742  0.2635  0.4879 -0.8193
  400MOL0     C53912   8.158   1.736   1.788 -0.8082 -0.2151 -0.0195
  400MOL0     O53913   8.197   2.052   1.819  1.0003  0.0400 -0.7144
  400MOL0     C53914   8.555   2.027   1.847 -0.4430  0.6916 -0.4698
  400MOL0     C53915   8.676   2.088   1.899  0.7265  0.4960 -0.5351
  400MOL0     N53916   9.254   2.728   2.196 -0.9747 -0.3555 -0.2831
  400MOL0     N53917   9.291   2.816   2.287  0.1606  0.2204  0.4346
  400MOL0     C53918   9.680   3.038   3.291  0.1709  1.1625 -0.2405
  400MOL0     C53919   9.793   3.048   3.367 -0.4264  0.6397 -0.4516
  400MOL0     C53920  10.076   3.261   3.684  0.4558 -0.4881 -0.3464
  400MOL0     C53921  10.095   3.388   3.746 -0.4292 -0.0132 -1.1108
  400MOL0     C53922  10.193   3.403   3.841  0.3040 -0.3964 -0.3019
  400MOL0     C53923  10.280   3.303   3.872 -0.4056  0.0002 -1.5692
  400MOL0     O53924  10.381   3.330   3.970  0.1892  0.6521 -0.3251
  400MOL0     C53925  10.457   3.220   4.028 -0.3010  0.2697  0.2827
  400MOL0     C53926  10.522   3.259   4.162  0.5545 -0.4033 -0.6390
  400MOL0     C53927  10.604   3.390   4.158  0.2640 -0.0557 -1.0912
  400MOL0     C53928  10.553   3.493   4.260  0.0575  0.5827 -0.4047
  400MOL0     C53929  10.482   3.592   4.186  0.0764 -0.6516 -0.3719
  400MOL0     C53930  10.419   3.682   4.132  0.3005 -0.5448 -0.1117
  400MOL0     C53931  10.265   3.177   3.815 -0.2640  0.2014  0.2304
  400MOL0     C53932  10.163   3.152   3.729 -0.3843 -0.4538  0.7570
  400MOL0     H53933   9.660   3.196   3.642 -0.5325 -1.7581  0.4538
  400MOL0     H53934   9.463   3.163   3.517 -0.2660  1.9574 -1.8454
  400MOL0     H53935   9.263   3.102   3.239  0.4714 -2.1536 -1.9840
  400MOL0     H53936   9.367   3.244   3.291 -0.8059 -0.1134 -0.4537
  400MOL0     H53937   9.340   3.299   3.068  1.2867  0.6256 -1.9311
  400MOL0     H53938   9.489   3.213   3.083  0.3039  0.0779 -1.2677
  400MOL0     H53939   9.385   3.150   2.874  0.3209 -0.9418 -0.9700
  400MOL0     H53940   9.372   3.004   2.971  2.2235  0.6758  4.8893
  400MOL0     H53941   9.130   3.054   2.998 -1.0052 -2.4339 -1.4828
  400MOL0     H53942   9.174   3.210   2.918  2.5807  0.6069  1.6085
  400MOL0     H53943   9.046   3.019   2.750  0.0008 -0.7439  0.8889
  400MOL0     H53944   9.200   3.073   2.698 -0.5172  1.0871 -0.1290
  400MOL0     H53945   9.313   2.876   2.804  1.2159  0.6016 -1.8127
  400MOL0     H53946   9.163   2.828   2.872  2.4821 -1.2417  0.7125
  400MOL0     H53947   9.174   2.698   2.681  0.0105  0.7302  2.4860
  400MOL0     H53948   9.070   2.817   2.611  0.6402  1.1102 -0.4883
  400MOL0     H53949   9.375   2.796   2.576  0.7335 -0.4028  0.4122
  400MOL0     H53950   9.290   2.940   2.519 -0.2213  0.2228  1.0582
  400MOL0     H53951   9.140   2.584   2.474 -0.4661 -0.6077 -1.4718
  400MOL0     H53952   9.186   2.437   2.154  0.6370 -1.3692  1.4009
  400MOL0     H53953   9.109   2.417   2.303 -1.7230 -0.0973 -1.3022
  400MOL0     H53954   8.976   2.613   2.105 -0.8392 -0.7795 -0.3360
  400MOL0     H53955   8.928   2.545   2.266 -2.0943 -2.2720 -0.2266
  400MOL0     H53956   8.955   2.312   2.180  0.4256  2.2897  2.1032
  400MOL0     H53957   9.004   2.377   2.022 -1.6567  0.8531 -1.3395
  400MOL0     H53958   8.758   2.482   2.012 -0.5955 -1.3919 -1.2520
  400MOL0     H53959   8.734   2.380   2.152  1.7929  0.4485  1.6549
  400MOL0     H53960   8.545   2.383   1.983 -2.2765 -1.2824 -1.0062
  400MOL0     H53961   8.328   2.399   1.968  1.0004  0.1015 -1.3353
  400MOL0     H53962   8.274   2.332   1.815  1.3593  1.3468 -0.2449
  400MOL0     H53963   8.237   2.251   1.973  0.0047 -0.9173 -1.3955
  400MOL0     H53964   8.336   1.775   1.499  1.2736 -1.1116  0.2621
  400MOL0     H53965   8.173   1.609   1.427  0.2744 -0.0676  0.2383
  400MOL0     H53966   7.934   1.539   1.389  1.8941 -0.0578 -1.1356
  400MOL0     H53967   8.054   1.412   1.405  1.4616  1.3619  1.4222
  400MOL0     H53968   7.859   1.275   1.525  1.2534 -0.5322 -1.8417
  400MOL0     H53969   7.746   1.392   1.444  0.7677  1.0301 -1.6565
  400MOL0     H53970   7.956   1.233   1.298  0.7176  0.2748 -1.2176
  400MOL0     H53971   7.838   1.348   1.235  1.3703  2.5814  1.8177
  400MOL0     H53972   7.786   1.081   1.220  1.8558  0.3463 -0.0717
  400MOL0     H53973   7.733   1.115   1.389 -0.9551 -1.2766 -0.6631
  400MOL0     H53974   7.628   1.241   1.133  0.2839  2.3264  0.3110
  400MOL0     H53975   7.588   1.307   1.297  2.2892 -0.3621  0.7690
  400MOL0     H53976   7.484   1.103   1.372 -4.7517 -1.4941 -1.1932
  400MOL0     H53977   7.406   1.156   1.227  0.7368  2.8379 -1.2445
  400MOL0     H53978   7.586   0.928   1.278  2.2627  2.3842 -0.4194
  400MOL0     H53979   7.577   1.001   1.113  1.5606  0.5999  1.4257
  400MOL0     H53980   7.366   0.936   1.061  2.4969 -0.2109 -0.7263
  400MOL0     H53981   7.316   0.918   1.235 -0.8001 -2.5344 -0.7084
  400MOL0     H53982   8.001   1.594   1.809  0.1403 -1.9063 -2.6574
  400MOL0     H53983   8.166   1.765   1.892  4.2520 -0.1679 -0.2153
  400MOL0     H53984   8.556   1.928   1.803 -1.8757  0.6205 -0.3694
  400MOL0     H53985   8.770   2.034   1.897  1.4980  1.5356  2.3489
  400MOL0     H53986   9.684   2.994   3.191 -1.1636 -2.6444  1.2176
  400MOL0     H53987   9.895   3.028   3.337  0.7626  0.6252  3.1754
  400MOL0     H53988  10.035   3.475   3.720  2.7201  3.3117  1.6569
  400MOL0     H53989  10.212   3.500   3.886  2.3790 -1.3279  1.0294
  400MOL0     H53990  10.383   3.140   4.041 -1.5244  0.8502 -2.4225
  400MOL0     H53991  10.535   3.188   3.959 -0.1881 -0.1310  0.5900
  400MOL0     H53992  10.590   3.181   4.199  2.3206  1.4104  0.0934
  400MOL0     H53993  10.440   3.264   4.234  0.9863 -0.3031 -0.1479
  400MOL0     H53994  10.596   3.439   4.060 -0.7994  5.4020  1.3663
  400MOL0     H53995  10.709   3.366   4.173  0.8242  0.5470 -3.5216
  400MOL0     H53996  10.641   3.541   4.303 -0.4704  0.8327  0.4121
  400MOL0     H53997  10.487   3.456   4.338  1.3476  3.1589  2.0843
  400MOL0     H53998  10.352   3.761   4.105  0.1918 -0.8772 -0.8631
  400MOL0     H53999  10.336   3.096   3.825  0.0658 -0.2802 -4.1510
  400MOL0     H54000  10.159   3.054   3.684  2.5179 -1.1054  1.6937
  401MOL0     O54001   5.789   5.628  10.019 -0.3752  0.2766 -0.3315
  401MOL0     C54002   5.757   5.661  10.132 -1.5192  1.0662  0.4182
  401MOL0     O54003   5.641   5.725  10.168  1.0965  0.2238  0.1675
  401MOL0     C54004   5.538   5.763  10.085  0.5396  0.3841  0.1879
  401MOL0     C54005   5.419   5.786  10.148  0.6298  0.1203 -0.2742
  401MOL0     C54006   5.298   5.824  10.076 -0.4790 -0.8547 -0.2305
  401MOL0     C54007   5.308   5.850   9.929 -0.6619  0.3507 -0.0699
  401MOL0     O54008   5.197   5.886   9.866 -0.1059  0.6836  0.0781
  401MOL0     C54009   5.131   5.994   9.925  0.1006 -0.6011  0.5040
  401MOL0     C54010   5.043   6.040   9.811  1.2105  0.0780  0.7840
  401MOL0     C54011   5.105   6.117   9.693  0.0497  0.1341 -0.7111
  401MOL0     C54012   4.999   6.153   9.590 -0.2671  0.3720 -0.6388
  401MOL0     C54013   5.061   6.199   9.460 -0.6635 -0.5064 -0.0300
  401MOL0     C54014   4.971   6.189   9.335  0.5193  0.5389 -0.6031
  401MOL0     C54015   4.877   6.304   9.322  0.1151  1.0988  0.6321
  401MOL0     C54016   4.751   6.280   9.237 -0.6998 -0.1280  0.5078
  401MOL0     N54017   4.797   6.251   9.101  0.2281  0.1247  0.3300
  401MOL0     C54018   4.788   6.121   9.047  0.2807  0.6128  0.3182
  401MOL0     C54019   4.858   6.130   8.925 -0.1274 -0.6667 -0.3189
  401MOL0     C54020   4.870   6.030   8.822 -0.1812 -0.2171 -0.2048
  401MOL0     C54021   4.808   5.898   8.862  0.0375 -0.4330  0.3649
  401MOL0     C54022   4.674   5.878   8.785  0.4684 -0.6532  0.0866
  401MOL0     C54023   4.605   5.751   8.840 -0.4730  0.2999 -0.8289
  401MOL0     O54024   4.500   5.698   8.753  0.1425  0.3970 -0.2923
  401MOL0     C54025   4.368   5.720   8.788  0.0612 -0.3737  0.5203
  401MOL0     C54026   4.314   5.828   8.865 -0.3811  0.7713 -0.2083
  401MOL0     C54027   4.175   5.837   8.901 -0.4483  0.0443 -0.3049
  401MOL0     C54028   4.143   5.965   8.977 -0.1327 -0.3554  0.3730
  401MOL0     C54029   4.078   5.750   8.847  0.7304 -0.8778  0.9530
  401MOL0     C54030   3.927   5.746   8.869 -0.2271 -0.0041  0.1734
  401MOL0     O54031   3.859   5.631   8.839 -0.5674 -0.0537  0.5003
  401MOL0     C54032   3.720   5.641   8.830  0.8190  0.0008  0.4922
  401MOL0     C54033   3.639   5.659   8.940 -0.3565  0.1565  0.9207
  401MOL0     C54034   3.499   5.657   8.927 -0.4659  0.1098  0.6431
  401MOL0     C54035   3.441   5.618   8.800  0.1053 -0.8825  0.0581
  401MOL0     O54036   3.301   5.594   8.803  0.4507 -0.4389 -0.1929
  401MOL0     C54037   3.239   5.570   8.675  0.2292 -0.0060 -0.4530
  401MOL0     C54038   3.084   5.570   8.680 -0.7266  0.5898 -0.5821
  401MOL0     C54039   3.026   5.561   8.537  0.3187  0.0833 -0.3867
  401MOL0     C54040   3.058   5.434   8.467 -0.1653 -0.8642  0.0933
  401MOL0     C54041   3.189   5.455   8.375  0.4224  0.6443 -1.3353
  401MOL0     C54042   3.253   5.322   8.333 -0.0252  0.6216 -0.2553
  401MOL0     C54043   3.376   5.342   8.236  0.0251  0.5731  0.5150
  401MOL0     C54044   3.455   5.207   8.216 -0.4687  0.4199  0.9156
  401MOL0    Cl54045   3.589   5.239   8.089  0.2143 -0.0107 -0.6310
  401MOL0     C54046   3.523   5.612   8.686  1.1022 -0.0036  0.5412
  401MOL0     C54047   3.665   5.631   8.700  0.5836  0.3052 -0.1244
  401MOL0     O54048   3.874   5.853   8.908 -0.0377  0.6156  0.6997
  401MOL0     C54049   4.128   5.648   8.765 -0.4182  0.1313 -0.1087
  401MOL0     C54050   4.271   5.630   8.746 -0.6276 -0.6202  0.3070
  401MOL0     N54051   4.905   6.256   8.912  0.6570  0.3475 -0.1135
  401MOL0     N54052   4.872   6.328   9.012  0.4842  0.0231 -0.5862
  401MOL0     C54053   5.435   5.821   9.868  0.5513 -0.6263 -0.0039
  401MOL0     C54054   5.542   5.778   9.942 -0.0688  0.2452  0.5037
  401MOL0     C54055   5.869   5.641  10.229 -0.0909 -0.5819 -0.9301
  401MOL0     C54056   5.965   5.542  10.202 -0.7621 -0.1155 -0.4825
  401MOL0     C54057   6.067   5.517  10.293  0.4639  1.0825  0.0472
  401MOL0     C54058   6.068   5.589  10.415  0.6248 -0.6481  0.3585
  401MOL0     O54059   6.173   5.567  10.501  0.5977  0.0268  0.1320
  401MOL0     C54060   6.163   5.595  10.645 -0.1056  1.5120  0.4130
  401MOL0     C54061   6.271   5.535  10.725  0.6230  1.1662 -0.3857
  401MOL0     C54062   6.258   5.561  10.877  0.6825  0.2556  0.4336
  401MOL0     C54063   6.189   5.455  10.957  0.4232 -0.6965 -0.3335
  401MOL0     C54064   6.042   5.469  10.951  0.0428 -0.0858 -1.0069
  401MOL0     C54065   5.927   5.497  10.964  0.6063  0.2298  0.8084
  401MOL0     C54066   5.966   5.684  10.443  0.3642 -1.4988 -0.0767
  401MOL0     C54067   5.859   5.709  10.352  0.6368 -0.6951  0.2750
  401MOL0     H54068   5.415   5.788  10.257  2.5501 -0.7418 -0.1414
  401MOL0     H54069   5.214   5.861  10.133  0.5493  0.4061  0.5390
  401MOL0     H54070   5.070   5.956  10.008 -2.3070 -0.8346 -1.2618
  401MOL0     H54071   5.196   6.075   9.960 -0.0590  1.0312 -2.6631
  401MOL0     H54072   4.994   5.950   9.773  0.8110  0.5579  0.1300
  401MOL0     H54073   4.965   6.099   9.861  2.0030  0.1643  1.9500
  401MOL0     H54074   5.155   6.209   9.724  1.1032 -0.8207  0.5222
  401MOL0     H54075   5.181   6.056   9.644 -0.6171 -0.0806 -1.5149
  401MOL0     H54076   4.955   6.054   9.579  2.7495 -1.3983  1.5546
  401MOL0     H54077   4.925   6.223   9.630 -0.4885  2.1006 -3.7389
  401MOL0     H54078   5.105   6.298   9.473  0.4356 -0.6735 -2.0108
  401MOL0     H54079   5.153   6.144   9.437  0.1742  1.5028 -1.9007
  401MOL0     H54080   5.051   6.187   9.261  1.1991  1.5493  0.0861
  401MOL0     H54081   4.918   6.093   9.332 -1.1574  1.2799  1.8588
  401MOL0     H54082   4.831   6.324   9.419 -1.5503  0.8633 -0.0768
  401MOL0     H54083   4.935   6.389   9.285  3.2801 -0.6230  1.2675
  401MOL0     H54084   4.685   6.365   9.256 -0.3239  1.2904 -3.6690
  401MOL0     H54085   4.695   6.195   9.276 -0.6867  0.0864  1.0025
  401MOL0     H54086   4.732   6.042   9.098 -0.4765  1.6840  1.1940
  401MOL0     H54087   4.851   6.051   8.716  2.4293 -1.5141 -1.0360
  401MOL0     H54088   4.978   6.013   8.813  0.2050  1.8396  0.0226
  401MOL0     H54089   4.786   5.884   8.968  1.1404  0.2655  0.7050
  401MOL0     H54090   4.874   5.817   8.829  1.0722 -0.1099  1.5473
  401MOL0     H54091   4.691   5.869   8.677 -1.6422  0.6143 -0.4198
  401MOL0     H54092   4.601   5.955   8.812  2.0551  0.7471  0.4978
  401MOL0     H54093   4.572   5.767   8.943 -0.6163 -1.4903 -0.5623
  401MOL0     H54094   4.681   5.672   8.846 -1.9819 -1.0950  2.2539
  401MOL0     H54095   4.376   5.909   8.902  0.1423  0.1324  0.3300
  401MOL0     H54096   4.223   5.989   9.049  1.1908  0.7288 -1.3802
  401MOL0     H54097   4.145   6.056   8.917 -1.8386 -0.7725 -0.3755
  401MOL0     H54098   4.050   5.959   9.034 -0.3219  3.5794  0.8007
  401MOL0     H54099   3.681   5.687   9.037 -2.1809  2.2012  1.2061
  401MOL0     H54100   3.427   5.657   9.008 -0.6918  1.5706  0.4567
  401MOL0     H54101   3.282   5.647   8.610  1.3438  3.0427  3.5169
  401MOL0     H54102   3.274   5.478   8.627 -1.5419 -1.5397  1.0537
  401MOL0     H54103   3.039   5.487   8.736 -0.5284  0.3735 -0.7433
  401MOL0     H54104   3.062   5.665   8.729 -1.7152  0.9521 -1.6768
  401MOL0     H54105   3.058   5.650   8.481  2.9889  1.0318  2.4052
  401MOL0     H54106   2.918   5.555   8.557  0.6960 -0.9515  1.6304
  401MOL0     H54107   3.059   5.347   8.534  0.7850 -2.2647 -1.6534
  401MOL0     H54108   2.981   5.421   8.391  1.6265  4.6962 -3.2305
  401MOL0     H54109   3.258   5.526   8.420  0.2322  1.7579 -2.7420
  401MOL0     H54110   3.155   5.503   8.283  0.0397  0.6907 -1.1714
  401MOL0     H54111   3.278   5.274   8.428 -1.0777  2.4119  0.9799
  401MOL0     H54112   3.187   5.254   8.278  0.4133 -2.4693  2.6861
  401MOL0     H54113   3.437   5.423   8.276 -1.6970  0.6040  3.3189
  401MOL0     H54114   3.345   5.372   8.135 -0.3677 -2.6020 -0.4203
  401MOL0     H54115   3.379   5.141   8.173 -1.8009  2.9148 -0.7534
  401MOL0     H54116   3.501   5.157   8.302 -2.8378 -1.7643  1.0282
  401MOL0     H54117   3.485   5.603   8.585  0.8004 -1.3464  0.7546
  401MOL0     H54118   3.739   5.631   8.621  2.0443 -2.2280  1.1071
  401MOL0     H54119   4.060   5.571   8.730 -0.8329 -0.4563  1.8277
  401MOL0     H54120   4.302   5.547   8.683 -0.9926  0.4205 -1.3106
  401MOL0     H54121   5.440   5.847   9.763  0.3537 -3.1953 -0.7107
  401MOL0     H54122   5.629   5.755   9.882  1.5849 -0.4168  3.0058
  401MOL0     H54123   5.953   5.476  10.116 -0.6815 -2.6589  1.3378
  401MOL0     H54124   6.139   5.436  10.284 -0.7677  0.0396 -0.8998
  401MOL0     H54125   6.170   5.703  10.655  0.4699  1.9457 -3.2723
  401MOL0     H54126   6.063   5.564  10.677  0.8298 -1.2411  0.9764
  401MOL0     H54127   6.362   5.581  10.685 -0.4938  0.1710 -4.5242
  401MOL0     H54128   6.278   5.427  10.709 -0.4692  0.8057  1.3039
  401MOL0     H54129   6.209   5.659  10.879  0.1295 -0.0081  0.0556
  401MOL0     H54130   6.357   5.565  10.923  1.7545 -2.2837 -1.4177
  401MOL0     H54131   6.206   5.474  11.063 -3.4719 -4.2106  1.2246
  401MOL0     H54132   6.224   5.355  10.927  0.6145 -0.7510  0.0591
  401MOL0     H54133   5.823   5.519  10.977  0.2046  0.0103 -1.6151
  401MOL0     H54134   5.957   5.734  10.539 -3.4599 -2.0902  0.0186
  401MOL0     H54135   5.775   5.772  10.379 -0.2995 -2.1630  0.9393
  402MOL0     O54136   3.186   3.930   9.905  0.1211  0.2252  0.4426
  402MOL0     C54137   3.182   3.874   9.793 -0.0726  0.8131 -0.3201
  402MOL0     O54138   3.065   3.846   9.723  0.1137 -0.4765  0.6844
  402MOL0     C54139   2.945   3.907   9.752 -0.4746 -0.0949 -1.5457
  402MOL0     C54140   2.900   3.961   9.880 -0.0437 -0.5587 -0.2015
  402MOL0     C54141   2.778   4.034   9.879 -0.4520 -0.0274 -0.5701
  402MOL0     C54142   2.702   4.051   9.758 -0.4791  0.5401  0.2543
  402MOL0     O54143   2.589   4.127   9.745  0.3024  0.0999 -0.4176
  402MOL0     C54144   2.514   4.130   9.862  0.0286 -0.3240  0.0463
  402MOL0     C54145   2.367   4.168   9.841  0.9784  0.4721  0.2973
  402MOL0     C54146   2.299   4.044   9.778  0.0342  0.4789  0.5408
  402MOL0     C54147   2.167   4.097   9.711  0.4843 -0.1970  0.4300
  402MOL0     C54148   2.189   4.175   9.588 -0.1229 -0.0489  0.6227
  402MOL0     C54149   2.070   4.172   9.493 -0.4707 -0.4212  0.2799
  402MOL0     C54150   2.094   4.223   9.352  0.3664  0.4786 -0.4032
  402MOL0     C54151   2.201   4.148   9.284 -0.4259  0.1296  0.9265
  402MOL0     N54152   2.216   4.194   9.151 -0.2254 -0.1871  0.8015
  402MOL0     C54153   2.208   4.324   9.101 -0.0625  0.7320 -0.6889
  402MOL0     C54154   2.257   4.310   8.972  0.1027 -0.2297 -0.6020
  402MOL0     C54155   2.270   4.424   8.872  0.3439  1.1733  0.2435
  402MOL0     C54156   2.135   4.446   8.799 -0.8598 -0.3377  0.6887
  402MOL0     C54157   2.050   4.552   8.876  0.4254  0.7271  0.5310
  402MOL0     C54158   1.956   4.627   8.774  1.0060  0.1298 -0.1827
  402MOL0     O54159   1.868   4.524   8.730  0.7954 -0.2974  0.4847
  402MOL0     C54160   1.741   4.558   8.687  0.3633  0.6249 -0.0186
  402MOL0     C54161   1.704   4.687   8.644  0.4910  0.4176 -0.1955
  402MOL0     C54162   1.569   4.712   8.602  0.4028  0.4225 -0.1945
  402MOL0     C54163   1.533   4.856   8.560 -0.0146  0.6656  0.1330
  402MOL0     C54164   1.478   4.605   8.599  0.4370 -0.1809 -0.3065
  402MOL0     C54165   1.339   4.616   8.554  0.1455 -0.5150  0.4905
  402MOL0     O54166   1.291   4.720   8.480  0.8128  0.2349  0.6617
  402MOL0     C54167   1.172   4.694   8.410  0.3227 -0.0389  0.1336
  402MOL0     C54168   1.163   4.720   8.280  0.0173  0.4455 -0.0655
  402MOL0     C54169   1.049   4.694   8.208  0.1776 -0.1135 -0.3504
  402MOL0     C54170   0.932   4.648   8.263  0.2610 -0.4271  0.2567
  402MOL0     O54171   0.825   4.635   8.173 -0.3104 -0.4003  0.2531
  402MOL0     C54172   0.700   4.560   8.207 -0.4826 -0.1711  0.3407
  402MOL0     C54173   0.589   4.589   8.114  0.5013  0.2654  0.9176
  402MOL0     C54174   0.598   4.496   7.996  0.0987  0.7901  0.0210
  402MOL0     C54175   0.487   4.531   7.906  0.6891  0.6092  0.1093
  402MOL0     C54176   0.352   4.479   7.954  0.1722 -0.4140 -0.1776
  402MOL0     C54177   0.253   4.488   7.841  0.5767  0.3842 -0.0412
  402MOL0     C54178   0.118   4.433   7.892 -0.1967  0.5605  0.3436
  402MOL0     C54179   0.011   4.452   7.781  0.1704 -0.5906  0.9624
  402MOL0    Cl54180  -0.036   4.623   7.760  0.2193  0.4351 -0.0183
  402MOL0     C54181   0.933   4.640   8.406 -0.3415 -0.1126 -0.5571
  402MOL0     C54182   1.046   4.662   8.473 -0.6587 -0.5209  0.2973
  402MOL0     O54183   1.282   4.507   8.564  0.4071 -0.4291 -0.1099
  402MOL0     C54184   1.516   4.476   8.646 -0.1279 -0.3497  0.3032
  402MOL0     C54185   1.649   4.457   8.694 -0.5525  0.9720  0.8848
  402MOL0     N54186   2.294   4.178   8.950  0.0305  0.1086 -0.3338
  402MOL0     N54187   2.270   4.112   9.055  0.9836  0.3213 -0.4612
  402MOL0     C54188   2.749   3.995   9.643 -0.1690 -0.5610 -0.6806
  402MOL0     C54189   2.870   3.929   9.642  0.4861 -0.1894 -0.3429
  402MOL0     C54190   3.309   3.815   9.749 -0.1363  0.2811 -0.3537
  402MOL0     C54191   3.423   3.799   9.834  1.0932  0.4838 -0.6920
  402MOL0     C54192   3.539   3.743   9.779 -0.4363 -0.9271 -0.1257
  402MOL0     C54193   3.556   3.706   9.645 -0.0799  0.8615  0.1503
  402MOL0     O54194   3.675   3.661   9.601  0.0719 -0.6309 -0.4032
  402MOL0     C54195   3.697   3.592   9.476  0.3884 -0.6730 -0.3710
  402MOL0     C54196   3.837   3.639   9.432  0.4611 -0.7346 -0.3568
  402MOL0     C54197   3.870   3.578   9.297  0.2500  0.3171 -0.3460
  402MOL0     C54198   3.987   3.667   9.248 -0.5481 -0.7481  0.4912
  402MOL0     C54199   4.051   3.609   9.130 -0.1117 -0.1857  0.3525
  402MOL0     C54200   4.094   3.581   9.020 -0.2064 -0.2325 -0.7791
  402MOL0     C54201   3.445   3.723   9.568  0.6080 -0.3660  0.8528
  402MOL0     C54202   3.326   3.781   9.613 -0.7242 -0.4504  0.3329
  402MOL0     H54203   2.956   3.948   9.972 -2.8460  1.4953  1.9672
  402MOL0     H54204   2.740   4.078   9.970 -1.6753 -0.9715 -0.5932
  402MOL0     H54205   2.513   4.031   9.908 -3.1744 -0.3734  0.1457
  402MOL0     H54206   2.562   4.198   9.933 -0.5706  0.6754 -0.4708
  402MOL0     H54207   2.321   4.197   9.936  1.2629  0.6718  0.3729
  402MOL0     H54208   2.369   4.256   9.777  1.9604 -0.1295 -0.5299
  402MOL0     H54209   2.360   4.014   9.692 -1.8815 -0.5930 -0.5128
  402MOL0     H54210   2.268   3.961   9.841  0.7436 -0.4724 -0.3413
  402MOL0     H54211   2.108   4.009   9.684  1.3947 -0.6140 -0.2514
  402MOL0     H54212   2.100   4.144   9.784 -1.9865 -0.3476 -1.5931
  402MOL0     H54213   2.206   4.281   9.611  2.4903  0.1153 -1.5147
  402MOL0     H54214   2.277   4.128   9.542 -0.0191  0.3027  0.4571
  402MOL0     H54215   2.032   4.069   9.491 -1.3378 -0.1062 -0.8107
  402MOL0     H54216   1.995   4.243   9.528  1.5691  1.6929  0.6375
  402MOL0     H54217   2.001   4.204   9.297  1.1517  2.6555 -2.6724
  402MOL0     H54218   2.110   4.331   9.361 -1.9996  0.7977  0.7800
  402MOL0     H54219   2.187   4.040   9.276 -1.2336  0.0467  2.8530
  402MOL0     H54220   2.300   4.174   9.323 -0.3735  1.8088 -0.2528
  402MOL0     H54221   2.172   4.411   9.154  0.1635  0.8678 -0.7601
  402MOL0     H54222   2.296   4.511   8.932  0.2259  1.0310  0.5034
  402MOL0     H54223   2.355   4.391   8.810  0.3214 -1.1437  1.3277
  402MOL0     H54224   2.067   4.363   8.777  1.0448 -1.7818 -0.0214
  402MOL0     H54225   2.168   4.489   8.704 -0.2320 -0.6872  0.7412
  402MOL0     H54226   2.100   4.625   8.941  0.7058 -0.6861  1.9644
  402MOL0     H54227   1.997   4.484   8.943  1.2709  0.3295  0.8151
  402MOL0     H54228   2.006   4.664   8.684 -0.5821  2.1376 -0.3102
  402MOL0     H54229   1.921   4.717   8.824  0.3696 -0.0707 -0.2504
  402MOL0     H54230   1.769   4.771   8.621  0.4063  1.0923  1.8703
  402MOL0     H54231   1.527   4.870   8.451  0.1019 -0.8711 -0.1006
  402MOL0     H54232   1.442   4.894   8.607  0.1524  1.7262 -0.3797
  402MOL0     H54233   1.618   4.914   8.595  2.0392 -1.9675 -0.1555
  402MOL0     H54234   1.253   4.761   8.235 -0.2193  0.8462 -0.1750
  402MOL0     H54235   1.047   4.748   8.115 -2.0352  1.1826  0.3831
  402MOL0     H54236   0.729   4.457   8.226 -0.4984 -0.4360 -0.9316
  402MOL0     H54237   0.662   4.601   8.301  1.7635  0.5909  0.9803
  402MOL0     H54238   0.498   4.556   8.164 -1.0404  3.2555  0.3065
  402MOL0     H54239   0.588   4.693   8.079  0.6534 -0.1276 -0.2990
  402MOL0     H54240   0.598   4.391   8.024 -1.0387  0.3789 -1.3784
  402MOL0     H54241   0.676   4.527   7.926 -1.1363  1.9672 -0.9090
  402MOL0     H54242   0.477   4.639   7.896  1.7191  0.5606 -1.9693
  402MOL0     H54243   0.513   4.486   7.810  2.0940  0.8018  0.3856
  402MOL0     H54244   0.321   4.547   8.034 -0.8965 -2.2469  1.0414
  402MOL0     H54245   0.367   4.379   7.995  0.2638 -0.7142 -0.9284
  402MOL0     H54246   0.232   4.585   7.796 -3.7548  0.6533  2.0380
  402MOL0     H54247   0.293   4.431   7.756 -1.4095  0.6270 -1.2141
  402MOL0     H54248   0.080   4.479   7.983 -0.6615  1.6936 -0.3905
  402MOL0     H54249   0.127   4.325   7.907 -1.5150  0.5596  1.3000
  402MOL0     H54250  -0.086   4.408   7.806  0.0024 -0.1776  1.0511
  402MOL0     H54251   0.042   4.409   7.685  0.8716 -1.4310  1.5531
  402MOL0     H54252   0.842   4.616   8.460 -0.1326 -0.7996 -0.5038
  402MOL0     H54253   1.050   4.646   8.580  0.7760 -2.6299  0.0096
  402MOL0     H54254   1.448   4.392   8.639 -1.2273  0.4878  0.7193
  402MOL0     H54255   1.680   4.363   8.737 -0.7012  0.7451  0.4979
  402MOL0     H54256   2.691   3.997   9.552  1.6279 -1.7450 -1.9324
  402MOL0     H54257   2.902   3.890   9.546  0.0170  4.8681 -2.9095
  402MOL0     H54258   3.417   3.816   9.941 -0.4269  1.3082 -0.8862
  402MOL0     H54259   3.630   3.745   9.838 -0.3798  2.0003 -0.1884
  402MOL0     H54260   3.695   3.483   9.476  3.6601 -0.8316 -1.0057
  402MOL0     H54261   3.624   3.641   9.411  1.0200  1.3695  0.3565
  402MOL0     H54262   3.914   3.611   9.505  0.1583  0.5880  0.5024
  402MOL0     H54263   3.839   3.748   9.424  0.2881 -0.6131  1.0211
  402MOL0     H54264   3.776   3.577   9.240  0.4662  2.0150 -0.8007
  402MOL0     H54265   3.911   3.481   9.326 -0.7838 -0.0156  0.0521
  402MOL0     H54266   4.059   3.676   9.329  0.7001 -0.6772 -0.5914
  402MOL0     H54267   3.961   3.771   9.226 -1.8431 -1.2569 -0.6001
  402MOL0     H54268   4.141   3.556   8.926 -1.3355  0.1280 -1.4558
  402MOL0     H54269   3.436   3.698   9.462 -2.8039  2.6890  0.2234
  402MOL0     H54270   3.248   3.794   9.539  0.9685 -2.0434 -1.8770
  403MOL0     O54271   2.221   0.414   7.581  0.3075  0.2625 -0.1420
  403MOL0     C54272   2.220   0.385   7.703 -0.4342  0.2324 -0.6527
  403MOL0     O54273   2.114   0.394   7.798 -1.1533 -0.6127  0.0536
  403MOL0     C54274   1.988   0.418   7.745  0.0761 -0.2492 -1.1009
  403MOL0     C54275   1.882   0.402   7.838 -0.7818  0.2489 -0.1368
  403MOL0     C54276   1.748   0.430   7.810  0.5540 -0.0870  0.2425
  403MOL0     C54277   1.704   0.457   7.680 -0.4054  0.2785 -1.4557
  403MOL0     O54278   1.565   0.462   7.646 -0.2726 -0.7580  0.5763
  403MOL0     C54279   1.489   0.346   7.670 -0.9529 -0.7610  0.7916
  403MOL0     C54280   1.351   0.367   7.617  0.6397 -1.0506  0.0914
  403MOL0     C54281   1.292   0.498   7.671 -0.5763  0.5601 -0.1271
  403MOL0     C54282   1.140   0.509   7.672 -0.8377 -0.1368 -0.3297
  403MOL0     C54283   1.087   0.505   7.816 -0.1066  0.7179  0.0348
  403MOL0     C54284   0.932   0.481   7.820 -0.3553  0.5066  0.1985
  403MOL0     C54285   0.840   0.588   7.768  0.4093  0.3147 -0.7445
  403MOL0     C54286   0.689   0.550   7.775 -0.1177 -0.2547  0.1766
  403MOL0     N54287   0.628   0.567   7.909  0.3088 -0.3976 -0.1643
  403MOL0     C54288   0.580   0.685   7.959  0.1511  0.3428 -0.4320
  403MOL0     C54289   0.541   0.656   8.084  0.4337 -0.1624 -0.3841
  403MOL0     C54290   0.469   0.744   8.183  1.0198  0.5147  0.0237
  403MOL0     C54291   0.315   0.741   8.156  0.8308 -0.1914  0.8562
  403MOL0     C54292   0.240   0.750   8.284  0.6982 -0.4119  1.0931
  403MOL0     C54293   0.086   0.796   8.266 -0.0515 -0.1347  0.2288
  403MOL0     O54294   0.038   0.699   8.176  0.1167 -0.5136  0.0387
  403MOL0     C54295  -0.099   0.678   8.155 -0.2572  0.1810 -0.6231
  403MOL0     C54296  -0.136   0.578   8.065  0.2650  0.6348  0.1220
  403MOL0     C54297  -0.270   0.541   8.038  0.9771 -0.3687  0.1533
  403MOL0     C54298  -0.297   0.441   7.933 -0.1585 -1.0982  0.6551
  403MOL0     C54299  -0.370   0.601   8.115  0.1483 -0.0242  0.0765
  403MOL0     C54300  -0.513   0.583   8.084  0.5426  0.4096  0.1459
  403MOL0     O54301  -0.556   0.467   8.036 -0.6523 -0.3183  0.0355
  403MOL0     C54302  -0.694   0.444   8.019  0.4741 -0.8162  0.2096
  403MOL0     C54303  -0.748   0.331   8.071 -0.5618 -0.5091 -0.4168
  403MOL0     C54304  -0.879   0.297   8.049 -0.2403 -0.1399 -0.6098
  403MOL0     C54305  -0.961   0.370   7.963 -0.0547 -0.4716 -0.6986
  403MOL0     O54306  -1.088   0.313   7.950  0.1797  0.2482 -0.2945
  403MOL0     C54307  -1.191   0.411   7.946 -0.2067  0.8836  0.0951
  403MOL0     C54308  -1.329   0.355   7.982 -0.0756  0.7054 -0.6225
  403MOL0     C54309  -1.444   0.453   7.992  0.5785  0.1504 -0.8784
  403MOL0     C54310  -1.573   0.371   8.018 -0.3543  0.0562 -0.7480
  403MOL0     C54311  -1.713   0.430   7.992  0.1852  0.1054  0.7856
  403MOL0     C54312  -1.815   0.328   8.029 -0.2402  0.0012  0.1929
  403MOL0     C54313  -1.957   0.368   7.976  0.0135 -0.2734  1.0757
  403MOL0     C54314  -2.050   0.249   8.000  0.3500 -0.4594  0.3951
  403MOL0    Cl54315  -2.226   0.300   7.981  0.5029 -0.2881 -0.2277
  403MOL0     C54316  -0.918   0.491   7.915 -0.3390 -1.2456  0.2442
  403MOL0     C54317  -0.784   0.528   7.940 -0.6823 -0.3664 -0.5830
  403MOL0     O54318  -0.582   0.675   8.120  0.1683 -0.5640  0.3365
  403MOL0     C54319  -0.333   0.705   8.205 -0.5130  0.1551  0.1904
  403MOL0     C54320  -0.201   0.741   8.227  0.5814 -0.4437  0.0801
  403MOL0     N54321   0.556   0.525   8.096 -0.5643 -0.1188  0.0747
  403MOL0     N54322   0.602   0.465   7.993 -0.0331  0.9196  0.0334
  403MOL0     C54323   1.801   0.470   7.585  0.3657 -0.1352  0.3855
  403MOL0     C54324   1.940   0.455   7.614  0.0027  0.6008 -0.0770
  403MOL0     C54325   2.353   0.339   7.758  0.2483  0.1744  0.0536
  403MOL0     C54326   2.479   0.354   7.690 -0.0021 -0.2193  0.0986
  403MOL0     C54327   2.598   0.319   7.755 -0.4338 -0.6332 -0.4614
  403MOL0     C54328   2.590   0.264   7.886 -0.2470 -0.1030 -0.3327
  403MOL0     O54329   2.712   0.223   7.937 -0.3788 -0.1579 -0.1115
  403MOL0     C54330   2.713   0.145   8.054 -0.5193  0.1652  0.0409
  403MOL0     C54331   2.860   0.115   8.094  0.1184 -0.4747 -0.6892
  403MOL0     C54332   2.870   0.003   8.202 -0.8191  0.3798  0.6285
  403MOL0     C54333   2.962   0.034   8.317  0.1656  0.1743  0.5323
  403MOL0     C54334   3.101   0.018   8.276  0.0105  0.2884  0.7797
  403MOL0     C54335   3.215  -0.006   8.232 -0.3469 -0.6467  0.2071
  403MOL0     C54336   2.471   0.246   7.950 -0.2155 -0.3681 -0.4808
  403MOL0     C54337   2.355   0.282   7.887 -0.2250 -0.0370 -0.3360
  403MOL0     H54338   1.908   0.348   7.929 -2.1801  0.0116  0.1465
  403MOL0     H54339   1.679   0.413   7.892 -0.3428  2.6857  0.1675
  403MOL0     H54340   1.526   0.257   7.618  0.2264 -0.4852  1.1248
  403MOL0     H54341   1.489   0.332   7.778 -0.5729  0.0891  0.9100
  403MOL0     H54342   1.345   0.377   7.509 -4.6714  2.4064  0.3324
  403MOL0     H54343   1.285   0.285   7.648 -2.5912  0.7402 -1.5352
  403MOL0     H54344   1.334   0.513   7.771  1.2549 -5.3075  0.3801
  403MOL0     H54345   1.338   0.571   7.604  1.0268  0.6569  1.0276
  403MOL0     H54346   1.116   0.602   7.620 -2.2894 -1.4195 -2.1252
  403MOL0     H54347   1.089   0.424   7.624 -0.3436  0.3926 -1.8500
  403MOL0     H54348   1.136   0.431   7.880 -2.0061  0.3905  1.1853
  403MOL0     H54349   1.105   0.603   7.862 -3.1669  1.0114  0.8555
  403MOL0     H54350   0.906   0.395   7.757 -0.5248  0.7858 -0.1156
  403MOL0     H54351   0.903   0.463   7.924  0.4882  2.5629  0.8261
  403MOL0     H54352   0.867   0.674   7.829 -0.0717 -0.2231  0.2516
  403MOL0     H54353   0.869   0.609   7.664  0.7856 -1.1436 -0.9525
  403MOL0     H54354   0.669   0.453   7.730  0.7696  0.8708 -2.9206
  403MOL0     H54355   0.635   0.613   7.704  2.9821 -0.9222 -3.0898
  403MOL0     H54356   0.586   0.781   7.908 -2.8685 -1.0337 -3.7375
  403MOL0     H54357   0.483   0.687   8.275  0.7319  0.0901 -0.1948
  403MOL0     H54358   0.511   0.846   8.187  1.3574  0.3424  1.5986
  403MOL0     H54359   0.294   0.654   8.093 -1.6897 -0.1449  1.5368
  403MOL0     H54360   0.286   0.829   8.097 -1.0835  0.1901  2.2728
  403MOL0     H54361   0.286   0.830   8.342 -0.5416  2.7304 -1.9039
  403MOL0     H54362   0.241   0.649   8.327 -0.5201 -1.1911 -0.6221
  403MOL0     H54363   0.073   0.894   8.219  2.1113  0.7314  1.3294
  403MOL0     H54364   0.037   0.798   8.364 -2.5326  0.8981 -0.9347
  403MOL0     H54365  -0.049   0.532   8.022  0.8198  0.1157  1.7227
  403MOL0     H54366  -0.215   0.432   7.862 -1.3919  0.0170 -0.9881
  403MOL0     H54367  -0.335   0.353   7.985 -0.8921  0.3013  2.6372
  403MOL0     H54368  -0.376   0.475   7.865  3.8739  1.9223 -3.0957
  403MOL0     H54369  -0.685   0.287   8.147  0.5999 -2.2974 -2.3194
  403MOL0     H54370  -0.913   0.210   8.104  0.5359  0.3036  0.6111
  403MOL0     H54371  -1.172   0.492   8.018 -0.2697  1.4048 -0.4687
  403MOL0     H54372  -1.202   0.466   7.852  0.2980  1.5679  0.4216
  403MOL0     H54373  -1.354   0.284   7.902 -2.6614  1.0496 -0.2133
  403MOL0     H54374  -1.309   0.307   8.078  1.3593  1.1741 -0.6622
  403MOL0     H54375  -1.451   0.510   7.899 -0.1076  0.6565 -0.5298
  403MOL0     H54376  -1.429   0.526   8.073  1.2779  0.4472 -1.2671
  403MOL0     H54377  -1.571   0.284   7.951 -0.5509  2.5425 -4.2587
  403MOL0     H54378  -1.568   0.334   8.121 -0.2072  0.9203 -0.4381
  403MOL0     H54379  -1.721   0.444   7.884  0.8404 -2.9398  0.2404
  403MOL0     H54380  -1.736   0.529   8.033 -1.5504  0.8636 -1.7673
  403MOL0     H54381  -1.788   0.237   7.976  0.0133  1.6060 -2.6512
  403MOL0     H54382  -1.806   0.300   8.134  1.6923 -1.5298 -0.3294
  403MOL0     H54383  -1.966   0.396   7.870 -1.4359 -3.0502  0.3790
  403MOL0     H54384  -1.977   0.458   8.035  0.9900 -0.1288  1.2089
  403MOL0     H54385  -2.032   0.213   8.102  3.6503 -0.5831 -0.1075
  403MOL0     H54386  -2.023   0.171   7.929 -0.5901 -1.8828  1.5559
  403MOL0     H54387  -0.990   0.552   7.861  1.2174  1.2545  0.7979
  403MOL0     H54388  -0.743   0.617   7.893  2.3505 -1.0803  0.4523
  403MOL0     H54389  -0.405   0.770   8.254  1.0677  1.3151  1.1049
  403MOL0     H54390  -0.176   0.828   8.288  3.5896 -0.7673 -0.5221
  403MOL0     H54391   1.764   0.492   7.485 -0.1976  3.5116  1.2440
  403MOL0     H54392   2.012   0.478   7.536  2.6963  2.6706  2.7325
  403MOL0     H54393   2.489   0.405   7.594 -0.2924 -1.0332 -0.3787
  403MOL0     H54394   2.689   0.334   7.698 -2.2290  2.2869 -2.8431
  403MOL0     H54395   2.667   0.186   8.144 -3.0264 -2.0956 -0.1021
  403MOL0     H54396   2.662   0.049   8.037  1.8345 -2.2234  4.4662
  403MOL0     H54397   2.901   0.208   8.135 -2.2774  1.3751 -2.2334
  403MOL0     H54398   2.911   0.088   8.001  1.7058  3.0811 -1.0115
  403MOL0     H54399   2.912  -0.084   8.151 -1.3579  1.3296 -1.5630
  403MOL0     H54400   2.774  -0.025   8.247 -0.3534 -1.8575  0.3329
  403MOL0     H54401   2.932  -0.029   8.402  0.4595 -0.4157  0.2044
  403MOL0     H54402   2.951   0.139   8.347  0.4354  0.0479  1.1010
  403MOL0     H54403   3.313  -0.037   8.199 -0.2154 -0.4585  0.4137
  403MOL0     H54404   2.477   0.211   8.052  1.2312  0.0525 -0.4014
  403MOL0     H54405   2.265   0.266   7.946 -0.5071  2.0606 -0.1319
  404MOL0     O54406   7.565   9.465   0.423 -0.9745  0.2959  0.4144
  404MOL0     C54407   7.619   9.350   0.421 -0.0918 -0.1146 -0.5448
  404MOL0     O54408   7.553   9.235   0.428 -0.0397  0.3068  0.6102
  404MOL0     C54409   7.415   9.229   0.453 -0.3758  0.6196 -0.2532
  404MOL0     C54410   7.322   9.310   0.387 -0.2881 -0.3175  0.5618
  404MOL0     C54411   7.188   9.298   0.412 -0.6194 -0.2371  0.2469
  404MOL0     C54412   7.140   9.198   0.502 -0.0994  0.7989  0.3133
  404MOL0     O54413   7.006   9.173   0.537  0.5995 -0.4617  0.6009
  404MOL0     C54414   6.906   9.264   0.500  0.5401 -0.7483 -0.3381
  404MOL0     C54415   6.758   9.231   0.537 -0.9136  0.6228  0.1666
  404MOL0     C54416   6.727   9.083   0.520 -0.6098  0.8910  0.1375
  404MOL0     C54417   6.590   9.064   0.583  0.2500 -0.1252 -0.0905
  404MOL0     C54418   6.536   8.928   0.542 -0.0144 -0.0132  0.5633
  404MOL0     C54419   6.396   8.901   0.599 -0.0392 -0.1168 -0.0119
  404MOL0     C54420   6.358   8.753   0.596 -0.6773  0.1430 -0.1732
  404MOL0     C54421   6.370   8.692   0.457 -0.0302 -0.2824  0.5647
  404MOL0     N54422   6.323   8.550   0.461  0.0569  0.2512 -0.0029
  404MOL0     C54423   6.399   8.436   0.490 -0.0505  0.0603  0.5655
  404MOL0     C54424   6.311   8.337   0.472 -0.1258  0.2047 -0.0239
  404MOL0     C54425   6.333   8.195   0.526  0.8141  0.4274 -0.0700
  404MOL0     C54426   6.290   8.170   0.670 -0.4685  0.7160  0.6349
  404MOL0     C54427   6.148   8.217   0.704 -0.3587  0.4477  0.6214
  404MOL0     C54428   6.042   8.132   0.625 -0.5849 -0.4324 -0.1541
  404MOL0     O54429   5.917   8.139   0.687 -0.8216  0.1238  0.1476
  404MOL0     C54430   5.804   8.105   0.634  0.4070  0.0045 -0.4158
  404MOL0     C54431   5.695   8.175   0.696  0.2152  0.5730  0.3553
  404MOL0     C54432   5.567   8.167   0.648 -0.4279  0.0438 -0.3690
  404MOL0     C54433   5.476   8.262   0.726 -0.6444  0.3885  1.7018
  404MOL0     C54434   5.541   8.090   0.534  0.2465  0.3887 -0.6866
  404MOL0     C54435   5.406   8.079   0.474 -0.2108  0.2533  0.7830
  404MOL0     O54436   5.296   8.130   0.536 -0.2668 -1.1845  0.5513
  404MOL0     C54437   5.166   8.117   0.482  0.5189  0.2979 -0.3374
  404MOL0     C54438   5.074   8.222   0.514  0.9157 -0.0342 -0.3420
  404MOL0     C54439   4.934   8.217   0.490  0.3821  0.4734 -0.6507
  404MOL0     C54440   4.891   8.104   0.427 -0.2294  0.1044 -0.1328
  404MOL0     O54441   4.751   8.099   0.401  0.0356 -0.0562  0.3153
  404MOL0     C54442   4.691   7.980   0.344  0.0717  0.3699  0.0906
  404MOL0     C54443   4.543   8.018   0.326 -0.3511  0.5212  0.1566
  404MOL0     C54444   4.460   7.975   0.447 -0.5188  0.5518  0.4949
  404MOL0     C54445   4.308   7.996   0.422 -0.1192  0.4959  0.7896
  404MOL0     C54446   4.214   7.948   0.543 -0.6409 -0.6052  0.0725
  404MOL0     C54447   4.074   7.889   0.499  0.0890 -0.7094  0.2615
  404MOL0     C54448   3.999   7.809   0.599 -0.2854  0.4547 -0.1138
  404MOL0     C54449   3.896   7.717   0.535  0.6515  0.4455 -0.2860
  404MOL0    Cl54450   3.776   7.806   0.435 -0.0828  0.1883 -0.1061
  404MOL0     C54451   4.975   7.991   0.407  0.5854 -1.0171  0.3377
  404MOL0     C54452   5.112   7.995   0.430  0.4124  0.3765  0.4399
  404MOL0     O54453   5.400   8.023   0.361  0.3568  0.4177 -0.0014
  404MOL0     C54454   5.649   8.014   0.473 -0.5435  0.2356  0.0661
  404MOL0     C54455   5.784   8.025   0.519  0.3142  0.2531 -0.0719
  404MOL0     N54456   6.202   8.380   0.407 -0.0411  0.5209  0.0677
  404MOL0     N54457   6.216   8.505   0.397 -0.3201  0.6703 -0.7802
  404MOL0     C54458   7.239   9.120   0.570 -1.2164 -0.5260 -0.6221
  404MOL0     C54459   7.377   9.138   0.549 -0.1465 -0.0826  0.0225
  404MOL0     C54460   7.762   9.339   0.395  0.0131 -1.0456  0.4113
  404MOL0     C54461   7.825   9.214   0.394 -0.2386 -0.3471  0.2871
  404MOL0     C54462   7.967   9.210   0.370  0.3404 -0.0211  1.2252
  404MOL0     C54463   8.044   9.327   0.357  0.2590 -0.6480  0.5865
  404MOL0     O54464   8.178   9.321   0.342  0.0735 -0.6985  0.0475
  404MOL0     C54465   8.250   9.444   0.334  0.1075 -0.0891  0.3160
  404MOL0     C54466   8.398   9.420   0.325 -0.5460  0.6155 -0.1101
  404MOL0     C54467   8.477   9.547   0.276 -0.2742 -0.2395 -0.0593
  404MOL0     C54468   8.487   9.660   0.385 -0.3881  0.5562 -0.5362
  404MOL0     C54469   8.531   9.777   0.311 -0.2288  0.0318 -0.6792
  404MOL0     C54470   8.571   9.852   0.226  0.2935 -0.1181  0.0986
  404MOL0     C54471   7.979   9.445   0.355  0.3641 -0.7751  0.3384
  404MOL0     C54472   7.841   9.456   0.367  0.4187  0.2384 -0.0184
  404MOL0     H54473   7.356   9.367   0.301 -0.6565 -0.5018  0.2888
  404MOL0     H54474   7.130   9.362   0.347  0.4017 -0.1773 -0.6308
  404MOL0     H54475   6.925   9.357   0.555 -1.2014  0.8510 -2.2779
  404MOL0     H54476   6.926   9.283   0.394  2.0225 -3.1062 -0.5457
  404MOL0     H54477   6.754   9.255   0.644  0.5268 -1.2001  0.6694
  404MOL0     H54478   6.693   9.281   0.465  0.1792  2.5299  0.4376
  404MOL0     H54479   6.727   9.049   0.416 -2.3942 -0.1040  0.4294
  404MOL0     H54480   6.800   9.021   0.573 -0.0428  2.0079  0.6960
  404MOL0     H54481   6.600   9.065   0.692 -0.0663 -1.2314 -0.0370
  404MOL0     H54482   6.509   9.133   0.556 -0.5474 -0.7655  0.5722
  404MOL0     H54483   6.528   8.918   0.434 -0.7971 -2.8608  0.7931
  404MOL0     H54484   6.610   8.855   0.576  1.7570  0.3527 -2.2596
  404MOL0     H54485   6.400   8.939   0.702 -1.8067 -1.1703  0.4930
  404MOL0     H54486   6.320   8.959   0.545  0.4304 -0.1317 -0.6996
  404MOL0     H54487   6.436   8.699   0.651  0.8295 -1.3978 -3.5029
  404MOL0     H54488   6.255   8.744   0.630 -0.9456  0.0446 -0.9807
  404MOL0     H54489   6.472   8.697   0.419 -0.0294 -0.1982  0.5772
  404MOL0     H54490   6.293   8.742   0.397 -1.7328 -2.0305  1.1980
  404MOL0     H54491   6.501   8.441   0.528  0.8586  3.5075 -1.8047
  404MOL0     H54492   6.272   8.134   0.459  2.3695 -2.3924  0.9052
  404MOL0     H54493   6.439   8.171   0.514  1.0725  1.2809  0.3999
  404MOL0     H54494   6.367   8.217   0.731  0.3275  2.0898 -1.3094
  404MOL0     H54495   6.296   8.061   0.682  0.9910  0.4215 -1.9719
  404MOL0     H54496   6.148   8.324   0.681  1.4963  0.4345  0.4163
  404MOL0     H54497   6.133   8.196   0.810 -1.1461 -4.3398 -0.1829
  404MOL0     H54498   6.073   8.028   0.617 -1.6016 -0.6685 -1.3650
  404MOL0     H54499   6.038   8.167   0.522 -0.3283 -0.3577 -0.1409
  404MOL0     H54500   5.713   8.232   0.786 -0.9349  3.4168 -1.0901
  404MOL0     H54501   5.535   8.335   0.783 -2.1927  2.0462  1.2494
  404MOL0     H54502   5.420   8.311   0.646 -1.9915 -3.9064 -0.2483
  404MOL0     H54503   5.414   8.207   0.798 -0.4020 -3.5264 -0.8137
  404MOL0     H54504   5.129   8.309   0.548  2.7126 -0.4781 -1.9854
  404MOL0     H54505   4.865   8.297   0.514 -0.4478  0.4162 -2.5890
  404MOL0     H54506   4.736   7.958   0.247 -0.1946  2.4250 -0.5414
  404MOL0     H54507   4.708   7.898   0.414 -2.8054 -1.3968 -1.0853
  404MOL0     H54508   4.520   8.124   0.320 -1.1477  0.3240 -0.6023
  404MOL0     H54509   4.521   7.958   0.237  0.7771 -1.1189  0.9316
  404MOL0     H54510   4.477   8.042   0.531 -3.9245 -0.4165  2.1474
  404MOL0     H54511   4.485   7.869   0.459  0.5595  0.7022 -0.2471
  404MOL0     H54512   4.291   8.103   0.406  0.9516  0.3579 -1.6828
  404MOL0     H54513   4.276   7.942   0.332  1.2153 -2.2956  1.8922
  404MOL0     H54514   4.207   8.034   0.609 -1.5471  1.3224 -2.4048
  404MOL0     H54515   4.260   7.863   0.596 -2.4477 -1.7619 -0.1295
  404MOL0     H54516   4.000   7.966   0.474 -1.1872 -2.4146 -1.6034
  404MOL0     H54517   4.095   7.835   0.406 -1.9009  0.5253 -0.9890
  404MOL0     H54518   3.940   7.880   0.658  0.8921  0.5397  0.9953
  404MOL0     H54519   4.066   7.754   0.665 -2.3821  0.8774  2.5669
  404MOL0     H54520   3.836   7.664   0.610  1.2876  0.2298  0.0744
  404MOL0     H54521   3.950   7.638   0.481  1.6944 -0.1302  1.5132
  404MOL0     H54522   4.932   7.893   0.389 -0.7805 -0.0376 -2.2755
  404MOL0     H54523   5.180   7.912   0.419  0.8031  0.9913 -2.5739
  404MOL0     H54524   5.617   7.941   0.399 -0.0057 -0.1655  0.2244
  404MOL0     H54525   5.861   7.977   0.460  2.3465  0.9825  1.8598
  404MOL0     H54526   7.217   9.046   0.647  3.6770 -2.1258 -0.3862
  404MOL0     H54527   7.446   9.080   0.610 -2.9466  0.0431  3.6363
  404MOL0     H54528   7.779   9.117   0.412  1.2823 -1.9395 -3.4147
  404MOL0     H54529   8.022   9.117   0.368  1.0466  0.1598 -4.3374
  404MOL0     H54530   8.212   9.509   0.254 -0.5075 -0.3764  0.3669
  404MOL0     H54531   8.234   9.485   0.434  0.9178 -1.6959  1.1301
  404MOL0     H54532   8.419   9.346   0.247  0.3575  1.5376 -0.7679
  404MOL0     H54533   8.440   9.384   0.420  2.4068  0.0214 -1.5062
  404MOL0     H54534   8.420   9.583   0.190 -2.3219  3.3929  2.5261
  404MOL0     H54535   8.577   9.511   0.248 -0.6767 -0.8759 -0.7251
  404MOL0     H54536   8.553   9.641   0.470 -1.3544 -1.6055 -0.1953
  404MOL0     H54537   8.387   9.675   0.427  0.1931  2.2381  0.3317
  404MOL0     H54538   8.605   9.916   0.147 -1.7072  1.2833  0.3322
  404MOL0     H54539   8.015   9.545   0.331  0.1975 -0.7164  0.3264
  404MOL0     H54540   7.800   9.555   0.350  2.9195  1.5192  0.9796
  405MOL0     O54541   0.436   4.245   2.081  0.1689  0.2802 -0.1733
  405MOL0     C54542   0.501   4.299   2.174  0.4416  0.2447  0.9821
  405MOL0     O54543   0.447   4.332   2.293 -0.0310 -0.4596  0.2142
  405MOL0     C54544   0.323   4.281   2.344  0.3223 -0.2951  0.3113
  405MOL0     C54545   0.295   4.321   2.473 -0.1626  0.0110  0.7236
  405MOL0     C54546   0.173   4.293   2.540  0.0306 -0.3693  0.3491
  405MOL0     C54547   0.075   4.212   2.472 -0.5078  0.6827  0.0730
  405MOL0     O54548  -0.054   4.197   2.511  0.1352  1.0521 -0.0957
  405MOL0     C54549  -0.093   4.242   2.638 -0.2533  0.5221 -0.0134
  405MOL0     C54550  -0.198   4.150   2.698 -0.3127 -0.5338 -0.2556
  405MOL0     C54551  -0.337   4.155   2.637 -0.3514  0.7558 -0.8637
  405MOL0     C54552  -0.453   4.108   2.725 -1.0120  0.2790 -0.7517
  405MOL0     C54553  -0.590   4.115   2.666 -0.7609 -0.4152 -0.2031
  405MOL0     C54554  -0.709   4.075   2.759 -0.7582 -0.2217  0.7484
  405MOL0     C54555  -0.842   4.078   2.676  0.6861  0.4376 -0.2596
  405MOL0     C54556  -0.950   4.019   2.768  0.7697  0.0587  0.4197
  405MOL0     N54557  -1.072   3.965   2.701  0.6377  0.0382 -0.0341
  405MOL0     C54558  -1.069   3.871   2.602  0.0959  0.2096 -0.4347
  405MOL0     C54559  -1.203   3.845   2.598 -0.3908  0.5041  0.8866
  405MOL0     C54560  -1.273   3.744   2.510  0.6108 -1.3804 -0.2080
  405MOL0     C54561  -1.331   3.806   2.373  0.0165 -0.6349 -0.6446
  405MOL0     C54562  -1.390   3.689   2.296 -0.8274  0.6491  0.5494
  405MOL0     C54563  -1.415   3.728   2.149 -1.1753 -0.9084 -0.4484
  405MOL0     O54564  -1.451   3.611   2.070  0.4879  0.7710 -0.0967
  405MOL0     C54565  -1.477   3.621   1.938 -0.2867  0.6164 -1.2494
  405MOL0     C54566  -1.443   3.737   1.860  0.0863 -0.9476  0.0203
  405MOL0     C54567  -1.479   3.747   1.725  0.8257  0.8534  0.2758
  405MOL0     C54568  -1.444   3.866   1.654 -0.0993  0.3443  0.0739
  405MOL0     C54569  -1.547   3.631   1.670 -0.1432 -0.2206  0.4363
  405MOL0     C54570  -1.574   3.622   1.521  0.8810  0.5236 -0.0085
  405MOL0     O54571  -1.641   3.508   1.483 -0.1802  0.3728 -0.4263
  405MOL0     C54572  -1.640   3.478   1.350  0.4546 -0.2417 -0.1171
  405MOL0     C54573  -1.742   3.547   1.268  0.3270  0.9185  0.1311
  405MOL0     C54574  -1.751   3.525   1.133  0.3692  0.3339 -0.2613
  405MOL0     C54575  -1.663   3.428   1.076  0.0798  0.5659 -0.1990
  405MOL0     O54576  -1.675   3.376   0.948 -0.4975 -1.1407 -0.0955
  405MOL0     C54577  -1.804   3.375   0.888 -0.0904 -0.3389  0.9949
  405MOL0     C54578  -1.803   3.320   0.740 -0.1821  0.0600 -0.7610
  405MOL0     C54579  -1.942   3.296   0.684  0.0033  0.0342  0.0132
  405MOL0     C54580  -1.932   3.201   0.572  0.2753  0.1469  0.8301
  405MOL0     C54581  -2.076   3.190   0.501 -0.7092  0.5864  0.6705
  405MOL0     C54582  -2.195   3.132   0.582  0.0103 -0.1228  0.5550
  405MOL0     C54583  -2.326   3.148   0.506 -0.4495  0.0955 -0.6831
  405MOL0     C54584  -2.442   3.094   0.580  0.6907  0.2530 -0.7557
  405MOL0    Cl54585  -2.587   3.110   0.480  0.0542  0.0998  0.1080
  405MOL0     C54586  -1.548   3.380   1.150  0.3628 -0.0583 -0.7605
  405MOL0     C54587  -1.543   3.409   1.284 -0.2766 -0.5682  0.7255
  405MOL0     O54588  -1.550   3.714   1.443 -0.1054  0.7928  0.0239
  405MOL0     C54589  -1.570   3.515   1.750  0.8784 -0.0634  0.6643
  405MOL0     C54590  -1.539   3.509   1.887  0.5906  0.3601  0.4457
  405MOL0     N54591  -1.282   3.926   2.676  0.5351 -0.1615  0.1683
  405MOL0     N54592  -1.200   4.012   2.735  0.6579  1.0726  0.6923
  405MOL0     C54593   0.108   4.163   2.345 -0.9317 -0.3268 -0.3718
  405MOL0     C54594   0.221   4.204   2.272  0.2139 -0.2432 -1.1483
  405MOL0     C54595   0.645   4.338   2.135 -0.6495 -1.0601  0.5152
  405MOL0     C54596   0.728   4.401   2.228  0.4498  0.1990 -1.1713
  405MOL0     C54597   0.851   4.443   2.185  0.0336  0.4485  0.3162
  405MOL0     C54598   0.893   4.431   2.049 -0.0339  0.0926  0.7902
  405MOL0     O54599   1.011   4.496   2.022  0.5833  0.0482 -0.0487
  405MOL0     C54600   1.048   4.525   1.886 -0.1112 -1.1565 -0.1281
  405MOL0     C54601   1.159   4.643   1.884 -0.4816  0.1945 -0.2331
  405MOL0     C54602   1.285   4.578   1.956 -0.0649 -0.5282  0.6813
  405MOL0     C54603   1.399   4.670   1.959  0.1778 -0.4101  0.4699
  405MOL0     C54604   1.442   4.695   1.819 -0.4317 -0.4615  0.3174
  405MOL0     C54605   1.501   4.706   1.718  0.3072  0.2636  0.5074
  405MOL0     C54606   0.817   4.353   1.960  0.6377  0.2115 -0.9633
  405MOL0     C54607   0.694   4.311   1.999 -0.4041  0.9398  0.1973
  405MOL0     H54608   0.358   4.392   2.525 -0.2797 -1.0694  2.4206
  405MOL0     H54609   0.160   4.351   2.630 -0.4125  1.8402 -1.0735
  405MOL0     H54610  -0.015   4.265   2.712  0.3458 -1.1171 -0.0793
  405MOL0     H54611  -0.137   4.334   2.600  1.3799  0.3481 -2.6481
  405MOL0     H54612  -0.155   4.049   2.702 -1.1845 -0.9271 -0.6989
  405MOL0     H54613  -0.206   4.201   2.795 -1.0957 -0.6839 -0.2390
  405MOL0     H54614  -0.359   4.259   2.611  0.7142  0.9142 -1.1817
  405MOL0     H54615  -0.334   4.107   2.539 -0.8830  0.6426 -0.8276
  405MOL0     H54616  -0.445   4.009   2.770 -0.6332  1.8656  3.0950
  405MOL0     H54617  -0.454   4.169   2.816 -3.4900  0.8847 -1.1094
  405MOL0     H54618  -0.617   4.219   2.643 -1.1326 -0.6710 -0.9535
  405MOL0     H54619  -0.587   4.061   2.571 -1.3445  1.2689 -1.2261
  405MOL0     H54620  -0.682   3.974   2.791  0.5991 -0.2165 -0.3033
  405MOL0     H54621  -0.716   4.155   2.833 -2.1145  1.7648 -1.3798
  405MOL0     H54622  -0.869   4.176   2.635 -0.4209 -0.7713 -2.6744
  405MOL0     H54623  -0.837   4.014   2.587  2.5998  2.3081 -1.6063
  405MOL0     H54624  -0.975   4.097   2.840  1.4384  2.1526 -1.5078
  405MOL0     H54625  -0.906   3.940   2.830  1.2726  3.9538  5.7644
  405MOL0     H54626  -1.000   3.820   2.536  0.0350  0.0919 -0.4085
  405MOL0     H54627  -1.192   3.672   2.494  1.8955  0.1216 -0.7768
  405MOL0     H54628  -1.354   3.700   2.569 -0.7818 -0.0117 -1.0235
  405MOL0     H54629  -1.242   3.853   2.329  0.5997 -1.9174 -0.8708
  405MOL0     H54630  -1.411   3.881   2.380 -0.3482 -1.0670 -0.0050
  405MOL0     H54631  -1.483   3.650   2.338 -1.0992 -2.2743 -2.3575
  405MOL0     H54632  -1.319   3.605   2.305  0.3335  1.5896  0.3468
  405MOL0     H54633  -1.321   3.771   2.115 -1.6298 -0.4162 -1.1156
  405MOL0     H54634  -1.495   3.803   2.145 -1.8527 -1.6550 -1.6114
  405MOL0     H54635  -1.404   3.823   1.914 -3.2264 -0.5743  2.1231
  405MOL0     H54636  -1.389   3.849   1.561  2.9615  1.3974  1.5474
  405MOL0     H54637  -1.534   3.928   1.648 -0.4388  0.1019  2.0220
  405MOL0     H54638  -1.373   3.923   1.715  0.2822  4.0357 -3.4140
  405MOL0     H54639  -1.814   3.613   1.316 -1.5786 -2.0402  1.6443
  405MOL0     H54640  -1.833   3.561   1.073  0.9570 -0.5531 -1.6473
  405MOL0     H54641  -1.868   3.319   0.957  0.2583  0.2918  1.8629
  405MOL0     H54642  -1.845   3.475   0.870 -0.8550 -1.1840 -2.5083
  405MOL0     H54643  -1.746   3.390   0.678 -0.9517  0.9464 -0.4791
  405MOL0     H54644  -1.744   3.227   0.745 -0.1965  0.0898  0.2883
  405MOL0     H54645  -1.990   3.380   0.633 -0.9578 -0.8682 -0.6085
  405MOL0     H54646  -2.013   3.271   0.764  2.0213 -0.9459  1.6025
  405MOL0     H54647  -1.865   3.235   0.493 -1.1506  1.8480  0.2963
  405MOL0     H54648  -1.892   3.106   0.609  0.7089 -0.5267 -1.2299
  405MOL0     H54649  -2.058   3.134   0.409  3.1832 -0.1802  1.7047
  405MOL0     H54650  -2.102   3.293   0.475  0.4911  0.3668 -1.6606
  405MOL0     H54651  -2.180   3.025   0.602 -0.6393 -0.5083 -0.8720
  405MOL0     H54652  -2.206   3.176   0.681  1.0516  2.4162 -0.3553
  405MOL0     H54653  -2.307   3.094   0.413  1.7246 -0.9857  0.2914
  405MOL0     H54654  -2.339   3.252   0.476 -1.0689  0.0108 -0.7145
  405MOL0     H54655  -2.452   3.140   0.678 -2.9423  3.7916 -2.4884
  405MOL0     H54656  -2.431   2.986   0.599 -1.2325  0.4892  2.4053
  405MOL0     H54657  -1.472   3.323   1.098  1.6847  2.9710 -2.3753
  405MOL0     H54658  -1.461   3.366   1.340  1.2530 -3.0104 -3.0866
  405MOL0     H54659  -1.605   3.422   1.706 -1.3384  0.7877  0.5150
  405MOL0     H54660  -1.555   3.421   1.947 -1.1667 -1.3217 -2.2462
  405MOL0     H54661   0.039   4.104   2.286  0.0601 -0.8204 -1.0637
  405MOL0     H54662   0.223   4.162   2.172 -2.6691 -0.4554 -1.1904
  405MOL0     H54663   0.697   4.404   2.332  1.0323 -1.7960 -0.8954
  405MOL0     H54664   0.916   4.506   2.244  0.5881  2.2395 -2.0734
  405MOL0     H54665   1.083   4.440   1.826  3.5319 -2.1486  3.0165
  405MOL0     H54666   0.954   4.555   1.840  0.6153  0.3710 -0.6840
  405MOL0     H54667   1.132   4.737   1.931 -1.8685  0.9896 -2.4349
  405MOL0     H54668   1.176   4.664   1.778  0.4256 -2.3093 -0.6680
  405MOL0     H54669   1.310   4.480   1.914 -0.7068 -0.5730  0.3880
  405MOL0     H54670   1.257   4.566   2.061  1.3753 -0.1014  1.1416
  405MOL0     H54671   1.484   4.628   2.012  1.4697  1.4320 -0.0498
  405MOL0     H54672   1.363   4.764   2.001  1.4292 -0.5450  1.8806
  405MOL0     H54673   1.538   4.716   1.618  1.4576 -2.0947  0.6238
  405MOL0     H54674   0.864   4.332   1.865  3.0376  2.2683 -0.3234
  405MOL0     H54675   0.642   4.249   1.927  0.8747  0.5706 -0.4290
  406MOL0     O54676   1.506   9.074   8.985  0.0627 -0.2919  0.1035
  406MOL0     C54677   1.546   8.966   8.926  0.4372  0.0033  0.0290
  406MOL0     O54678   1.476   8.848   8.923  0.0852  0.0927 -0.0146
  406MOL0     C54679   1.353   8.823   8.974 -1.1800  1.0617 -0.0374
  406MOL0     C54680   1.259   8.912   9.015 -0.9095 -0.6574 -0.3683
  406MOL0     C54681   1.135   8.870   9.068 -0.5687  0.0594 -0.2933
  406MOL0     C54682   1.107   8.732   9.071  0.2741 -1.2621  0.1770
  406MOL0     O54683   0.981   8.683   9.102 -0.7784  0.0357  0.2109
  406MOL0     C54684   0.878   8.753   9.033  0.3682 -0.3204 -0.7147
  406MOL0     C54685   0.744   8.738   9.099 -0.4019 -0.1649 -0.5065
  406MOL0     C54686   0.739   8.786   9.240 -0.5448  0.7313  0.1001
  406MOL0     C54687   0.605   8.829   9.296 -0.2781  0.2632 -0.0098
  406MOL0     C54688   0.595   8.824   9.442  0.5901 -0.2041 -0.3918
  406MOL0     C54689   0.453   8.865   9.486 -0.5240  0.0742  0.7356
  406MOL0     C54690   0.446   8.845   9.638  1.0268 -0.4618 -0.8418
  406MOL0     C54691   0.330   8.922   9.704 -0.5457 -0.9308  0.7165
  406MOL0     N54692   0.204   8.867   9.658 -0.2375  0.0575 -0.7669
  406MOL0     C54693   0.135   8.910   9.550  0.1497 -0.6766 -0.0494
  406MOL0     C54694   0.029   8.820   9.540 -0.3512 -0.4464 -0.8680
  406MOL0     C54695  -0.088   8.819   9.444 -0.4995  0.0464  0.5167
  406MOL0     C54696  -0.203   8.907   9.496  0.7048 -1.0152  0.7480
  406MOL0     C54697  -0.266   8.865   9.628  0.0049  0.5633 -0.9847
  406MOL0     C54698  -0.389   8.954   9.668  1.1781  0.9283 -0.1856
  406MOL0     O54699  -0.444   8.890   9.789 -0.0533 -0.1069  0.1239
  406MOL0     C54700  -0.574   8.930   9.807 -0.5714  0.4829  1.1277
  406MOL0     C54701  -0.611   9.049   9.877 -0.3639  0.4693  0.7679
  406MOL0     C54702  -0.749   9.086   9.891 -0.3850  0.2917  0.3371
  406MOL0     C54703  -0.790   9.188   9.998  0.0740 -0.4555 -0.2320
  406MOL0     C54704  -0.844   9.010   9.824 -0.2697 -0.6165 -0.4021
  406MOL0     C54705  -0.987   9.045   9.797  0.1465 -0.2865 -0.2128
  406MOL0     O54706  -1.051   8.957   9.730  0.7369 -0.0504 -0.5211
  406MOL0     C54707  -1.190   8.949   9.735  0.8095  0.4961  0.6811
  406MOL0     C54708  -1.247   8.949   9.860  0.2268  0.8519  0.0123
  406MOL0     C54709  -1.386   8.948   9.886  0.3921  1.1410  0.3756
  406MOL0     C54710  -1.469   8.940   9.771  0.8897  0.4733 -0.5585
  406MOL0     O54711  -1.604   8.924   9.796 -0.3681 -0.9602 -0.2717
  406MOL0     C54712  -1.699   8.961   9.691 -0.1158  0.5911  0.1505
  406MOL0     C54713  -1.840   8.962   9.751 -0.4019 -0.0993  0.1984
  406MOL0     C54714  -1.956   8.991   9.667  0.2331 -0.8958  0.5456
  406MOL0     C54715  -2.096   8.984   9.738 -0.4642 -0.1534 -0.1545
  406MOL0     C54716  -2.209   8.971   9.641 -0.3415 -0.2611 -0.6775
  406MOL0     C54717  -2.344   8.976   9.709  0.2183  0.3966 -1.1270
  406MOL0     C54718  -2.467   8.955   9.621 -0.7793 -0.1030 -0.0236
  406MOL0     C54719  -2.492   8.815   9.570 -0.0380 -0.0488  0.4516
  406MOL0    Cl54720  -2.665   8.795   9.511 -0.3130 -0.1609  0.2335
  406MOL0     C54721  -1.416   8.944   9.641  1.0098  0.4477 -0.6835
  406MOL0     C54722  -1.277   8.946   9.621 -0.1175  0.4250  0.2980
  406MOL0     O54723  -1.028   9.147   9.839 -0.0807 -0.1209  0.0150
  406MOL0     C54724  -0.803   8.890   9.766 -1.0423 -0.0092 -0.1436
  406MOL0     C54725  -0.668   8.844   9.753 -0.4063  1.2576 -0.1243
  406MOL0     N54726   0.038   8.730   9.644  0.5740 -0.5583  0.0992
  406MOL0     N54727   0.148   8.753   9.703 -0.7340  0.5296  0.1319
  406MOL0     C54728   1.216   8.645   9.055  0.4942 -0.0825  0.7362
  406MOL0     C54729   1.333   8.690   9.000  0.0266  0.7153  0.2767
  406MOL0     C54730   1.673   8.964   8.851 -0.2813 -0.7374 -0.7786
  406MOL0     C54731   1.753   9.078   8.829  0.5955  0.1351 -0.0733
  406MOL0     C54732   1.873   9.066   8.756 -0.8918  0.1223 -0.5678
  406MOL0     C54733   1.929   8.943   8.722 -0.4929 -0.1155 -0.2588
  406MOL0     O54734   2.045   8.930   8.649  0.4995  1.3044 -0.7101
  406MOL0     C54735   2.142   9.035   8.645  0.4129  0.2160  0.2941
  406MOL0     C54736   2.274   8.998   8.570 -0.3160 -0.4336 -0.1762
  406MOL0     C54737   2.355   9.130   8.538 -0.0966  0.3779 -0.1438
  406MOL0     C54738   2.503   9.101   8.497  0.6666  0.3261  0.3893
  406MOL0     C54739   2.503   9.068   8.353 -0.3789  0.1175  0.2495
  406MOL0     C54740   2.507   9.047   8.234 -0.5090  0.6951  0.2129
  406MOL0     C54741   1.862   8.830   8.761 -0.1617  0.9280 -0.3460
  406MOL0     C54742   1.740   8.839   8.821  0.5268 -0.6485 -1.1394
  406MOL0     H54743   1.278   9.017   8.998  1.5963 -0.9690  0.0798
  406MOL0     H54744   1.067   8.947   9.104  0.2867  0.0117  1.5349
  406MOL0     H54745   0.896   8.861   9.040 -1.1886 -0.0904  0.1359
  406MOL0     H54746   0.882   8.718   8.930 -0.1020  0.4820 -1.0124
  406MOL0     H54747   0.662   8.785   9.044 -1.0048 -1.0631 -0.3897
  406MOL0     H54748   0.719   8.631   9.099 -0.5675 -0.1288 -0.1580
  406MOL0     H54749   0.791   8.726   9.315 -1.5838  0.2995  0.5018
  406MOL0     H54750   0.796   8.878   9.251 -1.5071  1.2067  1.3635
  406MOL0     H54751   0.577   8.920   9.244 -2.2274  2.1817  3.9477
  406MOL0     H54752   0.525   8.762   9.264 -0.0183  0.3289 -0.8207
  406MOL0     H54753   0.615   8.720   9.469  2.3267  0.0117 -0.7200
  406MOL0     H54754   0.670   8.887   9.491  0.8807  0.4032 -1.5723
  406MOL0     H54755   0.420   8.966   9.462  0.0788  0.5363  1.7783
  406MOL0     H54756   0.384   8.794   9.439 -2.7544  2.0073  0.9025
  406MOL0     H54757   0.436   8.739   9.660  2.8652 -0.6443 -0.7843
  406MOL0     H54758   0.546   8.868   9.675  0.5546 -0.3175  0.3838
  406MOL0     H54759   0.314   9.020   9.658 -5.1626 -1.8061 -0.0244
  406MOL0     H54760   0.325   8.933   9.812  0.4253  0.7394  0.6226
  406MOL0     H54761   0.173   8.983   9.480  1.0993  0.4772  1.5912
  406MOL0     H54762  -0.063   8.845   9.340 -3.1804  3.8216  0.5985
  406MOL0     H54763  -0.136   8.722   9.427 -0.4603  0.1215 -0.0606
  406MOL0     H54764  -0.280   8.926   9.420  0.5785 -1.0307  0.8722
  406MOL0     H54765  -0.156   9.001   9.524 -0.2352  0.3574 -1.9043
  406MOL0     H54766  -0.203   8.865   9.718 -0.1123 -1.2797 -0.8753
  406MOL0     H54767  -0.310   8.767   9.610 -2.3169  1.4785 -0.7275
  406MOL0     H54768  -0.463   8.966   9.589 -1.3231 -1.2240  1.6632
  406MOL0     H54769  -0.358   9.055   9.699  0.2094  1.5758 -1.2505
  406MOL0     H54770  -0.527   9.099   9.925  0.3739  0.8025 -0.7824
  406MOL0     H54771  -0.711   9.210  10.070 -1.8470  0.3573  1.7207
  406MOL0     H54772  -0.801   9.283   9.946  0.7336 -0.5486 -0.5404
  406MOL0     H54773  -0.880   9.168  10.058 -3.1660 -0.3501 -4.5898
  406MOL0     H54774  -1.184   8.952   9.948  1.9874 -0.4060 -1.1423
  406MOL0     H54775  -1.429   8.945   9.986 -0.5468 -0.8830 -0.0467
  406MOL0     H54776  -1.665   9.058   9.653  1.0312 -0.0601 -0.5206
  406MOL0     H54777  -1.689   8.889   9.610  4.3492 -0.9980  1.8618
  406MOL0     H54778  -1.868   8.866   9.795 -1.6453  0.8696  1.6537
  406MOL0     H54779  -1.831   9.025   9.840  0.4980  0.2537 -0.1356
  406MOL0     H54780  -1.956   8.923   9.581 -1.2601 -0.7578  0.4081
  406MOL0     H54781  -1.948   9.091   9.624 -3.8181 -0.9930 -0.8789
  406MOL0     H54782  -2.093   8.896   9.804 -0.3261  0.7403  1.0566
  406MOL0     H54783  -2.097   9.075   9.798 -0.6290 -1.0229  1.2322
  406MOL0     H54784  -2.191   8.879   9.583  0.5272  0.5913 -1.8159
  406MOL0     H54785  -2.216   9.055   9.571 -2.0762  0.6570  0.5362
  406MOL0     H54786  -2.337   8.903   9.791 -1.5576  0.5505 -0.8020
  406MOL0     H54787  -2.346   9.076   9.752 -2.5673 -0.1260  0.1933
  406MOL0     H54788  -2.462   9.022   9.536 -2.1781 -2.9335 -2.5235
  406MOL0     H54789  -2.545   8.992   9.689  0.0692  2.3538 -0.2924
  406MOL0     H54790  -2.479   8.745   9.653  1.4407 -1.6989 -1.0830
  406MOL0     H54791  -2.428   8.788   9.485  0.6544  2.5119  0.0612
  406MOL0     H54792  -1.470   8.915   9.551  3.0702  1.7579 -2.4545
  406MOL0     H54793  -1.233   8.940   9.522 -1.3302  0.8273 -0.2744
  406MOL0     H54794  -0.866   8.816   9.716  0.5144 -0.6334 -1.2644
  406MOL0     H54795  -0.633   8.768   9.684 -2.3957  0.3843 -0.2526
  406MOL0     H54796   1.217   8.538   9.072 -0.1589 -0.1186  0.5747
  406MOL0     H54797   1.421   8.627   8.989 -1.1035 -0.4165 -3.8721
  406MOL0     H54798   1.690   9.165   8.849 -3.3400 -2.2206 -1.2032
  406MOL0     H54799   1.938   9.152   8.742 -1.3184  0.7844  1.2622
  406MOL0     H54800   2.109   9.127   8.596 -1.9665 -0.7707 -0.0676
  406MOL0     H54801   2.175   9.072   8.742 -0.9156  1.4535  0.2997
  406MOL0     H54802   2.259   8.951   8.472 -0.5067 -0.4036 -0.1601
  406MOL0     H54803   2.333   8.938   8.639  1.3646 -0.1626 -1.3035
  406MOL0     H54804   2.343   9.193   8.626 -0.1631  0.7237 -0.4014
  406MOL0     H54805   2.312   9.189   8.457 -0.7646 -0.3180 -0.3124
  406MOL0     H54806   2.549   9.019   8.552 -0.2485  0.1140  0.8550
  406MOL0     H54807   2.561   9.193   8.508 -0.9501  1.6926 -1.6214
  406MOL0     H54808   2.505   9.021   8.130  0.1856  0.9478  0.1298
  406MOL0     H54809   1.906   8.732   8.742 -2.2187  0.4310 -3.0997
  406MOL0     H54810   1.698   8.751   8.868 -1.0870  0.1228 -1.0846
  407MOL0     O54811   2.514   4.546   8.532 -0.3147 -0.5811  0.2696
  407MOL0     C54812   2.545   4.584   8.643  0.3193 -0.5222  0.9216
  407MOL0     O54813   2.483   4.688   8.705 -0.1347 -0.1297 -0.0727
  407MOL0     C54814   2.376   4.761   8.643 -0.6575  0.4587  0.6520
  407MOL0     C54815   2.328   4.754   8.511 -0.5223 -0.8656  0.4703
  407MOL0     C54816   2.218   4.832   8.473  0.5773  0.2694  0.2330
  407MOL0     C54817   2.162   4.920   8.561 -0.3266  0.0223 -0.0045
  407MOL0     O54818   2.053   4.996   8.533 -0.7580 -0.0131  0.4407
  407MOL0     C54819   2.002   5.003   8.399  0.5438 -0.5627 -0.3949
  407MOL0     C54820   1.869   5.104   8.389 -0.1061  0.0075  0.5503
  407MOL0     C54821   1.789   5.079   8.259  0.1804 -0.3206  0.3160
  407MOL0     C54822   1.674   5.191   8.252  1.1957 -0.7643  0.9420
  407MOL0     C54823   1.529   5.127   8.271  0.3124  0.2820  0.0924
  407MOL0     C54824   1.409   5.222   8.287 -0.1707  0.4431 -0.6447
  407MOL0     C54825   1.284   5.143   8.319  0.3054 -0.3324 -0.9848
  407MOL0     C54826   1.165   5.222   8.271  1.2585 -0.5655 -0.0595
  407MOL0     N54827   1.117   5.183   8.135  0.4542  0.6850  0.3177
  407MOL0     C54828   1.040   5.075   8.111  0.8612  0.1342  0.8762
  407MOL0     C54829   1.012   5.085   7.969  0.9969  0.1115 -0.2270
  407MOL0     C54830   0.909   4.992   7.888  0.1503 -0.4270  0.3750
  407MOL0     C54831   0.762   5.015   7.901 -0.5024  0.3333 -0.1368
  407MOL0     C54832   0.719   5.006   8.050 -0.4017 -0.2139 -0.8603
  407MOL0     C54833   0.580   5.056   8.052  0.6691  1.0311  0.2544
  407MOL0     O54834   0.483   4.972   7.973 -0.6450  0.0159 -0.5436
  407MOL0     C54835   0.352   5.016   7.992  0.2191  0.2025  1.1632
  407MOL0     C54836   0.315   5.143   8.043  0.1417  0.5571 -0.6355
  407MOL0     C54837   0.178   5.188   8.041  0.1678 -0.6487  1.1810
  407MOL0     C54838   0.148   5.321   8.093  0.9650  0.2916  0.3067
  407MOL0     C54839   0.077   5.102   7.979 -0.0850 -0.8303  0.0984
  407MOL0     C54840  -0.063   5.146   7.951  0.1810  0.3209 -0.3132
  407MOL0     O54841  -0.161   5.044   7.967  0.2610 -0.0943 -0.0710
  407MOL0     C54842  -0.294   5.054   7.948  0.1800  0.8344 -0.1330
  407MOL0     C54843  -0.375   4.946   7.986  1.0339  0.5655  0.2312
  407MOL0     C54844  -0.515   4.949   7.961  0.7397 -0.8166 -0.7097
  407MOL0     C54845  -0.570   5.059   7.905  0.1301  0.6018 -0.5250
  407MOL0     O54846  -0.704   5.056   7.878  0.0254 -0.5800  0.0537
  407MOL0     C54847  -0.796   5.096   7.984 -0.3796  0.3216  0.3052
  407MOL0     C54848  -0.824   5.247   7.974  0.3046  1.3413 -0.1852
  407MOL0     C54849  -0.973   5.289   8.008  0.4259  0.0996  0.0475
  407MOL0     C54850  -1.054   5.253   7.877 -0.6983  0.0431  0.8404
  407MOL0     C54851  -1.196   5.312   7.884  0.4913  0.8012  0.2164
  407MOL0     C54852  -1.259   5.290   7.750  0.1836  1.0156  1.0486
  407MOL0     C54853  -1.384   5.363   7.728 -0.0052 -0.1857  0.8963
  407MOL0     C54854  -1.429   5.385   7.586  0.6170  0.4666 -0.5221
  407MOL0    Cl54855  -1.354   5.537   7.528 -0.1195 -0.0843  0.3015
  407MOL0     C54856  -0.492   5.169   7.868 -0.0146  0.1139 -0.1544
  407MOL0     C54857  -0.354   5.167   7.879  0.9753 -1.0847  0.2374
  407MOL0     O54858  -0.074   5.255   7.900  0.5242 -0.2562  0.0293
  407MOL0     C54859   0.120   4.976   7.930 -0.2119 -0.1819 -0.5701
  407MOL0     C54860   0.253   4.931   7.942  0.3577  0.7086  0.8078
  407MOL0     N54861   1.071   5.199   7.918 -0.1673 -0.3016  0.1981
  407MOL0     N54862   1.135   5.259   8.020  0.1591  0.4417  0.2240
  407MOL0     C54863   2.216   4.927   8.685  1.0107  0.2275  0.2546
  407MOL0     C54864   2.319   4.844   8.732  0.6796 -0.8327  0.7138
  407MOL0     C54865   2.661   4.532   8.723  0.2629  1.3632 -0.5546
  407MOL0     C54866   2.731   4.422   8.683  0.0484  0.2057  0.5639
  407MOL0     C54867   2.840   4.377   8.762 -0.1785 -0.5087  0.0798
  407MOL0     C54868   2.880   4.445   8.881  0.5561  1.1550 -0.4030
  407MOL0     O54869   2.981   4.410   8.957 -0.1012  1.0404 -0.1266
  407MOL0     C54870   3.014   4.270   8.978  0.8314  0.0607 -0.3901
  407MOL0     C54871   3.115   4.263   9.098  0.3388  0.1652 -0.0845
  407MOL0     C54872   3.051   4.234   9.233  0.0850  0.2139  0.0730
  407MOL0     C54873   2.997   4.359   9.285  0.7463 -0.3403 -0.4872
  407MOL0     C54874   2.927   4.349   9.415  0.6241 -0.6680  0.5597
  407MOL0     C54875   2.875   4.335   9.522 -0.6490  0.5662 -0.0103
  407MOL0     C54876   2.814   4.560   8.909  0.3800  0.3533 -0.1713
  407MOL0     C54877   2.701   4.603   8.837 -0.7207 -0.0836  0.0347
  407MOL0     H54878   2.364   4.703   8.422 -0.4876  0.5549 -0.3570
  407MOL0     H54879   2.191   4.824   8.368  2.1684 -0.5396 -0.1497
  407MOL0     H54880   2.067   5.048   8.323 -1.0241 -0.3877 -1.6973
  407MOL0     H54881   1.977   4.904   8.358  1.3227 -0.1028 -2.0905
  407MOL0     H54882   1.804   5.103   8.477  1.2856 -1.8716  1.6271
  407MOL0     H54883   1.920   5.200   8.379  2.6007 -1.3542  0.2920
  407MOL0     H54884   1.855   5.075   8.172 -0.1000  0.0886  0.0844
  407MOL0     H54885   1.743   4.980   8.250  0.7161 -0.4609 -1.2768
  407MOL0     H54886   1.682   5.277   8.319  1.3193  3.3064 -3.7425
  407MOL0     H54887   1.678   5.227   8.148 -0.8410 -3.5648 -0.2515
  407MOL0     H54888   1.515   5.062   8.184 -1.6069  0.4428  0.2519
  407MOL0     H54889   1.529   5.065   8.361  1.0695  0.7514  0.4273
  407MOL0     H54890   1.437   5.299   8.360 -0.6649 -0.5433  0.6366
  407MOL0     H54891   1.401   5.272   8.190 -1.8360  0.0887 -0.7290
  407MOL0     H54892   1.279   5.041   8.280 -0.5326 -0.1042 -1.4834
  407MOL0     H54893   1.283   5.132   8.428  0.9560  2.9984 -0.5323
  407MOL0     H54894   1.183   5.330   8.268  1.1927 -0.5426 -3.9587
  407MOL0     H54895   1.086   5.191   8.340 -1.0288  4.2419 -0.1129
  407MOL0     H54896   0.999   5.005   8.184 -0.0762 -0.6311 -0.3291
  407MOL0     H54897   0.934   4.991   7.782  0.4553  0.3778  0.4295
  407MOL0     H54898   0.934   4.896   7.933  1.6664 -1.5051 -2.5422
  407MOL0     H54899   0.723   4.926   7.851  0.7367 -0.3333  0.0352
  407MOL0     H54900   0.737   5.109   7.851  1.1123  0.1156 -1.4186
  407MOL0     H54901   0.772   5.070   8.122  1.2079 -2.0928 -0.3016
  407MOL0     H54902   0.719   4.907   8.096  1.8776  0.6639  1.2648
  407MOL0     H54903   0.586   5.154   8.004  3.3823  0.3788 -0.8983
  407MOL0     H54904   0.539   5.072   8.152 -1.0673  0.0134 -0.2616
  407MOL0     H54905   0.378   5.218   8.089  0.5519  1.4520 -2.5521
  407MOL0     H54906   0.102   5.307   8.191  0.5271 -2.8445 -0.2537
  407MOL0     H54907   0.238   5.383   8.096  0.4620  1.0752 -0.2949
  407MOL0     H54908   0.077   5.386   8.040 -0.0900 -0.4343  0.7902
  407MOL0     H54909  -0.322   4.856   8.017  2.3713  1.3161  0.2298
  407MOL0     H54910  -0.584   4.867   7.976  0.3613 -0.4100 -0.2109
  407MOL0     H54911  -0.885   5.035   7.970  0.4364 -0.7417 -0.4317
  407MOL0     H54912  -0.759   5.075   8.085  1.6828  2.0830 -0.0233
  407MOL0     H54913  -0.752   5.293   8.042  3.4697 -2.6523 -0.4298
  407MOL0     H54914  -0.800   5.277   7.872  0.8766 -0.3904 -0.5988
  407MOL0     H54915  -0.989   5.394   8.035  2.6017  0.4621  0.1058
  407MOL0     H54916  -1.009   5.215   8.080 -2.2337  0.2965 -0.9448
  407MOL0     H54917  -0.999   5.296   7.793  0.0324 -0.3084  1.1258
  407MOL0     H54918  -1.070   5.146   7.864 -1.3199  0.3334 -1.1104
  407MOL0     H54919  -1.180   5.417   7.908  1.7560  0.6801  0.0032
  407MOL0     H54920  -1.263   5.271   7.961 -0.8607  1.1593 -0.7475
  407MOL0     H54921  -1.181   5.326   7.681  0.8637 -1.4352  0.4612
  407MOL0     H54922  -1.264   5.183   7.727  4.1557  0.6369  1.2792
  407MOL0     H54923  -1.380   5.462   7.775 -0.5255  0.3914 -0.2548
  407MOL0     H54924  -1.463   5.305   7.778 -0.3462 -0.6979 -0.2070
  407MOL0     H54925  -1.538   5.394   7.588  0.3882 -0.6091 -3.5037
  407MOL0     H54926  -1.408   5.302   7.518 -2.9768  0.7713 -2.2887
  407MOL0     H54927  -0.535   5.249   7.808  0.7974 -1.2190 -2.6669
  407MOL0     H54928  -0.306   5.254   7.837 -0.2833 -0.6883 -0.4559
  407MOL0     H54929   0.048   4.909   7.885  0.7066 -1.9169  0.4558
  407MOL0     H54930   0.274   4.829   7.909 -0.3354  1.1683 -1.2152
  407MOL0     H54931   2.172   5.002   8.750  0.4245 -0.2267  0.3971
  407MOL0     H54932   2.343   4.828   8.837  0.0802 -1.1612  0.7997
  407MOL0     H54933   2.709   4.376   8.587 -0.5916 -1.4930  1.4897
  407MOL0     H54934   2.894   4.291   8.725  1.8571  0.0347  1.6029
  407MOL0     H54935   2.926   4.207   9.000  1.2187 -0.8311 -1.3037
  407MOL0     H54936   3.057   4.231   8.886  1.9532  1.0288 -0.3000
  407MOL0     H54937   3.165   4.361   9.101 -0.7242  0.7408 -0.4856
  407MOL0     H54938   3.189   4.184   9.083 -0.4291 -1.1301  2.4223
  407MOL0     H54939   3.138   4.199   9.289  2.9581  1.5400 -3.1843
  407MOL0     H54940   2.974   4.157   9.233 -0.8963  1.1674  0.8426
  407MOL0     H54941   2.918   4.395   9.219  0.8205 -2.4512 -1.8002
  407MOL0     H54942   3.086   4.424   9.286 -0.1579  1.0031 -2.1418
  407MOL0     H54943   2.813   4.324   9.609  0.6137  3.3776  1.3820
  407MOL0     H54944   2.845   4.625   8.991 -1.7726 -0.3025  1.2512
  407MOL0     H54945   2.648   4.689   8.878  0.7801  0.5874  0.6383
  408MOL0     O54946   0.591   7.617   5.758  0.1312  0.0946 -0.5398
  408MOL0     C54947   0.569   7.609   5.878  0.1476  0.1878  0.3823
  408MOL0     O54948   0.446   7.633   5.942  0.3695 -0.5785  0.6958
  408MOL0     C54949   0.332   7.631   5.864 -0.1920  0.4034  1.0374
  408MOL0     C54950   0.220   7.615   5.941  0.2377  0.5050 -0.6138
  408MOL0     C54951   0.095   7.624   5.887 -0.3458 -1.6419 -0.0887
  408MOL0     C54952   0.069   7.672   5.761  0.6291 -0.4585  0.4380
  408MOL0     O54953  -0.055   7.702   5.705 -0.1109  0.5685  0.1815
  408MOL0     C54954  -0.165   7.726   5.794  0.2642  0.3694  0.0575
  408MOL0     C54955  -0.142   7.840   5.899  0.1461 -0.0291  0.1315
  408MOL0     C54956  -0.256   7.844   6.008 -0.4001 -0.2270  1.0083
  408MOL0     C54957  -0.399   7.853   5.951 -0.4254  0.3751 -0.3594
  408MOL0     C54958  -0.506   7.871   6.055  0.6114 -0.1936 -0.3946
  408MOL0     C54959  -0.523   7.749   6.147  0.2237  0.5166  0.3590
  408MOL0     C54960  -0.654   7.774   6.218  0.8628 -0.4075 -0.7444
  408MOL0     C54961  -0.683   7.668   6.334 -0.5913  0.2668 -0.1326
  408MOL0     N54962  -0.827   7.655   6.354  0.5628 -0.1813  0.5179
  408MOL0     C54963  -0.893   7.735   6.441 -0.5422  0.4771 -0.0303
  408MOL0     C54964  -1.018   7.719   6.419  0.0773  0.5278  0.0796
  408MOL0     C54965  -1.132   7.788   6.500 -1.4649  0.6633  1.2212
  408MOL0     C54966  -1.256   7.803   6.426 -0.1548 -0.3115 -0.2149
  408MOL0     C54967  -1.377   7.819   6.526  0.1276  0.9241  0.7063
  408MOL0     C54968  -1.496   7.850   6.441  0.5886 -0.0541 -1.0392
  408MOL0     O54969  -1.612   7.874   6.523  0.1799  0.2179 -0.7916
  408MOL0     C54970  -1.736   7.875   6.460  0.2528 -0.0450 -0.4440
  408MOL0     C54971  -1.847   7.895   6.546 -1.0046 -0.2554  0.1164
  408MOL0     C54972  -1.979   7.893   6.499  0.7626  0.1665 -0.1106
  408MOL0     C54973  -2.089   7.900   6.604  0.5193  0.2290  0.3681
  408MOL0     C54974  -2.003   7.869   6.352 -0.2634 -0.3318  0.2944
  408MOL0     C54975  -2.137   7.860   6.294  0.9742  0.7296  0.9464
  408MOL0     O54976  -2.129   7.829   6.158 -0.2468 -0.3777  0.1682
  408MOL0     C54977  -2.244   7.816   6.079 -0.4610  0.3945 -0.5704
  408MOL0     C54978  -2.237   7.731   5.971  0.5330 -0.0146  0.6578
  408MOL0     C54979  -2.350   7.724   5.882 -0.1470 -0.5574 -0.2012
  408MOL0     C54980  -2.465   7.805   5.887  0.2002 -1.0244  0.0630
  408MOL0     O54981  -2.565   7.797   5.794 -0.1613 -0.3510  0.3845
  408MOL0     C54982  -2.701   7.831   5.836 -0.6158  0.9462  0.4172
  408MOL0     C54983  -2.795   7.811   5.722  0.4990 -0.3370 -1.1980
  408MOL0     C54984  -2.940   7.853   5.767  0.8034  0.3756  0.1471
  408MOL0     C54985  -3.048   7.838   5.652 -0.4911 -0.1318 -0.9122
  408MOL0     C54986  -3.169   7.928   5.684 -1.3032  1.1557 -0.7773
  408MOL0     C54987  -3.291   7.892   5.597 -0.4343 -0.1402 -0.1049
  408MOL0     C54988  -3.368   8.013   5.552 -0.3143 -0.7336 -0.0275
  408MOL0     C54989  -3.458   7.965   5.426  0.1557 -0.4642 -0.4183
  408MOL0    Cl54990  -3.585   8.087   5.393  0.6458 -0.5178 -0.3148
  408MOL0     C54991  -2.468   7.889   5.991  0.4620  0.1339 -0.2448
  408MOL0     C54992  -2.360   7.895   6.085  0.7575 -0.0051  0.2869
  408MOL0     O54993  -2.243   7.871   6.359 -1.1021  0.2685 -0.1299
  408MOL0     C54994  -1.890   7.862   6.270 -0.0529 -0.1527  0.0749
  408MOL0     C54995  -1.761   7.872   6.323  0.4118  0.5605 -0.5598
  408MOL0     N54996  -1.027   7.645   6.298  0.3528  0.1372 -0.0573
  408MOL0     N54997  -0.912   7.601   6.261  0.2193  0.3837  0.0040
  408MOL0     C54998   0.177   7.682   5.680 -0.4138 -0.5173  0.4043
  408MOL0     C54999   0.308   7.653   5.724  0.1183  0.2932 -0.2120
  408MOL0     C55000   0.689   7.603   5.966 -0.7377 -0.2489 -0.1833
  408MOL0     C55001   0.819   7.626   5.911 -0.1711  0.1793  0.2548
  408MOL0     C55002   0.933   7.625   5.990 -0.1008  0.4025 -0.4665
  408MOL0     C55003   0.923   7.592   6.130  0.3794  0.3085  0.4447
  408MOL0     O55004   1.030   7.580   6.216 -0.0897  0.4125  0.1353
  408MOL0     C55005   1.163   7.622   6.183 -0.4014 -0.4183  0.0395
  408MOL0     C55006   1.242   7.648   6.318  0.8727  0.2644  0.3702
  408MOL0     C55007   1.265   7.513   6.385  0.4492  1.1578 -0.5683
  408MOL0     C55008   1.339   7.526   6.520  0.0310  0.5446  0.1778
  408MOL0     C55009   1.462   7.600   6.496  0.7582  0.1491 -0.4537
  408MOL0     C55010   1.562   7.673   6.490 -0.6007  0.1906  0.1109
  408MOL0     C55011   0.794   7.580   6.184  0.1952  0.1726 -0.1894
  408MOL0     C55012   0.680   7.579   6.099  0.2005 -1.0682  0.6041
  408MOL0     H55013   0.243   7.589   6.044 -0.6705 -1.0596 -0.7790
  408MOL0     H55014   0.018   7.593   5.958 -0.1899 -2.5208 -0.3019
  408MOL0     H55015  -0.250   7.758   5.734 -0.2870 -0.6562  0.2678
  408MOL0     H55016  -0.199   7.634   5.843 -1.7858 -0.1724 -2.1904
  408MOL0     H55017  -0.053   7.822   5.960  0.7580 -0.5374 -0.8720
  408MOL0     H55018  -0.131   7.935   5.844 -0.4194 -2.0595 -3.9102
  408MOL0     H55019  -0.247   7.762   6.080 -1.5428 -0.5675  0.7789
  408MOL0     H55020  -0.235   7.934   6.068  1.1814 -0.4415  0.8248
  408MOL0     H55021  -0.402   7.938   5.883 -0.1686  0.4074 -0.3319
  408MOL0     H55022  -0.415   7.756   5.903  1.3498 -0.0885 -0.0971
  408MOL0     H55023  -0.475   7.953   6.120  2.2013  0.1414 -1.5045
  408MOL0     H55024  -0.598   7.884   5.997 -0.0881 -2.3982  0.1191
  408MOL0     H55025  -0.527   7.658   6.086  3.2516  2.5711 -3.2538
  408MOL0     H55026  -0.442   7.742   6.220  0.9624 -0.6339 -0.5435
  408MOL0     H55027  -0.639   7.871   6.266  2.1884 -0.7264 -0.4902
  408MOL0     H55028  -0.732   7.773   6.141 -2.3925  1.6135  2.1973
  408MOL0     H55029  -0.639   7.700   6.428 -0.7951 -1.6911  0.6702
  408MOL0     H55030  -0.642   7.571   6.305 -0.2767  0.4030 -0.1420
  408MOL0     H55031  -0.855   7.796   6.523  1.9260 -0.8008 -0.1196
  408MOL0     H55032  -1.153   7.725   6.587  0.9056 -1.9042  0.1197
  408MOL0     H55033  -1.095   7.885   6.534  2.6894  0.4478 -1.8823
  408MOL0     H55034  -1.278   7.715   6.366  1.9145 -0.4025 -0.9315
  408MOL0     H55035  -1.246   7.893   6.364  1.6388  1.3277  2.2341
  408MOL0     H55036  -1.347   7.884   6.608 -0.3164 -1.9505  3.3440
  408MOL0     H55037  -1.398   7.728   6.583 -1.7279  0.0141 -1.2590
  408MOL0     H55038  -1.509   7.771   6.367  1.8226 -1.2124 -0.0718
  408MOL0     H55039  -1.476   7.939   6.380  0.6480 -0.0828 -1.0608
  408MOL0     H55040  -1.840   7.909   6.653 -1.6079  0.9003  0.0204
  408MOL0     H55041  -2.156   7.814   6.595  0.9695 -0.2880  1.7356
  408MOL0     H55042  -2.046   7.894   6.704  0.6490  0.4657  0.3275
  408MOL0     H55043  -2.153   7.988   6.593 -0.5914 -0.4882  0.9514
  408MOL0     H55044  -2.151   7.673   5.941 -1.4461 -1.0478 -4.0638
  408MOL0     H55045  -2.368   7.652   5.803  0.3268 -1.3146  0.3737
  408MOL0     H55046  -2.731   7.757   5.911 -0.9790 -1.8276 -2.2499
  408MOL0     H55047  -2.709   7.934   5.869 -0.3010  0.2880  2.6943
  408MOL0     H55048  -2.762   7.874   5.639  1.5148  4.3248  2.3352
  408MOL0     H55049  -2.794   7.705   5.694  0.8820 -1.2108  1.7700
  408MOL0     H55050  -2.932   7.959   5.795  1.7843  0.1210  0.9286
  408MOL0     H55051  -2.968   7.795   5.856 -0.5470 -1.7926 -1.5831
  408MOL0     H55052  -3.000   7.866   5.558  0.3312 -1.3728 -0.8904
  408MOL0     H55053  -3.069   7.731   5.646 -3.6461  0.0096  3.1352
  408MOL0     H55054  -3.138   8.033   5.685  1.7698  0.4367  3.1966
  408MOL0     H55055  -3.192   7.899   5.787  0.2378 -0.3266 -0.8111
  408MOL0     H55056  -3.263   7.830   5.511 -1.5224  1.0892 -1.3973
  408MOL0     H55057  -3.349   7.830   5.666  2.4823 -0.0066  2.7242
  408MOL0     H55058  -3.306   8.101   5.531 -3.5722  1.9308  0.6070
  408MOL0     H55059  -3.440   8.038   5.630 -0.3084  0.7997 -0.4725
  408MOL0     H55060  -3.504   7.871   5.460  2.8065 -1.1215  1.7128
  408MOL0     H55061  -3.399   7.945   5.336 -1.3481  2.4469 -2.1777
  408MOL0     H55062  -2.548   7.961   5.999  1.6106  1.7064 -1.9983
  408MOL0     H55063  -2.367   7.960   6.171  0.8467 -1.4790  1.4343
  408MOL0     H55064  -1.910   7.860   6.163 -2.8258  2.7704  0.3810
  408MOL0     H55065  -1.680   7.866   6.252  0.2894  2.2077 -0.8802
  408MOL0     H55066   0.163   7.726   5.582  3.0328 -1.0368 -0.4432
  408MOL0     H55067   0.392   7.660   5.655  0.0935  0.3396 -0.2369
  408MOL0     H55068   0.821   7.633   5.803 -4.4205 -3.4950 -0.3739
  408MOL0     H55069   1.026   7.645   5.937 -0.5825  2.3463 -0.6476
  408MOL0     H55070   1.216   7.549   6.121 -1.4887 -2.3937  1.3436
  408MOL0     H55071   1.161   7.711   6.118  1.7432 -1.1145 -1.0974
  408MOL0     H55072   1.196   7.720   6.387  1.2001 -0.1047  0.9816
  408MOL0     H55073   1.335   7.689   6.278  0.2049 -0.4452 -2.0954
  408MOL0     H55074   1.326   7.452   6.317  0.3347 -0.3969  0.6447
  408MOL0     H55075   1.167   7.467   6.403  1.1152  0.5199  1.7877
  408MOL0     H55076   1.359   7.425   6.558  0.9958  1.5241  2.4505
  408MOL0     H55077   1.272   7.572   6.593 -1.1132 -4.0461  2.4403
  408MOL0     H55078   1.646   7.737   6.503 -1.0943  1.0738 -0.8346
  408MOL0     H55079   0.783   7.568   6.292 -2.0257 -0.3624 -0.4304
  408MOL0     H55080   0.582   7.570   6.146 -0.5545  1.0896 -0.4011
  409MOL0     O55081   4.299   5.934   0.942 -0.1849  0.3082 -1.1915
  409MOL0     C55082   4.343   5.821   0.977 -0.8367  0.7360  1.0228
  409MOL0     O55083   4.292   5.735   1.073 -0.5907 -0.5290 -0.4707
  409MOL0     C55084   4.179   5.771   1.145 -0.1481  1.2584 -0.0157
  409MOL0     C55085   4.194   5.766   1.282 -0.6127  0.4474  0.4471
  409MOL0     C55086   4.084   5.798   1.364 -1.1376  0.1052  0.1937
  409MOL0     C55087   3.958   5.833   1.306  0.0971  0.6992  0.0473
  409MOL0     O55088   3.851   5.848   1.398 -0.4479 -0.4723  0.9146
  409MOL0     C55089   3.723   5.846   1.334 -1.2016  0.1661 -0.3716
  409MOL0     C55090   3.609   5.822   1.431 -0.3980 -0.1479  0.6309
  409MOL0     C55091   3.614   5.892   1.569 -0.8531 -0.7031 -1.2228
  409MOL0     C55092   3.566   5.806   1.681  0.7815  0.1796  0.4970
  409MOL0     C55093   3.545   5.882   1.811 -0.5416  0.4482 -0.1990
  409MOL0     C55094   3.421   5.962   1.814 -0.1341  0.0773  0.4139
  409MOL0     C55095   3.294   5.879   1.841  0.7659  0.4491  1.1125
  409MOL0     C55096   3.274   5.814   1.977 -0.0762 -0.3749 -0.9672
  409MOL0     N55097   3.188   5.894   2.065  0.0349  0.3314  0.4593
  409MOL0     C55098   3.178   6.028   2.069  0.1720 -0.5262  0.8025
  409MOL0     C55099   3.124   6.057   2.190 -0.1796  0.5435 -0.3240
  409MOL0     C55100   3.091   6.201   2.236 -0.3153 -1.6011 -0.6008
  409MOL0     C55101   3.061   6.193   2.387  0.6081  0.2391 -0.8859
  409MOL0     C55102   3.060   6.330   2.456 -0.4810  0.4111  0.7536
  409MOL0     C55103   3.029   6.302   2.603 -0.3536 -0.7980  0.6692
  409MOL0     O55104   2.884   6.268   2.627  0.0978 -0.3833 -1.0481
  409MOL0     C55105   2.782   6.362   2.618 -0.0678 -0.6201 -0.4476
  409MOL0     C55106   2.652   6.326   2.653  0.7357 -0.1616 -0.3884
  409MOL0     C55107   2.547   6.416   2.652  0.4713  0.0161  1.1159
  409MOL0     C55108   2.411   6.342   2.676 -0.3271 -0.1659 -0.3012
  409MOL0     C55109   2.566   6.557   2.633 -0.4040 -0.1956 -0.4692
  409MOL0     C55110   2.452   6.648   2.623  0.4204 -0.4903 -0.5302
  409MOL0     O55111   2.466   6.772   2.673 -0.4723 -1.0010 -0.2981
  409MOL0     C55112   2.362   6.859   2.699  0.8241  0.4851 -0.0337
  409MOL0     C55113   2.297   6.830   2.816  0.1665  0.2774  0.1195
  409MOL0     C55114   2.183   6.898   2.851  0.4522 -0.2334 -0.3908
  409MOL0     C55115   2.126   6.999   2.775  0.3251  0.5707 -0.4049
  409MOL0     O55116   2.025   7.071   2.829  0.4695  0.4997 -0.4539
  409MOL0     C55117   1.947   7.159   2.743 -0.3584  0.0338  0.1802
  409MOL0     C55118   1.830   7.228   2.804  0.2877  0.0028 -0.6662
  409MOL0     C55119   1.775   7.336   2.706 -0.0567  0.3051  0.5620
  409MOL0     C55120   1.655   7.389   2.782 -0.0861  0.6825  0.9979
  409MOL0     C55121   1.605   7.512   2.706 -0.1927 -0.2347  0.2736
  409MOL0     C55122   1.564   7.624   2.805 -0.5297 -0.6090  0.4759
  409MOL0     C55123   1.493   7.745   2.742 -0.3260 -0.9595 -0.7042
  409MOL0     C55124   1.350   7.764   2.800  0.4674  0.0242 -0.3372
  409MOL0    Cl55125   1.235   7.636   2.751  0.1332  0.3700  0.0269
  409MOL0     C55126   2.185   7.022   2.650  0.4317  0.1025  0.6486
  409MOL0     C55127   2.304   6.948   2.611  0.4493 -0.1922 -0.0372
  409MOL0     O55128   2.355   6.614   2.554  0.5076  0.1173 -0.4074
  409MOL0     C55129   2.693   6.594   2.611 -0.8081  0.1854  0.4009
  409MOL0     C55130   2.804   6.505   2.603  0.2830 -0.5968  0.3599
  409MOL0     N55131   3.101   5.939   2.260  0.1226  0.2580 -0.9759
  409MOL0     N55132   3.160   5.847   2.188 -0.2943 -0.7199 -0.0881
  409MOL0     C55133   3.956   5.848   1.168  0.2975  0.2197  0.0399
  409MOL0     C55134   4.059   5.807   1.089 -0.3408  0.2007 -0.3704
  409MOL0     C55135   4.473   5.778   0.912 -0.7910  0.4737 -0.2286
  409MOL0     C55136   4.526   5.649   0.946  0.1445 -0.5268  0.0795
  409MOL0     C55137   4.652   5.606   0.894 -0.5417 -0.2317  0.1538
  409MOL0     C55138   4.720   5.688   0.808 -0.3850  0.4657  0.3911
  409MOL0     O55139   4.844   5.637   0.760  0.4899 -0.7777  0.6343
  409MOL0     C55140   4.931   5.723   0.677 -0.5559 -0.1043 -0.2007
  409MOL0     C55141   4.885   5.729   0.532 -0.1468  0.7859  0.0949
  409MOL0     C55142   4.884   5.583   0.471  0.5738  0.7349  0.8324
  409MOL0     C55143   4.887   5.569   0.314 -0.6649  0.7493 -1.2728
  409MOL0     C55144   4.765   5.626   0.264  0.1369  0.7050 -0.2035
  409MOL0     C55145   4.666   5.690   0.225 -0.3452  0.4996 -0.2849
  409MOL0     C55146   4.671   5.819   0.774 -0.6382  0.4132  0.0955
  409MOL0     C55147   4.554   5.860   0.830  0.3504  0.0234 -0.1484
  409MOL0     H55148   4.289   5.747   1.331  1.0860  5.1774 -0.4297
  409MOL0     H55149   4.101   5.783   1.470  1.3163  0.0615 -0.1441
  409MOL0     H55150   3.710   5.942   1.283 -0.9945 -0.3484 -1.4166
  409MOL0     H55151   3.714   5.762   1.266 -4.0839 -1.5176  1.8395
  409MOL0     H55152   3.514   5.847   1.384  0.3646  1.3823 -0.1415
  409MOL0     H55153   3.600   5.715   1.454 -0.8103 -0.2313  0.0958
  409MOL0     H55154   3.716   5.914   1.603 -1.7486  1.0572  0.5964
  409MOL0     H55155   3.557   5.985   1.562 -0.8738 -0.5968  0.1273
  409MOL0     H55156   3.473   5.754   1.656  1.1971 -0.6422  0.6361
  409MOL0     H55157   3.639   5.727   1.699 -1.7931 -2.2247  1.0838
  409MOL0     H55158   3.551   5.809   1.892 -0.7429 -0.5387 -1.0547
  409MOL0     H55159   3.630   5.950   1.819  0.0607 -0.3159  0.0556
  409MOL0     H55160   3.424   6.035   1.895  1.9043  0.3263  0.1677
  409MOL0     H55161   3.416   6.008   1.715  0.6315 -3.6503 -1.5616
  409MOL0     H55162   3.211   5.946   1.814  0.8310 -0.0630 -0.5075
  409MOL0     H55163   3.285   5.796   1.770  1.0750 -0.3253  1.9591
  409MOL0     H55164   3.369   5.787   2.025  1.2827  2.7118 -1.6592
  409MOL0     H55165   3.224   5.718   1.967 -2.4443  0.9049 -2.2828
  409MOL0     H55166   3.209   6.101   1.995  2.3617 -1.0182  1.1583
  409MOL0     H55167   3.174   6.267   2.209 -0.7910 -0.1834  1.1646
  409MOL0     H55168   3.004   6.243   2.184 -1.2258 -2.0413  0.5015
  409MOL0     H55169   3.141   6.135   2.435  0.4007 -1.2454 -2.2420
  409MOL0     H55170   2.967   6.143   2.411  0.5955  1.2065  1.3860
  409MOL0     H55171   2.992   6.398   2.404  1.5384  1.5603 -0.5034
  409MOL0     H55172   3.156   6.379   2.439  0.4534 -1.3461  0.6805
  409MOL0     H55173   3.042   6.396   2.657 -1.6467  0.4025 -0.9861
  409MOL0     H55174   3.093   6.223   2.643  0.9546 -0.3067 -0.3583
  409MOL0     H55175   2.651   6.217   2.653  1.4419 -0.1826 -1.1873
  409MOL0     H55176   2.341   6.384   2.604  0.2503  0.2950 -0.6046
  409MOL0     H55177   2.420   6.233   2.677  1.0496 -0.0793 -1.0566
  409MOL0     H55178   2.371   6.378   2.771  1.1351 -1.6995  0.9698
  409MOL0     H55179   2.337   6.745   2.871 -2.3931 -1.1665 -0.0840
  409MOL0     H55180   2.150   6.874   2.951  2.5473  0.4119  0.5193
  409MOL0     H55181   2.011   7.246   2.721  0.4386 -0.8822 -1.2960
  409MOL0     H55182   1.914   7.107   2.653  0.6498 -2.6697  1.2844
  409MOL0     H55183   1.765   7.141   2.818  3.7171 -2.5226  0.9359
  409MOL0     H55184   1.862   7.269   2.900  0.7832  0.3777 -0.9929
  409MOL0     H55185   1.762   7.298   2.604 -1.5720  2.3902 -0.0964
  409MOL0     H55186   1.859   7.406   2.698  0.4982 -0.3321  0.7384
  409MOL0     H55187   1.577   7.312   2.785  2.3029 -1.9393  0.4394
  409MOL0     H55188   1.681   7.405   2.887  1.4248 -1.7041  1.0657
  409MOL0     H55189   1.515   7.486   2.650  0.5893 -3.7029  0.4122
  409MOL0     H55190   1.683   7.545   2.637  0.4534  0.1445  1.1726
  409MOL0     H55191   1.497   7.591   2.885 -2.1970 -0.5096 -0.8149
  409MOL0     H55192   1.654   7.663   2.854  1.5545 -0.1692 -3.3245
  409MOL0     H55193   1.495   7.722   2.635 -2.0656 -2.5606 -0.4518
  409MOL0     H55194   1.550   7.837   2.756  1.1659 -1.9471 -0.1145
  409MOL0     H55195   1.303   7.854   2.759 -1.4017 -0.6135  0.2900
  409MOL0     H55196   1.359   7.764   2.909  4.7120 -1.7107 -0.4999
  409MOL0     H55197   2.142   7.090   2.578  2.8603  0.9758 -0.0975
  409MOL0     H55198   2.360   6.962   2.519 -1.1360  2.5730 -0.7006
  409MOL0     H55199   2.708   6.701   2.603  0.9203  0.0310  1.0492
  409MOL0     H55200   2.906   6.541   2.594  0.0218 -0.2063 -1.3519
  409MOL0     H55201   3.865   5.878   1.117 -0.3296  0.7532  1.4045
  409MOL0     H55202   4.038   5.811   0.982  1.0802  2.9465 -0.6293
  409MOL0     H55203   4.463   5.584   1.006 -5.1504  1.3639 -2.7845
  409MOL0     H55204   4.693   5.510   0.924  2.4397  0.1925 -2.0941
  409MOL0     H55205   4.927   5.828   0.710 -3.8916  0.6661 -2.5526
  409MOL0     H55206   5.034   5.687   0.680 -1.5814 -3.6862  4.6840
  409MOL0     H55207   4.952   5.794   0.475  0.1718 -0.0659 -0.5320
  409MOL0     H55208   4.786   5.773   0.524  0.5003  2.0023 -1.7360
  409MOL0     H55209   4.788   5.539   0.499 -0.3721  0.2121 -2.7115
  409MOL0     H55210   4.971   5.535   0.517  0.3438 -2.4700 -1.6949
  409MOL0     H55211   4.889   5.462   0.290  0.9139  0.0413  1.6144
  409MOL0     H55212   4.981   5.613   0.276 -0.2662  1.4828  0.4960
  409MOL0     H55213   4.569   5.722   0.192  1.1282  3.2408 -2.3148
  409MOL0     H55214   4.728   5.899   0.728 -0.2014  1.6187  2.5808
  409MOL0     H55215   4.528   5.964   0.812 -0.8355 -0.0254  1.0912
  410MOL0     O55216   4.194   7.839   3.177 -0.5450  0.0428 -0.2078
  410MOL0     C55217   4.305   7.841   3.124 -0.7608  0.3994  0.3556
  410MOL0     O55218   4.350   7.929   3.031  0.0536  0.5080 -0.2241
  410MOL0     C55219   4.287   8.044   3.008 -0.2727 -0.4548  0.1301
  410MOL0     C55220   4.347   8.171   3.036 -0.7072  0.5042  0.2726
  410MOL0     C55221   4.282   8.290   3.007 -0.5349 -0.2685 -0.0577
  410MOL0     C55222   4.150   8.294   2.956 -0.0187  0.3687  0.0454
  410MOL0     O55223   4.087   8.423   2.948 -0.3533  0.3722  0.2817
  410MOL0     C55224   4.122   8.521   3.051  0.6928 -0.0633  0.4038
  410MOL0     C55225   4.018   8.629   3.067  0.2580 -0.6488 -0.3285
  410MOL0     C55226   3.902   8.576   3.151 -0.8903 -0.5153 -0.4521
  410MOL0     C55227   3.800   8.678   3.159 -0.0303  0.8528  0.2704
  410MOL0     C55228   3.682   8.646   3.064 -0.8350  0.8923 -0.1340
  410MOL0     C55229   3.587   8.764   3.061 -0.0184  0.3215 -0.9694
  410MOL0     C55230   3.626   8.876   2.963 -0.1542 -0.3549 -0.2707
  410MOL0     C55231   3.526   8.988   2.965 -0.3584 -0.2597  0.6157
  410MOL0     N55232   3.391   8.951   2.916 -0.3510 -0.0272  0.4791
  410MOL0     C55233   3.361   8.875   2.796 -0.0335 -1.1870 -0.0999
  410MOL0     C55234   3.222   8.878   2.798  0.0891 -0.3573 -0.0630
  410MOL0     C55235   3.152   8.832   2.680 -0.6851  0.2953 -0.3471
  410MOL0     C55236   3.178   8.686   2.649 -0.5001  0.4033 -0.5360
  410MOL0     C55237   3.057   8.614   2.584 -1.0503  0.3182  0.7129
  410MOL0     C55238   3.108   8.492   2.506 -0.2005 -0.1287 -1.0098
  410MOL0     O55239   3.133   8.387   2.602  0.0831 -0.1974 -0.2569
  410MOL0     C55240   3.126   8.263   2.553  0.1371 -1.1545 -0.4744
  410MOL0     C55241   3.241   8.183   2.567 -0.0053 -0.0667 -0.4384
  410MOL0     C55242   3.239   8.048   2.538 -0.1543 -0.1081 -0.2990
  410MOL0     C55243   3.376   7.983   2.533 -0.1522 -0.8835  0.2059
  410MOL0     C55244   3.109   7.991   2.494 -0.4931  0.1807 -0.0631
  410MOL0     C55245   3.086   7.850   2.456 -0.4923  0.2869  0.2231
  410MOL0     O55246   2.962   7.815   2.400  0.0667 -0.1376 -0.0524
  410MOL0     C55247   2.926   7.684   2.388 -0.0073 -0.1970  0.0461
  410MOL0     C55248   2.942   7.593   2.487 -0.6547  0.0767  0.3026
  410MOL0     C55249   2.894   7.461   2.480 -0.1193 -0.0299  0.0355
  410MOL0     C55250   2.816   7.420   2.365 -0.1241 -0.7131 -0.1414
  410MOL0     O55251   2.743   7.302   2.331  0.2512 -0.4053 -0.0116
  410MOL0     C55252   2.722   7.208   2.436 -1.2136  0.0320  0.1537
  410MOL0     C55253   2.604   7.111   2.410 -0.4343 -0.4235  0.0279
  410MOL0     C55254   2.652   6.994   2.322  0.3860  0.7392  0.1828
  410MOL0     C55255   2.524   6.917   2.259 -1.0631  0.3975  0.3571
  410MOL0     C55256   2.564   6.778   2.196 -0.1032  0.1066 -1.3194
  410MOL0     C55257   2.579   6.658   2.289 -0.2258 -0.2538 -0.7367
  410MOL0     C55258   2.598   6.530   2.205 -0.3251 -0.6924  0.3420
  410MOL0     C55259   2.619   6.409   2.291 -0.0163 -0.0370 -0.3516
  410MOL0    Cl55260   2.691   6.273   2.194  0.4814 -0.0559  0.1172
  410MOL0     C55261   2.795   7.522   2.273 -0.5375  0.1965  0.8337
  410MOL0     C55262   2.848   7.654   2.276 -0.5319 -0.4871  0.6910
  410MOL0     O55263   3.181   7.775   2.467 -0.0743  0.1473 -0.8527
  410MOL0     C55264   2.995   8.078   2.489  0.0654 -0.2613 -0.6040
  410MOL0     C55265   3.007   8.211   2.513  0.5155 -0.4151  0.0436
  410MOL0     N55266   3.185   8.942   2.917 -0.0403  0.8127  0.1945
  410MOL0     N55267   3.277   8.977   2.983  0.3846  0.5870 -0.1339
  410MOL0     C55268   4.082   8.176   2.932  0.6756  0.0443  0.9375
  410MOL0     C55269   4.152   8.052   2.958 -0.0498 -0.4054  1.2276
  410MOL0     C55270   4.393   7.727   3.155 -0.0895 -0.8397 -1.2744
  410MOL0     C55271   4.480   7.680   3.064  0.7313  0.0503  0.8757
  410MOL0     C55272   4.572   7.574   3.092  0.7180  0.3032  0.2990
  410MOL0     C55273   4.580   7.519   3.220  0.9435  0.2295  0.6271
  410MOL0     O55274   4.672   7.425   3.244  0.0940 -0.6078  0.6433
  410MOL0     C55275   4.639   7.308   3.315  0.1232 -0.0406 -0.4746
  410MOL0     C55276   4.764   7.215   3.324 -0.7317 -0.7744 -0.9470
  410MOL0     C55277   4.813   7.162   3.189  0.4765 -0.1705  0.0731
  410MOL0     C55278   4.967   7.158   3.162 -0.5591  0.2712  0.4851
  410MOL0     C55279   5.032   7.069   3.263  0.3032 -1.0734 -0.5009
  410MOL0     C55280   5.092   6.995   3.341 -0.4991 -0.1637  0.1969
  410MOL0     C55281   4.486   7.569   3.308 -0.1371 -0.2924 -1.0787
  410MOL0     C55282   4.403   7.681   3.286  1.2330  0.1489  0.3047
  410MOL0     H55283   4.450   8.162   3.069 -1.1557  0.1219  1.6398
  410MOL0     H55284   4.339   8.379   3.032 -1.7823 -0.5231  4.8009
  410MOL0     H55285   4.136   8.473   3.148  2.5000  3.2041  1.8877
  410MOL0     H55286   4.216   8.564   3.015 -0.5406  1.2073 -1.5124
  410MOL0     H55287   4.065   8.699   3.137  0.5471 -0.5184 -0.6473
  410MOL0     H55288   3.991   8.676   2.971  1.9847 -2.6131 -1.8686
  410MOL0     H55289   3.864   8.495   3.088 -2.2867  1.2527 -2.0174
  410MOL0     H55290   3.951   8.551   3.245  0.6397  0.9859 -0.7998
  410MOL0     H55291   3.757   8.691   3.259 -2.0805 -1.6936 -0.1601
  410MOL0     H55292   3.835   8.780   3.142 -1.5037  1.7159  2.0296
  410MOL0     H55293   3.706   8.623   2.960 -2.3956 -1.7900  0.0106
  410MOL0     H55294   3.636   8.557   3.108  2.8176  0.0715  2.5165
  410MOL0     H55295   3.493   8.723   3.022 -0.7733  2.2885 -1.3122
  410MOL0     H55296   3.572   8.799   3.164 -0.2187  0.6944 -1.1227
  410MOL0     H55297   3.721   8.923   2.991  1.1508 -1.9789 -1.7292
  410MOL0     H55298   3.625   8.827   2.865  0.7827 -0.5520 -0.1922
  410MOL0     H55299   3.563   9.071   2.905 -1.9752 -0.6554 -1.0160
  410MOL0     H55300   3.509   9.029   3.065  0.6778  0.6177  0.4513
  410MOL0     H55301   3.438   8.838   2.729 -0.1202  0.2671 -1.0409
  410MOL0     H55302   3.047   8.852   2.703 -0.1605  0.9121  1.7276
  410MOL0     H55303   3.193   8.903   2.608  0.1669  2.5117  2.1627
  410MOL0     H55304   3.208   8.632   2.739  1.7993  1.1524 -0.7854
  410MOL0     H55305   3.260   8.689   2.578 -1.5950  2.0287 -1.8113
  410MOL0     H55306   3.013   8.688   2.516 -2.5600 -1.7286 -0.6546
  410MOL0     H55307   2.978   8.583   2.653 -0.5589 -4.3957 -0.4706
  410MOL0     H55308   3.198   8.522   2.452 -0.7834  0.1517 -1.8401
  410MOL0     H55309   3.030   8.459   2.436 -0.9067 -0.9289  0.1102
  410MOL0     H55310   3.328   8.242   2.596 -0.4723  0.9824 -1.1404
  410MOL0     H55311   3.458   8.056   2.538  0.8670 -1.9251 -0.8280
  410MOL0     H55312   3.379   7.924   2.625  1.6268 -0.4004  0.4819
  410MOL0     H55313   3.402   7.923   2.445  1.2475 -0.7157  0.4841
  410MOL0     H55314   3.009   7.623   2.567 -0.5085  0.6134 -0.0184
  410MOL0     H55315   2.912   7.397   2.565 -0.2032  0.3074  0.3085
  410MOL0     H55316   2.806   7.138   2.441 -1.8545 -0.6513  2.8229
  410MOL0     H55317   2.724   7.262   2.531 -0.0278  0.1158  0.1038
  410MOL0     H55318   2.572   7.079   2.509  2.6112 -2.4440  0.5048
  410MOL0     H55319   2.515   7.161   2.372 -0.1406 -0.8443 -1.2702
  410MOL0     H55320   2.701   6.915   2.380  1.8055  0.6982 -1.0050
  410MOL0     H55321   2.716   7.026   2.239 -2.6277  0.8660 -2.2847
  410MOL0     H55322   2.449   6.901   2.337 -0.6134  2.6798  1.3176
  410MOL0     H55323   2.473   6.979   2.186  0.4898  0.5634 -0.6450
  410MOL0     H55324   2.664   6.797   2.155  0.5539 -2.8359 -1.2687
  410MOL0     H55325   2.491   6.755   2.118 -2.4175  0.4319  0.6396
  410MOL0     H55326   2.663   6.677   2.357 -0.9220  2.1416 -0.4253
  410MOL0     H55327   2.494   6.657   2.358 -2.0585 -0.3431 -2.8825
  410MOL0     H55328   2.686   6.541   2.141  0.2195 -0.9762  1.0370
  410MOL0     H55329   2.514   6.523   2.135 -0.1068 -2.1065  0.2053
  410MOL0     H55330   2.517   6.386   2.324 -0.9992  0.2720 -2.9584
  410MOL0     H55331   2.683   6.433   2.376  1.5420  2.9743 -2.2110
  410MOL0     H55332   2.732   7.503   2.187 -3.5381  2.2559  2.3907
  410MOL0     H55333   2.829   7.726   2.197 -1.4598  0.6619  1.9283
  410MOL0     H55334   2.899   8.040   2.456 -0.6895  0.8803  0.2070
  410MOL0     H55335   2.919   8.274   2.522  0.4217 -0.7766  2.2079
  410MOL0     H55336   3.977   8.185   2.904  1.1467  0.1833 -0.8890
  410MOL0     H55337   4.101   7.959   2.935  0.9205 -1.1346  1.9259
  410MOL0     H55338   4.469   7.720   2.964  0.4466 -0.2823  0.7687
  410MOL0     H55339   4.637   7.529   3.018  1.5192 -1.2174  1.8645
  410MOL0     H55340   4.598   7.341   3.411  0.3963 -1.4680  0.1637
  410MOL0     H55341   4.569   7.249   3.254  1.1596  0.9217 -2.7074
  410MOL0     H55342   4.736   7.126   3.381  1.9362 -2.0026 -1.4031
  410MOL0     H55343   4.846   7.269   3.372 -2.3665  0.3666  0.7193
  410MOL0     H55344   4.779   7.229   3.110  2.8051  1.1549  0.1136
  410MOL0     H55345   4.765   7.066   3.166 -3.3095  1.3529  0.9496
  410MOL0     H55346   5.018   7.255   3.157  1.5341 -0.8248 -1.0130
  410MOL0     H55347   4.988   7.106   3.068  0.6830  0.5827  0.5653
  410MOL0     H55348   5.139   6.941   3.421 -1.6642 -0.2515  0.8502
  410MOL0     H55349   4.495   7.543   3.413 -0.7300  0.8960 -0.7125
  410MOL0     H55350   4.338   7.712   3.367 -2.7109 -1.9425 -1.8045
  411MOL0     O55351   1.508   1.048   6.262  0.5584  0.2236 -0.1952
  411MOL0     C55352   1.624   1.038   6.221 -0.6396 -0.0651  0.2546
  411MOL0     O55353   1.743   1.076   6.289  0.4126  0.1839  0.4064
  411MOL0     C55354   1.740   1.136   6.410  0.0398 -0.7147 -0.7952
  411MOL0     C55355   1.644   1.125   6.511 -0.1408 -0.3695  0.5609
  411MOL0     C55356   1.662   1.194   6.631 -0.3377 -0.1337  1.3564
  411MOL0     C55357   1.770   1.291   6.646  0.6045 -1.5052  0.2431
  411MOL0     O55358   1.805   1.361   6.759  0.7507  0.6080 -1.1550
  411MOL0     C55359   1.702   1.385   6.867 -0.6022  0.0327 -0.2966
  411MOL0     C55360   1.747   1.506   6.953  0.0357 -0.8338  0.2104
  411MOL0     C55361   1.667   1.538   7.078 -0.2470  1.0357 -0.1836
  411MOL0     C55362   1.508   1.556   7.061  0.7868  0.4615  1.1068
  411MOL0     C55363   1.449   1.542   7.204  0.8747 -0.2061 -0.4351
  411MOL0     C55364   1.308   1.599   7.216 -0.3413 -0.2804 -0.2160
  411MOL0     C55365   1.277   1.638   7.360 -0.7110  1.0255  0.1127
  411MOL0     C55366   1.163   1.732   7.401 -0.3166  0.8857  0.4921
  411MOL0     N55367   1.035   1.672   7.374 -0.8566 -0.2238  0.6286
  411MOL0     C55368   0.959   1.708   7.266  0.4794  0.4670  0.1182
  411MOL0     C55369   0.844   1.635   7.290  0.5463 -0.0625  0.4520
  411MOL0     C55370   0.731   1.643   7.196  0.7446 -0.9004  0.3779
  411MOL0     C55371   0.723   1.526   7.101  0.1213  1.2275  0.0401
  411MOL0     C55372   0.617   1.532   6.997 -0.5956 -0.1651  0.3448
  411MOL0     C55373   0.621   1.403   6.913 -0.5545 -0.1906 -0.2746
  411MOL0     O55374   0.536   1.397   6.799  0.4804  0.6841  0.2303
  411MOL0     C55375   0.403   1.386   6.815 -0.2025 -0.6859 -0.5272
  411MOL0     C55376   0.328   1.415   6.705 -0.4626 -0.8333  0.2472
  411MOL0     C55377   0.190   1.422   6.700  0.8588  0.7094 -0.1258
  411MOL0     C55378   0.138   1.453   6.559 -0.2937 -0.2719  0.5340
  411MOL0     C55379   0.114   1.390   6.817 -0.2225 -0.8114  0.2102
  411MOL0     C55380  -0.038   1.382   6.831  0.2411  0.1218 -0.9382
  411MOL0     O55381  -0.083   1.339   6.954  0.2776 -0.2447 -0.2175
  411MOL0     C55382  -0.203   1.397   6.985  0.0604  0.9833 -0.2583
  411MOL0     C55383  -0.308   1.310   7.032  0.7058 -0.0039  0.6404
  411MOL0     C55384  -0.430   1.365   7.076 -0.2087  0.2538 -0.2379
  411MOL0     C55385  -0.439   1.506   7.093 -0.3173 -0.2337  0.2529
  411MOL0     O55386  -0.547   1.578   7.139  0.2103  0.9046  0.0983
  411MOL0     C55387  -0.647   1.508   7.216 -0.2263 -0.9106  0.3319
  411MOL0     C55388  -0.758   1.606   7.255 -0.8366  0.7344 -0.2213
  411MOL0     C55389  -0.877   1.536   7.329 -0.4458  0.1183 -0.3625
  411MOL0     C55390  -0.983   1.647   7.373 -0.2354 -0.8542 -0.2661
  411MOL0     C55391  -1.086   1.603   7.471 -0.0765  0.8389 -0.6558
  411MOL0     C55392  -1.174   1.719   7.514 -0.0882 -0.2332 -0.6437
  411MOL0     C55393  -1.285   1.676   7.606  0.3505  0.0947 -0.1689
  411MOL0     C55394  -1.230   1.625   7.740 -0.4376 -0.5978 -0.2982
  411MOL0    Cl55395  -1.376   1.617   7.839  0.3540  0.2976 -0.0719
  411MOL0     C55396  -0.332   1.596   7.048  0.8772  0.4333 -0.2884
  411MOL0     C55397  -0.218   1.537   6.985  0.6150 -0.6542  0.3622
  411MOL0     O55398  -0.117   1.415   6.739  0.7870  0.3979 -0.3858
  411MOL0     C55399   0.192   1.352   6.927  0.0952 -0.0482  0.6113
  411MOL0     C55400   0.335   1.353   6.934 -0.0502 -0.9208  0.7178
  411MOL0     N55401   0.852   1.553   7.399 -0.6165  0.3347  0.0299
  411MOL0     N55402   0.968   1.580   7.446 -0.2201 -0.1383 -0.4397
  411MOL0     C55403   1.861   1.309   6.532  0.0796  1.1931 -0.5392
  411MOL0     C55404   1.846   1.224   6.422  0.2551  0.2864  0.0502
  411MOL0     C55405   1.657   0.973   6.090 -0.3750  0.6226  0.3825
  411MOL0     C55406   1.560   0.947   5.990 -0.1165 -0.1529  0.0695
  411MOL0     C55407   1.596   0.915   5.858  0.0256  1.2864 -0.4794
  411MOL0     C55408   1.734   0.899   5.828 -0.3852  0.3103  0.3688
  411MOL0     O55409   1.756   0.871   5.691  0.0023 -0.2599  0.1315
  411MOL0     C55410   1.891   0.877   5.648  0.7831 -0.1738  0.1122
  411MOL0     C55411   1.937   1.015   5.623 -0.0953  0.4987  0.0150
  411MOL0     C55412   1.830   1.114   5.571  0.3407 -0.4229  0.1449
  411MOL0     C55413   1.896   1.241   5.520  0.0528 -0.1183 -0.7958
  411MOL0     C55414   1.805   1.362   5.498 -0.5278  0.1950 -0.0664
  411MOL0     C55415   1.722   1.445   5.487  0.1022  0.2458 -0.2044
  411MOL0     C55416   1.835   0.900   5.930  0.6223  0.4626 -0.5330
  411MOL0     C55417   1.791   0.940   6.056 -0.5529 -0.0888  1.0312
  411MOL0     H55418   1.553   1.066   6.502 -0.6222  0.3698  0.5332
  411MOL0     H55419   1.593   1.190   6.715 -1.9203  2.2347  0.2901
  411MOL0     H55420   1.602   1.403   6.827  0.1102  2.1220 -1.2699
  411MOL0     H55421   1.690   1.292   6.924  1.1133 -0.5513 -0.8023
  411MOL0     H55422   1.847   1.497   6.995 -0.5060 -1.8660  1.3355
  411MOL0     H55423   1.743   1.594   6.888  0.2947 -1.7021 -1.0303
  411MOL0     H55424   1.682   1.459   7.152  1.9500  1.3765 -0.1885
  411MOL0     H55425   1.693   1.629   7.133 -1.5568  1.4499 -0.2017
  411MOL0     H55426   1.483   1.643   7.000  3.6841 -0.6148 -1.9073
  411MOL0     H55427   1.469   1.484   6.990  1.7161  2.9916 -2.2243
  411MOL0     H55428   1.459   1.439   7.241  0.7622 -0.9966 -2.4971
  411MOL0     H55429   1.517   1.603   7.265  0.0878  1.6352 -1.3044
  411MOL0     H55430   1.303   1.685   7.148  0.8140  0.4477  0.5808
  411MOL0     H55431   1.243   1.515   7.187 -1.5084  0.2681  0.7341
  411MOL0     H55432   1.259   1.547   7.419  0.2982  1.7703  1.6399
  411MOL0     H55433   1.366   1.695   7.386 -1.1973  1.6787  0.3861
  411MOL0     H55434   1.181   1.827   7.349  2.2540  0.0009 -0.4084
  411MOL0     H55435   1.179   1.763   7.505  2.7304 -0.9304  0.6968
  411MOL0     H55436   0.978   1.774   7.183  0.3303  0.9526  0.4648
  411MOL0     H55437   0.631   1.650   7.239 -0.7620 -0.7261 -2.8779
  411MOL0     H55438   0.756   1.735   7.142  0.7580 -0.8287  0.5060
  411MOL0     H55439   0.713   1.434   7.160 -0.3272  0.9975 -0.3805
  411MOL0     H55440   0.818   1.510   7.050 -1.4630 -2.5672 -2.2110
  411MOL0     H55441   0.633   1.620   6.934 -1.6443 -0.9007 -1.0333
  411MOL0     H55442   0.516   1.557   7.031 -1.5141 -0.0645 -2.1750
  411MOL0     H55443   0.590   1.315   6.969  3.8703 -0.8583  1.5466
  411MOL0     H55444   0.725   1.387   6.885  0.1120  1.0694  1.3042
  411MOL0     H55445   0.376   1.463   6.620 -1.0396  1.9180  1.3678
  411MOL0     H55446   0.040   1.502   6.565  0.7916  1.9761  0.4920
  411MOL0     H55447   0.196   1.516   6.492 -1.7551 -0.4394 -0.9607
  411MOL0     H55448   0.136   1.352   6.517  4.0010 -1.3536  2.4205
  411MOL0     H55449  -0.291   1.203   7.039 -0.2877 -0.1716  0.6810
  411MOL0     H55450  -0.503   1.290   7.103 -0.9152  1.3450  0.9687
  411MOL0     H55451  -0.688   1.425   7.159 -2.2398  0.6436 -0.6000
  411MOL0     H55452  -0.595   1.467   7.304  0.9896  1.3554  0.7578
  411MOL0     H55453  -0.709   1.688   7.309  0.3004 -0.6060  0.8641
  411MOL0     H55454  -0.804   1.642   7.162  2.5257 -0.9806 -2.7581
  411MOL0     H55455  -0.841   1.496   7.424  0.0716  0.8780 -0.2386
  411MOL0     H55456  -0.922   1.455   7.269 -0.9445 -0.4513  0.7511
  411MOL0     H55457  -0.933   1.732   7.419 -1.6872  0.9677 -1.8918
  411MOL0     H55458  -1.039   1.689   7.289 -0.7011  0.7720  0.8318
  411MOL0     H55459  -1.038   1.562   7.560  1.1308  2.8865 -0.3067
  411MOL0     H55460  -1.147   1.523   7.427  1.4492 -0.8482  0.1860
  411MOL0     H55461  -1.108   1.788   7.567  1.9985 -0.5775 -2.6251
  411MOL0     H55462  -1.220   1.777   7.433 -5.2603  0.7785  2.5494
  411MOL0     H55463  -1.352   1.600   7.563  0.8827  0.7673 -2.3217
  411MOL0     H55464  -1.346   1.765   7.619  0.3403  0.1097 -0.3223
  411MOL0     H55465  -1.158   1.695   7.785 -1.2561 -2.0571  3.7453
  411MOL0     H55466  -1.184   1.526   7.741 -2.4074 -1.5557 -0.4796
  411MOL0     H55467  -0.343   1.703   7.059 -0.4701  0.1421  1.5218
  411MOL0     H55468  -0.139   1.606   6.955 -0.5221  1.3621  1.7500
  411MOL0     H55469   0.151   1.333   7.025  1.0027 -1.7021  0.6995
  411MOL0     H55470   0.380   1.326   7.029 -0.9266  1.5189  1.9123
  411MOL0     H55471   1.948   1.372   6.549 -0.1617  0.6187  3.9817
  411MOL0     H55472   1.915   1.216   6.338 -2.0351  2.2708 -2.2147
  411MOL0     H55473   1.455   0.961   6.015 -0.4023 -0.4837 -0.8858
  411MOL0     H55474   1.520   0.887   5.786  0.7576  3.0847 -2.0401
  411MOL0     H55475   1.956   0.817   5.713 -0.2058 -0.6025  0.7280
  411MOL0     H55476   1.919   0.831   5.553 -3.2206  1.6419 -2.1749
  411MOL0     H55477   2.026   1.015   5.559  1.0452 -0.0522  1.5410
  411MOL0     H55478   1.967   1.043   5.724 -1.6592 -0.4628  0.7887
  411MOL0     H55479   1.761   1.143   5.651 -0.0041  2.5602 -1.1363
  411MOL0     H55480   1.779   1.053   5.495 -0.5647 -0.3645  0.6821
  411MOL0     H55481   1.928   1.222   5.417 -0.3587 -1.2841 -0.7215
  411MOL0     H55482   1.979   1.275   5.582  0.5306  2.5082 -2.6983
  411MOL0     H55483   1.654   1.528   5.483  0.0946  0.2165 -0.7862
  411MOL0     H55484   1.937   0.869   5.908 -0.5288 -2.7108 -2.0477
  411MOL0     H55485   1.877   0.959   6.120  0.4408 -4.4426  1.2679
  412MOL0     O55486   1.321   9.275   7.591 -0.1157  0.5943 -0.2064
  412MOL0     C55487   1.371   9.162   7.583 -0.8142 -0.1807  0.3806
  412MOL0     O55488   1.311   9.051   7.539  0.6735  0.3288  0.0479
  412MOL0     C55489   1.182   9.040   7.523 -0.6968 -1.0331  0.5858
  412MOL0     C55490   1.137   8.945   7.436 -0.0035  0.8571  0.1247
  412MOL0     C55491   0.998   8.916   7.418 -0.6047  0.1427  0.7897
  412MOL0     C55492   0.907   8.997   7.483 -0.2661 -0.1338 -0.5336
  412MOL0     O55493   0.775   8.973   7.466 -1.0008  0.7481 -0.1790
  412MOL0     C55494   0.667   9.000   7.561  0.3284 -0.1787  0.3067
  412MOL0     C55495   0.572   9.102   7.500 -0.5581 -1.1928 -0.3724
  412MOL0     C55496   0.490   9.038   7.379  0.1867  0.4240 -0.5556
  412MOL0     C55497   0.371   8.958   7.431  0.0178 -0.1054  0.4478
  412MOL0     C55498   0.271   8.922   7.315 -0.4000 -0.7955  0.0232
  412MOL0     C55499   0.141   8.857   7.351  0.4236  0.6919 -1.1848
  412MOL0     C55500   0.066   8.906   7.467  0.5681 -0.0414  0.2770
  412MOL0     C55501  -0.067   8.828   7.475 -0.6482 -0.1306 -0.0912
  412MOL0     N55502  -0.152   8.844   7.594  0.3050 -0.0447 -0.4463
  412MOL0     C55503  -0.155   8.957   7.671 -0.1534  0.5462 -0.7115
  412MOL0     C55504  -0.264   8.945   7.750 -0.8091 -0.3471  0.0609
  412MOL0     C55505  -0.310   9.050   7.846 -0.5145  0.1919  0.0468
  412MOL0     C55506  -0.451   9.086   7.801 -0.7921  0.2078  0.4070
  412MOL0     C55507  -0.493   9.212   7.881  0.5020 -0.1103  0.6521
  412MOL0     C55508  -0.644   9.239   7.854 -0.8777 -0.5274  1.4989
  412MOL0     O55509  -0.725   9.150   7.932  0.4565  0.0598 -0.1104
  412MOL0     C55510  -0.861   9.188   7.943 -0.7935  0.0406  0.6632
  412MOL0     C55511  -0.937   9.136   8.049  0.0250  0.3707 -0.1233
  412MOL0     C55512  -1.072   9.156   8.062  0.2590 -0.1120  0.2644
  412MOL0     C55513  -1.140   9.059   8.152  0.8628  0.2791 -0.4332
  412MOL0     C55514  -1.130   9.255   7.984  0.5022 -0.4345 -0.2235
  412MOL0     C55515  -1.270   9.291   8.014  0.1769 -0.5206  0.1674
  412MOL0     O55516  -1.329   9.356   7.902 -0.3791 -0.1129 -0.4619
  412MOL0     C55517  -1.454   9.413   7.921  1.0437 -1.1257  0.3709
  412MOL0     C55518  -1.482   9.538   7.866 -0.3544 -0.0560 -0.2114
  412MOL0     C55519  -1.608   9.596   7.882  0.4642 -0.0137 -0.0377
  412MOL0     C55520  -1.713   9.529   7.929  0.1424  0.8615  0.2501
  412MOL0     O55521  -1.835   9.586   7.927  1.0464 -0.2854  0.1010
  412MOL0     C55522  -1.868   9.726   7.917  0.2841 -0.4696  0.8280
  412MOL0     C55523  -2.018   9.734   7.956 -0.7312  0.6572 -0.0595
  412MOL0     C55524  -2.062   9.873   7.967 -1.2356  0.3037  0.2243
  412MOL0     C55525  -2.206   9.876   8.025 -0.4075  0.1810 -0.7036
  412MOL0     C55526  -2.253  10.019   8.022 -0.2036 -0.4356  0.0386
  412MOL0     C55527  -2.392  10.031   8.083  0.0299 -1.0509 -0.1345
  412MOL0     C55528  -2.506   9.995   7.981 -1.0880  0.5130  0.1622
  412MOL0     C55529  -2.517  10.089   7.858 -0.3351  0.1343  0.5313
  412MOL0    Cl55530  -2.540  10.258   7.918 -0.1743 -0.0950  0.0136
  412MOL0     C55531  -1.694   9.402   7.982 -0.7651 -0.2126 -0.4416
  412MOL0     C55532  -1.561   9.349   7.981  0.0354  0.0289 -0.6467
  412MOL0     O55533  -1.320   9.297   8.124 -0.1113  0.0655 -0.5940
  412MOL0     C55534  -1.061   9.300   7.874 -0.1766  0.4651  0.2906
  412MOL0     C55535  -0.928   9.268   7.852  0.3355 -0.5368 -0.3502
  412MOL0     N55536  -0.327   8.818   7.710  0.5762  0.4058 -0.3247
  412MOL0     N55537  -0.259   8.765   7.616  0.4399 -0.1875  0.8392
  412MOL0     C55538   0.955   9.092   7.580  0.5442  0.5842 -0.6287
  412MOL0     C55539   1.092   9.116   7.596 -0.0486  0.2843  1.5898
  412MOL0     C55540   1.516   9.163   7.613  0.0222  0.7039  0.2040
  412MOL0     C55541   1.611   9.087   7.550 -0.4497 -0.3060  0.1158
  412MOL0     C55542   1.750   9.080   7.582 -0.2554 -0.6233 -0.5605
  412MOL0     C55543   1.796   9.185   7.672  0.2932  0.7600  0.7732
  412MOL0     O55544   1.921   9.164   7.708  0.3131  0.1888  0.3446
  412MOL0     C55545   1.980   9.266   7.790 -0.4963 -0.2882 -0.2630
  412MOL0     C55546   2.122   9.230   7.838  0.5621  0.0129  0.3746
  412MOL0     C55547   2.170   9.349   7.922 -0.1099 -0.7779 -0.5759
  412MOL0     C55548   2.299   9.326   8.000  0.0748  0.5174 -0.6135
  412MOL0     C55549   2.413   9.284   7.921  0.3391  0.2909 -0.2748
  412MOL0     C55550   2.502   9.250   7.851 -0.2738 -0.5191  0.1197
  412MOL0     C55551   1.700   9.267   7.738 -0.2579 -0.2802 -0.8826
  412MOL0     C55552   1.565   9.267   7.690  0.3228  0.9202 -0.2368
  412MOL0     H55553   1.202   8.878   7.380 -0.7697 -0.5647  0.8800
  412MOL0     H55554   0.954   8.849   7.345 -0.5737  1.5140 -0.5191
  412MOL0     H55555   0.615   8.907   7.586 -1.9476  0.1765 -2.5045
  412MOL0     H55556   0.704   9.035   7.658 -0.5322  2.0508 -0.0991
  412MOL0     H55557   0.511   9.147   7.579  1.8632 -1.6163  1.8575
  412MOL0     H55558   0.630   9.176   7.444 -4.1434 -1.1764 -4.5621
  412MOL0     H55559   0.450   9.116   7.314 -1.3765 -0.3639 -0.5722
  412MOL0     H55560   0.558   8.969   7.327  0.5364 -0.9119  1.5247
  412MOL0     H55561   0.404   8.862   7.472 -3.1311 -1.4167  0.1418
  412MOL0     H55562   0.318   9.017   7.507  1.7989  0.1632  1.5462
  412MOL0     H55563   0.237   9.019   7.276  1.7377 -0.1068 -0.2681
  412MOL0     H55564   0.312   8.863   7.232 -0.3649 -3.2184  1.6609
  412MOL0     H55565   0.067   8.855   7.271 -3.3056  1.1955  1.9603
  412MOL0     H55566   0.164   8.751   7.369 -3.2082  0.2720  2.4050
  412MOL0     H55567   0.124   8.892   7.558  1.3560 -2.6489 -0.5355
  412MOL0     H55568   0.051   9.014   7.458 -0.4284 -0.2000 -0.0949
  412MOL0     H55569  -0.047   8.721   7.468 -2.5229 -0.5156  0.0392
  412MOL0     H55570  -0.127   8.853   7.388 -0.0754 -0.0713 -0.4741
  412MOL0     H55571  -0.084   9.038   7.658  1.0512 -0.7452 -2.5951
  412MOL0     H55572  -0.318   8.998   7.942  0.1840  1.1791  0.6471
  412MOL0     H55573  -0.239   9.133   7.846 -1.4981  1.0759 -0.9883
  412MOL0     H55574  -0.527   9.010   7.820 -0.0112 -0.0678  2.7793
  412MOL0     H55575  -0.445   9.107   7.694  0.3507 -3.1236 -0.3237
  412MOL0     H55576  -0.431   9.297   7.851  0.8320 -0.2283  0.9914
  412MOL0     H55577  -0.479   9.189   7.987  1.0160  1.3151  0.9144
  412MOL0     H55578  -0.673   9.227   7.749 -0.8144 -0.1121  1.4312
  412MOL0     H55579  -0.658   9.345   7.876  2.9797  0.4562  0.1295
  412MOL0     H55580  -0.894   9.068   8.121  2.7460  3.0258  0.9462
  412MOL0     H55581  -1.186   9.106   8.239  1.4010 -1.9775  1.1630
  412MOL0     H55582  -1.218   9.010   8.093 -0.4085  2.5952 -0.7609
  412MOL0     H55583  -1.060   9.000   8.198  2.0468  1.3631 -1.0128
  412MOL0     H55584  -1.404   9.597   7.819 -0.7539  1.8696  1.3860
  412MOL0     H55585  -1.618   9.691   7.832  2.0979  0.6890  0.9059
  412MOL0     H55586  -1.800   9.786   7.977  0.8534  2.0267 -2.0676
  412MOL0     H55587  -1.852   9.750   7.811 -0.2845  0.0768  0.8642
  412MOL0     H55588  -2.077   9.680   7.882  0.3514 -1.9810  0.8714
  412MOL0     H55589  -2.022   9.674   8.047 -0.6150 -4.1554 -2.9232
  412MOL0     H55590  -2.057   9.913   7.865  1.1437 -1.8455 -0.5871
  412MOL0     H55591  -1.999   9.927   8.038 -0.9930 -2.0411  1.9071
  412MOL0     H55592  -2.278   9.811   7.974  0.1148 -1.2143  0.2493
  412MOL0     H55593  -2.204   9.835   8.127 -1.3226 -0.7044 -1.0247
  412MOL0     H55594  -2.255  10.053   7.918 -2.8808 -0.9415 -0.1338
  412MOL0     H55595  -2.178  10.081   8.073  1.0393 -1.4805 -0.4549
  412MOL0     H55596  -2.399   9.976   8.177 -1.7948  1.9195  1.6465
  412MOL0     H55597  -2.416  10.135   8.109  1.6985 -0.7004  0.1191
  412MOL0     H55598  -2.604   9.997   8.029 -1.4290  3.5220 -0.4655
  412MOL0     H55599  -2.495   9.891   7.949 -2.7499 -0.0885  1.4629
  412MOL0     H55600  -2.604  10.056   7.799 -1.1052  1.0734  1.1137
  412MOL0     H55601  -2.426  10.085   7.797  0.4624 -0.6667  1.7381
  412MOL0     H55602  -1.792   9.362   8.008 -1.1476 -0.2938 -1.8900
  412MOL0     H55603  -1.546   9.254   8.031  1.0067  1.5650  2.1870
  412MOL0     H55604  -1.117   9.364   7.806  1.4695  0.8197 -0.7787
  412MOL0     H55605  -0.883   9.302   7.759 -2.0476 -0.9176 -1.7367
  412MOL0     H55606   0.886   9.155   7.635 -1.2354 -2.0424  0.3636
  412MOL0     H55607   1.123   9.190   7.669  0.2728 -1.1701  2.9983
  412MOL0     H55608   1.570   9.014   7.482 -2.6267 -1.2659  2.2914
  412MOL0     H55609   1.801   8.991   7.546 -2.5972 -1.4793 -1.9811
  412MOL0     H55610   1.976   9.362   7.738 -1.1780  1.5039  2.9096
  412MOL0     H55611   1.927   9.281   7.884  2.3226 -0.1952  1.4123
  412MOL0     H55612   2.188   9.219   7.752  1.3529  1.1782  0.8169
  412MOL0     H55613   2.113   9.140   7.900 -2.0685 -1.5143 -1.9363
  412MOL0     H55614   2.094   9.368   7.999  0.1486 -2.4867  0.1485
  412MOL0     H55615   2.177   9.436   7.856  4.2327  0.4378  1.1344
  412MOL0     H55616   2.292   9.255   8.083  1.0456  2.3204  1.0844
  412MOL0     H55617   2.318   9.423   8.045  0.3243 -0.5261  1.6525
  412MOL0     H55618   2.588   9.221   7.794  0.5989 -2.0291  2.0661
  412MOL0     H55619   1.733   9.344   7.807 -1.7014  1.6524 -2.2232
  412MOL0     H55620   1.495   9.336   7.737 -3.5922 -1.8796 -1.4434
  413MOL0     O55621   5.997  10.420   2.836 -0.0917  0.5098  0.0137
  413MOL0     C55622   5.902  10.353   2.883 -0.1324 -1.2844 -0.2969
  413MOL0     O55623   5.904  10.294   3.007  0.0244 -0.2136 -0.2535
  413MOL0     C55624   6.031  10.281   3.060  1.4849  0.5615  0.5711
  413MOL0     C55625   6.080  10.371   3.157 -0.0497 -0.0451  0.1986
  413MOL0     C55626   6.198  10.351   3.219 -0.4097 -0.0654 -0.5437
  413MOL0     C55627   6.279  10.236   3.195  0.6688  0.4638  0.1783
  413MOL0     O55628   6.385  10.196   3.277  0.3507 -0.1021 -0.7546
  413MOL0     C55629   6.395  10.250   3.408  0.4083 -0.5781  0.5367
  413MOL0     C55630   6.468  10.153   3.498 -0.0132  0.4337  0.1471
  413MOL0     C55631   6.572  10.222   3.589 -0.4145 -0.2930 -0.3823
  413MOL0     C55632   6.610  10.128   3.706 -0.5588 -0.3939  0.6883
  413MOL0     C55633   6.716  10.193   3.799  0.2290 -0.2217 -0.1580
  413MOL0     C55634   6.737  10.104   3.924 -0.1747 -0.6307 -0.4106
  413MOL0     C55635   6.858  10.156   4.001 -0.2212  0.0948  0.8201
  413MOL0     C55636   6.864  10.087   4.136 -0.4231 -0.2241 -0.5304
  413MOL0     N55637   6.983  10.143   4.217 -0.7899  0.5599  0.5293
  413MOL0     C55638   7.008  10.270   4.244  0.3824 -0.7745 -0.9873
  413MOL0     C55639   7.145  10.266   4.267  0.3853 -0.3994 -0.5681
  413MOL0     C55640   7.245  10.381   4.272  0.1968 -0.7290  0.2924
  413MOL0     C55641   7.322  10.401   4.153 -0.2697 -0.0973  0.0440
  413MOL0     C55642   7.227  10.423   4.025  0.2329  0.4077 -0.7461
  413MOL0     C55643   7.297  10.411   3.885  1.1541 -0.9880 -0.3888
  413MOL0     O55644   7.186  10.412   3.800  0.1527 -0.4859 -0.4159
  413MOL0     C55645   7.197  10.339   3.682 -0.5075  0.1628 -0.4601
  413MOL0     C55646   7.320  10.284   3.637 -0.5868 -0.1001 -0.3602
  413MOL0     C55647   7.324  10.183   3.533  0.1758  0.7013 -0.1451
  413MOL0     C55648   7.461  10.116   3.511  0.1473  0.5252  0.3700
  413MOL0     C55649   7.198  10.145   3.473 -0.1525 -0.2203 -0.3636
  413MOL0     C55650   7.170  10.040   3.364 -0.4541 -0.8867 -0.0006
  413MOL0     O55651   7.042  10.034   3.312 -0.3663  0.5105 -0.0018
  413MOL0     C55652   7.019   9.928   3.236 -0.0422 -0.0027  0.3719
  413MOL0     C55653   7.030   9.936   3.094 -1.2770 -0.5430 -0.9951
  413MOL0     C55654   6.977   9.835   3.014  1.0644 -0.0161  0.6033
  413MOL0     C55655   6.897   9.732   3.059  0.2624  0.3643  0.2686
  413MOL0     O55656   6.850   9.645   2.958  0.1352 -1.0659  0.0762
  413MOL0     C55657   6.709   9.610   2.966 -0.6529  0.5987 -1.0753
  413MOL0     C55658   6.669   9.539   2.840  0.4241 -0.5614  0.5857
  413MOL0     C55659   6.508   9.532   2.831  1.1484 -0.0115  0.0046
  413MOL0     C55660   6.463   9.499   2.688  0.8158  0.0921 -0.4481
  413MOL0     C55661   6.306   9.497   2.687 -0.8055  0.5035 -0.4680
  413MOL0     C55662   6.254   9.493   2.544 -0.2426 -0.4577 -0.4939
  413MOL0     C55663   6.100   9.473   2.542  0.3675 -0.6001 -0.3663
  413MOL0     C55664   6.051   9.509   2.401 -0.7466 -0.4525 -0.1583
  413MOL0    Cl55665   6.112   9.399   2.285  0.0007 -0.2097  0.1830
  413MOL0     C55666   6.888   9.716   3.202 -0.4259 -0.2881  0.5526
  413MOL0     C55667   6.950   9.815   3.287 -0.2374  0.7770  0.2596
  413MOL0     O55668   7.270   9.990   3.308  0.4114  0.3573 -0.4880
  413MOL0     C55669   7.085  10.222   3.514  1.1448  0.1811  0.5889
  413MOL0     C55670   7.078  10.304   3.627  0.0752 -0.3154 -0.4814
  413MOL0     N55671   7.187  10.131   4.269 -0.4227  0.0035  0.3779
  413MOL0     N55672   7.089  10.063   4.227 -0.1892  0.5227  0.1334
  413MOL0     C55673   6.240  10.154   3.089 -0.0843  0.2241  0.5841
  413MOL0     C55674   6.126  10.175   3.026  0.5542  0.4402 -0.0329
  413MOL0     C55675   5.778  10.359   2.811  0.4526 -0.1790 -0.3566
  413MOL0     C55676   5.743  10.244   2.747 -0.0748 -0.0095 -0.4205
  413MOL0     C55677   5.621  10.238   2.681 -0.7247 -0.5156  0.0847
  413MOL0     C55678   5.535  10.350   2.666 -0.0681 -0.0177 -0.1565
  413MOL0     O55679   5.415  10.337   2.606 -0.5806 -0.3566  0.5770
  413MOL0     C55680   5.339  10.210   2.587 -0.5152 -1.2504 -1.2283
  413MOL0     C55681   5.353  10.137   2.457  0.3271 -0.0668  0.2288
  413MOL0     C55682   5.328  10.228   2.341 -0.4379  0.1232 -0.1046
  413MOL0     C55683   5.197  10.300   2.331 -0.2509 -0.3325 -0.1466
  413MOL0     C55684   5.095  10.195   2.318  0.3584 -0.4418  1.4758
  413MOL0     C55685   5.017  10.112   2.279 -0.0691  0.8733 -0.0610
  413MOL0     C55686   5.566  10.470   2.726 -0.4180  0.6853  0.1303
  413MOL0     C55687   5.685  10.469   2.806 -0.1862 -1.1853 -0.2231
  413MOL0     H55688   6.014  10.454   3.177 -2.9843 -1.8442 -1.3203
  413MOL0     H55689   6.208  10.422   3.301 -0.5820 -0.0237 -0.5596
  413MOL0     H55690   6.461  10.337   3.414  0.7211 -0.8223  0.6688
  413MOL0     H55691   6.298  10.273   3.453 -0.1092 -0.2981 -0.7007
  413MOL0     H55692   6.398  10.086   3.550  1.2856 -0.8582  0.2809
  413MOL0     H55693   6.529  10.089   3.433 -2.6182 -0.2559 -1.7991
  413MOL0     H55694   6.665  10.245   3.536 -0.2651  0.9098  0.3691
  413MOL0     H55695   6.531  10.314   3.633 -0.5449 -0.4496 -0.1709
  413MOL0     H55696   6.522  10.110   3.767 -1.8906  0.5557 -0.8622
  413MOL0     H55697   6.638  10.030   3.666  1.6006  1.1742 -2.0340
  413MOL0     H55698   6.808  10.227   3.752 -0.7449  0.5124 -1.6190
  413MOL0     H55699   6.679  10.293   3.823  1.3779  0.3922 -0.8571
  413MOL0     H55700   6.647  10.114   3.986  0.4886 -0.6263  0.5645
  413MOL0     H55701   6.746   9.999   3.897  2.5522 -1.2642  2.4332
  413MOL0     H55702   6.945  10.130   3.940  0.4609 -0.2456  1.9146
  413MOL0     H55703   6.858  10.263   4.024 -1.2456 -0.1590  2.2216
  413MOL0     H55704   6.861   9.978   4.127  3.4709 -0.8201  2.7028
  413MOL0     H55705   6.777  10.131   4.187  0.0037  2.5890 -1.9989
  413MOL0     H55706   6.940  10.353   4.263  1.6869 -0.0442  0.8278
  413MOL0     H55707   7.186  10.464   4.312  1.7248  0.1238  0.8513
  413MOL0     H55708   7.323  10.358   4.345 -0.2197  0.0295  0.9970
  413MOL0     H55709   7.392  10.318   4.140  1.6568  1.1474  1.8331
  413MOL0     H55710   7.376  10.494   4.173  0.7133 -0.2813 -1.5695
  413MOL0     H55711   7.190  10.525   4.043 -1.4727 -0.4525  1.0490
  413MOL0     H55712   7.141  10.355   4.028  0.7558 -0.2440 -0.1702
  413MOL0     H55713   7.344  10.313   3.891 -0.3944 -1.7446  0.1250
  413MOL0     H55714   7.364  10.496   3.874 -1.0876  0.8994 -0.2607
  413MOL0     H55715   7.415  10.302   3.686 -0.8633 -2.9194  1.4460
  413MOL0     H55716   7.547  10.137   3.575  1.1828  2.4166 -1.5467
  413MOL0     H55717   7.438  10.009   3.513  3.5683 -0.3204 -0.5351
  413MOL0     H55718   7.495  10.134   3.409 -2.3552 -0.9107 -0.8274
  413MOL0     H55719   7.079  10.017   3.042  2.4747 -2.3486 -0.5678
  413MOL0     H55720   6.999   9.839   2.908 -0.3591 -0.4940  0.2734
  413MOL0     H55721   6.696   9.535   3.044  3.1280  1.2762  0.4305
  413MOL0     H55722   6.648   9.700   2.970  1.1904  1.8409  1.9379
  413MOL0     H55723   6.705   9.606   2.761  1.8027 -2.6746 -0.7045
  413MOL0     H55724   6.725   9.448   2.817  0.4908 -0.4734  0.3957
  413MOL0     H55725   6.466   9.631   2.850  2.2189  0.5379 -0.3820
  413MOL0     H55726   6.455   9.464   2.898 -0.1750  2.1684  1.2892
  413MOL0     H55727   6.503   9.586   2.636 -1.3121  0.6872 -1.1731
  413MOL0     H55728   6.506   9.404   2.654  0.4290  0.0456 -0.8177
  413MOL0     H55729   6.260   9.573   2.751 -0.4284 -1.6547  2.6481
  413MOL0     H55730   6.274   9.403   2.735  1.9466 -2.2985 -3.5786
  413MOL0     H55731   6.273   9.591   2.499  0.5147  0.3091  1.4040
  413MOL0     H55732   6.309   9.424   2.479 -2.8776 -0.5138 -2.9069
  413MOL0     H55733   6.053   9.551   2.603  1.9109 -0.5461  0.8358
  413MOL0     H55734   6.076   9.372   2.576  1.0729 -1.3214 -1.9173
  413MOL0     H55735   6.075   9.614   2.382 -1.6101 -0.4364 -1.3006
  413MOL0     H55736   5.945   9.483   2.397 -0.9852  0.4325 -0.0084
  413MOL0     H55737   6.838   9.631   3.246 -0.4935 -0.6167 -0.1468
  413MOL0     H55738   6.926   9.813   3.393 -3.8994 -1.2050 -0.4413
  413MOL0     H55739   6.998  10.202   3.453  2.0045 -1.0195 -0.2955
  413MOL0     H55740   6.987  10.343   3.670  0.9135 -0.5318  1.6083
  413MOL0     H55741   6.308  10.073   3.063  1.4188  1.3862  0.7782
  413MOL0     H55742   6.089  10.113   2.945  0.1663  3.1204 -2.0704
  413MOL0     H55743   5.806  10.156   2.757  2.1888  1.5774 -0.0405
  413MOL0     H55744   5.595  10.145   2.632 -2.6937 -1.0762  2.0635
  413MOL0     H55745   5.371  10.153   2.674 -1.6871  0.3521  0.3309
  413MOL0     H55746   5.235  10.237   2.609  1.1747  4.4926  1.9795
  413MOL0     H55747   5.288  10.049   2.450  1.9139 -1.1826 -4.7535
  413MOL0     H55748   5.454  10.097   2.442  0.2436  0.3070 -1.5173
  413MOL0     H55749   5.342  10.173   2.247  0.2348 -0.4271  0.3088
  413MOL0     H55750   5.410  10.301   2.350  0.3805 -0.9564  1.5331
  413MOL0     H55751   5.199  10.365   2.243 -1.7082  0.4341  0.3490
  413MOL0     H55752   5.184  10.363   2.420  2.8296 -0.7967  0.7646
  413MOL0     H55753   4.944  10.037   2.256  1.0560 -1.0325  2.1675
  413MOL0     H55754   5.493  10.550   2.719 -3.1368 -1.7850 -1.7691
  413MOL0     H55755   5.708  10.557   2.865  1.3972  1.0122 -3.8000
  414MOL0     O55756   1.675  11.262   5.943  0.5106  0.2320 -0.7452
  414MOL0     C55757   1.717  11.156   5.889  0.3817 -0.7453  0.5415
  414MOL0     O55758   1.651  11.085   5.785 -0.7226 -0.3796  0.3417
  414MOL0     C55759   1.517  11.105   5.773  0.4185  0.4629  1.0076
  414MOL0     C55760   1.467  11.119   5.641  0.0053  0.1012 -1.1777
  414MOL0     C55761   1.328  11.103   5.619  0.5004  0.7525  0.1831
  414MOL0     C55762   1.239  11.064   5.715  0.6128 -0.1703  0.0782
  414MOL0     O55763   1.103  11.046   5.700  0.3021 -0.7528 -0.0029
  414MOL0     C55764   1.046  11.035   5.571  0.2819 -0.5008 -0.0079
  414MOL0     C55765   0.899  11.019   5.620 -0.3314  0.3440  0.0581
  414MOL0     C55766   0.807  10.993   5.495  0.9119  0.3717 -0.4974
  414MOL0     C55767   0.667  10.938   5.534  0.8775  0.7691  0.8038
  414MOL0     C55768   0.551  11.009   5.459 -0.3014  0.3044  0.0065
  414MOL0     C55769   0.412  10.945   5.468 -0.9243 -0.2266  0.5616
  414MOL0     C55770   0.319  10.983   5.350  0.3677  0.5657  0.0127
  414MOL0     C55771   0.186  10.916   5.377  0.5804 -0.4187  0.2804
  414MOL0     N55772   0.102  10.902   5.264  0.0795  0.4156 -0.0762
  414MOL0     C55773   0.094  11.006   5.171 -0.5798  0.4637 -0.4378
  414MOL0     C55774   0.034  10.948   5.064  0.6684 -0.3911 -0.7751
  414MOL0     C55775  -0.009  11.028   4.948  0.0391 -0.0196 -0.3287
  414MOL0     C55776  -0.152  11.061   4.940 -0.1881 -1.0811  0.1988
  414MOL0     C55777  -0.208  11.119   5.070  0.0403 -0.5630  0.0509
  414MOL0     C55778  -0.360  11.161   5.063  0.1104  1.1006 -0.3128
  414MOL0     O55779  -0.368  11.283   4.991  0.6885 -0.3954  0.4828
  414MOL0     C55780  -0.499  11.327   4.975 -0.3980  0.5785 -0.0416
  414MOL0     C55781  -0.511  11.433   4.886  0.6492  0.1275  1.1223
  414MOL0     C55782  -0.640  11.480   4.837  0.1494  0.9118 -0.4236
  414MOL0     C55783  -0.649  11.567   4.716 -0.4585  0.1618 -0.2908
  414MOL0     C55784  -0.757  11.411   4.886 -0.7305  0.1083  0.5266
  414MOL0     C55785  -0.888  11.435   4.824  0.5214 -0.1220 -0.8408
  414MOL0     O55786  -0.974  11.335   4.842  0.1706 -0.1445 -0.2998
  414MOL0     C55787  -1.108  11.356   4.831  0.1708 -0.2626  0.8325
  414MOL0     C55788  -1.178  11.445   4.748  0.6495 -0.4770  0.8397
  414MOL0     C55789  -1.318  11.472   4.760 -0.0883  0.9434  0.0563
  414MOL0     C55790  -1.398  11.401   4.848 -0.0586 -0.2983  0.1520
  414MOL0     O55791  -1.531  11.422   4.837 -0.6162  0.7046 -0.4119
  414MOL0     C55792  -1.611  11.323   4.903  0.0462  0.3916  0.0888
  414MOL0     C55793  -1.762  11.364   4.884  0.2791 -0.1804  1.2454
  414MOL0     C55794  -1.870  11.277   4.956 -0.2602 -0.6631  0.0587
  414MOL0     C55795  -1.865  11.299   5.110  0.4264  0.0469 -0.8258
  414MOL0     C55796  -1.977  11.241   5.200 -0.6892 -0.1929  0.0324
  414MOL0     C55797  -2.118  11.295   5.176  0.5662 -0.0475 -0.0432
  414MOL0     C55798  -2.186  11.251   5.304 -0.4015  0.2206 -0.4050
  414MOL0     C55799  -2.335  11.261   5.308  0.0222 -0.5834  0.4616
  414MOL0    Cl55800  -2.405  11.175   5.456 -0.0671  0.1109  0.1470
  414MOL0     C55801  -1.330  11.300   4.929 -0.7491  0.7189  0.3008
  414MOL0     C55802  -1.187  11.278   4.921 -0.4081 -0.4197  0.8798
  414MOL0     O55803  -0.913  11.551   4.793  0.3022  0.0559  0.3987
  414MOL0     C55804  -0.741  11.322   4.990  0.6798  0.1488 -0.0260
  414MOL0     C55805  -0.614  11.275   5.036  0.2851 -0.1316  0.3448
  414MOL0     N55806  -0.017  10.827   5.106  0.2987  0.0828 -0.6828
  414MOL0     N55807   0.027  10.804   5.223 -0.4624  1.2879  0.0066
  414MOL0     C55808   1.287  11.056   5.846  0.6916 -0.5101 -0.5330
  414MOL0     C55809   1.427  11.074   5.870  0.8935 -0.2818 -0.2042
  414MOL0     C55810   1.861  11.119   5.908  0.1440  0.4500 -0.3428
  414MOL0     C55811   1.936  11.180   6.003 -0.3095 -0.2936 -0.3565
  414MOL0     C55812   2.072  11.161   6.019 -0.1252 -0.1516  0.1458
  414MOL0     C55813   2.142  11.082   5.921  0.1273 -0.1159 -0.6105
  414MOL0     O55814   2.278  11.056   5.934 -0.1262 -0.0125  0.1713
  414MOL0     C55815   2.361  11.088   6.044 -0.3541 -0.4818 -0.2920
  414MOL0     C55816   2.396  11.237   6.016 -0.2156 -0.0413 -0.1908
  414MOL0     C55817   2.478  11.264   5.891 -0.4664 -0.3948 -0.2232
  414MOL0     C55818   2.499  11.417   5.882 -0.2210 -0.2854  0.0461
  414MOL0     C55819   2.582  11.453   5.766  0.3410  0.3585  0.2054
  414MOL0     C55820   2.641  11.487   5.662 -0.4756 -0.8629 -0.1701
  414MOL0     C55821   2.065  11.008   5.821  0.0967  0.2836 -0.1109
  414MOL0     C55822   1.930  11.037   5.815 -0.5415  0.1527  0.5933
  414MOL0     H55823   1.535  11.137   5.558 -1.2605  0.4703 -2.1472
  414MOL0     H55824   1.296  11.108   5.516  1.4449 -0.8507 -0.2141
  414MOL0     H55825   1.063  11.122   5.506  1.2640 -0.5574  0.1585
  414MOL0     H55826   1.083  10.947   5.519 -0.5988  0.5363 -2.5569
  414MOL0     H55827   0.888  10.929   5.682  3.1583 -1.0275 -1.0582
  414MOL0     H55828   0.873  11.112   5.670  0.1187  0.0257  0.8880
  414MOL0     H55829   0.794  11.087   5.441 -0.6445  1.6622  1.9664
  414MOL0     H55830   0.843  10.918   5.423  0.4280 -2.5916  2.1168
  414MOL0     H55831   0.668  10.833   5.502  0.8209  0.5073  1.6297
  414MOL0     H55832   0.648  10.935   5.642  0.5160 -1.1800  0.7372
  414MOL0     H55833   0.528  11.108   5.499 -4.9017 -1.7390  3.2710
  414MOL0     H55834   0.571  11.011   5.351  1.3681 -0.8372  0.2493
  414MOL0     H55835   0.430  10.837   5.462  4.2369  0.4698 -3.5902
  414MOL0     H55836   0.366  10.981   5.561 -2.2044  1.3710 -0.6258
  414MOL0     H55837   0.312  11.091   5.340  1.2422  1.0307  3.2065
  414MOL0     H55838   0.363  10.945   5.257  2.0518  1.4073  0.4402
  414MOL0     H55839   0.142  10.971   5.461 -1.5067 -0.9151 -0.4482
  414MOL0     H55840   0.203  10.817   5.421 -0.1810 -1.0429 -0.7884
  414MOL0     H55841   0.130  11.108   5.181 -0.3832  0.2133  1.9305
  414MOL0     H55842   0.043  11.125   4.950  1.0571 -0.5551  1.1024
  414MOL0     H55843   0.024  10.975   4.859 -2.5857 -1.6879 -0.4232
  414MOL0     H55844  -0.207  10.972   4.909 -2.3706  0.6581 -1.2762
  414MOL0     H55845  -0.174  11.130   4.859 -0.7614 -0.1605  1.1168
  414MOL0     H55846  -0.150  11.206   5.102 -1.7495  1.5291 -2.0100
  414MOL0     H55847  -0.196  11.055   5.158  1.7886  0.5320  0.6631
  414MOL0     H55848  -0.394  11.171   5.166  0.2833 -3.0951  0.3098
  414MOL0     H55849  -0.414  11.079   5.014 -0.1551  1.7587 -1.1591
  414MOL0     H55850  -0.415  11.475   4.857 -0.0420  0.3759 -0.9945
  414MOL0     H55851  -0.544  11.587   4.696 -0.1563  0.8290  1.7301
  414MOL0     H55852  -0.697  11.525   4.627 -1.4864 -0.4868  0.5397
  414MOL0     H55853  -0.705  11.658   4.741  0.0327  0.2082  0.6944
  414MOL0     H55854  -1.125  11.511   4.679  2.2419 -0.9627  1.5442
  414MOL0     H55855  -1.362  11.541   4.689  0.2329  1.7483  0.6199
  414MOL0     H55856  -1.605  11.222   4.860  4.1514 -0.0140  1.1949
  414MOL0     H55857  -1.595  11.312   5.011 -0.9642  1.3377  0.3420
  414MOL0     H55858  -1.789  11.468   4.904 -3.2913 -0.5359 -0.8759
  414MOL0     H55859  -1.768  11.351   4.775  1.3873 -2.9582  1.4370
  414MOL0     H55860  -1.849  11.170   4.943 -1.9719 -1.0843  0.3627
  414MOL0     H55861  -1.968  11.290   4.908  0.6791 -0.0658 -1.7936
  414MOL0     H55862  -1.775  11.245   5.142  0.0150 -0.8673 -1.1852
  414MOL0     H55863  -1.855  11.407   5.129  2.1872 -0.3482  0.8264
  414MOL0     H55864  -1.943  11.258   5.303  2.9384 -1.2518 -0.8432
  414MOL0     H55865  -1.979  11.133   5.181 -4.1590 -0.0057 -1.3408
  414MOL0     H55866  -2.119  11.404   5.178 -0.7635  0.0536  4.2457
  414MOL0     H55867  -2.166  11.253   5.087  0.3818 -0.9440  0.4705
  414MOL0     H55868  -2.139  11.309   5.385  3.9423 -1.6322 -1.2969
  414MOL0     H55869  -2.167  11.146   5.325  2.7381  0.6988 -0.3806
  414MOL0     H55870  -2.375  11.212   5.219  1.3247 -1.0425  0.1035
  414MOL0     H55871  -2.365  11.366   5.312  2.8965  0.3424  0.3642
  414MOL0     H55872  -1.394  11.247   4.998  0.4016 -0.2493  0.6363
  414MOL0     H55873  -1.149  11.206   4.993 -1.7037 -1.2585  0.7589
  414MOL0     H55874  -0.832  11.276   5.029  0.0746 -1.4324 -2.9854
  414MOL0     H55875  -0.621  11.206   5.119 -1.2417 -2.4454 -1.5890
  414MOL0     H55876   1.210  11.034   5.919 -2.0812 -1.3230 -3.4772
  414MOL0     H55877   1.464  11.064   5.971 -1.0786  4.0076  1.2230
  414MOL0     H55878   1.877  11.240   6.072 -1.7595  0.2554 -2.0134
  414MOL0     H55879   2.124  11.214   6.099  2.4538 -0.2688 -1.3255
  414MOL0     H55880   2.312  11.068   6.140  0.2022 -0.1074  0.0830
  414MOL0     H55881   2.435  11.010   6.027 -2.0376 -2.2985  0.2953
  414MOL0     H55882   2.454  11.276   6.100 -0.6847  2.0234 -0.7791
  414MOL0     H55883   2.307  11.300   6.018 -0.7039 -0.7353  0.4413
  414MOL0     H55884   2.422  11.231   5.803 -2.8484  0.7668  0.7816
  414MOL0     H55885   2.575  11.213   5.887 -1.6070 -2.6120 -1.9774
  414MOL0     H55886   2.553  11.456   5.969  1.1968  0.3068 -1.0472
  414MOL0     H55887   2.413  11.484   5.874  0.8596  0.9429 -2.8849
  414MOL0     H55888   2.691  11.501   5.568  0.3229 -2.3436 -0.0051
  414MOL0     H55889   2.112  10.935   5.757  0.4045  1.2727 -1.0376
  414MOL0     H55890   1.876  10.998   5.729 -0.1919  1.4726 -0.2626
  415MOL0     O55891   5.226   7.917   7.478 -0.1478 -0.4937 -0.3278
  415MOL0     C55892   5.303   7.874   7.398 -0.0827 -0.0332  0.9170
  415MOL0     O55893   5.269   7.783   7.296  0.3013  0.2324  0.0559
  415MOL0     C55894   5.142   7.726   7.298  0.2636 -0.2470 -0.0343
  415MOL0     C55895   5.028   7.796   7.248 -0.1408 -0.1840  0.6700
  415MOL0     C55896   4.902   7.733   7.245 -0.5868  0.5737 -0.5478
  415MOL0     C55897   4.884   7.595   7.284  0.1750 -0.5697  0.1514
  415MOL0     O55898   4.771   7.526   7.276  0.2786  0.5576 -0.1773
  415MOL0     C55899   4.646   7.590   7.241  0.5357  0.1506 -0.1210
  415MOL0     C55900   4.526   7.502   7.287 -0.2908 -0.4852 -0.3589
  415MOL0     C55901   4.524   7.489   7.443  0.6789  0.0918  0.1444
  415MOL0     C55902   4.400   7.412   7.480 -0.1884  0.0463  0.3651
  415MOL0     C55903   4.371   7.421   7.630  0.0278 -0.3793 -0.3338
  415MOL0     C55904   4.223   7.380   7.670 -0.0840  0.1066 -0.0304
  415MOL0     C55905   4.178   7.235   7.621  0.0956  0.1531 -0.6558
  415MOL0     C55906   4.219   7.136   7.729  0.4515  0.1348 -0.7236
  415MOL0     N55907   4.095   7.110   7.801  0.2845 -0.6248  0.3839
  415MOL0     C55908   4.031   7.189   7.891 -0.6485  0.1603 -0.6152
  415MOL0     C55909   3.950   7.105   7.953  0.2693  0.5286 -0.3646
  415MOL0     C55910   3.864   7.157   8.069  0.4139 -0.8087 -0.8983
  415MOL0     C55911   3.719   7.193   8.016 -0.1063 -0.0232 -0.8705
  415MOL0     C55912   3.636   7.283   8.115 -0.2672  0.2187  0.4018
  415MOL0     C55913   3.495   7.304   8.048 -0.4202  0.3374 -0.5050
  415MOL0     O55914   3.420   7.377   8.137  0.3119  1.2862  0.3365
  415MOL0     C55915   3.282   7.377   8.128  0.3919  0.4183  0.1732
  415MOL0     C55916   3.206   7.339   8.016 -0.0162 -0.1706  0.4462
  415MOL0     C55917   3.066   7.332   8.011 -0.4452 -0.1045 -0.3140
  415MOL0     C55918   3.020   7.256   7.888 -0.9549 -0.1268 -0.0943
  415MOL0     C55919   2.993   7.369   8.129 -0.4554  0.4326  0.4843
  415MOL0     C55920   2.851   7.350   8.144  0.4787 -0.8522 -0.0645
  415MOL0     O55921   2.777   7.362   8.027 -0.3700 -0.2871  0.1136
  415MOL0     C55922   2.649   7.318   8.034  0.2713  0.3672  0.0389
  415MOL0     C55923   2.553   7.403   8.100 -0.7809 -0.2455  0.5863
  415MOL0     C55924   2.421   7.372   8.114  0.7403 -0.6143  0.2649
  415MOL0     C55925   2.370   7.243   8.074  0.2699  0.4782  0.9228
  415MOL0     O55926   2.239   7.224   8.100 -0.5126 -0.6364 -0.2748
  415MOL0     C55927   2.175   7.112   8.029 -0.3078 -0.5318 -0.1669
  415MOL0     C55928   2.030   7.112   8.008  0.1381  0.0155  0.8752
  415MOL0     C55929   1.954   7.133   8.139  0.1176  0.0304 -0.5522
  415MOL0     C55930   1.807   7.126   8.125  0.2235  0.0298  0.3983
  415MOL0     C55931   1.750   6.991   8.087  0.6568  0.5824 -0.1166
  415MOL0     C55932   1.609   6.997   8.021  0.0763  0.1876 -0.6376
  415MOL0     C55933   1.496   7.002   8.122 -0.0023  0.4095 -1.1177
  415MOL0     C55934   1.365   6.965   8.052  0.3072 -0.7963 -0.1931
  415MOL0    Cl55935   1.324   7.054   7.905  0.4794  0.4674 -0.0144
  415MOL0     C55936   2.461   7.154   8.011 -0.3491  0.1416  0.0055
  415MOL0     C55937   2.602   7.193   7.995  0.7711 -0.5510 -0.7189
  415MOL0     O55938   2.804   7.319   8.255 -0.3777 -0.0703 -0.7403
  415MOL0     C55939   3.070   7.411   8.237  0.3519 -0.5072  0.0463
  415MOL0     C55940   3.208   7.418   8.240  0.0794 -0.8110  0.1999
  415MOL0     N55941   3.951   6.979   7.901 -0.4529 -0.0183  0.2694
  415MOL0     N55942   4.049   6.986   7.811 -0.6580 -0.6104 -0.4576
  415MOL0     C55943   4.994   7.531   7.329 -0.1134  0.7637  0.3911
  415MOL0     C55944   5.124   7.592   7.339  0.0343 -0.5061 -0.3821
  415MOL0     C55945   5.443   7.926   7.388 -0.7475  0.3595  0.2266
  415MOL0     C55946   5.529   7.909   7.280 -0.0038  0.2074 -0.0101
  415MOL0     C55947   5.661   7.962   7.277  0.1343  0.2377  0.5082
  415MOL0     C55948   5.716   8.026   7.392 -0.4066  0.5206 -0.4875
  415MOL0     O55949   5.847   8.059   7.410 -0.3861 -0.2101 -1.4541
  415MOL0     C55950   5.931   8.072   7.295 -0.0996 -0.4634 -0.0761
  415MOL0     C55951   6.070   8.116   7.348 -0.2166  0.3864  0.1383
  415MOL0     C55952   6.169   8.003   7.349  0.1165  0.0651 -0.6268
  415MOL0     C55953   6.244   7.976   7.219 -0.0643 -0.4313 -0.7909
  415MOL0     C55954   6.360   8.057   7.199 -0.2834  0.7854  1.1173
  415MOL0     C55955   6.462   8.123   7.204 -0.0217 -0.7279  0.2470
  415MOL0     C55956   5.631   8.046   7.501  0.3635  0.4071  0.6853
  415MOL0     C55957   5.502   8.004   7.491  0.1974  0.5621 -0.0896
  415MOL0     H55958   5.034   7.899   7.216 -4.0643 -0.2573 -0.9319
  415MOL0     H55959   4.820   7.790   7.203  0.0913  1.0437 -1.2386
  415MOL0     H55960   4.638   7.690   7.284  4.3052  1.2199 -1.5385
  415MOL0     H55961   4.642   7.601   7.133  1.5392  0.9242 -0.0875
  415MOL0     H55962   4.431   7.536   7.245 -0.5558 -0.4586  0.2448
  415MOL0     H55963   4.550   7.404   7.243  5.0272  0.2729  0.1661
  415MOL0     H55964   4.606   7.427   7.479 -0.6343 -0.9683  1.4275
  415MOL0     H55965   4.524   7.586   7.494 -2.4865  0.5006 -0.3924
  415MOL0     H55966   4.316   7.463   7.432 -0.6915 -0.4253  0.7321
  415MOL0     H55967   4.408   7.305   7.459  1.3147 -0.1591  1.7636
  415MOL0     H55968   4.451   7.364   7.679  0.6503 -0.0778 -0.9844
  415MOL0     H55969   4.381   7.524   7.667 -0.5859 -0.8703  1.2772
  415MOL0     H55970   4.203   7.398   7.776  0.4467 -2.0433  0.4843
  415MOL0     H55971   4.157   7.443   7.610 -1.8211 -0.6675  0.9701
  415MOL0     H55972   4.071   7.254   7.613 -0.1032 -1.0800 -1.0812
  415MOL0     H55973   4.220   7.209   7.523 -0.9146  3.5397 -2.1461
  415MOL0     H55974   4.293   7.177   7.798  0.6244  0.7308 -1.2540
  415MOL0     H55975   4.276   7.052   7.689  0.8533 -0.0978  0.3000
  415MOL0     H55976   4.042   7.290   7.928 -3.5592  1.6597 -3.3239
  415MOL0     H55977   3.854   7.071   8.136 -3.1278  0.3607  0.2605
  415MOL0     H55978   3.916   7.235   8.124 -1.8501  0.8262 -0.9600
  415MOL0     H55979   3.669   7.100   7.987  0.7832 -1.1598  1.0472
  415MOL0     H55980   3.732   7.265   7.935 -1.6323  0.1562 -0.9792
  415MOL0     H55981   3.682   7.381   8.127 -0.6562  0.7026 -1.6606
  415MOL0     H55982   3.631   7.233   8.212  3.8992 -0.8747  0.2783
  415MOL0     H55983   3.459   7.207   8.012 -1.2423 -0.5155  2.2911
  415MOL0     H55984   3.511   7.367   7.960 -1.0682 -0.5128 -1.2483
  415MOL0     H55985   3.264   7.310   7.929  2.0315  0.5054  1.5019
  415MOL0     H55986   3.104   7.242   7.819  0.0161 -0.5594  1.1336
  415MOL0     H55987   2.971   7.165   7.922 -0.9051  0.2475  1.0491
  415MOL0     H55988   2.951   7.321   7.834  0.8353  1.7427 -0.2650
  415MOL0     H55989   2.601   7.490   8.145  1.8041 -2.4014  2.2903
  415MOL0     H55990   2.357   7.438   8.172  0.7351 -1.6288  1.4582
  415MOL0     H55991   2.224   7.091   7.933  1.6639  0.2178  0.6181
  415MOL0     H55992   2.200   7.025   8.090  1.4013  1.6965  2.5383
  415MOL0     H55993   2.001   7.188   7.936  1.0107  1.6662  2.1821
  415MOL0     H55994   2.015   7.016   7.959  2.1627 -0.8458  1.7851
  415MOL0     H55995   1.983   7.234   8.168  1.4340 -0.7210  0.9013
  415MOL0     H55996   1.993   7.063   8.214  1.0294  1.9731  0.8452
  415MOL0     H55997   1.768   7.158   8.222 -1.3554  3.3958 -1.1895
  415MOL0     H55998   1.774   7.208   8.060 -4.1315 -1.2422  0.6567
  415MOL0     H55999   1.749   6.922   8.172  0.3252  1.8173  0.9073
  415MOL0     H56000   1.811   6.938   8.013  0.9289 -1.5849  1.5466
  415MOL0     H56001   1.594   7.088   7.964 -1.9873 -0.6260 -1.5055
  415MOL0     H56002   1.589   6.912   7.955 -0.0229  1.9944 -3.0531
  415MOL0     H56003   1.480   7.104   8.158 -0.0783  0.4392 -1.2371
  415MOL0     H56004   1.520   6.939   8.209 -3.5156 -2.5332 -2.0485
  415MOL0     H56005   1.280   6.982   8.119  0.7684  3.8980 -0.4636
  415MOL0     H56006   1.365   6.861   8.017 -0.9652 -0.7351 -0.4454
  415MOL0     H56007   2.438   7.050   7.991  0.0499 -0.4164  2.2261
  415MOL0     H56008   2.667   7.115   7.958 -1.0358 -2.5829  0.1277
  415MOL0     H56009   3.026   7.430   8.334 -1.4498  3.2189 -1.2899
  415MOL0     H56010   3.265   7.451   8.327  0.7858  1.5573 -1.0806
  415MOL0     H56011   4.976   7.427   7.354 -1.7837  1.1738  0.9673
  415MOL0     H56012   5.215   7.543   7.374 -0.2042 -0.2677  0.6207
  415MOL0     H56013   5.489   7.853   7.196 -1.4274  0.7473  0.2750
  415MOL0     H56014   5.717   7.946   7.185  2.2763  0.3307  1.7440
  415MOL0     H56015   5.927   7.978   7.239 -4.1965 -0.8775  0.6066
  415MOL0     H56016   5.907   8.157   7.229  1.6708 -1.2330 -1.8227
  415MOL0     H56017   6.069   8.155   7.450  1.8130  1.8728 -0.3453
  415MOL0     H56018   6.111   8.204   7.298  1.0538  0.9403  2.0402
  415MOL0     H56019   6.118   7.914   7.386  0.2773  0.6675  1.1510
  415MOL0     H56020   6.241   8.037   7.423 -2.4057  0.4081  1.8724
  415MOL0     H56021   6.178   7.973   7.132 -3.3183 -1.2516  1.4980
  415MOL0     H56022   6.285   7.875   7.229 -0.8102 -0.6245  0.6787
  415MOL0     H56023   6.553   8.179   7.213 -0.2158 -0.1370 -1.2148
  415MOL0     H56024   5.635   8.118   7.583 -2.1950  0.5505  0.7668
  415MOL0     H56025   5.435   8.037   7.570 -1.2448 -3.0815  0.3981
  416MOL0     O56026   5.209  11.151   8.983 -0.0553  0.2029 -0.3798
  416MOL0     C56027   5.288  11.130   8.885  0.2581 -0.4681 -0.5731
  416MOL0     O56028   5.265  11.080   8.759 -0.1466  0.2674 -0.3426
  416MOL0     C56029   5.147  11.034   8.710  0.7077  1.0786 -0.3483
  416MOL0     C56030   5.023  11.056   8.771 -0.8448  0.2371  0.1274
  416MOL0     C56031   4.911  10.999   8.725 -0.0244  0.1135  0.7573
  416MOL0     C56032   4.917  10.915   8.607 -0.0777  0.1299  0.7691
  416MOL0     O56033   4.807  10.861   8.545 -0.2056  0.3943  0.1295
  416MOL0     C56034   4.686  10.929   8.558  0.2561 -0.4402 -0.3661
  416MOL0     C56035   4.597  10.868   8.450  0.5280  0.0586  0.1798
  416MOL0     C56036   4.456  10.941   8.432 -0.8951 -0.8484  0.3425
  416MOL0     C56037   4.359  10.919   8.552 -0.5548  0.7843  0.0876
  416MOL0     C56038   4.293  11.047   8.589  0.6655  1.3237  0.0994
  416MOL0     C56039   4.185  11.039   8.697 -0.1151  0.7220  0.0691
  416MOL0     C56040   4.057  10.987   8.633 -0.7156  0.9027  0.4175
  416MOL0     C56041   3.974  10.880   8.721  0.4078 -0.1851 -0.0808
  416MOL0     N56042   3.830  10.918   8.736  0.0166  0.6143  0.4431
  416MOL0     C56043   3.771  10.952   8.855  0.2540  0.6863  0.4366
  416MOL0     C56044   3.639  10.965   8.823  0.1334 -0.3601  0.9901
  416MOL0     C56045   3.542  11.012   8.921  0.6731  0.1211  0.0232
  416MOL0     C56046   3.407  10.972   8.869  0.0797  0.0068 -0.7626
  416MOL0     C56047   3.300  11.018   8.973  0.0858 -0.3462 -1.0049
  416MOL0     C56048   3.152  10.976   8.927 -1.0511  0.3353  0.1813
  416MOL0     O56049   3.052  11.046   9.001 -0.3741 -0.7478  0.0082
  416MOL0     C56050   2.926  10.984   9.025  0.2946  0.2739 -0.1422
  416MOL0     C56051   2.837  11.060   9.092  0.0315 -0.6189 -0.0811
  416MOL0     C56052   2.708  11.015   9.119  0.0131  0.2021 -0.8921
  416MOL0     C56053   2.617  11.114   9.192  0.4619 -0.3502  0.5704
  416MOL0     C56054   2.661  10.882   9.087  0.8180 -0.2907 -0.0935
  416MOL0     C56055   2.532  10.815   9.119  0.5348  0.4801  0.2118
  416MOL0     O56056   2.503  10.696   9.054 -0.6015  0.0496  0.2290
  416MOL0     C56057   2.365  10.687   9.009 -0.2266  0.0942 -0.0335
  416MOL0     C56058   2.282  10.599   9.082 -0.2853  0.3150 -0.1857
  416MOL0     C56059   2.146  10.590   9.057 -0.0816 -0.0446 -0.2750
  416MOL0     C56060   2.084  10.663   8.951 -0.4695  0.0275 -0.3567
  416MOL0     O56061   1.950  10.630   8.932  0.4211 -0.0733  0.0703
  416MOL0     C56062   1.881  10.687   8.820 -0.1522 -0.4335  0.3254
  416MOL0     C56063   1.736  10.640   8.832  0.2426  0.1166 -0.3029
  416MOL0     C56064   1.635  10.691   8.727 -0.0178 -0.3960  0.2593
  416MOL0     C56065   1.675  10.637   8.593 -0.1745  0.2086  0.0618
  416MOL0     C56066   1.572  10.676   8.478  0.1487 -0.0928 -0.3623
  416MOL0     C56067   1.576  10.823   8.417  0.6705 -0.1370 -0.7321
  416MOL0     C56068   1.463  10.860   8.328 -1.0837  0.1020 -0.0559
  416MOL0     C56069   1.475  10.824   8.180  0.0895 -0.1398 -0.8412
  416MOL0    Cl56070   1.343  10.903   8.093  0.3513 -0.2441 -0.0478
  416MOL0     C56071   2.172  10.742   8.872 -0.6719 -0.1705  0.2938
  416MOL0     C56072   2.314  10.755   8.902  0.5817 -0.4981 -0.9667
  416MOL0     O56073   2.454  10.872   9.194  0.3117 -0.2054 -0.8383
  416MOL0     C56074   2.758  10.791   9.034  0.1592 -0.0340 -0.6094
  416MOL0     C56075   2.883  10.846   8.990  0.7362  0.4959 -0.6385
  416MOL0     N56076   3.623  10.925   8.687  0.4219 -0.6834 -0.4570
  416MOL0     N56077   3.741  10.897   8.638 -0.5648 -0.1367  0.4816
  416MOL0     C56078   5.034  10.910   8.534 -0.0312  0.4856  0.4084
  416MOL0     C56079   5.145  10.958   8.589  0.2083  0.2871 -0.9088
  416MOL0     C56080   5.433  11.151   8.920  0.3038 -0.6468 -0.6306
  416MOL0     C56081   5.511  11.240   8.846  0.2333  0.5776  0.0908
  416MOL0     C56082   5.640  11.274   8.896  0.6558 -0.0263  0.4574
  416MOL0     C56083   5.691  11.207   9.003 -0.3118  0.4495 -0.5906
  416MOL0     O56084   5.808  11.270   9.046  0.3748  0.3949  0.2890
  416MOL0     C56085   5.885  11.229   9.153 -0.6639  0.3358 -0.7585
  416MOL0     C56086   6.028  11.267   9.161  0.3410 -0.1815  0.1096
  416MOL0     C56087   6.067  11.319   9.024 -0.2328  0.1415  0.1062
  416MOL0     C56088   6.089  11.208   8.917  0.1412 -0.3687 -0.1731
  416MOL0     C56089   6.210  11.131   8.958 -0.1253  0.0525  0.0290
  416MOL0     C56090   6.299  11.085   9.029 -0.8823  0.1521  0.3262
  416MOL0     C56091   5.621  11.108   9.069 -0.1521  0.8660  0.1004
  416MOL0     C56092   5.486  11.085   9.035  0.4977 -0.2476  0.6188
  416MOL0     H56093   5.008  11.124   8.854 -0.9377  2.3810 -1.5719
  416MOL0     H56094   4.817  11.009   8.778 -0.4366 -0.9603  0.2524
  416MOL0     H56095   4.637  10.927   8.656  0.8940  3.6732  0.2156
  416MOL0     H56096   4.705  11.034   8.533 -0.2902 -0.1976  0.1965
  416MOL0     H56097   4.652  10.867   8.356  0.8917 -0.6116  0.3970
  416MOL0     H56098   4.570  10.762   8.456 -2.9347  0.7799 -0.3964
  416MOL0     H56099   4.460  11.044   8.398 -2.3452 -1.0964 -0.6630
  416MOL0     H56100   4.407  10.890   8.348 -1.4432 -1.3842  0.9753
  416MOL0     H56101   4.289  10.839   8.527 -0.0462  0.5108 -0.4844
  416MOL0     H56102   4.413  10.882   8.640 -0.1309  1.8547  0.2907
  416MOL0     H56103   4.369  11.121   8.614  1.0779  0.7075  0.7050
  416MOL0     H56104   4.252  11.085   8.495  0.1361  1.1144  0.2437
  416MOL0     H56105   4.207  10.967   8.776 -0.1591 -1.0677 -1.4675
  416MOL0     H56106   4.174  11.146   8.717  2.6781  0.7083  2.3219
  416MOL0     H56107   3.998  11.078   8.614  1.8470  3.0133  1.8124
  416MOL0     H56108   4.075  10.938   8.537  0.1117 -1.2474  1.5959
  416MOL0     H56109   4.014  10.879   8.823 -3.7128  0.8588  1.7315
  416MOL0     H56110   3.979  10.779   8.679 -2.1480 -0.0018 -0.9716
  416MOL0     H56111   3.816  10.988   8.947 -0.9989  2.4539  0.4242
  416MOL0     H56112   3.548  10.959   9.017  0.0087 -2.1976 -1.1473
  416MOL0     H56113   3.554  11.117   8.947 -2.7257  0.3070  1.2976
  416MOL0     H56114   3.396  10.865   8.849  0.5475 -0.0485 -0.7281
  416MOL0     H56115   3.400  11.028   8.776  3.5781 -0.3387 -1.3803
  416MOL0     H56116   3.308  11.127   8.974  2.9904 -0.4213 -3.0960
  416MOL0     H56117   3.319  10.981   9.075  0.7262  2.1399 -0.1654
  416MOL0     H56118   3.145  10.867   8.923  1.9797 -0.0151  1.6807
  416MOL0     H56119   3.134  11.016   8.827 -2.0947 -3.5273 -1.3504
  416MOL0     H56120   2.867  11.159   9.123 -1.7518 -0.0316 -0.0934
  416MOL0     H56121   2.517  11.113   9.146  0.9704 -0.5251 -0.5642
  416MOL0     H56122   2.610  11.084   9.297  2.7268  0.3574  0.9671
  416MOL0     H56123   2.665  11.212   9.200 -0.1638 -0.1715  2.7184
  416MOL0     H56124   2.327  10.533   9.156  0.9890 -0.0136 -1.2145
  416MOL0     H56125   2.085  10.536   9.130 -1.0582 -0.3673 -1.2939
  416MOL0     H56126   1.885  10.796   8.818 -0.5628 -0.3828 -3.2160
  416MOL0     H56127   1.926  10.652   8.727  0.6606 -0.5671  0.7631
  416MOL0     H56128   1.748  10.532   8.820 -0.4483 -0.2171  1.6695
  416MOL0     H56129   1.686  10.659   8.927 -0.9151  0.0888 -0.8764
  416MOL0     H56130   1.636  10.800   8.721  0.9464 -0.4485 -4.0232
  416MOL0     H56131   1.534  10.657   8.754 -0.4740 -0.5594 -1.5148
  416MOL0     H56132   1.767  10.691   8.570 -0.9011  2.1691  1.4563
  416MOL0     H56133   1.686  10.528   8.602 -0.4715  0.2155  0.5922
  416MOL0     H56134   1.481  10.666   8.538  0.5726  1.5870  0.6218
  416MOL0     H56135   1.560  10.603   8.397 -1.9772  1.4169 -1.5176
  416MOL0     H56136   1.573  10.887   8.505 -1.1128 -0.2131 -0.6955
  416MOL0     H56137   1.669  10.844   8.363 -0.0115  1.2302 -1.4337
  416MOL0     H56138   1.436  10.966   8.327  0.0532  0.4012 -1.1077
  416MOL0     H56139   1.376  10.801   8.359  0.1453 -1.7088  0.0993
  416MOL0     H56140   1.469  10.716   8.164  1.9441 -0.0761 -2.3646
  416MOL0     H56141   1.571  10.866   8.150  1.0683  0.7854  2.9796
  416MOL0     H56142   2.132  10.790   8.783 -1.8777 -0.7674  0.4969
  416MOL0     H56143   2.367  10.820   8.832 -0.3855 -1.3894 -2.5770
  416MOL0     H56144   2.738  10.685   9.022 -0.3602  0.0330 -0.3221
  416MOL0     H56145   2.965  10.782   8.960 -0.8762 -2.0851  0.1457
  416MOL0     H56146   5.033  10.857   8.439 -2.4270  2.4339 -0.7946
  416MOL0     H56147   5.241  10.941   8.541  2.2569 -1.0910  3.1321
  416MOL0     H56148   5.468  11.276   8.753 -0.2216 -3.1124 -1.2833
  416MOL0     H56149   5.693  11.345   8.833 -1.7522 -0.2485 -1.9761
  416MOL0     H56150   5.836  11.260   9.245  2.0701 -2.0168  1.7198
  416MOL0     H56151   5.893  11.119   9.154  2.1592  0.4571  0.4281
  416MOL0     H56152   6.099  11.189   9.192  1.4030 -0.5140 -2.8674
  416MOL0     H56153   6.040  11.350   9.231  1.1530  1.6013 -2.0584
  416MOL0     H56154   6.161  11.374   9.035  0.2361 -0.7830  0.8139
  416MOL0     H56155   5.998  11.398   8.992 -0.8921 -0.3466  0.3267
  416MOL0     H56156   6.105  11.258   8.821  4.3045  2.7453  1.8092
  416MOL0     H56157   6.018  11.126   8.909  1.6074 -1.6532 -0.6213
  416MOL0     H56158   6.396  11.070   9.072 -0.2632  0.3580 -0.9505
  416MOL0     H56159   5.655  11.047   9.153  0.1934  2.0050  0.8199
  416MOL0     H56160   5.426  11.018   9.095  1.3745 -0.8326  0.8525
  417MOL0     O56161   8.842   0.937   5.215  0.3676 -0.3062  0.0911
  417MOL0     C56162   8.808   1.051   5.183  0.6795 -0.3978  0.3017
  417MOL0     O56163   8.682   1.088   5.129 -0.1960  0.3040 -0.9439
  417MOL0     C56164   8.588   0.987   5.123  0.1195  0.0655  0.3623
  417MOL0     C56165   8.554   0.923   5.245 -0.9618  0.1167 -0.5481
  417MOL0     C56166   8.452   0.837   5.254 -0.1563  0.0682  0.7641
  417MOL0     C56167   8.363   0.817   5.144  0.4413  0.3296 -0.5458
  417MOL0     O56168   8.255   0.739   5.166 -0.5185  0.0240  0.0936
  417MOL0     C56169   8.164   0.717   5.058 -0.1133 -1.1193  0.6928
  417MOL0     C56170   8.032   0.650   5.096  0.4520 -0.6268  0.3513
  417MOL0     C56171   7.928   0.685   4.991 -0.6782 -0.2034 -0.7920
  417MOL0     C56172   7.801   0.616   5.023 -0.4260  0.1359 -0.1659
  417MOL0     C56173   7.685   0.642   4.920  0.4819 -0.1829 -0.4426
  417MOL0     C56174   7.562   0.553   4.959 -0.4362  0.4125 -0.0042
  417MOL0     C56175   7.422   0.601   4.910 -1.2642  0.0884  0.8486
  417MOL0     C56176   7.424   0.633   4.756 -0.2371 -0.0553  0.0170
  417MOL0     N56177   7.290   0.683   4.707 -0.0314  0.1307  0.6815
  417MOL0     C56178   7.240   0.807   4.741  0.4258 -0.4020  0.0187
  417MOL0     C56179   7.103   0.807   4.713  0.1981  0.1082  0.0064
  417MOL0     C56180   7.006   0.924   4.739 -0.4036  0.4475  0.0138
  417MOL0     C56181   6.876   0.870   4.792  0.5710 -0.0674 -0.3089
  417MOL0     C56182   6.771   0.981   4.795 -0.2106  0.2115  0.7319
  417MOL0     C56183   6.631   0.932   4.845 -0.7190 -1.0889 -0.0336
  417MOL0     O56184   6.649   0.884   4.979 -0.1979  0.4503  0.5868
  417MOL0     C56185   6.532   0.848   5.058 -0.4257  0.5433  0.8341
  417MOL0     C56186   6.526   0.879   5.191  0.4183  0.0607 -0.3420
  417MOL0     C56187   6.423   0.840   5.273 -0.6255  0.0812 -0.2757
  417MOL0     C56188   6.435   0.867   5.425 -0.4579  0.1793  0.7623
  417MOL0     C56189   6.306   0.786   5.214  0.7464 -0.2183 -0.3372
  417MOL0     C56190   6.179   0.754   5.290  0.0462  0.0454 -0.4154
  417MOL0     O56191   6.186   0.781   5.433 -0.0177  0.1505  0.1442
  417MOL0     C56192   6.109   0.699   5.502  1.0697 -0.5031  0.6926
  417MOL0     C56193   6.151   0.568   5.521  0.2272 -0.3081 -0.8579
  417MOL0     C56194   6.065   0.468   5.564  0.1643 -0.4058  0.3618
  417MOL0     C56195   5.948   0.502   5.632  0.6478  0.0195  0.7057
  417MOL0     O56196   5.853   0.405   5.677 -0.0481  0.0059 -0.1734
  417MOL0     C56197   5.870   0.274   5.619  0.0682  0.2157 -0.6101
  417MOL0     C56198   5.741   0.200   5.634  0.6385  1.4093  0.1655
  417MOL0     C56199   5.666   0.209   5.772  0.4092 -0.4558  0.6729
  417MOL0     C56200   5.691   0.097   5.864 -0.2332  0.2040  0.8813
  417MOL0     C56201   5.581  -0.007   5.826 -0.3336  0.0979  0.2899
  417MOL0     C56202   5.605  -0.148   5.880  0.0878 -0.3981 -0.3366
  417MOL0     C56203   5.498  -0.245   5.851  0.7743  0.3573 -0.0732
  417MOL0     C56204   5.487  -0.277   5.698  0.7129 -0.6019 -0.4050
  417MOL0    Cl56205   5.346  -0.375   5.681 -0.1201 -0.0601 -0.1354
  417MOL0     C56206   5.916   0.645   5.638 -0.3988  0.5904  0.3505
  417MOL0     C56207   5.992   0.736   5.565 -0.0250  0.0569  0.2246
  417MOL0     O56208   6.073   0.723   5.233 -0.1314  0.0244 -0.2675
  417MOL0     C56209   6.305   0.756   5.082  0.0648 -0.3129  0.7196
  417MOL0     C56210   6.416   0.789   5.006  0.2303  0.3030 -0.5485
  417MOL0     N56211   7.082   0.679   4.672  0.3337 -0.6332 -0.3644
  417MOL0     N56212   7.188   0.608   4.663 -0.5803 -0.2243  0.5638
  417MOL0     C56213   8.399   0.877   5.019  1.2556 -0.5403  0.1917
  417MOL0     C56214   8.513   0.961   5.008 -0.1519  0.1830 -0.1009
  417MOL0     C56215   8.912   1.148   5.221  0.5189  0.1969  0.7478
  417MOL0     C56216   9.046   1.117   5.232  0.5114  0.8312  0.8364
  417MOL0     C56217   9.140   1.218   5.268 -0.4970 -0.1416  0.4610
  417MOL0     C56218   9.100   1.351   5.292  0.1803 -0.1206 -0.0952
  417MOL0     O56219   9.165   1.451   5.360 -0.0879 -0.0143  0.1036
  417MOL0     C56220   9.309   1.435   5.372 -0.0509 -0.5089 -0.5211
  417MOL0     C56221   9.346   1.563   5.425 -0.3664  0.0783  0.1406
  417MOL0     C56222   9.486   1.557   5.467 -0.1252 -0.7247 -0.2780
  417MOL0     C56223   9.510   1.683   5.551  0.0686  1.3030  0.6173
  417MOL0     C56224   9.649   1.698   5.561 -0.2223  0.2364  0.0489
  417MOL0     C56225   9.768   1.709   5.581 -0.1474 -0.1587 -0.0583
  417MOL0     C56226   8.965   1.376   5.271  0.4197  0.0821  1.1650
  417MOL0     C56227   8.871   1.283   5.228 -0.0056 -0.9521 -0.4373
  417MOL0     H56228   8.615   0.920   5.335 -0.3934 -3.9683 -0.8988
  417MOL0     H56229   8.426   0.770   5.335  1.3681 -2.6292 -0.8191
  417MOL0     H56230   8.131   0.815   5.023 -1.9729 -1.6499  0.8580
  417MOL0     H56231   8.213   0.670   4.972 -0.0297 -2.1573  1.2800
  417MOL0     H56232   8.051   0.542   5.103 -3.6537 -1.4000  4.4318
  417MOL0     H56233   7.990   0.677   5.193 -0.2632 -0.1487 -0.0865
  417MOL0     H56234   7.912   0.793   4.992 -0.5580 -0.1890  0.1353
  417MOL0     H56235   7.972   0.662   4.893  0.8623  1.7151 -0.6139
  417MOL0     H56236   7.821   0.508   5.025 -0.3954  0.1450  0.7306
  417MOL0     H56237   7.775   0.647   5.125 -0.4258  4.5297 -1.3446
  417MOL0     H56238   7.664   0.749   4.912 -1.4545 -0.5070 -0.2078
  417MOL0     H56239   7.722   0.612   4.821  1.3912  3.4053 -1.3707
  417MOL0     H56240   7.558   0.450   4.924 -0.4597 -0.3687  2.1361
  417MOL0     H56241   7.554   0.544   5.068  0.4666  2.0222  0.2251
  417MOL0     H56242   7.338   0.533   4.928 -2.1241  0.5844 -1.1228
  417MOL0     H56243   7.407   0.685   4.979 -1.7241 -1.7608  3.1385
  417MOL0     H56244   7.449   0.539   4.705 -1.5246  0.5177 -1.7373
  417MOL0     H56245   7.507   0.704   4.742 -1.4051  1.3588  0.0853
  417MOL0     H56246   7.291   0.894   4.781 -2.6223  2.3516 -1.5747
  417MOL0     H56247   7.038   0.993   4.818  0.1303 -1.7935  1.8540
  417MOL0     H56248   6.991   0.962   4.637  2.9349 -3.6893 -2.3387
  417MOL0     H56249   6.893   0.856   4.899  0.3723  2.0937  0.0394
  417MOL0     H56250   6.838   0.788   4.730 -0.5324  0.2002 -0.0095
  417MOL0     H56251   6.765   1.032   4.698 -3.3036  0.4976  0.9745
  417MOL0     H56252   6.803   1.061   4.863 -1.2333  1.3604 -0.0774
  417MOL0     H56253   6.592   0.855   4.777  0.6114 -1.4445 -0.4226
  417MOL0     H56254   6.565   1.019   4.849  0.2644 -0.3665  2.8948
  417MOL0     H56255   6.619   0.920   5.229 -0.5817  1.7625  0.4103
  417MOL0     H56256   6.364   0.945   5.451 -1.5386 -0.0366 -1.3204
  417MOL0     H56257   6.410   0.787   5.495 -2.9945  2.4132  2.6112
  417MOL0     H56258   6.538   0.902   5.435  0.2375 -0.3796 -2.8347
  417MOL0     H56259   6.246   0.538   5.478  1.8598  1.5050  1.1999
  417MOL0     H56260   6.103   0.366   5.562 -1.3397 -1.0251 -2.5515
  417MOL0     H56261   5.897   0.295   5.515  0.6809 -0.0259 -0.5049
  417MOL0     H56262   5.943   0.210   5.669 -0.0791  1.1018  0.8065
  417MOL0     H56263   5.675   0.226   5.550  2.1186  2.3492 -0.7613
  417MOL0     H56264   5.762   0.096   5.609  0.7249  1.3375  0.5354
  417MOL0     H56265   5.560   0.217   5.743  0.9038  3.9852 -0.6765
  417MOL0     H56266   5.696   0.299   5.826  0.0939  1.0809 -1.5588
  417MOL0     H56267   5.796   0.070   5.849 -0.3186  1.3675 -2.5539
  417MOL0     H56268   5.680   0.128   5.968 -0.8781  3.2560 -0.0103
  417MOL0     H56269   5.577  -0.023   5.718 -4.2021 -2.0573  0.5817
  417MOL0     H56270   5.487   0.040   5.859  1.2242  1.7986  2.6672
  417MOL0     H56271   5.701  -0.183   5.842 -0.1680 -1.4426 -0.0658
  417MOL0     H56272   5.606  -0.131   5.988 -0.0795  1.3719 -0.5841
  417MOL0     H56273   5.400  -0.207   5.881  0.5483  0.7221 -1.2270
  417MOL0     H56274   5.517  -0.343   5.897  1.3113  0.3690 -0.2529
  417MOL0     H56275   5.577  -0.329   5.665  2.3278  1.0717  1.1246
  417MOL0     H56276   5.473  -0.192   5.631 -0.2765 -1.0822 -0.8266
  417MOL0     H56277   5.832   0.673   5.701 -0.1821  0.0511  0.8848
  417MOL0     H56278   5.959   0.837   5.546  0.8044 -0.1898 -3.2141
  417MOL0     H56279   6.225   0.695   5.040 -0.4065  0.3427  0.6485
  417MOL0     H56280   6.416   0.764   4.900  2.4334  1.0281 -0.7685
  417MOL0     H56281   8.339   0.874   4.928 -0.9619  0.1134  1.5259
  417MOL0     H56282   8.546   0.986   4.908 -1.5390  0.0094 -0.6305
  417MOL0     H56283   9.073   1.012   5.234  1.2673  0.9938 -0.1327
  417MOL0     H56284   9.245   1.192   5.276 -0.0401  1.8584  1.5496
  417MOL0     H56285   9.329   1.355   5.444 -1.1484 -0.4041 -0.0836
  417MOL0     H56286   9.363   1.408   5.281 -0.4134 -1.9975 -0.3240
  417MOL0     H56287   9.281   1.581   5.511 -2.0372  0.0344 -1.0614
  417MOL0     H56288   9.325   1.639   5.349  0.7352 -0.7274 -1.0206
  417MOL0     H56289   9.557   1.554   5.384 -0.0200 -0.5188 -0.1966
  417MOL0     H56290   9.504   1.472   5.534 -1.0503  0.3316  1.3648
  417MOL0     H56291   9.461   1.647   5.643  0.6261  0.0738  0.4613
  417MOL0     H56292   9.452   1.770   5.520 -1.5079  0.8511  2.0766
  417MOL0     H56293   9.874   1.712   5.594  0.4792 -2.0639 -3.4613
  417MOL0     H56294   8.934   1.480   5.278  1.4253  0.4490  0.4519
  417MOL0     H56295   8.767   1.310   5.211 -0.7115 -2.3021  1.3491
  418MOL0     O56296   0.947   1.663   0.365 -0.0552  0.3496  0.1068
  418MOL0     C56297   0.989   1.587   0.451 -0.0329 -0.0014 -0.0720
  418MOL0     O56298   0.916   1.496   0.517  0.0682  0.5885 -0.0320
  418MOL0     C56299   0.781   1.493   0.491  0.1297  0.5739 -0.8360
  418MOL0     C56300   0.716   1.423   0.595  0.7412 -0.6818 -0.6614
  418MOL0     C56301   0.575   1.406   0.595 -0.0921  0.3015  0.1947
  418MOL0     C56302   0.493   1.463   0.495 -0.1684  0.6144 -0.0639
  418MOL0     O56303   0.362   1.456   0.495  0.1788 -0.8744  0.2719
  418MOL0     C56304   0.298   1.352   0.425  0.3098 -0.1475  0.2144
  418MOL0     C56305   0.305   1.227   0.508 -0.0872  0.1412 -0.0032
  418MOL0     C56306   0.237   1.105   0.444  0.0960 -0.4382 -0.0644
  418MOL0     C56307   0.094   1.136   0.396 -0.2203 -0.2457  0.1852
  418MOL0     C56308   0.027   1.018   0.323 -0.6309 -0.8044  0.3146
  418MOL0     C56309  -0.116   1.052   0.268  0.3947 -0.3562  0.7670
  418MOL0     C56310  -0.167   0.938   0.175 -0.3003 -0.4536 -0.2373
  418MOL0     C56311  -0.204   0.803   0.248  0.0434 -0.0869 -0.6496
  418MOL0     N56312  -0.296   0.720   0.173 -0.1216  0.2693 -0.5767
  418MOL0     C56313  -0.423   0.750   0.136  0.6889 -0.6588  0.3773
  418MOL0     C56314  -0.477   0.644   0.082 -0.0031 -0.2439 -0.6537
  418MOL0     C56315  -0.622   0.622   0.044 -0.4867 -0.6599 -1.5493
  418MOL0     C56316  -0.725   0.720   0.121  0.6942  0.3958  1.5272
  418MOL0     C56317  -0.874   0.698   0.086  0.0469  0.0001 -0.2230
  418MOL0     C56318  -0.943   0.596   0.177  0.4034 -0.0148  0.8763
  418MOL0     O56319  -1.084   0.596   0.164 -0.1664 -0.2991 -0.1601
  418MOL0     C56320  -1.166   0.686   0.229  0.1946  0.0201 -0.1744
  418MOL0     C56321  -1.295   0.672   0.195  0.3812  0.6886  0.1967
  418MOL0     C56322  -1.396   0.752   0.247 -1.0609 -0.1504 -0.0978
  418MOL0     C56323  -1.538   0.720   0.212  0.1925 -0.3382 -0.4781
  418MOL0     C56324  -1.363   0.858   0.334 -0.3398  0.0908 -0.3001
  418MOL0     C56325  -1.459   0.963   0.372 -0.6933  0.0987 -0.2739
  418MOL0     O56326  -1.581   0.916   0.402 -0.7369  0.5315  0.2869
  418MOL0     C56327  -1.678   1.009   0.431 -1.2750  0.4940  0.3322
  418MOL0     C56328  -1.799   1.014   0.367  0.3335  0.5127 -0.1000
  418MOL0     C56329  -1.900   1.110   0.395 -0.1919 -0.2067  0.4392
  418MOL0     C56330  -1.889   1.202   0.501  0.0552  0.3061 -0.0851
  418MOL0     O56331  -1.990   1.280   0.542  0.4636 -0.6244  0.8617
  418MOL0     C56332  -2.095   1.211   0.608 -0.2762  0.2896 -0.2283
  418MOL0     C56333  -2.184   1.308   0.682 -0.2130  0.1937  0.0897
  418MOL0     C56334  -2.310   1.238   0.723  0.8172  0.1609 -0.5932
  418MOL0     C56335  -2.416   1.341   0.772 -1.1444  0.8591  0.2603
  418MOL0     C56336  -2.556   1.296   0.723  0.7152 -0.2837 -1.1316
  418MOL0     C56337  -2.659   1.294   0.842 -0.4329 -0.2386 -0.0912
  418MOL0     C56338  -2.794   1.239   0.781  0.5109 -0.1241 -0.4211
  418MOL0     C56339  -2.886   1.187   0.892  0.2578 -0.6014 -0.0885
  418MOL0    Cl56340  -2.808   1.086   1.029 -0.1502  0.3924  0.8098
  418MOL0     C56341  -1.771   1.193   0.576  0.1987  0.1937  0.4561
  418MOL0     C56342  -1.667   1.102   0.544  0.1883 -0.0084 -1.0520
  418MOL0     O56343  -1.421   1.079   0.361  0.2125 -0.8638  0.3214
  418MOL0     C56344  -1.221   0.885   0.359 -0.2224  0.7600  0.4577
  418MOL0     C56345  -1.130   0.798   0.304  0.4114  0.0421 -0.0986
  418MOL0     N56346  -0.383   0.543   0.086 -1.3132  0.2601 -0.1061
  418MOL0     N56347  -0.278   0.591   0.143 -0.0177  0.3549  0.4368
  418MOL0     C56348   0.553   1.543   0.395 -0.2048  0.3578  0.9286
  418MOL0     C56349   0.693   1.550   0.386  0.5278  0.1717 -0.7272
  418MOL0     C56350   1.132   1.601   0.485 -0.2866  0.2830 -0.2815
  418MOL0     C56351   1.216   1.698   0.433  0.2024  0.3123  0.3328
  418MOL0     C56352   1.350   1.699   0.448 -0.1690 -0.3511 -0.2673
  418MOL0     C56353   1.409   1.593   0.523 -0.8758  0.0641 -0.2323
  418MOL0     O56354   1.545   1.590   0.557 -0.1839  0.5667 -0.2514
  418MOL0     C56355   1.615   1.711   0.529 -0.4453 -0.4218  0.6952
  418MOL0     C56356   1.756   1.673   0.576 -0.4191 -0.1353  0.0647
  418MOL0     C56357   1.855   1.777   0.534 -0.1697  0.0151 -0.3407
  418MOL0     C56358   1.999   1.722   0.572  1.0984  0.2310 -0.2403
  418MOL0     C56359   2.085   1.829   0.532 -0.5842  0.1336 -0.6016
  418MOL0     C56360   2.159   1.910   0.478 -0.1474  0.0856 -0.2603
  418MOL0     C56361   1.329   1.488   0.564 -0.1804  0.3417 -0.2786
  418MOL0     C56362   1.189   1.490   0.552  0.5883  1.0182  0.2856
  418MOL0     H56363   0.767   1.377   0.680 -1.9283 -0.8432  0.9889
  418MOL0     H56364   0.529   1.355   0.679  0.9371 -1.1241 -0.0707
  418MOL0     H56365   0.194   1.380   0.408  0.6066  0.2872 -1.0395
  418MOL0     H56366   0.347   1.333   0.329  0.6386  3.7402 -0.5570
  418MOL0     H56367   0.407   1.199   0.536 -0.6253  0.8944  3.1414
  418MOL0     H56368   0.255   1.237   0.605  2.2921 -1.9579  1.5516
  418MOL0     H56369   0.307   1.069   0.367  0.6443 -0.0437  0.2397
  418MOL0     H56370   0.223   1.025   0.517  1.2541  0.9922  1.8043
  418MOL0     H56371   0.031   1.162   0.481  0.0196  0.2577  0.2153
  418MOL0     H56372   0.071   1.220   0.330  1.4019 -0.4922 -0.7626
  418MOL0     H56373   0.088   0.982   0.240 -1.3619  2.9743 -2.1489
  418MOL0     H56374   0.014   0.931   0.388  1.7280 -0.5245  1.2426
  418MOL0     H56375  -0.190   1.071   0.346 -0.3988 -1.8586  0.4152
  418MOL0     H56376  -0.115   1.134   0.195 -2.6569 -2.3287 -1.7706
  418MOL0     H56377  -0.254   0.982   0.125 -0.9234 -0.3509  0.9056
  418MOL0     H56378  -0.086   0.914   0.106 -0.8180 -0.1486 -0.9733
  418MOL0     H56379  -0.250   0.810   0.347 -3.1708 -0.6195 -2.0051
  418MOL0     H56380  -0.118   0.737   0.262  1.5407  0.6615 -4.9209
  418MOL0     H56381  -0.470   0.846   0.153 -0.7070 -1.3178  0.4222
  418MOL0     H56382  -0.626   0.649  -0.062  1.0103 -3.9993 -2.5983
  418MOL0     H56383  -0.651   0.517   0.051 -2.3638 -0.0332  1.8989
  418MOL0     H56384  -0.701   0.820   0.086 -2.3193 -0.2212 -3.2710
  418MOL0     H56385  -0.708   0.713   0.229  1.2898  0.5594  1.4416
  418MOL0     H56386  -0.884   0.658  -0.016  0.0142  0.8516 -0.5599
  418MOL0     H56387  -0.926   0.794   0.085 -0.4465 -0.1527  2.6684
  418MOL0     H56388  -0.924   0.603   0.284 -2.6267 -1.1135  1.5893
  418MOL0     H56389  -0.899   0.501   0.144  0.0655 -0.7697  2.5181
  418MOL0     H56390  -1.326   0.596   0.124 -3.0764  0.9409  1.2345
  418MOL0     H56391  -1.544   0.650   0.128 -1.5615  1.5962 -2.0662
  418MOL0     H56392  -1.601   0.678   0.292  1.2924 -2.2374 -0.5395
  418MOL0     H56393  -1.591   0.812   0.187 -0.0092  0.7557  3.2587
  418MOL0     H56394  -1.830   0.956   0.280 -1.1982  3.2875 -1.5308
  418MOL0     H56395  -1.983   1.117   0.326  0.4780 -0.0465 -0.3717
  418MOL0     H56396  -2.152   1.145   0.542  0.7471 -1.2757  0.3838
  418MOL0     H56397  -2.050   1.144   0.682 -3.1114 -0.6672  0.7607
  418MOL0     H56398  -2.143   1.348   0.775 -3.5921  2.3781  0.8144
  418MOL0     H56399  -2.205   1.389   0.613 -0.6093 -0.6755 -0.8314
  418MOL0     H56400  -2.276   1.177   0.807  1.4272  2.4387  0.9124
  418MOL0     H56401  -2.348   1.177   0.641 -1.4641  0.0778  0.4299
  418MOL0     H56402  -2.408   1.349   0.881 -2.7922  0.5502  0.4319
  418MOL0     H56403  -2.389   1.444   0.749  2.0558 -0.0184 -0.3560
  418MOL0     H56404  -2.558   1.190   0.695 -1.7261 -1.3504  2.3027
  418MOL0     H56405  -2.599   1.360   0.645  0.5998  0.8979 -0.1347
  418MOL0     H56406  -2.619   1.237   0.926  2.1200  0.0510 -1.0448
  418MOL0     H56407  -2.678   1.396   0.876  3.3270  1.2987 -2.0846
  418MOL0     H56408  -2.766   1.149   0.726  3.5490 -0.2669  1.1150
  418MOL0     H56409  -2.844   1.305   0.711 -0.2971  0.0199  0.2808
  418MOL0     H56410  -2.955   1.121   0.838  0.0571 -0.1944 -0.3323
  418MOL0     H56411  -2.923   1.270   0.953 -0.5351  0.3060 -1.7426
  418MOL0     H56412  -1.762   1.264   0.658 -0.1497  0.2110  0.4813
  418MOL0     H56413  -1.585   1.098   0.615 -0.3817  0.7735 -0.3452
  418MOL0     H56414  -1.188   0.971   0.416 -0.1636  0.8101  0.3497
  418MOL0     H56415  -1.026   0.818   0.328  0.4865  1.0839 -1.1629
  418MOL0     H56416   0.499   1.575   0.306  2.2524 -2.5616 -1.8868
  418MOL0     H56417   0.734   1.615   0.309 -0.1901 -0.3512 -1.5669
  418MOL0     H56418   1.161   1.762   0.365 -1.4842 -1.4591 -0.0382
  418MOL0     H56419   1.408   1.780   0.405 -2.2703  0.3462 -1.9295
  418MOL0     H56420   1.619   1.729   0.421 -0.5257 -4.1387 -0.0553
  418MOL0     H56421   1.581   1.796   0.589  0.4584  0.9693 -0.6794
  418MOL0     H56422   1.784   1.582   0.522  2.6644  0.7677 -0.0167
  418MOL0     H56423   1.752   1.660   0.685  1.0283 -0.1352  0.1312
  418MOL0     H56424   1.828   1.866   0.592  1.5193 -0.0181  0.5820
  418MOL0     H56425   1.834   1.798   0.429 -0.1294 -2.1261 -0.8334
  418MOL0     H56426   2.032   1.638   0.510  1.1371  1.4526 -1.9410
  418MOL0     H56427   2.007   1.690   0.676  3.9321  0.6302 -0.2723
  418MOL0     H56428   2.227   1.976   0.429  2.4815 -1.7889  0.6813
  418MOL0     H56429   1.375   1.409   0.622  0.2363  2.9852  3.3731
  418MOL0     H56430   1.135   1.401   0.584 -0.8769  1.9230  0.4059
  419MOL0     O56431   4.307   5.152   5.677  0.4742 -0.4240 -0.6760
  419MOL0     C56432   4.393   5.058   5.691  0.7192 -0.5631  0.9418
  419MOL0     O56433   4.370   4.941   5.750 -0.0554  0.3459 -0.2338
  419MOL0     C56434   4.239   4.911   5.778  0.6858 -0.0767 -0.5122
  419MOL0     C56435   4.150   5.002   5.850 -0.1272 -0.4158  0.2680
  419MOL0     C56436   4.017   4.979   5.871  0.3962  0.3447 -0.2624
  419MOL0     C56437   3.968   4.862   5.817 -0.0131 -0.2911  0.7848
  419MOL0     O56438   3.832   4.834   5.842 -0.3465 -0.2606  0.7264
  419MOL0     C56439   3.787   4.700   5.830 -0.2516 -0.3185 -0.3283
  419MOL0     C56440   3.734   4.673   5.683  0.3263 -0.7971 -0.2383
  419MOL0     C56441   3.606   4.749   5.651 -0.2034  0.5160  0.1565
  419MOL0     C56442   3.490   4.721   5.741  0.2791 -0.2422 -0.5061
  419MOL0     C56443   3.364   4.799   5.687  0.1506  0.1478 -0.2287
  419MOL0     C56444   3.248   4.777   5.793 -0.3566 -0.5708 -0.4976
  419MOL0     C56445   3.113   4.803   5.729  0.3437  0.4003 -0.6812
  419MOL0     C56446   3.003   4.817   5.835  0.0391 -0.7529  0.9089
  419MOL0     N56447   2.902   4.910   5.778 -0.2561 -0.1133  0.1810
  419MOL0     C56448   2.918   5.049   5.767 -0.0949 -0.3301  0.6888
  419MOL0     C56449   2.810   5.076   5.686 -1.2216  0.3199 -0.3520
  419MOL0     C56450   2.748   5.205   5.648 -0.2173 -0.1818 -0.3792
  419MOL0     C56451   2.845   5.322   5.682  0.0959 -0.6831 -0.8616
  419MOL0     C56452   2.824   5.450   5.598  0.1060 -0.5577 -0.0030
  419MOL0     C56453   2.691   5.519   5.623 -0.3595 -0.1368  0.1266
  419MOL0     O56454   2.690   5.575   5.755 -0.5235  1.0028  0.0256
  419MOL0     C56455   2.584   5.640   5.802  0.4612 -0.2510  0.0567
  419MOL0     C56456   2.597   5.717   5.924 -0.2285 -0.0503 -0.3092
  419MOL0     C56457   2.490   5.791   5.978 -0.1091  0.2185 -0.1204
  419MOL0     C56458   2.521   5.885   6.090  0.0513 -0.0846  0.2431
  419MOL0     C56459   2.367   5.781   5.916  0.8451  1.1459 -0.0679
  419MOL0     C56460   2.235   5.839   5.962 -1.3593  0.5171  0.7742
  419MOL0     O56461   2.126   5.795   5.890 -0.3311  0.2169  0.4332
  419MOL0     C56462   1.993   5.841   5.903 -0.4651 -0.2165  0.2826
  419MOL0     C56463   1.905   5.801   5.798 -0.1261  0.8100 -0.8055
  419MOL0     C56464   1.768   5.838   5.791  0.1627 -0.3523  0.4248
  419MOL0     C56465   1.718   5.926   5.888  0.3390  0.7821  0.6547
  419MOL0     O56466   1.594   5.972   5.887 -0.1021 -0.6859 -0.2067
  419MOL0     C56467   1.511   5.954   5.777  0.9698  0.2196  1.0387
  419MOL0     C56468   1.374   6.012   5.799  0.9686 -0.2176 -0.2002
  419MOL0     C56469   1.303   6.043   5.667 -0.4578  0.7792 -0.0948
  419MOL0     C56470   1.263   5.917   5.584  0.6432  0.3927  0.0274
  419MOL0     C56471   1.159   5.820   5.657  0.8748  0.0845 -0.0460
  419MOL0     C56472   1.015   5.869   5.691 -0.3112  0.6061  0.3537
  419MOL0     C56473   0.926   5.918   5.589  0.1067  0.1474 -1.1558
  419MOL0     C56474   0.858   5.798   5.521 -0.4404 -0.6950  0.6359
  419MOL0    Cl56475   0.965   5.738   5.395  0.2987  0.0794  0.1560
  419MOL0     C56476   1.804   5.963   5.990 -0.4732 -0.3368 -0.5762
  419MOL0     C56477   1.936   5.927   5.997 -0.5015 -0.1825  0.0298
  419MOL0     O56478   2.236   5.933   6.041 -0.5684  0.9220 -0.3560
  419MOL0     C56479   2.359   5.712   5.793  0.6384 -0.4604  1.0009
  419MOL0     C56480   2.464   5.637   5.741  0.0825 -0.2177  1.0119
  419MOL0     N56481   2.732   4.964   5.674 -0.2153 -0.0309  0.3617
  419MOL0     N56482   2.777   4.868   5.738 -1.2003  0.4594 -0.4388
  419MOL0     C56483   4.054   4.764   5.759  1.1331 -0.3889 -0.5841
  419MOL0     C56484   4.185   4.787   5.743 -0.6161 -0.3062 -0.2876
  419MOL0     C56485   4.531   5.091   5.646  0.8945  0.5852 -0.1587
  419MOL0     C56486   4.579   5.214   5.609 -0.9854 -0.1573 -0.1471
  419MOL0     C56487   4.717   5.229   5.566 -0.9402 -1.1508 -0.5549
  419MOL0     C56488   4.805   5.123   5.574 -0.5762  0.2670 -0.3511
  419MOL0     O56489   4.939   5.129   5.544 -0.9180  0.1773 -0.2199
  419MOL0     C56490   5.002   5.259   5.555  0.0565 -0.2667  0.0170
  419MOL0     C56491   5.155   5.252   5.572  0.1433 -0.5915  0.0625
  419MOL0     C56492   5.218   5.373   5.617  0.2671 -0.2993  0.6313
  419MOL0     C56493   5.362   5.370   5.666 -0.1631 -0.0746  0.0551
  419MOL0     C56494   5.384   5.508   5.720 -0.4027  0.6265 -0.6888
  419MOL0     C56495   5.393   5.629   5.732  0.0993  0.0686 -0.7458
  419MOL0     C56496   4.762   4.997   5.610  0.0313 -0.3750  0.0064
  419MOL0     C56497   4.621   4.982   5.639 -0.9060 -0.7554 -1.3262
  419MOL0     H56498   4.184   5.097   5.891 -1.6232 -0.2242  1.1069
  419MOL0     H56499   3.952   5.052   5.919 -0.8218 -2.5866  3.0135
  419MOL0     H56500   3.860   4.626   5.864 -1.1351 -1.3963 -0.7358
  419MOL0     H56501   3.705   4.685   5.900 -0.0737  0.3024  0.0219
  419MOL0     H56502   3.808   4.714   5.614 -0.3840  1.1693  0.0909
  419MOL0     H56503   3.721   4.566   5.670  1.8982 -1.1112  0.5367
  419MOL0     H56504   3.626   4.855   5.667 -3.4534  1.1644  0.5224
  419MOL0     H56505   3.586   4.729   5.545  2.9172  1.9263 -0.8241
  419MOL0     H56506   3.471   4.613   5.741 -4.4898  0.3941  0.7530
  419MOL0     H56507   3.502   4.750   5.845 -1.6461 -0.3445 -0.2367
  419MOL0     H56508   3.389   4.905   5.675 -0.0908  0.1966 -0.3146
  419MOL0     H56509   3.344   4.752   5.590  0.2110 -0.4966  0.0692
  419MOL0     H56510   3.252   4.674   5.831 -2.4435 -0.5669 -0.1788
  419MOL0     H56511   3.265   4.850   5.873 -1.5297  0.2886 -1.0101
  419MOL0     H56512   3.124   4.882   5.653  2.0404 -1.3625 -2.4060
  419MOL0     H56513   3.084   4.713   5.673  5.3292  0.0750 -3.3345
  419MOL0     H56514   3.042   4.866   5.925  2.0749  0.2512 -0.4228
  419MOL0     H56515   2.965   4.719   5.865 -1.2759  0.5848  4.0226
  419MOL0     H56516   3.004   5.102   5.807  1.7813 -0.9535 -2.1535
  419MOL0     H56517   2.749   5.205   5.539  0.8168  0.4979 -0.3883
  419MOL0     H56518   2.646   5.210   5.688 -0.7995 -3.4028 -1.1942
  419MOL0     H56519   2.951   5.301   5.662  0.2458  1.0414 -2.0911
  419MOL0     H56520   2.844   5.354   5.787  0.7423  3.0305 -1.8282
  419MOL0     H56521   2.842   5.430   5.492  0.2462  1.3612 -0.3707
  419MOL0     H56522   2.901   5.524   5.622 -1.7376  1.9258 -1.3298
  419MOL0     H56523   2.623   5.437   5.597 -1.1222  1.3977 -3.2709
  419MOL0     H56524   2.661   5.592   5.548 -1.7611 -3.3934 -2.7564
  419MOL0     H56525   2.693   5.715   5.975 -0.8273 -0.1859  0.8347
  419MOL0     H56526   2.503   5.853   6.193  4.4977  1.0707  1.5914
  419MOL0     H56527   2.628   5.907   6.090  0.9114 -3.6417  1.2417
  419MOL0     H56528   2.459   5.976   6.087 -2.7038 -1.8455 -0.1150
  419MOL0     H56529   1.924   5.736   5.713  0.3797 -3.8128  2.4507
  419MOL0     H56530   1.716   5.798   5.704  1.7535 -0.8699 -0.3428
  419MOL0     H56531   1.544   5.994   5.681 -1.8553 -1.8464 -0.9816
  419MOL0     H56532   1.487   5.849   5.755 -3.3959  1.2354 -0.0547
  419MOL0     H56533   1.323   5.938   5.861  0.3419  1.7403  1.7662
  419MOL0     H56534   1.377   6.102   5.861  1.4872 -1.2202  1.2926
  419MOL0     H56535   1.372   6.089   5.595  1.6949 -2.0358 -0.0147
  419MOL0     H56536   1.216   6.107   5.683 -2.8271 -1.5919 -2.3964
  419MOL0     H56537   1.219   5.946   5.488 -2.9547 -2.5756  0.5594
  419MOL0     H56538   1.355   5.858   5.574 -0.3907 -1.0521 -1.5951
  419MOL0     H56539   1.195   5.783   5.753  0.7190 -2.5819 -0.9128
  419MOL0     H56540   1.158   5.724   5.604  1.1845  0.7189 -1.2558
  419MOL0     H56541   0.975   5.791   5.756  0.7165 -1.4979 -1.3749
  419MOL0     H56542   1.042   5.961   5.743  1.5289 -0.6499  1.7521
  419MOL0     H56543   0.976   5.982   5.516  3.0613 -1.5869 -0.8390
  419MOL0     H56544   0.846   5.971   5.640  0.3920 -0.6154  0.1155
  419MOL0     H56545   0.756   5.831   5.499 -0.0749  0.6806  0.8890
  419MOL0     H56546   0.848   5.721   5.598  0.0264 -0.2666  1.1269
  419MOL0     H56547   1.766   6.020   6.075  0.5506 -2.4004  1.3778
  419MOL0     H56548   1.998   5.952   6.083  0.3990 -0.8346 -0.4166
  419MOL0     H56549   2.271   5.710   5.730  0.9376  1.9809  0.4064
  419MOL0     H56550   2.444   5.579   5.652 -1.4884 -2.2245  2.5454
  419MOL0     H56551   4.025   4.666   5.723  1.5819 -0.6701 -0.1920
  419MOL0     H56552   4.248   4.721   5.683 -1.6387  1.0895 -3.0738
  419MOL0     H56553   4.516   5.302   5.615 -1.0256  0.0409 -2.5940
  419MOL0     H56554   4.756   5.326   5.538 -1.3894 -0.3343  1.4793
  419MOL0     H56555   4.973   5.313   5.464 -1.0530  0.2731  0.6683
  419MOL0     H56556   4.959   5.317   5.637  2.7507 -1.0371  2.1370
  419MOL0     H56557   5.188   5.239   5.469 -3.3166 -1.5135 -1.0726
  419MOL0     H56558   5.172   5.174   5.647  0.0054  0.5427  1.3016
  419MOL0     H56559   5.155   5.426   5.689 -0.5295 -1.3465  0.7263
  419MOL0     H56560   5.228   5.437   5.528 -0.3076  1.8359  2.0376
  419MOL0     H56561   5.432   5.342   5.587 -0.2096 -1.1368  0.3675
  419MOL0     H56562   5.362   5.299   5.749 -0.0554  1.4247  1.3809
  419MOL0     H56563   5.420   5.733   5.744  0.9855 -0.3567  1.7435
  419MOL0     H56564   4.829   4.913   5.621 -1.2182 -1.4951 -0.5984
  419MOL0     H56565   4.597   4.884   5.680 -2.0441  0.3407  0.8451
  420MOL0     O56566   3.515   8.934   6.467  0.7256 -1.1003 -0.2592
  420MOL0     C56567   3.464   9.047   6.459 -0.9036  0.8188  0.1371
  420MOL0     O56568   3.534   9.158   6.405  0.3869  0.2866  0.0563
  420MOL0     C56569   3.662   9.156   6.363  0.2674  0.4672 -0.8418
  420MOL0     C56570   3.763   9.092   6.441  0.0826 -0.2959 -0.1671
  420MOL0     C56571   3.896   9.112   6.407  0.2140  0.6634  0.3249
  420MOL0     C56572   3.936   9.182   6.289  0.7834  0.1636 -0.5209
  420MOL0     O56573   4.071   9.209   6.250 -0.7623 -0.5173  0.4137
  420MOL0     C56574   4.160   9.100   6.226  0.5746 -0.6311 -0.3592
  420MOL0     C56575   4.150   9.059   6.083 -0.6946 -0.3122 -0.3720
  420MOL0     C56576   4.174   9.164   5.979  0.5122 -0.5746 -0.4802
  420MOL0     C56577   4.223   9.093   5.851 -0.0104  0.5737 -0.1902
  420MOL0     C56578   4.253   9.198   5.746  0.6680 -0.0966  0.4625
  420MOL0     C56579   4.134   9.266   5.684  0.0892  0.1339  0.5666
  420MOL0     C56580   4.083   9.197   5.557 -0.3277 -1.2724  0.1951
  420MOL0     C56581   3.994   9.293   5.469  0.3142  0.2733 -0.5701
  420MOL0     N56582   4.054   9.376   5.365  0.1910 -0.1570  0.2000
  420MOL0     C56583   4.014   9.504   5.337 -0.0322  1.0669  0.5993
  420MOL0     C56584   4.097   9.545   5.236 -0.9594  0.9477  0.0507
  420MOL0     C56585   4.089   9.680   5.180  0.6220  0.5123 -0.1639
  420MOL0     C56586   3.938   9.722   5.160 -0.7094 -0.2696  0.1648
  420MOL0     C56587   3.950   9.859   5.070 -0.3210 -0.2011 -0.0547
  420MOL0     C56588   3.805   9.906   5.039  0.2516  0.1679  0.6155
  420MOL0     O56589   3.748   9.785   4.978 -0.0984 -0.1993  0.4226
  420MOL0     C56590   3.624   9.783   4.926  0.1400  0.7319 -0.9524
  420MOL0     C56591   3.574   9.669   4.863  0.3215  0.4685 -0.1586
  420MOL0     C56592   3.449   9.667   4.807  0.2023 -0.0927  0.2622
  420MOL0     C56593   3.412   9.547   4.724 -0.1128 -1.3546  0.5705
  420MOL0     C56594   3.368   9.788   4.805 -0.3340 -0.9502 -0.4828
  420MOL0     C56595   3.241   9.802   4.747 -0.2358 -0.2237 -0.5643
  420MOL0     O56596   3.191   9.919   4.704 -0.4168 -0.1150 -0.5107
  420MOL0     C56597   3.060   9.967   4.721  0.2487  0.0827  0.1855
  420MOL0     C56598   3.042  10.098   4.701  0.0483 -0.6331  0.6572
  420MOL0     C56599   2.912  10.160   4.711  0.1647 -0.4922 -0.0621
  420MOL0     C56600   2.798  10.079   4.738  0.1142 -0.9684  1.4102
  420MOL0     O56601   2.666  10.109   4.728 -0.3812  0.3137  0.6902
  420MOL0     C56602   2.623  10.231   4.674 -0.2502 -0.1352 -0.4947
  420MOL0     C56603   2.486  10.252   4.745  0.4110  0.0826 -0.8717
  420MOL0     C56604   2.406  10.379   4.686 -0.0970 -0.2869 -0.2804
  420MOL0     C56605   2.346  10.452   4.799 -0.3436 -0.7597  0.1085
  420MOL0     C56606   2.224  10.548   4.751  0.0397 -0.1079  0.3868
  420MOL0     C56607   2.265  10.680   4.676  0.1426 -0.0326 -0.1176
  420MOL0     C56608   2.395  10.752   4.745 -0.1165 -0.2931  0.3028
  420MOL0     C56609   2.369  10.898   4.787  0.1110 -0.4195 -0.4107
  420MOL0    Cl56610   2.514  11.000   4.802 -0.1382  0.0327 -0.4198
  420MOL0     C56611   2.821   9.942   4.752  0.2926  0.4996  0.6399
  420MOL0     C56612   2.949   9.884   4.738  0.0794  0.3162  0.2527
  420MOL0     O56613   3.179   9.698   4.752 -0.9078  1.1095 -0.4982
  420MOL0     C56614   3.419   9.895   4.879 -0.1375 -0.0580  0.3619
  420MOL0     C56615   3.544   9.896   4.933 -0.7725 -0.2397 -0.2845
  420MOL0     N56616   4.189   9.447   5.208 -1.2217  1.0861  0.2375
  420MOL0     N56617   4.154   9.349   5.280 -0.2654 -0.1243 -0.2851
  420MOL0     C56618   3.830   9.246   6.214 -0.6068  0.3773 -0.7160
  420MOL0     C56619   3.700   9.236   6.256  0.3031  0.4178 -0.5031
  420MOL0     C56620   3.323   9.062   6.480 -0.0505  0.2449  0.1041
  420MOL0     C56621   3.246   8.943   6.494 -0.0514 -0.2743  0.0915
  420MOL0     C56622   3.107   8.956   6.510  0.8296  0.8851 -0.3940
  420MOL0     C56623   3.045   9.078   6.511 -0.9265 -0.9841 -0.6230
  420MOL0     O56624   2.913   9.102   6.537  0.3533 -0.4648  0.5652
  420MOL0     C56625   2.818   8.994   6.554 -0.0919 -0.9238 -0.5966
  420MOL0     C56626   2.770   8.985   6.696 -0.1737  0.3234 -0.4769
  420MOL0     C56627   2.679   9.109   6.737 -0.7615  0.8290 -0.1333
  420MOL0     C56628   2.634   9.108   6.879 -0.2406 -0.0935  0.2135
  420MOL0     C56629   2.747   9.104   6.975 -0.0640  0.1546  0.0926
  420MOL0     C56630   2.847   9.098   7.039  0.6395 -0.2084  0.9739
  420MOL0     C56631   3.125   9.196   6.491  0.3793  0.1319 -0.7317
  420MOL0     C56632   3.262   9.187   6.478  0.8792  0.5369 -0.5122
  420MOL0     H56633   3.734   9.041   6.532  4.9544 -0.4343  1.5964
  420MOL0     H56634   3.969   9.066   6.472  1.6967  0.9605 -1.0647
  420MOL0     H56635   4.257   9.150   6.240  0.9253 -1.3183 -0.3128
  420MOL0     H56636   4.163   9.007   6.282  2.4173 -0.4243 -0.0368
  420MOL0     H56637   4.215   8.972   6.068  0.1763  0.5614 -2.0644
  420MOL0     H56638   4.046   9.030   6.065  0.2002 -3.3340 -1.2701
  420MOL0     H56639   4.084   9.224   5.959 -0.3143 -0.9377  1.8575
  420MOL0     H56640   4.242   9.242   6.014 -1.8091  1.7374 -0.7995
  420MOL0     H56641   4.310   9.029   5.869 -0.8603 -0.1987  1.3680
  420MOL0     H56642   4.150   9.028   5.802 -1.4634  2.7311 -1.0954
  420MOL0     H56643   4.312   9.279   5.790  0.9053 -0.5968  1.0955
  420MOL0     H56644   4.318   9.145   5.676  1.6675  0.8756  0.6264
  420MOL0     H56645   4.046   9.287   5.746 -3.2112 -3.3932 -2.3750
  420MOL0     H56646   4.165   9.364   5.647 -2.4078 -0.3099 -3.2090
  420MOL0     H56647   4.157   9.146   5.495  0.0924 -0.9458  0.4178
  420MOL0     H56648   4.012   9.120   5.588  0.5457 -1.3147  2.2688
  420MOL0     H56649   3.940   9.362   5.535 -0.2763  0.9872 -1.7592
  420MOL0     H56650   3.921   9.229   5.418  1.8406  0.0993 -2.6386
  420MOL0     H56651   3.935   9.561   5.385  0.1726  2.6003 -0.8047
  420MOL0     H56652   4.145   9.749   5.245  0.6465 -1.3701  1.9270
  420MOL0     H56653   4.144   9.680   5.086  0.8410 -3.5635 -0.2042
  420MOL0     H56654   3.901   9.754   5.258  2.7113 -1.2828  1.9567
  420MOL0     H56655   3.880   9.643   5.112 -1.4412  0.9645 -1.1038
  420MOL0     H56656   4.002   9.843   4.975  0.5301  2.1978 -0.0575
  420MOL0     H56657   3.989   9.951   5.115 -1.6102  1.4497 -2.1525
  420MOL0     H56658   3.801   9.984   4.962 -0.0813 -1.8922 -1.5837
  420MOL0     H56659   3.752   9.934   5.131  1.5475  1.8570  0.8981
  420MOL0     H56660   3.639   9.582   4.866 -2.5247 -1.7797  0.6983
  420MOL0     H56661   3.370   9.574   4.627 -3.6745 -2.1081  1.7545
  420MOL0     H56662   3.503   9.489   4.704  1.3936  1.3945 -1.1652
  420MOL0     H56663   3.334   9.483   4.766 -0.1412 -1.2180  0.7304
  420MOL0     H56664   3.126  10.166   4.693 -0.9761  0.6420  0.4103
  420MOL0     H56665   2.918  10.266   4.693  0.9207 -0.0424  2.4296
  420MOL0     H56666   2.696  10.309   4.699 -1.0561  0.3180  0.5546
  420MOL0     H56667   2.619  10.230   4.564  0.4643  0.5778 -0.5338
  420MOL0     H56668   2.415  10.173   4.718  0.8532  0.2648 -2.7336
  420MOL0     H56669   2.500  10.257   4.853  0.6991 -0.4748 -0.8835
  420MOL0     H56670   2.327  10.342   4.620 -0.2235 -0.2757 -0.1344
  420MOL0     H56671   2.471  10.447   4.630  3.7736 -2.9660  0.4997
  420MOL0     H56672   2.306  10.396   4.884 -0.9327  0.2354  0.5043
  420MOL0     H56673   2.432  10.503   4.844 -0.3273 -0.2253 -0.5136
  420MOL0     H56674   2.191  10.576   4.852 -1.4349  0.5204 -0.2451
  420MOL0     H56675   2.154  10.481   4.700  1.2415 -0.5282 -0.7583
  420MOL0     H56676   2.275  10.681   4.567  1.9728 -0.1152  0.0143
  420MOL0     H56677   2.176  10.741   4.693  0.4501  0.7634 -1.2352
  420MOL0     H56678   2.483  10.750   4.680 -0.7892 -0.7550 -0.6233
  420MOL0     H56679   2.419  10.705   4.841 -0.3259 -1.6634 -0.2915
  420MOL0     H56680   2.308  10.907   4.877 -1.7598 -0.1088 -1.6634
  420MOL0     H56681   2.308  10.939   4.707  2.0717  0.8181 -1.3554
  420MOL0     H56682   2.732   9.884   4.774 -0.0124  0.3869 -0.8014
  420MOL0     H56683   2.961   9.777   4.752  0.6250  0.3950  0.4162
  420MOL0     H56684   3.366   9.989   4.891  2.3902  1.5221 -0.0259
  420MOL0     H56685   3.566   9.990   4.984 -1.2219 -0.4399  0.2960
  420MOL0     H56686   3.860   9.308   6.129  1.9663  0.6723  0.3169
  420MOL0     H56687   3.622   9.281   6.196 -1.4560 -2.2062 -0.3649
  420MOL0     H56688   3.294   8.846   6.491 -0.6449 -0.6356  1.4258
  420MOL0     H56689   3.046   8.866   6.515  0.3172  1.0476 -2.5950
  420MOL0     H56690   2.735   9.023   6.489  0.7626  2.3584 -0.4167
  420MOL0     H56691   2.856   8.896   6.522  0.6108 -0.0995 -2.4419
  420MOL0     H56692   2.859   8.973   6.758  1.7443  1.8141 -2.7710
  420MOL0     H56693   2.709   8.894   6.706  0.7437 -0.2012  0.6281
  420MOL0     H56694   2.594   9.117   6.669 -0.0410  1.2487 -1.0009
  420MOL0     H56695   2.740   9.199   6.727 -0.2199  0.3221 -1.5284
  420MOL0     H56696   2.575   9.018   6.891 -0.0190  0.0165  2.4952
  420MOL0     H56697   2.570   9.194   6.903 -1.2617 -0.8051  0.0922
  420MOL0     H56698   2.938   9.092   7.096  2.1724  0.9358 -1.2335
  420MOL0     H56699   3.084   9.296   6.490  4.0625  1.8058 -1.9545
  420MOL0     H56700   3.326   9.274   6.466 -1.0481  1.7175 -3.3799
  421MOL0     O56701   0.874   8.835   6.978 -0.3122  0.0004  0.4974
  421MOL0     C56702   0.937   8.744   7.040 -0.0445  0.2307  0.3993
  421MOL0     O56703   0.882   8.642   7.114 -0.5962  0.7571  0.5149
  421MOL0     C56704   0.743   8.631   7.108 -0.7302  0.4551  0.1390
  421MOL0     C56705   0.678   8.569   7.003  0.6705  0.2080  0.2159
  421MOL0     C56706   0.536   8.557   7.008 -0.2989  0.8283  0.2949
  421MOL0     C56707   0.470   8.605   7.108  0.2125  0.3569  0.0485
  421MOL0     O56708   0.333   8.608   7.112 -0.0566 -0.3459 -0.9125
  421MOL0     C56709   0.266   8.502   7.186  0.1469 -0.0610  0.5969
  421MOL0     C56710   0.113   8.524   7.163 -0.6479  0.3405 -0.0368
  421MOL0     C56711   0.027   8.430   7.260  0.2120 -0.0568  0.1380
  421MOL0     C56712  -0.113   8.485   7.269  0.5707  0.0480  0.1994
  421MOL0     C56713  -0.201   8.454   7.392  0.2341  1.0731  0.2184
  421MOL0     C56714  -0.337   8.521   7.384 -0.3312  0.0618 -0.4237
  421MOL0     C56715  -0.410   8.493   7.518  0.5900 -0.2223  0.5323
  421MOL0     C56716  -0.532   8.589   7.518  0.1229  0.5939 -0.1238
  421MOL0     N56717  -0.631   8.562   7.413 -0.5682 -0.0803 -0.2619
  421MOL0     C56718  -0.668   8.435   7.374  0.1223  0.0782  0.1642
  421MOL0     C56719  -0.763   8.454   7.281 -0.0080  0.1841  1.0902
  421MOL0     C56720  -0.844   8.348   7.202 -0.5029  0.9169 -0.0025
  421MOL0     C56721  -0.994   8.368   7.195  0.0438 -0.4605 -1.1252
  421MOL0     C56722  -1.065   8.305   7.323  0.1713 -0.2695  0.6721
  421MOL0     C56723  -1.219   8.308   7.318 -0.0096 -0.0541  0.9027
  421MOL0     O56724  -1.252   8.243   7.192  0.3050  0.3358  0.5451
  421MOL0     C56725  -1.372   8.181   7.178  0.0966  0.5933  0.2555
  421MOL0     C56726  -1.367   8.079   7.078 -0.4956 -0.5919  0.2454
  421MOL0     C56727  -1.474   8.000   7.045 -0.7897 -1.1523  0.8822
  421MOL0     C56728  -1.459   7.904   6.925  0.3706  0.1534 -0.1573
  421MOL0     C56729  -1.592   8.011   7.118  0.3019 -0.4413  0.0010
  421MOL0     C56730  -1.713   7.917   7.106  0.3583 -0.7134 -0.8072
  421MOL0     O56731  -1.829   7.965   7.169  0.8672  0.5643 -0.0181
  421MOL0     C56732  -1.950   7.904   7.135  0.3344 -1.0366  1.0227
  421MOL0     C56733  -1.973   7.777   7.190  0.2204 -0.1989  0.5516
  421MOL0     C56734  -2.088   7.709   7.167  0.4737 -0.5007 -0.1211
  421MOL0     C56735  -2.185   7.764   7.084 -0.1263  1.3664  0.1423
  421MOL0     O56736  -2.309   7.688   7.069  0.6902  0.3231  0.0335
  421MOL0     C56737  -2.439   7.760   7.079  0.2372  0.2012 -0.0229
  421MOL0     C56738  -2.521   7.735   6.952  0.2543 -0.0683  0.2709
  421MOL0     C56739  -2.480   7.811   6.830 -0.9352  0.4699 -0.1569
  421MOL0     C56740  -2.507   7.760   6.682  0.3818  0.2340 -0.5120
  421MOL0     C56741  -2.649   7.725   6.651  0.3207  0.6512 -0.5335
  421MOL0     C56742  -2.672   7.739   6.499  0.2594  0.2823 -0.3930
  421MOL0     C56743  -2.818   7.715   6.452 -0.0494 -0.6052 -0.8392
  421MOL0     C56744  -2.864   7.762   6.318  0.0501 -0.0842  0.2401
  421MOL0    Cl56745  -2.799   7.928   6.275  0.1547  0.4415 -0.0436
  421MOL0     C56746  -2.162   7.884   7.018  0.1245 -0.8280  0.8780
  421MOL0     C56747  -2.040   7.955   7.038  0.5295 -0.4761  0.0685
  421MOL0     O56748  -1.707   7.826   7.021  1.1447 -0.1976 -0.5186
  421MOL0     C56749  -1.606   8.114   7.217  0.1545 -0.3028  0.2593
  421MOL0     C56750  -1.494   8.194   7.250 -0.0729  0.3583 -0.0120
  421MOL0     N56751  -0.784   8.593   7.268 -0.6030 -0.3955 -0.5992
  421MOL0     N56752  -0.701   8.652   7.350 -0.7480 -0.6292  0.4126
  421MOL0     C56753   0.534   8.644   7.224  0.0016  0.0695 -0.3891
  421MOL0     C56754   0.668   8.666   7.217  0.4155 -0.8068 -0.1930
  421MOL0     C56755   1.087   8.753   7.050  0.2905 -0.1008  1.2325
  421MOL0     C56756   1.156   8.873   7.019 -0.0552  0.4306  0.2838
  421MOL0     C56757   1.290   8.886   7.029 -0.1121  0.6066 -0.8078
  421MOL0     C56758   1.365   8.781   7.090  0.1713  0.1031 -1.0225
  421MOL0     O56759   1.493   8.812   7.131 -0.4313 -0.6023  0.0215
  421MOL0     C56760   1.592   8.717   7.140 -1.0360  1.2503 -0.3260
  421MOL0     C56761   1.697   8.770   7.239 -0.1255  0.1112  0.1693
  421MOL0     C56762   1.816   8.684   7.267 -0.8205 -0.1298 -0.2999
  421MOL0     C56763   1.898   8.657   7.149 -0.4833 -0.0435  0.5682
  421MOL0     C56764   2.029   8.614   7.182  0.3248 -0.3288 -0.4219
  421MOL0     C56765   2.141   8.578   7.179 -0.1126 -0.7906 -0.1915
  421MOL0     C56766   1.300   8.658   7.112  0.6151  0.0238 -0.6787
  421MOL0     C56767   1.160   8.645   7.094  0.6622 -0.3786 -0.2369
  421MOL0     H56768   0.733   8.544   6.913 -2.0453 -0.2972 -1.3900
  421MOL0     H56769   0.486   8.535   6.914  0.3973  0.0279  0.0968
  421MOL0     H56770   0.293   8.409   7.135  0.5348  0.2962  0.1405
  421MOL0     H56771   0.297   8.506   7.291  1.5368  0.5305  0.1965
  421MOL0     H56772   0.098   8.631   7.179  0.5153  0.3964  0.8084
  421MOL0     H56773   0.089   8.504   7.058  0.1475  1.4626 -0.4538
  421MOL0     H56774   0.006   8.333   7.213  0.5223  1.1780 -2.7804
  421MOL0     H56775   0.072   8.425   7.360 -1.2277 -2.9494  0.7515
  421MOL0     H56776  -0.105   8.594   7.275 -0.4074  0.0844  1.0530
  421MOL0     H56777  -0.164   8.462   7.175 -1.1196 -0.1210  1.1207
  421MOL0     H56778  -0.218   8.346   7.400  2.8025  0.7502  3.1760
  421MOL0     H56779  -0.144   8.481   7.481  1.7679  3.9277 -1.4945
  421MOL0     H56780  -0.328   8.628   7.362 -2.1163  0.5241  0.8656
  421MOL0     H56781  -0.385   8.482   7.295  3.8998 -0.9986 -2.5286
  421MOL0     H56782  -0.440   8.389   7.531 -4.5457  1.1211  1.3579
  421MOL0     H56783  -0.346   8.521   7.603 -1.6161  0.3031  2.1018
  421MOL0     H56784  -0.504   8.692   7.493 -0.7390  0.6360 -0.9667
  421MOL0     H56785  -0.584   8.591   7.615  1.4192  1.9904  0.5870
  421MOL0     H56786  -0.651   8.338   7.421 -0.3602  0.0260  0.2310
  421MOL0     H56787  -0.804   8.330   7.102 -0.6433  4.3171 -0.7830
  421MOL0     H56788  -0.820   8.253   7.251  1.1745  1.4687  0.3224
  421MOL0     H56789  -1.020   8.308   7.107  1.4173 -1.5234 -0.8507
  421MOL0     H56790  -1.019   8.474   7.187 -0.0461 -0.2828  1.0276
  421MOL0     H56791  -1.033   8.377   7.399 -2.3127 -0.2196  1.7795
  421MOL0     H56792  -1.029   8.206   7.355  1.4778  0.7465  2.5318
  421MOL0     H56793  -1.262   8.408   7.325 -0.7917 -0.1931 -1.1686
  421MOL0     H56794  -1.255   8.247   7.401  1.4536  0.6451  2.0913
  421MOL0     H56795  -1.271   8.060   7.032 -0.0671  2.5583 -0.3920
  421MOL0     H56796  -1.365   7.917   6.871  0.5659  1.0882  0.3879
  421MOL0     H56797  -1.451   7.799   6.955  0.6782 -0.0987 -1.0883
  421MOL0     H56798  -1.536   7.901   6.847 -0.7769 -2.8365  0.9455
  421MOL0     H56799  -1.905   7.735   7.263  1.8412 -1.8961 -1.7701
  421MOL0     H56800  -2.121   7.618   7.217 -2.2437 -0.5597 -1.7852
  421MOL0     H56801  -2.486   7.714   7.167  0.0780 -2.5096 -1.4261
  421MOL0     H56802  -2.418   7.867   7.084 -0.3528  0.4051 -1.6293
  421MOL0     H56803  -2.533   7.627   6.938  0.8039 -0.3115  1.4660
  421MOL0     H56804  -2.626   7.759   6.969 -0.3570 -1.7960 -0.8319
  421MOL0     H56805  -2.371   7.813   6.843 -0.7883 -1.2650 -0.8343
  421MOL0     H56806  -2.526   7.910   6.828  0.9419  1.4390 -2.7088
  421MOL0     H56807  -2.468   7.838   6.617 -0.8754  0.1426 -1.4104
  421MOL0     H56808  -2.434   7.682   6.656 -1.5345 -0.8252 -3.1301
  421MOL0     H56809  -2.720   7.786   6.708 -0.1923 -2.1426  2.0721
  421MOL0     H56810  -2.675   7.625   6.687 -1.3901 -0.2906 -3.9684
  421MOL0     H56811  -2.644   7.837   6.461 -0.7019  0.6053 -0.3058
  421MOL0     H56812  -2.607   7.669   6.446 -0.1981 -0.0923 -0.4740
  421MOL0     H56813  -2.878   7.776   6.521  1.2468  0.6664 -0.7927
  421MOL0     H56814  -2.848   7.610   6.466  0.7546 -1.0047 -2.0036
  421MOL0     H56815  -2.971   7.784   6.320  0.5366  3.1751 -1.8364
  421MOL0     H56816  -2.843   7.689   6.239 -2.0179  0.3561 -0.8121
  421MOL0     H56817  -2.232   7.935   6.952 -0.6622 -0.9509  1.6017
  421MOL0     H56818  -2.024   8.049   6.986 -1.9891  0.6874  1.2453
  421MOL0     H56819  -1.700   8.131   7.269 -0.8513 -0.4064 -1.4296
  421MOL0     H56820  -1.502   8.269   7.328  2.8532  0.9244 -0.1276
  421MOL0     H56821   0.475   8.674   7.310 -1.1102  1.3280 -1.5340
  421MOL0     H56822   0.719   8.705   7.305 -0.1749  0.0756 -0.2392
  421MOL0     H56823   1.097   8.957   6.981  2.5925  1.4125 -2.0322
  421MOL0     H56824   1.338   8.977   6.994  0.1190  0.6743 -0.3201
  421MOL0     H56825   1.554   8.619   7.171  0.6985  0.8785  0.7074
  421MOL0     H56826   1.649   8.694   7.049  0.5618  1.0721  0.6924
  421MOL0     H56827   1.641   8.783   7.332  1.0718  2.2876  0.6485
  421MOL0     H56828   1.723   8.873   7.213  0.6764 -0.6237 -2.2447
  421MOL0     H56829   1.789   8.589   7.314 -0.7081  0.6667  1.4652
  421MOL0     H56830   1.875   8.740   7.339  1.3616 -0.7649 -1.5093
  421MOL0     H56831   1.904   8.752   7.094  1.8333 -0.0044  0.7765
  421MOL0     H56832   1.843   8.583   7.090  3.0221 -1.1755 -1.6225
  421MOL0     H56833   2.243   8.546   7.189  1.0084  1.1191 -3.7055
  421MOL0     H56834   1.353   8.566   7.135 -1.2303 -0.8836  0.0894
  421MOL0     H56835   1.118   8.549   7.120 -0.2283 -0.0733 -0.5068
  422MOL0     O56836   3.395   9.426  10.269 -0.5286  0.0610 -0.8047
  422MOL0     C56837   3.354   9.469  10.157  0.6917  0.8023 -0.4790
  422MOL0     O56838   3.227   9.521  10.132 -0.2155 -0.3476 -0.1643
  422MOL0     C56839   3.158   9.538  10.245 -0.5661 -0.5359 -1.7590
  422MOL0     C56840   3.185   9.656  10.325 -0.3103 -0.0816 -0.4588
  422MOL0     C56841   3.131   9.670  10.453  0.2248  0.0536 -0.2945
  422MOL0     C56842   3.033   9.573  10.491 -0.4273 -0.0169  0.2656
  422MOL0     O56843   2.967   9.577  10.611  0.1569  0.1952  0.3422
  422MOL0     C56844   3.038   9.643  10.723 -0.4831 -0.3018 -0.1275
  422MOL0     C56845   2.962   9.627  10.851 -0.5507 -0.5546 -0.3609
  422MOL0     C56846   3.049   9.685  10.960 -0.2460 -0.4657 -0.5185
  422MOL0     C56847   2.991   9.655  11.098 -0.3716  0.1634  0.2850
  422MOL0     C56848   3.046   9.519  11.151  0.7084 -0.3308 -0.5192
  422MOL0     C56849   3.012   9.489  11.298 -0.1908  0.7296  0.2747
  422MOL0     C56850   3.108   9.382  11.366  0.0602  0.1973  1.0913
  422MOL0     C56851   3.107   9.252  11.296 -0.8234 -0.9825  0.4832
  422MOL0     N56852   2.975   9.195  11.267  0.0508  0.1338  0.1315
  422MOL0     C56853   2.911   9.177  11.145  1.0204 -0.0579 -0.1948
  422MOL0     C56854   2.793   9.119  11.177  0.1990  0.1044 -0.1171
  422MOL0     C56855   2.692   9.068  11.065  0.2085 -0.3575  0.4901
  422MOL0     C56856   2.542   9.092  11.108 -0.6121 -0.7574 -1.2887
  422MOL0     C56857   2.451   8.996  11.037 -0.7387 -0.1908  0.5036
  422MOL0     C56858   2.457   9.022  10.886 -0.0913  0.0211  0.4076
  422MOL0     O56859   2.351   8.959  10.803  0.1996 -0.3748  0.2382
  422MOL0     C56860   2.231   9.007  10.803 -0.3449 -0.7878 -0.0564
  422MOL0     C56861   2.134   8.914  10.759  0.2314  0.0713  0.7442
  422MOL0     C56862   1.997   8.944  10.741  0.0897  0.3187 -0.5840
  422MOL0     C56863   1.892   8.844  10.699 -0.5955 -0.4908 -0.0660
  422MOL0     C56864   1.957   9.077  10.784  0.3211  1.2023 -0.2033
  422MOL0     C56865   1.815   9.128  10.775 -0.0974  0.0845  0.5742
  422MOL0     O56866   1.779   9.211  10.871  0.2990  0.7197 -0.1453
  422MOL0     C56867   1.649   9.253  10.885  0.6142 -0.0784  0.3966
  422MOL0     C56868   1.571   9.190  10.987  0.5037 -0.2487 -0.2360
  422MOL0     C56869   1.432   9.215  11.005 -0.5787 -0.8909 -0.5732
  422MOL0     C56870   1.380   9.323  10.930  0.2514 -0.0746 -0.0371
  422MOL0     O56871   1.253   9.354  10.956  0.2451  0.5693  0.0370
  422MOL0     C56872   1.178   9.431  10.859  0.3872  0.7608 -0.9863
  422MOL0     C56873   1.026   9.427  10.891  0.7278 -0.2600  0.5016
  422MOL0     C56874   0.986   9.282  10.884  0.1052  0.1841  0.8577
  422MOL0     C56875   0.851   9.270  10.946 -0.2293 -0.0773  0.7848
  422MOL0     C56876   0.808   9.122  10.952 -0.4610 -0.3652 -0.6274
  422MOL0     C56877   0.694   9.100  11.048  0.0006  1.5066  1.1648
  422MOL0     C56878   0.578   9.187  11.002  0.7098  0.7963 -0.1651
  422MOL0     C56879   0.444   9.132  11.044 -1.2691 -0.5455 -0.2624
  422MOL0    Cl56880   0.338   9.272  11.033  0.2721 -0.4194 -0.0669
  422MOL0     C56881   1.450   9.384  10.827 -0.1483  0.0690  0.6056
  422MOL0     C56882   1.587   9.344  10.804 -0.5020  0.2311  0.8618
  422MOL0     O56883   1.739   9.092  10.681 -0.0592  0.1208 -0.6884
  422MOL0     C56884   2.055   9.167  10.825 -0.2413 -0.4926  0.0486
  422MOL0     C56885   2.187   9.135  10.845 -0.2608  0.6582 -0.4274
  422MOL0     N56886   2.786   9.101  11.312 -0.9485  0.3581 -0.2026
  422MOL0     N56887   2.888   9.158  11.363 -0.1615 -0.6375  0.1255
  422MOL0     C56888   2.998   9.470  10.404 -0.2892 -0.3493 -0.2013
  422MOL0     C56889   3.064   9.452  10.281 -0.7620 -0.4907 -0.2447
  422MOL0     C56890   3.440   9.440  10.035  0.1976  0.4390 -0.0725
  422MOL0     C56891   3.423   9.504   9.915 -0.4971 -0.2260 -0.9533
  422MOL0     C56892   3.513   9.485   9.804  0.0765 -0.6894 -0.8518
  422MOL0     C56893   3.621   9.409   9.816 -0.2512  0.5434  0.5501
  422MOL0     O56894   3.697   9.387   9.704  0.4653 -0.2998  0.5792
  422MOL0     C56895   3.756   9.257   9.686 -0.0654 -0.5619 -0.8249
  422MOL0     C56896   3.759   9.215   9.538 -0.2209 -0.3772  1.5143
  422MOL0     C56897   3.866   9.311   9.460 -0.2240  1.0755 -0.6720
  422MOL0     C56898   3.893   9.256   9.315  0.2472 -0.3266 -0.6513
  422MOL0     C56899   3.765   9.237   9.238 -0.2447 -0.0043  0.2821
  422MOL0     C56900   3.666   9.218   9.172  0.1604  0.4060 -0.4109
  422MOL0     C56901   3.647   9.343   9.944 -0.0543  0.3214  0.3240
  422MOL0     C56902   3.555   9.361  10.048  0.2310  0.1621 -0.1314
  422MOL0     H56903   3.261   9.731  10.307  2.0010 -1.4210  2.8427
  422MOL0     H56904   3.168   9.747  10.520  0.8533  0.5946 -1.2360
  422MOL0     H56905   3.142   9.609  10.718 -0.3772 -0.1850  1.1305
  422MOL0     H56906   3.041   9.752  10.707  2.0820 -0.1843  0.6870
  422MOL0     H56907   2.868   9.680  10.837 -2.2920 -2.7902  1.7449
  422MOL0     H56908   2.943   9.523  10.879 -1.0423 -0.2814  0.3439
  422MOL0     H56909   3.149   9.639  10.954  0.6186  1.4320 -1.6073
  422MOL0     H56910   3.057   9.793  10.948 -1.9441 -0.4397 -1.8148
  422MOL0     H56911   3.038   9.733  11.159  3.1300 -1.7426  0.2678
  422MOL0     H56912   2.882   9.662  11.105 -0.4324 -1.1218  0.9805
  422MOL0     H56913   3.017   9.433  11.090  2.3177 -0.8323 -0.6235
  422MOL0     H56914   3.155   9.517  11.143  1.0136  2.0048  1.8033
  422MOL0     H56915   3.015   9.579  11.361 -1.4728 -1.9774  4.6139
  422MOL0     H56916   2.907   9.462  11.300 -0.7194  1.1992 -5.3633
  422MOL0     H56917   3.212   9.417  11.362 -0.4366  1.6388 -0.4203
  422MOL0     H56918   3.074   9.370  11.469 -2.3946  1.2638  0.4850
  422MOL0     H56919   3.151   9.177  11.362  0.7568  0.8006  1.5834
  422MOL0     H56920   3.172   9.251  11.208 -0.9161 -3.1071  0.3795
  422MOL0     H56921   2.945   9.208  11.047  1.0753 -0.5866 -0.3466
  422MOL0     H56922   2.712   9.119  10.970 -0.5530  3.3994  2.1798
  422MOL0     H56923   2.697   8.958  11.060 -0.3884 -0.3903  0.5915
  422MOL0     H56924   2.529   9.199  11.089  0.7732 -1.0617 -4.6974
  422MOL0     H56925   2.528   9.066  11.213 -0.1124 -1.2974 -1.3522
  422MOL0     H56926   2.347   9.004  11.070 -1.6653 -1.4221 -1.8762
  422MOL0     H56927   2.482   8.892  11.053 -2.7358 -0.6810  1.5736
  422MOL0     H56928   2.553   8.983  10.851 -0.4797 -1.3297  0.7702
  422MOL0     H56929   2.456   9.128  10.859  1.7203  0.0235  0.2621
  422MOL0     H56930   2.179   8.819  10.729 -0.4158  0.5952 -2.2470
  422MOL0     H56931   1.925   8.740  10.706  1.0022 -0.0725 -0.7565
  422MOL0     H56932   1.811   8.860  10.770 -1.0925 -0.3121 -0.6687
  422MOL0     H56933   1.852   8.868  10.601 -2.5099  2.6133  1.3236
  422MOL0     H56934   1.637   9.131  11.048 -0.2988 -1.3095 -0.3588
  422MOL0     H56935   1.376   9.169  11.087 -0.1868  1.9117  1.3976
  422MOL0     H56936   1.220   9.532  10.867  1.3417  0.2678  0.8830
  422MOL0     H56937   1.199   9.401  10.756  1.5803 -1.3696 -0.1911
  422MOL0     H56938   1.010   9.477  10.987  0.6251  1.9627 -0.6008
  422MOL0     H56939   0.962   9.486  10.824 -1.7959  2.4690  4.8279
  422MOL0     H56940   1.059   9.224  10.942  1.7041  2.3158  1.1329
  422MOL0     H56941   0.982   9.251  10.779  2.3590  1.3252  0.3600
  422MOL0     H56942   0.857   9.303  11.051 -0.6249  2.0462  0.1948
  422MOL0     H56943   0.780   9.332  10.890  0.3026  0.0048  0.2001
  422MOL0     H56944   0.892   9.056  10.976 -2.2344 -2.2682  0.6583
  422MOL0     H56945   0.772   9.088  10.855 -2.8628 -0.4188  0.2225
  422MOL0     H56946   0.673   8.993  11.056 -1.8105  1.7523  0.2357
  422MOL0     H56947   0.730   9.125  11.148  1.7451  1.2263  0.6433
  422MOL0     H56948   0.578   9.195  10.893 -0.3371  0.3272 -0.2109
  422MOL0     H56949   0.589   9.291  11.035 -1.7992  0.6787  1.2745
  422MOL0     H56950   0.451   9.103  11.150 -0.9308  0.8262  0.1107
  422MOL0     H56951   0.406   9.047  10.988  2.0522 -1.2646 -1.6901
  422MOL0     H56952   1.414   9.462  10.761  0.3347  1.2926  1.7354
  422MOL0     H56953   1.642   9.389  10.722 -0.9396  1.4880  1.2455
  422MOL0     H56954   2.031   9.269  10.855 -0.4002 -1.0213  1.8150
  422MOL0     H56955   2.251   9.215  10.881  3.9099 -3.1531  1.5710
  422MOL0     H56956   2.927   9.396  10.438 -1.0890  0.5485  0.1288
  422MOL0     H56957   3.050   9.359  10.226 -0.6909 -1.4419  1.2742
  422MOL0     H56958   3.342   9.575   9.902 -1.5505 -1.5030 -1.5267
  422MOL0     H56959   3.478   9.513   9.705 -1.7756 -0.6182 -0.2198
  422MOL0     H56960   3.853   9.270   9.734 -0.6191  0.7811  0.0088
  422MOL0     H56961   3.691   9.192   9.745  1.9589 -1.0663  0.9686
  422MOL0     H56962   3.665   9.243   9.489 -0.4766 -2.7433  0.5314
  422MOL0     H56963   3.762   9.108   9.518 -3.4356 -0.3836  0.4849
  422MOL0     H56964   3.959   9.309   9.517 -0.5470  0.0505 -0.1540
  422MOL0     H56965   3.834   9.415   9.459  0.0165  1.2304  1.8339
  422MOL0     H56966   3.950   9.163   9.324 -0.4249 -0.8607 -1.7021
  422MOL0     H56967   3.950   9.336   9.267  3.0605 -1.7601  0.0431
  422MOL0     H56968   3.570   9.215   9.124 -1.0540  0.5243  1.8509
  422MOL0     H56969   3.722   9.265   9.955 -1.7159 -1.4926 -0.6115
  422MOL0     H56970   3.590   9.318  10.142 -1.5875 -1.5812 -0.1867
  423MOL0     O56971   0.445   9.453   3.680 -0.5592  0.7681  0.1716
  423MOL0     C56972   0.496   9.562   3.668  0.9760 -0.1089 -0.2091
  423MOL0     O56973   0.423   9.685   3.675  0.6633 -0.2666 -0.6190
  423MOL0     C56974   0.281   9.687   3.677 -0.2958 -0.0115  0.4834
  423MOL0     C56975   0.191   9.595   3.737  0.0054  0.5436  0.3892
  423MOL0     C56976   0.048   9.614   3.714 -0.2010  0.9500 -0.2846
  423MOL0     C56977  -0.001   9.712   3.632  0.9645 -0.4069  0.4958
  423MOL0     O56978  -0.132   9.744   3.610  0.0428 -0.1885 -0.3074
  423MOL0     C56979  -0.230   9.674   3.693 -0.1930  0.0389 -0.3531
  423MOL0     C56980  -0.361   9.737   3.657 -0.0170 -0.3649 -0.4874
  423MOL0     C56981  -0.489   9.676   3.732 -0.2536  0.7229  0.4384
  423MOL0     C56982  -0.616   9.764   3.722  0.6456 -1.0423 -0.0013
  423MOL0     C56983  -0.597   9.896   3.803  0.4286 -0.4064 -0.9827
  423MOL0     C56984  -0.727   9.970   3.840  0.1025 -0.3318  0.2229
  423MOL0     C56985  -0.812   9.999   3.713 -0.1515  0.3571  0.7872
  423MOL0     C56986  -0.943  10.060   3.755 -0.4350 -0.3058  0.4474
  423MOL0     N56987  -1.031   9.982   3.836 -0.4228 -0.1852 -0.4669
  423MOL0     C56988  -1.125  10.039   3.915 -0.2723  0.1364 -0.3077
  423MOL0     C56989  -1.206   9.932   3.959 -0.2993  0.0201 -0.0523
  423MOL0     C56990  -1.306   9.937   4.074  1.1147  0.7207  0.2022
  423MOL0     C56991  -1.429   9.843   4.049  0.3484 -0.2523  0.3392
  423MOL0     C56992  -1.532   9.855   4.168  0.0390  0.0963  0.2106
  423MOL0     C56993  -1.596   9.993   4.201 -0.0171  0.9148  0.7037
  423MOL0     O56994  -1.723   9.977   4.268  0.1001  0.8081 -0.1625
  423MOL0     C56995  -1.792  10.090   4.315 -0.5792  0.7416  1.0322
  423MOL0     C56996  -1.932  10.077   4.306 -0.6936  0.5022  0.2494
  423MOL0     C56997  -2.014  10.178   4.367  0.5692 -0.0528 -0.3614
  423MOL0     C56998  -2.166  10.159   4.366 -0.5185 -0.1671  1.5223
  423MOL0     C56999  -1.951  10.285   4.445 -0.5826 -0.6269  0.0860
  423MOL0     C57000  -2.023  10.388   4.523 -0.2803 -0.3814 -0.2907
  423MOL0     O57001  -1.941  10.481   4.586  0.2378 -0.5599 -0.5170
  423MOL0     C57002  -1.996  10.580   4.658 -0.7256 -0.0274  0.3750
  423MOL0     C57003  -2.109  10.568   4.737  0.0104 -1.0662 -0.4657
  423MOL0     C57004  -2.135  10.677   4.824  0.1857 -0.2998 -0.3697
  423MOL0     C57005  -2.074  10.801   4.813 -0.0637  0.3474 -0.7812
  423MOL0     O57006  -2.105  10.913   4.889 -0.3601  0.4747  0.0508
  423MOL0     C57007  -2.249  10.936   4.924 -0.1010 -0.6838  0.5324
  423MOL0     C57008  -2.274  10.904   5.065 -0.6408  1.3658 -0.2625
  423MOL0     C57009  -2.415  10.917   5.111  0.8516 -0.2412 -0.2118
  423MOL0     C57010  -2.427  10.895   5.259 -0.1568 -0.2801  0.7310
  423MOL0     C57011  -2.578  10.901   5.304 -0.3678 -0.2559  0.2796
  423MOL0     C57012  -2.680  10.793   5.253 -0.8134  0.0550 -0.1948
  423MOL0     C57013  -2.766  10.731   5.359 -0.4629  0.2432  0.0091
  423MOL0     C57014  -2.874  10.636   5.303  0.5231 -0.9406  0.0484
  423MOL0    Cl57015  -3.007  10.701   5.215  0.2696 -0.2150 -0.5391
  423MOL0     C57016  -1.963  10.812   4.735 -0.3389 -0.0962 -0.4692
  423MOL0     C57017  -1.917  10.696   4.661 -0.4508 -0.8207  0.5408
  423MOL0     O57018  -2.138  10.409   4.492  0.1575  0.4156 -0.1704
  423MOL0     C57019  -1.808  10.284   4.459 -0.4156  0.9795  0.4709
  423MOL0     C57020  -1.732  10.192   4.386  0.2115 -0.1052  0.6536
  423MOL0     N57021  -1.153   9.816   3.913  0.2689  0.3114  0.0343
  423MOL0     N57022  -1.048   9.844   3.837  0.5482 -0.3293  0.2151
  423MOL0     C57023   0.093   9.797   3.572 -0.2908  0.5425 -0.1081
  423MOL0     C57024   0.230   9.778   3.593 -0.3247  0.1878  0.1523
  423MOL0     C57025   0.647   9.570   3.650  1.4516  0.1740 -0.4590
  423MOL0     C57026   0.722   9.456   3.627 -0.5644  0.5436 -0.5410
  423MOL0     C57027   0.868   9.466   3.615  0.4444 -0.0603 -0.2431
  423MOL0     C57028   0.936   9.586   3.618 -0.5967 -0.4545  0.1543
  423MOL0     O57029   1.074   9.580   3.602  0.1683 -0.2032 -0.4635
  423MOL0     C57030   1.155   9.694   3.563  0.1081  0.8128 -1.0957
  423MOL0     C57031   1.310   9.671   3.563  0.2796  0.1602  0.1673
  423MOL0     C57032   1.347   9.542   3.486  0.3209  0.4922 -0.1307
  423MOL0     C57033   1.502   9.522   3.489 -0.3608  0.5703  0.7651
  423MOL0     C57034   1.584   9.599   3.399 -0.0871  0.0969 -0.0716
  423MOL0     C57035   1.667   9.657   3.330  0.0360 -0.3139  1.0245
  423MOL0     C57036   0.858   9.704   3.623  0.6881  0.9249  0.2264
  423MOL0     C57037   0.712   9.691   3.643  0.0875 -0.1127 -0.0270
  423MOL0     H57038   0.212   9.511   3.803 -0.6992  2.2654  2.9403
  423MOL0     H57039  -0.015   9.536   3.757 -2.2983  1.8924 -1.4849
  423MOL0     H57040  -0.236   9.569   3.665 -2.1728  0.7990 -3.2822
  423MOL0     H57041  -0.209   9.688   3.800 -2.0722  0.2371  0.0421
  423MOL0     H57042  -0.358   9.843   3.681 -0.3516 -0.5450  0.3919
  423MOL0     H57043  -0.374   9.727   3.548 -0.7796 -1.6156 -0.3069
  423MOL0     H57044  -0.514   9.578   3.691  0.0789  1.3552 -1.4094
  423MOL0     H57045  -0.463   9.664   3.837 -0.7736 -2.5825  0.3076
  423MOL0     H57046  -0.638   9.781   3.617  2.2160  0.8439 -0.0757
  423MOL0     H57047  -0.704   9.710   3.760  0.0156  1.1238  1.8824
  423MOL0     H57048  -0.548   9.865   3.897  0.8976 -2.1076 -1.7482
  423MOL0     H57049  -0.534   9.966   3.748  0.3165  2.5471  2.2886
  423MOL0     H57050  -0.777   9.903   3.911  2.0745 -1.5154  0.5931
  423MOL0     H57051  -0.710  10.070   3.882 -0.2571  1.1734 -2.9742
  423MOL0     H57052  -0.755  10.060   3.643 -3.7603  2.6560 -0.4685
  423MOL0     H57053  -0.835   9.903   3.666 -2.3828 -0.0508  2.5049
  423MOL0     H57054  -1.000  10.099   3.670  1.8815  1.0136 -0.6267
  423MOL0     H57055  -0.905  10.144   3.814  3.5701 -2.3968  1.1912
  423MOL0     H57056  -1.130  10.144   3.944 -0.2725 -0.2849  1.3436
  423MOL0     H57057  -1.253   9.911   4.166  2.9850  1.3704 -0.6410
  423MOL0     H57058  -1.340  10.039   4.093  1.1346  1.1454 -1.7910
  423MOL0     H57059  -1.395   9.742   4.027  1.3180  0.9330 -4.9485
  423MOL0     H57060  -1.480   9.876   3.958  2.9067  1.3674 -0.6195
  423MOL0     H57061  -1.500   9.810   4.262  2.2204 -1.3439 -1.1222
  423MOL0     H57062  -1.612   9.784   4.143 -0.2889  0.5668 -0.0888
  423MOL0     H57063  -1.617  10.028   4.099  2.1844 -2.9523 -1.3107
  423MOL0     H57064  -1.536  10.067   4.255 -1.1465  2.0478  0.4672
  423MOL0     H57065  -1.970   9.993   4.249 -1.5230  0.2899  1.0899
  423MOL0     H57066  -2.181  10.074   4.298  2.1579 -0.2415  0.9000
  423MOL0     H57067  -2.212  10.148   4.464 -0.0804  0.4788  1.8085
  423MOL0     H57068  -2.215  10.245   4.319 -3.4572 -1.7040  1.5546
  423MOL0     H57069  -2.174  10.481   4.745 -2.3721  0.6858  0.2793
  423MOL0     H57070  -2.223  10.662   4.886  1.4507 -3.5784  0.8340
  423MOL0     H57071  -2.272  11.042   4.907  1.7416 -0.2812  0.3086
  423MOL0     H57072  -2.315  10.877   4.860 -0.2017  0.9399 -0.9431
  423MOL0     H57073  -2.242  10.803   5.094 -3.5866  0.8858  1.7336
  423MOL0     H57074  -2.215  10.975   5.123  1.5577 -1.8235  1.7190
  423MOL0     H57075  -2.478  10.840   5.065  0.7402  0.7720 -1.8109
  423MOL0     H57076  -2.450  11.019   5.092  0.2829 -0.3433  0.2476
  423MOL0     H57077  -2.397  10.793   5.283 -2.5412 -1.0643  0.6856
  423MOL0     H57078  -2.364  10.965   5.314  1.8995 -1.7331  0.3419
  423MOL0     H57079  -2.610  11.002   5.277  0.8330 -0.1786 -0.9312
  423MOL0     H57080  -2.565  10.891   5.412  1.5949 -0.6664  0.0452
  423MOL0     H57081  -2.736  10.840   5.173  1.6320  3.0771 -0.3040
  423MOL0     H57082  -2.619  10.719   5.199  0.1496 -0.1914  1.1659
  423MOL0     H57083  -2.807  10.813   5.419  2.1063  3.0890 -1.7907
  423MOL0     H57084  -2.697  10.672   5.421  1.0711  0.0466 -1.7946
  423MOL0     H57085  -2.918  10.587   5.390 -1.3871  1.3210  0.4436
  423MOL0     H57086  -2.825  10.570   5.231 -2.0822 -1.6854 -1.1515
  423MOL0     H57087  -1.911  10.906   4.749  1.1530 -0.6144 -2.1757
  423MOL0     H57088  -1.819  10.704   4.615 -0.1597 -2.0590  0.8992
  423MOL0     H57089  -1.753  10.350   4.525 -0.6359 -0.8034  2.5716
  423MOL0     H57090  -1.627  10.184   4.413  0.1303 -2.0780  0.5245
  423MOL0     H57091   0.066   9.880   3.508  1.4058  0.4241 -1.0241
  423MOL0     H57092   0.307   9.844   3.556 -1.5576  1.2139 -0.6317
  423MOL0     H57093   0.688   9.354   3.635  1.7779 -0.6224 -3.4377
  423MOL0     H57094   0.927   9.377   3.631  0.5697  0.4105  2.3310
  423MOL0     H57095   1.115   9.735   3.470 -2.0392  1.8072  0.1788
  423MOL0     H57096   1.144   9.778   3.633 -2.9810 -0.3656  0.0054
  423MOL0     H57097   1.346   9.647   3.664 -0.7471 -4.4684 -0.3116
  423MOL0     H57098   1.370   9.753   3.524  1.4227 -1.2147 -1.0469
  423MOL0     H57099   1.312   9.546   3.383  2.0024  0.7426 -0.7278
  423MOL0     H57100   1.308   9.454   3.538  0.2879  0.2321 -0.5878
  423MOL0     H57101   1.533   9.422   3.458  3.4445  2.1381 -1.3186
  423MOL0     H57102   1.532   9.560   3.587  1.2859 -0.8724  0.8598
  423MOL0     H57103   1.731   9.712   3.264 -0.4899 -0.5002  0.3426
  423MOL0     H57104   0.904   9.801   3.605 -0.0290  1.1913 -0.2009
  423MOL0     H57105   0.651   9.780   3.639 -0.5930 -0.5449  0.5865
  424MOL0     O57106   1.059  11.337   7.476 -0.5418  0.2463 -0.1979
  424MOL0     C57107   1.070  11.456   7.448  0.2101 -0.2644  0.1456
  424MOL0     O57108   0.988  11.560   7.491  0.4456  0.4134  0.0384
  424MOL0     C57109   0.880  11.516   7.568 -0.6262  0.5618  0.2523
  424MOL0     C57110   0.901  11.475   7.699  0.0619 -0.0181  0.4447
  424MOL0     C57111   0.801  11.445   7.785 -0.7284 -0.6772  0.0567
  424MOL0     C57112   0.668  11.453   7.739  0.0360  0.1984 -1.0051
  424MOL0     O57113   0.564  11.400   7.807  0.0794 -0.2116  0.0487
  424MOL0     C57114   0.576  11.371   7.949  0.9467  0.0858  0.4991
  424MOL0     C57115   0.449  11.408   8.026 -0.6250 -0.2512  0.4317
  424MOL0     C57116   0.327  11.341   7.974 -0.6257 -0.0633  0.5630
  424MOL0     C57117   0.242  11.303   8.098 -0.2203 -0.1805 -0.2520
  424MOL0     C57118   0.135  11.197   8.064  1.0269  0.1389 -0.2423
  424MOL0     C57119   0.033  11.233   7.959 -0.0455 -0.0512  0.9433
  424MOL0     C57120  -0.077  11.121   7.932  0.2776 -0.4382 -0.1887
  424MOL0     C57121  -0.156  11.142   7.799  1.6866 -0.4456 -0.0873
  424MOL0     N57122  -0.225  11.273   7.798  0.2977  0.3219 -0.3203
  424MOL0     C57123  -0.347  11.284   7.868  1.1595 -0.0393  0.5520
  424MOL0     C57124  -0.381  11.411   7.835 -0.7010  0.1793  0.7168
  424MOL0     C57125  -0.513  11.483   7.847 -0.4879  0.6596 -0.0987
  424MOL0     C57126  -0.589  11.471   7.717  0.1487  0.5872  0.5273
  424MOL0     C57127  -0.709  11.568   7.719  0.0107 -0.5203  0.0938
  424MOL0     C57128  -0.778  11.578   7.590  0.4439 -0.1251 -0.2033
  424MOL0     O57129  -0.868  11.462   7.574 -0.1647 -0.5479  0.0265
  424MOL0     C57130  -1.006  11.478   7.589 -0.4436 -0.1454 -0.2087
  424MOL0     C57131  -1.082  11.595   7.589  0.2157  0.9008  0.6010
  424MOL0     C57132  -1.222  11.597   7.614 -0.8175 -0.3518  0.3355
  424MOL0     C57133  -1.298  11.723   7.592  0.3582  0.2820  0.4469
  424MOL0     C57134  -1.280  11.467   7.629 -0.6003  0.6805 -0.9047
  424MOL0     C57135  -1.420  11.437   7.670 -0.1554 -0.0956  0.5084
  424MOL0     O57136  -1.490  11.543   7.713  0.6608  0.0972 -0.3853
  424MOL0     C57137  -1.623  11.522   7.693  0.3227 -0.3873 -0.5334
  424MOL0     C57138  -1.695  11.435   7.773 -0.2888 -0.1069 -0.3339
  424MOL0     C57139  -1.836  11.425   7.766  0.1576 -0.2045  0.4820
  424MOL0     C57140  -1.909  11.502   7.671 -0.1800  0.7369 -1.0552
  424MOL0     O57141  -2.045  11.499   7.669 -0.2301  0.0847  0.2195
  424MOL0     C57142  -2.104  11.470   7.538  0.8990 -0.6951 -1.0456
  424MOL0     C57143  -2.249  11.428   7.556  0.9296  0.2219 -0.6242
  424MOL0     C57144  -2.353  11.527   7.621 -0.0793  1.0849  0.6227
  424MOL0     C57145  -2.496  11.493   7.577 -0.3152  0.0933  0.8068
  424MOL0     C57146  -2.581  11.617   7.565  0.6829  0.5585 -0.8613
  424MOL0     C57147  -2.645  11.661   7.697  0.4909  0.4518  0.7392
  424MOL0     C57148  -2.766  11.769   7.696  0.8224  1.2148  0.1650
  424MOL0     C57149  -2.832  11.754   7.842 -0.4995 -0.0142 -0.4485
  424MOL0    Cl57150  -2.927  11.894   7.869 -0.4206  0.0401  0.0299
  424MOL0     C57151  -1.832  11.576   7.577  0.3520 -0.4547 -0.5282
  424MOL0     C57152  -1.695  11.594   7.592  0.7940  0.0070 -0.8440
  424MOL0     O57153  -1.461  11.321   7.660 -0.0062  0.0703  0.3567
  424MOL0     C57154  -1.203  11.351   7.621  0.0415  0.5792  0.4839
  424MOL0     C57155  -1.073  11.356   7.602  0.9297 -0.0373  0.4186
  424MOL0     N57156  -0.277  11.475   7.768 -0.0038 -0.8719  0.7311
  424MOL0     N57157  -0.190  11.388   7.742 -0.5417  0.1074  0.6858
  424MOL0     C57158   0.644  11.496   7.600  0.5817  0.3062 -0.0921
  424MOL0     C57159   0.755  11.535   7.521  0.1503 -0.1906 -0.5433
  424MOL0     C57160   1.188  11.498   7.364  0.1353 -0.6411 -0.5733
  424MOL0     C57161   1.281  11.403   7.333 -0.2096  0.9493 -0.3234
  424MOL0     C57162   1.396  11.437   7.260  0.2381 -0.2425 -0.2687
  424MOL0     C57163   1.415  11.568   7.217  1.9683 -0.9376 -0.3015
  424MOL0     O57164   1.529  11.591   7.148 -0.4025  0.5326  0.3626
  424MOL0     C57165   1.639  11.653   7.219  0.6186 -0.3213 -0.2650
  424MOL0     C57166   1.729  11.562   7.308  0.1004  0.0641  0.0866
  424MOL0     C57167   1.798  11.453   7.224  0.0171 -0.1571  0.6081
  424MOL0     C57168   1.890  11.360   7.309 -0.8975 -1.1340  0.5116
  424MOL0     C57169   1.809  11.279   7.400  0.4576 -0.2948 -0.9300
  424MOL0     C57170   1.725  11.220   7.466  0.1495  0.8067 -0.2210
  424MOL0     C57171   1.321  11.666   7.246  0.2807 -0.0800  0.0115
  424MOL0     C57172   1.209  11.635   7.316  0.2047  0.8733 -0.4820
  424MOL0     H57173   1.004  11.452   7.725 -0.3602 -3.0749 -0.2126
  424MOL0     H57174   0.830  11.404   7.881 -0.2581 -1.3914 -0.3789
  424MOL0     H57175   0.596  11.264   7.959  0.9769  0.2880  4.0847
  424MOL0     H57176   0.660  11.424   7.995  1.9856 -1.3401  0.3093
  424MOL0     H57177   0.466  11.391   8.133 -1.1362  2.2292  0.9803
  424MOL0     H57178   0.441  11.517   8.020 -0.8257 -0.3592 -2.4727
  424MOL0     H57179   0.276  11.414   7.911  0.4339  0.2109  0.0140
  424MOL0     H57180   0.351  11.251   7.917  1.0803 -0.5773  1.9901
  424MOL0     H57181   0.300  11.256   8.179  0.1950 -0.4137 -0.6792
  424MOL0     H57182   0.191  11.394   8.132 -1.5277 -0.3380 -1.6868
  424MOL0     H57183   0.182  11.104   8.031  2.0388 -0.2786  2.1976
  424MOL0     H57184   0.094  11.174   8.163  1.1836  0.6091 -0.0634
  424MOL0     H57185  -0.025  11.325   7.973 -1.7023 -0.9816  0.5308
  424MOL0     H57186   0.088  11.243   7.865 -2.2958 -2.0720 -0.7157
  424MOL0     H57187  -0.032  11.021   7.928 -1.0623 -1.0225 -2.4103
  424MOL0     H57188  -0.140  11.121   8.021  2.6135  1.1488  1.5871
  424MOL0     H57189  -0.220  11.055   7.782  1.6203 -1.1693  3.2144
  424MOL0     H57190  -0.081  11.160   7.721  0.8465  2.8595 -0.2813
  424MOL0     H57191  -0.418  11.230   7.929  2.3549  0.2419  2.2623
  424MOL0     H57192  -0.568  11.447   7.934  0.9035  1.1544  1.0185
  424MOL0     H57193  -0.497  11.589   7.864 -1.6117  1.4296 -3.0734
  424MOL0     H57194  -0.636  11.376   7.690 -2.2659  2.2757 -1.7016
  424MOL0     H57195  -0.518  11.501   7.640  1.5408 -0.3041  1.4132
  424MOL0     H57196  -0.678  11.667   7.755  1.4593 -1.4008  1.4146
  424MOL0     H57197  -0.787  11.533   7.787 -1.9723 -1.3701 -2.4805
  424MOL0     H57198  -0.696  11.572   7.518  0.7192  3.5779 -0.3668
  424MOL0     H57199  -0.824  11.677   7.594 -2.7608 -1.5142  0.3980
  424MOL0     H57200  -1.035  11.692   7.575 -1.6286  1.6952 -0.4837
  424MOL0     H57201  -1.235  11.809   7.567 -0.0368  0.4307 -0.0451
  424MOL0     H57202  -1.358  11.705   7.502  0.9173 -1.9860  0.4765
  424MOL0     H57203  -1.366  11.742   7.676 -1.4495 -1.6182 -0.4898
  424MOL0     H57204  -1.644  11.384   7.854  0.7564  1.4451  0.0343
  424MOL0     H57205  -1.898  11.364   7.831 -1.2012 -0.0199 -0.5965
  424MOL0     H57206  -2.101  11.563   7.481  2.3830  0.2128  0.4217
  424MOL0     H57207  -2.048  11.393   7.484 -0.6485 -1.0070 -2.2705
  424MOL0     H57208  -2.287  11.395   7.459 -2.4195  0.1387  0.5978
  424MOL0     H57209  -2.256  11.344   7.626 -3.0577  2.2740  1.8147
  424MOL0     H57210  -2.318  11.626   7.588  0.3578  1.0577  1.0067
  424MOL0     H57211  -2.348  11.520   7.730 -0.6106 -2.0137  0.5253
  424MOL0     H57212  -2.486  11.443   7.480 -0.8758  1.5426 -0.0476
  424MOL0     H57213  -2.533  11.419   7.648 -3.3313  1.0572  0.3943
  424MOL0     H57214  -2.665  11.588   7.501 -0.4749  1.8326  0.0204
  424MOL0     H57215  -2.524  11.700   7.523 -3.1396  4.1078  0.2622
  424MOL0     H57216  -2.677  11.568   7.747 -0.3977 -0.7387 -1.8669
  424MOL0     H57217  -2.568  11.693   7.768 -0.4085 -1.6987  2.8345
  424MOL0     H57218  -2.838  11.746   7.617  0.2380  0.0802  0.9961
  424MOL0     H57219  -2.739  11.874   7.690  0.1465  1.4802  1.3833
  424MOL0     H57220  -2.752  11.769   7.916 -0.8735  1.0128 -0.2315
  424MOL0     H57221  -2.885  11.661   7.861 -1.3556  0.9381  2.2177
  424MOL0     H57222  -1.887  11.634   7.504  0.9700 -0.7002 -1.1965
  424MOL0     H57223  -1.634  11.667   7.540  1.9423  0.7865  1.4422
  424MOL0     H57224  -1.250  11.253   7.623 -2.0774  1.5018  3.3931
  424MOL0     H57225  -1.013  11.265   7.606  0.3424 -0.4544 -0.0622
  424MOL0     H57226   0.549  11.480   7.549 -0.4991  0.8013  1.6668
  424MOL0     H57227   0.734  11.571   7.421 -3.1514  1.9778  0.7449
  424MOL0     H57228   1.266  11.301   7.369  1.0147  1.0380  0.4771
  424MOL0     H57229   1.472  11.364   7.235  2.2732  1.8716 -0.5915
  424MOL0     H57230   1.702  11.702   7.144  2.9352  0.8795  2.3141
  424MOL0     H57231   1.604  11.733   7.284 -1.6310 -2.0518  0.7653
  424MOL0     H57232   1.680  11.518   7.396  1.6496  0.9986  1.4877
  424MOL0     H57233   1.808  11.628   7.345  1.4602  0.6110 -3.4288
  424MOL0     H57234   1.850  11.507   7.143  0.2001  3.5640  2.9346
  424MOL0     H57235   1.721  11.394   7.174  0.8401 -0.2218 -0.6202
  424MOL0     H57236   1.974  11.411   7.356  1.4938 -2.5260 -1.9579
  424MOL0     H57237   1.934  11.299   7.230  0.1683 -0.2200  0.3727
  424MOL0     H57238   1.652  11.164   7.521 -0.8248  0.9712 -1.3104
  424MOL0     H57239   1.336  11.765   7.204  0.9803 -0.5691 -0.9436
  424MOL0     H57240   1.126  11.704   7.334 -0.3505 -0.2046  1.4336
  425MOL0     O57241   8.262   9.667   6.149  0.0973  0.3172 -0.2477
  425MOL0     C57242   8.324   9.683   6.255  0.0530  0.4690 -0.1253
  425MOL0     O57243   8.278   9.717   6.376  0.5146  0.0657  0.6855
  425MOL0     C57244   8.144   9.722   6.422 -0.0285 -0.2292 -0.5458
  425MOL0     C57245   8.122   9.746   6.560 -0.5459  0.1876  0.4993
  425MOL0     C57246   7.994   9.738   6.614 -0.3840  0.2022 -0.1199
  425MOL0     C57247   7.881   9.700   6.531 -0.3565 -0.0245  0.8943
  425MOL0     O57248   7.759   9.689   6.592  0.1738  0.6253 -0.5875
  425MOL0     C57249   7.652   9.623   6.515 -0.6805 -0.2711  0.0698
  425MOL0     C57250   7.577   9.719   6.423 -0.0658  0.7684 -0.4852
  425MOL0     C57251   7.420   9.692   6.440 -0.9415 -0.1073 -0.5299
  425MOL0     C57252   7.342   9.780   6.340 -0.2567 -0.0538  0.1337
  425MOL0     C57253   7.193   9.746   6.331 -0.7217  0.3438 -0.5741
  425MOL0     C57254   7.111   9.878   6.306  0.2260 -0.1299 -1.2251
  425MOL0     C57255   7.083   9.963   6.435  0.3201 -0.2433 -0.5125
  425MOL0     C57256   7.019  10.099   6.402 -0.4631 -0.0231  0.6818
  425MOL0     N57257   7.113  10.165   6.314  0.3871  0.0583 -0.5632
  425MOL0     C57258   7.243  10.209   6.338 -0.5177  1.1764  0.5253
  425MOL0     C57259   7.276  10.272   6.227 -0.5490 -0.3086 -0.3814
  425MOL0     C57260   7.398  10.330   6.184 -1.3057  0.7991 -0.3019
  425MOL0     C57261   7.396  10.466   6.118 -0.1859 -0.7289 -0.2308
  425MOL0     C57262   7.519  10.552   6.126 -0.5354 -0.4947  0.6004
  425MOL0     C57263   7.652  10.481   6.090 -0.1409 -0.5579  0.0368
  425MOL0     O57264   7.766  10.569   6.116  0.6370  0.4850 -0.0533
  425MOL0     C57265   7.882  10.544   6.039 -0.0953  0.5999 -0.0054
  425MOL0     C57266   7.969  10.651   6.016 -0.3147  0.2948 -0.5944
  425MOL0     C57267   8.100  10.631   5.967 -0.5884 -0.1559  0.0664
  425MOL0     C57268   8.197  10.747   5.960  0.4048  0.3160 -0.5517
  425MOL0     C57269   8.143  10.500   5.948  0.1059  0.8996  1.0671
  425MOL0     C57270   8.291  10.462   5.925  0.6701 -0.6184  0.2551
  425MOL0     O57271   8.341  10.352   5.989  0.2165 -0.1556  0.4935
  425MOL0     C57272   8.462  10.299   5.949  0.0605 -0.7200  0.3184
  425MOL0     C57273   8.522  10.231   6.049  0.3185  0.5863  0.1556
  425MOL0     C57274   8.640  10.155   6.021 -0.8281 -0.1639 -0.3377
  425MOL0     C57275   8.690  10.141   5.894 -0.2455 -0.4227 -0.1803
  425MOL0     O57276   8.799  10.060   5.870  0.4088  0.0602 -1.0477
  425MOL0     C57277   8.913  10.129   5.808  0.7054  0.0612 -0.0500
  425MOL0     C57278   9.020  10.021   5.774  0.3102  0.2083 -0.6888
  425MOL0     C57279   9.148  10.093   5.743 -0.6659 -0.1267 -0.1970
  425MOL0     C57280   9.235   9.998   5.650 -0.0383 -1.3282 -0.1587
  425MOL0     C57281   9.368  10.080   5.609 -0.1228  0.5023 -0.1964
  425MOL0     C57282   9.468  10.087   5.714 -0.9214  0.0025 -0.0042
  425MOL0     C57283   9.579  10.183   5.670  0.2315 -0.4900  0.6770
  425MOL0     C57284   9.668  10.216   5.787 -0.0904  0.2190 -0.2371
  425MOL0    Cl57285   9.742  10.071   5.857  0.0734  0.3392 -0.4078
  425MOL0     C57286   8.617  10.208   5.793 -0.1001 -0.2456  0.0685
  425MOL0     C57287   8.501  10.281   5.815  0.7788 -0.0159  0.9723
  425MOL0     O57288   8.355  10.549   5.865  0.6146  0.6611 -0.9070
  425MOL0     C57289   8.058  10.395   5.951  0.2102 -0.4779  0.5383
  425MOL0     C57290   7.923  10.414   6.000 -0.2854 -0.1623  0.1584
  425MOL0     N57291   7.174  10.264   6.140 -0.5104  0.9964 -0.4272
  425MOL0     N57292   7.079  10.193   6.188  0.2144  0.0724  0.8791
  425MOL0     C57293   7.907   9.697   6.393  0.4594 -0.0681  0.0937
  425MOL0     C57294   8.035   9.696   6.334  0.6023 -0.7693 -0.2058
  425MOL0     C57295   8.467   9.686   6.241  0.1096 -0.5861  0.3136
  425MOL0     C57296   8.534   9.704   6.122  1.2489 -0.2827  0.0799
  425MOL0     C57297   8.666   9.727   6.107 -1.0783 -0.4850  0.1390
  425MOL0     C57298   8.748   9.721   6.211 -0.7781 -0.5000  0.3037
  425MOL0     O57299   8.879   9.752   6.209 -0.5037 -0.1453 -0.1765
  425MOL0     C57300   8.951   9.778   6.089  0.2685 -0.5672 -0.7529
  425MOL0     C57301   9.086   9.703   6.099  0.6428 -0.6774  0.2769
  425MOL0     C57302   9.202   9.754   6.012  0.1901  0.3138  0.7166
  425MOL0     C57303   9.227   9.668   5.889 -0.4607 -0.6557  0.4225
  425MOL0     C57304   9.120   9.660   5.787  1.4092  0.3651  0.3760
  425MOL0     C57305   9.035   9.683   5.697 -0.1079 -1.0227 -0.4732
  425MOL0     C57306   8.685   9.695   6.335 -0.4024 -0.2696  0.1054
  425MOL0     C57307   8.548   9.679   6.352  0.0329 -1.1254  0.0914
  425MOL0     H57308   8.202   9.775   6.627 -0.8980  3.0613 -0.2046
  425MOL0     H57309   7.994   9.749   6.722  3.0713  0.3384 -0.0051
  425MOL0     H57310   7.675   9.528   6.465  0.6135  0.0045  0.1159
  425MOL0     H57311   7.577   9.586   6.586  2.6779  0.1969  4.2744
  425MOL0     H57312   7.606   9.823   6.444  1.0071  0.1530  1.2793
  425MOL0     H57313   7.602   9.687   6.321 -1.8304 -2.0262 -0.1236
  425MOL0     H57314   7.405   9.589   6.406  1.4155 -0.3077 -1.1901
  425MOL0     H57315   7.390   9.709   6.544 -0.6270 -1.1933 -0.2405
  425MOL0     H57316   7.356   9.886   6.365 -1.5940  0.2765 -0.4039
  425MOL0     H57317   7.395   9.774   6.244 -0.7134  2.2001 -0.3221
  425MOL0     H57318   7.170   9.676   6.250 -2.6161 -0.9924  1.0289
  425MOL0     H57319   7.168   9.692   6.423  0.1402  1.3437  0.2660
  425MOL0     H57320   7.166   9.938   6.233  0.2687 -0.9207 -1.8588
  425MOL0     H57321   7.017   9.846   6.261 -0.6449 -0.1992  0.5769
  425MOL0     H57322   7.013   9.909   6.501  2.0266 -1.1959  0.6164
  425MOL0     H57323   7.179   9.977   6.487  1.3091  0.3770 -2.4059
  425MOL0     H57324   7.013  10.169   6.486 -1.0236  1.7412 -0.7600
  425MOL0     H57325   6.919  10.088   6.360 -0.5756 -0.1572  0.9867
  425MOL0     H57326   7.297  10.180   6.427  0.7870 -0.2708 -0.6960
  425MOL0     H57327   7.466  10.334   6.269 -0.3574  0.1082 -1.0038
  425MOL0     H57328   7.442  10.253   6.120 -0.6287  0.3403  0.6824
  425MOL0     H57329   7.313  10.523   6.162 -1.4142  0.2210 -3.4729
  425MOL0     H57330   7.369  10.466   6.012 -1.1500  0.5243 -0.0119
  425MOL0     H57331   7.517  10.591   6.229 -1.6243 -0.6242  0.6444
  425MOL0     H57332   7.506  10.630   6.050  0.0759 -2.1787 -1.2862
  425MOL0     H57333   7.657  10.444   5.987  2.6537 -0.9888  0.2585
  425MOL0     H57334   7.673  10.398   6.158 -2.8847 -2.2613 -1.0162
  425MOL0     H57335   7.956  10.756   6.041  2.5467  0.0237  2.9225
  425MOL0     H57336   8.166  10.846   5.994  1.9526  0.0865  1.8553
  425MOL0     H57337   8.292  10.726   6.012 -1.0598 -2.1177  1.3550
  425MOL0     H57338   8.211  10.761   5.853 -3.7221 -1.4893 -1.4868
  425MOL0     H57339   8.495  10.247   6.153 -2.8036 -0.3357 -0.4077
  425MOL0     H57340   8.696  10.105   6.099  1.1980  2.2144 -0.1719
  425MOL0     H57341   8.891  10.168   5.708 -2.1427 -1.7136 -0.2526
  425MOL0     H57342   8.948  10.208   5.875  1.0846  0.0046 -0.1810
  425MOL0     H57343   9.040   9.946   5.851  0.7590 -0.6891 -1.6499
  425MOL0     H57344   8.981   9.960   5.692 -0.7087  1.2447 -1.0075
  425MOL0     H57345   9.212  10.119   5.828  2.5480  0.9651 -2.7392
  425MOL0     H57346   9.128  10.184   5.684  1.5353  1.2891  1.1016
  425MOL0     H57347   9.260   9.909   5.707  0.0368 -1.5414 -0.5220
  425MOL0     H57348   9.180   9.973   5.558 -2.0420  0.1625  0.5601
  425MOL0     H57349   9.349  10.182   5.576  0.2051  0.2598 -1.1785
  425MOL0     H57350   9.405  10.030   5.518 -0.6050  0.7477 -0.5350
  425MOL0     H57351   9.418  10.119   5.806 -1.2281  0.0910 -0.1996
  425MOL0     H57352   9.509   9.987   5.733 -0.9359  0.3014  1.8248
  425MOL0     H57353   9.530  10.276   5.641 -0.4214 -1.5290 -1.8132
  425MOL0     H57354   9.635  10.143   5.584  1.1331 -3.4281  2.5055
  425MOL0     H57355   9.605  10.266   5.861  1.1483 -0.6298  1.4490
  425MOL0     H57356   9.744  10.288   5.755 -0.2600 -0.2766 -1.9062
  425MOL0     H57357   8.650  10.194   5.690 -0.3201 -2.2958  0.2497
  425MOL0     H57358   8.432  10.315   5.738  1.5554 -0.1151  0.2146
  425MOL0     H57359   8.104  10.304   5.916 -0.6813  0.2512 -2.8560
  425MOL0     H57360   7.865  10.325   6.024  0.1453 -0.8700 -1.2778
  425MOL0     H57361   7.823   9.683   6.326  0.8158 -1.1272 -0.1559
  425MOL0     H57362   8.039   9.689   6.226 -0.3928  0.6492 -0.3620
  425MOL0     H57363   8.484   9.709   6.026  3.1079  1.8271 -0.8696
  425MOL0     H57364   8.698   9.746   6.006  2.8311  1.9225  1.6431
  425MOL0     H57365   8.900   9.730   6.005 -0.6750  1.1421 -1.2074
  425MOL0     H57366   8.956   9.886   6.072 -1.4575 -0.4693 -0.8504
  425MOL0     H57367   9.063   9.599   6.075 -1.5256  0.0981 -1.2724
  425MOL0     H57368   9.121   9.714   6.202  6.6167  2.7272 -1.5986
  425MOL0     H57369   9.291   9.750   6.075 -0.1367 -2.2659  1.1237
  425MOL0     H57370   9.187   9.858   5.982 -0.4140  0.3096  0.9858
  425MOL0     H57371   9.250   9.567   5.924 -2.2263 -1.0992  0.4158
  425MOL0     H57372   9.318   9.706   5.842  0.1492  1.2840  2.9977
  425MOL0     H57373   8.967   9.702   5.615 -0.7129  0.4536  0.3318
  425MOL0     H57374   8.745   9.689   6.425  2.4048 -1.0257 -1.7060
  425MOL0     H57375   8.516   9.657   6.453  2.3724 -2.4563  0.6000
  426MOL0     O57376   9.569   5.335   1.635 -0.2809  0.4835  0.0480
  426MOL0     C57377   9.588   5.278   1.527  0.0114  0.2764 -0.2512
  426MOL0     O57378   9.497   5.243   1.429 -0.5759  0.1885  0.2163
  426MOL0     C57379   9.359   5.246   1.456 -0.3814  0.7179 -0.4990
  426MOL0     C57380   9.271   5.221   1.351  0.4944  0.6702  0.2141
  426MOL0     C57381   9.131   5.211   1.360  0.1110 -0.6226  0.7137
  426MOL0     C57382   9.072   5.239   1.488  0.1806 -0.5090  1.1570
  426MOL0     O57383   8.937   5.235   1.497  0.4095 -0.2482 -0.3245
  426MOL0     C57384   8.875   5.357   1.556  0.4751 -0.0374  0.4224
  426MOL0     C57385   8.743   5.332   1.628  0.3781 -0.1309  0.0630
  426MOL0     C57386   8.635   5.266   1.548 -0.1393  0.3681 -0.7824
  426MOL0     C57387   8.533   5.189   1.637  0.1397  0.6584 -0.0349
  426MOL0     C57388   8.435   5.282   1.706 -0.0015 -0.8747  0.2936
  426MOL0     C57389   8.321   5.323   1.615 -0.3097  0.5657 -0.3857
  426MOL0     C57390   8.211   5.393   1.709 -0.2182  0.2891  0.6008
  426MOL0     C57391   8.270   5.510   1.785 -0.7010 -0.4196 -0.6003
  426MOL0     N57392   8.163   5.585   1.846 -0.0078 -0.0336  0.3112
  426MOL0     C57393   8.094   5.684   1.779 -0.6388 -0.3538 -0.0176
  426MOL0     C57394   7.999   5.719   1.859  0.1987  0.2838 -0.6467
  426MOL0     C57395   7.871   5.804   1.838 -0.0186  1.1444  0.6820
  426MOL0     C57396   7.785   5.731   1.732  0.3697  1.0268 -0.5789
  426MOL0     C57397   7.680   5.628   1.776 -0.1711 -0.7162 -0.5943
  426MOL0     C57398   7.592   5.682   1.891 -0.9144  0.3997  0.1864
  426MOL0     O57399   7.506   5.775   1.834  0.7061 -0.4875 -0.2835
  426MOL0     C57400   7.408   5.746   1.742 -0.0127  0.1823 -0.6279
  426MOL0     C57401   7.355   5.619   1.718  0.4709 -1.1172  0.5247
  426MOL0     C57402   7.239   5.600   1.627 -0.1186 -0.4594 -0.1444
  426MOL0     C57403   7.195   5.458   1.617  0.5793  0.2608  0.4639
  426MOL0     C57404   7.198   5.702   1.541  0.4467  0.2153 -0.0086
  426MOL0     C57405   7.100   5.682   1.423 -1.3355  0.6566  0.3685
  426MOL0     O57406   7.029   5.571   1.428 -0.0605  0.3731 -0.0816
  426MOL0     C57407   6.910   5.559   1.366  0.6257  0.9625 -0.2370
  426MOL0     C57408   6.878   5.424   1.355 -0.3043 -0.4383  0.6240
  426MOL0     C57409   6.762   5.388   1.294  0.4560 -0.0633 -0.1547
  426MOL0     C57410   6.683   5.484   1.234 -0.2312 -0.7097 -0.1655
  426MOL0     O57411   6.574   5.466   1.154  0.4160  0.3201 -0.0740
  426MOL0     C57412   6.517   5.333   1.146 -0.0580  0.2557 -0.4039
  426MOL0     C57413   6.378   5.358   1.091  0.1086 -0.4779  0.6375
  426MOL0     C57414   6.301   5.234   1.099 -0.3922  0.2842  0.0736
  426MOL0     C57415   6.157   5.258   1.055  0.6524 -0.0259  0.5258
  426MOL0     C57416   6.138   5.241   0.907 -0.0913  0.2103  1.2688
  426MOL0     C57417   6.006   5.282   0.851  0.2496 -0.6013  1.6716
  426MOL0     C57418   5.878   5.229   0.912  0.3906  0.7778  0.6746
  426MOL0     C57419   5.754   5.311   0.880 -0.3447 -0.1653 -0.2004
  426MOL0    Cl57420   5.757   5.482   0.912  0.1704 -0.2893 -0.2333
  426MOL0     C57421   6.714   5.620   1.255  0.1347  0.5274  0.4732
  426MOL0     C57422   6.820   5.656   1.331  0.6226  0.3316 -0.4841
  426MOL0     O57423   7.097   5.764   1.332  0.1611 -0.0822 -0.1248
  426MOL0     C57424   7.268   5.824   1.554 -0.6798  0.2366  0.2971
  426MOL0     C57425   7.356   5.847   1.660 -0.4858  0.1240 -0.5289
  426MOL0     N57426   8.012   5.642   1.978 -0.1963 -0.0435  0.1558
  426MOL0     N57427   8.114   5.567   1.967 -0.2204  0.4274  0.2985
  426MOL0     C57428   9.154   5.248   1.597 -0.6207 -0.4502 -0.0087
  426MOL0     C57429   9.299   5.260   1.582  0.3480  1.0638 -0.9710
  426MOL0     C57430   9.731   5.258   1.487  0.4527 -0.0155 -0.3607
  426MOL0     C57431   9.770   5.208   1.363  0.1774  0.1545  0.0845
  426MOL0     C57432   9.903   5.177   1.337  0.1684  0.5928  0.3278
  426MOL0     C57433  10.003   5.206   1.431  0.1149  0.4119  0.5439
  426MOL0     O57434  10.135   5.169   1.411  0.3330  0.3326 -0.7504
  426MOL0     C57435  10.186   5.121   1.283 -0.3008 -0.1045  0.2973
  426MOL0     C57436  10.329   5.085   1.291 -0.1590 -0.0852 -0.3823
  426MOL0     C57437  10.354   4.973   1.395  0.4750  0.4342  0.6907
  426MOL0     C57438  10.499   4.935   1.399 -0.4884 -0.7614  0.6101
  426MOL0     C57439  10.583   5.040   1.456 -0.5441 -0.1710 -0.2681
  426MOL0     C57440  10.652   5.120   1.514 -0.3113 -0.6847  0.2327
  426MOL0     C57441   9.961   5.250   1.555 -0.2692 -0.8582 -0.0138
  426MOL0     C57442   9.829   5.272   1.585 -1.0898  0.1348 -0.6969
  426MOL0     H57443   9.306   5.211   1.249 -1.1826  1.7586 -0.5194
  426MOL0     H57444   9.076   5.216   1.267  1.3665 -0.0212 -0.0164
  426MOL0     H57445   8.929   5.410   1.634 -2.6325  1.3250  1.7930
  426MOL0     H57446   8.859   5.433   1.479  0.1695 -0.2583  0.2641
  426MOL0     H57447   8.771   5.266   1.710  4.4094  2.8069  1.4045
  426MOL0     H57448   8.717   5.425   1.678  3.8280  0.9073  0.2071
  426MOL0     H57449   8.580   5.326   1.475  3.1002  2.3450 -1.8267
  426MOL0     H57450   8.686   5.196   1.481  0.4205 -1.0454  1.0352
  426MOL0     H57451   8.467   5.132   1.571 -1.6631  1.7304  0.8011
  426MOL0     H57452   8.575   5.118   1.709 -1.1618 -0.8892 -0.7424
  426MOL0     H57453   8.399   5.238   1.799 -1.5825  1.2740  0.7725
  426MOL0     H57454   8.483   5.378   1.728 -0.6480 -0.7292  1.0895
  426MOL0     H57455   8.340   5.402   1.542  0.5904  1.1154  0.4171
  426MOL0     H57456   8.263   5.241   1.570 -0.6253  1.6522 -2.0481
  426MOL0     H57457   8.135   5.434   1.642 -1.4590  0.3742  2.0233
  426MOL0     H57458   8.152   5.322   1.767 -0.7079  1.7232  1.9373
  426MOL0     H57459   8.321   5.586   1.725 -0.6003 -0.5333 -0.6607
  426MOL0     H57460   8.343   5.474   1.858  0.0473 -1.7446 -1.9419
  426MOL0     H57461   8.115   5.721   1.679 -0.6310 -0.6060 -0.1091
  426MOL0     H57462   7.822   5.838   1.930  1.6026  0.1219  1.9784
  426MOL0     H57463   7.902   5.899   1.794 -2.1682  1.0925 -1.1438
  426MOL0     H57464   7.851   5.671   1.668  1.0677  0.4555  0.6425
  426MOL0     H57465   7.729   5.800   1.668 -1.5995  1.4183  1.4551
  426MOL0     H57466   7.731   5.538   1.814 -0.4310  0.8161  3.9956
  426MOL0     H57467   7.609   5.600   1.698 -0.8858 -2.4997  0.6314
  426MOL0     H57468   7.647   5.727   1.974 -2.7736  0.5582  1.3890
  426MOL0     H57469   7.537   5.599   1.935 -2.2522 -0.4289 -2.8104
  426MOL0     H57470   7.380   5.535   1.782 -0.9048 -1.1053  1.1161
  426MOL0     H57471   7.085   5.456   1.612  0.6132 -0.5406 -0.1819
  426MOL0     H57472   7.224   5.416   1.520  0.5685 -1.7667  1.3064
  426MOL0     H57473   7.232   5.394   1.697  2.0296  0.3448 -0.1223
  426MOL0     H57474   6.944   5.351   1.399  2.3848  0.7980 -1.1431
  426MOL0     H57475   6.729   5.284   1.293 -2.8427  0.8890 -1.2260
  426MOL0     H57476   6.568   5.254   1.091 -0.5253 -0.4304  0.1380
  426MOL0     H57477   6.511   5.304   1.251  0.5966  1.2359 -0.0773
  426MOL0     H57478   6.328   5.445   1.135 -0.9996 -0.6484 -0.2263
  426MOL0     H57479   6.389   5.381   0.985 -1.9090 -2.8806 -0.2121
  426MOL0     H57480   6.312   5.194   1.200  0.0512  1.4167  0.4803
  426MOL0     H57481   6.345   5.169   1.022 -1.1352 -0.5527  0.3301
  426MOL0     H57482   6.099   5.183   1.110 -0.3919  0.3144 -0.0785
  426MOL0     H57483   6.107   5.351   1.083 -2.9951 -0.2226 -3.9834
  426MOL0     H57484   6.142   5.134   0.881  0.5493 -0.2079  2.9913
  426MOL0     H57485   6.222   5.292   0.858  0.2534  0.1327  1.7757
  426MOL0     H57486   6.004   5.390   0.867 -0.9269  0.6484 -4.3762
  426MOL0     H57487   5.997   5.267   0.743 -0.8883 -1.8894  1.9232
  426MOL0     H57488   5.887   5.246   1.020  0.6256  1.0801  0.6104
  426MOL0     H57489   5.876   5.121   0.900  4.0231  0.4292  1.9669
  426MOL0     H57490   5.674   5.272   0.943 -0.5035  0.9816  0.3257
  426MOL0     H57491   5.728   5.303   0.774 -0.7746 -0.4223 -0.0765
  426MOL0     H57492   6.650   5.695   1.208  1.8555  1.7331 -0.0486
  426MOL0     H57493   6.844   5.762   1.322 -2.8730  1.1794 -1.4938
  426MOL0     H57494   7.244   5.906   1.488  1.4187  0.6016 -0.1007
  426MOL0     H57495   7.397   5.945   1.679  1.7436 -0.5243 -1.6217
  426MOL0     H57496   9.116   5.245   1.699  0.3691  0.2235  0.3873
  426MOL0     H57497   9.356   5.266   1.674  0.5774  2.3803 -1.1829
  426MOL0     H57498   9.702   5.184   1.281  0.7251 -0.9302 -0.0609
  426MOL0     H57499   9.931   5.142   1.238  2.3611 -1.2814  1.5093
  426MOL0     H57500  10.131   5.034   1.245 -0.4399  1.2983 -3.0219
  426MOL0     H57501  10.170   5.193   1.203 -0.2941 -2.1111 -1.5845
  426MOL0     H57502  10.389   5.167   1.331 -1.7330 -0.1742  2.4159
  426MOL0     H57503  10.379   5.059   1.197 -0.2996 -1.2226 -0.1560
  426MOL0     H57504  10.297   4.884   1.370 -1.2215  1.2798  1.3636
  426MOL0     H57505  10.318   5.001   1.495 -1.2187 -1.0273  0.5397
  426MOL0     H57506  10.537   4.926   1.296  0.3518  1.7281  0.6375
  426MOL0     H57507  10.528   4.842   1.448  5.2632  0.4310  0.2252
  426MOL0     H57508  10.715   5.184   1.573  2.2109  0.2958 -3.1748
  426MOL0     H57509  10.045   5.266   1.623  0.3600 -1.5488 -0.6155
  426MOL0     H57510   9.796   5.302   1.684 -0.0032 -1.5726  0.2128
  427MOL0     O57511   2.826   8.303   6.947  0.1607 -0.2362  0.9217
  427MOL0     C57512   2.859   8.418   6.967  0.6745 -0.5208 -1.2810
  427MOL0     O57513   2.768   8.527   6.947  0.6930  0.4540  0.3596
  427MOL0     C57514   2.635   8.504   6.911 -0.4666 -0.5971 -0.9992
  427MOL0     C57515   2.554   8.402   6.971 -0.5243 -0.9236 -0.2948
  427MOL0     C57516   2.431   8.377   6.922 -0.3192  0.0525 -0.5514
  427MOL0     C57517   2.378   8.460   6.826  1.3763 -0.6024 -0.7072
  427MOL0     O57518   2.253   8.453   6.770 -0.6087 -0.2555  0.0331
  427MOL0     C57519   2.160   8.376   6.844  0.5509  0.2425  0.3354
  427MOL0     C57520   2.020   8.412   6.796 -0.4075  0.1980 -0.8066
  427MOL0     C57521   1.908   8.359   6.884  0.2952  0.1253 -0.5360
  427MOL0     C57522   1.780   8.439   6.863  0.8881 -0.6070 -0.1196
  427MOL0     C57523   1.672   8.364   6.918 -0.4041 -0.1772  0.5496
  427MOL0     C57524   1.538   8.444   6.897  0.5187  0.0608 -0.1067
  427MOL0     C57525   1.483   8.457   6.758  0.5832  0.2781 -1.3189
  427MOL0     C57526   1.335   8.456   6.769 -0.2932 -0.8401  0.3810
  427MOL0     N57527   1.285   8.489   6.642 -0.0644  0.3748 -0.0327
  427MOL0     C57528   1.236   8.604   6.582 -0.3049 -0.6783 -0.1970
  427MOL0     C57529   1.194   8.569   6.458 -0.5575 -0.9622  0.9823
  427MOL0     C57530   1.134   8.651   6.347 -0.2554 -0.6498  0.3388
  427MOL0     C57531   1.098   8.807   6.381 -0.5556  0.5717  0.8394
  427MOL0     C57532   1.183   8.917   6.311  0.1972  1.0449 -0.7325
  427MOL0     C57533   1.335   8.907   6.336 -0.1878  0.0243 -0.5729
  427MOL0     O57534   1.357   8.908   6.483  0.4032 -0.5589  0.3596
  427MOL0     C57535   1.482   8.937   6.534  0.0954  0.1904  0.1145
  427MOL0     C57536   1.501   8.928   6.669  0.5159  0.1817  0.1185
  427MOL0     C57537   1.620   8.963   6.733 -0.1914 -0.3501  0.0702
  427MOL0     C57538   1.637   8.951   6.887  0.0736  0.1719 -0.4425
  427MOL0     C57539   1.739   9.000   6.655 -0.8313  0.9231 -0.8964
  427MOL0     C57540   1.879   9.021   6.706 -0.3490  0.3451  0.9663
  427MOL0     O57541   1.901   8.999   6.833  0.0533 -0.2414 -0.6852
  427MOL0     C57542   2.031   8.986   6.889  0.3083  0.2265  1.3319
  427MOL0     C57543   2.080   8.851   6.897  0.2403  0.2379  0.2250
  427MOL0     C57544   2.205   8.836   6.954 -0.0021  0.2392 -0.3675
  427MOL0     C57545   2.278   8.948   7.001  0.6747 -0.2131  0.1732
  427MOL0     O57546   2.403   8.931   7.053  0.2173 -0.1625 -1.0488
  427MOL0     C57547   2.444   8.809   7.111  0.0428 -0.4626 -0.5456
  427MOL0     C57548   2.593   8.817   7.163  1.0347 -0.4587 -0.1387
  427MOL0     C57549   2.629   8.700   7.258 -0.4821  0.0266  1.0093
  427MOL0     C57550   2.777   8.692   7.291 -0.3922 -0.6373  0.1466
  427MOL0     C57551   2.815   8.570   7.384 -0.2781  0.3667  0.5223
  427MOL0     C57552   2.963   8.580   7.419  0.7355 -0.9046 -0.1017
  427MOL0     C57553   3.028   8.445   7.443 -0.4733  0.1671  0.0889
  427MOL0     C57554   3.187   8.458   7.464 -0.3433  0.4340  0.0507
  427MOL0    Cl57555   3.275   8.307   7.465 -0.0677 -0.0503 -0.1786
  427MOL0     C57556   2.236   9.075   6.979  1.5567  0.0623 -0.4703
  427MOL0     C57557   2.107   9.098   6.921 -1.1807  0.6412  0.0513
  427MOL0     O57558   1.971   9.045   6.624 -0.1064 -0.3802  0.1477
  427MOL0     C57559   1.723   9.012   6.517 -0.0245  0.3576  0.0997
  427MOL0     C57560   1.590   8.986   6.457 -0.0241 -0.3045 -0.4615
  427MOL0     N57561   1.198   8.434   6.442 -0.0894 -0.0215 -0.0389
  427MOL0     N57562   1.240   8.393   6.558  1.0170  0.3263 -0.3244
  427MOL0     C57563   2.451   8.564   6.774  0.9312 -0.0567  0.0174
  427MOL0     C57564   2.580   8.585   6.815  0.2900 -0.1989 -0.2971
  427MOL0     C57565   2.993   8.436   7.024 -0.6140  0.1522  0.4304
  427MOL0     C57566   3.059   8.559   7.022 -0.2064  0.0394  0.1762
  427MOL0     C57567   3.192   8.571   7.057 -0.0194 -0.5212  0.1836
  427MOL0     C57568   3.257   8.469   7.114 -0.4379  0.7108  0.4519
  427MOL0     O57569   3.384   8.496   7.157  0.1655 -0.8052  0.5960
  427MOL0     C57570   3.477   8.389   7.168  0.0866  0.1522 -0.2584
  427MOL0     C57571   3.621   8.441   7.217  0.6106 -0.0039  0.1725
  427MOL0     C57572   3.606   8.498   7.358  0.0169 -0.2736  0.2595
  427MOL0     C57573   3.741   8.493   7.427 -0.1689  0.2071  0.5537
  427MOL0     C57574   3.733   8.547   7.560  0.1718  0.9152  1.0111
  427MOL0     C57575   3.727   8.595   7.675 -0.3714  0.9092  0.6454
  427MOL0     C57576   3.191   8.344   7.120  0.5500  0.3814 -0.3963
  427MOL0     C57577   3.062   8.330   7.082  0.0745 -0.4010 -0.3520
  427MOL0     H57578   2.580   8.346   7.060  1.0968 -0.6218 -0.5465
  427MOL0     H57579   2.369   8.295   6.957 -1.8436  0.6088 -1.8027
  427MOL0     H57580   2.177   8.268   6.838  1.6945  0.2732  2.3630
  427MOL0     H57581   2.162   8.410   6.948 -1.4753  1.9485 -0.1147
  427MOL0     H57582   2.002   8.520   6.799 -3.0740 -0.1383  3.0132
  427MOL0     H57583   2.008   8.378   6.692  1.9685 -0.3085 -0.9568
  427MOL0     H57584   1.886   8.256   6.858 -1.4072 -0.1736  1.7169
  427MOL0     H57585   1.936   8.360   6.990  0.6400 -1.3971 -0.5986
  427MOL0     H57586   1.786   8.541   6.902 -3.1699 -0.6321  0.9835
  427MOL0     H57587   1.766   8.456   6.756  1.0487  1.0084  0.0901
  427MOL0     H57588   1.677   8.270   6.863 -0.3861  0.4958 -0.6226
  427MOL0     H57589   1.691   8.341   7.024  0.6431 -1.0450  0.1948
  427MOL0     H57590   1.470   8.384   6.957  0.1397 -2.8624 -3.1905
  427MOL0     H57591   1.553   8.547   6.932 -2.0175  0.2922  0.5270
  427MOL0     H57592   1.521   8.545   6.704 -0.5169  0.8734 -1.1596
  427MOL0     H57593   1.510   8.360   6.716  0.3772 -1.0934  1.4520
  427MOL0     H57594   1.302   8.533   6.840  0.0720  0.0948 -0.4278
  427MOL0     H57595   1.296   8.358   6.797 -1.5329 -0.9783 -1.6334
  427MOL0     H57596   1.243   8.699   6.633  1.4172  0.1203 -1.8206
  427MOL0     H57597   1.194   8.648   6.255  0.1777  0.1594  0.5875
  427MOL0     H57598   1.041   8.605   6.314 -1.5224  0.6895  1.9139
  427MOL0     H57599   1.104   8.819   6.489  0.5055 -2.0806  1.1532
  427MOL0     H57600   0.995   8.824   6.348 -1.8070 -1.9475  3.0430
  427MOL0     H57601   1.158   9.020   6.337  0.2805  1.1354 -1.0079
  427MOL0     H57602   1.161   8.917   6.204 -1.2082  0.4754 -0.4504
  427MOL0     H57603   1.379   8.994   6.287 -0.3806 -0.1173 -1.0065
  427MOL0     H57604   1.377   8.814   6.298 -1.8820 -1.2728  0.5792
  427MOL0     H57605   1.416   8.884   6.719 -3.0883 -0.0699 -5.2956
  427MOL0     H57606   1.709   8.870   6.905 -0.4550 -0.8930 -2.7473
  427MOL0     H57607   1.655   9.051   6.927 -3.0399  1.2545 -1.5097
  427MOL0     H57608   1.542   8.919   6.930  1.2869 -1.1219  1.4309
  427MOL0     H57609   2.022   8.762   6.875  0.2634  0.0303  0.9710
  427MOL0     H57610   2.234   8.732   6.965  3.7877  1.0989 -0.8284
  427MOL0     H57611   2.378   8.782   7.194  2.8108 -1.6686  1.4247
  427MOL0     H57612   2.449   8.737   7.029 -2.4795  0.6009 -1.7529
  427MOL0     H57613   2.648   8.810   7.069  1.1125  0.3786 -0.1634
  427MOL0     H57614   2.607   8.914   7.210 -0.2661  0.1745 -1.0145
  427MOL0     H57615   2.608   8.610   7.201  0.2427  1.1811 -1.1918
  427MOL0     H57616   2.563   8.694   7.346 -1.8940 -0.7284 -0.0675
  427MOL0     H57617   2.846   8.702   7.207  0.4689 -1.9111  0.6693
  427MOL0     H57618   2.800   8.782   7.349  2.8243 -1.5839  0.4925
  427MOL0     H57619   2.812   8.484   7.316  1.0927  0.8795 -0.2089
  427MOL0     H57620   2.742   8.554   7.464 -1.9289 -0.8515 -1.1123
  427MOL0     H57621   3.011   8.639   7.340  2.1543  2.3817  2.9246
  427MOL0     H57622   2.960   8.643   7.508  0.1148  0.1928 -0.8751
  427MOL0     H57623   3.008   8.378   7.359 -1.5342 -0.0648  0.5073
  427MOL0     H57624   2.982   8.392   7.527 -1.1071 -1.8671 -1.4705
  427MOL0     H57625   3.198   8.504   7.563 -1.6238  1.5023 -0.2635
  427MOL0     H57626   3.240   8.525   7.395 -1.0470  1.4795  0.4925
  427MOL0     H57627   2.307   9.155   6.998  0.7756  0.6384  0.1055
  427MOL0     H57628   2.068   9.192   6.883 -1.2014 -0.0013 -1.5872
  427MOL0     H57629   1.795   9.049   6.445 -0.2043  1.0650  0.2757
  427MOL0     H57630   1.582   9.002   6.350  0.3141  0.2554 -0.4070
  427MOL0     H57631   2.429   8.638   6.697  1.3108  1.3921  1.2625
  427MOL0     H57632   2.646   8.657   6.767  1.9330 -0.9544  0.7392
  427MOL0     H57633   3.009   8.646   6.981 -0.8590  0.6950  2.2321
  427MOL0     H57634   3.247   8.664   7.045 -0.0542 -0.4097  0.8349
  427MOL0     H57635   3.445   8.311   7.237 -1.1205  0.4146 -0.4894
  427MOL0     H57636   3.484   8.347   7.067  1.9969 -2.1731  0.7687
  427MOL0     H57637   3.663   8.518   7.152 -0.1632 -1.0491 -1.6349
  427MOL0     H57638   3.688   8.356   7.225  0.5487 -0.1219 -0.5275
  427MOL0     H57639   3.534   8.437   7.414  1.5729 -3.1004 -0.6213
  427MOL0     H57640   3.583   8.605   7.359  0.6302 -0.1109 -1.1672
  427MOL0     H57641   3.813   8.561   7.381 -3.2550  3.1837 -0.3333
  427MOL0     H57642   3.767   8.387   7.429  0.1907  0.0256 -4.0444
  427MOL0     H57643   3.728   8.640   7.772 -1.2287  1.0586  0.5971
  427MOL0     H57644   3.250   8.260   7.158 -0.8972 -0.1705  0.7212
  427MOL0     H57645   3.016   8.232   7.091 -1.4149  0.2214 -0.8983
  428MOL0     O57646   1.620   9.391   4.726  0.2321 -0.3393  0.2736
  428MOL0     C57647   1.721   9.334   4.776  0.2703  1.0416  0.0574
  428MOL0     O57648   1.716   9.241   4.875  0.5835  0.2118  0.5799
  428MOL0     C57649   1.597   9.190   4.939 -0.6609 -0.3245 -0.0631
  428MOL0     C57650   1.473   9.192   4.890 -0.3577  0.3221 -0.5022
  428MOL0     C57651   1.365   9.149   4.968 -0.0691  0.1750 -0.4604
  428MOL0     C57652   1.384   9.091   5.092  0.6170  0.4379  0.1661
  428MOL0     O57653   1.281   9.049   5.169  0.1591 -0.7352  0.5547
  428MOL0     C57654   1.300   8.933   5.258  0.2054  0.9224  0.2697
  428MOL0     C57655   1.174   8.914   5.337  0.6934  0.4739 -0.2991
  428MOL0     C57656   1.173   8.984   5.471 -0.8679 -0.2109 -0.5637
  428MOL0     C57657   1.194   9.137   5.463  0.2347 -0.0375 -1.6400
  428MOL0     C57658   1.087   9.208   5.384 -0.4288 -1.0941  0.2670
  428MOL0     C57659   1.119   9.359   5.350 -0.2858  0.3388 -0.4412
  428MOL0     C57660   1.002   9.438   5.304  0.7183  0.1986  0.2183
  428MOL0     C57661   1.030   9.590   5.308  0.6572  0.6219 -0.2652
  428MOL0     N57662   1.134   9.622   5.211  0.2761 -0.0086  0.1424
  428MOL0     C57663   1.131   9.595   5.078  0.0756 -0.0094  1.0797
  428MOL0     C57664   1.237   9.659   5.025  0.1550 -0.1179  0.3388
  428MOL0     C57665   1.267   9.662   4.882 -0.0020 -0.3096 -0.3754
  428MOL0     C57666   1.415   9.623   4.864 -0.5902  0.1741  0.7291
  428MOL0     C57667   1.527   9.735   4.868 -0.1953  0.1410  0.2776
  428MOL0     C57668   1.551   9.786   4.719 -0.4629  0.2962 -0.1552
  428MOL0     O57669   1.641   9.900   4.719  0.2034 -0.6565  0.7974
  428MOL0     C57670   1.774   9.873   4.734 -1.2032 -1.3286 -0.7559
  428MOL0     C57671   1.852   9.990   4.744 -0.9385 -0.1613 -0.2234
  428MOL0     C57672   1.982   9.979   4.770 -0.5913  0.0763 -0.0149
  428MOL0     C57673   2.064  10.105   4.773  0.3872  0.8921  0.0172
  428MOL0     C57674   2.047   9.855   4.780 -0.4736  0.1982  0.2142
  428MOL0     C57675   2.192   9.834   4.790 -0.3244  0.6650 -0.1285
  428MOL0     O57676   2.227   9.718   4.861  0.4307  0.0662  0.6720
  428MOL0     C57677   2.357   9.685   4.871  0.1072 -0.5988  0.5805
  428MOL0     C57678   2.399   9.566   4.825 -0.7111  0.2392 -0.8257
  428MOL0     C57679   2.530   9.530   4.832 -0.6823 -1.0995 -0.5914
  428MOL0     C57680   2.625   9.617   4.880 -0.2690 -0.6346  0.0797
  428MOL0     O57681   2.763   9.591   4.862 -0.0830 -0.5742 -0.5562
  428MOL0     C57682   2.821   9.521   4.972 -0.1360  0.2139  0.6152
  428MOL0     C57683   2.967   9.471   4.917 -0.2965  0.2966  0.2039
  428MOL0     C57684   2.963   9.408   4.779  0.1593 -0.3021  0.0497
  428MOL0     C57685   2.885   9.279   4.780 -0.7178 -0.5908  0.1542
  428MOL0     C57686   2.965   9.159   4.825 -1.0115  0.3008  0.5512
  428MOL0     C57687   3.075   9.109   4.738 -1.0304  0.5297 -0.0812
  428MOL0     C57688   3.161   9.001   4.801  0.0449 -1.1763  0.3390
  428MOL0     C57689   3.225   9.054   4.932  0.3911  0.0711  0.2144
  428MOL0    Cl57690   3.322   9.209   4.892  0.3261  0.2062  0.0002
  428MOL0     C57691   2.585   9.740   4.936 -0.5423  0.3747  0.4486
  428MOL0     C57692   2.452   9.773   4.938  0.3950 -0.7817  0.4521
  428MOL0     O57693   2.271   9.907   4.733 -0.3514 -0.4822  0.4202
  428MOL0     C57694   1.969   9.740   4.780  0.7910  0.1630 -0.3096
  428MOL0     C57695   1.827   9.750   4.757 -0.3050 -0.2782  0.3258
  428MOL0     N57696   1.298   9.721   5.131 -0.2705 -0.4078 -0.4955
  428MOL0     N57697   1.239   9.697   5.241  0.1372  0.5738  0.0768
  428MOL0     C57698   1.520   9.077   5.139  0.6072 -0.1619 -0.5647
  428MOL0     C57699   1.622   9.135   5.063  0.1620  0.3417  0.0902
  428MOL0     C57700   1.854   9.363   4.720  0.0448  0.4601 -0.0146
  428MOL0     C57701   1.966   9.299   4.771 -0.5303 -0.7146  0.0588
  428MOL0     C57702   2.096   9.312   4.719 -0.0641 -0.4019  0.0187
  428MOL0     C57703   2.111   9.400   4.613 -0.2141 -1.0450 -0.4837
  428MOL0     O57704   2.241   9.408   4.581 -0.0512  0.4228  0.0488
  428MOL0     C57705   2.275   9.493   4.471 -0.8605 -0.4541 -0.6671
  428MOL0     C57706   2.425   9.496   4.467 -0.5947  0.2366 -0.0474
  428MOL0     C57707   2.497   9.364   4.460 -0.3435 -0.2297 -0.8145
  428MOL0     C57708   2.652   9.377   4.442 -0.0264 -0.0423 -0.2598
  428MOL0     C57709   2.698   9.424   4.313  0.9176  0.0473 -1.5676
  428MOL0     C57710   2.734   9.468   4.211 -0.4899 -0.4384  1.2293
  428MOL0     C57711   1.997   9.458   4.549 -0.1610 -0.0644  0.1499
  428MOL0     C57712   1.868   9.437   4.608 -0.3117 -0.3526 -0.4794
  428MOL0     H57713   1.451   9.225   4.789  0.5656 -1.8003 -1.4455
  428MOL0     H57714   1.270   9.159   4.916 -1.4541 -2.5427  1.2795
  428MOL0     H57715   1.307   8.843   5.196 -1.5787  1.9247 -1.4728
  428MOL0     H57716   1.385   8.944   5.327 -0.0673  0.4921  0.6819
  428MOL0     H57717   1.090   8.934   5.270  0.1655  0.6575  0.4006
  428MOL0     H57718   1.177   8.808   5.366  3.8591  0.9142  1.3619
  428MOL0     H57719   1.081   8.950   5.518 -1.2265  1.0968 -0.2795
  428MOL0     H57720   1.255   8.956   5.538 -0.7417  1.1327 -0.1189
  428MOL0     H57721   1.188   9.173   5.566  0.1218 -1.8361 -0.9862
  428MOL0     H57722   1.288   9.159   5.411 -0.3919 -1.0178 -3.2614
  428MOL0     H57723   1.092   9.160   5.286  0.2799  0.4014 -0.4615
  428MOL0     H57724   0.987   9.204   5.429 -1.5905  0.2506 -2.0351
  428MOL0     H57725   1.152   9.410   5.441  0.1278 -1.5798  0.5260
  428MOL0     H57726   1.199   9.361   5.275 -0.9922 -1.1961 -1.2815
  428MOL0     H57727   0.980   9.401   5.204  2.6140 -1.8715  0.4959
  428MOL0     H57728   0.915   9.419   5.369  1.4934  0.0077  1.2225
  428MOL0     H57729   1.068   9.623   5.405 -0.2042  1.4723 -0.2047
  428MOL0     H57730   0.936   9.645   5.304  0.6453  1.2686  4.2838
  428MOL0     H57731   1.064   9.531   5.021  2.2949  0.4845 -2.4308
  428MOL0     H57732   1.206   9.581   4.842 -2.8060  1.4782  0.0645
  428MOL0     H57733   1.246   9.751   4.823  1.7362  1.4329  1.4696
  428MOL0     H57734   1.422   9.578   4.764 -0.9112  1.6155  0.0328
  428MOL0     H57735   1.441   9.541   4.932  3.1384  1.3213  0.9212
  428MOL0     H57736   1.609   9.696   4.928 -0.3227  1.3217  1.2688
  428MOL0     H57737   1.481   9.823   4.914  0.6439  1.8380 -1.9505
  428MOL0     H57738   1.454   9.821   4.683 -1.3895 -2.3349 -0.4303
  428MOL0     H57739   1.581   9.712   4.645 -0.1636  1.0123 -0.7607
  428MOL0     H57740   1.805  10.088   4.739 -1.6774 -0.5084 -0.2000
  428MOL0     H57741   2.110  10.105   4.872  4.2086  3.3603 -1.5002
  428MOL0     H57742   2.139  10.103   4.693  1.2035 -0.0997  0.7893
  428MOL0     H57743   2.007  10.197   4.755 -0.4070  0.3678 -0.1912
  428MOL0     H57744   2.331   9.500   4.771  1.3110 -0.8655 -2.1587
  428MOL0     H57745   2.564   9.438   4.788  1.2006 -0.9545  0.4513
  428MOL0     H57746   2.831   9.578   5.064 -0.5559 -1.2889  1.6255
  428MOL0     H57747   2.746   9.442   4.982 -1.2022  0.3615 -3.8400
  428MOL0     H57748   3.045   9.548   4.916  3.4811 -3.2119  0.5762
  428MOL0     H57749   3.013   9.397   4.983  2.1302 -0.1017 -1.7686
  428MOL0     H57750   3.067   9.393   4.747  0.1216  0.8037 -0.6259
  428MOL0     H57751   2.928   9.477   4.702  2.4717 -0.3560 -1.1536
  428MOL0     H57752   2.796   9.288   4.842 -0.5142 -0.7873  0.4810
  428MOL0     H57753   2.864   9.246   4.678  0.8093  1.3239 -0.8534
  428MOL0     H57754   2.894   9.077   4.840 -2.6653  0.5721 -4.2474
  428MOL0     H57755   3.008   9.187   4.922 -0.0564 -0.7874  0.4662
  428MOL0     H57756   3.029   9.073   4.645  0.3748 -1.0801 -0.2016
  428MOL0     H57757   3.139   9.192   4.706 -2.7880  1.2729 -1.8741
  428MOL0     H57758   3.234   8.968   4.727 -1.8018  0.5705 -2.4768
  428MOL0     H57759   3.092   8.918   4.822 -1.0955 -0.5127 -0.6031
  428MOL0     H57760   3.286   8.971   4.969 -0.2726  0.5933  2.6129
  428MOL0     H57761   3.149   9.067   5.009  0.7501 -1.3786  0.8417
  428MOL0     H57762   2.661   9.806   4.977 -0.0243  1.7655 -2.4129
  428MOL0     H57763   2.428   9.864   4.992  2.4775 -0.0947  0.3132
  428MOL0     H57764   1.993   9.635   4.789 -1.2444 -0.4586 -1.4830
  428MOL0     H57765   1.763   9.661   4.755 -1.9849  0.8804 -0.0327
  428MOL0     H57766   1.556   9.024   5.227  0.1827  0.1746 -0.1859
  428MOL0     H57767   1.725   9.133   5.096  0.5776 -1.7183 -1.1172
  428MOL0     H57768   1.962   9.243   4.864  0.2133 -2.3267 -0.8359
  428MOL0     H57769   2.176   9.273   4.780 -0.1570 -0.4693  0.0986
  428MOL0     H57770   2.231   9.444   4.384 -2.6225 -0.5275  0.2383
  428MOL0     H57771   2.234   9.594   4.477 -0.7007 -0.4159 -0.1800
  428MOL0     H57772   2.460   9.557   4.550 -1.0909 -0.5979  0.7962
  428MOL0     H57773   2.452   9.548   4.375 -0.1914 -2.5229 -1.6257
  428MOL0     H57774   2.461   9.311   4.371  2.4951  0.3301 -2.4170
  428MOL0     H57775   2.480   9.300   4.547  0.3932 -0.4555 -0.8286
  428MOL0     H57776   2.691   9.276   4.456  1.4674  0.1193 -2.6547
  428MOL0     H57777   2.690   9.442   4.521 -2.0178  5.4223 -3.1781
  428MOL0     H57778   2.773   9.522   4.127  3.9529 -2.3251  1.8026
  428MOL0     H57779   2.007   9.518   4.460  0.0515 -1.2216 -0.6260
  428MOL0     H57780   1.779   9.483   4.564 -1.4647  0.1833  2.1935
  429MOL0     O57781   1.627   6.800   6.788  0.4781 -0.1296 -0.1534
  429MOL0     C57782   1.668   6.740   6.689 -0.4113 -0.9181  0.2413
  429MOL0     O57783   1.587   6.699   6.581 -0.1053  0.7317 -0.6617
  429MOL0     C57784   1.447   6.697   6.587 -0.6086 -0.6256 -0.4380
  429MOL0     C57785   1.363   6.728   6.697  0.9688  0.3318 -0.0032
  429MOL0     C57786   1.226   6.738   6.670 -0.5934 -0.1928  0.9561
  429MOL0     C57787   1.169   6.697   6.551  0.7534 -0.3246 -0.8039
  429MOL0     O57788   1.029   6.695   6.550 -0.3097 -0.3432 -0.6527
  429MOL0     C57789   0.965   6.705   6.420  0.2578 -0.4171  0.4196
  429MOL0     C57790   0.977   6.842   6.362  0.4052  0.4915 -1.1234
  429MOL0     C57791   0.899   6.955   6.428  0.8284 -0.2425  0.4850
  429MOL0     C57792   0.746   6.952   6.406  1.1629  0.1225 -0.0166
  429MOL0     C57793   0.709   7.010   6.266 -0.0312 -0.5105  0.0831
  429MOL0     C57794   0.569   7.075   6.257  0.0616  0.7170 -0.5824
  429MOL0     C57795   0.578   7.198   6.354  0.6905 -0.8934 -0.2298
  429MOL0     C57796   0.474   7.317   6.322 -0.4812 -0.3148  0.4388
  429MOL0     N57797   0.349   7.287   6.386  0.5228 -0.0707  0.6954
  429MOL0     C57798   0.255   7.192   6.346  0.6552  0.4145  0.1604
  429MOL0     C57799   0.167   7.187   6.450 -0.2950 -0.7412  0.0098
  429MOL0     C57800   0.051   7.085   6.464 -0.8332  0.5138  0.5310
  429MOL0     C57801  -0.047   7.082   6.353  0.3517  0.7437 -0.5503
  429MOL0     C57802  -0.168   6.993   6.386 -0.6429  0.0392  1.1933
  429MOL0     C57803  -0.279   7.004   6.273 -0.1270  0.6226 -0.1090
  429MOL0     O57804  -0.325   6.869   6.249  0.4808  0.3339 -0.0895
  429MOL0     C57805  -0.427   6.852   6.158  0.5149 -0.0036  0.7110
  429MOL0     C57806  -0.457   6.722   6.137 -0.1158  0.4310  0.5038
  429MOL0     C57807  -0.569   6.686   6.069 -0.4387  0.1098 -0.4685
  429MOL0     C57808  -0.591   6.536   6.042 -0.4488 -0.7049  0.8291
  429MOL0     C57809  -0.648   6.779   6.007 -0.2029  0.2568 -0.4286
  429MOL0     C57810  -0.757   6.753   5.919  0.8362 -0.2253 -0.7203
  429MOL0     O57811  -0.869   6.826   5.943 -0.6133  0.7624 -0.0228
  429MOL0     C57812  -0.991   6.785   5.893  0.3528  1.0786 -0.3666
  429MOL0     C57813  -1.089   6.877   5.853  0.3756 -0.0709  0.1424
  429MOL0     C57814  -1.211   6.836   5.809  0.7708  0.2949  0.2487
  429MOL0     C57815  -1.247   6.701   5.804  0.4140 -0.1174  0.3524
  429MOL0     O57816  -1.380   6.669   5.775 -0.3569 -0.3888 -0.2301
  429MOL0     C57817  -1.416   6.537   5.750 -0.0817 -0.0882  0.2005
  429MOL0     C57818  -1.565   6.521   5.713 -0.1747  0.4684 -0.0810
  429MOL0     C57819  -1.599   6.377   5.677  0.0601 -0.3759 -0.4908
  429MOL0     C57820  -1.735   6.350   5.617 -0.6829 -0.1400 -0.0364
  429MOL0     C57821  -1.852   6.428   5.676 -0.1413  0.3498  0.5368
  429MOL0     C57822  -1.985   6.389   5.619  0.9466 -0.6327  0.1025
  429MOL0     C57823  -2.096   6.477   5.679 -0.3473 -0.9596  0.2224
  429MOL0     C57824  -2.119   6.620   5.615 -0.0553  1.2186 -0.4115
  429MOL0    Cl57825  -2.190   6.571   5.450 -0.0629 -0.3755 -0.0438
  429MOL0     C57826  -1.158   6.600   5.850 -0.2612  0.1401 -0.0564
  429MOL0     C57827  -1.031   6.651   5.906  0.3188  0.4985  0.4883
  429MOL0     O57828  -0.744   6.671   5.833 -0.0746  0.0921 -0.1147
  429MOL0     C57829  -0.609   6.907   6.013 -0.3780 -0.0656  0.5793
  429MOL0     C57830  -0.498   6.951   6.090  0.1029  0.9333  0.9725
  429MOL0     N57831   0.206   7.278   6.548 -0.5695  0.2890 -0.1577
  429MOL0     N57832   0.319   7.321   6.508  0.0989  0.0866 -0.0073
  429MOL0     C57833   1.257   6.660   6.451  0.2105 -0.6776 -0.0460
  429MOL0     C57834   1.393   6.662   6.468  0.2160  0.1674 -0.0762
  429MOL0     C57835   1.815   6.709   6.681  0.1625 -0.6068 -0.8281
  429MOL0     C57836   1.882   6.665   6.573  0.4651 -0.8650  0.2532
  429MOL0     C57837   2.017   6.632   6.571  0.6639  0.8954 -0.6479
  429MOL0     C57838   2.091   6.651   6.686 -0.0876  0.0845  0.3236
  429MOL0     O57839   2.226   6.625   6.696  0.0566  0.4064 -0.3985
  429MOL0     C57840   2.301   6.670   6.586  0.4516 -0.2469  0.3064
  429MOL0     C57841   2.318   6.824   6.585  0.2149  0.5740 -0.3292
  429MOL0     C57842   2.376   6.880   6.714 -0.1816 -0.2318 -0.0728
  429MOL0     C57843   2.282   6.965   6.802  0.4783 -0.0897  0.4478
  429MOL0     C57844   2.319   6.956   6.941 -0.1743  1.0278 -0.6822
  429MOL0     C57845   2.387   6.928   7.042  0.3181  1.0358 -0.4644
  429MOL0     C57846   2.023   6.692   6.804 -0.7425  0.0779 -0.1977
  429MOL0     C57847   1.884   6.725   6.796 -0.1355 -0.4471 -0.8085
  429MOL0     H57848   1.389   6.748   6.800 -2.7513  0.1580  1.1367
  429MOL0     H57849   1.148   6.767   6.739 -2.9124 -1.8602 -0.8036
  429MOL0     H57850   1.005   6.627   6.355 -0.1701 -0.5181  0.2719
  429MOL0     H57851   0.863   6.674   6.446  0.4278  0.2465  2.0316
  429MOL0     H57852   1.083   6.870   6.369  0.7819 -1.1921  2.6766
  429MOL0     H57853   0.941   6.832   6.260  2.6988 -2.8514 -1.7708
  429MOL0     H57854   0.908   6.949   6.537  1.9823  1.4074  0.5002
  429MOL0     H57855   0.946   7.049   6.400  1.7942 -0.8300  0.1116
  429MOL0     H57856   0.703   6.852   6.418 -1.5846  1.1321 -0.7523
  429MOL0     H57857   0.701   7.022   6.477 -0.5064 -1.6752  0.8193
  429MOL0     H57858   0.778   7.091   6.241  2.1404 -2.0728  0.6800
  429MOL0     H57859   0.722   6.927   6.195 -1.7048 -0.5373 -0.2382
  429MOL0     H57860   0.543   7.094   6.153 -2.6486 -2.0043 -0.5485
  429MOL0     H57861   0.488   7.014   6.298  1.5764 -0.5362  0.6871
  429MOL0     H57862   0.560   7.172   6.459  0.6349  1.7282  0.4844
  429MOL0     H57863   0.677   7.242   6.348  0.1648  0.1048 -3.0199
  429MOL0     H57864   0.458   7.317   6.214  0.1807  0.4504  0.3376
  429MOL0     H57865   0.514   7.413   6.356  0.7096 -0.4826 -0.4246
  429MOL0     H57866   0.263   7.125   6.260 -0.3145  3.8163 -2.8516
  429MOL0     H57867   0.097   6.986   6.464  3.1277  2.1655 -0.4332
  429MOL0     H57868   0.011   7.118   6.561  1.5152  0.2212  1.6719
  429MOL0     H57869   0.004   7.043   6.264  0.3906  1.6684 -0.9550
  429MOL0     H57870  -0.076   7.182   6.317  0.9974  1.4507  0.8108
  429MOL0     H57871  -0.210   7.030   6.480 -2.0879 -2.1520  1.4790
  429MOL0     H57872  -0.131   6.891   6.399 -1.3666 -0.1302  2.0715
  429MOL0     H57873  -0.227   7.055   6.192  1.6407 -0.7056  0.1344
  429MOL0     H57874  -0.365   7.064   6.306 -0.0291  1.9873 -2.1845
  429MOL0     H57875  -0.396   6.647   6.188  1.7460 -1.8915 -4.4480
  429MOL0     H57876  -0.654   6.478   6.109 -1.5796  1.7701  2.0373
  429MOL0     H57877  -0.626   6.511   5.941 -0.6862  1.1963  0.4084
  429MOL0     H57878  -0.493   6.488   6.049  0.1847  0.0412 -1.7566
  429MOL0     H57879  -1.056   6.979   5.869  1.3826 -0.1651 -1.2182
  429MOL0     H57880  -1.280   6.908   5.764  2.2425  1.5608 -0.0691
  429MOL0     H57881  -1.353   6.490   5.674 -0.2002 -2.0990  1.2737
  429MOL0     H57882  -1.398   6.485   5.845  2.0935 -1.4289 -0.8818
  429MOL0     H57883  -1.633   6.563   5.788 -0.0154  1.7108 -0.6191
  429MOL0     H57884  -1.580   6.580   5.623 -3.4496  0.1013  0.1050
  429MOL0     H57885  -1.576   6.309   5.760  0.9003 -0.9690 -1.1835
  429MOL0     H57886  -1.532   6.354   5.593 -1.4784  2.7108 -2.7883
  429MOL0     H57887  -1.725   6.375   5.511  1.2089 -2.2401 -0.4301
  429MOL0     H57888  -1.743   6.242   5.626  0.3024 -0.0615  2.7838
  429MOL0     H57889  -1.850   6.536   5.661 -2.4852  0.8514  3.0407
  429MOL0     H57890  -1.846   6.409   5.783  1.1843 -0.3398  0.3657
  429MOL0     H57891  -1.995   6.395   5.510  0.6909 -0.5347  0.1292
  429MOL0     H57892  -1.998   6.285   5.649 -1.9791 -0.2369  0.5548
  429MOL0     H57893  -2.074   6.482   5.786  0.2219 -0.3605  0.0762
  429MOL0     H57894  -2.194   6.427   5.674 -0.6225 -0.3599 -0.8739
  429MOL0     H57895  -2.028   6.680   5.608  0.0755  1.1205  0.3175
  429MOL0     H57896  -2.189   6.675   5.678 -1.6051  1.8634 -2.5933
  429MOL0     H57897  -1.188   6.498   5.871 -0.3797  0.0689 -0.5743
  429MOL0     H57898  -0.956   6.585   5.949 -0.7260 -1.5469 -0.6962
  429MOL0     H57899  -0.672   6.976   5.958 -3.3434 -1.2977  2.2339
  429MOL0     H57900  -0.477   7.057   6.084 -0.6288  1.0088 -1.0867
  429MOL0     H57901   1.216   6.647   6.352 -1.1383  3.6255 -0.2777
  429MOL0     H57902   1.461   6.635   6.388  1.3326  1.7837  0.2797
  429MOL0     H57903   1.821   6.654   6.483 -0.0625  2.6118  0.0250
  429MOL0     H57904   2.056   6.584   6.482  0.7709 -1.4796  0.5797
  429MOL0     H57905   2.403   6.632   6.600  0.9957 -0.2895 -2.9569
  429MOL0     H57906   2.256   6.632   6.494 -0.7965  1.0803  0.3242
  429MOL0     H57907   2.228   6.881   6.561  0.9543  1.6138 -0.6948
  429MOL0     H57908   2.377   6.849   6.496 -0.9335 -1.3075 -1.7096
  429MOL0     H57909   2.465   6.941   6.693  0.1794 -0.7209  0.0151
  429MOL0     H57910   2.416   6.792   6.765 -1.6033 -1.8374 -1.5841
  429MOL0     H57911   2.181   6.930   6.781 -0.7465  3.8507 -1.0644
  429MOL0     H57912   2.290   7.068   6.767 -0.3631 -0.2670 -0.3012
  429MOL0     H57913   2.442   6.911   7.133  1.6413  1.7433 -1.1088
  429MOL0     H57914   2.078   6.694   6.897  0.1521 -1.2763 -0.6787
  429MOL0     H57915   1.856   6.768   6.891 -3.1468 -0.6491 -1.5141
  430MOL0     O57916   5.590   0.977   1.789  0.5600  0.6401  0.1534
  430MOL0     C57917   5.629   0.998   1.900  0.6289  0.0516  0.4293
  430MOL0     O57918   5.556   0.974   2.022 -0.0890 -0.4810 -0.3814
  430MOL0     C57919   5.422   0.925   2.019 -0.5941 -0.3621 -0.0814
  430MOL0     C57920   5.352   0.863   1.914 -0.5687 -0.6485 -0.4517
  430MOL0     C57921   5.223   0.816   1.924 -0.0903  0.1386 -0.5450
  430MOL0     C57922   5.148   0.815   2.049 -0.5429 -0.6833 -0.7871
  430MOL0     O57923   5.016   0.772   2.055 -0.2265  0.0556  0.5575
  430MOL0     C57924   4.962   0.763   2.187 -0.4720 -0.9850 -0.5177
  430MOL0     C57925   4.837   0.679   2.183 -0.7775  0.1243 -0.0947
  430MOL0     C57926   4.876   0.534   2.172 -0.7351 -0.7729  0.8152
  430MOL0     C57927   4.756   0.447   2.179  0.2485  0.4702 -0.2887
  430MOL0     C57928   4.794   0.295   2.182  1.2303  0.4801  0.0821
  430MOL0     C57929   4.678   0.208   2.216 -0.1993  0.6853 -0.1749
  430MOL0     C57930   4.705   0.058   2.181  0.6470 -0.2831  0.8161
  430MOL0     C57931   4.598  -0.048   2.227 -0.8748 -0.7278  0.0471
  430MOL0     N57932   4.456   0.002   2.210 -0.3225  0.1584 -0.6114
  430MOL0     C57933   4.384   0.110   2.285 -0.9545 -0.7505  0.3082
  430MOL0     C57934   4.268   0.122   2.216  0.5804 -0.2166  0.2369
  430MOL0     C57935   4.168   0.232   2.257 -0.0866  0.7254 -0.5782
  430MOL0     C57936   4.201   0.360   2.191  0.6043  0.3657  0.6491
  430MOL0     C57937   4.123   0.490   2.226 -0.4213 -0.6513  0.0504
  430MOL0     C57938   3.977   0.482   2.222 -0.2217 -0.0260  1.0878
  430MOL0     O57939   3.923   0.609   2.229 -0.8221  0.5202 -0.4589
  430MOL0     C57940   3.788   0.628   2.258 -0.0788 -0.4777 -0.7258
  430MOL0     C57941   3.734   0.753   2.251 -0.3965 -0.4950 -0.5532
  430MOL0     C57942   3.600   0.783   2.253  0.2438  0.4425  0.5667
  430MOL0     C57943   3.565   0.935   2.230  0.2058  0.3328 -0.0421
  430MOL0     C57944   3.511   0.680   2.266  0.4908  0.3276  0.2178
  430MOL0     C57945   3.360   0.684   2.254 -0.0950  0.1904 -0.3857
  430MOL0     O57946   3.295   0.706   2.142 -0.5254  0.2119 -0.3052
  430MOL0     C57947   3.162   0.692   2.123  0.4093 -0.2058  0.6475
  430MOL0     C57948   3.083   0.807   2.095 -0.1425  0.7774  0.6949
  430MOL0     C57949   2.948   0.795   2.053  0.8789 -0.7361 -0.3087
  430MOL0     C57950   2.883   0.666   2.043  0.4493  0.3618  0.6958
  430MOL0     O57951   2.754   0.654   1.991  0.1721 -0.1028 -0.6479
  430MOL0     C57952   2.678   0.540   2.022 -1.1876  0.0358  0.6491
  430MOL0     C57953   2.539   0.579   1.979 -0.0437  0.0614 -0.5830
  430MOL0     C57954   2.482   0.713   2.038 -0.0268  0.7612 -0.4000
  430MOL0     C57955   2.346   0.747   1.989  0.1691  0.6480 -0.3306
  430MOL0     C57956   2.282   0.843   2.085 -0.2660  0.0761  0.1153
  430MOL0     C57957   2.140   0.876   2.047  0.0276  0.0118  0.2354
  430MOL0     C57958   2.072   0.969   2.148 -0.1118  0.6160 -0.4597
  430MOL0     C57959   1.920   0.986   2.123  0.7200  1.4782  0.1897
  430MOL0    Cl57960   1.830   0.831   2.105 -0.0281  0.0556 -0.3481
  430MOL0     C57961   2.965   0.554   2.067  0.5773  0.6045 -0.7038
  430MOL0     C57962   3.104   0.560   2.108 -0.3864 -0.3267 -0.3802
  430MOL0     O57963   3.304   0.651   2.365 -0.5947 -0.8361  0.0602
  430MOL0     C57964   3.563   0.545   2.291  0.8880  0.6235  0.1469
  430MOL0     C57965   3.694   0.520   2.285 -1.5593  0.2794 -0.1286
  430MOL0     N57966   4.270   0.046   2.108 -0.0267  0.4542 -0.2815
  430MOL0     N57967   4.381  -0.016   2.099 -0.2982 -0.4592  0.3245
  430MOL0     C57968   5.222   0.888   2.157 -0.0366  0.2393  0.0960
  430MOL0     C57969   5.356   0.932   2.147 -0.9424  0.2040 -0.3462
  430MOL0     C57970   5.759   1.059   1.904 -0.5217 -0.2880  0.2810
  430MOL0     C57971   5.851   1.067   1.802  0.1545 -0.5225 -1.0288
  430MOL0     C57972   5.973   1.130   1.817 -0.7752  0.9809  0.1608
  430MOL0     C57973   6.022   1.175   1.942  0.5756  0.2624 -0.5537
  430MOL0     O57974   6.141   1.229   1.971 -0.4219 -0.4103 -1.1026
  430MOL0     C57975   6.232   1.246   1.855  1.5605 -1.2912 -0.5226
  430MOL0     C57976   6.374   1.301   1.881  0.2974  0.1473 -1.0315
  430MOL0     C57977   6.376   1.439   1.938  1.0815  0.1357 -0.6003
  430MOL0     C57978   6.375   1.546   1.830 -0.3152 -0.1434 -0.2604
  430MOL0     C57979   6.256   1.559   1.745  0.1052  0.6405  0.3030
  430MOL0     C57980   6.154   1.586   1.683 -0.1931 -0.0954  0.4458
  430MOL0     C57981   5.937   1.156   2.053  0.4113 -0.0191 -0.4157
  430MOL0     C57982   5.813   1.099   2.034 -0.4256  0.3652 -0.1921
  430MOL0     H57983   5.387   0.858   1.811  0.4677 -1.5605 -0.0783
  430MOL0     H57984   5.186   0.778   1.829 -1.0034  1.3749 -0.7120
  430MOL0     H57985   5.017   0.714   2.269 -2.4391 -2.5886 -0.0921
  430MOL0     H57986   4.929   0.858   2.229  1.6323 -0.0132 -0.9414
  430MOL0     H57987   4.778   0.708   2.271  1.3455  1.1387  1.0802
  430MOL0     H57988   4.790   0.700   2.087  0.1731  0.5798 -0.4774
  430MOL0     H57989   4.943   0.516   2.088 -1.7747 -3.4368  0.4350
  430MOL0     H57990   4.937   0.505   2.259  1.4288 -0.2428 -0.4468
  430MOL0     H57991   4.690   0.470   2.263  0.2380  0.1506 -0.2049
  430MOL0     H57992   4.687   0.471   2.098 -0.2085  4.2472  1.0497
  430MOL0     H57993   4.854   0.258   2.098  3.2697  0.0501  1.6381
  430MOL0     H57994   4.864   0.288   2.266  0.9907  0.6463  0.2940
  430MOL0     H57995   4.667   0.224   2.324  0.3293 -1.9500  0.3490
  430MOL0     H57996   4.589   0.243   2.164 -0.5264  0.0679 -0.0424
  430MOL0     H57997   4.728   0.050   2.074 -1.5788  0.3270  0.2461
  430MOL0     H57998   4.795   0.020   2.231  0.5037 -1.9128 -0.0603
  430MOL0     H57999   4.612  -0.064   2.334 -2.8639  1.1683  0.6602
  430MOL0     H58000   4.619  -0.136   2.165 -0.4295  0.5480 -1.6928
  430MOL0     H58001   4.399   0.172   2.373 -2.6798  0.6888 -0.3408
  430MOL0     H58002   4.064   0.209   2.233  0.2917 -1.4321 -0.3557
  430MOL0     H58003   4.180   0.235   2.366  0.9704 -2.3234 -0.5307
  430MOL0     H58004   4.196   0.352   2.082  0.1394 -0.5504  0.7277
  430MOL0     H58005   4.307   0.378   2.211 -0.0172  1.3086  3.8156
  430MOL0     H58006   4.158   0.575   2.167  3.1614 -2.1439 -0.2589
  430MOL0     H58007   4.162   0.520   2.324 -1.3481 -2.1401  0.9064
  430MOL0     H58008   3.942   0.408   2.295  1.4341 -2.6445 -0.6094
  430MOL0     H58009   3.955   0.453   2.119  2.3183  0.0703  0.4528
  430MOL0     H58010   3.801   0.826   2.207  2.6673 -3.6096 -1.4700
  430MOL0     H58011   3.507   0.951   2.139  1.0675 -0.7935 -0.8180
  430MOL0     H58012   3.494   0.962   2.309 -1.3786 -0.9431 -0.9519
  430MOL0     H58013   3.642   1.011   2.234  0.2058  0.3267  0.1008
  430MOL0     H58014   3.128   0.906   2.104  0.7285  0.8253 -2.5907
  430MOL0     H58015   2.898   0.888   2.030  0.7988 -0.3794  1.1837
  430MOL0     H58016   2.707   0.457   1.957 -0.4687  0.0017  1.0121
  430MOL0     H58017   2.686   0.512   2.127 -0.2718 -1.9872  0.0858
  430MOL0     H58018   2.547   0.591   1.871  4.6138  0.6765 -0.3740
  430MOL0     H58019   2.480   0.489   1.996  0.7989  0.2224  4.9862
  430MOL0     H58020   2.542   0.799   2.008 -1.7634  1.5335 -1.8728
  430MOL0     H58021   2.482   0.697   2.146  1.7602 -1.8320 -0.6894
  430MOL0     H58022   2.338   0.782   1.885 -2.4827 -0.0908 -0.4649
  430MOL0     H58023   2.274   0.665   1.984 -2.7445  3.0131  0.0012
  430MOL0     H58024   2.329   0.940   2.064 -1.5822  0.0644 -3.4657
  430MOL0     H58025   2.280   0.800   2.186 -2.5013 -3.0432 -1.1262
  430MOL0     H58026   2.140   0.929   1.952  2.1001 -0.5825 -0.1459
  430MOL0     H58027   2.076   0.789   2.028  0.8044 -0.0037 -2.8824
  430MOL0     H58028   2.123   1.066   2.147  0.1267  0.5548  1.7633
  430MOL0     H58029   2.083   0.942   2.253 -1.8620 -0.2861 -0.4694
  430MOL0     H58030   1.902   1.033   2.026  1.6299  3.0040  0.7208
  430MOL0     H58031   1.874   1.041   2.206  0.2124 -0.9477  1.6196
  430MOL0     H58032   2.939   0.451   2.046  2.7488  0.1711 -1.6028
  430MOL0     H58033   3.159   0.472   2.137  0.1414  0.3799  0.8314
  430MOL0     H58034   3.494   0.465   2.318  2.0350 -0.1230  0.9424
  430MOL0     H58035   3.732   0.420   2.303  0.7215  0.8003 -1.6411
  430MOL0     H58036   5.162   0.919   2.242 -0.2008  0.1643  0.0059
  430MOL0     H58037   5.397   0.989   2.230  0.9145  1.3004 -1.9202
  430MOL0     H58038   5.835   1.033   1.700  0.4294 -0.3502 -1.1327
  430MOL0     H58039   6.029   1.144   1.725  0.7262 -1.5950  0.5972
  430MOL0     H58040   6.230   1.146   1.810 -2.2706 -1.0655 -1.2036
  430MOL0     H58041   6.185   1.309   1.779  2.0708  0.1430  0.2969
  430MOL0     H58042   6.441   1.285   1.797  1.4667  1.2794 -0.3617
  430MOL0     H58043   6.414   1.238   1.961 -1.1584  1.0203  0.4694
  430MOL0     H58044   6.468   1.458   1.993 -1.5786  1.9854  3.7399
  430MOL0     H58045   6.298   1.449   2.014  1.2852  1.4157 -0.5398
  430MOL0     H58046   6.470   1.549   1.774  0.2243  4.2975  0.4816
  430MOL0     H58047   6.374   1.643   1.881  1.8507  0.4418 -1.1839
  430MOL0     H58048   6.073   1.608   1.617  1.8578  0.3586 -2.0716
  430MOL0     H58049   5.967   1.180   2.155  0.4391 -3.1658  0.4197
  430MOL0     H58050   5.768   1.076   2.130  0.9028  1.5001  0.7427
  431MOL0     O58051   7.087  11.040   1.111 -0.7061 -0.1906  0.3144
  431MOL0     C58052   7.121  11.133   1.033  0.0829  0.1891 -0.7757
  431MOL0     O58053   7.060  11.155   0.907 -0.6751  0.2646 -0.3423
  431MOL0     C58054   6.938  11.105   0.873  1.2625 -0.5736  0.3877
  431MOL0     C58055   6.910  11.075   0.739  0.3532 -0.2049 -0.7901
  431MOL0     C58056   6.786  11.038   0.699  0.7950 -0.0194 -0.3609
  431MOL0     C58057   6.676  11.043   0.791  0.0230 -0.1884 -0.1591
  431MOL0     O58058   6.558  11.017   0.734 -0.1749  0.1571  0.4294
  431MOL0     C58059   6.460  11.114   0.752  0.3589 -0.1824 -0.4137
  431MOL0     C58060   6.505  11.227   0.656  0.1644  0.0047  0.3262
  431MOL0     C58061   6.384  11.317   0.606  0.0061  1.3011  0.4102
  431MOL0     C58062   6.322  11.246   0.481  0.4595 -0.0544  0.3516
  431MOL0     C58063   6.209  11.333   0.419 -0.2958  0.5418  0.1379
  431MOL0     C58064   6.074  11.325   0.498 -0.2291  0.4072  0.3004
  431MOL0     C58065   5.952  11.400   0.421 -0.7797  0.1563  0.3736
  431MOL0     C58066   5.923  11.319   0.295 -0.6562  0.0882  0.1845
  431MOL0     N58067   5.841  11.386   0.201 -0.2106 -0.1482 -0.2474
  431MOL0     C58068   5.705  11.355   0.177 -1.5192 -0.2941  0.2930
  431MOL0     C58069   5.673  11.435   0.072 -0.4185 -0.1168  0.6603
  431MOL0     C58070   5.539  11.433   0.009 -0.1219  0.0675  0.8830
  431MOL0     C58071   5.565  11.413  -0.140  0.7589  0.0277  0.4280
  431MOL0     C58072   5.460  11.325  -0.213 -0.4569  0.4413 -0.6938
  431MOL0     C58073   5.321  11.384  -0.229  0.1893 -0.1238 -0.2610
  431MOL0     O58074   5.246  11.355  -0.112  0.2944  0.0208  0.1278
  431MOL0     C58075   5.126  11.411  -0.093  0.0520 -0.7463  0.4460
  431MOL0     C58076   5.089  11.541  -0.159  1.3397 -0.5581  0.5934
  431MOL0     C58077   4.957  11.587  -0.132 -1.0323 -0.2820 -0.0121
  431MOL0     C58078   4.921  11.719  -0.194  0.7526 -0.1550 -0.0459
  431MOL0     C58079   4.871  11.526  -0.036 -0.3070 -0.0962  0.5007
  431MOL0     C58080   4.742  11.572  -0.010  0.0777 -0.1005  1.1162
  431MOL0     O58081   4.638  11.494  -0.018  0.2403  0.1348  0.2637
  431MOL0     C58082   4.517  11.531   0.036 -0.8982  0.2053 -0.3323
  431MOL0     C58083   4.429  11.619  -0.029  0.3534  0.5114  0.1771
  431MOL0     C58084   4.304  11.636   0.033 -0.3093 -1.3093  0.5162
  431MOL0     C58085   4.270  11.588   0.160  0.6928  0.0837 -0.4468
  431MOL0     O58086   4.143  11.609   0.217 -0.1693 -0.3201 -0.0948
  431MOL0     C58087   4.053  11.714   0.175  0.3799  0.3179 -0.5198
  431MOL0     C58088   3.940  11.712   0.270 -0.0641  0.1951 -0.2800
  431MOL0     C58089   3.872  11.845   0.248  0.5860  0.6401  0.2785
  431MOL0     C58090   3.729  11.846   0.316  0.6219  0.2713 -0.2481
  431MOL0     C58091   3.644  11.976   0.298 -0.4295  0.3328  1.1535
  431MOL0     C58092   3.528  11.987   0.387  0.1215 -1.0216  0.4276
  431MOL0     C58093   3.448  12.114   0.360 -0.3658  0.4467  0.0369
  431MOL0     C58094   3.391  12.173   0.484 -0.5821  0.4222 -0.6256
  431MOL0    Cl58095   3.275  12.062   0.567 -0.2185  0.2554  0.2543
  431MOL0     C58096   4.363  11.515   0.229  0.6854 -0.2381 -0.4521
  431MOL0     C58097   4.493  11.484   0.169  0.4532 -0.4624 -0.2489
  431MOL0     O58098   4.743  11.686   0.043  0.0612  0.2922 -0.3864
  431MOL0     C58099   4.907  11.409   0.025 -1.8256  0.3570  0.3596
  431MOL0     C58100   5.034  11.353  -0.003 -1.0605 -1.5281 -0.1244
  431MOL0     N58101   5.782  11.522   0.045 -0.4256  0.2577 -0.1185
  431MOL0     N58102   5.877  11.495   0.125 -0.1076  0.1013  0.4735
  431MOL0     C58103   6.703  11.070   0.925  0.8164  0.6033  0.9402
  431MOL0     C58104   6.836  11.106   0.967  0.5224  0.2977 -0.4504
  431MOL0     C58105   7.256  11.204   1.066  1.3332  0.1355  0.2934
  431MOL0     C58106   7.316  11.182   1.183 -0.0462  0.1124  0.4553
  431MOL0     C58107   7.436  11.244   1.206  0.4683 -0.0214 -0.1145
  431MOL0     C58108   7.487  11.349   1.126  0.3959 -0.8551 -0.0958
  431MOL0     O58109   7.603  11.420   1.152  0.5870  0.4527  0.4486
  431MOL0     C58110   7.567  11.525   1.249 -0.3433 -0.6601 -0.6516
  431MOL0     C58111   7.691  11.592   1.301  0.4939  0.0023  0.0521
  431MOL0     C58112   7.663  11.689   1.418 -0.8596  0.6142  0.1212
  431MOL0     C58113   7.801  11.746   1.473  0.3315  0.1319  0.3352
  431MOL0     C58114   7.781  11.804   1.607  0.0746 -0.3044  0.8838
  431MOL0     C58115   7.766  11.854   1.714  0.6035 -0.0266 -0.2986
  431MOL0     C58116   7.421  11.366   1.006  0.6518 -0.6224  0.0897
  431MOL0     C58117   7.305  11.289   0.976 -0.2766  0.1768  0.8298
  431MOL0     H58118   6.990  11.077   0.665  1.3061 -1.4134  0.1639
  431MOL0     H58119   6.761  11.023   0.594  0.1613 -1.6418 -0.0110
  431MOL0     H58120   6.365  11.063   0.731 -0.0380  0.3219  0.1431
  431MOL0     H58121   6.456  11.157   0.852  2.0990 -0.8633 -0.0238
  431MOL0     H58122   6.569  11.293   0.715 -0.8927 -0.5051  2.1219
  431MOL0     H58123   6.561  11.183   0.574 -0.3814 -0.8154  0.3814
  431MOL0     H58124   6.313  11.337   0.687 -1.1197  0.2609 -0.2857
  431MOL0     H58125   6.420  11.411   0.564  0.0568  1.1987  0.2217
  431MOL0     H58126   6.402  11.231   0.408  2.5137 -0.4549  2.5675
  431MOL0     H58127   6.280  11.150   0.512 -0.2367 -0.5625 -1.9704
  431MOL0     H58128   6.248  11.435   0.405 -0.1665  0.3269 -1.2015
  431MOL0     H58129   6.199  11.288   0.320  0.7588 -1.2613  0.7962
  431MOL0     H58130   6.045  11.220   0.512  0.4303  0.4217  1.9073
  431MOL0     H58131   6.095  11.372   0.594 -3.7020  4.0487 -0.4764
  431MOL0     H58132   5.861  11.402   0.482 -1.6889 -0.7741 -0.8900
  431MOL0     H58133   5.990  11.499   0.398 -2.7757  1.4697  2.2635
  431MOL0     H58134   5.876  11.222   0.312 -1.1858  0.2019 -0.5533
  431MOL0     H58135   6.013  11.304   0.233 -1.1590  0.3642 -0.6274
  431MOL0     H58136   5.655  11.272   0.227  0.4028 -0.7541  1.5699
  431MOL0     H58137   5.481  11.356   0.060 -0.5170 -0.2293  0.0020
  431MOL0     H58138   5.489  11.529   0.025 -1.3127 -0.7229  2.0594
  431MOL0     H58139   5.665  11.376  -0.160  2.5430  2.6735  3.5192
  431MOL0     H58140   5.549  11.508  -0.192  0.5607  1.6061  3.1604
  431MOL0     H58141   5.445  11.222  -0.178 -0.3808 -0.9326 -4.2294
  431MOL0     H58142   5.497  11.310  -0.315  1.3658  0.6548 -0.0945
  431MOL0     H58143   5.275  11.334  -0.314 -0.2219  1.2657 -0.8943
  431MOL0     H58144   5.331  11.490  -0.254 -1.9313  0.1469 -0.1100
  431MOL0     H58145   5.154  11.598  -0.224  1.7952 -0.9522  0.7011
  431MOL0     H58146   4.993  11.749  -0.271  1.7186 -2.6246 -0.1913
  431MOL0     H58147   4.821  11.713  -0.238  1.8283  0.2607 -2.7151
  431MOL0     H58148   4.927  11.800  -0.120  0.8656  0.9080 -1.1792
  431MOL0     H58149   4.450  11.661  -0.127 -0.0656  0.4011  0.0401
  431MOL0     H58150   4.239  11.694  -0.033  1.9263 -0.8439 -1.4520
  431MOL0     H58151   4.103  11.811   0.190  0.6116  0.1822 -0.4064
  431MOL0     H58152   4.014  11.709   0.073 -0.9613 -0.5523  0.0167
  431MOL0     H58153   3.873  11.630   0.242 -0.0607 -0.3860  1.3237
  431MOL0     H58154   3.970  11.697   0.374  2.9754 -3.6475 -1.4721
  431MOL0     H58155   3.845  11.854   0.142  0.6455  0.0893  0.2154
  431MOL0     H58156   3.935  11.931   0.271  1.9847 -0.7622  1.8924
  431MOL0     H58157   3.673  11.757   0.289 -0.3879  0.4271  1.2372
  431MOL0     H58158   3.747  11.827   0.422 -2.6953 -0.6277  0.2645
  431MOL0     H58159   3.605  11.982   0.196 -1.0010  0.7848  1.3975
  431MOL0     H58160   3.708  12.064   0.311  0.6063 -0.6514  3.1673
  431MOL0     H58161   3.452  11.914   0.355 -1.8875  0.7172  0.9694
  431MOL0     H58162   3.560  11.987   0.491  1.5774  1.8081  0.0440
  431MOL0     H58163   3.368  12.099   0.286  0.2445 -3.6459 -0.0550
  431MOL0     H58164   3.509  12.191   0.312 -2.6298  3.1597  1.2297
  431MOL0     H58165   3.345  12.268   0.456  0.3020  0.8420 -0.7021
  431MOL0     H58166   3.476  12.188   0.552  0.7587 -2.0044 -1.6343
  431MOL0     H58167   4.336  11.472   0.325  1.4811 -2.3570 -1.1203
  431MOL0     H58168   4.565  11.420   0.221  0.0494 -1.8280 -1.3091
  431MOL0     H58169   4.841  11.362   0.098 -1.0368 -0.8803  0.3063
  431MOL0     H58170   5.076  11.256   0.025  3.7258  0.0683 -0.7495
  431MOL0     H58171   6.618  11.066   0.993  0.1477 -0.0667  0.1001
  431MOL0     H58172   6.862  11.147   1.064 -0.1295  1.1939 -0.6405
  431MOL0     H58173   7.263  11.123   1.257 -2.2538  1.7438  0.2761
  431MOL0     H58174   7.488  11.233   1.301  1.5379 -0.7083 -0.7512
  431MOL0     H58175   7.506  11.604   1.203 -0.2432 -0.8209 -1.0598
  431MOL0     H58176   7.510  11.500   1.340  1.1987 -1.4252  0.1510
  431MOL0     H58177   7.740  11.656   1.226 -0.7424 -1.2378 -1.8985
  431MOL0     H58178   7.769  11.520   1.327  1.5698  1.7196  1.9159
  431MOL0     H58179   7.609  11.639   1.499 -2.0113  0.0528 -0.9648
  431MOL0     H58180   7.613  11.780   1.382  1.1846  1.6871 -0.1322
  431MOL0     H58181   7.847  11.820   1.406 -1.9578  0.0663 -1.4133
  431MOL0     H58182   7.863  11.659   1.498  1.9582  0.8828 -0.8827
  431MOL0     H58183   7.758  11.898   1.811 -1.7766  1.6894 -1.2074
  431MOL0     H58184   7.443  11.443   0.933 -1.5425  0.1760  0.1632
  431MOL0     H58185   7.266  11.293   0.875  1.8666 -2.9373 -0.2708
  432MOL0     O58186   6.404   9.817   1.903  0.1894  0.1396 -0.1123
  432MOL0     C58187   6.497   9.876   1.851 -0.5624 -0.3526  0.0168
  432MOL0     O58188   6.492   9.948   1.732 -0.6278 -0.1503 -0.4323
  432MOL0     C58189   6.375   9.957   1.653 -0.5956 -0.7432  0.0466
  432MOL0     C58190   6.242   9.913   1.685 -0.6783  0.2276  0.1354
  432MOL0     C58191   6.132   9.938   1.595 -0.6498  0.1535 -0.2471
  432MOL0     C58192   6.153  10.007   1.477 -0.0914  1.0514  0.3984
  432MOL0     O58193   6.061  10.032   1.378  0.4829 -0.3694 -0.7922
  432MOL0     C58194   5.927   9.982   1.400 -0.9654 -0.4161  0.2490
  432MOL0     C58195   5.848  10.024   1.280 -0.2846 -0.3756 -0.4146
  432MOL0     C58196   5.711   9.950   1.284  0.4066 -0.1840 -0.0622
  432MOL0     C58197   5.631   9.978   1.157  0.1940 -0.5725 -0.3465
  432MOL0     C58198   5.503   9.904   1.161 -0.2672 -0.7381  0.1833
  432MOL0     C58199   5.423   9.921   1.031 -0.1394 -0.0508 -0.4613
  432MOL0     C58200   5.268   9.917   1.051  0.4731 -0.9925  0.2705
  432MOL0     C58201   5.199   9.872   0.919  0.1973  0.1988 -0.5597
  432MOL0     N58202   5.051   9.842   0.932 -0.1633  0.3498 -0.2355
  432MOL0     C58203   4.997   9.713   0.932 -0.1991  0.5860 -0.5448
  432MOL0     C58204   4.871   9.728   0.886  1.1028 -0.2482  0.2961
  432MOL0     C58205   4.787   9.608   0.839  0.4063  0.1054  0.5195
  432MOL0     C58206   4.638   9.617   0.879 -0.1002 -0.0452 -0.0686
  432MOL0     C58207   4.553   9.504   0.820 -0.0951 -0.2242  0.2426
  432MOL0     C58208   4.401   9.522   0.860 -1.1313 -0.3188  0.0156
  432MOL0     O58209   4.316   9.415   0.819  0.3443 -0.1996  0.1609
  432MOL0     C58210   4.182   9.425   0.819 -1.4026 -0.7520  0.6323
  432MOL0     C58211   4.115   9.542   0.864  0.4898 -0.0753 -0.8705
  432MOL0     C58212   3.979   9.546   0.874  1.3407  0.5500 -0.2993
  432MOL0     C58213   3.911   9.665   0.944  0.2985 -0.5953  0.6492
  432MOL0     C58214   3.903   9.441   0.817 -0.2602 -0.1222  0.1019
  432MOL0     C58215   3.750   9.444   0.801  0.0511 -0.1406 -0.1899
  432MOL0     O58216   3.694   9.323   0.808 -0.9698  0.9028  0.0432
  432MOL0     C58217   3.559   9.296   0.810  0.2280 -0.6160  0.0397
  432MOL0     C58218   3.502   9.214   0.910 -0.7225  0.6926  1.1700
  432MOL0     C58219   3.364   9.200   0.918  0.1212 -0.1665 -0.3423
  432MOL0     C58220   3.276   9.274   0.840  0.5289 -0.7816  0.4902
  432MOL0     O58221   3.137   9.250   0.867  0.1924 -0.3935 -0.6510
  432MOL0     C58222   3.033   9.343   0.823 -0.6040 -0.0104  0.3822
  432MOL0     C58223   2.912   9.331   0.913  0.0666  0.7886  0.9198
  432MOL0     C58224   2.935   9.365   1.059  1.1219  0.1726 -0.3509
  432MOL0     C58225   2.818   9.322   1.146 -0.2153 -0.1559 -0.6357
  432MOL0     C58226   2.716   9.442   1.183 -0.5960  0.3480  0.4467
  432MOL0     C58227   2.593   9.390   1.263  0.3082 -0.2041  0.7897
  432MOL0     C58228   2.516   9.495   1.341  0.2395  0.0974  0.0957
  432MOL0     C58229   2.385   9.432   1.379  0.2141 -0.2100  0.4997
  432MOL0    Cl58230   2.290   9.543   1.484 -0.0793  0.0355 -0.1710
  432MOL0     C58231   3.330   9.355   0.741 -0.3119  0.0047 -0.1297
  432MOL0     C58232   3.470   9.371   0.725 -0.3490 -0.2243 -0.2885
  432MOL0     O58233   3.689   9.554   0.783  0.5013  0.2287 -0.2978
  432MOL0     C58234   3.966   9.323   0.788  0.0492  0.5502  0.0959
  432MOL0     C58235   4.104   9.314   0.788 -0.0876  0.0160  0.0827
  432MOL0     N58236   4.845   9.867   0.876 -0.1331 -0.1825 -0.3393
  432MOL0     N58237   4.956   9.935   0.901  1.0089  0.3764 -0.6329
  432MOL0     C58238   6.282  10.055   1.454  0.1036 -0.5995 -0.4174
  432MOL0     C58239   6.386  10.024   1.531 -0.3226 -0.3578 -0.7391
  432MOL0     C58240   6.635   9.877   1.915  0.8791  0.7323  0.7614
  432MOL0     C58241   6.665   9.780   2.005  0.0291  0.4106 -0.8518
  432MOL0     C58242   6.793   9.779   2.068 -0.4217 -1.1917 -0.3545
  432MOL0     C58243   6.876   9.886   2.058  0.2126  0.2243 -0.0994
  432MOL0     O58244   6.991   9.887   2.140  0.4094 -1.0725  0.3067
  432MOL0     C58245   7.118   9.916   2.079 -0.7927 -0.0517 -0.0836
  432MOL0     C58246   7.132   9.800   1.984  0.7152  0.0284  0.4625
  432MOL0     C58247   7.269   9.797   1.922  0.6759  0.5314 -0.1639
  432MOL0     C58248   7.287   9.669   1.838  0.2362 -0.5026  0.0368
  432MOL0     C58249   7.414   9.680   1.772  0.1144 -0.0517 -0.2315
  432MOL0     C58250   7.523   9.694   1.715  0.1908  0.9770  0.5042
  432MOL0     C58251   6.848   9.983   1.960  0.2988 -0.0766 -1.1776
  432MOL0     C58252   6.723   9.975   1.893 -0.7770 -0.7935  0.9442
  432MOL0     H58253   6.223   9.846   1.768  0.4569 -2.4836 -1.6446
  432MOL0     H58254   6.036   9.901   1.631 -1.1918 -1.0353 -2.6778
  432MOL0     H58255   5.916   9.874   1.412 -0.1701 -0.7909 -1.8871
  432MOL0     H58256   5.876  10.040   1.478  1.1899 -1.4599  2.5640
  432MOL0     H58257   5.844  10.134   1.281  1.9492 -0.1880  2.9613
  432MOL0     H58258   5.892   9.984   1.188 -2.8037 -0.3105 -1.7275
  432MOL0     H58259   5.724   9.842   1.294  2.8311  0.2351  2.8903
  432MOL0     H58260   5.649   9.972   1.371 -0.5405 -1.2317 -0.4635
  432MOL0     H58261   5.613  10.086   1.147  2.2324 -0.2824 -1.6057
  432MOL0     H58262   5.687   9.941   1.070 -3.1450 -1.8532 -2.1051
  432MOL0     H58263   5.529   9.798   1.168  1.2502 -0.3678  0.3779
  432MOL0     H58264   5.442   9.929   1.249  0.4959 -0.7245  0.7134
  432MOL0     H58265   5.449  10.018   0.988 -2.5713  1.0145  0.3634
  432MOL0     H58266   5.462   9.846   0.961 -0.6368  0.6365 -1.5028
  432MOL0     H58267   5.241   9.857   1.138  3.5248  1.6378  3.3477
  432MOL0     H58268   5.239  10.020   1.077  1.7429 -1.0052  1.9080
  432MOL0     H58269   5.252   9.779   0.896  1.0486  0.2586  1.0547
  432MOL0     H58270   5.224   9.946   0.843 -1.9309  0.5432 -0.9850
  432MOL0     H58271   5.055   9.621   0.942 -2.7900 -1.3202 -1.9390
  432MOL0     H58272   4.795   9.603   0.731  1.4693 -0.9975  0.6309
  432MOL0     H58273   4.826   9.513   0.877 -3.1633 -2.0769 -0.7997
  432MOL0     H58274   4.589   9.710   0.851  0.0366 -0.3626 -1.4146
  432MOL0     H58275   4.635   9.607   0.988 -0.6729 -0.3557 -0.1089
  432MOL0     H58276   4.587   9.405   0.852 -0.5953  0.0349  1.6830
  432MOL0     H58277   4.573   9.510   0.713 -1.9916  3.4598 -0.0835
  432MOL0     H58278   4.363   9.606   0.800 -1.5260 -1.5697 -1.5392
  432MOL0     H58279   4.396   9.550   0.966 -0.4532 -0.3284  0.0563
  432MOL0     H58280   4.172   9.624   0.907  1.4497 -0.9167 -0.4955
  432MOL0     H58281   3.976   9.714   1.017 -1.1969  0.4068  1.3513
  432MOL0     H58282   3.889   9.731   0.860 -1.7892 -2.5314 -0.4228
  432MOL0     H58283   3.817   9.642   0.994  0.6436  2.4339  3.0162
  432MOL0     H58284   3.561   9.171   0.990 -2.0147 -0.9873  1.2702
  432MOL0     H58285   3.338   9.150   1.012  4.1209  1.0484  1.6198
  432MOL0     H58286   3.056   9.450   0.827  1.0934 -0.3178 -0.3597
  432MOL0     H58287   3.004   9.316   0.721 -0.6940  0.2882  0.3267
  432MOL0     H58288   2.833   9.393   0.869 -0.3966  1.8619  3.0791
  432MOL0     H58289   2.877   9.228   0.907  0.6182  0.6100  0.8191
  432MOL0     H58290   2.969   9.469   1.065 -1.4044  1.1915 -2.1003
  432MOL0     H58291   3.016   9.299   1.093  1.9606  0.8774 -0.9291
  432MOL0     H58292   2.756   9.255   1.086 -0.3414 -2.8249  2.1910
  432MOL0     H58293   2.853   9.270   1.236 -0.9940 -0.3751 -0.4534
  432MOL0     H58294   2.685   9.502   1.097  0.8580  0.0635 -0.3125
  432MOL0     H58295   2.764   9.516   1.248 -3.2130  1.9801  0.6725
  432MOL0     H58296   2.523   9.348   1.191 -0.2313  0.3194  1.0014
  432MOL0     H58297   2.617   9.314   1.338  1.7639  0.2163  0.7831
  432MOL0     H58298   2.509   9.587   1.283 -0.6418 -0.8475 -1.3649
  432MOL0     H58299   2.583   9.519   1.424  1.3849  0.5257 -0.9142
  432MOL0     H58300   2.399   9.334   1.423  0.0957 -1.4657 -2.0747
  432MOL0     H58301   2.331   9.406   1.287  2.4003  1.3356 -1.3309
  432MOL0     H58302   3.276   9.418   0.672  2.7918  1.8946 -1.0385
  432MOL0     H58303   3.512   9.438   0.650  1.9295 -0.3447  0.7867
  432MOL0     H58304   3.912   9.231   0.770  0.6840 -0.0373  1.0925
  432MOL0     H58305   4.157   9.222   0.765 -1.8030 -0.4345 -2.4795
  432MOL0     H58306   6.300  10.117   1.366 -0.3385  0.2870  0.0991
  432MOL0     H58307   6.489  10.043   1.503  0.7168 -0.6392  2.4520
  432MOL0     H58308   6.612   9.687   2.027 -0.5878  1.0697  0.5623
  432MOL0     H58309   6.808   9.700   2.140 -2.7302 -1.5391 -0.1623
  432MOL0     H58310   7.123  10.005   2.016 -0.3349 -2.2458 -3.3790
  432MOL0     H58311   7.189   9.912   2.162  0.1885 -0.4288 -0.9165
  432MOL0     H58312   7.057   9.789   1.906  1.4877  1.3540 -0.5185
  432MOL0     H58313   7.113   9.710   2.043 -2.0607  0.4038  0.2632
  432MOL0     H58314   7.339   9.798   2.006  0.3445 -1.9380  0.2080
  432MOL0     H58315   7.293   9.886   1.863  0.9171 -0.6524 -1.9313
  432MOL0     H58316   7.213   9.649   1.760 -2.4688  1.3218  1.9339
  432MOL0     H58317   7.274   9.584   1.906  0.4153 -0.6705 -0.1402
  432MOL0     H58318   7.625   9.701   1.682  0.5948 -1.1602  1.1176
  432MOL0     H58319   6.917  10.066   1.949  2.2951 -1.1157  2.2209
  432MOL0     H58320   6.712  10.043   1.810 -1.4549 -2.3968 -0.3452
  433MOL0     O58321   4.970   8.585   2.483 -0.2710 -0.0299 -0.3773
  433MOL0     C58322   5.086   8.570   2.528 -0.6685  0.1178  0.0787
  433MOL0     O58323   5.124   8.574   2.652  0.1055  0.4013 -0.3592
  433MOL0     C58324   5.029   8.597   2.752  0.5221  0.5539 -0.1412
  433MOL0     C58325   4.914   8.680   2.741  0.1957 -0.3638 -0.1157
  433MOL0     C58326   4.833   8.707   2.845  0.0597 -0.2451 -0.5537
  433MOL0     C58327   4.866   8.665   2.977  0.7479 -0.6741  0.5841
  433MOL0     O58328   4.771   8.673   3.079  0.0048 -0.8335  0.3516
  433MOL0     C58329   4.661   8.764   3.067 -0.0043 -0.3692 -0.4296
  433MOL0     C58330   4.577   8.746   3.194 -0.4610  0.4816 -0.7578
  433MOL0     C58331   4.503   8.874   3.229  0.7880  0.5964  0.2840
  433MOL0     C58332   4.405   8.911   3.110  0.2649 -0.2299  0.5030
  433MOL0     C58333   4.304   9.003   3.159 -0.7900  0.5835  0.0476
  433MOL0     C58334   4.234   9.051   3.030 -0.0659  0.2034  0.3455
  433MOL0     C58335   4.105   9.142   3.056 -0.7545  0.1082  1.7421
  433MOL0     C58336   3.995   9.059   3.109 -0.1585  0.3986 -0.4711
  433MOL0     N58337   3.882   9.153   3.134 -0.4969 -1.2610 -0.1133
  433MOL0     C58338   3.895   9.269   3.208 -0.2809 -0.1419  0.1374
  433MOL0     C58339   3.796   9.361   3.162  0.7283  0.2999 -0.3646
  433MOL0     C58340   3.790   9.505   3.205  0.1422 -0.5310 -0.7248
  433MOL0     C58341   3.700   9.586   3.113 -0.2792 -0.8813 -0.3662
  433MOL0     C58342   3.551   9.550   3.143  0.2941 -0.0620 -0.4037
  433MOL0     C58343   3.467   9.676   3.098  0.2500  0.6732 -1.1040
  433MOL0     O58344   3.323   9.653   3.132  0.2997  0.0713 -0.5512
  433MOL0     C58345   3.233   9.738   3.075  0.2181 -0.1478  0.1664
  433MOL0     C58346   3.261   9.855   3.013  0.1751  0.3805 -0.0168
  433MOL0     C58347   3.159   9.945   2.964 -0.2963  0.2961 -1.1461
  433MOL0     C58348   3.213  10.074   2.903 -0.0983  0.4898 -0.0346
  433MOL0     C58349   3.022   9.906   2.977 -0.0108  0.4004  0.1805
  433MOL0     C58350   2.912   9.973   2.918 -0.3362  0.0442 -0.0134
  433MOL0     O58351   2.785   9.933   2.950  0.7992  0.4065 -0.0854
  433MOL0     C58352   2.695   9.977   2.852  0.8290 -0.0070  0.2099
  433MOL0     C58353   2.664   9.904   2.730  0.2111 -0.0332 -0.1955
  433MOL0     C58354   2.548   9.943   2.656 -0.2616  1.1408 -0.3886
  433MOL0     C58355   2.471  10.046   2.696  0.5600 -0.7129 -0.3690
  433MOL0     O58356   2.358  10.070   2.619 -1.1787  0.3880  0.3554
  433MOL0     C58357   2.255   9.983   2.633  0.2425  0.2274 -0.0214
  433MOL0     C58358   2.125  10.070   2.607  0.8305  0.3450  0.3972
  433MOL0     C58359   2.005   9.967   2.625 -0.9000 -0.1221 -0.5706
  433MOL0     C58360   1.887  10.037   2.577  0.7443  0.4857 -0.4994
  433MOL0     C58361   1.764   9.940   2.578 -1.1207 -0.3474 -0.3492
  433MOL0     C58362   1.635  10.003   2.520  0.7339  0.7091  0.0715
  433MOL0     C58363   1.528   9.902   2.528 -0.1519 -0.3640  0.3798
  433MOL0     C58364   1.391   9.969   2.501 -0.5387  0.7695 -0.3891
  433MOL0    Cl58365   1.355  10.063   2.643 -0.2659 -0.2376 -0.0976
  433MOL0     C58366   2.504  10.133   2.796  0.7130 -0.9474  0.0817
  433MOL0     C58367   2.608  10.096   2.880  0.2273 -0.2325  0.1532
  433MOL0     O58368   2.945  10.058   2.838  0.3022  0.1856  0.5534
  433MOL0     C58369   2.998   9.783   3.045  0.0093 -0.8719 -0.1890
  433MOL0     C58370   3.101   9.707   3.093 -0.4340 -0.1113 -0.3244
  433MOL0     N58371   3.712   9.284   3.085 -0.2083 -0.6889 -0.7396
  433MOL0     N58372   3.766   9.169   3.066  0.2102  0.9199  1.0595
  433MOL0     C58373   4.983   8.583   2.994  1.1349  0.1235 -0.3144
  433MOL0     C58374   5.062   8.554   2.883  0.0823 -0.6980  0.2073
  433MOL0     C58375   5.193   8.548   2.427  0.1445  1.0110 -0.3101
  433MOL0     C58376   5.182   8.590   2.295 -0.1872  0.9622  0.8182
  433MOL0     C58377   5.289   8.576   2.218  0.5189 -0.2391  0.6621
  433MOL0     C58378   5.413   8.532   2.251  0.1305 -0.3031  0.4865
  433MOL0     O58379   5.511   8.533   2.146 -0.0260 -0.0605 -0.1200
  433MOL0     C58380   5.640   8.509   2.183  0.0744 -0.4120 -0.6127
  433MOL0     C58381   5.737   8.491   2.061 -0.3444  0.7526  0.4413
  433MOL0     C58382   5.757   8.618   1.987 -0.6270 -0.2547 -0.6767
  433MOL0     C58383   5.849   8.595   1.878 -0.2890 -0.5580 -0.2284
  433MOL0     C58384   5.992   8.609   1.927  0.4720  0.5816  0.4908
  433MOL0     C58385   6.094   8.633   1.982 -0.2385  0.9514 -0.4568
  433MOL0     C58386   5.434   8.501   2.386  0.5660  0.1977 -0.1653
  433MOL0     C58387   5.324   8.511   2.474  0.1451  0.4705  0.2945
  433MOL0     H58388   4.907   8.734   2.647  1.9338  0.6266  0.2859
  433MOL0     H58389   4.745   8.764   2.817 -0.7000 -1.7902 -1.4330
  433MOL0     H58390   4.707   8.863   3.069 -2.1265  0.6925 -0.8779
  433MOL0     H58391   4.600   8.748   2.977  0.4215 -2.6855 -0.3671
  433MOL0     H58392   4.510   8.661   3.180  2.0326 -1.4413 -1.8011
  433MOL0     H58393   4.646   8.721   3.276  0.8124  2.6038 -1.1036
  433MOL0     H58394   4.434   8.849   3.309  1.1846 -1.7292 -0.0225
  433MOL0     H58395   4.579   8.942   3.269  2.1705  0.0029 -1.1755
  433MOL0     H58396   4.460   8.954   3.026  0.8183 -0.8665  0.5370
  433MOL0     H58397   4.362   8.820   3.065 -1.0465  0.0916  1.0590
  433MOL0     H58398   4.234   8.948   3.223  1.1987 -1.4578  0.6036
  433MOL0     H58399   4.351   9.087   3.212  1.1127 -0.5250  0.2082
  433MOL0     H58400   4.309   9.099   2.966 -1.2601  3.2728  1.0566
  433MOL0     H58401   4.210   8.963   2.969 -1.4427  0.4774  0.4540
  433MOL0     H58402   4.126   9.222   3.128  0.7074  2.9074 -1.5016
  433MOL0     H58403   4.078   9.201   2.968  0.8145 -0.7509  0.6485
  433MOL0     H58404   4.029   9.023   3.206 -1.5805  1.1285  0.3346
  433MOL0     H58405   3.971   8.980   3.037 -1.3236  0.3024 -0.0086
  433MOL0     H58406   3.970   9.299   3.281 -1.1878  1.1464  0.5896
  433MOL0     H58407   3.753   9.505   3.307 -1.6019  2.2746 -1.2465
  433MOL0     H58408   3.890   9.548   3.205  0.7583 -1.8332  1.3812
  433MOL0     H58409   3.724   9.554   3.011 -0.8698  0.6982 -1.0332
  433MOL0     H58410   3.722   9.693   3.122  1.1364 -1.1319 -0.4852
  433MOL0     H58411   3.533   9.529   3.249  2.4323 -1.3527 -0.2429
  433MOL0     H58412   3.519   9.465   3.084  0.7041  0.5842 -1.5893
  433MOL0     H58413   3.471   9.683   2.989 -4.1521  1.8217 -1.3825
  433MOL0     H58414   3.506   9.772   3.132 -1.5521  2.0646 -2.7206
  433MOL0     H58415   3.361   9.878   2.977 -0.0078 -0.7761 -1.3552
  433MOL0     H58416   3.204  10.060   2.794 -1.0906  1.4532 -0.0949
  433MOL0     H58417   3.161  10.162   2.941  1.9742  1.1699  1.3766
  433MOL0     H58418   3.319  10.087   2.924 -0.4726  0.9306  1.7086
  433MOL0     H58419   2.718   9.811   2.713  0.0621 -0.0792 -0.4151
  433MOL0     H58420   2.508   9.883   2.574 -2.1193 -1.5108  2.2608
  433MOL0     H58421   2.253   9.896   2.566 -0.7060  0.1898  0.0469
  433MOL0     H58422   2.254   9.947   2.736 -2.9486 -0.4741 -0.2098
  433MOL0     H58423   2.126  10.136   2.694  1.1166 -1.6873  2.0113
  433MOL0     H58424   2.127  10.114   2.506  1.1288 -0.2039  0.1608
  433MOL0     H58425   1.990   9.926   2.725  0.2765  2.2503  0.6523
  433MOL0     H58426   2.020   9.882   2.558  1.7051  0.1006 -0.3596
  433MOL0     H58427   1.861  10.116   2.648  2.7114 -0.8030  1.8014
  433MOL0     H58428   1.903  10.082   2.478 -2.1844 -1.2983 -1.9306
  433MOL0     H58429   1.745   9.890   2.674  0.8600 -1.6182 -0.5576
  433MOL0     H58430   1.784   9.868   2.498 -0.5981  0.6249 -1.1130
  433MOL0     H58431   1.615  10.092   2.580 -1.3153  1.9187 -2.2297
  433MOL0     H58432   1.636  10.026   2.413  1.2501 -1.4051 -0.4410
  433MOL0     H58433   1.524   9.853   2.626 -2.6898 -0.9441  0.0501
  433MOL0     H58434   1.548   9.828   2.450 -2.1095 -0.7636  0.1906
  433MOL0     H58435   1.311   9.897   2.482  0.6739 -0.8764  0.4350
  433MOL0     H58436   1.414  10.037   2.419  1.5574  3.1782  1.9929
  433MOL0     H58437   2.448  10.226   2.808  1.6015 -0.2467 -0.9694
  433MOL0     H58438   2.612  10.149   2.974 -0.4589  0.4862 -0.2097
  433MOL0     H58439   2.898   9.743   3.063 -2.2364  3.0551 -2.3889
  433MOL0     H58440   3.080   9.615   3.148  0.6217 -1.4876 -2.1200
  433MOL0     H58441   5.000   8.535   3.090 -1.2676  1.0512  0.6512
  433MOL0     H58442   5.149   8.495   2.911 -0.6382 -0.1428  4.2779
  433MOL0     H58443   5.095   8.640   2.253  1.2425  1.5196 -1.6534
  433MOL0     H58444   5.280   8.615   2.117 -3.2500 -2.0326  0.1374
  433MOL0     H58445   5.686   8.578   2.255  2.5683 -1.7159 -0.8498
  433MOL0     H58446   5.646   8.411   2.230  1.9928 -0.7431 -1.4452
  433MOL0     H58447   5.699   8.418   1.989  1.8627  0.1811 -0.2257
  433MOL0     H58448   5.830   8.465   2.113 -1.4464  0.2095  2.2208
  433MOL0     H58449   5.795   8.690   2.060  3.3834 -2.4902 -0.2802
  433MOL0     H58450   5.659   8.653   1.952 -1.8782  0.2868  2.8897
  433MOL0     H58451   5.834   8.681   1.812 -0.2469 -1.0924 -0.9337
  433MOL0     H58452   5.823   8.506   1.820 -2.7282 -0.5406  0.7451
  433MOL0     H58453   6.187   8.667   2.021 -0.6593  5.2974 -2.5573
  433MOL0     H58454   5.534   8.486   2.426  0.8196 -1.5462 -1.3678
  433MOL0     H58455   5.349   8.480   2.575  0.2649  0.4389  0.2554
  434MOL0     O58456   2.944   9.736   3.355  0.4967 -0.4790 -0.1549
  434MOL0     C58457   3.004   9.846   3.380  0.1512 -0.0517  0.7417
  434MOL0     O58458   2.947   9.972   3.377 -0.0023 -0.0980  0.3755
  434MOL0     C58459   2.813   9.979   3.373 -0.4453 -0.6428  0.2063
  434MOL0     C58460   2.731   9.919   3.467 -0.4550 -0.2570 -0.5495
  434MOL0     C58461   2.590   9.927   3.465  0.3972 -0.2128  0.0126
  434MOL0     C58462   2.526  10.014   3.376 -0.2989  0.5168 -0.5584
  434MOL0     O58463   2.390  10.033   3.398  0.2775  0.5251  0.7574
  434MOL0     C58464   2.316  10.153   3.356 -0.0733 -0.4296 -1.2383
  434MOL0     C58465   2.229  10.126   3.230  0.7088 -0.2752  0.1245
  434MOL0     C58466   2.200  10.266   3.167 -0.4292 -0.2753 -0.2789
  434MOL0     C58467   2.108  10.256   3.046  0.7302  0.7691 -1.2176
  434MOL0     C58468   1.961  10.233   3.076 -0.1871  0.0174 -0.1427
  434MOL0     C58469   1.890  10.173   2.955 -0.4195  0.1314 -0.3266
  434MOL0     C58470   1.741  10.146   2.968 -0.6310 -0.2215 -0.0299
  434MOL0     C58471   1.722  10.042   3.074  0.1432 -1.5016 -0.7366
  434MOL0     N58472   1.603   9.949   3.063 -0.5485  0.3411  0.9202
  434MOL0     C58473   1.471   9.980   3.075 -0.2418 -0.9083  0.0583
  434MOL0     C58474   1.404   9.861   3.085 -0.8672 -0.1437  0.2684
  434MOL0     C58475   1.254   9.829   3.100 -0.2239 -0.9645 -0.3855
  434MOL0     C58476   1.177   9.951   3.146  0.0430 -1.0435 -0.8129
  434MOL0     C58477   1.208  10.008   3.289 -0.2020 -0.6673  0.2143
  434MOL0     C58478   1.081  10.065   3.355 -0.8319  0.2390  0.9244
  434MOL0     O58479   0.964   9.982   3.350 -0.2538  0.2482  0.0916
  434MOL0     C58480   0.838  10.029   3.358  0.0214 -0.1544 -0.2070
  434MOL0     C58481   0.805  10.169   3.376  0.5919 -0.2198 -0.6313
  434MOL0     C58482   0.675  10.214   3.394  0.6915 -0.8705  0.8331
  434MOL0     C58483   0.661  10.360   3.439 -0.5485 -0.8086  0.2547
  434MOL0     C58484   0.568  10.127   3.375 -0.3754  0.6282 -1.1605
  434MOL0     C58485   0.430  10.163   3.369 -0.7330  0.1118 -0.2406
  434MOL0     O58486   0.397  10.294   3.363  0.8312 -0.2330 -0.2434
  434MOL0     C58487   0.267  10.333   3.319 -0.7811 -0.7381  0.6732
  434MOL0     C58488   0.186  10.279   3.218 -0.9396  0.9511 -0.2423
  434MOL0     C58489   0.071  10.350   3.181 -0.9783  0.1606 -0.1591
  434MOL0     C58490   0.016  10.455   3.255 -0.0403 -0.3990 -0.1605
  434MOL0     O58491  -0.111  10.498   3.221 -0.1621  0.2971 -0.6920
  434MOL0     C58492  -0.147  10.631   3.242 -0.0681  0.4232  0.7950
  434MOL0     C58493  -0.292  10.650   3.288  0.1368 -0.4342 -0.4499
  434MOL0     C58494  -0.309  10.803   3.328  0.1062  0.1016 -0.7482
  434MOL0     C58495  -0.462  10.831   3.325 -0.3661 -0.0945  0.5232
  434MOL0     C58496  -0.482  10.979   3.356 -0.6113 -0.3277 -0.2852
  434MOL0     C58497  -0.493  11.067   3.230 -0.3758  0.3513  0.5957
  434MOL0     C58498  -0.448  11.210   3.269 -0.2467 -1.0490 -1.4000
  434MOL0     C58499  -0.484  11.323   3.175  0.4164  0.6968 -0.0388
  434MOL0    Cl58500  -0.464  11.476   3.279 -0.2411 -0.4935 -0.0032
  434MOL0     C58501   0.100  10.510   3.358  0.5756 -0.3349 -1.2087
  434MOL0     C58502   0.227  10.454   3.383  0.1161 -0.5796  0.0424
  434MOL0     O58503   0.352  10.067   3.349 -0.3203 -0.0870  0.8428
  434MOL0     C58504   0.600   9.985   3.361  0.1909 -0.7381  0.4410
  434MOL0     C58505   0.731   9.942   3.347 -0.1206 -0.2286 -0.4995
  434MOL0     N58506   1.492   9.761   3.075  0.2861 -0.0864  0.3125
  434MOL0     N58507   1.606   9.817   3.054  0.2791 -0.8281  0.1896
  434MOL0     C58508   2.606  10.086   3.280  0.3955  0.5689 -0.9399
  434MOL0     C58509   2.748  10.067   3.278  0.2957 -0.3219  0.2983
  434MOL0     C58510   3.155   9.836   3.400 -0.1622 -0.6013  0.2375
  434MOL0     C58511   3.249   9.944   3.368  0.4770  0.9973 -0.8801
  434MOL0     C58512   3.384   9.930   3.390 -0.8797  1.0081  0.0393
  434MOL0     C58513   3.438   9.807   3.427  0.0422  0.4046  0.2774
  434MOL0     O58514   3.575   9.799   3.432 -0.1287 -0.3675  0.4329
  434MOL0     C58515   3.631   9.689   3.507  0.1625 -0.3890  0.1838
  434MOL0     C58516   3.770   9.726   3.523  0.4177  0.2463 -0.0339
  434MOL0     C58517   3.843   9.605   3.586  0.3626  0.3552  0.8653
  434MOL0     C58518   3.985   9.649   3.576 -0.3822  0.0142 -0.5813
  434MOL0     C58519   4.095   9.556   3.616 -0.2946  0.3704 -0.0386
  434MOL0     C58520   4.188   9.481   3.644  0.7632  0.2691  1.0646
  434MOL0     C58521   3.352   9.692   3.437  0.0808 -0.3591  0.4138
  434MOL0     C58522   3.211   9.715   3.442 -0.1109  0.2237 -0.7101
  434MOL0     H58523   2.774   9.860   3.547 -4.1302  0.3705  2.1538
  434MOL0     H58524   2.545   9.854   3.530  0.2490  0.2539  0.4381
  434MOL0     H58525   2.256  10.174   3.445  0.4939 -1.1444 -0.6798
  434MOL0     H58526   2.386  10.233   3.330  0.7484 -1.3187 -1.8200
  434MOL0     H58527   2.285  10.064   3.159 -0.1251 -0.7659 -0.1135
  434MOL0     H58528   2.139  10.072   3.260  2.2575 -3.6364 -0.7519
  434MOL0     H58529   2.148  10.329   3.240  1.1636 -0.5450  1.1526
  434MOL0     H58530   2.291  10.320   3.138  0.9808 -2.7713 -0.8775
  434MOL0     H58531   2.122  10.348   2.989  0.0671  0.6243 -1.6117
  434MOL0     H58532   2.143  10.163   3.001  1.5161 -2.3673  4.7538
  434MOL0     H58533   1.957  10.164   3.161  1.7439  0.5901  0.4739
  434MOL0     H58534   1.922  10.332   3.103 -0.6673 -0.2642  0.2148
  434MOL0     H58535   1.899  10.249   2.876 -0.3952 -0.9863 -1.4324
  434MOL0     H58536   1.949  10.084   2.931  0.1747 -0.4868  2.9516
  434MOL0     H58537   1.694  10.242   2.993  1.5586  0.7233  0.7023
  434MOL0     H58538   1.707  10.115   2.869 -0.8545  2.3664 -0.8373
  434MOL0     H58539   1.717  10.095   3.170  0.7614 -1.8568 -0.5013
  434MOL0     H58540   1.813   9.982   3.086  1.6682  1.1763  2.8065
  434MOL0     H58541   1.438  10.082   3.089  0.6983 -0.7635  1.4648
  434MOL0     H58542   1.221   9.796   3.001  2.2472 -4.1683 -0.3085
  434MOL0     H58543   1.242   9.739   3.162 -1.4898 -1.7234 -1.6706
  434MOL0     H58544   1.071   9.926   3.159 -0.1175  0.2696  0.8268
  434MOL0     H58545   1.195  10.036   3.081  1.8099  0.1263  1.0914
  434MOL0     H58546   1.275  10.094   3.279  2.0029 -2.2453  0.4141
  434MOL0     H58547   1.253   9.931   3.352  1.6793  0.2781  0.0871
  434MOL0     H58548   1.054  10.155   3.299  0.4985  1.1928  1.7548
  434MOL0     H58549   1.110  10.087   3.458  2.7342 -0.8603  0.2937
  434MOL0     H58550   0.880  10.245   3.393  0.4149 -0.3400  0.8448
  434MOL0     H58551   0.615  10.358   3.538 -1.5954  0.8732 -0.1456
  434MOL0     H58552   0.759  10.405   3.459 -0.8472  0.5710 -1.2043
  434MOL0     H58553   0.614  10.432   3.371  2.8625  0.8869 -0.5448
  434MOL0     H58554   0.236  10.204   3.158  0.3429 -0.6166  2.6108
  434MOL0     H58555   0.009  10.306   3.104 -3.2153 -3.1472  3.1840
  434MOL0     H58556  -0.082  10.676   3.318 -0.5662  0.2191  1.3504
  434MOL0     H58557  -0.133  10.677   3.144  0.5073  1.0036  1.1351
  434MOL0     H58558  -0.356  10.626   3.202  1.5750 -0.1519 -1.6491
  434MOL0     H58559  -0.312  10.591   3.378 -0.3928  1.3981  0.6855
  434MOL0     H58560  -0.257  10.873   3.263  1.5578  0.2567  0.5263
  434MOL0     H58561  -0.262  10.823   3.424  1.9537  1.4415 -1.8731
  434MOL0     H58562  -0.510  10.805   3.230  0.6913  0.9748 -0.3475
  434MOL0     H58563  -0.499  10.770   3.407  2.5849 -2.5879  0.1768
  434MOL0     H58564  -0.399  11.015   3.418 -1.7964  0.1360  1.0999
  434MOL0     H58565  -0.582  10.982   3.400  0.2780 -0.8951  1.9419
  434MOL0     H58566  -0.424  11.037   3.151 -0.3872 -0.1592  0.7796
  434MOL0     H58567  -0.593  11.061   3.187  0.4925 -2.7594 -1.2879
  434MOL0     H58568  -0.340  11.207   3.283 -0.4570  1.2171  1.7605
  434MOL0     H58569  -0.495  11.237   3.364 -0.0080  2.2230 -2.1021
  434MOL0     H58570  -0.587  11.312   3.139  0.6366 -2.9928  0.0960
  434MOL0     H58571  -0.430  11.327   3.080  1.1415  3.0306  0.4085
  434MOL0     H58572   0.066  10.586   3.428  2.3130  1.1862 -1.9356
  434MOL0     H58573   0.292  10.504   3.455 -0.3955  2.2435 -1.3161
  434MOL0     H58574   0.519   9.915   3.343 -2.0633  1.8304 -0.0934
  434MOL0     H58575   0.739   9.838   3.314 -2.2308 -0.0080 -1.8948
  434MOL0     H58576   2.555  10.151   3.210  0.0860  0.2667 -0.9997
  434MOL0     H58577   2.804  10.119   3.201  0.8165 -1.9843 -0.5029
  434MOL0     H58578   3.202  10.029   3.319 -0.0387  0.0496 -2.0712
  434MOL0     H58579   3.447  10.016   3.375 -0.1096  0.6919  1.2490
  434MOL0     H58580   3.587   9.666   3.604  2.5824 -1.2098  1.1365
  434MOL0     H58581   3.626   9.596   3.450 -0.4407 -1.4246  1.8411
  434MOL0     H58582   3.766   9.822   3.575 -2.2027  0.5345 -0.6027
  434MOL0     H58583   3.815   9.735   3.424 -0.5693  1.1138 -0.4234
  434MOL0     H58584   3.827   9.516   3.524  0.5108  0.0100  1.3255
  434MOL0     H58585   3.820   9.580   3.690 -0.5955  0.1538  0.6207
  434MOL0     H58586   4.008   9.744   3.625  2.8231 -1.6852  1.5499
  434MOL0     H58587   4.005   9.670   3.470  0.7107  0.2233 -0.3475
  434MOL0     H58588   4.253   9.402   3.674  0.6128  0.5824  2.2706
  434MOL0     H58589   3.387   9.593   3.463  0.3111 -0.4580 -0.2520
  434MOL0     H58590   3.142   9.633   3.459 -0.3322  0.6023  0.2345
  435MOL0     O58591   5.273   6.735   5.055  0.8041  0.2700  0.2324
  435MOL0     C58592   5.349   6.647   5.028  0.8835  0.2832  0.3655
  435MOL0     O58593   5.312   6.518   4.996 -0.4802  0.2342  0.3212
  435MOL0     C58594   5.177   6.480   5.013 -0.1317 -0.2572  1.1689
  435MOL0     C58595   5.120   6.482   5.141  0.1291 -0.3324 -0.0984
  435MOL0     C58596   4.988   6.443   5.160 -0.1025  0.0997 -0.7619
  435MOL0     C58597   4.902   6.421   5.050  0.2313 -0.3662  0.5297
  435MOL0     O58598   4.767   6.388   5.070 -0.3756 -0.6571 -1.1193
  435MOL0     C58599   4.705   6.474   5.164  0.5155  0.4081  0.6917
  435MOL0     C58600   4.546   6.472   5.133 -0.4146 -1.0541 -0.8488
  435MOL0     C58601   4.514   6.484   4.982  0.4359  0.5101  0.1011
  435MOL0     C58602   4.381   6.419   4.945  0.5030  0.6332  0.6889
  435MOL0     C58603   4.382   6.334   4.815  0.4695  0.1117  0.3488
  435MOL0     C58604   4.406   6.392   4.675 -0.1169 -0.5428 -0.8403
  435MOL0     C58605   4.361   6.309   4.553  0.2669 -0.6513 -0.0554
  435MOL0     C58606   4.410   6.167   4.539 -0.5256 -0.6798 -0.4969
  435MOL0     N58607   4.553   6.140   4.571 -0.7151  0.4554  0.6474
  435MOL0     C58608   4.654   6.215   4.517  0.2776 -0.2611 -0.1185
  435MOL0     C58609   4.774   6.151   4.559 -0.4115  0.4235 -0.2485
  435MOL0     C58610   4.916   6.189   4.517  0.7753  0.0174  1.5913
  435MOL0     C58611   5.031   6.147   4.597  0.0356 -0.1186  0.1433
  435MOL0     C58612   5.157   6.208   4.547  0.2613  0.5939  0.5597
  435MOL0     C58613   5.287   6.188   4.616  0.2210  1.1969 -0.1409
  435MOL0     O58614   5.262   6.178   4.761 -0.4702 -0.1182 -0.1328
  435MOL0     C58615   5.375   6.167   4.845 -0.2237 -0.4074 -0.5638
  435MOL0     C58616   5.354   6.181   4.982 -0.3925  0.3030  0.5023
  435MOL0     C58617   5.453   6.179   5.083 -0.6541 -0.6283  0.2872
  435MOL0     C58618   5.399   6.186   5.226 -0.2823 -0.0762  0.3681
  435MOL0     C58619   5.590   6.164   5.045  0.5060 -0.3616 -0.9636
  435MOL0     C58620   5.702   6.149   5.141 -0.5159  0.6608  0.4650
  435MOL0     O58621   5.827   6.182   5.101 -0.0670 -0.1186  0.4249
  435MOL0     C58622   5.933   6.197   5.182 -0.5496 -0.3882 -1.0293
  435MOL0     C58623   5.973   6.088   5.269  0.4590  1.0293  0.2943
  435MOL0     C58624   6.087   6.093   5.349 -0.1228 -0.3488  0.9857
  435MOL0     C58625   6.165   6.212   5.348  0.1725 -0.8582  0.0307
  435MOL0     O58626   6.280   6.237   5.424 -0.6647  0.0506 -0.5203
  435MOL0     C58627   6.291   6.150   5.534 -0.6430 -0.3481 -1.5323
  435MOL0     C58628   6.397   6.208   5.640 -0.6268 -0.3628 -0.6131
  435MOL0     C58629   6.345   6.337   5.705  0.0278 -0.2871 -0.7734
  435MOL0     C58630   6.472   6.409   5.766 -0.8311  0.0606 -0.3311
  435MOL0     C58631   6.512   6.363   5.905  0.3136 -0.2513 -0.3321
  435MOL0     C58632   6.641   6.430   5.933 -0.3501  0.2299 -0.8117
  435MOL0     C58633   6.687   6.391   6.075 -0.5795  0.2852  0.1635
  435MOL0     C58634   6.823   6.453   6.116  0.1546 -0.2836 -0.2295
  435MOL0    Cl58635   6.946   6.417   5.994  0.3421 -0.1424  0.7707
  435MOL0     C58636   6.129   6.322   5.263 -0.7780  0.1150  0.3075
  435MOL0     C58637   6.010   6.312   5.185 -0.7934  0.0545  0.4052
  435MOL0     O58638   5.683   6.097   5.243  0.0067  0.7082  0.7331
  435MOL0     C58639   5.608   6.149   4.903  0.3329 -0.3595 -0.6798
  435MOL0     C58640   5.504   6.147   4.808  0.0047 -0.0719  0.7548
  435MOL0     N58641   4.739   6.053   4.655  0.3128 -0.0489  0.1997
  435MOL0     N58642   4.610   6.052   4.657 -0.3967  0.9922 -0.2615
  435MOL0     C58643   4.964   6.408   4.916  0.7073 -0.2052 -0.6694
  435MOL0     C58644   5.099   6.447   4.904  0.4144 -0.5172  0.4597
  435MOL0     C58645   5.497   6.672   5.033  1.0179  0.6966  0.5306
  435MOL0     C58646   5.587   6.565   4.995 -0.3837  0.1205 -0.9730
  435MOL0     C58647   5.726   6.598   5.002  0.8691  0.1073  0.5402
  435MOL0     C58648   5.771   6.733   5.038  0.8001 -0.1813  1.1310
  435MOL0     O58649   5.899   6.773   5.029 -1.0816 -0.4655 -0.0527
  435MOL0     C58650   5.942   6.883   5.107 -0.3912  1.0258 -0.4520
  435MOL0     C58651   6.089   6.896   5.105 -0.3024  0.2059  0.4092
  435MOL0     C58652   6.160   6.785   5.181 -0.0112  0.6745  0.3679
  435MOL0     C58653   6.158   6.836   5.329 -0.1364  0.1403  0.9622
  435MOL0     C58654   6.266   6.779   5.409  0.0927 -0.5587 -0.8346
  435MOL0     C58655   6.334   6.719   5.491  0.6588  0.4317  0.6285
  435MOL0     C58656   5.669   6.824   5.071  0.2029 -0.1270  0.8648
  435MOL0     C58657   5.536   6.796   5.071 -0.2314 -1.0434  0.3693
  435MOL0     H58658   5.174   6.522   5.226 -2.0588  1.6931  0.4479
  435MOL0     H58659   4.950   6.439   5.261 -1.5416  0.9588 -1.2458
  435MOL0     H58660   4.725   6.444   5.267 -0.5582 -3.6716 -0.1362
  435MOL0     H58661   4.739   6.578   5.152  1.2860  0.0981  0.1156
  435MOL0     H58662   4.509   6.379   5.177  1.4119 -1.1856  0.5275
  435MOL0     H58663   4.499   6.559   5.180  0.6922  0.3175 -2.2062
  435MOL0     H58664   4.515   6.585   4.940  1.1020 -0.0866 -1.3589
  435MOL0     H58665   4.595   6.439   4.923 -1.4060 -0.6077 -1.6829
  435MOL0     H58666   4.350   6.361   5.033  0.7820 -0.6760 -0.0511
  435MOL0     H58667   4.306   6.497   4.934 -0.1454 -0.1304 -0.3785
  435MOL0     H58668   4.462   6.260   4.824 -0.0915 -0.4314  1.0906
  435MOL0     H58669   4.289   6.275   4.809 -1.5961  2.6401  3.8057
  435MOL0     H58670   4.339   6.478   4.680 -2.4824 -2.2560 -1.1586
  435MOL0     H58671   4.512   6.418   4.670 -0.4776  1.4505  0.6844
  435MOL0     H58672   4.252   6.309   4.561  0.1685 -2.2919 -0.8674
  435MOL0     H58673   4.388   6.365   4.464 -0.9522 -0.7627 -0.5159
  435MOL0     H58674   4.402   6.129   4.437  2.1612 -2.5773 -0.0905
  435MOL0     H58675   4.357   6.108   4.614  0.2092 -0.5112  0.1634
  435MOL0     H58676   4.637   6.293   4.443 -1.4717 -0.4671  0.0255
  435MOL0     H58677   4.941   6.145   4.420  0.2885  0.9506  1.0277
  435MOL0     H58678   4.928   6.297   4.505  3.3244 -0.3042  0.6112
  435MOL0     H58679   5.017   6.038   4.597 -1.2548  0.0189 -0.6199
  435MOL0     H58680   5.002   6.175   4.699 -0.3423  1.1852 -0.3076
  435MOL0     H58681   5.143   6.317   4.545 -1.4037  0.4081 -2.0680
  435MOL0     H58682   5.172   6.194   4.440 -0.9728 -2.5555  0.7188
  435MOL0     H58683   5.363   6.265   4.601 -0.1419  1.3917 -1.0563
  435MOL0     H58684   5.333   6.093   4.586 -1.2478 -0.4928  2.5147
  435MOL0     H58685   5.250   6.181   5.013  0.0814  2.8869  2.3630
  435MOL0     H58686   5.298   6.228   5.219  0.1729  0.7262 -3.1392
  435MOL0     H58687   5.392   6.086   5.269  2.1406 -0.1035  0.8411
  435MOL0     H58688   5.463   6.244   5.293 -1.4293 -0.8136  2.1971
  435MOL0     H58689   5.913   5.998   5.269 -1.2582  2.1269  1.2136
  435MOL0     H58690   6.103   6.003   5.407  0.4021 -0.0058  1.3855
  435MOL0     H58691   6.192   6.130   5.576  0.2162 -0.6574  0.4669
  435MOL0     H58692   6.326   6.054   5.494  0.5298 -0.3755 -0.4931
  435MOL0     H58693   6.401   6.130   5.716  0.4204  0.7171  0.4904
  435MOL0     H58694   6.500   6.220   5.603 -0.3878  1.8880  0.6124
  435MOL0     H58695   6.280   6.301   5.785  1.0224 -2.4410 -0.8716
  435MOL0     H58696   6.295   6.402   5.634 -2.7514  1.4742  2.5004
  435MOL0     H58697   6.556   6.416   5.696 -1.4880  1.6929 -1.0269
  435MOL0     H58698   6.436   6.513   5.763  3.9749  1.9862 -3.8135
  435MOL0     H58699   6.530   6.255   5.905 -2.2075 -0.7426  0.5329
  435MOL0     H58700   6.435   6.376   5.981  0.7216 -2.1912  0.4626
  435MOL0     H58701   6.719   6.405   5.860  2.6966  1.5789  1.7008
  435MOL0     H58702   6.626   6.538   5.924  0.0972  0.2159 -1.8610
  435MOL0     H58703   6.705   6.284   6.074  2.2069  0.6914  0.0356
  435MOL0     H58704   6.599   6.406   6.138 -0.7741 -1.2099  0.2657
  435MOL0     H58705   6.867   6.420   6.211  0.1755 -0.8899 -0.4455
  435MOL0     H58706   6.802   6.560   6.125  4.2910  0.8298 -1.6926
  435MOL0     H58707   6.171   6.422   5.264  0.0890 -0.2321 -0.1381
  435MOL0     H58708   5.968   6.393   5.126  0.5590  0.9566  0.6490
  435MOL0     H58709   5.712   6.140   4.873  1.4867  3.5970  1.5167
  435MOL0     H58710   5.538   6.139   4.705  2.2334 -0.6560  1.4722
  435MOL0     H58711   4.904   6.371   4.833  0.0255 -0.6650  0.0249
  435MOL0     H58712   5.136   6.454   4.803 -3.6060  0.1139 -1.1572
  435MOL0     H58713   5.559   6.465   4.963 -2.0348  0.2306 -0.0020
  435MOL0     H58714   5.805   6.528   4.977  0.2273  0.4418 -2.8944
  435MOL0     H58715   5.889   6.962   5.053 -2.0769 -1.5045 -2.7918
  435MOL0     H58716   5.905   6.867   5.208  3.7247 -4.1628  0.6830
  435MOL0     H58717   6.123   6.992   5.144  0.6367  0.0686 -0.0384
  435MOL0     H58718   6.131   6.909   5.005 -0.1258  1.6258  0.6510
  435MOL0     H58719   6.265   6.783   5.152 -0.1739 -1.2341 -0.2213
  435MOL0     H58720   6.118   6.686   5.164  1.4615  0.1348 -0.3243
  435MOL0     H58721   6.062   6.812   5.377 -0.2984 -2.5451 -0.5338
  435MOL0     H58722   6.167   6.945   5.342  0.9138  0.1940 -0.0418
  435MOL0     H58723   6.382   6.666   5.571  3.5893  2.0710  0.1057
  435MOL0     H58724   5.693   6.928   5.091  0.9179 -0.1970  0.3980
  435MOL0     H58725   5.462   6.870   5.101 -0.5486 -1.2964  0.2174
  436MOL0     O58726   6.302   8.351   2.847  0.2801  0.2532  0.0134
  436MOL0     C58727   6.362   8.379   2.950  0.4082  0.4079 -0.3474
  436MOL0     O58728   6.302   8.403   3.068  0.3919 -0.2668 -0.3445
  436MOL0     C58729   6.163   8.378   3.084  0.2091  0.2016 -0.4069
  436MOL0     C58730   6.073   8.469   3.142  0.5097  0.7678  0.4912
  436MOL0     C58731   5.938   8.448   3.153  0.4767 -0.6859  0.2040
  436MOL0     C58732   5.876   8.331   3.105  0.5474  0.3499 -0.0606
  436MOL0     O58733   5.741   8.311   3.091 -0.2000 -0.1453 -0.0455
  436MOL0     C58734   5.659   8.374   3.199 -0.3843 -0.6242  0.4244
  436MOL0     C58735   5.524   8.315   3.181 -0.5242 -0.5823  0.4825
  436MOL0     C58736   5.527   8.164   3.194  0.1483  0.8053  0.6389
  436MOL0     C58737   5.385   8.094   3.186 -0.1266 -0.8166  0.6713
  436MOL0     C58738   5.381   7.973   3.276 -0.1532  0.0089  0.5471
  436MOL0     C58739   5.235   7.912   3.290 -0.2499 -0.3168  0.2939
  436MOL0     C58740   5.249   7.811   3.405  0.5016  0.1310  0.4375
  436MOL0     C58741   5.234   7.874   3.541  0.1120  0.0973 -0.8095
  436MOL0     N58742   5.099   7.910   3.570 -0.3639  0.8722 -0.4341
  436MOL0     C58743   5.000   7.830   3.623  0.7561  0.7067 -0.3270
  436MOL0     C58744   4.905   7.914   3.655 -0.5375 -0.3339  0.4936
  436MOL0     C58745   4.781   7.860   3.729 -0.0666 -0.1980 -0.3970
  436MOL0     C58746   4.646   7.909   3.665  0.6612 -0.8443 -0.5551
  436MOL0     C58747   4.627   7.896   3.516 -1.1862 -0.3987  0.5488
  436MOL0     C58748   4.513   7.980   3.460 -0.3448  0.2839 -0.4217
  436MOL0     O58749   4.399   7.924   3.525 -0.1900 -0.5493  0.2770
  436MOL0     C58750   4.290   8.009   3.537 -0.1550  0.8302 -0.0841
  436MOL0     C58751   4.239   8.086   3.436 -1.1438  0.4396  0.3271
  436MOL0     C58752   4.111   8.136   3.444 -0.3531  0.4192 -0.3990
  436MOL0     C58753   4.050   8.177   3.311  0.1487 -0.6603  0.0168
  436MOL0     C58754   4.053   8.167   3.565 -1.1165  0.0239  0.6994
  436MOL0     C58755   3.938   8.265   3.582  0.2455  0.0959  0.9364
  436MOL0     O58756   3.925   8.357   3.482  0.0970  0.1329 -0.4917
  436MOL0     C58757   3.794   8.411   3.475  0.5171 -0.9708 -0.4647
  436MOL0     C58758   3.768   8.539   3.529 -0.3991  1.2080  1.3611
  436MOL0     C58759   3.646   8.591   3.508 -0.0462 -0.6777  0.1861
  436MOL0     C58760   3.543   8.544   3.421 -0.0670 -0.0956 -0.3754
  436MOL0     O58761   3.432   8.621   3.380  0.2413 -0.1783  1.1668
  436MOL0     C58762   3.343   8.590   3.276  0.8235 -0.4728  0.0584
  436MOL0     C58763   3.243   8.699   3.263  0.2462 -0.0315  0.3731
  436MOL0     C58764   3.125   8.703   3.363  0.5331 -0.8898  0.2577
  436MOL0     C58765   3.048   8.828   3.332 -0.3130 -0.3610  0.6734
  436MOL0     C58766   2.909   8.820   3.395  0.4295  0.7226 -0.3787
  436MOL0     C58767   2.931   8.799   3.548  0.4324 -0.0216  0.2336
  436MOL0     C58768   2.797   8.817   3.619 -0.1539  0.0857  0.2634
  436MOL0     C58769   2.807   8.752   3.754  0.1009 -0.5419  0.4956
  436MOL0    Cl58770   2.671   8.820   3.848  0.1175 -0.1311 -0.0932
  436MOL0     C58771   3.568   8.413   3.376  0.1088  0.6628  0.0730
  436MOL0     C58772   3.685   8.344   3.415 -1.0369  0.1261 -0.2891
  436MOL0     O58773   3.859   8.239   3.674 -0.6406  0.2254  0.1407
  436MOL0     C58774   4.109   8.100   3.673 -0.2677  1.0019 -0.1703
  436MOL0     C58775   4.237   8.030   3.660  0.2101  0.7962 -1.0807
  436MOL0     N58776   4.940   8.038   3.615 -0.7626 -0.2921  0.0460
  436MOL0     N58777   5.060   8.040   3.569 -0.1071  0.2806 -0.7703
  436MOL0     C58778   5.962   8.232   3.053 -1.0022  0.2017 -0.3860
  436MOL0     C58779   6.099   8.257   3.045  0.2009 -0.5602  0.6662
  436MOL0     C58780   6.513   8.372   2.954 -0.6060  0.4161  0.3652
  436MOL0     C58781   6.572   8.370   3.080  0.0793  0.2257  0.2411
  436MOL0     C58782   6.717   8.366   3.088  1.2889 -0.3151  0.0337
  436MOL0     C58783   6.799   8.356   2.974  0.3043  0.8905  0.3095
  436MOL0     O58784   6.935   8.372   2.969 -0.4243  0.3781  0.6162
  436MOL0     C58785   7.020   8.388   3.082 -0.6365 -0.6616 -0.3325
  436MOL0     C58786   7.030   8.259   3.162  0.2837 -0.3030 -0.3217
  436MOL0     C58787   7.112   8.138   3.113  0.1142  0.1342  0.2048
  436MOL0     C58788   7.194   8.064   3.216  0.3865 -1.1801  0.2004
  436MOL0     C58789   7.220   7.925   3.168  0.2207 -0.1697  0.3145
  436MOL0     C58790   7.232   7.812   3.132 -0.2899  0.0983 -0.4993
  436MOL0     C58791   6.735   8.350   2.848 -0.6680 -0.0229  0.4726
  436MOL0     C58792   6.598   8.364   2.843 -0.3894 -0.1824 -0.4234
  436MOL0     H58793   6.110   8.564   3.181  0.7734  0.5877  0.6799
  436MOL0     H58794   5.882   8.530   3.198 -0.1868 -1.2158  0.3552
  436MOL0     H58795   5.691   8.349   3.300  0.3734 -2.9795 -0.3404
  436MOL0     H58796   5.666   8.481   3.177 -1.1253 -0.4266  1.1030
  436MOL0     H58797   5.456   8.369   3.247  0.5389  0.5045  0.7289
  436MOL0     H58798   5.491   8.340   3.080  1.4621  0.1532 -0.0415
  436MOL0     H58799   5.591   8.119   3.118 -0.3880  0.6695  0.2551
  436MOL0     H58800   5.571   8.150   3.293 -2.5131 -1.5192  1.6119
  436MOL0     H58801   5.316   8.173   3.217  2.1824  1.9508 -0.7620
  436MOL0     H58802   5.361   8.066   3.083  0.6056 -1.0909  0.5703
  436MOL0     H58803   5.449   7.901   3.231  0.6965  0.4011  1.1833
  436MOL0     H58804   5.420   8.006   3.372  0.6876 -1.0736  0.5953
  436MOL0     H58805   5.172   7.998   3.315  0.0664  0.7859 -2.3202
  436MOL0     H58806   5.192   7.869   3.199 -0.5958  0.8845 -0.1334
  436MOL0     H58807   5.165   7.743   3.387 -0.8513  1.6004  0.9809
  436MOL0     H58808   5.343   7.758   3.384  0.0070 -0.8251  0.5611
  436MOL0     H58809   5.298   7.963   3.550  1.3100 -0.6956 -1.2408
  436MOL0     H58810   5.263   7.802   3.617  0.5383  1.9183  0.8273
  436MOL0     H58811   4.997   7.726   3.652  1.5170  0.9508  0.6525
  436MOL0     H58812   4.778   7.751   3.726 -0.6230 -0.2558  1.2445
  436MOL0     H58813   4.785   7.897   3.832 -2.3425  0.9895 -0.6526
  436MOL0     H58814   4.629   8.013   3.697  3.7172  0.2543 -2.0802
  436MOL0     H58815   4.564   7.846   3.701 -2.3197  1.8906 -2.0289
  436MOL0     H58816   4.594   7.794   3.495  0.7078 -0.8136 -0.6280
  436MOL0     H58817   4.724   7.911   3.467 -1.0936 -1.2733  0.4637
  436MOL0     H58818   4.494   7.971   3.352 -2.8632 -1.1763  0.0702
  436MOL0     H58819   4.545   8.083   3.477  2.7537 -0.9728  2.4411
  436MOL0     H58820   4.285   8.083   3.338 -0.0980  0.2867  0.8107
  436MOL0     H58821   3.947   8.142   3.297 -0.1430  0.3120 -0.3686
  436MOL0     H58822   4.049   8.286   3.299  1.1855 -0.3358  2.3818
  436MOL0     H58823   4.117   8.144   3.232 -1.1405 -1.5750 -0.7364
  436MOL0     H58824   3.849   8.588   3.583  1.4773  0.2609 -0.4523
  436MOL0     H58825   3.635   8.686   3.560  1.6417  0.4096 -1.3123
  436MOL0     H58826   3.409   8.598   3.189  1.5673 -0.6411  0.5969
  436MOL0     H58827   3.295   8.492   3.277 -2.0259  0.6890 -3.2652
  436MOL0     H58828   3.305   8.789   3.272  0.7922 -0.3814  0.1140
  436MOL0     H58829   3.200   8.696   3.162 -2.8353  2.7092  1.3915
  436MOL0     H58830   3.167   8.710   3.463 -0.2838 -0.8004  0.6028
  436MOL0     H58831   3.068   8.609   3.362 -1.1576  0.0708 -1.4813
  436MOL0     H58832   3.103   8.919   3.355  0.3183 -0.7242  0.6150
  436MOL0     H58833   3.025   8.828   3.225 -3.0870  0.7107  1.1854
  436MOL0     H58834   2.852   8.740   3.347  2.5100  0.3236 -2.3359
  436MOL0     H58835   2.852   8.913   3.382  2.0566  2.2265  2.2660
  436MOL0     H58836   2.977   8.704   3.579  1.6223  1.1630  2.3063
  436MOL0     H58837   3.001   8.872   3.591 -0.0392  0.7116 -0.2227
  436MOL0     H58838   2.708   8.777   3.570 -0.9650  1.0617  0.8855
  436MOL0     H58839   2.774   8.924   3.617  0.9475  0.3249 -0.9953
  436MOL0     H58840   2.906   8.766   3.800  0.7425 -3.0576  0.0461
  436MOL0     H58841   2.793   8.644   3.746 -0.2357 -0.4580 -0.0117
  436MOL0     H58842   3.500   8.369   3.304  0.8586  1.0309 -0.8909
  436MOL0     H58843   3.709   8.254   3.360  0.2697  0.3313 -0.0946
  436MOL0     H58844   4.066   8.115   3.772  2.9009  2.1673  1.1637
  436MOL0     H58845   4.289   7.988   3.746  1.3718 -0.7990 -2.4922
  436MOL0     H58846   5.922   8.147   2.999  2.6404 -1.1211 -1.3290
  436MOL0     H58847   6.164   8.184   2.998  2.1314  1.0933  0.6282
  436MOL0     H58848   6.526   8.385   3.177  1.0916  4.2549  0.2897
  436MOL0     H58849   6.762   8.371   3.187  0.8357  0.1394  0.2203
  436MOL0     H58850   7.121   8.416   3.052  0.4607 -3.0390  0.8629
  436MOL0     H58851   6.988   8.471   3.145  2.9052  0.8589 -0.2711
  436MOL0     H58852   6.935   8.215   3.193 -1.6472  3.2604 -0.6895
  436MOL0     H58853   7.072   8.294   3.257 -1.7497  1.5816 -0.0277
  436MOL0     H58854   7.179   8.180   3.036 -1.3499 -1.5031 -2.0825
  436MOL0     H58855   7.042   8.068   3.067 -0.1213 -2.0779  3.5741
  436MOL0     H58856   7.134   8.064   3.307  0.9468 -3.0146  0.6125
  436MOL0     H58857   7.295   8.105   3.226  0.8781 -2.1280 -0.6698
  436MOL0     H58858   7.244   7.711   3.098  3.5552  0.4624 -0.5902
  436MOL0     H58859   6.783   8.350   2.750  0.6786 -0.5593  1.1079
  436MOL0     H58860   6.551   8.381   2.746  0.0003  1.6687 -0.3225
  437MOL0     O58861   2.288   2.401   7.391  0.5542  0.0737  0.1529
  437MOL0     C58862   2.280   2.308   7.314  0.9172 -0.2952 -0.1496
  437MOL0     O58863   2.185   2.210   7.312 -0.3310 -0.2084  0.0956
  437MOL0     C58864   2.062   2.242   7.364  0.1638  0.3428 -0.1159
  437MOL0     C58865   1.999   2.153   7.450 -0.0835  0.6410  0.7246
  437MOL0     C58866   1.863   2.170   7.483  0.4327 -0.8114 -0.3827
  437MOL0     C58867   1.793   2.287   7.441 -0.7136 -0.0140  0.4877
  437MOL0     O58868   1.670   2.292   7.504 -1.0131  1.0028  0.4748
  437MOL0     C58869   1.647   2.421   7.568 -0.0202  0.0611  0.3312
  437MOL0     C58870   1.548   2.489   7.475  0.6579 -0.0799 -0.2802
  437MOL0     C58871   1.513   2.637   7.521  0.1248  0.7293  0.4781
  437MOL0     C58872   1.394   2.623   7.627 -0.5643 -0.1525  0.0615
  437MOL0     C58873   1.332   2.762   7.648  0.6129 -0.3066  0.3768
  437MOL0     C58874   1.195   2.745   7.727  0.3510  0.0638 -0.4918
  437MOL0     C58875   1.119   2.872   7.742  0.9950  0.3949  0.0586
  437MOL0     C58876   0.996   2.854   7.822  0.2294  0.3881  0.1312
  437MOL0     N58877   0.929   2.983   7.863 -0.0928 -0.3123  1.2941
  437MOL0     C58878   0.831   3.056   7.791 -1.1696 -0.5559 -0.0035
  437MOL0     C58879   0.774   3.133   7.889 -0.3755 -0.3858  0.1356
  437MOL0     C58880   0.660   3.233   7.877 -1.3492  0.1234  0.4002
  437MOL0     C58881   0.533   3.217   7.964  0.0962  0.3571 -0.3156
  437MOL0     C58882   0.458   3.084   7.919 -0.0799  0.2894 -0.1659
  437MOL0     C58883   0.306   3.096   7.944  0.2332 -0.5308  0.7257
  437MOL0     O58884   0.254   3.185   7.841 -0.9260  1.0529  0.6903
  437MOL0     C58885   0.122   3.230   7.830 -0.8608  0.6286  0.6732
  437MOL0     C58886   0.025   3.201   7.925 -0.9304  0.7229  0.3188
  437MOL0     C58887  -0.111   3.228   7.914 -0.4590 -0.2808 -0.5929
  437MOL0     C58888  -0.193   3.203   8.035  0.2630 -0.8014  0.6105
  437MOL0     C58889  -0.156   3.283   7.790  0.6055  0.6444  0.0193
  437MOL0     C58890  -0.293   3.330   7.756  0.2756 -0.3135  0.1978
  437MOL0     O58891  -0.329   3.307   7.618  0.2200  1.1933 -0.6063
  437MOL0     C58892  -0.449   3.361   7.571 -0.2701  0.0164  0.1887
  437MOL0     C58893  -0.441   3.434   7.449 -0.6523 -0.1545 -0.0415
  437MOL0     C58894  -0.562   3.472   7.386 -0.7864 -0.1121  0.1584
  437MOL0     C58895  -0.692   3.449   7.442  0.3645  0.3952 -0.4067
  437MOL0     O58896  -0.802   3.489   7.373  0.6871  0.5438  0.3458
  437MOL0     C58897  -0.927   3.472   7.434 -0.4303  0.3004  0.0150
  437MOL0     C58898  -1.030   3.470   7.317  0.2890  0.5590  0.0678
  437MOL0     C58899  -1.174   3.474   7.355  0.0891  0.0545 -0.2970
  437MOL0     C58900  -1.259   3.458   7.231 -0.2893  0.8237 -0.6301
  437MOL0     C58901  -1.408   3.467   7.256  0.4146  0.4724  0.4297
  437MOL0     C58902  -1.500   3.395   7.152 -0.1878  0.2627 -0.7314
  437MOL0     C58903  -1.646   3.397   7.205  0.6549  0.0661  0.2664
  437MOL0     C58904  -1.701   3.536   7.222 -1.3396 -0.0787  1.2092
  437MOL0    Cl58905  -1.865   3.512   7.282 -0.1822  0.1473  0.0509
  437MOL0     C58906  -0.692   3.374   7.562 -0.9340 -0.1389 -0.5693
  437MOL0     C58907  -0.571   3.327   7.622 -0.5945  0.8066  0.2553
  437MOL0     O58908  -0.363   3.390   7.840 -0.5167 -0.0285  0.8095
  437MOL0     C58909  -0.057   3.315   7.696 -0.8534 -0.2546 -0.4489
  437MOL0     C58910   0.078   3.284   7.712  0.3597  0.1905  1.2995
  437MOL0     N58911   0.848   3.115   8.009 -1.0069  0.2420 -0.4986
  437MOL0     N58912   0.922   3.015   7.993 -0.4254 -0.3390 -0.5191
  437MOL0     C58913   1.855   2.379   7.362 -0.1572 -0.7838 -0.6365
  437MOL0     C58914   1.994   2.359   7.325  0.0512  0.5542  0.2939
  437MOL0     C58915   2.402   2.286   7.225 -0.7204  0.2018 -0.5109
  437MOL0     C58916   2.438   2.154   7.177  0.1353  0.0108  0.5038
  437MOL0     C58917   2.553   2.132   7.092  1.1431 -1.0851 -0.2925
  437MOL0     C58918   2.639   2.242   7.073  0.5069  0.5886 -0.4508
  437MOL0     O58919   2.754   2.241   6.997 -0.3383 -0.4917  0.2395
  437MOL0     C58920   2.827   2.120   6.969  0.1280  0.0831  0.2451
  437MOL0     C58921   2.976   2.136   6.986 -1.1684  0.4920  0.6859
  437MOL0     C58922   3.031   2.249   6.903 -0.4125  0.6700 -0.2510
  437MOL0     C58923   3.188   2.293   6.909  0.2103  0.4503 -0.1894
  437MOL0     C58924   3.275   2.185   6.862  1.3961 -0.2919 -0.0767
  437MOL0     C58925   3.342   2.083   6.837 -0.2858 -1.2821  0.0884
  437MOL0     C58926   2.605   2.361   7.128 -0.3582 -0.1906 -0.4131
  437MOL0     C58927   2.497   2.381   7.209 -0.0181 -0.3187  0.1200
  437MOL0     H58928   2.045   2.062   7.486  0.4125  0.3622 -0.5582
  437MOL0     H58929   1.820   2.091   7.545 -1.0053  1.0167  1.0626
  437MOL0     H58930   1.603   2.416   7.668  0.2254  0.8052  0.4806
  437MOL0     H58931   1.739   2.480   7.575  0.2629  0.0634 -2.3416
  437MOL0     H58932   1.590   2.499   7.374 -1.5193  0.0700 -1.2206
  437MOL0     H58933   1.457   2.431   7.457  0.1211  0.9492 -0.9879
  437MOL0     H58934   1.598   2.691   7.563 -1.3785  3.0769  0.7100
  437MOL0     H58935   1.480   2.701   7.438 -0.8259  0.3387  0.5386
  437MOL0     H58936   1.317   2.557   7.587 -1.4366  0.5068  0.6390
  437MOL0     H58937   1.435   2.571   7.715  1.2659 -3.0277 -2.2936
  437MOL0     H58938   1.404   2.829   7.695 -0.0656  3.9829 -3.9635
  437MOL0     H58939   1.304   2.813   7.555  0.9045  0.0796  0.5023
  437MOL0     H58940   1.144   2.666   7.670  4.9316 -1.5492 -2.9107
  437MOL0     H58941   1.215   2.701   7.825 -1.9191  1.5658  0.7287
  437MOL0     H58942   1.184   2.943   7.795  1.6158  2.1234 -2.7877
  437MOL0     H58943   1.103   2.921   7.646 -1.3154  0.4755  0.4226
  437MOL0     H58944   1.028   2.789   7.904  2.2233 -0.4201 -1.1996
  437MOL0     H58945   0.920   2.794   7.772  1.7319 -0.4421 -1.2594
  437MOL0     H58946   0.803   3.023   7.691  0.4648 -1.7433 -0.1212
  437MOL0     H58947   0.706   3.328   7.909 -2.1693  1.6617 -2.6334
  437MOL0     H58948   0.633   3.245   7.772  1.8271  0.4458 -0.4813
  437MOL0     H58949   0.479   3.308   7.938  0.1597  0.2415 -0.8757
  437MOL0     H58950   0.560   3.202   8.069 -0.4411 -1.7139 -0.4215
  437MOL0     H58951   0.488   3.002   7.984 -3.7346 -1.9153 -0.9526
  437MOL0     H58952   0.477   3.059   7.814  3.0524 -0.1978  0.4312
  437MOL0     H58953   0.290   3.143   8.042 -2.7496  0.6227 -0.2031
  437MOL0     H58954   0.255   2.999   7.943 -4.1759  1.5567  0.4967
  437MOL0     H58955   0.067   3.159   8.016 -0.5417  1.3359  0.4271
  437MOL0     H58956  -0.192   3.095   8.053  0.1209 -0.9935 -0.4492
  437MOL0     H58957  -0.142   3.241   8.123  1.6460 -2.1271  0.4229
  437MOL0     H58958  -0.297   3.238   8.031 -0.2587 -2.1587  1.4868
  437MOL0     H58959  -0.342   3.465   7.418 -0.3108  1.8951  2.6839
  437MOL0     H58960  -0.568   3.525   7.292  1.4467 -0.5081 -0.2478
  437MOL0     H58961  -0.926   3.372   7.480 -2.7588  0.4278  0.4387
  437MOL0     H58962  -0.953   3.557   7.498 -2.7863  0.2078 -0.7415
  437MOL0     H58963  -1.012   3.551   7.246  1.2743 -1.3368 -1.9412
  437MOL0     H58964  -1.008   3.378   7.263  0.7404  0.3896  0.5228
  437MOL0     H58965  -1.186   3.574   7.399  0.8691 -1.2551  3.1559
  437MOL0     H58966  -1.205   3.399   7.427 -2.8782 -0.4641 -1.9143
  437MOL0     H58967  -1.230   3.534   7.157  1.8721  3.1268  2.3465
  437MOL0     H58968  -1.243   3.356   7.195  3.5957  0.3531  1.8923
  437MOL0     H58969  -1.431   3.574   7.254 -1.6196  0.1159 -2.4658
  437MOL0     H58970  -1.444   3.427   7.351  1.3788  0.5220  0.8341
  437MOL0     H58971  -1.500   3.451   7.058 -1.2368  0.8005 -0.4333
  437MOL0     H58972  -1.464   3.293   7.134  0.1017 -0.4941  3.2790
  437MOL0     H58973  -1.648   3.339   7.298  1.0495 -0.5312 -0.0924
  437MOL0     H58974  -1.710   3.340   7.137 -0.6335 -1.7654  2.7913
  437MOL0     H58975  -1.711   3.589   7.127 -0.5482 -0.3626  0.9646
  437MOL0     H58976  -1.655   3.593   7.303 -1.1388 -0.9466  1.7175
  437MOL0     H58977  -0.779   3.340   7.618  1.4544 -2.4670  2.1295
  437MOL0     H58978  -0.570   3.258   7.705 -0.6071 -0.3115 -0.6457
  437MOL0     H58979  -0.069   3.366   7.601  1.3120 -0.4053 -0.8689
  437MOL0     H58980   0.157   3.282   7.637 -0.5956 -0.9042  0.2844
  437MOL0     H58981   1.813   2.477   7.340 -1.4479 -0.6807  1.9433
  437MOL0     H58982   2.050   2.436   7.273  0.8888  2.1394  3.2741
  437MOL0     H58983   2.377   2.069   7.205 -0.2657 -0.1152 -0.6941
  437MOL0     H58984   2.559   2.028   7.059 -3.3153 -1.8309  0.6695
  437MOL0     H58985   2.798   2.035   7.031 -1.6936  0.4587 -0.0262
  437MOL0     H58986   2.808   2.099   6.863  0.7218  0.3266  0.0875
  437MOL0     H58987   3.026   2.046   6.952  2.4548  1.5041  2.8210
  437MOL0     H58988   2.994   2.151   7.093 -1.1937  0.4711  0.6927
  437MOL0     H58989   2.982   2.344   6.923  0.8930  2.0104 -2.9293
  437MOL0     H58990   3.018   2.227   6.797  0.0787 -1.5116  0.0867
  437MOL0     H58991   3.211   2.297   7.016 -0.3685  0.1666 -0.0519
  437MOL0     H58992   3.203   2.390   6.860 -0.4294  1.8219  2.1608
  437MOL0     H58993   3.397   1.993   6.820  0.4022 -0.6284 -1.3650
  437MOL0     H58994   2.675   2.441   7.107  1.0829 -1.3467 -0.1858
  437MOL0     H58995   2.487   2.478   7.256  1.0533 -1.1780  2.2513
  438MOL0     O58996  11.035   0.607   6.732  0.2226  0.2718 -0.1803
  438MOL0     C58997  10.996   0.587   6.623 -0.0483  0.1849 -0.3291
  438MOL0     O58998  11.068   0.544   6.519 -0.5935 -0.3022  0.5081
  438MOL0     C58999  11.200   0.540   6.517 -0.3849  0.7960 -0.7204
  438MOL0     C59000  11.277   0.659   6.535  0.0297 -0.2593 -0.4770
  438MOL0     C59001  11.414   0.644   6.534 -0.1149  0.3660 -0.2274
  438MOL0     C59002  11.485   0.523   6.522 -0.2359  0.0561 -0.0352
  438MOL0     O59003  11.617   0.511   6.520 -0.0842  0.0008  0.1578
  438MOL0     C59004  11.687   0.598   6.610  0.1112  0.0655  0.3861
  438MOL0     C59005  11.836   0.563   6.624  0.4123  0.9330  0.0109
  438MOL0     C59006  11.908   0.554   6.487 -0.5268  0.2723 -0.4505
  438MOL0     C59007  12.042   0.479   6.522  0.0849  0.7260 -0.5163
  438MOL0     C59008  12.152   0.506   6.417 -0.4467 -0.1475  0.2573
  438MOL0     C59009  12.230   0.629   6.449  0.7899 -0.1303  0.1422
  438MOL0     C59010  12.322   0.673   6.336 -0.5808  0.9535  0.7099
  438MOL0     C59011  12.249   0.735   6.216 -0.1623  0.7420  0.1106
  438MOL0     N59012  12.285   0.875   6.202  0.0944  0.2185  0.6659
  438MOL0     C59013  12.406   0.925   6.135 -0.7292  0.0155 -0.4196
  438MOL0     C59014  12.390   1.055   6.127  0.5593 -0.0630  0.4437
  438MOL0     C59015  12.483   1.147   6.046  0.2549  0.8636  0.3153
  438MOL0     C59016  12.601   1.171   6.142  0.1419 -0.5914  0.1555
  438MOL0     C59017  12.552   1.266   6.258  0.0466  0.6719  0.0696
  438MOL0     C59018  12.666   1.318   6.348  0.1856 -0.2265  0.0426
  438MOL0     O59019  12.626   1.430   6.426  1.9385  0.1870  1.4845
  438MOL0     C59020  12.725   1.508   6.471 -0.3845 -0.0638 -0.0190
  438MOL0     C59021  12.684   1.617   6.540 -0.4806 -0.0570  0.3633
  438MOL0     C59022  12.768   1.709   6.600 -0.5144  0.2656  0.3269
  438MOL0     C59023  12.700   1.826   6.669 -0.1046 -0.8030 -0.3517
  438MOL0     C59024  12.912   1.674   6.596  0.7824 -0.1084 -0.2314
  438MOL0     C59025  13.014   1.758   6.670  0.1006 -0.8108  0.4769
  438MOL0     O59026  13.142   1.706   6.651  0.4151 -0.3919  0.4044
  438MOL0     C59027  13.261   1.769   6.663 -0.2075  0.6705  0.1366
  438MOL0     C59028  13.280   1.891   6.603  0.1853 -0.4186 -0.7414
  438MOL0     C59029  13.407   1.947   6.596 -0.6344  0.2841 -0.4554
  438MOL0     C59030  13.517   1.891   6.657 -0.1251  0.8967  0.0535
  438MOL0     O59031  13.635   1.953   6.633  0.8131  0.3726  0.0141
  438MOL0     C59032  13.756   1.876   6.661 -0.9089 -0.2738  0.1128
  438MOL0     C59033  13.888   1.944   6.610 -0.2083  0.4734 -0.3564
  438MOL0     C59034  14.012   1.855   6.633 -0.3347  0.5125 -0.5460
  438MOL0     C59035  14.142   1.918   6.598  0.2300 -0.4871  0.3518
  438MOL0     C59036  14.264   1.832   6.591  1.2984 -0.0058  0.1953
  438MOL0     C59037  14.393   1.898   6.637  0.8943  0.5320  0.3309
  438MOL0     C59038  14.512   1.801   6.612  1.1489  0.0043 -0.7398
  438MOL0     C59039  14.518   1.689   6.710  1.1300  0.1123  0.8502
  438MOL0    Cl59040  14.555   1.738   6.871 -0.2600 -0.0695  0.0894
  438MOL0     C59041  13.493   1.766   6.715 -0.5885  0.5777 -0.0254
  438MOL0     C59042  13.378   1.696   6.707  0.5594  0.3145 -0.1779
  438MOL0     O59043  12.986   1.864   6.723 -0.6920 -0.6973 -1.0207
  438MOL0     C59044  12.951   1.558   6.536 -0.0846 -0.0077  0.3861
  438MOL0     C59045  12.865   1.481   6.467 -0.2078  1.0446  0.3087
  438MOL0     N59046  12.282   1.080   6.209 -0.1125 -0.1898  0.2173
  438MOL0     N59047  12.217   0.979   6.240 -0.1903  0.5151 -0.0468
  438MOL0     C59048  11.407   0.412   6.509  0.2264 -0.6352  0.9056
  438MOL0     C59049  11.263   0.424   6.502 -0.2441 -0.2011 -0.7006
  438MOL0     C59050  10.856   0.600   6.591 -0.3298  0.0884 -0.1050
  438MOL0     C59051  10.806   0.518   6.489 -0.2380  0.1660 -0.3014
  438MOL0     C59052  10.672   0.524   6.454  0.7771  0.0427 -0.6218
  438MOL0     C59053  10.585   0.608   6.528  0.1551 -0.0203  0.7915
  438MOL0     O59054  10.456   0.608   6.496  0.3297  0.7061  0.1219
  438MOL0     C59055  10.362   0.664   6.586 -0.1081  0.2382  0.7887
  438MOL0     C59056  10.223   0.665   6.519 -0.3081  0.2890  0.2835
  438MOL0     C59057  10.121   0.771   6.566  0.0663 -0.4948  0.0398
  438MOL0     C59058   9.975   0.749   6.510 -0.0826 -0.3833 -0.4842
  438MOL0     C59059   9.884   0.843   6.572  0.0192  0.8695 -0.5325
  438MOL0     C59060   9.827   0.918   6.645 -0.3615 -0.6326  1.0198
  438MOL0     C59061  10.635   0.697   6.617  0.0598  0.1657  0.3888
  438MOL0     C59062  10.773   0.697   6.646  0.2155  0.4676 -0.2704
  438MOL0     H59063  11.230   0.757   6.543 -3.9703 -1.9987 -0.0230
  438MOL0     H59064  11.463   0.738   6.557  0.0217  0.3554 -0.4706
  438MOL0     H59065  11.682   0.700   6.570 -0.7715 -0.4272 -0.8290
  438MOL0     H59066  11.639   0.581   6.707  1.3014 -2.0129  0.6637
  438MOL0     H59067  11.884   0.638   6.688  0.8803 -0.0364  0.8196
  438MOL0     H59068  11.844   0.465   6.671  2.1391  0.0910 -1.9010
  438MOL0     H59069  11.845   0.507   6.411  0.1669 -0.1644 -0.7723
  438MOL0     H59070  11.936   0.653   6.450 -0.9165 -0.1114 -1.8408
  438MOL0     H59071  12.090   0.507   6.616  1.5495  1.6963 -1.5050
  438MOL0     H59072  12.011   0.374   6.523 -1.9414  1.2721  0.9927
  438MOL0     H59073  12.220   0.421   6.431 -2.0444 -1.8390 -1.6263
  438MOL0     H59074  12.110   0.509   6.316  2.8990  0.8594 -1.2638
  438MOL0     H59075  12.165   0.716   6.467  1.8794  0.6313  0.5514
  438MOL0     H59076  12.286   0.618   6.543  0.8589  1.7482  0.3668
  438MOL0     H59077  12.398   0.742   6.375 -0.9297 -0.4480  4.2217
  438MOL0     H59078  12.386   0.592   6.300 -0.6619  1.5745 -0.9582
  438MOL0     H59079  12.142   0.713   6.223 -0.5598  2.2719 -0.9156
  438MOL0     H59080  12.274   0.679   6.126 -2.9322 -0.4561 -0.0237
  438MOL0     H59081  12.487   0.868   6.090  0.5643  0.5108  1.1660
  438MOL0     H59082  12.520   1.111   5.950  1.9973  1.1038  0.8600
  438MOL0     H59083  12.428   1.241   6.032  1.9786  2.0422  1.0819
  438MOL0     H59084  12.685   1.205   6.082 -1.9800  1.5346 -1.7964
  438MOL0     H59085  12.626   1.076   6.191 -0.0955 -1.4154 -1.2880
  438MOL0     H59086  12.471   1.221   6.316  0.3838  0.3295  0.2845
  438MOL0     H59087  12.502   1.353   6.215 -0.2621  0.8323  0.7315
  438MOL0     H59088  12.748   1.354   6.284 -0.1543  1.2870  0.4105
  438MOL0     H59089  12.702   1.238   6.413  0.4691 -0.9455 -0.9773
  438MOL0     H59090  12.578   1.631   6.555 -0.1907  1.8285  0.9804
  438MOL0     H59091  12.702   1.920   6.613  0.0437  0.1007  1.1418
  438MOL0     H59092  12.593   1.805   6.681 -0.8960  2.4168 -0.8295
  438MOL0     H59093  12.746   1.840   6.767  1.9916 -0.4329 -1.3449
  438MOL0     H59094  13.193   1.949   6.574 -0.8739 -0.9256  1.1925
  438MOL0     H59095  13.417   2.044   6.547 -2.9696  0.4333 -0.7784
  438MOL0     H59096  13.758   1.839   6.765 -0.0486  0.1641  0.2569
  438MOL0     H59097  13.742   1.781   6.609 -0.9215 -1.5355  2.3033
  438MOL0     H59098  13.879   1.965   6.503 -1.8554  0.2438 -0.2840
  438MOL0     H59099  13.914   2.037   6.661 -0.1117  1.5486 -2.2492
  438MOL0     H59100  14.008   1.762   6.575 -2.0691  0.0873  0.1748
  438MOL0     H59101  14.003   1.826   6.738 -2.9310 -3.0319 -1.5490
  438MOL0     H59102  14.126   1.977   6.507  1.8320  3.5193  2.3812
  438MOL0     H59103  14.143   1.999   6.672  0.4258  0.1215 -0.2997
  438MOL0     H59104  14.282   1.790   6.492 -1.0482  0.1348 -0.3552
  438MOL0     H59105  14.251   1.747   6.660  2.3295  1.2980  2.0813
  438MOL0     H59106  14.410   1.988   6.577 -2.1272  0.7865 -0.3251
  438MOL0     H59107  14.399   1.946   6.735  1.6449  0.0455  0.5373
  438MOL0     H59108  14.603   1.862   6.622  0.4583  0.6983  2.2853
  438MOL0     H59109  14.499   1.768   6.509  0.0773 -0.8095 -0.3614
  438MOL0     H59110  14.601   1.626   6.675 -0.9186 -1.1639 -2.0656
  438MOL0     H59111  14.435   1.618   6.715  0.3240  0.8967 -0.6961
  438MOL0     H59112  13.564   1.707   6.772 -0.4279  2.3272  1.6906
  438MOL0     H59113  13.373   1.593   6.740 -0.1426 -0.2941 -2.0815
  438MOL0     H59114  13.056   1.534   6.525 -0.0789 -0.3883  1.2677
  438MOL0     H59115  12.910   1.393   6.423 -0.5788 -0.1007  2.1277
  438MOL0     H59116  11.457   0.316   6.509 -0.0438 -0.8213 -1.0686
  438MOL0     H59117  11.211   0.331   6.483  0.0185 -0.3107 -0.8968
  438MOL0     H59118  10.872   0.455   6.431 -1.0357  0.1640 -1.2224
  438MOL0     H59119  10.630   0.463   6.374 -3.6944  3.6785 -1.4726
  438MOL0     H59120  10.347   0.623   6.686  2.3633  2.6958  2.2983
  438MOL0     H59121  10.381   0.771   6.597 -0.1173  0.3935 -0.5969
  438MOL0     H59122  10.178   0.569   6.547  2.3327 -1.1463 -0.1379
  438MOL0     H59123  10.236   0.675   6.411  0.3951 -2.1184  0.0892
  438MOL0     H59124  10.152   0.874   6.547 -2.5189  0.4079  0.3114
  438MOL0     H59125  10.115   0.757   6.674 -1.1081  1.1016  0.2113
  438MOL0     H59126   9.936   0.647   6.513 -0.3470 -0.8192 -6.4642
  438MOL0     H59127   9.976   0.767   6.402  1.1758 -0.3833 -0.4872
  438MOL0     H59128   9.772   0.976   6.718 -2.5649 -1.7543  0.3507
  438MOL0     H59129  10.583   0.771   6.676  0.0501  0.7481 -0.3373
  438MOL0     H59130  10.798   0.754   6.736 -0.9671  1.9021 -0.8020
  439MOL0     O59131   6.204   6.418   3.836 -0.4574 -0.7649  0.3377
  439MOL0     C59132   6.158   6.509   3.902 -0.8397 -0.2325 -0.2488
  439MOL0     O59133   6.026   6.529   3.936 -0.1588  0.6341 -0.0757
  439MOL0     C59134   5.915   6.479   3.872  0.8494 -0.4801  0.7833
  439MOL0     C59135   5.794   6.535   3.919 -0.1748  0.5033 -0.8299
  439MOL0     C59136   5.670   6.494   3.872 -0.1045 -0.3016 -0.6996
  439MOL0     C59137   5.658   6.389   3.772 -0.1346 -0.7831 -0.0403
  439MOL0     O59138   5.544   6.341   3.723 -0.8514 -0.9208  0.1459
  439MOL0     C59139   5.443   6.314   3.823  0.1658  0.9171 -0.4634
  439MOL0     C59140   5.314   6.264   3.758 -0.7878 -0.1343 -0.1241
  439MOL0     C59141   5.186   6.269   3.837 -0.7903 -0.5016 -0.7108
  439MOL0     C59142   5.073   6.322   3.755  0.2393  0.1642  0.1602
  439MOL0     C59143   5.027   6.242   3.627 -0.3223  0.0107 -0.9303
  439MOL0     C59144   5.004   6.096   3.644 -0.2341 -0.0252  0.4787
  439MOL0     C59145   4.955   6.042   3.519 -0.0036 -0.6551 -0.2276
  439MOL0     C59146   4.933   5.891   3.533  0.2230  0.5773  0.2017
  439MOL0     N59147   4.803   5.859   3.601  0.7132  0.0615 -0.5340
  439MOL0     C59148   4.783   5.826   3.732  0.0467  0.0472 -0.1231
  439MOL0     C59149   4.653   5.781   3.736 -0.2928 -0.1490  0.5738
  439MOL0     C59150   4.587   5.708   3.851  0.3351 -0.6402 -0.5269
  439MOL0     C59151   4.509   5.579   3.803  0.3428  0.3004 -0.2429
  439MOL0     C59152   4.360   5.602   3.777  0.2227 -0.4773 -0.9232
  439MOL0     C59153   4.301   5.463   3.790 -0.2496  0.5597 -0.8451
  439MOL0     O59154   4.163   5.466   3.767 -0.0045 -0.4233  0.1940
  439MOL0     C59155   4.112   5.411   3.652  0.5334 -0.0131  0.5082
  439MOL0     C59156   4.161   5.309   3.574  0.1946  0.3472  0.1928
  439MOL0     C59157   4.093   5.272   3.455 -0.2052 -0.4455  0.8042
  439MOL0     C59158   4.141   5.158   3.382  0.2547  0.7516 -0.0882
  439MOL0     C59159   3.969   5.325   3.425 -0.1370 -0.1376  0.2258
  439MOL0     C59160   3.875   5.289   3.313  0.1498  0.0819  0.8765
  439MOL0     O59161   3.810   5.390   3.250 -0.0535 -0.6952 -0.5360
  439MOL0     C59162   3.710   5.383   3.159  0.0335  0.1793  0.9769
  439MOL0     C59163   3.695   5.496   3.074 -0.8683  0.3697 -0.0138
  439MOL0     C59164   3.603   5.491   2.975  0.5845  0.8148  0.4435
  439MOL0     C59165   3.509   5.382   2.973  0.4790 -0.3330  1.0733
  439MOL0     O59166   3.408   5.364   2.882 -0.5279  0.8608  0.3563
  439MOL0     C59167   3.359   5.475   2.813 -0.0867  0.3945 -0.1055
  439MOL0     C59168   3.257   5.425   2.715  0.1236  0.0212 -0.1324
  439MOL0     C59169   3.145   5.339   2.772  0.3454 -0.3944  0.7691
  439MOL0     C59170   3.055   5.299   2.657 -0.8153 -0.0265 -0.3827
  439MOL0     C59171   2.955   5.192   2.717  0.1684  0.2562  0.6631
  439MOL0     C59172   2.831   5.192   2.632  0.7598  0.0203 -0.0452
  439MOL0     C59173   2.737   5.082   2.680  1.1656 -0.5855 -0.2395
  439MOL0     C59174   2.608   5.095   2.601  0.4163 -0.3885 -0.1099
  439MOL0    Cl59175   2.504   5.250   2.632 -0.5728 -0.6408 -0.1300
  439MOL0     C59176   3.515   5.276   3.063 -0.4007 -0.7472  0.1785
  439MOL0     C59177   3.620   5.277   3.149 -0.1842  0.6495 -0.7557
  439MOL0     O59178   3.863   5.174   3.278  0.0511 -0.2859 -0.6573
  439MOL0     C59179   3.927   5.431   3.510  0.2394 -0.4425  0.3636
  439MOL0     C59180   3.995   5.471   3.619  0.4353  0.9522 -0.6520
  439MOL0     N59181   4.598   5.785   3.611  1.0512  0.0925 -0.3280
  439MOL0     N59182   4.689   5.833   3.540  0.3642  0.1786  0.4668
  439MOL0     C59183   5.777   6.347   3.721 -0.4598  0.1405 -0.1533
  439MOL0     C59184   5.909   6.385   3.772  0.5792  0.2136 -0.5044
  439MOL0     C59185   6.264   6.602   3.942  0.8829  0.0833  0.2158
  439MOL0     C59186   6.247   6.700   4.038  0.9532 -0.3194  0.0366
  439MOL0     C59187   6.345   6.792   4.068 -0.1941 -0.6986  0.4865
  439MOL0     C59188   6.476   6.777   4.005  0.3495 -1.4952  0.0458
  439MOL0     O59189   6.585   6.856   4.038 -0.9089 -0.4585  0.1499
  439MOL0     C59190   6.559   6.973   4.111 -0.4718  0.2793 -0.1131
  439MOL0     C59191   6.693   7.045   4.151 -0.0507 -0.1435 -0.1234
  439MOL0     C59192   6.790   7.080   4.031 -0.5652 -0.0839  0.1429
  439MOL0     C59193   6.909   7.166   4.068 -0.9734 -0.5293  0.3748
  439MOL0     C59194   6.867   7.283   4.135 -0.2267 -0.6094 -0.7967
  439MOL0     C59195   6.822   7.391   4.181 -1.0785 -0.0772 -0.0703
  439MOL0     C59196   6.494   6.674   3.921 -0.6073 -0.1376  0.0555
  439MOL0     C59197   6.392   6.594   3.883  0.0329 -0.1121 -0.2417
  439MOL0     H59198   5.809   6.614   3.992 -1.5170  0.4124 -0.4364
  439MOL0     H59199   5.577   6.544   3.900 -0.9418 -2.1912  0.0537
  439MOL0     H59200   5.471   6.234   3.891 -0.6185  1.7764  0.9190
  439MOL0     H59201   5.429   6.403   3.885 -3.6200  0.1433  0.0083
  439MOL0     H59202   5.304   6.318   3.664 -0.2934 -1.3664 -0.9176
  439MOL0     H59203   5.322   6.158   3.733 -1.1404  0.1773 -1.6720
  439MOL0     H59204   5.153   6.173   3.878 -1.3646  0.8481  2.2730
  439MOL0     H59205   5.194   6.336   3.923 -1.7548  1.3784 -2.0282
  439MOL0     H59206   4.989   6.317   3.825 -0.2144  0.6014 -0.3437
  439MOL0     H59207   5.088   6.426   3.725 -0.6655  0.6077  1.1774
  439MOL0     H59208   4.934   6.292   3.599 -1.1816 -1.9616 -1.8134
  439MOL0     H59209   5.109   6.255   3.556 -1.4607  1.8149 -1.9858
  439MOL0     H59210   5.098   6.045   3.667 -0.4117 -0.9118 -0.7148
  439MOL0     H59211   4.933   6.083   3.726 -1.4422  0.3364 -0.4853
  439MOL0     H59212   4.859   6.083   3.488  1.4483  1.4348 -2.2989
  439MOL0     H59213   5.026   6.058   3.437 -2.4850 -0.9062 -2.5791
  439MOL0     H59214   5.012   5.835   3.583 -0.9384 -1.3257 -0.0103
  439MOL0     H59215   4.934   5.854   3.430 -2.6400 -1.1230  0.6707
  439MOL0     H59216   4.845   5.830   3.820  1.2141 -2.6054 -0.6993
  439MOL0     H59217   4.664   5.672   3.920 -2.1901 -1.4436  2.1144
  439MOL0     H59218   4.530   5.779   3.912  1.0277 -0.5562  0.0388
  439MOL0     H59219   4.536   5.497   3.870  1.3514 -0.5561 -1.6438
  439MOL0     H59220   4.560   5.531   3.719 -0.3322 -1.2691  0.2066
  439MOL0     H59221   4.324   5.644   3.683  0.1491  1.0827 -0.2240
  439MOL0     H59222   4.318   5.670   3.852  0.1736 -2.3888  0.8848
  439MOL0     H59223   4.315   5.429   3.893  1.7404 -1.1689 -1.6091
  439MOL0     H59224   4.355   5.394   3.725  1.6360  2.2703 -1.1995
  439MOL0     H59225   4.248   5.256   3.610 -0.0351 -0.7700 -0.8327
  439MOL0     H59226   4.230   5.124   3.436  0.4495  2.2882  0.6023
  439MOL0     H59227   4.071   5.075   3.388  1.9816 -0.7277  0.7711
  439MOL0     H59228   4.175   5.182   3.281  4.4621  1.1055  1.1962
  439MOL0     H59229   3.757   5.585   3.074  0.4154 -0.5083  1.1328
  439MOL0     H59230   3.588   5.574   2.907  1.0175  1.6564  1.3546
  439MOL0     H59231   3.324   5.554   2.879  1.7867  1.3858 -0.2508
  439MOL0     H59232   3.446   5.509   2.756  1.0535  1.1313  2.0037
  439MOL0     H59233   3.213   5.507   2.657  0.8723  0.0118 -0.7304
  439MOL0     H59234   3.298   5.349   2.649 -3.9943 -1.7342 -0.9453
  439MOL0     H59235   3.091   5.404   2.842  2.4900  1.4112  0.8667
  439MOL0     H59236   3.185   5.252   2.826  1.0008 -1.4288 -1.2815
  439MOL0     H59237   2.997   5.386   2.626  0.5894  0.3714 -2.0653
  439MOL0     H59238   3.110   5.267   2.568 -1.8718  0.4412 -1.2203
  439MOL0     H59239   2.921   5.214   2.819  0.2744  3.4090  0.0993
  439MOL0     H59240   3.009   5.096   2.721 -0.5668 -0.1460  1.0286
  439MOL0     H59241   2.775   5.285   2.646  1.0289 -0.2348  4.0642
  439MOL0     H59242   2.850   5.167   2.527 -1.1079  1.7097 -0.8596
  439MOL0     H59243   2.708   5.099   2.784 -1.9173  4.4389 -1.5475
  439MOL0     H59244   2.777   4.982   2.665 -4.1306 -2.6432 -3.0243
  439MOL0     H59245   2.544   5.008   2.614  1.5515 -1.0596  1.1346
  439MOL0     H59246   2.637   5.107   2.496 -1.3354  3.2319 -0.3537
  439MOL0     H59247   3.450   5.189   3.065  3.0085 -3.5025 -0.6409
  439MOL0     H59248   3.636   5.192   3.214  4.3388  0.9771 -1.1354
  439MOL0     H59249   3.843   5.492   3.478 -0.0821 -0.4745  1.1073
  439MOL0     H59250   3.957   5.551   3.682  0.2143  0.5871 -0.3162
  439MOL0     H59251   5.778   6.270   3.644 -0.9810  0.5221 -0.5459
  439MOL0     H59252   5.994   6.344   3.718  1.3465  1.0398  0.0582
  439MOL0     H59253   6.149   6.708   4.085 -0.3577  1.8683 -2.7267
  439MOL0     H59254   6.315   6.871   4.136  3.8407  1.8865 -0.3338
  439MOL0     H59255   6.507   7.051   4.056  1.3219  1.7584  0.2011
  439MOL0     H59256   6.501   6.945   4.199 -1.6878  3.1082  0.0655
  439MOL0     H59257   6.752   6.983   4.219  0.0439  0.7181  0.6108
  439MOL0     H59258   6.667   7.142   4.194  0.9138 -0.6705  1.7729
  439MOL0     H59259   6.733   7.136   3.957 -0.4874 -2.9117 -2.2328
  439MOL0     H59260   6.827   6.995   3.974  0.0121 -0.3876  0.9507
  439MOL0     H59261   6.961   7.194   3.977 -2.1645  1.6131  0.2862
  439MOL0     H59262   6.984   7.118   4.132 -0.0135 -0.0114 -0.3445
  439MOL0     H59263   6.788   7.481   4.226 -0.9346  0.0471 -0.2070
  439MOL0     H59264   6.590   6.647   3.878 -1.7359 -2.2056 -1.3360
  439MOL0     H59265   6.413   6.525   3.802  0.0876 -0.3558 -0.0197
  440MOL0     O59266   4.217   5.871   7.132  0.0226  0.0048 -0.4170
  440MOL0     C59267   4.162   5.764   7.152 -0.9803 -0.0969 -0.3720
  440MOL0     O59268   4.027   5.740   7.172  1.0643 -0.0031 -0.4117
  440MOL0     C59269   3.933   5.830   7.111 -0.1831 -0.1649 -0.5352
  440MOL0     C59270   3.955   5.896   6.995 -0.0969 -0.5731  0.5834
  440MOL0     C59271   3.853   5.980   6.941 -0.8555  1.5718 -0.0821
  440MOL0     C59272   3.733   5.989   7.011 -0.0160  0.8756 -0.1312
  440MOL0     O59273   3.633   6.065   6.951 -0.1134 -0.1955 -0.5111
  440MOL0     C59274   3.509   6.061   7.011 -0.4838 -0.0098  0.0154
  440MOL0     C59275   3.411   6.159   6.960  0.4205 -1.1564  0.8641
  440MOL0     C59276   3.403   6.150   6.810 -0.9761  0.7688 -0.0749
  440MOL0     C59277   3.287   6.227   6.763  0.0509  0.1062 -0.5406
  440MOL0     C59278   3.279   6.235   6.611 -0.8859 -0.0676  0.1039
  440MOL0     C59279   3.322   6.115   6.524  0.2114 -0.0903  0.4635
  440MOL0     C59280   3.294   6.143   6.374 -0.9940 -0.9817  0.4679
  440MOL0     C59281   3.335   6.029   6.270  0.9077 -0.1142 -0.0129
  440MOL0     N59282   3.476   6.039   6.238  0.0672 -0.5033 -0.3120
  440MOL0     C59283   3.532   6.100   6.130  0.3143  0.5954 -0.2253
  440MOL0     C59284   3.670   6.092   6.152 -0.2748  0.2942  1.0817
  440MOL0     C59285   3.774   6.156   6.068 -0.0207 -0.6522  0.0238
  440MOL0     C59286   3.751   6.299   6.037  0.0316 -0.9601 -0.5918
  440MOL0     C59287   3.861   6.342   5.925  1.1800 -0.3973 -0.5900
  440MOL0     C59288   3.867   6.501   5.924  0.0577  0.1055  0.0288
  440MOL0     O59289   3.950   6.535   5.814 -0.2599 -0.5098 -0.3351
  440MOL0     C59290   4.072   6.588   5.844 -0.7081  0.4470 -0.7245
  440MOL0     C59291   4.165   6.513   5.925  0.1246 -0.5163 -0.0062
  440MOL0     C59292   4.293   6.560   5.954  0.0994 -0.2239  0.3323
  440MOL0     C59293   4.394   6.474   6.025  0.3889  0.5428 -0.1029
  440MOL0     C59294   4.325   6.699   5.918 -0.4011 -0.0960  0.3863
  440MOL0     C59295   4.458   6.763   5.934 -0.3997  0.2495 -0.0799
  440MOL0     O59296   4.474   6.885   5.861  0.3691  0.0911  0.4454
  440MOL0     C59297   4.589   6.952   5.844 -1.3085 -0.0600 -0.5621
  440MOL0     C59298   4.718   6.897   5.860 -0.0260  0.7972 -0.0870
  440MOL0     C59299   4.841   6.964   5.842 -0.2606  0.4750 -0.1038
  440MOL0     C59300   4.838   7.100   5.796  0.1076 -0.2659  0.0973
  440MOL0     O59301   4.954   7.152   5.748  0.1378  0.2112  0.4106
  440MOL0     C59302   5.066   7.137   5.836  0.6367  0.1227 -0.7844
  440MOL0     C59303   5.124   7.283   5.841  0.4305 -0.4010  0.2415
  440MOL0     C59304   5.028   7.388   5.905 -0.0766  0.0684  0.1890
  440MOL0     C59305   4.960   7.339   6.036  0.4166  0.0466  1.2937
  440MOL0     C59306   4.873   7.450   6.096 -0.6903  0.6292 -0.2085
  440MOL0     C59307   4.957   7.554   6.168 -0.5478 -0.2122  0.4074
  440MOL0     C59308   4.867   7.638   6.266  0.8127  0.4034  0.1233
  440MOL0     C59309   4.935   7.733   6.364  0.2914  0.1654 -0.3975
  440MOL0    Cl59310   5.033   7.842   6.268 -0.2425 -0.1040  0.4012
  440MOL0     C59311   4.711   7.153   5.777 -0.4061 -0.3285  0.6996
  440MOL0     C59312   4.587   7.085   5.799 -0.2353 -0.4699 -0.2806
  440MOL0     O59313   4.549   6.708   6.004  0.1508 -0.0973 -0.0792
  440MOL0     C59314   4.229   6.764   5.836 -0.8844 -0.3313 -0.0656
  440MOL0     C59315   4.109   6.712   5.795  0.6897  1.2124  0.5692
  440MOL0     N59316   3.689   6.030   6.268 -0.0735  1.0333 -0.2554
  440MOL0     N59317   3.573   5.997   6.318 -0.4125 -0.7176 -0.3063
  440MOL0     C59318   3.717   5.908   7.130  0.8696 -1.0265 -0.0735
  440MOL0     C59319   3.817   5.835   7.180  0.4216 -0.2472  0.4917
  440MOL0     C59320   4.259   5.657   7.174  0.4733  0.3143 -0.4020
  440MOL0     C59321   4.404   5.677   7.172 -0.2242  0.0013 -0.6138
  440MOL0     C59322   4.483   5.570   7.141 -0.2542 -0.1214 -0.2330
  440MOL0     C59323   4.429   5.438   7.118 -0.3007 -0.7934  1.0188
  440MOL0     O59324   4.509   5.327   7.092 -0.0002  0.0517 -0.1369
  440MOL0     C59325   4.630   5.335   7.023 -0.2544  0.4033  0.0318
  440MOL0     C59326   4.635   5.197   6.945  0.8619 -0.1138  0.3064
  440MOL0     C59327   4.780   5.152   6.910  0.5511  0.4562 -0.0014
  440MOL0     C59328   4.775   5.042   6.815 -0.5815  0.1434  0.7367
  440MOL0     C59329   4.906   5.003   6.767  0.4093 -0.4188 -1.1252
  440MOL0     C59330   5.015   4.982   6.719  0.2249  0.3011 -0.8354
  440MOL0     C59331   4.291   5.420   7.151 -0.7679  0.0957  0.0748
  440MOL0     C59332   4.209   5.525   7.168  0.2701  0.8790 -0.3731
  440MOL0     H59333   4.047   5.884   6.940  0.2392  0.4681  0.8906
  440MOL0     H59334   3.849   6.032   6.846 -2.3303  0.2068 -0.8215
  440MOL0     H59335   3.472   5.958   7.006  1.6110 -0.8260  0.4788
  440MOL0     H59336   3.526   6.097   7.112 -1.3068 -0.7913  0.4470
  440MOL0     H59337   3.314   6.140   7.008 -0.1237  0.4951  0.4968
  440MOL0     H59338   3.443   6.262   6.981 -0.4961 -0.3405 -1.3821
  440MOL0     H59339   3.498   6.186   6.767  0.4567  0.4524  2.6264
  440MOL0     H59340   3.384   6.046   6.784 -0.7477  1.1452 -1.8914
  440MOL0     H59341   3.203   6.185   6.820 -0.1465  1.0242 -0.1454
  440MOL0     H59342   3.287   6.329   6.802 -0.2099 -0.8757  2.2587
  440MOL0     H59343   3.172   6.259   6.604 -1.3515  0.1869  4.9939
  440MOL0     H59344   3.347   6.312   6.574  1.1845 -2.2471 -0.8634
  440MOL0     H59345   3.429   6.096   6.537  0.5439  2.0080  1.0607
  440MOL0     H59346   3.272   6.023   6.556  0.1650  0.2370  1.3545
  440MOL0     H59347   3.188   6.162   6.361 -1.0673 -0.3760  1.7828
  440MOL0     H59348   3.339   6.239   6.346 -0.9358 -0.6654  1.5711
  440MOL0     H59349   3.275   6.020   6.179 -2.2817  2.8889  1.5420
  440MOL0     H59350   3.327   5.942   6.335 -0.7551  0.7294  0.9886
  440MOL0     H59351   3.478   6.140   6.045 -0.4905 -1.1142 -0.5690
  440MOL0     H59352   3.868   6.148   6.123 -0.8710 -0.9841  1.4769
  440MOL0     H59353   3.778   6.102   5.973  0.0513 -1.1427  0.2970
  440MOL0     H59354   3.761   6.349   6.133  0.7770 -1.5476 -0.3529
  440MOL0     H59355   3.654   6.321   5.991  0.8155  1.1070 -1.4008
  440MOL0     H59356   3.835   6.309   5.824  0.6768  1.7136 -1.2026
  440MOL0     H59357   3.957   6.295   5.948 -0.2752 -1.8723  3.2047
  440MOL0     H59358   3.911   6.539   6.017 -0.4066  0.9955 -0.1054
  440MOL0     H59359   3.764   6.537   5.913 -0.7819 -1.5872  1.7067
  440MOL0     H59360   4.132   6.415   5.958  0.8315  0.0674  2.6640
  440MOL0     H59361   4.350   6.378   6.054  1.2270  0.6415  1.6407
  440MOL0     H59362   4.486   6.459   5.968  2.2447 -1.8830  3.1385
  440MOL0     H59363   4.446   6.515   6.113  2.6003 -2.9690  0.4269
  440MOL0     H59364   4.736   6.797   5.898  0.6277  0.1627 -1.9666
  440MOL0     H59365   4.933   6.909   5.859  0.2599  0.8939 -1.4347
  440MOL0     H59366   5.031   7.109   5.936 -3.1038  0.5497 -1.8412
  440MOL0     H59367   5.140   7.069   5.793 -0.6222 -0.8204 -1.5052
  440MOL0     H59368   5.219   7.292   5.894 -0.3494  0.4790  1.5786
  440MOL0     H59369   5.145   7.314   5.739 -0.4754 -0.3725  0.0555
  440MOL0     H59370   4.954   7.425   5.833 -0.2547 -2.9417 -1.2966
  440MOL0     H59371   5.100   7.466   5.932 -2.3945  2.3125  0.3117
  440MOL0     H59372   4.896   7.253   6.017 -0.4863  1.3852 -2.6718
  440MOL0     H59373   5.044   7.312   6.101  0.4195  0.4682  1.4667
  440MOL0     H59374   4.805   7.392   6.159  0.9479  0.5179  1.5826
  440MOL0     H59375   4.822   7.505   6.017  1.0594  1.6172 -0.7008
  440MOL0     H59376   5.053   7.517   6.205  0.1089  0.4186 -0.6100
  440MOL0     H59377   4.981   7.629   6.092  1.1391  2.5568  3.4505
  440MOL0     H59378   4.813   7.559   6.318  1.4609 -0.8475 -1.0455
  440MOL0     H59379   4.787   7.692   6.216  0.5559 -0.6627 -0.6592
  440MOL0     H59380   4.990   7.680   6.442  0.1320  0.6989  0.0772
  440MOL0     H59381   4.872   7.804   6.419  1.9969  0.2245  1.5798
  440MOL0     H59382   4.714   7.253   5.734  1.5978 -0.1518  1.1275
  440MOL0     H59383   4.498   7.141   5.772  0.1673 -0.7149 -2.3220
  440MOL0     H59384   4.252   6.862   5.796 -1.1033  0.9851  2.8192
  440MOL0     H59385   4.051   6.758   5.715 -0.3001  0.3325  0.7571
  440MOL0     H59386   3.621   5.910   7.182  0.8013 -1.4154 -0.1832
  440MOL0     H59387   3.799   5.769   7.264  0.1437 -2.9264 -1.5174
  440MOL0     H59388   4.448   5.775   7.189 -0.8079  0.2701 -0.6486
  440MOL0     H59389   4.591   5.581   7.129  0.2143 -0.7751  2.5291
  440MOL0     H59390   4.631   5.417   6.950  1.0541 -0.6012 -1.1241
  440MOL0     H59391   4.719   5.339   7.086 -1.1350  2.0574  1.2526
  440MOL0     H59392   4.589   5.209   6.847 -0.6101  0.2607  1.0029
  440MOL0     H59393   4.584   5.114   6.995  1.3446 -0.8006 -0.3243
  440MOL0     H59394   4.828   5.138   7.007  0.1220  0.6592  0.2457
  440MOL0     H59395   4.826   5.240   6.864 -4.3046  2.2318 -2.1819
  440MOL0     H59396   4.710   5.063   6.729  1.9419  2.9704 -0.6612
  440MOL0     H59397   4.736   4.951   6.862  2.9432 -1.4165  0.9146
  440MOL0     H59398   5.117   4.968   6.688  1.5790  0.4104  3.0154
  440MOL0     H59399   4.248   5.321   7.153  1.5541 -0.9617  1.0139
  440MOL0     H59400   4.107   5.490   7.180  0.7890 -0.0329  2.0374
  441MOL0     O59401   9.640   6.378  10.176  0.4540 -0.4678 -0.2542
  441MOL0     C59402   9.745   6.319  10.183 -0.3233 -0.5548 -0.6684
  441MOL0     O59403   9.773   6.194  10.122  0.4688 -0.0232  0.5206
  441MOL0     C59404   9.658   6.121  10.105  0.7365  0.1828  0.0551
  441MOL0     C59405   9.637   6.017  10.197  0.5888  0.3342  0.3448
  441MOL0     C59406   9.519   5.935  10.183  0.0552 -0.6056  0.0848
  441MOL0     C59407   9.425   5.959  10.079  0.4818  0.2414  0.0060
  441MOL0     O59408   9.319   5.873  10.079 -0.0228  0.3703 -0.0064
  441MOL0     C59409   9.266   5.843   9.951  1.0602  0.1217  1.5548
  441MOL0     C59410   9.153   5.737   9.973  0.6619 -0.6347 -0.2657
  441MOL0     C59411   9.091   5.696   9.835  0.0223 -0.3891 -0.7004
  441MOL0     C59412   8.979   5.595   9.842 -0.0316  0.3870  0.2954
  441MOL0     C59413   8.933   5.542   9.707  0.0932 -0.5264 -0.0136
  441MOL0     C59414   8.860   5.411   9.740 -0.1180  0.4289  0.5107
  441MOL0     C59415   8.855   5.340   9.599  0.2937 -1.0643  0.3036
  441MOL0     C59416   8.736   5.252   9.575  0.8150  0.2599  0.5663
  441MOL0     N59417   8.737   5.205   9.439 -0.0204 -0.0412  0.2147
  441MOL0     C59418   8.665   5.268   9.337 -0.5283  0.2645 -0.5407
  441MOL0     C59419   8.677   5.177   9.233  0.3447  0.1088 -0.1697
  441MOL0     C59420   8.594   5.175   9.103  0.8972 -0.4561 -0.0507
  441MOL0     C59421   8.437   5.153   9.133  0.0999  0.7118  0.8206
  441MOL0     C59422   8.404   5.020   9.216  1.0840 -1.4796  0.3217
  441MOL0     C59423   8.255   4.987   9.222 -0.4503  0.6584 -0.9761
  441MOL0     O59424   8.168   5.097   9.250 -0.4875  0.1496  0.6332
  441MOL0     C59425   8.045   5.101   9.188 -0.5395 -0.2459 -0.4431
  441MOL0     C59426   7.981   4.991   9.136  1.1007  0.8958 -1.0660
  441MOL0     C59427   7.854   5.005   9.067 -0.6259 -0.3823 -1.2010
  441MOL0     C59428   7.789   4.876   9.016 -0.4346  0.5405 -0.2319
  441MOL0     C59429   7.789   5.132   9.058  0.0461 -0.3600  0.7001
  441MOL0     C59430   7.665   5.165   8.991  0.7339 -0.6170 -0.4428
  441MOL0     O59431   7.642   5.293   8.945 -0.0713 -0.9417 -0.2084
  441MOL0     C59432   7.528   5.316   8.867 -0.4301 -0.2738 -0.4777
  441MOL0     C59433   7.497   5.236   8.756 -0.9921  0.0192 -0.3217
  441MOL0     C59434   7.383   5.259   8.684  0.4032  0.6649  0.3101
  441MOL0     C59435   7.278   5.338   8.735 -0.4236  0.5659  0.3935
  441MOL0     O59436   7.162   5.358   8.658 -0.8382  0.1342 -0.2978
  441MOL0     C59437   7.117   5.288   8.540  0.0245  0.0134 -0.5000
  441MOL0     C59438   6.966   5.319   8.517 -0.3128 -0.2281 -0.0604
  441MOL0     C59439   6.874   5.242   8.608  0.4339  0.6298  0.1362
  441MOL0     C59440   6.722   5.252   8.573  0.1282 -0.6702  0.3340
  441MOL0     C59441   6.630   5.210   8.696 -0.6466 -0.2457 -0.3780
  441MOL0     C59442   6.626   5.056   8.720 -0.9510 -0.7489  0.0266
  441MOL0     C59443   6.487   4.993   8.738  0.4210 -0.5587  0.1230
  441MOL0     C59444   6.496   4.842   8.720  0.0769  0.8136 -0.4516
  441MOL0    Cl59445   6.337   4.751   8.747  0.1607  0.3501 -0.3105
  441MOL0     C59446   7.294   5.400   8.852  0.1563  0.0757 -0.5126
  441MOL0     C59447   7.414   5.389   8.919 -0.6193 -0.0026  0.2932
  441MOL0     O59448   7.574   5.074   8.993 -0.9600 -0.3238 -0.5900
  441MOL0     C59449   7.850   5.239   9.129  0.2049  0.1760 -0.3003
  441MOL0     C59450   7.977   5.227   9.185  0.4848  0.4130  0.1055
  441MOL0     N59451   8.750   5.069   9.282 -0.1261  0.6382  0.3833
  441MOL0     N59452   8.788   5.085   9.404  0.2955  0.2290 -0.2832
  441MOL0     C59453   9.449   6.064   9.995 -0.9426  1.0337 -0.5589
  441MOL0     C59454   9.571   6.147  10.004 -0.4901  0.5083 -0.4878
  441MOL0     C59455   9.864   6.383  10.226 -0.4958  0.4056 -0.3679
  441MOL0     C59456   9.853   6.519  10.251  0.1833 -0.2245 -0.5330
  441MOL0     C59457   9.962   6.591  10.304 -0.3517 -0.0893  0.1351
  441MOL0     C59458  10.075   6.514  10.353  0.8864 -0.6505 -0.0236
  441MOL0     O59459  10.180   6.579  10.429 -0.2290 -0.1100  0.4615
  441MOL0     C59460  10.131   6.665  10.539 -0.1400  0.4577  1.1502
  441MOL0     C59461  10.240   6.675  10.643 -0.0591 -0.2535  0.4056
  441MOL0     C59462  10.209   6.797  10.735 -0.2642 -0.3283 -0.8322
  441MOL0     C59463  10.281   6.774  10.870  0.5364  0.3947  0.2908
  441MOL0     C59464  10.418   6.818  10.869 -0.8703 -1.1926  0.3745
  441MOL0     C59465  10.530   6.875  10.869  0.9093  0.4336  0.4874
  441MOL0     C59466  10.076   6.373  10.340  0.8222  0.2925 -0.0564
  441MOL0     C59467   9.970   6.308  10.276 -0.5529  0.0236  0.5944
  441MOL0     H59468   9.704   5.998  10.280  0.7330  0.1680  0.1933
  441MOL0     H59469   9.497   5.869  10.266 -1.1729 -0.5536 -0.1831
  441MOL0     H59470   9.232   5.929   9.894  0.1016  0.8853  3.2129
  441MOL0     H59471   9.347   5.794   9.896 -0.5724 -4.2169  2.5683
  441MOL0     H59472   9.205   5.646  10.006 -1.4248 -1.3372  1.2451
  441MOL0     H59473   9.074   5.769  10.041  0.2298  4.5568 -2.7078
  441MOL0     H59474   9.049   5.794   9.811  0.6684  0.2782  0.7064
  441MOL0     H59475   9.171   5.678   9.763  0.3871 -1.9703  0.0622
  441MOL0     H59476   9.007   5.510   9.906 -0.8609  0.7554  1.1735
  441MOL0     H59477   8.897   5.641   9.899  1.0662 -1.0748  3.2923
  441MOL0     H59478   8.879   5.619   9.652 -0.0634 -1.2375 -0.8775
  441MOL0     H59479   9.024   5.522   9.650 -0.7146  1.3529 -2.0892
  441MOL0     H59480   8.918   5.346   9.807  0.2043 -0.5706 -0.6872
  441MOL0     H59481   8.765   5.437   9.787  0.7816  2.7132  1.1718
  441MOL0     H59482   8.848   5.428   9.533  4.1514 -0.7039  0.1027
  441MOL0     H59483   8.956   5.300   9.584  1.1061  0.3510  1.7183
  441MOL0     H59484   8.646   5.309   9.601  0.6929  0.2681  0.1298
  441MOL0     H59485   8.736   5.165   9.642 -0.9058 -0.7064 -0.6130
  441MOL0     H59486   8.602   5.357   9.335  0.4846  1.0111 -0.0749
  441MOL0     H59487   8.603   5.266   9.043 -1.6036 -0.8475 -1.1145
  441MOL0     H59488   8.625   5.096   9.034 -1.2461 -3.2177  1.8820
  441MOL0     H59489   8.387   5.156   9.035 -1.1985  1.7960  1.4931
  441MOL0     H59490   8.410   5.241   9.192  1.6394  1.0688  1.0436
  441MOL0     H59491   8.440   5.035   9.318  0.1987 -1.0657  0.5862
  441MOL0     H59492   8.453   4.929   9.179 -0.2567 -1.3757 -1.9463
  441MOL0     H59493   8.235   4.906   9.293 -3.1492  1.6392 -0.5230
  441MOL0     H59494   8.232   4.938   9.127  3.7121 -3.0046 -0.4534
  441MOL0     H59495   8.027   4.893   9.136  0.3592  0.5195  0.4142
  441MOL0     H59496   7.855   4.793   9.043  0.3075  1.6027  1.4159
  441MOL0     H59497   7.690   4.857   9.057 -0.4221 -0.2635 -0.5552
  441MOL0     H59498   7.775   4.873   8.907 -0.1232 -0.0158 -0.2646
  441MOL0     H59499   7.576   5.180   8.707 -0.7766  1.3426 -1.5565
  441MOL0     H59500   7.373   5.210   8.588 -3.3871  1.5626  0.0892
  441MOL0     H59501   7.175   5.334   8.458 -1.3798  2.0569 -0.4160
  441MOL0     H59502   7.140   5.182   8.528  1.8876  0.5652 -2.5381
  441MOL0     H59503   6.945   5.426   8.529 -2.6293 -0.5859 -0.4033
  441MOL0     H59504   6.925   5.298   8.418 -2.1143  0.1840  0.5667
  441MOL0     H59505   6.892   5.272   8.712  0.8551 -4.8645  1.9895
  441MOL0     H59506   6.890   5.135   8.598 -0.7867  0.3192  1.1458
  441MOL0     H59507   6.696   5.357   8.556 -0.6466 -0.6890  1.3323
  441MOL0     H59508   6.693   5.205   8.479 -3.2611  0.9277  0.4428
  441MOL0     H59509   6.529   5.247   8.678 -0.5391  0.9341  1.1824
  441MOL0     H59510   6.671   5.253   8.788 -2.1073  2.8851 -1.0422
  441MOL0     H59511   6.655   5.015   8.623 -0.6076  1.4862 -0.8875
  441MOL0     H59512   6.706   5.026   8.788  0.3724  1.3845 -0.4902
  441MOL0     H59513   6.411   5.035   8.670  1.2333  0.2066 -0.3397
  441MOL0     H59514   6.447   5.020   8.836  0.4649 -1.2325  0.3287
  441MOL0     H59515   6.563   4.806   8.799 -0.9302 -0.1337 -0.0085
  441MOL0     H59516   6.526   4.812   8.619 -0.3940 -0.4194 -0.2342
  441MOL0     H59517   7.222   5.468   8.897 -0.6544 -1.6407  0.8662
  441MOL0     H59518   7.425   5.443   9.013  0.2618 -0.5923  0.5370
  441MOL0     H59519   7.810   5.340   9.131  2.0218  0.9203  0.1984
  441MOL0     H59520   8.030   5.310   9.230  1.7916 -0.7780  0.8470
  441MOL0     H59521   9.373   6.092   9.922 -1.3615  0.8656 -0.1916
  441MOL0     H59522   9.581   6.240   9.949  0.1629 -0.0764 -1.3829
  441MOL0     H59523   9.770   6.580  10.216  0.2396  0.2221  0.0852
  441MOL0     H59524   9.966   6.699  10.315  1.9158 -0.0402 -0.6771
  441MOL0     H59525  10.113   6.762  10.493 -2.7245 -1.6519 -2.8193
  441MOL0     H59526  10.040   6.634  10.592  0.2738 -5.4953 -0.8496
  441MOL0     H59527  10.338   6.695  10.598  0.6172  1.8873  2.6141
  441MOL0     H59528  10.235   6.580  10.697 -1.5195  1.0075  2.6315
  441MOL0     H59529  10.101   6.794  10.753 -0.4936  0.1138 -2.0346
  441MOL0     H59530  10.236   6.892  10.689 -1.4855 -1.0125 -3.1237
  441MOL0     H59531  10.286   6.667  10.890  1.0844  0.4306  0.3663
  441MOL0     H59532  10.239   6.834  10.951  1.7052  2.8107 -0.7637
  441MOL0     H59533  10.624   6.926  10.873  0.3623  1.4277  1.2058
  441MOL0     H59534  10.155   6.309  10.376 -2.7926 -5.0209 -0.4090
  441MOL0     H59535   9.968   6.199  10.270 -2.4904  0.0662 -0.8709
  442MOL0     O59536   9.884   7.247   7.435 -0.6873 -0.3031  0.0902
  442MOL0     C59537   9.968   7.235   7.342  0.4539  0.8573 -0.7371
  442MOL0     O59538   9.949   7.288   7.220  0.2103  0.5394 -0.7060
  442MOL0     C59539   9.820   7.297   7.170  0.4032  1.0145 -0.3610
  442MOL0     C59540   9.800   7.265   7.035  0.2147 -0.4386 -0.2924
  442MOL0     C59541   9.670   7.265   6.978 -0.2727  0.2909 -0.4996
  442MOL0     C59542   9.561   7.322   7.039  0.3689  0.1398  0.2122
  442MOL0     O59543   9.446   7.320   6.976  0.4377  0.3029  0.7508
  442MOL0     C59544   9.362   7.441   6.979  0.2796 -0.5276 -0.1330
  442MOL0     C59545   9.258   7.457   6.869  0.5602  0.1187 -0.7563
  442MOL0     C59546   9.179   7.328   6.851 -0.1211 -0.0311 -0.2048
  442MOL0     C59547   9.043   7.377   6.777 -0.0737 -0.0179  0.1711
  442MOL0     C59548   8.940   7.265   6.773 -0.3728  0.8021 -1.0363
  442MOL0     C59549   8.957   7.176   6.648 -0.4277  1.1032  0.2929
  442MOL0     C59550   8.881   7.041   6.651 -1.4121  0.2106 -0.7175
  442MOL0     C59551   8.732   7.040   6.681  0.5023 -0.3044  0.0242
  442MOL0     N59552   8.664   7.130   6.589  0.7119  0.0317  0.2634
  442MOL0     C59553   8.625   7.114   6.458  0.0092  1.2508 -0.4950
  442MOL0     C59554   8.537   7.215   6.433 -0.0752 -0.4965  0.1411
  442MOL0     C59555   8.435   7.208   6.320 -0.0989 -0.6276  1.3623
  442MOL0     C59556   8.456   7.334   6.230  0.2871 -0.2966 -0.4943
  442MOL0     C59557   8.546   7.288   6.115  0.2593  0.2523 -0.3286
  442MOL0     C59558   8.570   7.402   6.010 -0.1535 -0.5166 -0.1152
  442MOL0     O59559   8.457   7.485   5.993  0.6420  0.0276  0.6438
  442MOL0     C59560   8.354   7.448   5.906  0.2060 -0.3236 -0.0072
  442MOL0     C59561   8.338   7.323   5.843  0.8593  0.3655  0.7319
  442MOL0     C59562   8.235   7.300   5.751  0.4363  0.0033 -0.5818
  442MOL0     C59563   8.231   7.157   5.691  1.3266  0.6109 -1.2024
  442MOL0     C59564   8.137   7.405   5.723 -0.6139 -0.3999  0.7560
  442MOL0     C59565   8.027   7.395   5.628  0.2564  0.3734  0.3697
  442MOL0     O59566   7.933   7.493   5.632  0.5696 -0.0743 -0.2900
  442MOL0     C59567   7.808   7.486   5.574 -0.6599  0.1644 -0.4961
  442MOL0     C59568   7.736   7.607   5.586  0.0594 -1.4976  0.2200
  442MOL0     C59569   7.602   7.609   5.540 -1.0337  0.7465 -0.1005
  442MOL0     C59570   7.536   7.510   5.478 -0.4965  0.1313  0.1552
  442MOL0     O59571   7.407   7.519   5.458  0.9114 -1.4485 -0.1698
  442MOL0     C59572   7.361   7.484   5.330 -0.7249  0.2888  0.2194
  442MOL0     C59573   7.303   7.338   5.326  1.4444  0.8230 -0.1857
  442MOL0     C59574   7.174   7.319   5.418 -0.0581 -0.3833  0.9040
  442MOL0     C59575   7.087   7.205   5.363 -0.1685 -0.0008 -0.3233
  442MOL0     C59576   6.942   7.220   5.409  0.1885 -0.6406 -0.8503
  442MOL0     C59577   6.864   7.100   5.358 -0.7350 -0.8223 -0.0609
  442MOL0     C59578   6.721   7.114   5.376  0.6388  0.3794  0.0866
  442MOL0     C59579   6.640   7.013   5.289 -0.1187 -0.3793  0.3050
  442MOL0    Cl59580   6.673   6.844   5.349 -0.0697  0.0323 -0.6438
  442MOL0     C59581   7.615   7.394   5.462  0.7701  0.0048  0.6540
  442MOL0     C59582   7.750   7.378   5.507 -0.1969 -0.0329 -0.2427
  442MOL0     O59583   8.013   7.291   5.562 -0.0182  0.2075  0.8462
  442MOL0     C59584   8.145   7.524   5.803  0.2945  0.1571  0.6436
  442MOL0     C59585   8.257   7.549   5.880 -0.7551  0.5571  0.5134
  442MOL0     N59586   8.525   7.279   6.552  0.3139 -0.5878  0.2096
  442MOL0     N59587   8.603   7.236   6.644 -0.1302 -0.1380  0.2370
  442MOL0     C59588   9.575   7.360   7.167 -0.9918 -0.4345  0.2737
  442MOL0     C59589   9.706   7.349   7.229 -0.2724 -0.7455  0.1189
  442MOL0     C59590  10.100   7.175   7.370 -0.5178 -0.5493 -0.6921
  442MOL0     C59591  10.203   7.175   7.276  0.3837 -0.4696  0.7042
  442MOL0     C59592  10.330   7.133   7.311 -0.8263  0.0069 -0.1295
  442MOL0     C59593  10.363   7.097   7.443 -0.7785 -0.4524  0.3657
  442MOL0     O59594  10.492   7.079   7.479  0.0706 -0.4429 -0.4037
  442MOL0     C59595  10.514   6.936   7.498  0.3948 -0.0216  0.0044
  442MOL0     C59596  10.657   6.912   7.532  0.2061  0.8085  0.1711
  442MOL0     C59597  10.696   6.764   7.530  0.5680  0.1473 -0.5841
  442MOL0     C59598  10.829   6.742   7.629 -0.3152  0.1967 -0.6308
  442MOL0     C59599  10.913   6.636   7.582 -0.7094  0.1127 -0.5471
  442MOL0     C59600  10.986   6.535   7.556  0.0434  0.5782  0.6793
  442MOL0     C59601  10.269   7.108   7.541 -0.1378  0.2433 -0.9684
  442MOL0     C59602  10.141   7.151   7.508  0.4229  0.3147  0.0871
  442MOL0     H59603   9.882   7.234   6.972  1.3060  1.2576  0.2260
  442MOL0     H59604   9.667   7.210   6.885  0.0836 -1.2471  0.3605
  442MOL0     H59605   9.304   7.458   7.070  0.1125 -1.4439 -0.0579
  442MOL0     H59606   9.415   7.534   6.959  0.5784 -1.0838 -2.2764
  442MOL0     H59607   9.201   7.542   6.906  1.7632 -0.2068  2.0633
  442MOL0     H59608   9.303   7.486   6.773 -0.0815  2.7554 -0.3101
  442MOL0     H59609   9.239   7.273   6.778 -3.0615  1.1055 -3.7883
  442MOL0     H59610   9.154   7.262   6.934 -3.2148  3.1597  1.6538
  442MOL0     H59611   9.005   7.467   6.827  2.2404  2.0837 -1.5596
  442MOL0     H59612   9.056   7.420   6.677 -2.9693 -0.6464 -0.5783
  442MOL0     H59613   8.946   7.204   6.864  2.1293  0.5082 -1.3306
  442MOL0     H59614   8.841   7.309   6.755 -0.7374  0.4400  0.0271
  442MOL0     H59615   8.919   7.224   6.557 -0.7495 -1.9785 -1.3287
  442MOL0     H59616   9.065   7.160   6.640 -0.3492  1.1444  1.2536
  442MOL0     H59617   8.897   7.001   6.550 -2.2204  0.4075 -0.9320
  442MOL0     H59618   8.923   6.978   6.731 -1.2170  1.3432  0.0944
  442MOL0     H59619   8.702   7.054   6.786 -0.4890 -3.7925  0.3317
  442MOL0     H59620   8.711   6.935   6.660  1.1347 -0.5641  0.6060
  442MOL0     H59621   8.642   7.027   6.395 -0.1190  0.0075  1.1076
  442MOL0     H59622   8.445   7.118   6.258  1.2663  1.1214 -1.1294
  442MOL0     H59623   8.340   7.213   6.373 -0.3684  0.3411  0.8115
  442MOL0     H59624   8.494   7.421   6.285  2.7938 -2.4888  1.4708
  442MOL0     H59625   8.357   7.358   6.190 -0.1070 -1.0888 -0.0153
  442MOL0     H59626   8.505   7.198   6.069  0.1130 -0.5033  1.2142
  442MOL0     H59627   8.641   7.268   6.167  0.5752  2.1122 -0.1035
  442MOL0     H59628   8.607   7.368   5.913 -0.8441  0.1136 -0.6081
  442MOL0     H59629   8.653   7.464   6.046 -0.5751  0.2198 -0.3941
  442MOL0     H59630   8.408   7.248   5.877  0.2131  0.5772  2.6530
  442MOL0     H59631   8.246   7.160   5.583  0.0942 -3.1635 -1.6259
  442MOL0     H59632   8.306   7.091   5.737 -0.8258 -0.5195  0.9306
  442MOL0     H59633   8.135   7.109   5.712  2.4494 -0.9194  0.7646
  442MOL0     H59634   7.781   7.696   5.630 -0.9069  0.0265 -1.7124
  442MOL0     H59635   7.533   7.683   5.578  0.2119  1.1812  1.4521
  442MOL0     H59636   7.287   7.562   5.313 -2.0611 -1.2945 -1.7373
  442MOL0     H59637   7.441   7.490   5.255 -0.1545  2.4850  0.9173
  442MOL0     H59638   7.263   7.327   5.224  0.6122  0.8459  0.1308
  442MOL0     H59639   7.372   7.256   5.346 -0.9161 -1.3935 -0.5494
  442MOL0     H59640   7.119   7.413   5.419 -1.9098 -1.3070 -2.4755
  442MOL0     H59641   7.205   7.289   5.519 -2.4434  0.2162  1.8668
  442MOL0     H59642   7.078   7.209   5.254  2.9839  0.5553 -0.6511
  442MOL0     H59643   7.127   7.107   5.390 -0.2267 -0.3800 -1.5803
  442MOL0     H59644   6.895   7.312   5.373 -0.0816 -1.4319 -2.6107
  442MOL0     H59645   6.932   7.228   5.518 -1.2387 -0.1218 -0.9986
  442MOL0     H59646   6.904   7.073   5.259  0.4078 -2.1770  0.7361
  442MOL0     H59647   6.908   7.017   5.414  3.6222 -1.0139 -3.1872
  442MOL0     H59648   6.685   7.215   5.357  4.5185  2.2793  1.8582
  442MOL0     H59649   6.697   7.099   5.482  1.7201 -0.3310  0.2445
  442MOL0     H59650   6.675   7.008   5.185  1.0221  1.5879  0.5400
  442MOL0     H59651   6.537   7.049   5.278 -0.1323  0.1260  1.8874
  442MOL0     H59652   7.574   7.296   5.440  1.3299  0.2326 -1.6540
  442MOL0     H59653   7.794   7.279   5.498 -3.1161 -1.3539 -1.3451
  442MOL0     H59654   8.065   7.597   5.798 -0.5614 -0.5239  3.1947
  442MOL0     H59655   8.278   7.641   5.934  0.5103  0.3088  0.4724
  442MOL0     H59656   9.495   7.417   7.213  0.7658  1.8049  0.7999
  442MOL0     H59657   9.715   7.391   7.328 -0.1549  0.0040 -0.1974
  442MOL0     H59658  10.173   7.188   7.173 -1.4168  0.3026  1.2865
  442MOL0     H59659  10.408   7.116   7.237  0.9495  0.9066  1.4500
  442MOL0     H59660  10.447   6.912   7.582  1.2932  0.2206  0.8071
  442MOL0     H59661  10.484   6.880   7.409  1.0942 -0.0855 -0.1935
  442MOL0     H59662  10.666   6.949   7.634 -0.1602 -0.4902  0.6913
  442MOL0     H59663  10.730   6.957   7.463  1.5183 -1.7662 -0.2510
  442MOL0     H59664  10.722   6.741   7.426  1.6437 -0.2397 -0.2372
  442MOL0     H59665  10.620   6.695   7.567  0.6281  1.0837  1.4043
  442MOL0     H59666  10.800   6.713   7.730  0.9596  0.9401 -0.0285
  442MOL0     H59667  10.881   6.838   7.633  0.3212 -0.1935  1.3185
  442MOL0     H59668  11.045   6.447   7.536 -0.1748  0.6635 -0.4014
  442MOL0     H59669  10.304   7.096   7.644  1.0875 -2.1573 -1.5991
  442MOL0     H59670  10.066   7.155   7.587  2.5601 -1.9628  2.4015
  443MOL0     O59671   2.826  10.230   2.251  0.1684  0.2108  0.8030
  443MOL0     C59672   2.944  10.208   2.209 -0.5004  0.5075 -0.2792
  443MOL0     O59673   2.982  10.183   2.083  0.3682 -0.1233 -0.6634
  443MOL0     C59674   2.880  10.176   1.991  0.3523  0.1401  0.1405
  443MOL0     C59675   2.888  10.245   1.874  0.0143 -0.0977 -0.2663
  443MOL0     C59676   2.786  10.231   1.776 -1.0731 -0.4834 -0.0638
  443MOL0     C59677   2.669  10.156   1.800 -0.5143 -0.1273  0.1219
  443MOL0     O59678   2.560  10.152   1.711  0.2885 -1.0880 -0.0544
  443MOL0     C59679   2.487  10.277   1.719 -0.3751 -0.1486 -0.5026
  443MOL0     C59680   2.472  10.326   1.577  0.6608 -0.3086  0.8216
  443MOL0     C59681   2.419  10.473   1.585  1.1267 -0.8291  0.5304
  443MOL0     C59682   2.423  10.538   1.447 -0.1421 -0.0759  0.1457
  443MOL0     C59683   2.336  10.468   1.336  0.3003 -0.2197 -0.0152
  443MOL0     C59684   2.186  10.448   1.355  0.4198  0.3920 -0.9824
  443MOL0     C59685   2.121  10.581   1.398  0.5565  0.6562  0.8785
  443MOL0     C59686   1.972  10.565   1.441 -0.8642 -0.0858  0.8332
  443MOL0     N59687   1.936  10.451   1.516  0.9814 -0.1764  0.1132
  443MOL0     C59688   1.898  10.335   1.454 -0.1824  0.7365  0.4364
  443MOL0     C59689   1.891  10.244   1.557 -0.2357  0.6148 -0.5405
  443MOL0     C59690   1.856  10.092   1.550 -0.0312  0.0211  1.3332
  443MOL0     C59691   1.746  10.030   1.632 -0.0080 -0.7487  0.4928
  443MOL0     C59692   1.612  10.082   1.593  0.2356  0.1048 -0.8037
  443MOL0     C59693   1.556  10.013   1.469  0.3174 -0.2794 -0.1956
  443MOL0     O59694   1.428  10.083   1.452  0.0655 -0.4572 -0.4308
  443MOL0     C59695   1.306  10.023   1.483  0.4025 -0.7558 -0.6441
  443MOL0     C59696   1.282   9.900   1.552 -0.1029  0.2062 -0.2140
  443MOL0     C59697   1.150   9.855   1.570 -0.7363 -0.3661 -0.2102
  443MOL0     C59698   1.134   9.722   1.653  0.2752 -0.5137  0.5117
  443MOL0     C59699   1.044   9.937   1.524 -0.1922  0.3647  0.0750
  443MOL0     C59700   0.905   9.895   1.531 -0.4483 -0.7670 -0.5374
  443MOL0     O59701   0.878   9.760   1.550 -0.1734  0.0785 -0.2020
  443MOL0     C59702   0.750   9.712   1.579 -0.6804  0.8420 -0.2520
  443MOL0     C59703   0.636   9.777   1.526  0.6576 -0.3860  0.0773
  443MOL0     C59704   0.506   9.753   1.567 -0.7898  0.7160 -0.0080
  443MOL0     C59705   0.487   9.641   1.650  0.5488  0.3001 -0.3481
  443MOL0     O59706   0.365   9.586   1.684 -0.0746  0.4785 -0.1348
  443MOL0     C59707   0.240   9.622   1.622 -0.9574 -0.1276 -0.6767
  443MOL0     C59708   0.111   9.525   1.655  1.0903 -0.5223  0.5642
  443MOL0     C59709  -0.018   9.569   1.576 -0.2407  0.3171  0.7436
  443MOL0     C59710  -0.133   9.467   1.575  0.5813  0.4679 -0.4104
  443MOL0     C59711  -0.270   9.533   1.551 -0.2434  0.4276 -0.1497
  443MOL0     C59712  -0.366   9.415   1.515  0.2623 -0.7468 -1.0783
  443MOL0     C59713  -0.509   9.463   1.512 -0.4206  0.7842 -0.7067
  443MOL0     C59714  -0.608   9.343   1.474  0.2340 -0.5756 -0.3646
  443MOL0    Cl59715  -0.599   9.316   1.300 -0.3032 -0.2812  0.0644
  443MOL0     C59716   0.595   9.576   1.702  1.0152  0.2483 -0.1062
  443MOL0     C59717   0.726   9.608   1.675 -0.3651 -0.2746  0.0601
  443MOL0     O59718   0.824   9.983   1.517 -0.5288 -0.0935  0.4496
  443MOL0     C59719   1.068  10.055   1.453  0.7273  0.0709 -0.5037
  443MOL0     C59720   1.195  10.098   1.435  0.2012 -0.9293 -0.1625
  443MOL0     N59721   1.932  10.298   1.675  0.1373  0.1234 -0.0507
  443MOL0     N59722   1.975  10.423   1.644 -0.2222  0.5646  0.5355
  443MOL0     C59723   2.661  10.089   1.923  0.2728  0.1771  0.6169
  443MOL0     C59724   2.773  10.091   2.010 -0.3893  0.3411 -0.4236
  443MOL0     C59725   3.061  10.238   2.299  0.6034  0.7255 -0.0252
  443MOL0     C59726   3.193  10.218   2.253  0.1299  0.1818 -0.0633
  443MOL0     C59727   3.302  10.251   2.340 -0.0986 -0.1636 -0.1737
  443MOL0     C59728   3.276  10.295   2.478  0.2859  0.2991  0.4811
  443MOL0     O59729   3.371  10.330   2.566  0.0310 -0.4072 -0.0363
  443MOL0     C59730   3.504  10.353   2.527  0.2409 -0.4812  0.4733
  443MOL0     C59731   3.586  10.385   2.654  0.8187  0.7815  0.4058
  443MOL0     C59732   3.574  10.278   2.763  0.2581  0.6309 -0.7564
  443MOL0     C59733   3.603  10.340   2.893 -0.2997 -0.2830  0.7537
  443MOL0     C59734   3.584  10.233   2.994  0.6133  0.2890  1.0081
  443MOL0     C59735   3.560  10.156   3.080 -0.3089 -0.4327 -0.4554
  443MOL0     C59736   3.147  10.308   2.522  0.3394  0.4098 -0.0740
  443MOL0     C59737   3.040  10.284   2.434  0.2767  0.5762  0.7520
  443MOL0     H59738   2.980  10.299   1.857  0.0105  0.0271  0.0954
  443MOL0     H59739   2.787  10.280   1.679  1.3127 -0.2320  0.0265
  443MOL0     H59740   2.388  10.270   1.765 -1.7306 -0.7712 -3.2936
  443MOL0     H59741   2.540  10.354   1.776 -3.1680  0.5203  1.3642
  443MOL0     H59742   2.573  10.313   1.538  0.8152 -1.4238  1.5327
  443MOL0     H59743   2.407  10.260   1.519 -0.8650  0.2425  1.8522
  443MOL0     H59744   2.317  10.486   1.621  1.8912  1.0931  2.1924
  443MOL0     H59745   2.486  10.533   1.647  1.2065  1.3200 -1.5070
  443MOL0     H59746   2.417  10.647   1.454 -0.2282 -0.1753  4.4134
  443MOL0     H59747   2.525  10.508   1.419  0.4004  2.8333 -1.3044
  443MOL0     H59748   2.365  10.520   1.244 -1.9583 -0.5684 -0.9968
  443MOL0     H59749   2.370  10.365   1.323 -0.8093 -0.8189  1.4663
  443MOL0     H59750   2.146  10.390   1.271  3.1605 -0.5968 -1.7316
  443MOL0     H59751   2.190  10.382   1.443  1.1167  0.1738 -1.1688
  443MOL0     H59752   2.177  10.616   1.485  2.4857  0.0693 -0.0818
  443MOL0     H59753   2.125  10.659   1.322 -1.3795  0.0986  0.1385
  443MOL0     H59754   1.909  10.578   1.352 -0.4521 -0.7969  0.4304
  443MOL0     H59755   1.956  10.657   1.498  2.3439  1.8993 -1.1662
  443MOL0     H59756   1.891  10.318   1.347 -2.1252  1.7884  0.3493
  443MOL0     H59757   1.829  10.065   1.447  0.0899  0.8353  1.0826
  443MOL0     H59758   1.945  10.032   1.572 -2.2686 -3.7368  1.0572
  443MOL0     H59759   1.770  10.047   1.737  1.0534 -1.2718  0.3447
  443MOL0     H59760   1.740   9.921   1.625  0.3331 -0.7433  0.0590
  443MOL0     H59761   1.618  10.186   1.558 -1.1936  0.4365 -0.1498
  443MOL0     H59762   1.550  10.076   1.683  1.7033 -1.5983  0.1532
  443MOL0     H59763   1.534   9.909   1.493  1.6539 -0.6523 -0.5050
  443MOL0     H59764   1.610  10.014   1.374  1.1586  1.8076  0.2479
  443MOL0     H59765   1.359   9.844   1.604 -2.2429 -1.3397  1.4726
  443MOL0     H59766   1.055   9.730   1.728 -1.3424  3.3372 -1.3043
  443MOL0     H59767   1.104   9.642   1.585  3.6148 -0.8574 -0.7626
  443MOL0     H59768   1.229   9.695   1.700 -1.7132 -3.4906  3.1875
  443MOL0     H59769   0.652   9.859   1.457  0.9084  0.3757  1.0129
  443MOL0     H59770   0.420   9.796   1.517 -3.0017 -2.9796  0.1776
  443MOL0     H59771   0.210   9.723   1.653  1.5430  1.1903 -2.3017
  443MOL0     H59772   0.266   9.636   1.517  3.8484  0.7556  0.4148
  443MOL0     H59773   0.140   9.427   1.617  2.4716  1.1882 -3.2815
  443MOL0     H59774   0.081   9.526   1.760 -0.6069  2.2860  0.1651
  443MOL0     H59775   0.003   9.585   1.470  3.2373 -3.8657  0.5290
  443MOL0     H59776  -0.056   9.661   1.621 -1.2338  0.9352 -1.2487
  443MOL0     H59777  -0.119   9.387   1.502 -0.4418  0.9564 -1.1783
  443MOL0     H59778  -0.142   9.423   1.674  1.2336  0.9614 -0.1240
  443MOL0     H59779  -0.258   9.604   1.469  0.9982  1.6498  1.0099
  443MOL0     H59780  -0.300   9.583   1.644  0.1872  1.8157 -0.7343
  443MOL0     H59781  -0.337   9.386   1.414  1.5107  1.1474 -1.3343
  443MOL0     H59782  -0.363   9.337   1.591 -1.6033 -0.1972 -0.3810
  443MOL0     H59783  -0.518   9.547   1.443  0.7398 -0.1810 -2.1010
  443MOL0     H59784  -0.524   9.496   1.615  2.1688  0.6102 -0.1866
  443MOL0     H59785  -0.711   9.368   1.502  0.4652 -0.9828  0.9391
  443MOL0     H59786  -0.579   9.258   1.537  0.6857  1.8708  3.0075
  443MOL0     H59787   0.569   9.485   1.756 -2.0578 -1.4721 -4.0324
  443MOL0     H59788   0.811   9.560   1.722  0.9890  0.2614 -1.7279
  443MOL0     H59789   0.988  10.125   1.433 -0.4337 -0.1157  2.9269
  443MOL0     H59790   1.211  10.194   1.387  1.3622  0.4293  2.7116
  443MOL0     H59791   2.576  10.033   1.960 -0.8154  1.3816  0.0081
  443MOL0     H59792   2.764  10.028   2.099 -0.4969 -0.0829 -0.7325
  443MOL0     H59793   3.220  10.185   2.154 -1.0875  0.4076 -0.4846
  443MOL0     H59794   3.402  10.229   2.304  0.4231 -0.5467  1.4263
  443MOL0     H59795   3.540  10.260   2.482  1.5030 -0.6522  1.7602
  443MOL0     H59796   3.500  10.435   2.455  1.2847  0.0599  1.0115
  443MOL0     H59797   3.554  10.482   2.691  0.6867  0.4659  1.1296
  443MOL0     H59798   3.686  10.378   2.611  0.3601 -0.0499 -0.5757
  443MOL0     H59799   3.631  10.187   2.743  1.5652  0.7504  1.9619
  443MOL0     H59800   3.471  10.240   2.764 -0.3245  2.0951  1.3636
  443MOL0     H59801   3.526  10.417   2.902 -1.8315 -1.4500 -1.3426
  443MOL0     H59802   3.698  10.393   2.905 -0.3887  0.2495 -0.7803
  443MOL0     H59803   3.530  10.090   3.159 -0.5060 -0.3325 -0.4461
  443MOL0     H59804   3.123  10.334   2.625 -0.7312 -0.4671 -0.0822
  443MOL0     H59805   2.940  10.300   2.472  0.2141  1.4755  0.2586
  444MOL0     O59806  10.952   5.380   1.563 -0.3341 -0.4992  0.4008
  444MOL0     C59807  11.026   5.473   1.540 -0.0210  0.6262 -0.0118
  444MOL0     O59808  10.992   5.586   1.479  0.1441 -0.7381 -1.1161
  444MOL0     C59809  10.865   5.609   1.435  0.1181 -0.5250 -0.5107
  444MOL0     C59810  10.860   5.693   1.319 -0.6679  0.9793 -0.0491
  444MOL0     C59811  10.740   5.734   1.263  0.1261 -0.3134 -0.7989
  444MOL0     C59812  10.619   5.689   1.318  0.3838 -0.1795  0.7510
  444MOL0     O59813  10.501   5.733   1.257  0.5873  0.0514  0.1808
  444MOL0     C59814  10.377   5.717   1.327  0.2839 -0.9119 -0.1497
  444MOL0     C59815  10.259   5.791   1.259  1.1766  0.2082 -0.8524
  444MOL0     C59816  10.144   5.809   1.358 -0.9241  0.2700  0.2759
  444MOL0     C59817  10.012   5.861   1.298 -0.1269 -0.2100  0.0564
  444MOL0     C59818   9.891   5.879   1.393 -0.4504  0.4651  0.7417
  444MOL0     C59819   9.873   5.745   1.479 -0.3362 -1.0737  0.3209
  444MOL0     C59820   9.748   5.763   1.570 -0.7096  0.1884  0.1740
  444MOL0     C59821   9.605   5.733   1.514 -0.6285  0.3874  0.5563
  444MOL0     N59822   9.495   5.774   1.600 -0.0872 -0.0721 -0.0874
  444MOL0     C59823   9.436   5.706   1.704  0.3093 -0.5175 -1.0270
  444MOL0     C59824   9.330   5.775   1.738 -0.2185 -0.6677  0.2022
  444MOL0     C59825   9.224   5.747   1.840  0.7727  0.6528  0.8013
  444MOL0     C59826   9.172   5.600   1.843  0.4011 -0.6169  0.5805
  444MOL0     C59827   9.032   5.586   1.900  0.6129 -1.2717 -0.1081
  444MOL0     C59828   8.981   5.451   1.943 -0.2445 -0.1668  0.6756
  444MOL0     O59829   8.842   5.475   1.975  0.4041 -0.0425  0.3994
  444MOL0     C59830   8.763   5.358   1.992  0.3363 -0.4554 -0.0408
  444MOL0     C59831   8.802   5.225   1.981 -0.8026 -0.4977  0.1705
  444MOL0     C59832   8.709   5.117   2.003 -0.2303  0.1466  0.1087
  444MOL0     C59833   8.769   4.982   1.980 -0.4941  0.1993 -0.2027
  444MOL0     C59834   8.576   5.151   2.037 -0.1735  0.0090 -0.0754
  444MOL0     C59835   8.476   5.044   2.053  0.4347  0.2190  0.5280
  444MOL0     O59836   8.376   5.058   2.148 -0.2532 -0.2980  0.9906
  444MOL0     C59837   8.282   4.955   2.161  0.1887  0.4175 -0.3795
  444MOL0     C59838   8.283   4.882   2.286 -0.6100 -0.1302  0.3212
  444MOL0     C59839   8.182   4.784   2.306 -0.1231 -1.1608  0.6625
  444MOL0     C59840   8.072   4.775   2.226  0.0922 -0.8461 -0.1581
  444MOL0     O59841   7.966   4.708   2.275  0.4973 -0.5693 -0.0586
  444MOL0     C59842   7.850   4.681   2.202  0.6850  0.7287 -0.2023
  444MOL0     C59843   7.741   4.602   2.280  0.9329 -0.3451 -1.0038
  444MOL0     C59844   7.620   4.598   2.196  0.2170 -0.2166 -0.6870
  444MOL0     C59845   7.526   4.496   2.259 -0.4451 -0.0010 -0.3007
  444MOL0     C59846   7.416   4.452   2.158 -0.2674  0.0704  0.2426
  444MOL0     C59847   7.494   4.349   2.058 -0.2555 -0.1647 -0.4810
  444MOL0     C59848   7.410   4.276   1.951  0.4983  0.6977 -0.1326
  444MOL0     C59849   7.316   4.162   2.018  0.2483 -0.9229  0.0276
  444MOL0    Cl59850   7.164   4.226   2.091 -0.4026 -0.6421  0.2575
  444MOL0     C59851   8.063   4.856   2.112  0.6110  0.0541  0.5969
  444MOL0     C59852   8.171   4.943   2.074  0.3903 -0.3105  0.1331
  444MOL0     O59853   8.482   4.953   1.971 -0.4465 -0.1138  0.0795
  444MOL0     C59854   8.543   5.284   2.069  0.2855  0.8830  0.0131
  444MOL0     C59855   8.634   5.378   2.043  0.2283 -0.3392 -0.5245
  444MOL0     N59856   9.319   5.890   1.662 -0.3500  0.8249  0.4403
  444MOL0     N59857   9.418   5.889   1.581 -0.1367 -0.3249 -0.2695
  444MOL0     C59858  10.617   5.588   1.418  0.0481  0.8252 -0.3047
  444MOL0     C59859  10.742   5.556   1.477 -0.2619 -0.7620  0.4848
  444MOL0     C59860  11.167   5.456   1.565 -0.3701 -0.2373 -0.2900
  444MOL0     C59861  11.257   5.544   1.503 -1.5232 -0.8974 -0.3369
  444MOL0     C59862  11.395   5.527   1.522  0.6140 -0.7920  0.4500
  444MOL0     C59863  11.435   5.432   1.616 -0.0089 -0.0816  0.3281
  444MOL0     O59864  11.573   5.432   1.631 -0.0355  0.4987 -0.2495
  444MOL0     C59865  11.619   5.316   1.714 -0.4158 -0.3811 -0.3147
  444MOL0     C59866  11.777   5.310   1.699  0.5643 -0.0910  1.5576
  444MOL0     C59867  11.817   5.274   1.558 -0.3565  0.0604 -0.2688
  444MOL0     C59868  11.959   5.287   1.526 -0.1989  0.7964 -0.6900
  444MOL0     C59869  12.050   5.259   1.631 -0.2970 -0.3550 -0.5315
  444MOL0     C59870  12.115   5.238   1.733 -0.4399 -0.0647 -0.1081
  444MOL0     C59871  11.348   5.348   1.681 -0.0193 -0.7680 -0.1548
  444MOL0     C59872  11.216   5.361   1.648  0.3687 -0.0243 -0.2721
  444MOL0     H59873  10.944   5.745   1.274  0.3214  0.4469  1.1298
  444MOL0     H59874  10.755   5.796   1.176  4.7330  0.2489  0.1302
  444MOL0     H59875  10.341   5.615   1.343  1.7439 -1.3529  0.4708
  444MOL0     H59876  10.401   5.758   1.425  2.0515 -0.5993 -0.6688
  444MOL0     H59877  10.286   5.896   1.246 -1.6282  1.2196  0.6645
  444MOL0     H59878  10.233   5.765   1.156 -0.8453 -0.0537 -0.3192
  444MOL0     H59879  10.119   5.715   1.408 -0.2604  2.1270  4.5391
  444MOL0     H59880  10.187   5.865   1.442  1.5942  0.0715 -0.7870
  444MOL0     H59881  10.038   5.959   1.257  2.5578 -1.3085 -1.1117
  444MOL0     H59882   9.981   5.799   1.214  0.5103 -1.2232  0.5499
  444MOL0     H59883   9.913   5.962   1.460  0.6705 -0.1342  1.1459
  444MOL0     H59884   9.800   5.899   1.337 -2.0882  1.6968  3.6169
  444MOL0     H59885   9.859   5.659   1.413  0.9424 -0.2365 -1.0883
  444MOL0     H59886   9.959   5.726   1.544 -0.5022 -1.4123  0.4407
  444MOL0     H59887   9.751   5.696   1.656  1.2233  1.7221  1.3640
  444MOL0     H59888   9.746   5.859   1.621 -0.0987 -0.6277  1.7966
  444MOL0     H59889   9.599   5.625   1.504  3.1925 -0.4166  4.3184
  444MOL0     H59890   9.590   5.786   1.419 -0.7584  0.0204  0.3678
  444MOL0     H59891   9.460   5.613   1.753 -0.3641 -0.1937 -0.0445
  444MOL0     H59892   9.270   5.768   1.936  3.4777  2.4028 -0.7479
  444MOL0     H59893   9.136   5.809   1.822  0.9590  0.5495 -0.6150
  444MOL0     H59894   9.241   5.530   1.891  0.8790 -1.4593 -1.2510
  444MOL0     H59895   9.166   5.565   1.740 -4.2896 -1.2150  0.8394
  444MOL0     H59896   8.963   5.620   1.822 -1.8896 -2.4176  1.4626
  444MOL0     H59897   9.026   5.657   1.983 -1.8217 -1.4202 -0.0964
  444MOL0     H59898   9.040   5.406   2.024 -0.8233 -1.6143  0.3255
  444MOL0     H59899   8.980   5.391   1.852  0.6920  1.3804 -0.3911
  444MOL0     H59900   8.906   5.208   1.958  0.2940  4.2888  0.5605
  444MOL0     H59901   8.766   4.952   1.875 -0.3079  2.1856 -0.8263
  444MOL0     H59902   8.869   4.987   2.025 -1.5460  2.7234  2.1777
  444MOL0     H59903   8.708   4.907   2.030  0.9763 -3.3026 -3.2631
  444MOL0     H59904   8.363   4.908   2.354 -0.4120 -0.0753  0.0722
  444MOL0     H59905   8.200   4.724   2.394  1.0204  1.5278  2.4036
  444MOL0     H59906   7.801   4.772   2.167 -1.8228 -0.2789  0.4580
  444MOL0     H59907   7.874   4.616   2.117 -1.7293 -1.0977  0.4164
  444MOL0     H59908   7.789   4.505   2.298  0.1303 -0.5093  0.3674
  444MOL0     H59909   7.730   4.649   2.378 -0.9913 -0.3703 -1.1675
  444MOL0     H59910   7.650   4.559   2.098  3.6364 -1.7024  0.7555
  444MOL0     H59911   7.566   4.692   2.189  0.6676  0.1902  0.8118
  444MOL0     H59912   7.586   4.415   2.301 -2.0654 -1.9634 -1.5647
  444MOL0     H59913   7.470   4.543   2.341  0.5867 -0.7171  0.8454
  444MOL0     H59914   7.368   4.533   2.102 -0.9723 -1.2678 -1.1656
  444MOL0     H59915   7.336   4.399   2.210 -0.2281 -0.1781  0.0497
  444MOL0     H59916   7.569   4.405   2.001  1.0208  0.7235  1.9030
  444MOL0     H59917   7.538   4.268   2.117  0.2701  0.9341  0.7135
  444MOL0     H59918   7.478   4.220   1.886 -1.0289 -1.5988  0.0997
  444MOL0     H59919   7.344   4.343   1.896 -2.6890 -1.9151  0.1549
  444MOL0     H59920   7.370   4.109   2.098  0.2638  2.8606  2.7858
  444MOL0     H59921   7.304   4.089   1.937  0.6614 -1.5817  0.5432
  444MOL0     H59922   7.978   4.861   2.044  1.2778  0.3550 -0.2442
  444MOL0     H59923   8.159   4.994   1.980 -0.4875  1.1248  0.9831
  444MOL0     H59924   8.443   5.313   2.099 -0.0842  0.1462 -0.4967
  444MOL0     H59925   8.605   5.482   2.048  2.4566  0.3112 -0.0611
  444MOL0     H59926  10.521   5.559   1.460 -1.1292  3.2455 -1.1477
  444MOL0     H59927  10.743   5.492   1.565 -0.9074 -1.2253  0.1664
  444MOL0     H59928  11.216   5.616   1.433  1.8824  1.0478 -0.5244
  444MOL0     H59929  11.463   5.576   1.453  1.3214  3.5309  3.7913
  444MOL0     H59930  11.599   5.331   1.821 -0.0670  0.2100 -0.3246
  444MOL0     H59931  11.574   5.229   1.666  0.9883 -1.4729  0.2858
  444MOL0     H59932  11.822   5.237   1.767  2.7060 -1.0646 -0.7478
  444MOL0     H59933  11.805   5.412   1.727  1.3017  0.9687 -2.4339
  444MOL0     H59934  11.764   5.323   1.475  0.7954 -3.8757 -3.6342
  444MOL0     H59935  11.786   5.170   1.546  0.0953 -0.2602  1.1505
  444MOL0     H59936  11.985   5.388   1.493 -0.1248  1.3834  1.0472
  444MOL0     H59937  11.990   5.225   1.441  2.3024 -0.4123  0.9676
  444MOL0     H59938  12.190   5.226   1.808 -1.9695 -2.2593  1.2127
  444MOL0     H59939  11.379   5.268   1.746  0.0512 -0.5342  0.1005
  444MOL0     H59940  11.151   5.298   1.708  2.1179 -2.6773 -0.9862
  445MOL0     O59941  10.570   1.753   7.737  0.6101 -0.3399 -0.1582
  445MOL0     C59942  10.615   1.851   7.790 -0.5947 -0.5550  0.2592
  445MOL0     O59943  10.540   1.939   7.868 -0.5309  0.1382 -0.0781
  445MOL0     C59944  10.408   1.904   7.896  0.2319 -1.2954 -0.4146
  445MOL0     C59945  10.365   1.827   8.004 -0.2396  0.6866 -0.5131
  445MOL0     C59946  10.224   1.815   8.047 -0.3261 -0.3217 -0.3306
  445MOL0     C59947  10.126   1.882   7.965 -0.6715  0.0619  0.8334
  445MOL0     O59948   9.990   1.902   7.997  0.1027  0.2505 -1.2296
  445MOL0     C59949   9.928   1.823   8.101  0.7951 -0.6554  0.7192
  445MOL0     C59950   9.777   1.859   8.120  0.2789 -0.1184  0.0975
  445MOL0     C59951   9.695   1.829   7.990  0.6473 -0.1581 -0.7861
  445MOL0     C59952   9.547   1.842   8.016  0.3037  0.1581  0.1988
  445MOL0     C59953   9.496   1.723   8.096  0.8495 -0.3218  0.2798
  445MOL0     C59954   9.348   1.756   8.119 -0.2088 -0.9621  0.0302
  445MOL0     C59955   9.261   1.657   8.203 -0.0760 -0.4450 -0.7011
  445MOL0     C59956   9.296   1.679   8.354  0.6042 -0.4968  0.5247
  445MOL0     N59957   9.172   1.729   8.423 -0.0706  0.3761  0.6052
  445MOL0     C59958   9.138   1.865   8.444 -0.5737  0.3212 -0.7012
  445MOL0     C59959   9.041   1.865   8.533  0.6597  0.0927  0.3324
  445MOL0     C59960   8.952   1.981   8.571 -0.6546 -0.0914 -0.3841
  445MOL0     C59961   8.989   2.038   8.710 -0.5209  0.5923 -0.1263
  445MOL0     C59962   8.918   2.164   8.742  0.0901 -0.0423  0.7385
  445MOL0     C59963   8.762   2.150   8.755 -0.3630  0.0359 -0.3747
  445MOL0     O59964   8.704   2.281   8.770 -0.3006  0.4073  0.2798
  445MOL0     C59965   8.573   2.297   8.809  0.1853 -0.4777  0.4742
  445MOL0     C59966   8.530   2.425   8.845 -0.7172 -0.6565 -0.7939
  445MOL0     C59967   8.395   2.446   8.885  0.4805 -0.2010  0.3983
  445MOL0     C59968   8.361   2.583   8.927  0.2879 -0.0503  0.8462
  445MOL0     C59969   8.299   2.347   8.896  0.5866  0.1374 -0.2130
  445MOL0     C59970   8.161   2.374   8.952  0.4757 -0.7144  0.4988
  445MOL0     O59971   8.063   2.302   8.896  0.1321  0.3506 -0.7725
  445MOL0     C59972   7.930   2.287   8.946  0.3382 -0.5327  0.5272
  445MOL0     C59973   7.860   2.395   9.002 -0.0630 -0.0732  0.0604
  445MOL0     C59974   7.731   2.368   9.050  0.2604 -0.7482 -0.7716
  445MOL0     C59975   7.659   2.252   9.029  0.3840  0.3103 -0.8446
  445MOL0     O59976   7.531   2.215   9.072  0.1322 -0.2502 -0.4011
  445MOL0     C59977   7.485   2.283   9.193  0.6746  0.2566  0.1538
  445MOL0     C59978   7.413   2.419   9.162  0.2369  0.6080 -0.1494
  445MOL0     C59979   7.337   2.451   9.288  0.7479  0.2352 -1.1933
  445MOL0     C59980   7.302   2.602   9.279 -0.2838 -0.1250 -0.8388
  445MOL0     C59981   7.200   2.625   9.393  0.0814  0.7641 -0.4635
  445MOL0     C59982   7.159   2.773   9.397 -0.0293  0.0946 -0.3910
  445MOL0     C59983   7.268   2.883   9.398 -0.8210 -0.0476 -0.4743
  445MOL0     C59984   7.301   2.895   9.544  0.9851 -0.7407  0.1273
  445MOL0    Cl59985   7.436   3.010   9.567 -0.1184 -0.0260 -0.4066
  445MOL0     C59986   7.732   2.146   8.960  0.0954 -0.6899 -0.1530
  445MOL0     C59987   7.867   2.164   8.926  0.0205  0.0406 -0.0345
  445MOL0     O59988   8.148   2.448   9.051  0.3499  0.0789  0.3601
  445MOL0     C59989   8.334   2.220   8.846  0.0002  0.3153  0.1337
  445MOL0     C59990   8.472   2.196   8.804  0.2651 -0.2932  0.5588
  445MOL0     N59991   9.009   1.730   8.572 -1.0220  0.1725  0.2468
  445MOL0     N59992   9.086   1.653   8.501  0.1702  0.1858  0.3653
  445MOL0     C59993  10.170   1.957   7.857 -0.6398 -0.4642 -0.4997
  445MOL0     C59994  10.307   1.964   7.819 -1.0998 -0.6130  0.3360
  445MOL0     C59995  10.764   1.885   7.793  0.0290  0.0708  0.8220
  445MOL0     C59996  10.816   1.988   7.876 -0.3784 -0.4954 -0.4305
  445MOL0     C59997  10.956   2.010   7.891 -0.6333  0.1788 -0.0672
  445MOL0     C59998  11.046   1.932   7.815 -0.0125  0.1520  0.1252
  445MOL0     O59999  11.184   1.955   7.805 -0.2281  0.1901  0.0256
  445MOL0     C60000  11.256   2.043   7.891  0.0524  0.7421 -0.2002
  445MOL0     C60001  11.385   1.969   7.936  1.2277 -0.4149  0.4385
  445MOL0     C60002  11.493   1.971   7.827  0.4187 -0.0454  0.0112
  445MOL0     C60003  11.496   1.841   7.762 -0.7273  0.1107  0.0222
  445MOL0     C60004  11.578   1.847   7.635 -0.4127 -0.0026 -0.5768
  445MOL0     C60005  11.651   1.825   7.535 -0.3492 -0.5656  0.3619
  445MOL0     C60006  11.001   1.833   7.732 -0.2614 -0.4762  1.0410
  445MOL0     C60007  10.857   1.805   7.723 -0.2583  0.6040 -1.0257
  445MOL0     H60008  10.442   1.783   8.067 -0.0936 -0.4476 -1.4531
  445MOL0     H60009  10.187   1.759   8.132  0.7919  0.2416  0.5461
  445MOL0     H60010   9.929   1.723   8.057  0.4383  0.5878 -2.3701
  445MOL0     H60011   9.985   1.829   8.194  1.7440 -0.6520  0.1456
  445MOL0     H60012   9.739   1.800   8.204  1.0440 -1.3156 -0.3527
  445MOL0     H60013   9.760   1.963   8.147 -1.9829 -0.2843 -0.4968
  445MOL0     H60014   9.713   1.909   7.918 -1.1255  2.1695  1.2002
  445MOL0     H60015   9.721   1.732   7.948  0.7922 -0.2588 -0.4676
  445MOL0     H60016   9.541   1.934   8.074  0.8777  0.1089  0.3454
  445MOL0     H60017   9.514   1.849   7.912  2.8807 -0.8480 -0.7743
  445MOL0     H60018   9.500   1.624   8.050 -1.7800  0.9618 -3.1097
  445MOL0     H60019   9.537   1.726   8.198 -2.7726  0.7011  1.8848
  445MOL0     H60020   9.344   1.851   8.173 -0.1037 -1.1124  0.3083
  445MOL0     H60021   9.299   1.758   8.022  0.9481 -0.0401 -0.5549
  445MOL0     H60022   9.156   1.662   8.171  0.0291 -0.9190 -1.1320
  445MOL0     H60023   9.302   1.559   8.178  3.3456  0.9884 -1.2364
  445MOL0     H60024   9.379   1.748   8.372  2.7382 -3.1239  1.4033
  445MOL0     H60025   9.325   1.587   8.405  0.2122 -0.4604  0.8191
  445MOL0     H60026   9.189   1.955   8.413 -0.9272  1.3705  1.5757
  445MOL0     H60027   8.989   2.051   8.494  0.8226  0.6563  0.9507
  445MOL0     H60028   8.845   1.961   8.561 -0.5819 -2.2823  2.2377
  445MOL0     H60029   9.095   2.066   8.715  0.1553 -1.4372 -1.6763
  445MOL0     H60030   8.979   1.965   8.791  2.1320  0.3781  0.1026
  445MOL0     H60031   8.926   2.242   8.666 -6.6021  0.4408 -0.1357
  445MOL0     H60032   8.954   2.211   8.834 -2.9251 -0.0403  2.0567
  445MOL0     H60033   8.739   2.093   8.845  0.4479 -0.8173 -0.6865
  445MOL0     H60034   8.722   2.104   8.664 -0.0144 -0.4014 -0.3091
  445MOL0     H60035   8.603   2.505   8.840 -1.4986  0.0044 -2.8583
  445MOL0     H60036   8.392   2.599   9.031 -0.8749  0.2553  1.1587
  445MOL0     H60037   8.405   2.658   8.861  0.4590 -0.1681  0.8247
  445MOL0     H60038   8.256   2.613   8.918  0.4396 -0.1849 -2.1251
  445MOL0     H60039   7.902   2.490   9.032 -1.4673  0.2815  1.0084
  445MOL0     H60040   7.674   2.449   9.097 -1.2324 -0.7542 -2.4655
  445MOL0     H60041   7.409   2.216   9.235  1.0263  1.0034  2.0868
  445MOL0     H60042   7.571   2.290   9.260  1.9442 -0.9141 -1.2655
  445MOL0     H60043   7.480   2.500   9.134 -0.1223  0.0028 -3.1168
  445MOL0     H60044   7.357   2.394   9.071  2.7640  1.3581 -1.9947
  445MOL0     H60045   7.382   2.427   9.385 -0.2464  0.4585 -0.6621
  445MOL0     H60046   7.247   2.390   9.282  0.7780  0.2554 -1.8739
  445MOL0     H60047   7.392   2.656   9.311  1.1312 -3.1290  0.6079
  445MOL0     H60048   7.265   2.633   9.180 -2.8810  0.6957  0.3123
  445MOL0     H60049   7.246   2.603   9.490 -1.0763 -0.2631 -0.1303
  445MOL0     H60050   7.112   2.561   9.381  0.0718  0.4539  1.0104
  445MOL0     H60051   7.104   2.793   9.305  0.5276  2.5107 -0.2641
  445MOL0     H60052   7.089   2.792   9.479 -0.9809 -0.8653 -0.9489
  445MOL0     H60053   7.220   2.975   9.364 -3.5026 -0.6994  1.2070
  445MOL0     H60054   7.362   2.858   9.348 -1.2223  0.6431 -1.6008
  445MOL0     H60055   7.323   2.799   9.591  1.0092 -0.1190  1.4249
  445MOL0     H60056   7.218   2.940   9.599 -1.9635 -1.9557 -3.0241
  445MOL0     H60057   7.682   2.054   8.932 -1.0364 -0.3805  0.7263
  445MOL0     H60058   7.915   2.079   8.878 -1.6757 -1.1244  0.2633
  445MOL0     H60059   8.269   2.134   8.838  2.7102 -1.7852 -1.1006
  445MOL0     H60060   8.497   2.096   8.770 -1.0177 -0.0393 -1.3148
  445MOL0     H60061  10.099   1.983   7.779  0.4748 -0.5137 -1.5650
  445MOL0     H60062  10.343   2.019   7.733 -2.1766 -2.2666 -1.2647
  445MOL0     H60063  10.744   2.056   7.920  1.0600  0.7528  0.0721
  445MOL0     H60064  10.995   2.082   7.962 -3.5309 -2.3000  4.5536
  445MOL0     H60065  11.279   2.140   7.847  1.5252  2.4202  3.8010
  445MOL0     H60066  11.197   2.047   7.984  1.9895  1.3290  1.0615
  445MOL0     H60067  11.364   1.868   7.972 -0.2371 -0.8314 -1.4139
  445MOL0     H60068  11.422   2.025   8.023  2.7045 -0.6871  0.0133
  445MOL0     H60069  11.582   2.004   7.881 -0.8268  3.5578  0.1141
  445MOL0     H60070  11.483   2.050   7.753  1.0442  2.5150  2.4942
  445MOL0     H60071  11.400   1.809   7.720  0.2870 -1.6907 -1.0775
  445MOL0     H60072  11.543   1.762   7.821  2.8331 -0.1384 -2.7650
  445MOL0     H60073  11.722   1.824   7.456 -2.7324  0.3669 -1.9622
  445MOL0     H60074  11.071   1.773   7.676 -2.3048 -2.4039  0.3964
  445MOL0     H60075  10.813   1.725   7.665 -0.9369 -0.0834  0.3829
  446MOL0     O60076   0.191   2.464   1.401  0.4940  0.1412  0.2346
  446MOL0     C60077   0.291   2.516   1.362  0.0006  0.2606 -0.5322
  446MOL0     O60078   0.303   2.575   1.243 -1.1255 -0.1319 -0.2004
  446MOL0     C60079   0.201   2.573   1.150 -0.3654 -0.4098 -0.5014
  446MOL0     C60080   0.131   2.683   1.125  0.7326  0.3677  0.2566
  446MOL0     C60081   0.034   2.688   1.024 -0.7223 -0.5452  0.4228
  446MOL0     C60082   0.003   2.577   0.951 -0.0010  0.1308  0.8764
  446MOL0     O60083  -0.098   2.552   0.856  0.6129 -0.2014  0.2085
  446MOL0     C60084  -0.198   2.662   0.840 -0.3568 -0.3729  0.8079
  446MOL0     C60085  -0.276   2.624   0.716  0.5166  0.2305 -0.1484
  446MOL0     C60086  -0.358   2.498   0.738 -0.5375  0.0013 -0.2182
  446MOL0     C60087  -0.444   2.459   0.620  0.5493  0.0663 -0.0135
  446MOL0     C60088  -0.554   2.366   0.668  0.0373 -0.2752  0.0056
  446MOL0     C60089  -0.631   2.309   0.539 -0.3726 -0.0695  0.6412
  446MOL0     C60090  -0.722   2.192   0.570  0.0468  0.6836 -0.7275
  446MOL0     C60091  -0.817   2.219   0.692  0.3923 -0.6655 -0.8430
  446MOL0     N60092  -0.923   2.117   0.702  0.6283 -0.4757  0.2940
  446MOL0     C60093  -0.898   1.981   0.708  1.0634  0.1394 -0.4913
  446MOL0     C60094  -1.025   1.937   0.729  0.7076  0.9865  0.1220
  446MOL0     C60095  -1.059   1.790   0.745  0.2644  0.4358 -0.0009
  446MOL0     C60096  -1.209   1.762   0.791  0.0099 -0.7435 -0.0857
  446MOL0     C60097  -1.321   1.802   0.690  0.2137  0.3294 -0.1419
  446MOL0     C60098  -1.458   1.735   0.718 -0.1213  0.9909 -0.9278
  446MOL0     O60099  -1.442   1.590   0.719  0.5879  0.4992 -0.5502
  446MOL0     C60100  -1.538   1.512   0.779  0.3050  0.9832 -0.3202
  446MOL0     C60101  -1.510   1.374   0.805  0.3600 -0.4369  0.8205
  446MOL0     C60102  -1.596   1.293   0.871  0.5069  1.1745  0.3032
  446MOL0     C60103  -1.534   1.158   0.912  0.2463  0.2015  0.5784
  446MOL0     C60104  -1.724   1.334   0.904 -0.0619  0.9231  0.1554
  446MOL0     C60105  -1.821   1.242   0.965  0.1296  0.1779  1.1308
  446MOL0     O60106  -1.953   1.277   0.943  0.3100  0.2469  0.4783
  446MOL0     C60107  -2.048   1.223   1.024  0.3803  0.0280 -1.2099
  446MOL0     C60108  -2.097   1.091   1.009  1.1661 -0.3641  0.5046
  446MOL0     C60109  -2.195   1.042   1.101  0.6253 -0.1287  0.0313
  446MOL0     C60110  -2.266   1.129   1.194 -0.6077  0.3187 -0.4983
  446MOL0     O60111  -2.369   1.079   1.275 -0.1107 -0.1837 -0.1433
  446MOL0     C60112  -2.371   0.937   1.319  0.3184  0.0440 -1.0137
  446MOL0     C60113  -2.442   0.916   1.460 -0.2311  0.3070  1.0026
  446MOL0     C60114  -2.577   0.980   1.470  0.1662 -0.2470 -0.3068
  446MOL0     C60115  -2.609   1.034   1.616  0.5437 -0.1353  0.3726
  446MOL0     C60116  -2.741   1.111   1.616  0.2909 -0.2257  0.1309
  446MOL0     C60117  -2.863   1.027   1.573  0.0603  1.0973 -0.3078
  446MOL0     C60118  -2.992   1.113   1.569  0.6656  1.2440  0.5699
  446MOL0     C60119  -3.058   1.161   1.697  0.1923 -0.4838  0.0068
  446MOL0    Cl60120  -3.001   1.317   1.754  0.1025 -0.3601 -0.0069
  446MOL0     C60121  -2.227   1.267   1.197 -0.5367  0.7307 -0.2328
  446MOL0     C60122  -2.113   1.308   1.121  0.0115  0.3540  0.1295
  446MOL0     O60123  -1.779   1.157   1.040 -0.2178 -0.1599  0.4359
  446MOL0     C60124  -1.766   1.460   0.855  0.2241 -0.1247  0.2449
  446MOL0     C60125  -1.673   1.549   0.796  0.7257  0.4553 -0.4917
  446MOL0     N60126  -1.115   2.044   0.741  0.4713  0.1634  0.2211
  446MOL0     N60127  -1.050   2.148   0.716  0.4951 -0.3981 -0.9836
  446MOL0     C60128   0.092   2.462   0.972 -0.3022  0.1689  0.8103
  446MOL0     C60129   0.194   2.461   1.069  0.0127  0.6879  0.5365
  446MOL0     C60130   0.417   2.508   1.436 -0.0470 -0.2852 -0.0177
  446MOL0     C60131   0.419   2.474   1.566  1.0977 -0.0631 -1.4911
  446MOL0     C60132   0.543   2.446   1.637 -0.5892 -0.5737 -0.0975
  446MOL0     C60133   0.662   2.486   1.575  0.6765  0.2146  0.2475
  446MOL0     O60134   0.780   2.474   1.651  0.1256 -0.1039 -0.3897
  446MOL0     C60135   0.831   2.340   1.680 -0.3655  0.8412  0.1911
  446MOL0     C60136   0.934   2.305   1.569  0.0975  0.0680 -0.4854
  446MOL0     C60137   0.990   2.159   1.566 -0.2336  0.3406  0.6788
  446MOL0     C60138   1.099   2.126   1.670  0.2824  0.1410  0.1491
  446MOL0     C60139   1.222   2.189   1.636  0.3367  1.7963  0.0877
  446MOL0     C60140   1.327   2.245   1.612 -0.4419  0.5877 -0.1586
  446MOL0     C60141   0.662   2.544   1.444  0.4038  0.1233 -0.3880
  446MOL0     C60142   0.543   2.543   1.374 -0.4275  0.5069 -0.3311
  446MOL0     H60143   0.163   2.782   1.158  1.9026  1.0587 -2.5821
  446MOL0     H60144  -0.008   2.785   1.002  1.2596  0.0217 -1.0602
  446MOL0     H60145  -0.270   2.669   0.922 -1.5353 -3.0100  0.1154
  446MOL0     H60146  -0.145   2.756   0.821  1.5896 -1.7817 -1.3962
  446MOL0     H60147  -0.346   2.701   0.682 -0.9354 -0.8672  0.2396
  446MOL0     H60148  -0.205   2.617   0.633  1.6998  3.5823  0.4317
  446MOL0     H60149  -0.286   2.420   0.766 -1.3557  0.3536  3.2619
  446MOL0     H60150  -0.422   2.508   0.825 -0.1343 -1.6225  0.3076
  446MOL0     H60151  -0.488   2.545   0.568 -0.2024 -1.4958 -2.1128
  446MOL0     H60152  -0.380   2.408   0.548 -0.4672  0.8554 -1.5335
  446MOL0     H60153  -0.505   2.286   0.723 -0.1997 -0.2837  0.2045
  446MOL0     H60154  -0.618   2.416   0.741 -1.0434  0.0857 -1.1461
  446MOL0     H60155  -0.684   2.382   0.477 -0.3854 -2.0480 -1.8673
  446MOL0     H60156  -0.547   2.266   0.483 -2.4865 -0.8556 -2.1216
  446MOL0     H60157  -0.779   2.157   0.484 -1.3253  1.0285  0.0031
  446MOL0     H60158  -0.659   2.110   0.607 -0.1321  1.6370  1.9078
  446MOL0     H60159  -0.859   2.319   0.685 -1.2874 -0.8181  3.6024
  446MOL0     H60160  -0.755   2.222   0.783  2.0152  2.0257 -1.9287
  446MOL0     H60161  -0.808   1.922   0.703  1.0867 -0.0731  1.8126
  446MOL0     H60162  -1.032   1.747   0.648  0.3865  0.6600 -0.0657
  446MOL0     H60163  -1.001   1.752   0.829 -1.3846 -0.7372  0.6621
  446MOL0     H60164  -1.221   1.822   0.881 -0.7783  2.3934 -2.1289
  446MOL0     H60165  -1.229   1.662   0.831  0.5446 -1.1506 -0.8097
  446MOL0     H60166  -1.277   1.761   0.599  0.2006  0.1186 -0.0546
  446MOL0     H60167  -1.337   1.910   0.683 -0.8244  0.1643 -0.5599
  446MOL0     H60168  -1.541   1.766   0.654 -0.7193 -1.1893 -1.2981
  446MOL0     H60169  -1.490   1.769   0.817 -3.8453  0.9981 -1.9812
  446MOL0     H60170  -1.406   1.348   0.788  0.7831  1.6366 -0.0836
  446MOL0     H60171  -1.592   1.073   0.875  0.1993  0.1285  0.8171
  446MOL0     H60172  -1.438   1.153   0.861 -0.3990  3.8477 -1.3525
  446MOL0     H60173  -1.518   1.159   1.021 -0.4510  1.4416  0.6851
  446MOL0     H60174  -2.060   1.026   0.931 -2.2141 -0.2301 -1.4125
  446MOL0     H60175  -2.223   0.937   1.100 -3.6472  0.8439 -0.0533
  446MOL0     H60176  -2.424   0.878   1.244 -2.6285  0.8612  0.2783
  446MOL0     H60177  -2.270   0.896   1.331  0.0563  0.1893  2.7675
  446MOL0     H60178  -2.455   0.807   1.467 -0.5291  0.2399 -0.2336
  446MOL0     H60179  -2.385   0.946   1.548  1.1488 -1.2145  0.6820
  446MOL0     H60180  -2.654   0.905   1.450  1.6103 -1.7135 -0.6008
  446MOL0     H60181  -2.598   1.058   1.396 -2.9790 -1.8319 -1.2733
  446MOL0     H60182  -2.618   0.942   1.675  3.8512 -1.2748 -0.6778
  446MOL0     H60183  -2.541   1.107   1.659 -0.7426  1.5073 -0.2669
  446MOL0     H60184  -2.726   1.209   1.569  2.0440  0.5756  2.2034
  446MOL0     H60185  -2.762   1.136   1.720  1.4747  1.7588 -0.0322
  446MOL0     H60186  -2.854   0.973   1.478  0.7114 -0.2109  0.4662
  446MOL0     H60187  -2.874   0.948   1.648  1.4143 -2.0540 -3.1699
  446MOL0     H60188  -3.074   1.061   1.518  2.1489 -0.4228 -0.2431
  446MOL0     H60189  -2.970   1.201   1.507 -1.4471  2.3468  1.2805
  446MOL0     H60190  -3.033   1.097   1.782 -0.4894  0.6047  1.0604
  446MOL0     H60191  -3.165   1.180   1.686 -0.0998  1.1617  3.9539
  446MOL0     H60192  -2.273   1.312   1.284 -0.9579 -0.2588  0.0762
  446MOL0     H60193  -2.090   1.412   1.142  3.1217 -0.6243  2.2302
  446MOL0     H60194  -1.869   1.490   0.871  0.6323  0.8246  1.2507
  446MOL0     H60195  -1.709   1.649   0.776 -1.7719 -0.4948 -1.1805
  446MOL0     H60196   0.084   2.375   0.908  1.2151  0.1593  0.5967
  446MOL0     H60197   0.269   2.383   1.080  3.6185  3.8475  0.7832
  446MOL0     H60198   0.335   2.446   1.628  0.1686 -1.9528 -3.5218
  446MOL0     H60199   0.540   2.416   1.741 -2.3916  0.9256  0.3401
  446MOL0     H60200   0.862   2.321   1.784  2.4202 -5.2572 -1.2869
  446MOL0     H60201   0.756   2.265   1.655  1.2399 -0.7232 -0.1207
  446MOL0     H60202   1.014   2.380   1.563 -0.0305  0.3764  1.1821
  446MOL0     H60203   0.887   2.321   1.472  0.3455 -0.8449 -0.7633
  446MOL0     H60204   1.024   2.142   1.464  1.0114  0.4195  1.0621
  446MOL0     H60205   0.911   2.092   1.603  0.3167  0.1982  1.6427
  446MOL0     H60206   1.113   2.019   1.687 -1.0497 -0.1289 -0.3152
  446MOL0     H60207   1.078   2.176   1.765 -0.3747  0.7794 -0.3257
  446MOL0     H60208   1.415   2.304   1.592  0.4400 -0.4671  0.4519
  446MOL0     H60209   0.758   2.571   1.400  1.2361 -0.6298  0.8837
  446MOL0     H60210   0.558   2.591   1.278  2.4540 -1.0379 -0.7579
  447MOL0     O60211   6.685   0.217  10.478  0.3875  0.3643  0.0134
  447MOL0     C60212   6.755   0.134  10.542 -0.7364 -0.8825  1.2323
  447MOL0     O60213   6.712   0.017  10.595  0.2026  0.0662  0.5603
  447MOL0     C60214   6.583  -0.023  10.583  0.0811 -0.3678  0.1195
  447MOL0     C60215   6.475   0.036  10.656 -0.6951  0.5238 -0.1488
  447MOL0     C60216   6.345  -0.006  10.650 -0.9764  0.3147  0.4259
  447MOL0     C60217   6.327  -0.125  10.580  1.0427 -1.0505 -0.2726
  447MOL0     O60218   6.201  -0.181  10.586  0.5587  0.1285  0.2997
  447MOL0     C60219   6.178  -0.321  10.592 -0.4592  0.1550 -0.3226
  447MOL0     C60220   6.056  -0.365  10.674  0.1243  0.6053 -0.9535
  447MOL0     C60221   5.910  -0.327  10.621 -0.2983  0.0044 -0.3645
  447MOL0     C60222   5.809  -0.332  10.746 -0.4370 -0.3892  0.6805
  447MOL0     C60223   5.669  -0.280  10.695  0.3864  1.5117  0.4699
  447MOL0     C60224   5.574  -0.259  10.814  0.0237  0.0869  0.2764
  447MOL0     C60225   5.430  -0.223  10.772 -0.0724 -0.0786  0.4463
  447MOL0     C60226   5.415  -0.099  10.685  0.5515  0.7498 -0.3782
  447MOL0     N60227   5.280  -0.047  10.693 -0.7393 -0.1815  0.0668
  447MOL0     C60228   5.167  -0.105  10.649 -0.3518 -0.0457  0.2756
  447MOL0     C60229   5.068  -0.019  10.685 -0.8107  1.0838 -0.1795
  447MOL0     C60230   4.920  -0.034  10.661 -0.0264 -0.2719 -0.0486
  447MOL0     C60231   4.825   0.054  10.750 -1.0925  0.5193  0.1123
  447MOL0     C60232   4.694  -0.019  10.785 -0.2163 -0.2022  1.1837
  447MOL0     C60233   4.586   0.075  10.837 -0.7211 -0.2841  0.3650
  447MOL0     O60234   4.466   0.008  10.866 -0.1161  0.5170 -0.5471
  447MOL0     C60235   4.367   0.075  10.933  0.0587 -0.2570 -0.0472
  447MOL0     C60236   4.257   0.005  10.977 -0.0772  0.6413  0.0327
  447MOL0     C60237   4.151   0.060  11.046  0.4271  0.5320  0.4351
  447MOL0     C60238   4.040  -0.042  11.091 -0.3660 -0.6013  0.2678
  447MOL0     C60239   4.149   0.200  11.062 -0.4463 -0.5773 -0.1486
  447MOL0     C60240   4.039   0.265  11.143  0.0196 -0.2346  0.2768
  447MOL0     O60241   3.923   0.202  11.170  0.6741  0.6394 -0.1468
  447MOL0     C60242   3.803   0.261  11.204  0.1368 -0.0856  0.2205
  447MOL0     C60243   3.788   0.386  11.260  0.1520 -0.9219  0.2409
  447MOL0     C60244   3.666   0.446  11.288  0.4481  0.2161  0.0588
  447MOL0     C60245   3.547   0.368  11.261  0.1260  0.5443 -0.8261
  447MOL0     O60246   3.424   0.416  11.290  0.4041  0.2960 -0.2811
  447MOL0     C60247   3.402   0.555  11.246  0.3303 -0.5852  0.5462
  447MOL0     C60248   3.261   0.604  11.266 -0.2473  0.3100  0.6833
  447MOL0     C60249   3.241   0.656  11.418 -0.9988  0.7508  0.1146
  447MOL0     C60250   3.101   0.701  11.438  0.4259 -0.1048 -0.1364
  447MOL0     C60251   3.094   0.773  11.571 -0.0420 -0.0063  0.0220
  447MOL0     C60252   2.949   0.788  11.627 -0.1745 -0.0770 -0.2842
  447MOL0     C60253   2.869   0.891  11.544 -0.1548  0.0753 -1.0359
  447MOL0     C60254   2.740   0.932  11.619  0.3141 -0.2023 -0.1119
  447MOL0    Cl60255   2.603   0.845  11.559 -0.1357 -0.0442  0.0454
  447MOL0     C60256   3.563   0.238  11.205 -0.3216  0.1104  0.3989
  447MOL0     C60257   3.689   0.189  11.169  0.0457 -0.0257  0.1044
  447MOL0     O60258   4.064   0.379  11.169 -0.0517  0.0335 -0.2830
  447MOL0     C60259   4.257   0.276  11.010  0.6913 -0.0566  0.3764
  447MOL0     C60260   4.361   0.216  10.936  0.9731  0.5164 -0.6650
  447MOL0     N60261   5.125   0.089  10.747  0.3890  0.4905  0.0268
  447MOL0     N60262   5.250   0.068  10.764  0.2138  0.4702 -0.2204
  447MOL0     C60263   6.428  -0.177  10.494 -0.7821  0.3039 -0.1812
  447MOL0     C60264   6.558  -0.128  10.497  0.4692  0.1085  0.2771
  447MOL0     C60265   6.894   0.187  10.558 -0.7408  1.2995  0.2665
  447MOL0     C60266   6.967   0.163  10.667 -0.6714 -0.6276 -1.0283
  447MOL0     C60267   7.101   0.212  10.680 -0.0949 -0.1686  0.5351
  447MOL0     C60268   7.150   0.297  10.577 -0.8423 -0.7448 -0.7700
  447MOL0     O60269   7.266   0.377  10.579  0.0206  0.2475  0.4730
  447MOL0     C60270   7.388   0.326  10.639  0.6536 -0.1612  0.3233
  447MOL0     C60271   7.398   0.379  10.780  0.1790 -0.1231  0.4883
  447MOL0     C60272   7.533   0.343  10.849 -0.4262  0.6328  0.9607
  447MOL0     C60273   7.559   0.427  10.972 -0.2480 -0.5864 -0.3322
  447MOL0     C60274   7.686   0.413  11.052 -0.1677  0.0788  1.1262
  447MOL0     C60275   7.788   0.394  11.111  0.0405  1.4215 -0.9635
  447MOL0     C60276   7.073   0.332  10.475  0.0142 -0.5008  0.1212
  447MOL0     C60277   6.950   0.271  10.458 -0.3406  0.3347  0.0279
  447MOL0     H60278   6.506   0.107  10.732  3.0423  1.5597 -2.3509
  447MOL0     H60279   6.272   0.039  10.717 -0.0416 -0.9156  2.3842
  447MOL0     H60280   6.158  -0.357  10.491 -0.2576 -0.8684 -0.0123
  447MOL0     H60281   6.269  -0.368  10.631 -2.3462 -2.3775  1.4167
  447MOL0     H60282   6.066  -0.473  10.684  1.8317  0.9296  2.1717
  447MOL0     H60283   6.074  -0.340  10.779  2.3193 -2.7099 -0.3741
  447MOL0     H60284   5.904  -0.228  10.576 -0.1887  0.1254 -0.1166
  447MOL0     H60285   5.873  -0.396  10.545 -0.0588 -0.9460  0.3536
  447MOL0     H60286   5.793  -0.435  10.779  0.9122 -0.7083  0.3944
  447MOL0     H60287   5.837  -0.260  10.823  0.6159 -0.2612  0.2027
  447MOL0     H60288   5.695  -0.189  10.639  1.7299 -0.7986 -3.0121
  447MOL0     H60289   5.630  -0.350  10.620  0.7071  3.2434 -1.4344
  447MOL0     H60290   5.581  -0.354  10.869 -0.6329 -0.1185  0.0183
  447MOL0     H60291   5.612  -0.184  10.884 -2.9748  0.9611  1.1209
  447MOL0     H60292   5.390  -0.309  10.718  1.8264  0.1897 -1.4928
  447MOL0     H60293   5.378  -0.200  10.866  1.2402 -0.3818  1.2723
  447MOL0     H60294   5.443  -0.119  10.582 -3.1211  0.3019 -1.4401
  447MOL0     H60295   5.486  -0.023  10.720  0.0111  0.9113  0.4087
  447MOL0     H60296   5.173  -0.195  10.588 -1.5258  1.2444 -1.8398
  447MOL0     H60297   4.896  -0.003  10.558  0.9665 -1.0781 -0.5394
  447MOL0     H60298   4.910  -0.143  10.666  1.0277 -0.3492  0.5655
  447MOL0     H60299   4.812   0.147  10.695 -0.8119  1.5878  1.7772
  447MOL0     H60300   4.868   0.076  10.848 -0.5852  0.2176 -0.0326
  447MOL0     H60301   4.711  -0.104  10.851 -2.4244 -1.1158  0.6490
  447MOL0     H60302   4.664  -0.059  10.688 -0.6779  0.6922  0.9457
  447MOL0     H60303   4.565   0.151  10.761 -0.7412 -1.2155 -0.5712
  447MOL0     H60304   4.623   0.119  10.931  0.7691 -0.7160  0.0074
  447MOL0     H60305   4.256  -0.103  10.964 -0.5150  0.7174 -0.5998
  447MOL0     H60306   3.949  -0.015  11.037  0.1848  1.3757  0.2450
  447MOL0     H60307   4.055  -0.146  11.061  2.9770  0.2484 -1.5668
  447MOL0     H60308   4.026  -0.041  11.199  2.0160  1.4607  0.6554
  447MOL0     H60309   3.877   0.443  11.283  0.2913  0.2332 -2.7742
  447MOL0     H60310   3.663   0.549  11.324  0.5286  0.7796 -1.4467
  447MOL0     H60311   3.465   0.626  11.300 -0.2926 -1.4260  2.4806
  447MOL0     H60312   3.423   0.554  11.138  1.3324 -2.5617  0.7066
  447MOL0     H60313   3.237   0.682  11.194 -2.5346 -0.6358  0.3062
  447MOL0     H60314   3.198   0.518  11.240  1.5946 -0.8163 -0.2275
  447MOL0     H60315   3.316   0.736  11.418  0.4809 -0.5597 -1.3425
  447MOL0     H60316   3.267   0.572  11.483 -1.8828  0.7636  0.5014
  447MOL0     H60317   3.073   0.768  11.356  2.2881 -0.4867 -1.1475
  447MOL0     H60318   3.035   0.614  11.434  3.6986 -2.8438  0.7825
  447MOL0     H60319   3.142   0.871  11.565 -0.5704  0.4017  1.8476
  447MOL0     H60320   3.157   0.723  11.645 -0.4704  0.5791  0.7870
  447MOL0     H60321   2.903   0.689  11.620 -1.2883  0.4361 -0.4738
  447MOL0     H60322   2.956   0.811  11.734 -1.8867  1.2477 -0.4134
  447MOL0     H60323   2.825   0.851  11.452 -1.5956 -2.6255  0.7058
  447MOL0     H60324   2.936   0.977  11.532  1.1921 -0.8744 -0.5691
  447MOL0     H60325   2.728   1.040  11.611  0.0508 -0.1789  0.5282
  447MOL0     H60326   2.750   0.926  11.728 -0.8408  0.1843  0.0207
  447MOL0     H60327   3.470   0.186  11.183 -0.9720  1.9411 -1.4563
  447MOL0     H60328   3.687   0.094  11.117  0.3906 -0.1654  0.3404
  447MOL0     H60329   4.259   0.382  11.033 -1.0433 -0.5875  3.6506
  447MOL0     H60330   4.440   0.274  10.890  0.1292  0.0898 -2.7517
  447MOL0     H60331   6.385  -0.258  10.436  0.9290 -1.1147  0.4189
  447MOL0     H60332   6.643  -0.170  10.444  0.8033  1.2825 -0.1548
  447MOL0     H60333   6.923   0.107  10.750 -1.2894  0.8334 -0.3376
  447MOL0     H60334   7.162   0.193  10.767 -1.2294 -0.5341  1.2805
  447MOL0     H60335   7.387   0.217  10.637 -2.4822 -0.2787  1.5651
  447MOL0     H60336   7.473   0.350  10.575  0.2316 -0.2429 -0.2651
  447MOL0     H60337   7.325   0.332  10.846 -0.7510  0.1019 -0.3566
  447MOL0     H60338   7.393   0.488  10.773 -1.4571 -0.2633 -3.2975
  447MOL0     H60339   7.624   0.368  10.794  0.3793  1.0908  2.4420
  447MOL0     H60340   7.534   0.237  10.874 -2.6101 -0.0276 -1.3059
  447MOL0     H60341   7.476   0.402  11.039 -1.5689 -0.0586 -1.7325
  447MOL0     H60342   7.540   0.530  10.940  0.9213 -0.0001  0.7347
  447MOL0     H60343   7.871   0.363  11.171 -0.3071  3.1591  0.4900
  447MOL0     H60344   7.112   0.400  10.400 -0.5134 -2.5764 -2.2019
  447MOL0     H60345   6.896   0.303  10.370  0.1022  2.6558  0.5377
  448MOL0     O60346   5.948   5.718   3.455  0.2987 -0.5415  0.1459
  448MOL0     C60347   5.968   5.756   3.341 -0.1103  0.3177  1.1225
  448MOL0     O60348   5.879   5.756   3.231 -0.6923 -0.2749  0.3159
  448MOL0     C60349   5.758   5.683   3.235 -1.1587 -0.1463 -0.0493
  448MOL0     C60350   5.676   5.686   3.122  0.7309 -0.6165  0.8635
  448MOL0     C60351   5.551   5.618   3.124 -0.5067 -0.0585  0.6967
  448MOL0     C60352   5.508   5.537   3.227  0.3940 -0.5635 -0.3822
  448MOL0     O60353   5.402   5.443   3.221 -0.2519 -0.7204 -0.1598
  448MOL0     C60354   5.336   5.418   3.093 -0.6844 -0.6931 -0.1612
  448MOL0     C60355   5.190   5.392   3.126  0.0484 -0.1800 -0.0143
  448MOL0     C60356   5.104   5.382   3.001  0.3975  0.6429 -0.0744
  448MOL0     C60357   4.958   5.374   3.046  1.2285 -0.0387 -0.0095
  448MOL0     C60358   4.879   5.331   2.924  0.1288  0.0733  0.7727
  448MOL0     C60359   4.730   5.320   2.952 -0.3786  0.0747  0.0544
  448MOL0     C60360   4.703   5.183   3.023 -0.5316  0.1236  0.0993
  448MOL0     C60361   4.551   5.177   3.041 -0.1935 -0.7088  0.2604
  448MOL0     N60362   4.474   5.183   2.920  0.0655 -0.0397  0.6320
  448MOL0     C60363   4.464   5.082   2.825 -0.2608  0.5418 -0.3227
  448MOL0     C60364   4.402   5.144   2.716 -0.1016  0.2873 -1.3780
  448MOL0     C60365   4.380   5.072   2.581  0.0297  0.0140  0.3147
  448MOL0     C60366   4.243   4.996   2.574 -0.2504 -0.4738  0.7024
  448MOL0     C60367   4.120   5.092   2.555 -0.7168  0.0119  0.1499
  448MOL0     C60368   3.992   5.007   2.555 -0.1340 -0.0461  0.1825
  448MOL0     O60369   3.952   4.993   2.415  0.4192 -0.4309 -0.6560
  448MOL0     C60370   3.827   4.950   2.381  0.2415 -0.4828  0.0144
  448MOL0     C60371   3.736   4.888   2.466  0.7384 -0.9209  0.4208
  448MOL0     C60372   3.613   4.848   2.423  0.2272  0.7171  1.0289
  448MOL0     C60373   3.509   4.803   2.523 -0.1385  0.9044 -0.4940
  448MOL0     C60374   3.593   4.834   2.281 -1.0587  0.0508 -0.4396
  448MOL0     C60375   3.466   4.770   2.220  0.5254 -0.8775  0.3053
  448MOL0     O60376   3.482   4.660   2.136  0.2313  0.4821  0.3315
  448MOL0     C60377   3.363   4.589   2.109 -0.2091 -1.0169 -0.2063
  448MOL0     C60378   3.301   4.590   1.985  0.3179  0.0292 -0.3889
  448MOL0     C60379   3.184   4.527   1.958 -0.1251  0.4578 -0.0331
  448MOL0     C60380   3.114   4.464   2.056 -1.1304 -0.2577 -0.1454
  448MOL0     O60381   2.991   4.421   2.025  0.1474  0.3234 -0.4442
  448MOL0     C60382   2.910   4.366   2.130  0.4592 -0.2515 -0.6110
  448MOL0     C60383   2.773   4.338   2.065  0.6831  0.1667  0.1623
  448MOL0     C60384   2.667   4.278   2.170 -0.7800 -0.5117  0.2396
  448MOL0     C60385   2.618   4.399   2.248 -0.3224 -0.6461 -1.8245
  448MOL0     C60386   2.487   4.393   2.322  0.1072 -0.2565  0.1059
  448MOL0     C60387   2.492   4.279   2.424 -0.0781 -0.7050  0.7847
  448MOL0     C60388   2.372   4.297   2.508  0.5115 -1.1257  0.4621
  448MOL0     C60389   2.359   4.183   2.603 -0.1419 -0.3587 -0.4254
  448MOL0    Cl60390   2.228   4.216   2.715  0.2941  0.0631 -0.1778
  448MOL0     C60391   3.164   4.464   2.186 -0.6521  0.2352 -0.1418
  448MOL0     C60392   3.289   4.524   2.219  0.6629 -0.5770  0.0910
  448MOL0     O60393   3.358   4.830   2.230  0.0401 -0.3878 -0.2499
  448MOL0     C60394   3.699   4.873   2.195  0.5870 -0.3733  0.2081
  448MOL0     C60395   3.809   4.937   2.245 -0.0124 -0.0177  0.1898
  448MOL0     N60396   4.372   5.277   2.760  0.5653 -0.6926 -0.3882
  448MOL0     N60397   4.399   5.291   2.880  0.3121 -0.1252  0.4575
  448MOL0     C60398   5.590   5.529   3.334 -0.0006  0.7299 -0.4487
  448MOL0     C60399   5.712   5.600   3.344  0.0606  0.0247  0.1768
  448MOL0     C60400   6.100   5.813   3.298  0.8427  0.5882 -0.2229
  448MOL0     C60401   6.171   5.876   3.398  0.0233 -0.4124 -0.1248
  448MOL0     C60402   6.292   5.951   3.372 -0.1437 -0.6010  0.0373
  448MOL0     C60403   6.342   5.954   3.244  0.6584 -0.4986  0.4344
  448MOL0     O60404   6.460   6.023   3.227  0.4359  0.7144 -1.0126
  448MOL0     C60405   6.499   6.064   3.097  0.0885  0.3143 -0.9305
  448MOL0     C60406   6.611   6.166   3.100  0.5094  0.6430  0.0500
  448MOL0     C60407   6.745   6.107   3.153 -0.2929 -0.4986  0.8391
  448MOL0     C60408   6.864   6.197   3.126 -0.5246 -0.7413  0.6216
  448MOL0     C60409   6.835   6.331   3.160  0.2256 -0.2121  0.9059
  448MOL0     C60410   6.787   6.436   3.195  0.0952 -0.2145 -0.1648
  448MOL0     C60411   6.271   5.883   3.143 -0.2922  0.7485  0.0628
  448MOL0     C60412   6.151   5.814   3.164  0.0157 -0.7016 -0.0288
  448MOL0     H60413   5.688   5.754   3.039 -1.3306 -0.0232  1.0126
  448MOL0     H60414   5.487   5.627   3.037  1.4164  3.1807 -0.5629
  448MOL0     H60415   5.331   5.499   3.019  0.4796 -0.2325  0.2384
  448MOL0     H60416   5.385   5.330   3.051  1.2044 -0.6513  1.8117
  448MOL0     H60417   5.198   5.300   3.184  1.5609  0.0099  0.1069
  448MOL0     H60418   5.149   5.467   3.195 -0.8971 -0.8809  0.2023
  448MOL0     H60419   5.116   5.465   2.932 -0.3928  0.1806 -0.7892
  448MOL0     H60420   5.130   5.292   2.944  0.7042  1.8461 -1.9313
  448MOL0     H60421   4.938   5.297   3.120 -0.9195 -0.5519 -1.0437
  448MOL0     H60422   4.916   5.468   3.082  3.4015  1.5645 -1.4079
  448MOL0     H60423   4.881   5.395   2.836  0.2256 -2.1541 -0.9375
  448MOL0     H60424   4.920   5.240   2.878 -0.3924 -0.1624  0.7659
  448MOL0     H60425   4.692   5.397   3.020 -1.3839 -1.1029  0.8788
  448MOL0     H60426   4.676   5.327   2.857  0.3987 -2.3030 -0.6290
  448MOL0     H60427   4.736   5.104   2.955 -2.1545  0.3067 -0.9502
  448MOL0     H60428   4.759   5.181   3.117  2.2336  1.0741 -1.4122
  448MOL0     H60429   4.524   5.263   3.103  2.6731  1.6989 -1.5699
  448MOL0     H60430   4.536   5.082   3.093  1.0251 -1.9972 -1.5957
  448MOL0     H60431   4.506   4.983   2.842  0.4342  0.7774 -0.6236
  448MOL0     H60432   4.387   5.145   2.500  0.7930  1.5017  1.6520
  448MOL0     H60433   4.456   4.994   2.567  0.8012  0.9411 -0.9193
  448MOL0     H60434   4.235   4.934   2.664 -2.1361 -0.8633  0.3256
  448MOL0     H60435   4.244   4.924   2.491 -1.2388 -0.2409  0.4737
  448MOL0     H60436   4.141   5.144   2.461  1.7982 -2.1154 -0.5943
  448MOL0     H60437   4.128   5.162   2.638 -0.1094  2.4111 -1.7924
  448MOL0     H60438   3.916   5.057   2.615  0.1477 -0.2630  0.7233
  448MOL0     H60439   4.001   4.910   2.605 -3.5676 -0.7296 -0.2672
  448MOL0     H60440   3.761   4.888   2.572 -0.5633  0.2291  0.7654
  448MOL0     H60441   3.416   4.852   2.495 -1.6092 -1.3720  0.1403
  448MOL0     H60442   3.491   4.695   2.515  0.0310  0.9522 -1.7797
  448MOL0     H60443   3.541   4.826   2.625 -0.6568 -2.2888  0.4805
  448MOL0     H60444   3.353   4.645   1.907 -0.9219 -0.6287 -1.7267
  448MOL0     H60445   3.133   4.538   1.862 -1.4896  0.5442  0.6750
  448MOL0     H60446   2.952   4.275   2.172 -0.8584 -1.0494 -0.9769
  448MOL0     H60447   2.901   4.433   2.216  2.1096 -0.3674 -0.3024
  448MOL0     H60448   2.741   4.420   2.001 -0.8889 -0.7678 -0.3212
  448MOL0     H60449   2.786   4.264   1.986 -2.7706  0.8019 -1.1804
  448MOL0     H60450   2.713   4.200   2.231 -1.1008 -1.0930 -0.2582
  448MOL0     H60451   2.581   4.233   2.119 -0.8396  0.6143 -0.7031
  448MOL0     H60452   2.693   4.427   2.323 -0.8283 -0.8453 -1.2336
  448MOL0     H60453   2.597   4.484   2.182 -3.3928  0.6591  0.5552
  448MOL0     H60454   2.411   4.370   2.246 -1.0594 -2.2984  1.7829
  448MOL0     H60455   2.462   4.490   2.365  0.4546 -0.4669  0.7808
  448MOL0     H60456   2.490   4.179   2.380  2.7067 -0.7434  0.5937
  448MOL0     H60457   2.582   4.281   2.486  1.5832  2.6241 -1.4396
  448MOL0     H60458   2.283   4.294   2.444  0.3355  1.1792  0.5359
  448MOL0     H60459   2.375   4.386   2.571 -4.3823 -0.3827  0.0568
  448MOL0     H60460   2.447   4.169   2.667 -1.6160 -1.0241  1.5310
  448MOL0     H60461   2.324   4.087   2.564 -3.6518 -1.3503  4.2780
  448MOL0     H60462   3.116   4.416   2.271 -1.3646  1.4574  0.1733
  448MOL0     H60463   3.326   4.516   2.320  2.7545 -0.1852 -0.6072
  448MOL0     H60464   3.679   4.868   2.089  1.0694 -0.8405  0.1383
  448MOL0     H60465   3.891   4.972   2.182  1.6105 -3.2424  0.2819
  448MOL0     H60466   5.563   5.468   3.419 -1.1892  0.8675 -0.7132
  448MOL0     H60467   5.775   5.586   3.431  0.9502 -1.2356 -0.6408
  448MOL0     H60468   6.139   5.875   3.502  1.5743  0.2616  0.3985
  448MOL0     H60469   6.338   6.008   3.452  4.2706 -0.0718 -2.5495
  448MOL0     H60470   6.515   5.977   3.032  1.7642  0.3817 -0.6653
  448MOL0     H60471   6.419   6.126   3.055  1.1306  2.3014 -0.1045
  448MOL0     H60472   6.590   6.244   3.173  0.4261 -0.0452  0.7669
  448MOL0     H60473   6.616   6.211   3.000 -2.6057  0.9082 -0.0769
  448MOL0     H60474   6.757   6.008   3.107 -1.3806  0.1404 -0.9143
  448MOL0     H60475   6.741   6.094   3.262  1.1511  0.7550  1.0805
  448MOL0     H60476   6.887   6.200   3.019 -1.3984 -0.5524  0.4326
  448MOL0     H60477   6.951   6.163   3.183  0.0480 -0.4270 -0.0459
  448MOL0     H60478   6.737   6.524   3.231 -1.9311 -1.7983  1.0902
  448MOL0     H60479   6.306   5.895   3.041 -1.7813  0.2702 -0.5380
  448MOL0     H60480   6.090   5.786   3.079 -2.7235 -0.8749  1.8750
  449MOL0     O60481   0.583  10.961   1.736 -0.1251 -0.5519  0.7561
  449MOL0     C60482   0.692  10.976   1.686 -0.4443  0.3461 -0.2745
  449MOL0     O60483   0.762  10.889   1.619  0.8811 -0.4439 -0.2473
  449MOL0     C60484   0.754  10.759   1.654 -1.1921  0.3867  1.4994
  449MOL0     C60485   0.774  10.665   1.552 -0.1619 -1.0552 -0.5848
  449MOL0     C60486   0.770  10.531   1.582  0.2220  0.2520 -0.2509
  449MOL0     C60487   0.767  10.484   1.712  0.3957 -0.3205  0.8537
  449MOL0     O60488   0.787  10.360   1.758  0.1568  0.1958  0.4490
  449MOL0     C60489   0.773  10.252   1.669 -0.2327 -0.3957 -0.3296
  449MOL0     C60490   0.636  10.235   1.627  0.7653 -0.4295 -0.3667
  449MOL0     C60491   0.540  10.205   1.741  0.6209  0.4211  0.1173
  449MOL0     C60492   0.389  10.234   1.707 -1.0507 -0.2092 -0.4407
  449MOL0     C60493   0.351  10.116   1.613 -0.8231 -0.9338  0.1195
  449MOL0     C60494   0.192  10.116   1.600  0.4718 -0.9185 -0.4311
  449MOL0     C60495   0.142  10.231   1.521  0.8372 -0.4559  0.2373
  449MOL0     C60496  -0.013  10.243   1.545 -0.0294 -1.0425 -0.4350
  449MOL0     N60497  -0.091  10.123   1.501 -0.2296 -1.0336 -0.1337
  449MOL0     C60498  -0.115  10.090   1.367  1.5604  0.0755  0.5278
  449MOL0     C60499  -0.197   9.986   1.375 -0.1302  0.0467  0.1030
  449MOL0     C60500  -0.259   9.902   1.273 -0.5723  0.0063  0.1922
  449MOL0     C60501  -0.405   9.873   1.309  0.5681 -0.4763 -0.7690
  449MOL0     C60502  -0.497   9.994   1.302 -0.4294 -0.9613  0.6427
  449MOL0     C60503  -0.633   9.952   1.342  1.2346 -0.5894  0.5344
  449MOL0     O60504  -0.688   9.834   1.273 -0.1659  0.6317 -0.5012
  449MOL0     C60505  -0.769   9.838   1.163 -1.3280  0.2033 -0.7513
  449MOL0     C60506  -0.777   9.730   1.072  0.2826 -0.2995  0.3959
  449MOL0     C60507  -0.871   9.727   0.968  0.5631 -0.1235  0.5290
  449MOL0     C60508  -0.872   9.609   0.865 -0.8024 -0.3948  0.3433
  449MOL0     C60509  -0.975   9.833   0.964 -0.5211 -0.1596  0.9177
  449MOL0     C60510  -1.088   9.850   0.854  0.4701  0.6146 -1.6489
  449MOL0     O60511  -1.067   9.802   0.736  0.5295 -0.1966  0.3264
  449MOL0     C60512  -1.175   9.809   0.650  0.5960 -0.5609 -1.0031
  449MOL0     C60513  -1.219   9.931   0.606  0.2838 -0.4161  0.5292
  449MOL0     C60514  -1.338   9.940   0.535  0.4240 -0.5034 -0.3986
  449MOL0     C60515  -1.424   9.836   0.510 -0.5002 -0.5285 -0.0098
  449MOL0     O60516  -1.532   9.857   0.431 -0.8828  0.4896  0.7164
  449MOL0     C60517  -1.664   9.850   0.487 -0.2928  0.7891 -0.2237
  449MOL0     C60518  -1.765   9.820   0.379 -0.3794  0.9599 -0.2556
  449MOL0     C60519  -1.908   9.862   0.413 -0.3865 -0.2909 -0.6458
  449MOL0     C60520  -2.014   9.798   0.317 -0.3750  0.9886 -0.4614
  449MOL0     C60521  -2.154   9.854   0.344  0.0007  0.8530 -0.1334
  449MOL0     C60522  -2.259   9.775   0.261 -0.2657  0.6207 -0.4096
  449MOL0     C60523  -2.392   9.789   0.328  0.0981 -0.2864  0.6571
  449MOL0     C60524  -2.452   9.934   0.317 -0.9824  0.3154  0.3095
  449MOL0    Cl60525  -2.490   9.965   0.143 -0.1239 -0.1486 -0.1567
  449MOL0     C60526  -1.382   9.711   0.562  0.6059  0.0441 -0.2026
  449MOL0     C60527  -1.259   9.695   0.630  0.0462  0.1738 -0.5225
  449MOL0     O60528  -1.187   9.917   0.885  0.2469 -0.2357 -0.0669
  449MOL0     C60529  -0.978   9.922   1.065 -1.0850  0.3042  0.3769
  449MOL0     C60530  -0.873   9.936   1.159  0.3167  1.2990  0.7340
  449MOL0     N60531  -0.224   9.964   1.504  0.5008  0.2261 -0.0164
  449MOL0     N60532  -0.167  10.051   1.582  0.3491 -0.6115 -0.0340
  449MOL0     C60533   0.768  10.582   1.811  0.5149  0.4340  0.4368
  449MOL0     C60534   0.755  10.712   1.781  0.2208  0.0684 -0.1329
  449MOL0     C60535   0.763  11.103   1.720 -0.2645 -0.5672  0.5063
  449MOL0     C60536   0.866  11.143   1.630  0.1036  0.2778 -0.8069
  449MOL0     C60537   0.926  11.265   1.638  0.5500  0.2232  0.0435
  449MOL0     C60538   0.890  11.353   1.740  0.7854  0.6513 -0.1832
  449MOL0     O60539   0.971  11.468   1.749  0.6382 -0.3002  0.3179
  449MOL0     C60540   0.939  11.567   1.853 -0.4838  0.1117 -0.6847
  449MOL0     C60541   0.869  11.688   1.805  0.2770 -0.0648 -0.0168
  449MOL0     C60542   0.935  11.744   1.676  0.5877 -0.0680  0.3607
  449MOL0     C60543   0.821  11.779   1.584 -0.6466  0.6992  0.1457
  449MOL0     C60544   0.779  11.655   1.515 -0.2905 -0.3565 -0.0645
  449MOL0     C60545   0.730  11.549   1.471  0.4774  0.3301  0.2083
  449MOL0     C60546   0.784  11.323   1.822  0.5257 -0.5823  0.6336
  449MOL0     C60547   0.721  11.194   1.822 -0.7851  0.5689 -0.2157
  449MOL0     H60548   0.770  10.705   1.451 -3.3427  0.3792 -0.0057
  449MOL0     H60549   0.776  10.462   1.499  3.1722  1.1026 -0.8622
  449MOL0     H60550   0.837  10.269   1.582 -0.7032  2.5578 -0.2150
  449MOL0     H60551   0.810  10.162   1.719 -1.7470 -0.2416  1.1607
  449MOL0     H60552   0.609  10.327   1.573  1.4207  0.5341  0.8896
  449MOL0     H60553   0.631  10.157   1.551 -1.7133  1.3829 -2.2298
  449MOL0     H60554   0.544  10.098   1.761 -3.5535 -0.4589 -2.5340
  449MOL0     H60555   0.556  10.278   1.821 -2.0032  2.2673 -0.9206
  449MOL0     H60556   0.339  10.233   1.804  0.0644  0.1926  0.1499
  449MOL0     H60557   0.383  10.335   1.667 -1.3456 -0.2635 -0.5370
  449MOL0     H60558   0.394  10.125   1.513 -3.8424 -0.4722 -1.2415
  449MOL0     H60559   0.376  10.015   1.650 -0.6508 -2.0033 -2.7089
  449MOL0     H60560   0.166  10.034   1.534  1.2464 -1.0510 -0.5800
  449MOL0     H60561   0.142  10.101   1.696  1.3615 -1.1331  0.0074
  449MOL0     H60562   0.191  10.325   1.548  0.2944  0.0393 -0.4665
  449MOL0     H60563   0.156  10.221   1.413 -1.5720  2.5627 -0.4830
  449MOL0     H60564  -0.043  10.328   1.483  1.8610  0.2224  0.3129
  449MOL0     H60565  -0.034  10.263   1.651  1.2847 -2.0746  0.0436
  449MOL0     H60566  -0.064  10.114   1.274 -0.8510  1.1805 -0.5879
  449MOL0     H60567  -0.263   9.957   1.178 -0.5091 -1.0417 -0.4242
  449MOL0     H60568  -0.197   9.813   1.264 -1.2328 -0.5353  0.8935
  449MOL0     H60569  -0.413   9.811   1.399  1.6949 -1.9377 -1.6355
  449MOL0     H60570  -0.441   9.801   1.235  2.8781 -1.1162 -1.3603
  449MOL0     H60571  -0.507  10.027   1.198  0.3369  2.4195  1.5402
  449MOL0     H60572  -0.472  10.083   1.361 -2.3486 -0.1219  0.2560
  449MOL0     H60573  -0.698  10.040   1.341  1.5661 -0.3224  1.3499
  449MOL0     H60574  -0.638   9.931   1.449  0.6463  1.1900  0.8936
  449MOL0     H60575  -0.698   9.656   1.081  1.0834  0.0630 -2.6336
  449MOL0     H60576  -0.955   9.539   0.882 -1.3692  0.1333 -0.1962
  449MOL0     H60577  -0.868   9.635   0.759  0.9960 -1.1528  0.1900
  449MOL0     H60578  -0.777   9.555   0.873 -1.4577 -2.0429 -2.0152
  449MOL0     H60579  -1.150  10.013   0.617 -1.3307  1.4159 -1.8379
  449MOL0     H60580  -1.357  10.032   0.480 -1.0482  0.2456  1.2553
  449MOL0     H60581  -1.661   9.774   0.566  2.5999  0.4388 -0.5399
  449MOL0     H60582  -1.686   9.948   0.530  1.7341  0.8361  0.8612
  449MOL0     H60583  -1.730   9.876   0.292  0.4981 -0.3784 -0.8106
  449MOL0     H60584  -1.752   9.713   0.358  2.6663  1.2370 -0.2852
  449MOL0     H60585  -1.919   9.970   0.419 -1.6360 -0.4447  0.5948
  449MOL0     H60586  -1.921   9.827   0.516 -0.2577  3.0923  0.6472
  449MOL0     H60587  -1.985   9.815   0.212 -3.3548 -1.1204 -1.7672
  449MOL0     H60588  -2.025   9.689   0.324 -1.7358  1.0976 -0.6245
  449MOL0     H60589  -2.150   9.954   0.299  1.1406  0.4671 -0.9398
  449MOL0     H60590  -2.157   9.866   0.452 -1.8914 -0.0002 -0.0618
  449MOL0     H60591  -2.275   9.808   0.158  0.5490 -0.8805 -1.0468
  449MOL0     H60592  -2.234   9.670   0.244 -4.4483 -0.4932 -0.6256
  449MOL0     H60593  -2.386   9.762   0.434 -0.6069  0.7823  0.9811
  449MOL0     H60594  -2.461   9.715   0.286 -0.8568  1.0743 -0.2521
  449MOL0     H60595  -2.391  10.014   0.359 -0.0832 -0.9609  1.5396
  449MOL0     H60596  -2.547   9.933   0.371 -1.3523  2.0506 -0.2429
  449MOL0     H60597  -1.446   9.625   0.546  3.1940 -3.1661  4.2731
  449MOL0     H60598  -1.235   9.595   0.666 -1.0580 -0.0882 -0.4624
  449MOL0     H60599  -1.070   9.981   1.069 -0.5074  1.1743  1.2942
  449MOL0     H60600  -0.878  10.007   1.241  0.5317  0.9015  1.1004
  449MOL0     H60601   0.781  10.553   1.914  1.2508 -0.3021  0.1489
  449MOL0     H60602   0.745  10.787   1.858  0.1545  1.4131 -1.4003
  449MOL0     H60603   0.893  11.086   1.542  0.7756  0.8261 -0.9660
  449MOL0     H60604   1.004  11.303   1.574 -0.3196 -0.6557 -1.6104
  449MOL0     H60605   0.891  11.516   1.937 -0.6475  0.5219 -0.5237
  449MOL0     H60606   1.036  11.602   1.891  0.2197 -2.1521 -0.2021
  449MOL0     H60607   0.855  11.765   1.882 -0.2288 -2.6997  2.7232
  449MOL0     H60608   0.763  11.664   1.795  0.0349  0.7614  0.4644
  449MOL0     H60609   1.015  11.681   1.638  1.7584  0.7892  1.3280
  449MOL0     H60610   0.987  11.840   1.689  2.8578 -0.1939 -5.1680
  449MOL0     H60611   0.852  11.858   1.514 -1.5748  0.6479 -0.3421
  449MOL0     H60612   0.744  11.827   1.644 -1.2949  1.0552 -0.9290
  449MOL0     H60613   0.683  11.457   1.441 -0.6807  1.0090 -0.1006
  449MOL0     H60614   0.743  11.390   1.896 -1.6728 -0.0188 -0.9610
  449MOL0     H60615   0.643  11.171   1.894 -0.8428 -0.8298 -0.6827
  450MOL0     O60616   4.189   6.300   2.876 -0.8840 -0.4156 -0.1016
  450MOL0     C60617   4.301   6.259   2.917  0.4813  1.0699 -0.3111
  450MOL0     O60618   4.416   6.306   2.885  0.0607  0.0844  0.3493
  450MOL0     C60619   4.422   6.425   2.814 -0.0968  0.2800  0.1238
  450MOL0     C60620   4.364   6.547   2.852  1.0496 -0.6633  0.9795
  450MOL0     C60621   4.383   6.669   2.783  0.2884 -0.1377  0.2606
  450MOL0     C60622   4.457   6.670   2.666 -0.1860 -0.1221 -0.5851
  450MOL0     O60623   4.479   6.779   2.588 -0.1540 -0.4505  0.0273
  450MOL0     C60624   4.405   6.901   2.616 -0.4110 -0.3251  0.8888
  450MOL0     C60625   4.451   6.990   2.495  0.7790 -0.8801  0.7598
  450MOL0     C60626   4.387   7.130   2.501  0.1526 -0.6322  0.3304
  450MOL0     C60627   4.242   7.140   2.478  0.0136 -0.9547  1.3766
  450MOL0     C60628   4.211   7.268   2.400  0.2538  0.5761  0.4840
  450MOL0     C60629   4.065   7.294   2.412  1.1920 -1.1304  1.0636
  450MOL0     C60630   4.035   7.407   2.311  0.2118  0.3864 -0.1860
  450MOL0     C60631   3.886   7.446   2.322  0.0768  0.6517  0.0124
  450MOL0     N60632   3.838   7.483   2.457  0.6652 -0.0591  0.6314
  450MOL0     C60633   3.760   7.399   2.536 -0.1101 -0.8161 -0.1855
  450MOL0     C60634   3.702   7.487   2.618 -0.3215 -0.6676 -1.1150
  450MOL0     C60635   3.620   7.442   2.734 -0.0225 -0.1280  0.4909
  450MOL0     C60636   3.475   7.493   2.735  0.8614  0.5347  0.6440
  450MOL0     C60637   3.453   7.634   2.772  0.8067 -0.1684  0.8129
  450MOL0     C60638   3.303   7.685   2.763  0.9521 -0.1759 -0.0137
  450MOL0     O60639   3.266   7.776   2.867 -0.1337  0.1126  0.1223
  450MOL0     C60640   3.141   7.828   2.861  0.1118 -1.1252 -0.1317
  450MOL0     C60641   3.027   7.752   2.860  0.5457  0.1549 -0.2410
  450MOL0     C60642   2.896   7.802   2.833 -0.2152  0.1783  0.7111
  450MOL0     C60643   2.780   7.705   2.843 -0.4186 -1.1378 -0.6888
  450MOL0     C60644   2.881   7.938   2.816  0.4027  0.6918  0.1025
  450MOL0     C60645   2.744   7.993   2.777  0.4059  0.6045 -0.0921
  450MOL0     O60646   2.650   8.025   2.874 -0.5323 -0.1724 -0.2163
  450MOL0     C60647   2.517   8.038   2.849  0.5030  0.7384 -0.2701
  450MOL0     C60648   2.430   7.957   2.926 -0.9425  0.1029  0.4425
  450MOL0     C60649   2.288   7.971   2.909 -0.2192  0.3195 -0.4306
  450MOL0     C60650   2.236   8.069   2.830 -0.7202 -0.2477  0.4874
  450MOL0     O60651   2.101   8.070   2.809 -0.3040  0.1596  0.1538
  450MOL0     C60652   2.029   8.177   2.868  0.3518 -0.2979 -0.5560
  450MOL0     C60653   1.890   8.201   2.810 -0.3077 -0.6086  0.4106
  450MOL0     C60654   1.793   8.085   2.850  0.3513  1.2492 -0.0025
  450MOL0     C60655   1.759   8.088   2.999 -0.6451 -0.2969  0.2165
  450MOL0     C60656   1.652   7.982   3.012  0.3719  0.5665  0.4830
  450MOL0     C60657   1.572   7.992   3.134  0.2746  0.2975 -0.4902
  450MOL0     C60658   1.497   7.864   3.166  0.7235 -0.6675 -0.1557
  450MOL0     C60659   1.454   7.883   3.323  0.3941 -0.6279  0.8905
  450MOL0    Cl60660   1.354   7.753   3.380  0.3737 -0.4704  0.2907
  450MOL0     C60661   2.323   8.158   2.766 -0.3430  0.1270  0.1260
  450MOL0     C60662   2.463   8.145   2.778  0.2572  0.1484 -0.1902
  450MOL0     O60663   2.717   7.999   2.659  0.4475 -0.1641 -0.3135
  450MOL0     C60664   2.994   8.021   2.811  0.2796  0.1466 -0.3502
  450MOL0     C60665   3.121   7.968   2.842  0.0065 -0.7792  0.3046
  450MOL0     N60666   3.749   7.614   2.594  0.3965 -0.6963  1.0547
  450MOL0     N60667   3.823   7.611   2.496 -0.6338 -0.4588  0.6187
  450MOL0     C60668   4.510   6.549   2.619 -0.4353  0.3474  0.3737
  450MOL0     C60669   4.502   6.426   2.693  0.3979 -0.8445  0.0705
  450MOL0     C60670   4.289   6.150   3.019 -0.0170  0.2224 -0.1609
  450MOL0     C60671   4.181   6.064   3.009 -0.3673 -0.3697  0.5459
  450MOL0     C60672   4.179   5.950   3.097  0.0010  0.0804  0.2056
  450MOL0     C60673   4.269   5.933   3.199  0.0785  0.0989 -0.4933
  450MOL0     O60674   4.265   5.819   3.282 -0.6280 -0.1090 -0.3706
  450MOL0     C60675   4.204   5.705   3.227 -0.9937 -0.2280 -0.2490
  450MOL0     C60676   4.239   5.589   3.323 -0.0915  0.1683  0.2376
  450MOL0     C60677   4.390   5.562   3.332 -0.1391  0.2210  1.4069
  450MOL0     C60678   4.429   5.417   3.369  0.3985  0.2792  0.1388
  450MOL0     C60679   4.577   5.416   3.400  0.5885  0.3919 -0.0689
  450MOL0     C60680   4.698   5.402   3.421 -0.3195 -0.4290  0.1727
  450MOL0     C60681   4.377   6.020   3.207 -0.6929 -0.0773 -0.2659
  450MOL0     C60682   4.392   6.129   3.114  0.6054  0.2640 -0.0651
  450MOL0     H60683   4.299   6.543   2.938  0.9012  2.0631  1.0801
  450MOL0     H60684   4.332   6.757   2.821 -7.2483 -3.9004  0.8450
  450MOL0     H60685   4.298   6.883   2.618 -0.1719 -2.0592  0.0877
  450MOL0     H60686   4.435   6.940   2.714  1.7218 -2.9878  1.4095
  450MOL0     H60687   4.560   6.991   2.492  0.8652 -0.2106  2.8885
  450MOL0     H60688   4.426   6.937   2.403  0.0286  0.5920  0.0809
  450MOL0     H60689   4.404   7.179   2.598 -3.1276  1.0304  0.1889
  450MOL0     H60690   4.441   7.194   2.431 -0.9613  1.7952  1.5390
  450MOL0     H60691   4.217   7.052   2.417 -3.2094  1.3533 -0.9771
  450MOL0     H60692   4.185   7.134   2.571 -0.4179 -1.5103  1.0827
  450MOL0     H60693   4.268   7.355   2.435  4.1571 -0.4941 -2.5897
  450MOL0     H60694   4.227   7.250   2.294 -1.2755 -0.5237  0.4082
  450MOL0     H60695   4.000   7.208   2.393 -1.1731  0.8286 -0.2920
  450MOL0     H60696   4.045   7.321   2.517 -0.4772 -1.9823  1.0033
  450MOL0     H60697   4.102   7.492   2.328  0.1215  0.3327  0.4786
  450MOL0     H60698   4.054   7.362   2.213 -0.9003  0.3970 -0.4261
  450MOL0     H60699   3.838   7.353   2.291 -0.0224  0.2912  1.1960
  450MOL0     H60700   3.864   7.522   2.246  1.8939  1.1490 -0.0735
  450MOL0     H60701   3.759   7.292   2.551  3.5107 -0.9945 -0.4359
  450MOL0     H60702   3.607   7.334   2.732 -1.3731  0.0240  0.1829
  450MOL0     H60703   3.662   7.462   2.833  2.7955 -0.9362 -0.4495
  450MOL0     H60704   3.411   7.434   2.802  2.7301 -3.5549 -0.8669
  450MOL0     H60705   3.430   7.466   2.639 -2.7381  2.8680  1.4674
  450MOL0     H60706   3.509   7.690   2.697  0.4467 -2.7309 -1.5054
  450MOL0     H60707   3.490   7.648   2.874  2.0265 -1.0556  0.5161
  450MOL0     H60708   3.244   7.595   2.781  2.3182 -0.4928  3.7317
  450MOL0     H60709   3.294   7.726   2.661  1.8495 -0.8419 -0.3735
  450MOL0     H60710   3.037   7.644   2.868  1.6050  0.3131  0.9941
  450MOL0     H60711   2.728   7.697   2.747 -1.1118 -0.0355 -0.4230
  450MOL0     H60712   2.821   7.605   2.856 -1.1426 -1.9846 -4.0238
  450MOL0     H60713   2.716   7.724   2.930  2.5143  1.4471  1.0985
  450MOL0     H60714   2.471   7.882   2.992  2.8360  1.9118  0.4153
  450MOL0     H60715   2.219   7.897   2.950  0.8041  1.3655  3.5630
  450MOL0     H60716   2.015   8.150   2.973 -0.9457  2.6317  0.1170
  450MOL0     H60717   2.088   8.269   2.865  1.4383 -0.9868 -0.7942
  450MOL0     H60718   1.862   8.295   2.858 -1.8863 -0.3256 -0.9458
  450MOL0     H60719   1.887   8.225   2.703 -1.1032  0.4738  0.6588
  450MOL0     H60720   1.840   7.990   2.823 -0.6001  0.5847  0.6398
  450MOL0     H60721   1.706   8.088   2.783  0.9740  0.1287 -0.8958
  450MOL0     H60722   1.845   8.080   3.066  1.9572  3.8166 -2.2038
  450MOL0     H60723   1.720   8.186   3.026  3.5445  1.7825 -0.4366
  450MOL0     H60724   1.690   7.882   2.989 -0.8408  0.3081 -0.5482
  450MOL0     H60725   1.576   7.989   2.933  1.8000 -1.6359 -1.2008
  450MOL0     H60726   1.630   8.008   3.225  0.1345 -1.9571  0.0709
  450MOL0     H60727   1.509   8.080   3.131 -0.3483  0.0597  2.6830
  450MOL0     H60728   1.550   7.770   3.157 -1.9740 -2.4525  1.1404
  450MOL0     H60729   1.413   7.848   3.098 -0.1185 -1.8286  1.1168
  450MOL0     H60730   1.398   7.976   3.338  1.3043  0.0779  0.0849
  450MOL0     H60731   1.541   7.886   3.389 -0.3596 -0.2725  1.8797
  450MOL0     H60732   2.275   8.234   2.704  0.2447  2.1489  1.9827
  450MOL0     H60733   2.531   8.214   2.729 -0.8521  2.2764  1.1142
  450MOL0     H60734   2.982   8.128   2.797 -0.3851 -0.1587 -2.4765
  450MOL0     H60735   3.215   8.022   2.847  1.0791 -2.4866 -0.5281
  450MOL0     H60736   4.575   6.559   2.533 -0.6775 -0.3617  0.1005
  450MOL0     H60737   4.563   6.339   2.673  2.1901  0.3919 -0.0950
  450MOL0     H60738   4.099   6.078   2.939 -0.0840 -0.3864  0.2075
  450MOL0     H60739   4.096   5.880   3.088  1.3226 -1.3717 -1.3163
  450MOL0     H60740   4.095   5.696   3.227 -0.9628 -0.6286 -0.7180
  450MOL0     H60741   4.228   5.700   3.121 -0.2906  1.4382 -0.1996
  450MOL0     H60742   4.182   5.500   3.297  4.3934 -2.6364 -1.2093
  450MOL0     H60743   4.212   5.620   3.425  3.0752 -0.5664  1.4366
  450MOL0     H60744   4.427   5.641   3.398 -2.1450  1.8089  0.7662
  450MOL0     H60745   4.430   5.580   3.232  0.9599 -0.0528  1.7862
  450MOL0     H60746   4.401   5.343   3.293  0.9790 -1.7232  1.7933
  450MOL0     H60747   4.375   5.381   3.457  3.0954 -0.0712  1.7632
  450MOL0     H60748   4.800   5.372   3.435 -0.8310 -3.1260 -1.2850
  450MOL0     H60749   4.450   5.995   3.283 -2.1404 -3.6208  0.1873
  450MOL0     H60750   4.476   6.198   3.116 -0.8552  2.2233 -1.7398
  451MOL0     O60751   4.919   9.646   6.527 -0.0158 -0.1325  0.4057
  451MOL0     C60752   4.929   9.663   6.650  0.1463 -0.5238  0.4387
  451MOL0     O60753   4.832   9.719   6.726 -0.0174  0.1122  0.2976
  451MOL0     C60754   4.704   9.742   6.680  0.2293  1.1241  0.3168
  451MOL0     C60755   4.679   9.868   6.621 -0.1720  0.1348 -0.2992
  451MOL0     C60756   4.549   9.905   6.595  0.6115 -0.1784 -0.3148
  451MOL0     C60757   4.447   9.819   6.616  0.3517 -0.5121 -0.1414
  451MOL0     O60758   4.319   9.857   6.586  0.5687  0.2251  0.0514
  451MOL0     C60759   4.235   9.853   6.705 -0.3186 -0.1861 -0.1279
  451MOL0     C60760   4.110   9.944   6.696  1.1768  0.3885 -0.5764
  451MOL0     C60761   4.146  10.074   6.639 -0.3596 -0.1800 -0.1004
  451MOL0     C60762   4.043  10.183   6.674  0.1317  0.2774  0.2920
  451MOL0     C60763   4.056  10.305   6.579 -0.1329 -0.6464  0.0047
  451MOL0     C60764   3.940  10.399   6.594 -0.3528  0.1241  0.2442
  451MOL0     C60765   3.906  10.479   6.475 -1.1823 -0.4689  0.2320
  451MOL0     C60766   3.793  10.566   6.506 -0.3018  0.2448 -0.5958
  451MOL0     N60767   3.779  10.682   6.413 -0.0594  1.0761  0.1048
  451MOL0     C60768   3.747  10.802   6.458  0.6116 -1.2722 -0.1052
  451MOL0     C60769   3.703  10.866   6.353  0.5590  0.1267  0.2775
  451MOL0     C60770   3.655  11.013   6.352 -0.2856  0.0193  0.0504
  451MOL0     C60771   3.503  11.020   6.342 -0.3996  0.2063  0.2067
  451MOL0     C60772   3.458  10.982   6.191  0.1829  1.4626 -0.2859
  451MOL0     C60773   3.320  11.033   6.159  0.2968 -0.4083  0.2648
  451MOL0     O60774   3.245  11.004   6.269 -0.1487 -0.0600 -0.0072
  451MOL0     C60775   3.112  11.035   6.277 -0.3753  1.1625  0.8619
  451MOL0     C60776   3.044  11.100   6.174  0.3307  0.0813 -0.0405
  451MOL0     C60777   2.912  11.139   6.187 -0.3625  1.0610 -0.2063
  451MOL0     C60778   2.842  11.203   6.071  0.4602 -0.0602  0.1637
  451MOL0     C60779   2.846  11.110   6.306 -0.7146  0.1551  0.1935
  451MOL0     C60780   2.700  11.139   6.334 -0.1118 -0.2138  0.7674
  451MOL0     O60781   2.671  11.161   6.463 -0.0806 -0.2810  0.1486
  451MOL0     C60782   2.544  11.220   6.487 -0.1189 -0.4251 -0.2295
  451MOL0     C60783   2.538  11.331   6.578  0.5427  0.3552 -1.0487
  451MOL0     C60784   2.416  11.389   6.597 -0.0220 -0.1817  0.2256
  451MOL0     C60785   2.287  11.342   6.545 -0.4807  0.1355 -0.0530
  451MOL0     O60786   2.177  11.416   6.587 -0.0464  0.1416 -0.2176
  451MOL0     C60787   2.049  11.373   6.537 -0.4108 -0.1684  0.1946
  451MOL0     C60788   2.030  11.438   6.397 -0.5747  0.1944 -0.3193
  451MOL0     C60789   1.894  11.403   6.350 -0.1493  1.0198  0.0403
  451MOL0     C60790   1.789  11.485   6.418  0.0015 -0.4393 -0.0215
  451MOL0     C60791   1.673  11.534   6.332  0.2331 -0.1721  1.5257
  451MOL0     C60792   1.577  11.419   6.286  0.7973  0.7497  0.0945
  451MOL0     C60793   1.449  11.470   6.224  0.5074 -1.1761  0.1923
  451MOL0     C60794   1.332  11.374   6.205 -0.0731 -1.1924  0.1972
  451MOL0    Cl60795   1.222  11.445   6.090  0.2482 -0.4150  0.1238
  451MOL0     C60796   2.289  11.236   6.461  1.1533  0.7935  0.0416
  451MOL0     C60797   2.417  11.179   6.431  1.0458 -0.0703  0.8777
  451MOL0     O60798   2.624  11.151   6.235 -0.2132 -1.1330 -0.1522
  451MOL0     C60799   2.912  11.045   6.413 -0.4535 -0.4269  0.6177
  451MOL0     C60800   3.047  10.996   6.395  0.3414 -0.1147 -0.5200
  451MOL0     N60801   3.710  10.785   6.238 -0.8638  0.3959  0.0399
  451MOL0     N60802   3.775  10.681   6.272  0.5189 -0.0955 -0.0590
  451MOL0     C60803   4.473   9.702   6.685  0.1785  0.7849  0.0294
  451MOL0     C60804   4.602   9.657   6.710  0.0501 -0.2646 -0.3154
  451MOL0     C60805   5.071   9.649   6.693 -0.4429 -0.0845 -0.3886
  451MOL0     C60806   5.098   9.643   6.824  0.0416 -0.3583 -1.2179
  451MOL0     C60807   5.231   9.651   6.884  0.6011 -0.6747  0.5076
  451MOL0     C60808   5.337   9.654   6.791 -0.7943 -0.1615 -0.0914
  451MOL0     O60809   5.474   9.627   6.822  0.0173 -0.3606  0.6738
  451MOL0     C60810   5.515   9.641   6.961 -0.5366 -0.1250  0.5771
  451MOL0     C60811   5.651   9.699   6.958 -0.2722  0.3800 -0.1178
  451MOL0     C60812   5.729   9.682   7.091  0.1511  0.2144  0.4568
  451MOL0     C60813   5.844   9.776   7.093  0.1356 -0.4269  0.4909
  451MOL0     C60814   5.944   9.755   7.196  0.4322 -0.4514 -0.4812
  451MOL0     C60815   6.036   9.727   7.273  0.5830  0.5408  0.3068
  451MOL0     C60816   5.306   9.668   6.657 -0.4239  0.7229 -1.3304
  451MOL0     C60817   5.175   9.661   6.611  0.3596  0.1081 -0.6836
  451MOL0     H60818   4.764   9.934   6.615 -0.6985  1.1404  2.0963
  451MOL0     H60819   4.524  10.005   6.560 -2.9356 -0.7564  0.1040
  451MOL0     H60820   4.193   9.753   6.722 -1.6571  0.5648  1.3070
  451MOL0     H60821   4.298   9.870   6.792  1.7787  1.2024 -1.8257
  451MOL0     H60822   4.038   9.900   6.627 -0.3309  1.3162  0.3595
  451MOL0     H60823   4.070   9.951   6.798  2.0544 -0.9411 -0.1039
  451MOL0     H60824   4.240  10.108   6.684  0.5190 -1.9855 -0.4774
  451MOL0     H60825   4.159  10.063   6.530 -0.7205 -3.7599  0.0932
  451MOL0     H60826   3.940  10.146   6.679  0.3161 -0.7867 -2.1669
  451MOL0     H60827   4.065  10.220   6.774 -0.5180 -2.2630  1.4567
  451MOL0     H60828   4.142  10.371   6.596  0.3328 -1.1163 -0.4860
  451MOL0     H60829   4.064  10.262   6.478  2.1727  0.1883 -0.2369
  451MOL0     H60830   3.851  10.347   6.631 -1.0228  1.5496  0.7254
  451MOL0     H60831   3.969  10.480   6.662  0.2535  1.2869 -1.3436
  451MOL0     H60832   3.997  10.533   6.446 -2.1882  0.2358 -1.8072
  451MOL0     H60833   3.880  10.415   6.390 -0.0516  0.3079 -0.7409
  451MOL0     H60834   3.807  10.611   6.605 -2.7592  0.4893 -0.2837
  451MOL0     H60835   3.704  10.504   6.491 -1.0295  1.4468 -1.4805
  451MOL0     H60836   3.739  10.844   6.558  3.9214 -0.5578 -0.0227
  451MOL0     H60837   3.691  11.057   6.446 -0.3551 -0.3694  0.2603
  451MOL0     H60838   3.698  11.063   6.265 -1.0727  1.6032  0.5226
  451MOL0     H60839   3.466  11.120   6.367 -0.0686  0.1565  0.9053
  451MOL0     H60840   3.463  10.955   6.420 -1.3907 -0.6770 -1.0016
  451MOL0     H60841   3.454  10.873   6.185 -0.5753  1.5422 -1.5106
  451MOL0     H60842   3.519  11.028   6.113 -0.3247  0.9149 -1.0133
  451MOL0     H60843   3.276  10.990   6.069 -1.4626  4.8634 -1.8055
  451MOL0     H60844   3.331  11.141   6.146  3.2604 -0.7728 -1.1805
  451MOL0     H60845   3.093  11.133   6.083 -0.5545  2.7111  0.3764
  451MOL0     H60846   2.791  11.295   6.102 -1.7297 -1.3942  0.7114
  451MOL0     H60847   2.911  11.215   5.987  0.2740 -3.1760 -0.5301
  451MOL0     H60848   2.763  11.134   6.042 -1.1473  1.1172  1.4818
  451MOL0     H60849   2.622  11.374   6.632 -1.5424  1.6532  1.3783
  451MOL0     H60850   2.419  11.476   6.663  0.2954 -1.0954  1.4660
  451MOL0     H60851   2.032  11.266   6.552 -0.4275 -0.4527 -1.6029
  451MOL0     H60852   1.979  11.423   6.605 -1.2020 -0.9068 -0.0474
  451MOL0     H60853   2.036  11.543   6.427  0.4840 -0.6845  2.9596
  451MOL0     H60854   2.096  11.400   6.319 -1.9643 -1.3436 -0.8212
  451MOL0     H60855   1.878  11.295   6.358 -0.7131  1.1848  1.2951
  451MOL0     H60856   1.902  11.417   6.241 -0.0389 -3.2879 -0.7012
  451MOL0     H60857   1.739  11.438   6.503  0.0849  1.3475  1.0763
  451MOL0     H60858   1.842  11.572   6.460  0.1965 -0.7031  0.2908
  451MOL0     H60859   1.708  11.579   6.238  1.4461  0.6242  2.3357
  451MOL0     H60860   1.627  11.614   6.390 -0.6459  1.3206 -1.0375
  451MOL0     H60861   1.625  11.362   6.206 -1.2394  0.9631 -1.3633
  451MOL0     H60862   1.550  11.354   6.370  0.9607  2.4876  1.5488
  451MOL0     H60863   1.471  11.491   6.119 -0.2499 -0.6359  0.1364
  451MOL0     H60864   1.415  11.568   6.261 -2.3721 -1.9201 -0.2637
  451MOL0     H60865   1.274  11.370   6.298  0.5120 -0.5524  0.6015
  451MOL0     H60866   1.367  11.273   6.181  4.6005 -0.3923  2.4968
  451MOL0     H60867   2.200  11.201   6.410  0.0551 -0.8405  2.8478
  451MOL0     H60868   2.414  11.093   6.365  1.3383  0.7825 -0.2844
  451MOL0     H60869   2.862  11.025   6.508  0.1070  1.0525  1.2627
  451MOL0     H60870   3.105  10.948   6.473 -0.6038  1.0325  0.9644
  451MOL0     H60871   4.392   9.642   6.724 -2.3275  3.4403 -0.6895
  451MOL0     H60872   4.611   9.557   6.751  1.5546 -0.1290 -0.2744
  451MOL0     H60873   5.017   9.662   6.893 -0.5787  2.4184 -2.5456
  451MOL0     H60874   5.245   9.645   6.991 -1.7482 -0.0015  0.9103
  451MOL0     H60875   5.451   9.716   7.009  0.6238  0.9640  0.4939
  451MOL0     H60876   5.516   9.546   7.015  0.4116  0.1671  1.1132
  451MOL0     H60877   5.647   9.807   6.939  1.0991  0.8854  2.1162
  451MOL0     H60878   5.705   9.642   6.882 -2.0216 -2.0237  0.3199
  451MOL0     H60879   5.766   9.579   7.089  1.0335  0.5409 -0.3927
  451MOL0     H60880   5.660   9.696   7.175 -1.3472  1.6261 -0.9310
  451MOL0     H60881   5.812   9.880   7.103  0.3231 -0.5281  2.9390
  451MOL0     H60882   5.907   9.773   7.004  0.7516  1.1938  0.8550
  451MOL0     H60883   6.120   9.728   7.340  2.2222 -2.1656 -1.5325
  451MOL0     H60884   5.387   9.670   6.585  2.0320  0.4915  1.2748
  451MOL0     H60885   5.165   9.657   6.503  1.1460 -2.3923 -0.7309
  452MOL0     O60886   3.210   5.182   4.862 -0.3522 -1.4122  0.1804
  452MOL0     C60887   3.165   5.081   4.911  0.0693 -0.2576  0.4449
  452MOL0     O60888   3.043   5.071   4.976  0.3291  0.2075 -0.6634
  452MOL0     C60889   2.973   5.181   5.012 -0.8374 -0.8842 -0.5619
  452MOL0     C60890   2.915   5.274   4.932 -0.5215  0.2047  0.3348
  452MOL0     C60891   2.823   5.362   4.982  0.1681  1.0954 -1.3561
  452MOL0     C60892   2.789   5.366   5.129 -0.0740  0.6331 -0.2713
  452MOL0     O60893   2.703   5.458   5.189  1.0342 -0.4337 -0.3937
  452MOL0     C60894   2.627   5.539   5.108  0.0070 -0.3135  0.1416
  452MOL0     C60895   2.510   5.573   5.202  0.0773 -0.3941 -0.7050
  452MOL0     C60896   2.438   5.701   5.164  0.1407 -0.5667  0.3606
  452MOL0     C60897   2.320   5.728   5.264  0.1540  1.0323  0.7776
  452MOL0     C60898   2.229   5.840   5.209 -0.4670 -0.0956 -0.6838
  452MOL0     C60899   2.303   5.955   5.147  0.1656 -0.9074  0.4862
  452MOL0     C60900   2.195   6.065   5.128 -0.2450 -0.6947 -0.3123
  452MOL0     C60901   2.182   6.155   5.252  0.0900 -0.4887 -0.8432
  452MOL0     N60902   2.107   6.277   5.226  0.0023 -0.9248 -0.0139
  452MOL0     C60903   1.970   6.299   5.238 -0.0893 -0.1714  0.1945
  452MOL0     C60904   1.953   6.431   5.212  0.0013  0.0071  0.5117
  452MOL0     C60905   1.813   6.496   5.196  0.5431  0.2311 -0.4106
  452MOL0     C60906   1.777   6.507   5.046  0.2882  0.5525 -0.6008
  452MOL0     C60907   1.875   6.600   4.960 -0.1456  0.0823  0.4471
  452MOL0     C60908   1.790   6.678   4.856  0.1606  0.2387  0.5298
  452MOL0     O60909   1.715   6.593   4.765  0.0983 -0.1564  0.1962
  452MOL0     C60910   1.787   6.505   4.679  0.8657  0.5291 -0.0129
  452MOL0     C60911   1.713   6.396   4.640  1.0271 -0.6884 -0.1435
  452MOL0     C60912   1.762   6.309   4.549  0.5397  0.7388  0.6609
  452MOL0     C60913   1.656   6.206   4.513 -0.8599 -0.0967 -0.0919
  452MOL0     C60914   1.892   6.306   4.505  0.3432  0.4439  0.6257
  452MOL0     C60915   1.962   6.204   4.431  0.4805  0.2956  0.1070
  452MOL0     O60916   2.093   6.250   4.404  0.8393  0.6350  0.0092
  452MOL0     C60917   2.168   6.206   4.297 -0.0951  0.6644 -0.4470
  452MOL0     C60918   2.130   6.113   4.197 -0.4090  0.5696 -0.1442
  452MOL0     C60919   2.219   6.084   4.093 -0.3660  0.2637 -0.4949
  452MOL0     C60920   2.347   6.143   4.091  0.2631 -0.4452  0.4770
  452MOL0     O60921   2.439   6.089   4.004 -0.2959  0.7924  0.3686
  452MOL0     C60922   2.445   6.150   3.871 -0.5598 -0.4064 -0.0462
  452MOL0     C60923   2.573   6.223   3.847  0.2389  0.1081  0.0298
  452MOL0     C60924   2.681   6.110   3.855 -0.7859  0.0274 -0.3745
  452MOL0     C60925   2.817   6.179   3.851 -0.5678 -0.3124  0.5778
  452MOL0     C60926   2.924   6.064   3.879  0.1918 -1.0014 -0.4520
  452MOL0     C60927   3.064   6.128   3.881  1.1883  0.1444  0.5617
  452MOL0     C60928   3.154   6.036   3.964  0.6078  0.5039  0.4155
  452MOL0     C60929   3.297   6.069   3.928  0.4245  0.4355  0.1688
  452MOL0    Cl60930   3.326   6.244   3.966 -0.2914 -0.0696  0.2753
  452MOL0     C60931   2.388   6.223   4.196  0.3860 -0.1568 -0.5640
  452MOL0     C60932   2.293   6.256   4.295 -0.3797  0.4991 -0.1420
  452MOL0     O60933   1.916   6.090   4.421  0.1454  0.5266  0.2318
  452MOL0     C60934   1.967   6.413   4.560  0.9495 -0.2763 -0.6797
  452MOL0     C60935   1.919   6.510   4.646  0.4917  0.7975  0.5398
  452MOL0     N60936   2.074   6.480   5.179 -0.0224 -0.3819  0.7269
  452MOL0     N60937   2.171   6.391   5.185  0.3375 -0.3180 -0.0184
  452MOL0     C60938   2.841   5.260   5.209 -0.0370  0.3676  0.2125
  452MOL0     C60939   2.937   5.183   5.150  0.5549  0.0263  0.1239
  452MOL0     C60940   3.246   4.959   4.898  0.1736 -0.5589  0.4189
  452MOL0     C60941   3.189   4.825   4.918  0.9273  1.0374  0.2609
  452MOL0     C60942   3.261   4.700   4.899  1.0296  0.5308  0.3475
  452MOL0     C60943   3.391   4.712   4.844  0.6675 -0.2375 -0.1617
  452MOL0     O60944   3.470   4.610   4.815 -0.3069 -0.8921 -0.2614
  452MOL0     C60945   3.441   4.483   4.863  0.0614  0.3623 -0.5183
  452MOL0     C60946   3.542   4.387   4.812 -0.4683  0.2978 -0.0657
  452MOL0     C60947   3.680   4.415   4.879 -1.0169  0.1269  0.6509
  452MOL0     C60948   3.793   4.335   4.811 -0.6230  0.0097  0.2924
  452MOL0     C60949   3.928   4.374   4.856  0.0371  0.3497 -0.2287
  452MOL0     C60950   4.040   4.418   4.864 -0.0911  0.1691  0.6292
  452MOL0     C60951   3.448   4.836   4.830 -0.1721  0.3244  0.0321
  452MOL0     C60952   3.378   4.960   4.865  0.2598  0.1782 -0.0170
  452MOL0     H60953   2.942   5.260   4.827 -1.6489  0.4894 -0.0050
  452MOL0     H60954   2.773   5.435   4.919 -2.4422  2.3173  1.7908
  452MOL0     H60955   2.696   5.621   5.083 -0.0768 -0.4174 -0.4410
  452MOL0     H60956   2.590   5.491   5.017  0.4334  2.0035 -1.3397
  452MOL0     H60957   2.437   5.492   5.198 -0.0323 -0.4091  1.0645
  452MOL0     H60958   2.552   5.576   5.303  0.5194 -2.0682 -0.8205
  452MOL0     H60959   2.510   5.780   5.182 -1.5779  0.8975  1.1370
  452MOL0     H60960   2.404   5.694   5.060  1.9886 -0.0761 -0.3005
  452MOL0     H60961   2.258   5.639   5.281  0.5129  1.0964  2.6424
  452MOL0     H60962   2.363   5.755   5.361 -2.6040  0.6835  2.1952
  452MOL0     H60963   2.166   5.793   5.132 -1.1892  0.4638 -0.4414
  452MOL0     H60964   2.168   5.874   5.293  0.7986 -1.9084  1.0305
  452MOL0     H60965   2.380   5.997   5.213  1.6395 -2.2192 -0.3400
  452MOL0     H60966   2.353   5.922   5.056  0.1511  0.3781 -0.0135
  452MOL0     H60967   2.221   6.132   5.045 -1.4183 -0.1274 -0.2559
  452MOL0     H60968   2.099   6.028   5.091 -0.8077  2.8622 -2.9623
  452MOL0     H60969   2.282   6.182   5.287  0.0901  1.2159 -2.0233
  452MOL0     H60970   2.124   6.101   5.327  0.8980 -1.1364 -0.6738
  452MOL0     H60971   1.899   6.217   5.242  0.3620 -0.5230  1.3413
  452MOL0     H60972   1.744   6.437   5.256  1.8842  2.1385  3.3776
  452MOL0     H60973   1.826   6.599   5.232  3.7851  0.2433 -1.2329
  452MOL0     H60974   1.672   6.534   5.031 -1.0531 -3.4583  0.5181
  452MOL0     H60975   1.787   6.407   5.002  0.8561  0.3822 -0.0917
  452MOL0     H60976   1.945   6.530   4.914 -1.3415 -0.9832  0.1711
  452MOL0     H60977   1.933   6.673   5.016  1.6802 -0.2870 -0.8820
  452MOL0     H60978   1.858   6.735   4.792  1.8191 -0.2562  1.7772
  452MOL0     H60979   1.729   6.750   4.911 -0.4360  2.3992 -2.6404
  452MOL0     H60980   1.612   6.382   4.677  0.2865  0.8936 -1.4150
  452MOL0     H60981   1.559   6.252   4.496 -0.0168  1.8344 -0.0038
  452MOL0     H60982   1.687   6.176   4.413  2.9628 -1.6055  1.3401
  452MOL0     H60983   1.655   6.120   4.581 -1.9569  0.2141  0.2936
  452MOL0     H60984   2.040   6.052   4.193  0.3216 -0.5657  0.3373
  452MOL0     H60985   2.208   6.005   4.019  1.3918  1.4704 -2.1354
  452MOL0     H60986   2.430   6.072   3.796  0.2753  0.6235 -1.3170
  452MOL0     H60987   2.356   6.212   3.855 -1.0401 -0.7316  1.2236
  452MOL0     H60988   2.555   6.271   3.750  0.0841  0.4288  0.2175
  452MOL0     H60989   2.586   6.294   3.929 -1.4526  0.4421  0.0299
  452MOL0     H60990   2.671   6.044   3.769 -1.0751  2.3826 -2.2408
  452MOL0     H60991   2.678   6.056   3.950 -0.8024 -1.2517 -1.0889
  452MOL0     H60992   2.841   6.223   3.753  2.4822 -2.6813  0.1319
  452MOL0     H60993   2.828   6.251   3.933  1.4832  0.7193 -0.5205
  452MOL0     H60994   2.917   5.989   3.799 -0.2620 -0.7376 -0.6642
  452MOL0     H60995   2.896   6.020   3.976  0.6712  0.0953  0.1964
  452MOL0     H60996   3.097   6.123   3.777  0.7804 -2.7920  0.4962
  452MOL0     H60997   3.075   6.225   3.932  0.9356 -0.1118  1.1079
  452MOL0     H60998   3.137   5.932   3.935  2.0912  0.6804 -1.2339
  452MOL0     H60999   3.147   6.047   4.072  1.4330  0.2737  0.4993
  452MOL0     H61000   3.322   6.054   3.823  1.6897  2.3818  0.1440
  452MOL0     H61001   3.370   6.012   3.986 -0.0837  0.4713  0.8599
  452MOL0     H61002   2.489   6.263   4.207  0.4874  0.6332 -3.4356
  452MOL0     H61003   2.320   6.325   4.375 -0.5304  2.6440 -1.8724
  452MOL0     H61004   2.074   6.435   4.553  0.6456  2.6060  1.7859
  452MOL0     H61005   1.991   6.588   4.670  1.5425  0.3490 -0.9633
  452MOL0     H61006   2.823   5.253   5.316  0.2415  0.7366  0.2851
  452MOL0     H61007   2.987   5.114   5.217 -1.0103  0.3358  1.6770
  452MOL0     H61008   3.088   4.822   4.957  0.5942  0.4966 -0.6217
  452MOL0     H61009   3.210   4.610   4.932  0.3465  0.2605 -1.3715
  452MOL0     H61010   3.442   4.486   4.972  0.3743  2.6640 -0.5471
  452MOL0     H61011   3.343   4.457   4.820 -0.1066  1.1188 -0.6070
  452MOL0     H61012   3.556   4.398   4.704  3.2918  0.9988  0.3454
  452MOL0     H61013   3.518   4.282   4.830  0.7518  0.3923  2.5587
  452MOL0     H61014   3.673   4.390   4.985  0.2144  2.8679  1.4718
  452MOL0     H61015   3.714   4.518   4.863 -2.2757  0.8639  2.4000
  452MOL0     H61016   3.775   4.346   4.704 -0.5906  0.1951  0.3048
  452MOL0     H61017   3.794   4.230   4.839  2.7214  0.2111  1.4070
  452MOL0     H61018   4.136   4.465   4.868  0.7545 -1.5440  3.1647
  452MOL0     H61019   3.551   4.862   4.810 -0.4020  1.6675  0.4871
  452MOL0     H61020   3.434   5.053   4.864 -0.0027  0.4086  2.3443
  453MOL0     O61021   8.924   6.782   2.459 -0.0587  0.2507  0.2263
  453MOL0     C61022   8.881   6.817   2.566 -0.5730 -0.4568  0.0201
  453MOL0     O61023   8.753   6.856   2.596  0.0973  0.0695  0.5934
  453MOL0     C61024   8.663   6.839   2.499  0.1757 -0.1496  0.0826
  453MOL0     C61025   8.588   6.945   2.454  0.3320 -0.1027  0.4121
  453MOL0     C61026   8.492   6.935   2.359 -0.2976  0.4301  1.0770
  453MOL0     C61027   8.471   6.813   2.294  0.6932  0.0394 -0.8215
  453MOL0     O61028   8.381   6.806   2.185 -0.2726 -0.3532  0.3158
  453MOL0     C61029   8.316   6.679   2.159  0.1947  0.5038  0.1841
  453MOL0     C61030   8.202   6.677   2.061 -0.9009  0.1045 -0.2687
  453MOL0     C61031   8.131   6.539   2.055  1.0895  1.1414 -0.2194
  453MOL0     C61032   8.017   6.519   1.949 -0.3695 -0.0166  0.7409
  453MOL0     C61033   7.934   6.383   1.987 -0.3459 -0.1653 -0.0675
  453MOL0     C61034   7.825   6.330   1.892  0.4829  0.3253  0.1514
  453MOL0     C61035   7.761   6.205   1.944 -0.0610 -0.3897  1.0434
  453MOL0     C61036   7.622   6.231   1.990  0.3215 -0.1336  0.4547
  453MOL0     N61037   7.537   6.270   1.887  0.0251  0.3602 -0.2429
  453MOL0     C61038   7.468   6.384   1.876  0.2491  0.5172  0.5940
  453MOL0     C61039   7.373   6.366   1.781 -0.9935  0.9986 -0.8545
  453MOL0     C61040   7.272   6.464   1.725  0.1041 -0.2663  0.3464
  453MOL0     C61041   7.122   6.435   1.737  0.1409 -0.5691  0.5388
  453MOL0     C61042   7.045   6.535   1.646  0.1318 -0.7146 -0.7438
  453MOL0     C61043   6.893   6.515   1.647 -0.3153 -0.0188  0.0857
  453MOL0     O61044   6.841   6.585   1.758 -0.4806  0.1187 -1.3324
  453MOL0     C61045   6.718   6.549   1.809 -0.0433  0.6328  0.4566
  453MOL0     C61046   6.673   6.611   1.914  0.9889 -0.7246  0.1001
  453MOL0     C61047   6.537   6.604   1.959 -0.1008  0.3409 -0.7639
  453MOL0     C61048   6.495   6.688   2.078  0.9958  0.5924 -0.9915
  453MOL0     C61049   6.446   6.512   1.895  0.2694 -0.5636 -0.1267
  453MOL0     C61050   6.305   6.493   1.945  0.7277 -1.6240  0.3543
  453MOL0     O61051   6.231   6.418   1.867 -0.1374  0.1491 -0.1265
  453MOL0     C61052   6.101   6.369   1.897  0.0094 -0.2117  0.1224
  453MOL0     C61053   6.018   6.431   1.982  0.8584 -0.6485 -0.4892
  453MOL0     C61054   5.893   6.371   2.020 -0.0026 -0.1994 -0.3675
  453MOL0     C61055   5.859   6.243   1.975  0.8761  0.2562 -0.0359
  453MOL0     O61056   5.734   6.195   2.005 -0.1813  0.2162 -0.1291
  453MOL0     C61057   5.705   6.055   2.034  0.3356 -0.1360 -0.2669
  453MOL0     C61058   5.563   6.032   2.089 -1.2905  0.2278 -0.6639
  453MOL0     C61059   5.448   6.077   2.003  0.1327 -1.1444  0.1433
  453MOL0     C61060   5.311   6.061   2.079 -0.6381  0.1781 -0.0873
  453MOL0     C61061   5.197   6.028   1.981 -0.7368 -0.2520  0.5219
  453MOL0     C61062   5.176   6.130   1.866  0.7935  1.0147 -0.5110
  453MOL0     C61063   5.073   6.062   1.770  0.5145  0.0806 -0.3685
  453MOL0     C61064   4.966   6.159   1.733  0.1823  0.1805 -0.9703
  453MOL0    Cl61065   4.841   6.066   1.640  0.1773  0.1001  0.1835
  453MOL0     C61066   5.943   6.179   1.889 -0.1381 -0.8129 -1.1245
  453MOL0     C61067   6.060   6.241   1.855  0.0956 -0.0954 -0.0731
  453MOL0     O61068   6.281   6.512   2.061 -0.2553  0.3152 -0.9188
  453MOL0     C61069   6.499   6.444   1.779 -0.0848  0.0057 -0.6093
  453MOL0     C61070   6.629   6.471   1.741 -0.0751  0.7252 -0.1333
  453MOL0     N61071   7.400   6.236   1.725  0.0407 -0.1226 -1.2528
  453MOL0     N61072   7.504   6.190   1.782  0.1793  0.2937  0.0277
  453MOL0     C61073   8.550   6.697   2.328  0.4102  0.3053  0.6458
  453MOL0     C61074   8.640   6.709   2.435  0.2669 -0.9094  0.4175
  453MOL0     C61075   8.987   6.858   2.655 -0.1070 -0.8254  0.1044
  453MOL0     C61076   9.118   6.814   2.636  0.2919 -0.4754  0.8266
  453MOL0     C61077   9.223   6.855   2.718  0.1510  0.2356  1.0154
  453MOL0     C61078   9.193   6.928   2.832 -0.1278  0.9112 -0.4280
  453MOL0     O61079   9.292   6.974   2.919 -0.0565 -0.3515  0.4168
  453MOL0     C61080   9.414   6.913   2.922 -0.4603  0.1280  0.3138
  453MOL0     C61081   9.394   6.780   2.990  0.4336 -0.5203  0.8684
  453MOL0     C61082   9.526   6.702   3.009  0.0908 -0.0349  1.0428
  453MOL0     C61083   9.615   6.702   2.883  0.5764 -0.3697 -0.1832
  453MOL0     C61084   9.556   6.634   2.772  0.7539  0.5576  0.2367
  453MOL0     C61085   9.510   6.620   2.660 -0.8080 -0.3071  0.2452
  453MOL0     C61086   9.063   6.973   2.853 -0.3877 -0.5937  0.6151
  453MOL0     C61087   8.969   6.946   2.765  0.6618  0.2181 -0.4764
  453MOL0     H61088   8.625   7.039   2.496  0.3599 -0.3466  0.9373
  453MOL0     H61089   8.434   7.026   2.342  2.5636  1.8019 -2.6476
  453MOL0     H61090   8.395   6.609   2.130  0.6012  1.2913 -0.6696
  453MOL0     H61091   8.265   6.642   2.248 -1.4484 -3.0076 -2.0136
  453MOL0     H61092   8.136   6.758   2.093 -1.0831 -0.2095  0.1510
  453MOL0     H61093   8.248   6.700   1.964  0.2340  0.6021  0.3605
  453MOL0     H61094   8.202   6.458   2.033  2.3823  2.5019 -1.2334
  453MOL0     H61095   8.080   6.526   2.151  1.4528  2.6021  0.1874
  453MOL0     H61096   7.947   6.603   1.954  0.8447  1.1292 -0.5084
  453MOL0     H61097   8.070   6.526   1.853 -1.4472 -1.9743 -0.0501
  453MOL0     H61098   8.011   6.306   1.993  1.1655  1.2052 -0.9696
  453MOL0     H61099   7.887   6.402   2.083 -0.2705 -1.3640  0.2221
  453MOL0     H61100   7.747   6.405   1.875 -1.1616 -0.5634  3.0945
  453MOL0     H61101   7.880   6.310   1.800 -0.1043  1.6579 -0.5123
  453MOL0     H61102   7.759   6.134   1.861 -2.2481  1.6073 -0.7344
  453MOL0     H61103   7.822   6.166   2.026  0.2726  0.5813  1.2678
  453MOL0     H61104   7.614   6.305   2.070  0.6688 -0.5771  0.9048
  453MOL0     H61105   7.575   6.142   2.034  1.2179  0.2385  2.2870
  453MOL0     H61106   7.489   6.471   1.936 -1.6819  0.4016  1.5154
  453MOL0     H61107   7.295   6.558   1.776  3.2871 -1.3238  1.1069
  453MOL0     H61108   7.292   6.476   1.617 -1.8474  0.2903  0.0211
  453MOL0     H61109   7.096   6.447   1.842  0.2219  0.1107  0.4826
  453MOL0     H61110   7.094   6.331   1.716 -0.8106 -0.1853 -0.1814
  453MOL0     H61111   7.078   6.526   1.542 -1.9193 -0.5649 -1.4456
  453MOL0     H61112   7.054   6.642   1.665 -0.9565 -0.6837 -0.3607
  453MOL0     H61113   6.874   6.407   1.642 -0.7141  0.0410  0.2675
  453MOL0     H61114   6.849   6.562   1.558  1.4338  1.2546 -0.1562
  453MOL0     H61115   6.745   6.686   1.947  1.1068 -0.8132  0.0447
  453MOL0     H61116   6.495   6.632   2.172 -1.4911 -0.6195 -1.6197
  453MOL0     H61117   6.555   6.779   2.076 -0.3284  1.4946 -2.2077
  453MOL0     H61118   6.390   6.717   2.073  0.7935  0.7249  2.1268
  453MOL0     H61119   6.043   6.530   2.018  1.4293 -0.5570 -1.1184
  453MOL0     H61120   5.825   6.433   2.077  0.7286  1.9017 -1.7018
  453MOL0     H61121   5.720   5.990   1.947  2.1566 -1.7865  1.1821
  453MOL0     H61122   5.782   6.035   2.110  0.8068  0.6007 -0.5372
  453MOL0     H61123   5.557   5.925   2.108 -2.5862  0.6664  1.6965
  453MOL0     H61124   5.545   6.087   2.182 -1.7257 -1.1594  0.1023
  453MOL0     H61125   5.455   6.017   1.912  1.5598  1.4529 -1.6040
  453MOL0     H61126   5.474   6.180   1.979 -2.3601 -0.3744  0.5090
  453MOL0     H61127   5.316   5.983   2.155 -2.6402 -0.1130 -0.2215
  453MOL0     H61128   5.290   6.150   2.139 -1.9287  0.5099 -1.0040
  453MOL0     H61129   5.112   6.042   2.048 -0.9232  1.6674 -0.0592
  453MOL0     H61130   5.213   5.925   1.948  0.0089 -0.9402  2.8649
  453MOL0     H61131   5.130   6.222   1.903  0.3538  0.6865 -0.2206
  453MOL0     H61132   5.269   6.151   1.813  0.9878  0.3985 -0.4222
  453MOL0     H61133   5.027   5.973   1.813  3.2335 -0.9638  0.5783
  453MOL0     H61134   5.129   6.037   1.679  0.1113 -0.6064 -0.4285
  453MOL0     H61135   5.014   6.238   1.674  0.0359  1.2626  0.3305
  453MOL0     H61136   4.908   6.201   1.815  0.6236 -0.9039 -0.0763
  453MOL0     H61137   5.917   6.085   1.840  2.7091 -0.8724 -2.7701
  453MOL0     H61138   6.109   6.191   1.773 -0.5533  1.3312 -1.3875
  453MOL0     H61139   6.429   6.379   1.728 -1.1608 -1.1061  2.1147
  453MOL0     H61140   6.668   6.417   1.655 -0.9781 -2.4659  1.2965
  453MOL0     H61141   8.549   6.610   2.264  0.2590  2.2665 -2.2068
  453MOL0     H61142   8.699   6.619   2.451  0.7694 -0.9314 -1.3000
  453MOL0     H61143   9.136   6.754   2.548 -3.3196 -1.2756  0.4834
  453MOL0     H61144   9.324   6.835   2.683 -0.3293  0.3836 -0.5487
  453MOL0     H61145   9.457   6.903   2.821 -1.2844 -3.7925  0.1762
  453MOL0     H61146   9.484   6.971   2.982  1.6803  1.1970 -2.8979
  453MOL0     H61147   9.325   6.720   2.930  0.0763  0.9151 -0.2186
  453MOL0     H61148   9.348   6.797   3.088 -0.2852  0.8203  0.3271
  453MOL0     H61149   9.499   6.602   3.043 -1.2854  0.5965  1.8862
  453MOL0     H61150   9.581   6.755   3.088 -2.5768  0.9628  2.3448
  453MOL0     H61151   9.702   6.641   2.909 -1.4317 -3.4015 -0.0278
  453MOL0     H61152   9.638   6.804   2.854  1.6620 -0.5046  0.1582
  453MOL0     H61153   9.471   6.604   2.562  4.3550  0.0280 -2.1831
  453MOL0     H61154   9.043   7.042   2.935  0.7150  0.2434  0.2065
  453MOL0     H61155   8.872   6.993   2.770  0.1045 -1.0553  1.4904
  454MOL0     O61156   6.737   8.513   3.562 -0.0816 -0.4295 -0.3465
  454MOL0     C61157   6.750   8.414   3.637 -0.4558 -0.3672  0.0900
  454MOL0     O61158   6.646   8.333   3.678  0.0179 -0.1076 -0.2372
  454MOL0     C61159   6.526   8.339   3.615 -0.9210 -0.3521  0.8045
  454MOL0     C61160   6.426   8.275   3.690  0.5775 -0.0558 -0.6231
  454MOL0     C61161   6.297   8.268   3.640 -0.5282 -0.2000 -0.1323
  454MOL0     C61162   6.263   8.311   3.513  0.1595  0.1115 -0.3689
  454MOL0     O61163   6.146   8.295   3.451  0.4346 -0.1221 -0.4761
  454MOL0     C61164   6.066   8.176   3.488  0.0941 -0.2617  0.1279
  454MOL0     C61165   5.922   8.211   3.447  0.3123  0.8515 -0.9936
  454MOL0     C61166   5.821   8.097   3.491 -0.7137 -0.4766 -0.1909
  454MOL0     C61167   5.872   7.944   3.486  0.5221  0.3054  0.0113
  454MOL0     C61168   5.747   7.863   3.445  0.0727  0.4814 -0.2919
  454MOL0     C61169   5.766   7.706   3.459 -0.1219 -0.2587 -0.3357
  454MOL0     C61170   5.659   7.623   3.384 -0.4353 -0.0088 -0.3348
  454MOL0     C61171   5.714   7.482   3.348  0.3979 -0.1413  0.3323
  454MOL0     N61172   5.619   7.398   3.275  0.6440 -0.7303  0.1952
  454MOL0     C61173   5.546   7.448   3.166  0.0496 -0.2314  0.3028
  454MOL0     C61174   5.458   7.349   3.131 -0.1132 -0.4436 -0.8499
  454MOL0     C61175   5.350   7.342   3.020 -0.8570 -0.0525  0.1893
  454MOL0     C61176   5.285   7.473   2.982  0.3937  0.3940 -0.5857
  454MOL0     C61177   5.375   7.562   2.897 -0.3175 -1.5678 -0.0311
  454MOL0     C61178   5.287   7.663   2.827 -0.4164 -0.4112  0.3094
  454MOL0     O61179   5.219   7.597   2.721  0.4938  0.3195  0.5324
  454MOL0     C61180   5.102   7.644   2.667 -0.2053  0.3232  0.2023
  454MOL0     C61181   5.038   7.550   2.586  0.4793 -0.1778  0.0186
  454MOL0     C61182   4.910   7.567   2.528  0.6962  0.5362  0.5092
  454MOL0     C61183   4.842   7.452   2.456 -0.7738 -1.2346 -0.4058
  454MOL0     C61184   4.852   7.693   2.533  0.4398 -0.5355 -0.5653
  454MOL0     C61185   4.715   7.717   2.488  0.0255 -0.1328 -1.0292
  454MOL0     O61186   4.622   7.622   2.526  0.1217 -0.5429  0.3049
  454MOL0     C61187   4.507   7.666   2.587 -0.1438  0.8134  0.6611
  454MOL0     C61188   4.487   7.789   2.647  0.6351  0.1465  0.6562
  454MOL0     C61189   4.361   7.817   2.706 -0.7393 -0.3705 -0.5717
  454MOL0     C61190   4.256   7.727   2.714 -0.5801  0.7912  0.4121
  454MOL0     O61191   4.146   7.770   2.772  0.1168 -0.4183 -0.0727
  454MOL0     C61192   4.053   7.666   2.810 -0.7337 -1.0284 -0.2425
  454MOL0     C61193   3.941   7.719   2.896  0.3388 -0.9999 -0.0565
  454MOL0     C61194   3.858   7.837   2.843 -0.5116  0.1903 -0.0933
  454MOL0     C61195   3.744   7.866   2.948  0.4344  0.8584 -0.6141
  454MOL0     C61196   3.684   8.007   2.937  0.5253  0.8010 -0.3020
  454MOL0     C61197   3.574   8.011   3.044  0.6237 -0.1285 -0.3650
  454MOL0     C61198   3.494   8.140   3.037 -0.6182  0.1279  0.3236
  454MOL0     C61199   3.367   8.127   3.120  0.3858 -0.5979 -0.1068
  454MOL0    Cl61200   3.276   8.285   3.097 -0.2317  0.5030  0.3077
  454MOL0     C61201   4.282   7.594   2.667 -0.9156  0.1958  0.2591
  454MOL0     C61202   4.409   7.565   2.608  0.4389  0.2947  0.3233
  454MOL0     O61203   4.696   7.820   2.429  0.3884 -0.2698 -0.9083
  454MOL0     C61204   4.931   7.800   2.592  0.2768 -0.5010  0.3880
  454MOL0     C61205   5.049   7.778   2.663  0.3279  0.1949  0.1579
  454MOL0     N61206   5.472   7.242   3.223 -0.2516  0.0874  0.1450
  454MOL0     N61207   5.562   7.276   3.307 -0.5264  0.2854  0.9290
  454MOL0     C61208   6.370   8.368   3.434 -0.1948  0.4751  0.6422
  454MOL0     C61209   6.501   8.378   3.485 -0.6774 -0.4555 -0.0802
  454MOL0     C61210   6.888   8.398   3.696  1.3018 -0.3141 -0.2798
  454MOL0     C61211   6.996   8.479   3.654  0.3812  0.1709  0.0226
  454MOL0     C61212   7.120   8.465   3.716  0.2414 -0.4094 -0.4565
  454MOL0     C61213   7.148   8.363   3.808 -0.2658 -1.0257  0.4440
  454MOL0     O61214   7.263   8.335   3.869 -0.6729 -0.3817  0.1539
  454MOL0     C61215   7.382   8.384   3.818 -0.7872 -0.0691 -0.0164
  454MOL0     C61216   7.498   8.319   3.889 -0.3014 -0.3941  0.0253
  454MOL0     C61217   7.631   8.395   3.869 -0.5912  0.4863  0.0734
  454MOL0     C61218   7.738   8.371   3.972  0.0036  0.2966 -0.4826
  454MOL0     C61219   7.853   8.461   3.953 -1.1102  0.2203 -0.4865
  454MOL0     C61220   7.947   8.537   3.949  0.0816 -0.2479  0.0670
  454MOL0     C61221   7.037   8.286   3.849  0.3394  0.5521 -1.0377
  454MOL0     C61222   6.913   8.307   3.799  0.1384 -0.8676  0.3698
  454MOL0     H61223   6.446   8.229   3.786 -2.0884 -1.0667 -0.4553
  454MOL0     H61224   6.219   8.252   3.713 -1.5570  0.4377 -1.0544
  454MOL0     H61225   6.099   8.084   3.438  2.5977 -0.8625  2.6384
  454MOL0     H61226   6.068   8.152   3.594  0.5572  1.8900  0.6659
  454MOL0     H61227   5.902   8.305   3.500  3.4594  1.0641  0.0021
  454MOL0     H61228   5.920   8.233   3.340 -1.1732  0.0244 -1.1703
  454MOL0     H61229   5.796   8.112   3.597  1.9460  1.2561  0.2942
  454MOL0     H61230   5.731   8.108   3.430 -0.0936 -4.3848 -2.1684
  454MOL0     H61231   5.944   7.919   3.408  0.7203  0.5382  0.1169
  454MOL0     H61232   5.903   7.922   3.589 -4.6058  0.1472  1.7944
  454MOL0     H61233   5.665   7.887   3.513 -0.1132  1.5035 -0.8555
  454MOL0     H61234   5.727   7.892   3.341  2.0470 -0.9347 -1.1461
  454MOL0     H61235   5.866   7.694   3.416  1.0960  3.7894  0.8948
  454MOL0     H61236   5.771   7.666   3.561  0.2684  1.9287  0.5689
  454MOL0     H61237   5.570   7.602   3.445 -3.4058  0.0726 -4.2224
  454MOL0     H61238   5.638   7.681   3.294 -0.6347 -0.1154 -0.3583
  454MOL0     H61239   5.745   7.427   3.438 -2.6447 -2.0875  0.3366
  454MOL0     H61240   5.801   7.502   3.285 -0.8358  0.9411 -1.0910
  454MOL0     H61241   5.568   7.538   3.110 -2.0155  0.3262  0.3291
  454MOL0     H61242   5.401   7.298   2.933 -1.0163  0.7614 -0.3246
  454MOL0     H61243   5.274   7.270   3.052 -0.6511 -0.3891 -0.0622
  454MOL0     H61244   5.252   7.518   3.076 -2.2959 -0.7528 -0.8845
  454MOL0     H61245   5.194   7.449   2.926 -2.1348  1.0620  2.9060
  454MOL0     H61246   5.423   7.504   2.818 -1.5140  0.4242 -2.3448
  454MOL0     H61247   5.443   7.620   2.959 -0.5212  2.2750 -3.0186
  454MOL0     H61248   5.353   7.742   2.789 -0.0611 -0.7293  0.2601
  454MOL0     H61249   5.219   7.706   2.901 -1.3262  1.2407 -1.3847
  454MOL0     H61250   5.078   7.450   2.573  3.7582  1.3794 -3.8774
  454MOL0     H61251   4.806   7.491   2.360 -1.4793  1.1917  0.7720
  454MOL0     H61252   4.909   7.368   2.433 -1.7017 -1.6337 -1.7890
  454MOL0     H61253   4.753   7.413   2.505 -0.7493 -0.0001  0.6674
  454MOL0     H61254   4.559   7.870   2.648  1.8841 -0.9210  2.2534
  454MOL0     H61255   4.329   7.912   2.747 -0.5014  0.0057 -1.2433
  454MOL0     H61256   4.007   7.625   2.719 -0.6499 -0.2080 -0.6648
  454MOL0     H61257   4.104   7.585   2.863 -3.5735 -1.3071  2.3435
  454MOL0     H61258   3.869   7.637   2.900  1.2337 -1.7656  1.4612
  454MOL0     H61259   3.975   7.743   2.997 -2.9425  1.6807  0.5950
  454MOL0     H61260   3.808   7.800   2.753 -1.6514  0.8568  0.2386
  454MOL0     H61261   3.921   7.921   2.811  0.7674 -0.8406 -0.3485
  454MOL0     H61262   3.675   7.781   2.943 -2.3501  3.0225 -2.0072
  454MOL0     H61263   3.787   7.862   3.049  0.3485 -0.7536 -0.6210
  454MOL0     H61264   3.632   8.017   2.841  1.1958  0.6713 -0.6841
  454MOL0     H61265   3.758   8.086   2.953  2.5627 -0.8504 -1.1137
  454MOL0     H61266   3.511   7.923   3.026  1.9366 -0.9152 -1.2520
  454MOL0     H61267   3.623   8.003   3.141  0.1619 -1.3997 -0.2175
  454MOL0     H61268   3.480   8.166   2.931  0.1738  1.8249  0.5888
  454MOL0     H61269   3.558   8.222   3.072  0.2482 -0.1138 -0.6187
  454MOL0     H61270   3.391   8.128   3.226 -1.4362  1.1680  0.3519
  454MOL0     H61271   3.302   8.045   3.087 -2.1419  1.0031  0.6503
  454MOL0     H61272   4.205   7.517   2.669 -2.6793  1.8369 -0.7661
  454MOL0     H61273   4.427   7.465   2.570  1.5410  0.6548 -0.1518
  454MOL0     H61274   4.887   7.899   2.601 -0.0771 -0.6946  0.8017
  454MOL0     H61275   5.102   7.859   2.712 -0.3127  0.9858 -0.4159
  454MOL0     H61276   6.347   8.414   3.338  0.5203 -0.7795 -0.1486
  454MOL0     H61277   6.575   8.431   3.425 -0.2713  0.2213  0.9890
  454MOL0     H61278   6.992   8.559   3.581 -0.3882 -0.1930 -0.3454
  454MOL0     H61279   7.203   8.528   3.683  1.8139 -2.6510 -1.0008
  454MOL0     H61280   7.377   8.359   3.711  1.2008 -1.8083  0.2433
  454MOL0     H61281   7.391   8.489   3.848  0.7677 -0.9407  2.9143
  454MOL0     H61282   7.505   8.219   3.845 -1.5129  0.5314 -2.4750
  454MOL0     H61283   7.477   8.309   3.996  1.9392  0.7226  0.6288
  454MOL0     H61284   7.617   8.504   3.874  1.6407  0.8563 -0.4859
  454MOL0     H61285   7.684   8.362   3.779  2.2004  0.1691  1.7308
  454MOL0     H61286   7.777   8.271   3.954 -2.1754 -1.2017  2.2727
  454MOL0     H61287   7.697   8.374   4.073 -2.9942 -1.0588 -1.5429
  454MOL0     H61288   8.025   8.608   3.930  0.7756 -1.6152 -2.9829
  454MOL0     H61289   7.056   8.214   3.929 -1.7713 -0.4862 -1.4077
  454MOL0     H61290   6.824   8.250   3.824 -1.6632  0.6052 -2.2144
  455MOL0     O61291   7.485   6.634   3.647  0.4022 -0.6046  0.3383
  455MOL0     C61292   7.487   6.639   3.766  0.5639  0.6170  0.4570
  455MOL0     O61293   7.437   6.542   3.846  0.0008  0.3071 -0.6618
  455MOL0     C61294   7.373   6.441   3.789 -0.5154  0.1676  0.2256
  455MOL0     C61295   7.267   6.458   3.694  0.1092  0.4790 -0.4551
  455MOL0     C61296   7.206   6.342   3.649 -0.1640  0.0484 -0.2626
  455MOL0     C61297   7.253   6.213   3.684  1.0032  0.5555 -0.9178
  455MOL0     O61298   7.193   6.114   3.609  0.4075 -0.1081 -0.3476
  455MOL0     C61299   7.166   5.998   3.688 -0.0698 -0.3073  0.2840
  455MOL0     C61300   7.037   5.915   3.658 -0.1667  0.8553 -0.2908
  455MOL0     C61301   6.927   6.007   3.692  1.4074 -0.2718  0.1809
  455MOL0     C61302   6.784   5.950   3.675  0.0772 -0.4544  0.5303
  455MOL0     C61303   6.676   6.053   3.698 -0.7067 -0.6960 -0.5145
  455MOL0     C61304   6.654   6.143   3.574  0.2547 -0.0215 -0.1461
  455MOL0     C61305   6.548   6.258   3.597  0.7697 -0.3005  0.1258
  455MOL0     C61306   6.523   6.309   3.453 -0.4432 -0.3520  0.4984
  455MOL0     N61307   6.469   6.444   3.464  0.0947  0.8899 -0.4680
  455MOL0     C61308   6.363   6.484   3.537  0.1985 -0.8133 -0.1862
  455MOL0     C61309   6.339   6.612   3.500 -0.7253 -0.8736 -0.3487
  455MOL0     C61310   6.233   6.704   3.561  0.9003 -0.6716  0.0440
  455MOL0     C61311   6.094   6.649   3.539 -0.2960 -0.6476 -1.0293
  455MOL0     C61312   5.985   6.729   3.618 -0.2761 -0.3113  0.3467
  455MOL0     C61313   5.834   6.697   3.574  0.6483 -0.8249 -0.8620
  455MOL0     O61314   5.810   6.712   3.436  0.3944  0.8809 -0.0391
  455MOL0     C61315   5.692   6.654   3.385 -0.4425 -0.2674 -0.7338
  455MOL0     C61316   5.596   6.741   3.329  0.9062 -0.2135 -0.1820
  455MOL0     C61317   5.474   6.685   3.291 -0.9400 -0.4331  0.5925
  455MOL0     C61318   5.360   6.783   3.258  0.3220 -1.1208 -0.5333
  455MOL0     C61319   5.452   6.545   3.298 -0.5228  0.5758  1.6259
  455MOL0     C61320   5.321   6.484   3.247  0.5294 -0.3278  0.6684
  455MOL0     O61321   5.285   6.364   3.304 -0.2809 -0.2197  0.2014
  455MOL0     C61322   5.166   6.311   3.259 -0.2258 -1.0626 -0.2050
  455MOL0     C61323   5.049   6.363   3.315 -0.3737 -0.4575  0.0808
  455MOL0     C61324   4.929   6.304   3.287 -0.2705 -0.5483 -0.7380
  455MOL0     C61325   4.926   6.226   3.168  1.1425  0.2708 -0.0864
  455MOL0     O61326   4.800   6.200   3.114  0.6821  0.1131  0.1468
  455MOL0     C61327   4.775   6.120   2.990 -0.0680 -0.6684 -0.5126
  455MOL0     C61328   4.785   6.215   2.872 -1.0477  0.6682  0.7003
  455MOL0     C61329   4.776   6.142   2.736  0.6919 -0.7000 -0.7061
  455MOL0     C61330   4.827   6.234   2.619 -1.3591 -0.9467 -0.3180
  455MOL0     C61331   4.787   6.177   2.486  0.4801 -0.6365  0.2784
  455MOL0     C61332   4.795   6.275   2.360 -0.3564  0.8932 -0.0417
  455MOL0     C61333   4.732   6.191   2.243 -0.2205 -1.3465 -0.0482
  455MOL0     C61334   4.826   6.082   2.203 -0.1737 -0.0441 -0.4572
  455MOL0    Cl61335   4.809   6.055   2.025 -0.4574  0.0263  0.3788
  455MOL0     C61336   5.044   6.189   3.108 -0.8358 -0.0316  0.2430
  455MOL0     C61337   5.169   6.220   3.154 -0.2044 -0.0737 -0.0201
  455MOL0     O61338   5.252   6.546   3.163  0.1002 -0.0842  0.0381
  455MOL0     C61339   5.551   6.468   3.342  0.4815  0.0906 -0.4061
  455MOL0     C61340   5.669   6.511   3.381 -0.4756  0.5132  0.8399
  455MOL0     N61341   6.432   6.647   3.400  0.1744  0.5303 -0.6052
  455MOL0     N61342   6.511   6.552   3.395 -0.1967 -0.4029  1.1116
  455MOL0     C61343   7.360   6.199   3.772  0.6544 -0.3506  0.1097
  455MOL0     C61344   7.411   6.313   3.834  0.8448  0.3773  0.4050
  455MOL0     C61345   7.559   6.757   3.823  0.0031  0.5133 -1.0122
  455MOL0     C61346   7.634   6.848   3.738 -0.4538  1.3416  0.6318
  455MOL0     C61347   7.701   6.950   3.800 -0.5913 -0.1740  0.1573
  455MOL0     C61348   7.712   6.963   3.938 -0.5021 -0.1653 -0.3998
  455MOL0     O61349   7.795   7.069   3.997  0.3836 -0.1676 -0.2209
  455MOL0     C61350   7.820   7.067   4.134  0.4744 -0.7116 -0.2986
  455MOL0     C61351   7.961   7.136   4.161  0.1538 -0.1584 -0.3238
  455MOL0     C61352   8.000   7.132   4.315  0.2484 -0.0684 -0.5170
  455MOL0     C61353   8.142   7.184   4.344 -0.0506  0.4185 -0.2288
  455MOL0     C61354   8.236   7.094   4.282  0.2714  0.8316  0.4943
  455MOL0     C61355   8.309   7.012   4.233 -0.2778  0.2644  0.3798
  455MOL0     C61356   7.636   6.871   4.016  0.0712 -1.5607 -0.5861
  455MOL0     C61357   7.553   6.774   3.965 -0.6566 -0.4405 -0.8605
  455MOL0     H61358   7.229   6.555   3.665 -0.9851  1.3067  3.2926
  455MOL0     H61359   7.135   6.360   3.569  2.4883 -0.2827 -2.8408
  455MOL0     H61360   7.252   5.941   3.654  0.0621  0.6170 -1.0256
  455MOL0     H61361   7.175   6.020   3.795 -1.4971  4.8212 -0.3542
  455MOL0     H61362   7.025   5.877   3.556 -2.0768  1.2118 -0.2306
  455MOL0     H61363   7.029   5.824   3.716 -4.0201 -0.2607 -2.2327
  455MOL0     H61364   6.943   6.052   3.790  1.5416 -0.4219  0.2272
  455MOL0     H61365   6.935   6.094   3.627  2.1049 -0.3172  0.1984
  455MOL0     H61366   6.774   5.902   3.577  1.1901 -1.9245  1.0984
  455MOL0     H61367   6.766   5.874   3.751  0.8051  0.1826  1.3630
  455MOL0     H61368   6.581   6.001   3.711 -0.7285  0.1546  5.9195
  455MOL0     H61369   6.688   6.104   3.795 -0.9299 -2.2634  0.3741
  455MOL0     H61370   6.748   6.184   3.536 -1.2339 -0.1414 -4.6602
  455MOL0     H61371   6.623   6.084   3.487  1.0217 -0.1567 -0.3381
  455MOL0     H61372   6.453   6.225   3.640  0.6004  0.1847  0.1216
  455MOL0     H61373   6.594   6.337   3.657 -1.9771  0.2629  1.6616
  455MOL0     H61374   6.458   6.245   3.393 -0.3732 -0.5061  0.5858
  455MOL0     H61375   6.624   6.313   3.410  0.2304 -2.4110  1.7521
  455MOL0     H61376   6.305   6.425   3.607  1.3989  0.7017  2.2388
  455MOL0     H61377   6.243   6.717   3.669  0.1853  2.0308 -0.1420
  455MOL0     H61378   6.237   6.805   3.518 -0.7615 -0.7971 -0.4430
  455MOL0     H61379   6.095   6.545   3.574  2.2357 -0.5193 -0.5107
  455MOL0     H61380   6.070   6.650   3.432  0.3414 -1.0251 -1.1826
  455MOL0     H61381   6.000   6.835   3.595 -2.6328 -0.3436 -1.7272
  455MOL0     H61382   6.003   6.718   3.726 -1.2780 -0.3714  0.5140
  455MOL0     H61383   5.774   6.772   3.624  1.1393 -0.4117 -0.8878
  455MOL0     H61384   5.815   6.593   3.603  1.8267 -0.9182 -0.3435
  455MOL0     H61385   5.619   6.847   3.330  2.1312 -0.3480  3.6788
  455MOL0     H61386   5.258   6.748   3.281 -0.9075  1.8413 -1.0158
  455MOL0     H61387   5.375   6.877   3.312 -2.3035 -1.3599  0.7885
  455MOL0     H61388   5.371   6.816   3.155 -0.5383  1.7676  0.1960
  455MOL0     H61389   5.049   6.449   3.382  0.3226  0.0793 -0.5856
  455MOL0     H61390   4.833   6.325   3.331 -1.0350 -0.8031 -2.2245
  455MOL0     H61391   4.851   6.042   2.988  0.7313 -0.0206  1.7723
  455MOL0     H61392   4.671   6.087   2.980 -0.3454  0.7543 -3.2499
  455MOL0     H61393   4.701   6.285   2.874  0.3868  2.4595  0.6743
  455MOL0     H61394   4.881   6.268   2.871  0.0677 -1.2055 -0.7453
  455MOL0     H61395   4.669   6.121   2.726  0.1853  0.2863  2.0055
  455MOL0     H61396   4.822   6.043   2.732 -0.5380 -1.3258  0.1760
  455MOL0     H61397   4.800   6.339   2.634 -1.3998 -1.1810  1.4614
  455MOL0     H61398   4.935   6.230   2.635 -1.3647  0.5049  0.2199
  455MOL0     H61399   4.680   6.153   2.492  0.0762  0.2502 -2.3145
  455MOL0     H61400   4.837   6.083   2.463 -0.5008 -1.8282  2.6344
  455MOL0     H61401   4.739   6.369   2.366  2.0319  2.4506 -0.9499
  455MOL0     H61402   4.902   6.294   2.351  0.3035 -1.1941  2.2766
  455MOL0     H61403   4.730   6.252   2.152  1.4377 -0.0007  0.7703
  455MOL0     H61404   4.634   6.152   2.272 -1.4874  1.0282 -0.9401
  455MOL0     H61405   4.812   5.990   2.260  0.1923 -0.0515 -0.3766
  455MOL0     H61406   4.928   6.114   2.226  1.1646 -3.8570 -0.4936
  455MOL0     H61407   5.039   6.123   3.021  0.7582 -1.2984  1.0572
  455MOL0     H61408   5.261   6.194   3.101 -1.8173 -2.8833 -1.6983
  455MOL0     H61409   5.542   6.360   3.344 -1.1977  0.1669 -1.8512
  455MOL0     H61410   5.742   6.433   3.397  0.4111  0.3067 -3.0990
  455MOL0     H61411   7.410   6.107   3.799 -1.2684 -1.8123 -0.9846
  455MOL0     H61412   7.493   6.307   3.904  0.6224  0.4948  0.6782
  455MOL0     H61413   7.640   6.841   3.630  0.1759  0.2158  0.7246
  455MOL0     H61414   7.762   7.019   3.742 -2.2711  0.6004 -0.7335
  455MOL0     H61415   7.732   7.106   4.186 -0.4172 -4.1667  1.1225
  455MOL0     H61416   7.827   6.964   4.171 -1.3613 -0.8502 -0.2330
  455MOL0     H61417   7.961   7.241   4.131  2.1351 -0.0470 -0.0786
  455MOL0     H61418   8.042   7.082   4.111  0.5431 -0.8175  0.9859
  455MOL0     H61419   7.985   7.029   4.347 -3.0866  0.5449  0.2687
  455MOL0     H61420   7.928   7.196   4.367  1.3363 -2.3180  4.2439
  455MOL0     H61421   8.173   7.171   4.449 -0.6182  2.5679  0.2532
  455MOL0     H61422   8.142   7.291   4.319 -2.6092  0.5805  0.1823
  455MOL0     H61423   8.378   6.937   4.199  1.0759  1.0469  1.3128
  455MOL0     H61424   7.635   6.893   4.123  1.9232  0.3500 -0.9100
  455MOL0     H61425   7.498   6.706   4.030 -0.5513 -0.5349 -0.8685
  456MOL0     O61426  10.168   6.994   6.972 -0.0360  0.1272 -0.2221
  456MOL0     C61427  10.155   6.875   6.982  0.7172 -0.3607 -0.0352
  456MOL0     O61428  10.052   6.803   6.941 -0.4652 -0.5967  0.7755
  456MOL0     C61429   9.943   6.861   6.873 -0.0570  0.3106  0.4440
  456MOL0     C61430   9.955   6.955   6.768 -0.7404  1.1653 -0.2395
  456MOL0     C61431   9.842   7.018   6.722  0.2308 -0.2175 -0.4760
  456MOL0     C61432   9.710   6.971   6.747  0.2452  0.3000 -0.1666
  456MOL0     O61433   9.591   7.024   6.693 -0.8297 -0.2217 -0.2336
  456MOL0     C61434   9.478   6.933   6.678 -0.2144 -0.4549 -0.4910
  456MOL0     C61435   9.500   6.842   6.559  0.4034 -0.4533 -0.1941
  456MOL0     C61436   9.497   6.906   6.421 -0.5015 -0.4852  0.9294
  456MOL0     C61437   9.554   6.808   6.308  0.0531  0.1909  0.1081
  456MOL0     C61438   9.616   6.871   6.184 -0.8443 -0.3890  0.7428
  456MOL0     C61439   9.533   6.977   6.112  0.2555 -0.7408  0.2627
  456MOL0     C61440   9.382   6.951   6.079 -0.2115 -0.8409 -0.3546
  456MOL0     C61441   9.371   6.892   5.938  0.5161 -0.2578 -0.3184
  456MOL0     N61442   9.231   6.906   5.892 -0.1891  0.6535 -0.1762
  456MOL0     C61443   9.165   6.987   5.797 -0.9452  0.3923  0.5714
  456MOL0     C61444   9.044   6.928   5.770 -0.3227  0.3771 -0.4923
  456MOL0     C61445   8.942   6.962   5.667  0.0091 -0.6293 -0.1596
  456MOL0     C61446   8.981   6.895   5.545 -0.0636 -0.8526 -0.3479
  456MOL0     C61447   8.883   6.906   5.427  0.0445 -0.5652  0.0028
  456MOL0     C61448   8.815   7.037   5.392 -0.5807 -0.9001  0.8334
  456MOL0     O61449   8.700   7.069   5.471  0.1678  0.1171  0.6241
  456MOL0     C61450   8.587   6.985   5.480  0.3415 -0.8265  0.0948
  456MOL0     C61451   8.551   6.936   5.610  1.9863 -0.1996 -0.7209
  456MOL0     C61452   8.443   6.850   5.616 -1.1351  0.0069  0.4077
  456MOL0     C61453   8.410   6.793   5.750 -0.3555 -0.0006  0.3751
  456MOL0     C61454   8.368   6.813   5.499 -0.6266  0.6388  0.8834
  456MOL0     C61455   8.246   6.735   5.511  0.6978  0.6123  0.2291
  456MOL0     O61456   8.239   6.609   5.463  0.0339  0.4883  0.2308
  456MOL0     C61457   8.133   6.534   5.517  0.6763  0.0955  1.2141
  456MOL0     C61458   8.165   6.427   5.600  0.3006 -0.0930 -0.0793
  456MOL0     C61459   8.057   6.342   5.624  0.2263 -1.3176  0.3383
  456MOL0     C61460   7.926   6.360   5.574 -0.2439 -0.5697  0.5498
  456MOL0     O61461   7.822   6.271   5.584  0.3653  0.0539  0.6940
  456MOL0     C61462   7.834   6.171   5.681 -0.1301  0.0564 -0.4914
  456MOL0     C61463   7.705   6.098   5.699 -1.2566  0.3735  1.6876
  456MOL0     C61464   7.649   6.037   5.565 -0.0673 -0.2851  0.6027
  456MOL0     C61465   7.534   5.945   5.607 -0.7291  0.3665 -0.6597
  456MOL0     C61466   7.465   5.885   5.487  0.7523 -0.5696 -0.1196
  456MOL0     C61467   7.361   5.774   5.534  0.0511 -0.0525 -0.1573
  456MOL0     C61468   7.290   5.711   5.425 -0.4103 -0.1076  0.1463
  456MOL0     C61469   7.190   5.605   5.470 -0.1026  0.3927  0.1871
  456MOL0    Cl61470   7.261   5.455   5.538  0.4871  0.5362 -0.2714
  456MOL0     C61471   7.907   6.463   5.488  0.1895 -0.6231  0.4021
  456MOL0     C61472   8.013   6.552   5.459 -0.2961  0.6094 -0.0715
  456MOL0     O61473   8.159   6.791   5.578  0.5879  0.1603  0.1274
  456MOL0     C61474   8.417   6.850   5.369  0.4974 -0.0130  0.3584
  456MOL0     C61475   8.522   6.944   5.363 -0.2175  0.0983 -0.1334
  456MOL0     N61476   9.036   6.819   5.845  0.5737  0.0744 -0.4605
  456MOL0     N61477   9.140   6.802   5.904 -0.1075  0.2584  0.3486
  456MOL0     C61478   9.704   6.878   6.847  0.8493  0.6140 -0.7345
  456MOL0     C61479   9.816   6.831   6.918  0.7419 -0.3009 -0.2586
  456MOL0     C61480  10.276   6.809   7.027  0.1999  0.0996 -0.1380
  456MOL0     C61481  10.380   6.886   7.068 -0.1900  0.2514  0.2849
  456MOL0     C61482  10.497   6.819   7.103  0.0692  0.0524 -0.0111
  456MOL0     C61483  10.496   6.678   7.118 -0.5208 -0.2752 -0.2954
  456MOL0     O61484  10.600   6.622   7.183  0.1528  0.3467 -0.2223
  456MOL0     C61485  10.617   6.476   7.195 -0.4553  0.4525 -0.0634
  456MOL0     C61486  10.746   6.429   7.267 -0.7604 -0.7732 -0.2981
  456MOL0     C61487  10.855   6.386   7.173 -0.6956 -0.7000 -0.5540
  456MOL0     C61488  10.992   6.352   7.246 -0.3509 -0.6978  0.1382
  456MOL0     C61489  10.986   6.224   7.308 -0.7396 -0.2450  0.1075
  456MOL0     C61490  10.972   6.117   7.359 -0.4058  0.5888  1.1551
  456MOL0     C61491  10.387   6.601   7.073 -0.0905  0.0427  0.4057
  456MOL0     C61492  10.274   6.673   7.028  0.5694 -0.0840  0.3013
  456MOL0     H61493  10.052   6.992   6.736 -0.2394  0.5902  0.5802
  456MOL0     H61494   9.872   7.102   6.660 -1.5664  2.4637  2.0167
  456MOL0     H61495   9.450   6.881   6.770 -1.5578 -1.2717 -1.3168
  456MOL0     H61496   9.392   6.988   6.637 -0.3570  0.5188  1.0477
  456MOL0     H61497   9.596   6.790   6.569  0.0414 -1.3588 -1.2326
  456MOL0     H61498   9.426   6.761   6.562  1.6365 -1.5939  0.6224
  456MOL0     H61499   9.399   6.941   6.387 -0.0716 -0.7967 -0.7259
  456MOL0     H61500   9.564   6.993   6.421 -1.1733  0.0389  1.0918
  456MOL0     H61501   9.632   6.746   6.353 -1.4212 -1.2664  0.7908
  456MOL0     H61502   9.474   6.743   6.269  1.4392 -1.0462 -0.7931
  456MOL0     H61503   9.707   6.923   6.216 -0.8453 -0.2970  0.5904
  456MOL0     H61504   9.640   6.794   6.110  0.6603  0.3120  0.4758
  456MOL0     H61505   9.544   7.051   6.192  1.4439 -1.7545  1.0703
  456MOL0     H61506   9.594   7.010   6.027 -0.3888 -2.0322 -0.7205
  456MOL0     H61507   9.336   6.893   6.159  1.1592  1.0645  1.9371
  456MOL0     H61508   9.346   7.054   6.076  0.3508 -0.6645 -2.4269
  456MOL0     H61509   9.399   6.786   5.935  3.2781  0.3621  0.6693
  456MOL0     H61510   9.422   6.956   5.865  0.7908 -0.4586 -0.3052
  456MOL0     H61511   9.189   7.070   5.731 -0.8451  1.5991  2.0783
  456MOL0     H61512   8.845   6.922   5.696 -1.7796  2.2603 -1.6938
  456MOL0     H61513   8.940   7.070   5.645 -0.0014 -0.4103  0.8896
  456MOL0     H61514   8.983   6.788   5.564  0.9022 -1.4311 -3.2243
  456MOL0     H61515   9.078   6.930   5.510 -0.5676  0.0839 -0.8763
  456MOL0     H61516   8.790   6.849   5.437 -1.0907  1.4970  1.9294
  456MOL0     H61517   8.927   6.865   5.336 -1.6536 -0.7027 -0.8049
  456MOL0     H61518   8.786   7.039   5.287  0.8822  0.7081  0.4110
  456MOL0     H61519   8.895   7.110   5.404 -0.9943  0.0221 -1.4334
  456MOL0     H61520   8.604   6.962   5.701  1.9377 -0.0360 -0.7391
  456MOL0     H61521   8.328   6.853   5.790 -1.4682 -1.5605  0.5331
  456MOL0     H61522   8.380   6.688   5.743 -2.0667  0.4889  0.1717
  456MOL0     H61523   8.494   6.801   5.821  0.8035 -0.0042 -0.9570
  456MOL0     H61524   8.264   6.410   5.640 -0.1847 -0.4918  0.9847
  456MOL0     H61525   8.107   6.259   5.672  1.5824  0.7132  2.6194
  456MOL0     H61526   7.914   6.097   5.665 -1.5861 -1.6990  0.0642
  456MOL0     H61527   7.861   6.219   5.776 -0.3070  0.4747 -0.6542
  456MOL0     H61528   7.722   6.012   5.763 -0.9461 -0.2931  0.7233
  456MOL0     H61529   7.637   6.176   5.735 -2.6314 -1.0349  2.2121
  456MOL0     H61530   7.726   5.970   5.528  0.7456 -1.2673  3.7479
  456MOL0     H61531   7.622   6.115   5.493 -0.9857 -1.8559 -0.8152
  456MOL0     H61532   7.572   5.858   5.661  0.7962  0.1953 -1.9517
  456MOL0     H61533   7.465   5.995   5.676 -0.2860 -0.8629  0.7450
  456MOL0     H61534   7.540   5.835   5.425 -0.7138  0.5102 -2.9529
  456MOL0     H61535   7.417   5.962   5.427 -0.4330 -2.9634 -2.4529
  456MOL0     H61536   7.418   5.697   5.586 -0.1457 -0.9944 -1.2937
  456MOL0     H61537   7.299   5.821   5.611 -1.3879 -1.9189 -0.1274
  456MOL0     H61538   7.367   5.668   5.360 -1.0494 -0.5931 -0.3031
  456MOL0     H61539   7.234   5.786   5.369 -1.0628  1.2605  2.5127
  456MOL0     H61540   7.125   5.577   5.386 -1.0343  0.6748  0.7981
  456MOL0     H61541   7.130   5.650   5.549 -1.4207 -0.9838  0.0159
  456MOL0     H61542   7.813   6.471   5.435  1.1615  1.3021 -1.1511
  456MOL0     H61543   7.997   6.636   5.391  0.9426  0.6027 -0.3967
  456MOL0     H61544   8.378   6.798   5.282 -1.2079  0.5577  0.7369
  456MOL0     H61545   8.559   6.980   5.267 -0.6532 -0.3263 -0.4674
  456MOL0     H61546   9.609   6.841   6.883  0.7643  0.5920 -0.9788
  456MOL0     H61547   9.807   6.766   7.004  0.4407  3.0040  2.4232
  456MOL0     H61548  10.388   6.994   7.059 -0.1080  0.3169  1.0482
  456MOL0     H61549  10.588   6.864   7.142 -0.9299  2.0709  0.0937
  456MOL0     H61550  10.534   6.430   7.249  1.7892 -2.7585  0.9414
  456MOL0     H61551  10.620   6.432   7.095 -1.0666  1.4423 -0.5345
  456MOL0     H61552  10.720   6.351   7.339 -2.4017 -2.9342 -3.0312
  456MOL0     H61553  10.788   6.521   7.308  0.2848 -0.9754 -0.8726
  456MOL0     H61554  10.878   6.466   7.102 -0.2976 -0.2029  0.1113
  456MOL0     H61555  10.822   6.305   7.108  3.0320 -1.8418 -1.3142
  456MOL0     H61556  11.030   6.439   7.300  0.9278 -1.5062  0.5744
  456MOL0     H61557  11.058   6.327   7.162  0.4498 -1.4678  0.9781
  456MOL0     H61558  10.953   6.021   7.404  1.3470 -1.5733 -2.2775
  456MOL0     H61559  10.377   6.495   7.094  2.4094 -0.0883  1.2952
  456MOL0     H61560  10.181   6.622   7.006  0.9603 -0.2937 -0.9649
  457MOL0     O61561   1.511   4.369   2.251  0.2033 -0.0288 -0.1760
  457MOL0     C61562   1.569   4.297   2.330 -0.1985  0.8488 -0.2705
  457MOL0     O61563   1.519   4.177   2.386 -0.3836 -0.5752  0.2277
  457MOL0     C61564   1.403   4.135   2.321 -0.8440  0.5766  0.2965
  457MOL0     C61565   1.288   4.209   2.294 -0.4622 -0.4929 -0.9627
  457MOL0     C61566   1.184   4.152   2.222  0.1097 -0.2902  0.2440
  457MOL0     C61567   1.186   4.021   2.187 -0.0577 -0.3257  0.4969
  457MOL0     O61568   1.083   3.956   2.131 -0.1481 -0.5606  0.5394
  457MOL0     C61569   0.964   4.024   2.092  0.4986 -0.3805 -0.3489
  457MOL0     C61570   0.888   3.913   2.025  0.1495  0.1305  0.1136
  457MOL0     C61571   0.760   3.970   1.956  0.1039  0.5887  0.6269
  457MOL0     C61572   0.675   3.854   1.909  0.7236  0.0764  0.8116
  457MOL0     C61573   0.533   3.897   1.866  0.1041 -0.4243 -0.2140
  457MOL0     C61574   0.439   3.912   1.988 -1.0384 -0.2970 -0.1528
  457MOL0     C61575   0.297   3.905   1.933  0.4197  0.1911 -0.6146
  457MOL0     C61576   0.240   4.042   1.872  0.2045  1.1574 -0.1001
  457MOL0     N61577   0.141   4.009   1.773  0.4227  0.2787 -0.4190
  457MOL0     C61578   0.043   3.924   1.801  0.7348  0.0289  0.4420
  457MOL0     C61579  -0.019   3.906   1.675 -0.1802 -0.2087 -0.6876
  457MOL0     C61580  -0.145   3.823   1.669 -0.0888  0.0436 -0.2345
  457MOL0     C61581  -0.261   3.864   1.762  0.8643 -0.2277  0.4161
  457MOL0     C61582  -0.358   3.747   1.790 -0.2715  0.1213 -0.0890
  457MOL0     C61583  -0.440   3.784   1.914  0.3344 -0.0253 -0.4097
  457MOL0     O61584  -0.520   3.678   1.972 -0.2736 -0.1141  0.0386
  457MOL0     C61585  -0.629   3.619   1.904 -0.5608  0.7623  0.5300
  457MOL0     C61586  -0.661   3.484   1.947  0.3310  0.1279 -0.2283
  457MOL0     C61587  -0.751   3.400   1.872  0.0877 -0.4362  0.1193
  457MOL0     C61588  -0.779   3.258   1.925 -0.6850 -0.0439  0.5606
  457MOL0     C61589  -0.780   3.452   1.748  0.4983  0.0307  0.3842
  457MOL0     C61590  -0.877   3.372   1.670  0.4209 -0.2057 -0.0391
  457MOL0     O61591  -1.010   3.367   1.714 -0.1978  0.1820 -0.0502
  457MOL0     C61592  -1.105   3.299   1.646  0.4353  0.1849  0.6079
  457MOL0     C61593  -1.100   3.181   1.568 -0.6396  0.4648  0.5602
  457MOL0     C61594  -1.199   3.126   1.480  0.1164  0.8224  0.1749
  457MOL0     C61595  -1.320   3.188   1.480  0.8625 -0.1098  0.2850
  457MOL0     O61596  -1.425   3.142   1.401  0.5682 -0.3351 -0.1443
  457MOL0     C61597  -1.413   3.021   1.323  0.1495 -0.3207 -0.1549
  457MOL0     C61598  -1.546   2.997   1.251 -1.2732  0.1046  0.4409
  457MOL0     C61599  -1.546   2.889   1.142  0.5584 -0.2879  0.0545
  457MOL0     C61600  -1.476   2.945   1.012 -0.3037 -0.1180  0.2961
  457MOL0     C61601  -1.456   2.837   0.907  0.7507 -0.5961 -1.4102
  457MOL0     C61602  -1.420   2.884   0.762  0.3178  0.0498 -0.2605
  457MOL0     C61603  -1.548   2.936   0.690 -0.7630 -0.7093 -0.3091
  457MOL0     C61604  -1.520   2.953   0.539  0.1020 -0.1717  0.7385
  457MOL0    Cl61605  -1.668   2.900   0.455  0.0616 -0.3783  0.1076
  457MOL0     C61606  -1.342   3.294   1.567  0.2213 -0.6573 -0.6828
  457MOL0     C61607  -1.240   3.347   1.654  0.3482 -0.5145  0.0930
  457MOL0     O61608  -0.838   3.333   1.562 -0.3400  0.4971 -0.2155
  457MOL0     C61609  -0.753   3.587   1.711  0.0340 -0.3641  0.7734
  457MOL0     C61610  -0.674   3.668   1.782  0.2394  0.2908 -0.1882
  457MOL0     N61611   0.063   3.955   1.579  0.0043 -0.2257  0.4934
  457MOL0     N61612   0.154   4.025   1.635 -0.4848 -0.2063  0.2974
  457MOL0     C61613   1.294   3.943   2.219  1.1105  0.5804 -0.3306
  457MOL0     C61614   1.403   3.995   2.289 -0.0394  0.0612  0.2029
  457MOL0     C61615   1.706   4.344   2.374  0.4997 -0.5183  0.9664
  457MOL0     C61616   1.772   4.455   2.311 -0.1736  0.1008 -0.0322
  457MOL0     C61617   1.907   4.481   2.343 -0.2171 -0.1468 -0.1443
  457MOL0     C61618   1.975   4.417   2.445  0.0631 -0.4018 -0.3282
  457MOL0     O61619   2.103   4.443   2.469 -0.0937  1.0277 -0.2022
  457MOL0     C61620   2.128   4.548   2.565  0.4201 -0.1814 -0.2893
  457MOL0     C61621   2.107   4.685   2.499  0.1468 -0.2061  0.4188
  457MOL0     C61622   2.209   4.705   2.383 -0.0366 -0.5551 -0.5452
  457MOL0     C61623   2.179   4.831   2.306 -0.1328  0.5222  0.2617
  457MOL0     C61624   2.212   4.951   2.384  0.1991 -0.0962 -0.3287
  457MOL0     C61625   2.217   5.058   2.440 -0.4591  0.2522 -0.1443
  457MOL0     C61626   1.906   4.319   2.521  0.0087  0.2454  0.7381
  457MOL0     C61627   1.782   4.281   2.476  0.0519  0.2636  0.7634
  457MOL0     H61628   1.287   4.313   2.325 -1.7333 -0.4932 -0.9309
  457MOL0     H61629   1.087   4.202   2.220 -1.4212 -3.0641 -1.1059
  457MOL0     H61630   0.909   4.058   2.180  4.7975 -0.5454  2.7815
  457MOL0     H61631   0.995   4.103   2.023  0.7509 -0.8640 -0.8000
  457MOL0     H61632   0.949   3.862   1.950 -1.8410 -0.2341 -1.3224
  457MOL0     H61633   0.866   3.836   2.099  0.3947 -0.2931 -0.2499
  457MOL0     H61634   0.705   4.031   2.029  2.3583 -0.2377  3.2058
  457MOL0     H61635   0.795   4.039   1.879 -2.3454  4.7171  2.8255
  457MOL0     H61636   0.728   3.817   1.821  1.5572 -0.2457  1.4392
  457MOL0     H61637   0.671   3.768   1.977 -1.2399 -1.1507 -0.7399
  457MOL0     H61638   0.539   3.989   1.807  0.2517  1.7568  2.9474
  457MOL0     H61639   0.493   3.818   1.801  1.0704 -2.8683  1.9560
  457MOL0     H61640   0.459   3.826   2.053  2.1315  1.3857  1.3232
  457MOL0     H61641   0.464   4.000   2.048 -0.6955 -0.8992  0.6097
  457MOL0     H61642   0.300   3.820   1.863  1.0943 -0.0650 -0.2872
  457MOL0     H61643   0.226   3.878   2.011  0.2625  2.9888  0.3301
  457MOL0     H61644   0.320   4.099   1.823  1.2589 -0.3401 -0.1653
  457MOL0     H61645   0.193   4.105   1.948  2.4920  3.1082 -0.1793
  457MOL0     H61646  -0.004   3.888   1.892 -0.3683 -0.5520 -0.3320
  457MOL0     H61647  -0.181   3.826   1.566 -1.3952  2.1244  0.2275
  457MOL0     H61648  -0.123   3.718   1.692  0.0801  0.2463  0.5647
  457MOL0     H61649  -0.320   3.941   1.712 -0.4596 -1.5657 -0.1669
  457MOL0     H61650  -0.217   3.891   1.859  1.6489 -1.1511  0.3229
  457MOL0     H61651  -0.295   3.662   1.817 -1.3932 -0.7505 -0.1588
  457MOL0     H61652  -0.423   3.722   1.706 -0.9183 -2.1857  1.0057
  457MOL0     H61653  -0.496   3.874   1.885  0.4113 -0.5022 -2.1513
  457MOL0     H61654  -0.369   3.820   1.989  1.3827 -0.7369 -1.0410
  457MOL0     H61655  -0.607   3.450   2.035  1.0792 -0.6286 -0.9686
  457MOL0     H61656  -0.770   3.254   2.034 -0.4151  1.1770  0.5923
  457MOL0     H61657  -0.880   3.230   1.893 -1.8563  4.0038  0.1383
  457MOL0     H61658  -0.713   3.181   1.885 -1.3831 -0.7581  0.7610
  457MOL0     H61659  -1.005   3.130   1.560 -0.1777  1.2295  1.1566
  457MOL0     H61660  -1.162   3.055   1.407  1.3328  0.9501  0.6405
  457MOL0     H61661  -1.326   3.015   1.256  0.4123  2.2386 -0.1597
  457MOL0     H61662  -1.395   2.948   1.402  2.9030 -0.8363 -1.1490
  457MOL0     H61663  -1.622   2.986   1.329 -0.7666  3.5558  1.6162
  457MOL0     H61664  -1.572   3.087   1.194  0.7247 -0.1727 -1.0303
  457MOL0     H61665  -1.644   2.858   1.105  1.1183 -0.4991 -1.2952
  457MOL0     H61666  -1.496   2.797   1.175  0.7715 -0.9333 -1.9432
  457MOL0     H61667  -1.526   3.031   0.969  2.6770  2.1814  1.0846
  457MOL0     H61668  -1.379   2.974   1.055 -1.1219  2.7129  0.3944
  457MOL0     H61669  -1.542   2.769   0.902 -0.1685 -0.0158  2.7498
  457MOL0     H61670  -1.370   2.779   0.940 -0.6674 -1.6463  0.6612
  457MOL0     H61671  -1.343   2.960   0.776 -0.0719  0.1717  1.5887
  457MOL0     H61672  -1.377   2.799   0.709 -0.4528  0.0870 -0.9585
  457MOL0     H61673  -1.588   3.026   0.737  0.6666 -1.4218  2.4707
  457MOL0     H61674  -1.621   2.856   0.704  0.1079 -1.6626 -1.0952
  457MOL0     H61675  -1.433   2.902   0.497 -0.4851  2.2802 -4.2580
  457MOL0     H61676  -1.510   3.062   0.527 -1.6736  0.0740  1.2280
  457MOL0     H61677  -1.437   3.345   1.574  0.1835 -0.8607  0.4787
  457MOL0     H61678  -1.261   3.428   1.723  3.5564 -1.5024  2.4899
  457MOL0     H61679  -0.800   3.619   1.619  0.4777  1.2750  1.0815
  457MOL0     H61680  -0.647   3.769   1.754 -0.8992  1.0137  1.2015
  457MOL0     H61681   1.298   3.836   2.199  1.5140  0.6225 -0.4913
  457MOL0     H61682   1.482   3.924   2.313  2.6129  2.0840 -1.9440
  457MOL0     H61683   1.727   4.504   2.225 -1.0391 -2.1158 -0.9021
  457MOL0     H61684   1.960   4.547   2.275 -0.7405  0.9429  0.4634
  457MOL0     H61685   2.078   4.536   2.661  0.8250  0.0748 -0.0459
  457MOL0     H61686   2.233   4.551   2.594 -0.0173  1.1856  1.3242
  457MOL0     H61687   2.120   4.767   2.569  2.4337  0.2737 -0.4806
  457MOL0     H61688   2.006   4.689   2.455 -0.7578 -1.0100  2.3097
  457MOL0     H61689   2.201   4.625   2.309 -0.6052  1.5680 -2.9317
  457MOL0     H61690   2.311   4.725   2.419 -0.5692  2.1179 -0.3037
  457MOL0     H61691   2.072   4.840   2.287  0.0393  0.5817 -0.7164
  457MOL0     H61692   2.230   4.831   2.210 -1.2000  2.5234 -0.3634
  457MOL0     H61693   2.225   5.145   2.503 -2.9796  0.2068  0.3271
  457MOL0     H61694   1.960   4.255   2.589 -0.3252 -2.4291 -1.3670
  457MOL0     H61695   1.744   4.195   2.529  0.1707  0.9281  1.9497
  458MOL0     O61696   6.272   2.710  11.076 -0.2680  0.2731 -0.0230
  458MOL0     C61697   6.269   2.825  11.035  0.2675  0.7988  0.8789
  458MOL0     O61698   6.155   2.903  11.026 -0.6530  0.7282 -0.7384
  458MOL0     C61699   6.032   2.865  11.063  0.4629 -0.1500  0.1453
  458MOL0     C61700   5.940   2.944  10.997  0.0701  0.8522  0.8389
  458MOL0     C61701   5.804   2.920  11.020 -0.0665  0.5070  0.5710
  458MOL0     C61702   5.765   2.828  11.126  0.3416  0.0773 -0.0362
  458MOL0     O61703   5.637   2.843  11.157 -0.9999  0.6849 -0.0109
  458MOL0     C61704   5.580   2.739  11.239  0.7300  0.3151  1.1198
  458MOL0     C61705   5.586   2.612  11.165 -0.1460  0.5412  0.6781
  458MOL0     C61706   5.481   2.614  11.054 -1.3621 -0.1421  0.2328
  458MOL0     C61707   5.499   2.495  10.956  1.0026  0.6556 -0.3961
  458MOL0     C61708   5.372   2.441  10.899  0.5452 -0.1914  0.4237
  458MOL0     C61709   5.415   2.357  10.777  0.0477 -0.6631  0.2757
  458MOL0     C61710   5.300   2.304  10.690  0.1793  0.0893 -0.8221
  458MOL0     C61711   5.222   2.422  10.626 -0.1916 -0.0553 -0.3379
  458MOL0     N61712   5.102   2.388  10.545 -0.2325 -0.0591 -0.1508
  458MOL0     C61713   5.016   2.479  10.484  0.0920 -0.5185  1.0765
  458MOL0     C61714   4.934   2.405  10.402  1.0592 -0.2533 -0.6021
  458MOL0     C61715   4.845   2.451  10.293 -0.4231 -0.4843  0.6112
  458MOL0     C61716   4.713   2.369  10.271 -0.1802  0.4651  0.3230
  458MOL0     C61717   4.631   2.429  10.153 -0.5393 -0.4280 -0.4383
  458MOL0     C61718   4.481   2.403  10.171 -0.2880 -1.0702 -0.0053
  458MOL0     O61719   4.414   2.504  10.247 -0.4841 -0.3037 -0.5139
  458MOL0     C61720   4.278   2.492  10.252 -0.3843 -0.2466 -0.0505
  458MOL0     C61721   4.217   2.590  10.330 -0.6048  0.3444 -0.3525
  458MOL0     C61722   4.079   2.593  10.343 -0.3514  0.2647 -0.2378
  458MOL0     C61723   4.022   2.701  10.437  0.1717 -0.2056 -0.8566
  458MOL0     C61724   4.002   2.503  10.272  0.1478  0.6108 -0.5595
  458MOL0     C61725   3.854   2.494  10.278  0.1627 -0.6754  0.6012
  458MOL0     O61726   3.781   2.444  10.170  0.0368 -0.3853 -0.1525
  458MOL0     C61727   3.646   2.463  10.177  0.8852 -0.0089  0.5189
  458MOL0     C61728   3.593   2.588  10.160 -0.7877 -0.8231 -0.5011
  458MOL0     C61729   3.454   2.612  10.169 -0.1205  0.2512 -0.4269
  458MOL0     C61730   3.366   2.504  10.188 -0.0917  0.2606 -0.6185
  458MOL0     O61731   3.234   2.507  10.221 -0.6794 -0.3369 -0.3016
  458MOL0     C61732   3.167   2.631  10.259 -0.3858  1.0883 -0.5233
  458MOL0     C61733   3.016   2.609  10.265 -1.0926 -0.1793 -0.4899
  458MOL0     C61734   2.975   2.511  10.364  0.3745  0.5105  0.1032
  458MOL0     C61735   2.830   2.530  10.407 -0.0068 -0.3281  0.1535
  458MOL0     C61736   2.796   2.488  10.552 -0.1653 -0.0121 -0.4074
  458MOL0     C61737   2.653   2.485  10.581 -0.0716 -0.5197  0.6924
  458MOL0     C61738   2.622   2.422  10.724  0.7386  0.0370  0.4454
  458MOL0     C61739   2.478   2.375  10.751  0.3079 -1.0372  0.0773
  458MOL0    Cl61740   2.368   2.516  10.733 -0.1728  0.3549  0.0086
  458MOL0     C61741   3.420   2.377  10.185 -0.5351  0.3426 -0.1068
  458MOL0     C61742   3.559   2.350  10.184 -0.2986 -0.1912 -0.0508
  458MOL0     O61743   3.801   2.535  10.381  0.1486  0.3761  0.0496
  458MOL0     C61744   4.064   2.407  10.194  0.0963  0.6745 -0.4383
  458MOL0     C61745   4.205   2.390  10.181  0.2380 -0.3409  0.1274
  458MOL0     N61746   4.975   2.274  10.413 -0.2986  0.5870  0.1090
  458MOL0     N61747   5.079   2.264  10.501  0.1540 -0.2299 -0.5042
  458MOL0     C61748   5.864   2.753  11.190 -0.5632 -0.0096 -0.0211
  458MOL0     C61749   5.998   2.763  11.153 -0.3426  0.3767 -0.0944
  458MOL0     C61750   6.395   2.877  10.983  0.9282  0.0793  0.8959
  458MOL0     C61751   6.515   2.796  10.987 -0.1128 -0.0428 -0.2647
  458MOL0     C61752   6.635   2.848  10.941 -0.1015 -0.7063 -0.2825
  458MOL0     C61753   6.648   2.981  10.899  0.3257  0.9761 -0.2915
  458MOL0     O61754   6.776   3.045  10.883  0.1344 -0.2227  0.1545
  458MOL0     C61755   6.896   2.983  10.938 -0.0068  0.1400 -0.9305
  458MOL0     C61756   7.016   3.081  10.914 -0.7521 -0.6239  0.3653
  458MOL0     C61757   7.140   3.005  10.879  0.7827  0.6417  0.6529
  458MOL0     C61758   7.255   3.101  10.853  0.0387 -0.2999  0.2189
  458MOL0     C61759   7.293   3.140  10.989  0.3005  0.1242  0.3024
  458MOL0     C61760   7.342   3.168  11.098 -0.9594  0.1061  0.2740
  458MOL0     C61761   6.539   3.057  10.898  1.2496 -0.7775 -0.1464
  458MOL0     C61762   6.408   3.010  10.930 -0.6137 -0.0645 -0.3851
  458MOL0     H61763   5.980   3.018  10.928  0.4499  0.4436  0.6158
  458MOL0     H61764   5.731   2.988  10.977 -2.4190 -0.5437  2.6749
  458MOL0     H61765   5.613   2.728  11.342 -0.8798 -1.6452  1.4847
  458MOL0     H61766   5.474   2.766  11.240  0.3645 -0.1978 -3.0548
  458MOL0     H61767   5.682   2.584  11.120 -1.5439  0.8939 -2.8674
  458MOL0     H61768   5.550   2.535  11.233  0.0486  0.3814  0.6003
  458MOL0     H61769   5.381   2.599  11.096 -1.7771 -0.0961 -0.7250
  458MOL0     H61770   5.485   2.706  10.996  0.4775 -1.4716 -1.8985
  458MOL0     H61771   5.567   2.533  10.879 -2.5710  1.8127 -3.2572
  458MOL0     H61772   5.538   2.408  11.009 -4.1378 -1.8427 -0.1611
  458MOL0     H61773   5.316   2.377  10.968 -2.4429  1.3963 -0.3298
  458MOL0     H61774   5.315   2.527  10.862  2.5169  0.5758 -0.9471
  458MOL0     H61775   5.475   2.410  10.703 -0.3238 -2.8547 -1.7263
  458MOL0     H61776   5.483   2.275  10.802 -0.3338 -0.8947  0.5650
  458MOL0     H61777   5.345   2.261  10.600  0.6399  0.7017 -0.8935
  458MOL0     H61778   5.238   2.226  10.734 -0.9824 -0.5724 -3.4205
  458MOL0     H61779   5.290   2.483  10.565 -0.1167 -0.7681 -0.9700
  458MOL0     H61780   5.184   2.483  10.708  0.1403  2.9827 -2.2580
  458MOL0     H61781   5.016   2.586  10.502 -1.4715 -0.6337  1.9919
  458MOL0     H61782   4.821   2.554  10.322  0.4361  0.6587 -2.3585
  458MOL0     H61783   4.904   2.452  10.201 -1.3924 -2.6079 -0.0871
  458MOL0     H61784   4.641   2.373  10.354 -3.0548  0.0854 -1.9861
  458MOL0     H61785   4.731   2.266  10.238 -1.9762 -0.1796  1.1961
  458MOL0     H61786   4.673   2.394  10.059 -0.2893  2.4032 -1.4857
  458MOL0     H61787   4.645   2.538  10.147 -1.5798 -0.2816 -0.3800
  458MOL0     H61788   4.467   2.305  10.216  2.8266 -1.3240  0.6670
  458MOL0     H61789   4.447   2.409  10.067  0.3648  0.0522 -0.1778
  458MOL0     H61790   4.265   2.670  10.385 -1.6793  1.5667 -1.1183
  458MOL0     H61791   3.928   2.745  10.403 -0.9235 -2.5734 -1.0539
  458MOL0     H61792   4.008   2.661  10.538 -0.0921  0.9541 -0.4119
  458MOL0     H61793   4.106   2.770  10.436  0.6357 -0.7541 -2.0898
  458MOL0     H61794   3.663   2.668  10.143 -3.2530  0.9618 -3.1291
  458MOL0     H61795   3.420   2.714  10.151  0.9418  0.4536 -1.4391
  458MOL0     H61796   3.206   2.660  10.357 -1.6103 -3.1594  1.4492
  458MOL0     H61797   3.188   2.710  10.187  0.8309  2.9484  1.7236
  458MOL0     H61798   2.978   2.711  10.277 -1.8876 -0.5437  0.1468
  458MOL0     H61799   2.990   2.576  10.164  0.7459  1.3037 -1.5141
  458MOL0     H61800   3.040   2.498  10.450 -1.7187 -0.4691  1.6363
  458MOL0     H61801   2.968   2.415  10.312  2.1601 -0.2924  1.2838
  458MOL0     H61802   2.800   2.635  10.393 -3.5895 -1.0717  1.1224
  458MOL0     H61803   2.776   2.470  10.334  2.3179 -2.8899  0.4079
  458MOL0     H61804   2.854   2.555  10.615  3.3209 -2.1658 -0.9978
  458MOL0     H61805   2.841   2.390  10.574 -0.5528 -0.1566 -0.2459
  458MOL0     H61806   2.619   2.589  10.573  0.2763 -0.5604 -3.1108
  458MOL0     H61807   2.606   2.418  10.509  1.6322  1.7958 -2.8677
  458MOL0     H61808   2.654   2.491  10.802  2.3293 -1.0959  0.8541
  458MOL0     H61809   2.676   2.327  10.733 -0.5642 -0.5959  1.9485
  458MOL0     H61810   2.470   2.317  10.844  0.8092 -0.6189  0.3892
  458MOL0     H61811   2.448   2.303  10.675 -1.1909 -2.2982  1.7692
  458MOL0     H61812   3.354   2.294  10.208  2.0105 -1.6643  0.3111
  458MOL0     H61813   3.598   2.249  10.180  0.2927  0.0126  0.4190
  458MOL0     H61814   4.004   2.336  10.138 -3.2021  1.2929  2.0574
  458MOL0     H61815   4.253   2.315  10.120  2.4862  0.2463  1.0741
  458MOL0     H61816   5.840   2.674  11.260  0.3717  0.2187  0.5811
  458MOL0     H61817   6.063   2.697  11.209 -0.4622 -0.5538 -1.0248
  458MOL0     H61818   6.515   2.693  11.022 -0.2462 -0.6089 -1.8523
  458MOL0     H61819   6.716   2.776  10.950  0.7016  0.2104 -0.1297
  458MOL0     H61820   6.886   2.981  11.047  2.7846 -0.2762 -0.6102
  458MOL0     H61821   6.907   2.882  10.896  1.0191 -0.6693  1.1258
  458MOL0     H61822   7.043   3.146  10.997 -2.1743  1.8233 -0.9602
  458MOL0     H61823   6.994   3.151  10.833  0.8916 -1.6017 -0.9866
  458MOL0     H61824   7.125   2.967  10.777 -1.5728  0.4250  1.0050
  458MOL0     H61825   7.159   2.921  10.946  0.1784  0.9259  1.1918
  458MOL0     H61826   7.250   3.192  10.792  2.0726  2.1314  3.3922
  458MOL0     H61827   7.340   3.042  10.820  2.0209  1.1952  2.3963
  458MOL0     H61828   7.395   3.179  11.191  0.6235 -1.9598 -0.3038
  458MOL0     H61829   6.557   3.161  10.872 -1.4424  0.7626  3.3776
  458MOL0     H61830   6.326   3.078  10.916 -0.3536 -0.2583 -3.5925
  459MOL0     O61831   3.961   6.202   3.591 -0.3424 -0.1400  0.4458
  459MOL0     C61832   4.048   6.259   3.525  0.0363 -0.5471  0.0244
  459MOL0     O61833   4.062   6.249   3.388  0.3698 -0.1500 -0.0387
  459MOL0     C61834   3.979   6.163   3.321 -0.2769 -0.1888  0.8718
  459MOL0     C61835   3.953   6.028   3.364  0.0894  0.1719  0.7795
  459MOL0     C61836   3.875   5.940   3.290  0.4032  0.7403 -0.6382
  459MOL0     C61837   3.828   5.975   3.168  0.0044  0.2476 -0.2361
  459MOL0     O61838   3.740   5.890   3.113  0.3365 -0.0271 -0.2295
  459MOL0     C61839   3.717   5.896   2.971 -0.0344  0.9283 -0.5796
  459MOL0     C61840   3.838   5.858   2.880  0.3120  0.2611 -0.0982
  459MOL0     C61841   3.876   5.713   2.902  0.4485 -0.4825  0.1685
  459MOL0     C61842   4.010   5.681   2.826  0.1724  0.1597  0.0587
  459MOL0     C61843   4.025   5.528   2.792 -0.1956 -0.4600  0.1987
  459MOL0     C61844   4.026   5.436   2.910  0.0238  0.0939 -0.4432
  459MOL0     C61845   4.031   5.295   2.856  1.0913 -0.8082 -0.3030
  459MOL0     C61846   4.027   5.191   2.971 -0.5528 -0.0783  1.0343
  459MOL0     N61847   3.983   5.061   2.911  0.0660 -0.2142 -0.6589
  459MOL0     C61848   3.856   5.012   2.901  0.0538  0.7936  0.2581
  459MOL0     C61849   3.863   4.887   2.861  1.0972 -0.1481 -0.2579
  459MOL0     C61850   3.741   4.806   2.818  0.1661  1.5990  0.2250
  459MOL0     C61851   3.659   4.726   2.920 -0.3557  0.3168 -0.6505
  459MOL0     C61852   3.718   4.586   2.930 -0.0369 -0.2908  0.5251
  459MOL0     C61853   3.664   4.493   3.040 -0.9489 -0.3203 -0.2073
  459MOL0     O61854   3.521   4.476   3.033  0.2003 -0.3797 -0.0662
  459MOL0     C61855   3.445   4.543   3.123 -0.8426 -1.0364  0.0436
  459MOL0     C61856   3.445   4.513   3.258  0.1646 -0.9202 -0.1402
  459MOL0     C61857   3.352   4.559   3.352  0.1058  0.0013 -0.2029
  459MOL0     C61858   3.391   4.531   3.499  0.2450  0.0853 -0.3402
  459MOL0     C61859   3.252   4.652   3.302 -0.8640 -0.2598 -0.5197
  459MOL0     C61860   3.155   4.723   3.388  0.6326 -1.1620 -0.3070
  459MOL0     O61861   3.044   4.772   3.318 -0.1529  0.0623  0.1373
  459MOL0     C61862   2.935   4.803   3.389  0.2184 -0.4763  0.0144
  459MOL0     C61863   2.813   4.731   3.363 -0.0195 -0.7550 -0.4217
  459MOL0     C61864   2.694   4.764   3.426 -0.0551 -0.0213 -0.8456
  459MOL0     C61865   2.688   4.880   3.506 -0.4766 -0.1800  0.6383
  459MOL0     O61866   2.564   4.908   3.564  0.1465 -0.3452  0.4882
  459MOL0     C61867   2.516   5.045   3.542  0.3437 -0.1433 -0.0551
  459MOL0     C61868   2.375   5.058   3.598 -0.1729 -0.9964 -0.8098
  459MOL0     C61869   2.278   4.950   3.551 -0.1731 -0.0470  0.0630
  459MOL0     C61870   2.135   5.002   3.562  0.1014 -0.2679  0.6987
  459MOL0     C61871   2.040   4.898   3.505 -0.4478  0.2661 -0.4264
  459MOL0     C61872   1.896   4.956   3.500  0.3679  1.1982 -0.5202
  459MOL0     C61873   1.881   5.063   3.392  0.2716  0.5261 -0.3368
  459MOL0     C61874   1.737   5.121   3.353  0.3648 -0.1829 -0.6947
  459MOL0    Cl61875   1.645   5.001   3.270  0.3239 -0.0781 -0.3121
  459MOL0     C61876   2.806   4.956   3.525 -0.0861  0.4267 -0.3387
  459MOL0     C61877   2.926   4.918   3.478 -0.3186  0.1278  0.2569
  459MOL0     O61878   3.189   4.751   3.505 -0.7954 -0.2069 -0.4316
  459MOL0     C61879   3.249   4.672   3.164  0.2525 -0.1596  0.2178
  459MOL0     C61880   3.341   4.623   3.075 -1.0248 -0.5417  0.8105
  459MOL0     N61881   3.997   4.853   2.855 -0.1369 -0.2163  0.3896
  459MOL0     N61882   4.064   4.964   2.884 -0.5491  0.1797  0.6579
  459MOL0     C61883   3.861   6.109   3.120  0.2891  0.2279  0.6049
  459MOL0     C61884   3.934   6.195   3.199 -0.5689 -0.5073  0.6510
  459MOL0     C61885   4.144   6.340   3.588 -0.3694 -0.1570  0.1166
  459MOL0     C61886   4.144   6.360   3.723 -0.1846 -0.8710  1.0727
  459MOL0     C61887   4.234   6.449   3.785  0.3921  0.2704  0.0955
  459MOL0     C61888   4.329   6.516   3.712 -0.5405 -0.3380  0.2252
  459MOL0     O61889   4.419   6.616   3.758  0.2447  0.2167  0.0763
  459MOL0     C61890   4.407   6.655   3.892 -0.1545 -1.1634 -0.0811
  459MOL0     C61891   4.508   6.783   3.919 -0.4068  0.0700 -0.1906
  459MOL0     C61892   4.569   6.770   4.068 -0.7586 -0.2871 -0.3747
  459MOL0     C61893   4.639   6.892   4.120  0.3375  0.0337  0.2659
  459MOL0     C61894   4.775   6.907   4.063  0.3957  0.7724 -0.1129
  459MOL0     C61895   4.886   6.933   4.038  0.2675 -0.1339 -0.3399
  459MOL0     C61896   4.334   6.497   3.575  0.5131  0.3813 -0.4500
  459MOL0     C61897   4.251   6.400   3.520  0.0725 -0.3445  0.3641
  459MOL0     H61898   3.988   5.986   3.458  0.8983 -0.7441  0.0898
  459MOL0     H61899   3.853   5.840   3.325 -1.5479  1.3875  0.0803
  459MOL0     H61900   3.647   5.814   2.958  0.2761  0.1152  2.2134
  459MOL0     H61901   3.672   5.989   2.937 -2.3186 -0.8253 -2.7338
  459MOL0     H61902   3.811   5.877   2.775  1.9787 -0.9989 -0.7950
  459MOL0     H61903   3.929   5.913   2.904  2.1267 -3.1711  1.4869
  459MOL0     H61904   3.896   5.691   3.007  0.9827 -1.9896 -0.2315
  459MOL0     H61905   3.798   5.645   2.867 -0.5033 -0.1157  1.5156
  459MOL0     H61906   4.011   5.750   2.741 -0.9683  1.1337  0.7938
  459MOL0     H61907   4.096   5.713   2.887  2.3770  0.9984 -3.2139
  459MOL0     H61908   3.942   5.501   2.725 -1.4704  3.4726 -0.0848
  459MOL0     H61909   4.118   5.512   2.736  0.2558  1.9072  0.1808
  459MOL0     H61910   4.114   5.451   2.973 -1.7783 -1.4148  2.6464
  459MOL0     H61911   3.939   5.454   2.974 -0.8715  2.0271 -2.0983
  459MOL0     H61912   3.952   5.280   2.783  1.5164 -1.3860 -0.6578
  459MOL0     H61913   4.123   5.299   2.796  1.8016  3.4506  0.7759
  459MOL0     H61914   3.942   5.219   3.034 -1.8273  1.5592 -1.2489
  459MOL0     H61915   4.122   5.188   3.027 -0.2079  1.0566  0.5522
  459MOL0     H61916   3.769   5.077   2.899 -0.9455 -0.5269 -0.6550
  459MOL0     H61917   3.669   4.878   2.779  0.4188  2.6335  1.5597
  459MOL0     H61918   3.776   4.737   2.741 -0.9423  1.1596  0.0992
  459MOL0     H61919   3.556   4.714   2.886 -0.9622 -2.1597  1.6593
  459MOL0     H61920   3.668   4.773   3.019 -0.3789  1.3841 -1.1430
  459MOL0     H61921   3.823   4.599   2.957 -1.0503  2.5778  3.8256
  459MOL0     H61922   3.704   4.537   2.833  0.1667  0.1734  0.2614
  459MOL0     H61923   3.692   4.538   3.136 -0.1236  1.0921 -1.0613
  459MOL0     H61924   3.711   4.396   3.021  0.8261  0.5354 -0.3806
  459MOL0     H61925   3.507   4.427   3.281 -1.4326 -1.5885  2.1413
  459MOL0     H61926   3.333   4.450   3.545  1.1107 -0.0296  0.6048
  459MOL0     H61927   3.500   4.516   3.506 -0.0819 -2.5539  0.2682
  459MOL0     H61928   3.380   4.624   3.555  2.0028  0.5655 -0.7171
  459MOL0     H61929   2.805   4.655   3.286 -0.5238  2.3855 -3.7085
  459MOL0     H61930   2.605   4.705   3.409 -0.0741 -0.0608 -0.6121
  459MOL0     H61931   2.581   5.124   3.582 -0.5805  2.0296 -2.5344
  459MOL0     H61932   2.506   5.061   3.435  2.4227 -2.3009 -0.6400
  459MOL0     H61933   2.386   5.042   3.705 -3.6741  1.9886  0.1967
  459MOL0     H61934   2.334   5.159   3.597  3.3432  0.6937  1.6277
  459MOL0     H61935   2.284   4.860   3.614 -0.5547 -0.6584 -0.7583
  459MOL0     H61936   2.303   4.923   3.448  0.1501  2.9245 -0.7115
  459MOL0     H61937   2.104   5.020   3.665  0.6779 -0.2459  0.8710
  459MOL0     H61938   2.123   5.083   3.489 -2.1218 -1.2006 -0.0560
  459MOL0     H61939   2.038   4.811   3.572  1.2230  1.1525  0.8325
  459MOL0     H61940   2.062   4.879   3.399  0.9517  0.0632 -0.1181
  459MOL0     H61941   1.824   4.876   3.480  0.8439  0.7147 -0.3456
  459MOL0     H61942   1.864   4.993   3.597  0.3622  1.4869 -0.6293
  459MOL0     H61943   1.920   5.028   3.297 -0.0397  2.4574 -1.2212
  459MOL0     H61944   1.935   5.154   3.420  0.8119 -0.0121  0.4022
  459MOL0     H61945   1.747   5.214   3.296  0.7387  1.0981  1.3674
  459MOL0     H61946   1.677   5.150   3.439  0.3223  0.4040 -0.9149
  459MOL0     H61947   2.801   5.038   3.596 -3.2488 -2.3655  3.1109
  459MOL0     H61948   3.017   4.975   3.486 -0.8464  0.9309  0.6592
  459MOL0     H61949   3.164   4.723   3.119 -2.1705 -0.1819  4.3263
  459MOL0     H61950   3.342   4.648   2.969 -0.3406 -0.2136  0.8891
  459MOL0     H61951   3.810   6.140   3.030 -3.4044 -1.5148  1.8676
  459MOL0     H61952   3.936   6.298   3.164  3.4555 -0.3950  0.7764
  459MOL0     H61953   4.061   6.313   3.775 -3.0344  0.4617 -1.9146
  459MOL0     H61954   4.219   6.466   3.891  0.6422  1.2892 -0.0189
  459MOL0     H61955   4.308   6.690   3.922  0.1267  0.4582 -0.9493
  459MOL0     H61956   4.432   6.562   3.945 -1.1393 -1.8560 -0.8098
  459MOL0     H61957   4.453   6.877   3.908 -2.7689 -1.2669 -0.6616
  459MOL0     H61958   4.592   6.780   3.849 -2.3415 -0.3002 -2.6525
  459MOL0     H61959   4.637   6.685   4.072 -1.5701 -1.0112 -1.4217
  459MOL0     H61960   4.483   6.749   4.132 -0.0146  1.2478  1.2163
  459MOL0     H61961   4.643   6.870   4.227 -1.1383  1.2906  0.6086
  459MOL0     H61962   4.573   6.978   4.106 -2.5932 -1.7567  2.0882
  459MOL0     H61963   4.977   6.983   4.012 -1.0449  1.3128 -2.4601
  459MOL0     H61964   4.409   6.546   3.515  0.4840 -1.5292 -2.1485
  459MOL0     H61965   4.259   6.394   3.411 -1.4106 -1.7508  0.3147
  460MOL0     O61966   2.020   8.949   9.959  0.6191 -0.4228 -0.5206
  460MOL0     C61967   1.997   8.946  10.078  0.8370  0.5393 -0.0771
  460MOL0     O61968   2.089   8.952  10.174 -0.2514 -0.5078  0.4069
  460MOL0     C61969   2.219   8.972  10.129  0.0226 -0.1757  0.4019
  460MOL0     C61970   2.328   8.888  10.171  0.0307 -0.8978  0.1539
  460MOL0     C61971   2.457   8.920  10.118 -0.7101  0.6462  0.3488
  460MOL0     C61972   2.478   9.039  10.045  0.5093  1.0192 -0.5004
  460MOL0     O61973   2.602   9.056   9.994  0.8526 -0.1284  0.2777
  460MOL0     C61974   2.697   9.085  10.096  0.6004  0.2103  0.1482
  460MOL0     C61975   2.796   9.198  10.041 -0.3818 -0.8177  0.0868
  460MOL0     C61976   2.749   9.344  10.073 -0.5391  0.3676 -0.0796
  460MOL0     C61977   2.644   9.398   9.983  0.5235 -0.9212 -0.1322
  460MOL0     C61978   2.691   9.428   9.842  0.1113  0.9013  1.0263
  460MOL0     C61979   2.582   9.505   9.751 -0.2817  0.4057  0.6574
  460MOL0     C61980   2.469   9.408   9.705  0.3989  0.0612  0.2340
  460MOL0     C61981   2.523   9.333   9.580  0.6778 -0.5839 -0.4095
  460MOL0     N61982   2.419   9.251   9.528 -0.1149 -0.2824  0.4451
  460MOL0     C61983   2.393   9.112   9.549 -0.2207 -0.4041 -1.1347
  460MOL0     C61984   2.284   9.092   9.468 -0.4737  0.0664 -1.2004
  460MOL0     C61985   2.192   8.967   9.472  0.3881  0.1782  0.8990
  460MOL0     C61986   2.174   8.921   9.616 -0.7320  0.4012  0.4903
  460MOL0     C61987   2.065   8.821   9.634  0.2665  0.1627 -0.3755
  460MOL0     C61988   1.929   8.897   9.631  0.9995  0.4759 -1.1473
  460MOL0     O61989   1.817   8.799   9.639  0.4883 -0.2673 -0.7799
  460MOL0     C61990   1.696   8.855   9.681  0.6569 -1.1122  0.6259
  460MOL0     C61991   1.638   8.983   9.647 -0.3844  0.6107  0.2655
  460MOL0     C61992   1.515   9.028   9.699  0.3369  0.5291  1.2599
  460MOL0     C61993   1.455   9.170   9.662 -0.1579  0.7084  0.4521
  460MOL0     C61994   1.440   8.944   9.790 -0.5979 -0.4391 -0.0324
  460MOL0     C61995   1.311   8.985   9.851 -0.0280  0.4828 -0.2981
  460MOL0     O61996   1.300   8.943   9.982  0.2294 -0.2315  0.7956
  460MOL0     C61997   1.179   8.956  10.040  0.1167 -0.8530  0.4167
  460MOL0     C61998   1.140   9.078  10.104  0.6919  0.4855  0.7629
  460MOL0     C61999   1.005   9.081  10.154 -0.1811 -0.4274 -0.6134
  460MOL0     C62000   0.922   8.960  10.162  0.3516 -0.1509 -1.6053
  460MOL0     O62001   0.794   8.961  10.205  0.1262  0.5007 -0.3363
  460MOL0     C62002   0.729   9.091  10.200  0.1668 -0.1637 -0.3220
  460MOL0     C62003   0.570   9.091  10.221 -0.0847  0.7117  0.3762
  460MOL0     C62004   0.502   9.165  10.108  0.5880 -0.2985 -0.1448
  460MOL0     C62005   0.347   9.151  10.095 -0.7390 -0.2663 -0.0254
  460MOL0     C62006   0.302   9.214   9.962 -0.0854  0.8240  0.3386
  460MOL0     C62007   0.142   9.220   9.970  0.5307  0.0547  0.8329
  460MOL0     C62008   0.065   9.091   9.934  0.3645 -0.4308  0.9325
  460MOL0     C62009  -0.088   9.109   9.926 -0.0661  0.2616  0.9428
  460MOL0    Cl62010  -0.139   9.197   9.783  0.2748 -0.2338  0.0971
  460MOL0     C62011   0.973   8.839  10.107  0.7298 -0.0624 -1.4858
  460MOL0     C62012   1.095   8.843  10.040  0.5440 -0.6591 -0.4238
  460MOL0     O62013   1.218   9.019   9.782  0.1315 -0.3788  0.1435
  460MOL0     C62014   1.491   8.820   9.822 -0.1659 -0.1370 -0.3120
  460MOL0     C62015   1.614   8.786   9.771  0.4218  0.2553  0.6026
  460MOL0     N62016   2.265   9.205   9.383 -0.8220 -0.3964 -0.5765
  460MOL0     N62017   2.354   9.295   9.413 -0.2405  0.0578 -0.2705
  460MOL0     C62018   2.369   9.118  10.013  0.0676  0.3155  0.0121
  460MOL0     C62019   2.245   9.092  10.060 -0.9631  0.2443  0.4276
  460MOL0     C62020   1.860   8.957  10.131 -0.4249 -0.1385  0.0728
  460MOL0     C62021   1.750   8.976  10.049  0.6502 -0.2492 -0.2159
  460MOL0     C62022   1.619   8.992  10.098  0.8453 -0.9389 -0.0252
  460MOL0     C62023   1.597   9.012  10.235 -0.1954 -0.1867 -0.2454
  460MOL0     O62024   1.467   9.044  10.281 -0.6981 -1.0494 -0.0118
  460MOL0     C62025   1.444   9.104  10.417 -0.6158  0.8932 -0.3532
  460MOL0     C62026   1.350   9.030  10.502  0.2518  0.3815  0.2727
  460MOL0     C62027   1.198   9.047  10.485  0.3782  0.4309 -0.3317
  460MOL0     C62028   1.116   9.003  10.611  0.2824  0.6173  0.3695
  460MOL0     C62029   0.975   9.031  10.589  0.2999 -0.3127 -0.3488
  460MOL0     C62030   0.860   9.050  10.545 -0.9880  0.0138 -0.5680
  460MOL0     C62031   1.708   8.996  10.320 -0.4435 -0.4198  0.9308
  460MOL0     C62032   1.840   8.964  10.273  1.4135 -0.4109  0.1994
  460MOL0     H62033   2.291   8.803  10.229  1.4741  0.1035  2.7289
  460MOL0     H62034   2.533   8.843  10.129 -1.5052 -0.2075 -0.0148
  460MOL0     H62035   2.648   9.114  10.189 -2.7212 -0.4779 -1.2142
  460MOL0     H62036   2.759   8.997  10.114  3.3546  1.9084 -0.4832
  460MOL0     H62037   2.882   9.167  10.101  0.1290 -0.4807 -0.4585
  460MOL0     H62038   2.818   9.191   9.934  1.5513 -0.2517  0.4018
  460MOL0     H62039   2.717   9.355  10.177  2.2616  3.0852  0.6496
  460MOL0     H62040   2.834   9.413  10.066  0.6292 -1.0285 -0.1703
  460MOL0     H62041   2.570   9.318   9.987 -0.1440 -0.4208 -1.7878
  460MOL0     H62042   2.599   9.488  10.025  0.1246 -0.2987 -1.8318
  460MOL0     H62043   2.780   9.491   9.852 -0.0123  1.8194 -2.3532
  460MOL0     H62044   2.718   9.337   9.786 -0.6151  2.1846 -1.5918
  460MOL0     H62045   2.540   9.580   9.819 -1.7461 -0.2309  0.4930
  460MOL0     H62046   2.622   9.550   9.659 -0.4483 -1.6230 -0.4531
  460MOL0     H62047   2.444   9.336   9.784 -0.0657 -0.4493 -0.3680
  460MOL0     H62048   2.373   9.455   9.681 -0.5932 -1.3509  1.2671
  460MOL0     H62049   2.613   9.273   9.596 -1.5640 -4.7802 -1.9165
  460MOL0     H62050   2.543   9.407   9.501  0.5026  1.1323  1.0824
  460MOL0     H62051   2.437   9.039   9.616 -2.6241 -0.2186  0.7871
  460MOL0     H62052   2.094   8.996   9.433 -0.1817  2.4357  3.7073
  460MOL0     H62053   2.239   8.887   9.413  0.9993  1.5094 -0.4733
  460MOL0     H62054   2.156   9.010   9.677  0.8631  0.5263  0.8146
  460MOL0     H62055   2.263   8.868   9.653  0.3102  0.8623 -1.2368
  460MOL0     H62056   2.077   8.769   9.729  3.6429 -1.5944 -1.6149
  460MOL0     H62057   2.069   8.745   9.556 -2.5366  1.8661 -2.3381
  460MOL0     H62058   1.917   8.959   9.542  2.2347  0.9484 -1.0089
  460MOL0     H62059   1.925   8.967   9.715  1.0541 -1.3722  0.4695
  460MOL0     H62060   1.696   9.048   9.582 -0.8215  1.1661  0.4243
  460MOL0     H62061   1.529   9.220   9.598  1.7436 -0.3525  1.7148
  460MOL0     H62062   1.361   9.166   9.606  0.6424  0.8685 -0.9727
  460MOL0     H62063   1.445   9.218   9.760  0.0625 -0.8645  1.2782
  460MOL0     H62064   1.212   9.159  10.114  1.7929 -0.6761  2.8836
  460MOL0     H62065   0.971   9.173  10.200 -1.7761 -0.7614 -1.0541
  460MOL0     H62066   0.775   9.146  10.283  0.0824 -1.4939  0.6320
  460MOL0     H62067   0.754   9.150  10.111 -1.6440 -0.5767 -1.1457
  460MOL0     H62068   0.527   8.990  10.225 -4.8494  2.3762 -1.1513
  460MOL0     H62069   0.549   9.143  10.315  0.1581 -0.0428  0.8581
  460MOL0     H62070   0.543   9.136  10.011  3.0615  1.3715  0.3053
  460MOL0     H62071   0.523   9.272  10.118 -0.5017 -0.1215  0.4157
  460MOL0     H62072   0.328   9.043  10.094  2.5640 -0.9348 -0.3806
  460MOL0     H62073   0.290   9.202  10.174  1.2245  0.8586  0.7350
  460MOL0     H62074   0.338   9.166   9.870 -1.4442 -1.1958  0.7949
  460MOL0     H62075   0.330   9.320   9.957  0.0022  0.8313  0.9627
  460MOL0     H62076   0.097   9.262  10.060 -1.9064  1.5942 -0.9694
  460MOL0     H62077   0.112   9.291   9.892 -0.9425  0.3672  1.6392
  460MOL0     H62078   0.082   9.012  10.007 -2.8833  0.6516  3.0609
  460MOL0     H62079   0.107   9.054   9.840  1.3226  0.0287  1.1651
  460MOL0     H62080  -0.135   9.150  10.016 -1.2525 -2.0363  1.4570
  460MOL0     H62081  -0.131   9.009   9.912  2.5319 -0.8313  0.0827
  460MOL0     H62082   0.910   8.750  10.109 -2.5998  2.1406 -1.0156
  460MOL0     H62083   1.137   8.749  10.005  0.8593 -1.3876  1.7461
  460MOL0     H62084   1.449   8.752   9.896 -1.8557  0.5478 -0.6030
  460MOL0     H62085   1.658   8.690   9.796  1.8424  0.0291 -2.3561
  460MOL0     H62086   2.383   9.209   9.954  1.8021  0.4318  0.5262
  460MOL0     H62087   2.167   9.164  10.039 -1.2637 -0.6714 -1.8906
  460MOL0     H62088   1.756   8.959   9.942  0.1514  3.5583 -0.9648
  460MOL0     H62089   1.531   9.015  10.039 -1.0380 -0.1943  2.8620
  460MOL0     H62090   1.534   9.128  10.473 -0.8616  0.6990  0.1298
  460MOL0     H62091   1.393   9.201  10.410 -2.3413  0.1720  1.4297
  460MOL0     H62092   1.382   9.042  10.606 -1.0810 -1.4708  0.9560
  460MOL0     H62093   1.380   8.927  10.480 -1.7700  0.0154 -1.0249
  460MOL0     H62094   1.153   8.985  10.407 -3.3447  1.6868  0.5995
  460MOL0     H62095   1.171   9.152  10.471 -2.5864 -0.4706 -2.2046
  460MOL0     H62096   1.151   9.053  10.702 -0.5758  0.0005  1.0514
  460MOL0     H62097   1.136   8.897  10.629  1.2358  0.6810 -0.2143
  460MOL0     H62098   0.761   9.079  10.518 -0.4181  0.8543 -1.8741
  460MOL0     H62099   1.686   9.002  10.426 -1.7996  0.6014  0.6162
  460MOL0     H62100   1.931   8.958  10.332  2.4216 -2.8701 -1.4349
  461MOL0     O62101   0.420   9.973   2.156  0.1104  0.3033 -0.0408
  461MOL0     C62102   0.459   9.959   2.043 -0.0715  0.4554  0.3677
  461MOL0     O62103   0.378   9.961   1.935  0.4337 -0.3876  0.1685
  461MOL0     C62104   0.243  10.001   1.957 -0.0962  1.0426  0.9028
  461MOL0     C62105   0.136   9.920   1.906 -0.4680  0.1880 -0.9808
  461MOL0     C62106  -0.000   9.957   1.921 -0.5979 -0.6570 -0.3092
  461MOL0     C62107  -0.032  10.077   1.990 -0.4835 -0.0081  0.2907
  461MOL0     O62108  -0.161  10.128   2.014  0.3298  0.1227 -0.1146
  461MOL0     C62109  -0.279  10.050   1.973  0.6257 -0.4255 -0.2248
  461MOL0     C62110  -0.404  10.131   2.001  1.5441  0.0630 -0.4550
  461MOL0     C62111  -0.403  10.283   1.965  0.3421 -0.4138  0.1696
  461MOL0     C62112  -0.372  10.287   1.812  0.5053 -0.8172 -0.3462
  461MOL0     C62113  -0.430  10.426   1.776  0.1289 -0.0319  0.5791
  461MOL0     C62114  -0.382  10.467   1.637 -0.0974 -0.2584 -0.1811
  461MOL0     C62115  -0.374  10.618   1.624 -0.1862 -0.6175  0.6473
  461MOL0     C62116  -0.326  10.676   1.486 -0.0247 -0.3271 -0.1155
  461MOL0     N62117  -0.190  10.660   1.452  0.3389 -0.4330  0.4527
  461MOL0     C62118  -0.086  10.720   1.528  0.2846 -0.1689  0.2718
  461MOL0     C62119   0.020  10.679   1.459 -0.4354 -0.8516  0.6991
  461MOL0     C62120   0.164  10.706   1.475  0.2108  0.6148 -0.2203
  461MOL0     C62121   0.218  10.846   1.439 -0.1747  1.0741  0.6027
  461MOL0     C62122   0.143  10.958   1.528 -0.4269 -0.3036  0.1492
  461MOL0     C62123   0.168  10.952   1.682  0.7093 -0.3308  0.2799
  461MOL0     O62124   0.096  11.049   1.758  0.6428 -0.1851  0.6814
  461MOL0     C62125   0.143  11.177   1.760  0.8614  0.0905 -0.0919
  461MOL0     C62126   0.260  11.218   1.701 -0.3564 -0.0955 -0.6654
  461MOL0     C62127   0.287  11.362   1.702 -0.4268  0.9346  0.6064
  461MOL0     C62128   0.427  11.402   1.647 -0.2672  0.2443  0.5346
  461MOL0     C62129   0.193  11.460   1.756 -0.0749  0.0945  1.0243
  461MOL0     C62130   0.224  11.605   1.768 -0.2681 -0.4128  0.0923
  461MOL0     O62131   0.363  11.641   1.755  0.2138  0.6638  0.2948
  461MOL0     C62132   0.397  11.764   1.805 -0.2987  1.1152  0.5017
  461MOL0     C62133   0.343  11.883   1.754  0.3796  0.5176 -0.0250
  461MOL0     C62134   0.386  12.009   1.786  0.3334  0.2528 -0.4628
  461MOL0     C62135   0.495  12.020   1.878 -0.1943 -0.6852 -0.7611
  461MOL0     O62136   0.550  12.135   1.902 -0.3123 -0.5179  0.2105
  461MOL0     C62137   0.588  12.218   1.787 -0.6858 -0.6918 -0.1507
  461MOL0     C62138   0.741  12.236   1.768  0.2285  0.2513  0.0268
  461MOL0     C62139   0.796  12.308   1.894 -0.1824 -0.7787  0.8015
  461MOL0     C62140   0.949  12.310   1.895 -0.4318  0.0388 -0.8666
  461MOL0     C62141   0.989  12.376   2.032  0.2107  0.3426 -0.2940
  461MOL0     C62142   1.137  12.372   2.048 -0.7343  0.4586  0.0771
  461MOL0     C62143   1.193  12.463   2.156 -0.2750 -0.7230  0.1924
  461MOL0     C62144   1.346  12.464   2.168 -0.6089 -0.1308  1.0995
  461MOL0    Cl62145   1.411  12.300   2.208 -0.1343 -0.1837  0.3861
  461MOL0     C62146   0.542  11.906   1.937 -0.5215  0.6358 -0.6519
  461MOL0     C62147   0.498  11.773   1.902 -0.9070 -0.1657  0.2312
  461MOL0     O62148   0.132  11.679   1.809  0.2764  0.3545 -0.6614
  461MOL0     C62149   0.077  11.404   1.814 -0.3533 -0.3152  0.1843
  461MOL0     C62150   0.052  11.271   1.819  0.0758  1.1628  0.7246
  461MOL0     N62151  -0.009  10.576   1.375 -0.2541 -0.0079 -0.0802
  461MOL0     N62152  -0.139  10.570   1.366 -0.7886 -1.0711 -0.1429
  461MOL0     C62153   0.082  10.155   2.032  0.1559 -0.6703  0.3728
  461MOL0     C62154   0.212  10.123   2.015 -0.0858 -0.8396  0.0601
  461MOL0     C62155   0.604   9.955   2.033  0.6934  0.5203  0.3606
  461MOL0     C62156   0.684   9.979   2.136 -0.6997 -0.5327 -1.4099
  461MOL0     C62157   0.824   9.991   2.111 -0.0954 -0.6720  0.5460
  461MOL0     C62158   0.882   9.951   1.988  1.4298 -0.9805 -1.0059
  461MOL0     O62159   1.013   9.971   1.963  0.0870  0.2087 -0.0943
  461MOL0     C62160   1.109  10.038   2.048  0.1820 -0.8877 -0.1772
  461MOL0     C62161   1.234  10.050   1.959  0.3404  0.0353  0.3981
  461MOL0     C62162   1.202  10.127   1.822 -0.5810 -0.1294 -0.9259
  461MOL0     C62163   1.160  10.278   1.834  0.5670  0.2981  0.0968
  461MOL0     C62164   1.147  10.330   1.700 -0.2042  0.3944  0.0293
  461MOL0     C62165   1.132  10.376   1.586  0.3368 -1.0186  0.3995
  461MOL0     C62166   0.800   9.915   1.888 -0.3770  0.4978 -0.1664
  461MOL0     C62167   0.660   9.907   1.914  0.5703 -0.2692 -0.1550
  461MOL0     H62168   0.155   9.826   1.856  0.5807  0.1109 -0.4640
  461MOL0     H62169  -0.074   9.892   1.874 -0.1975 -0.2919 -1.4540
  461MOL0     H62170  -0.274  10.028   1.866  0.4788 -1.4389 -0.0339
  461MOL0     H62171  -0.281   9.955   2.028  0.0278 -0.0897  0.3392
  461MOL0     H62172  -0.482  10.075   1.949  1.3799 -1.2659  1.1258
  461MOL0     H62173  -0.428  10.136   2.107 -1.0452 -2.4521 -0.8047
  461MOL0     H62174  -0.495  10.334   1.997  0.2136 -0.8238  0.4603
  461MOL0     H62175  -0.324  10.337   2.018  1.2799 -0.8946 -0.7059
  461MOL0     H62176  -0.264  10.280   1.796  0.4623  1.9889 -2.7505
  461MOL0     H62177  -0.431  10.214   1.756 -1.0174 -1.2823  1.7312
  461MOL0     H62178  -0.538  10.412   1.782  0.4360 -2.1111  2.7508
  461MOL0     H62179  -0.407  10.498   1.855  1.8311 -1.8052  1.7875
  461MOL0     H62180  -0.281  10.429   1.622 -0.1039  0.0816 -1.1092
  461MOL0     H62181  -0.440  10.430   1.552  0.2652  0.3745 -0.7149
  461MOL0     H62182  -0.468  10.668   1.651  1.5661  2.8020  1.0779
  461MOL0     H62183  -0.291  10.659   1.683 -1.6011  0.8829  1.7035
  461MOL0     H62184  -0.349  10.783   1.487  0.3593 -0.2241 -1.1040
  461MOL0     H62185  -0.393  10.636   1.410 -1.1904  1.3295 -0.0254
  461MOL0     H62186  -0.088  10.795   1.606  3.9405 -0.1829  0.5313
  461MOL0     H62187   0.189  10.674   1.576 -2.2634  2.9149  1.2711
  461MOL0     H62188   0.222  10.644   1.406  0.3554  1.8159 -1.2099
  461MOL0     H62189   0.193  10.868   1.335  0.5890  0.7581  0.3457
  461MOL0     H62190   0.325  10.863   1.453  0.3638 -1.4582  0.1190
  461MOL0     H62191   0.034  10.955   1.522 -0.4045 -2.4385 -0.2322
  461MOL0     H62192   0.175  11.054   1.487 -2.2962  0.2043 -0.1974
  461MOL0     H62193   0.272  10.929   1.709  1.1687 -0.8367 -1.7550
  461MOL0     H62194   0.118  10.857   1.704  0.0785 -1.0198 -3.5654
  461MOL0     H62195   0.329  11.150   1.653 -0.3846 -1.9226  1.6773
  461MOL0     H62196   0.495  11.413   1.732 -1.3109  0.2408  1.3878
  461MOL0     H62197   0.469  11.319   1.589  0.4780  0.4355  0.7830
  461MOL0     H62198   0.421  11.491   1.584 -0.7499 -0.4601 -0.4443
  461MOL0     H62199   0.258  11.870   1.688  0.5605 -1.8219  0.1287
  461MOL0     H62200   0.325  12.092   1.752 -0.5484 -0.2785 -0.2239
  461MOL0     H62201   0.557  12.182   1.689  0.1409  4.2877 -2.5675
  461MOL0     H62202   0.539  12.315   1.798  1.4009  0.5556 -1.1044
  461MOL0     H62203   0.771  12.136   1.738 -3.7165 -0.6006 -1.7707
  461MOL0     H62204   0.753  12.304   1.683  0.7226 -0.3976 -0.4284
  461MOL0     H62205   0.764  12.255   1.985 -0.1568  0.0273  1.2856
  461MOL0     H62206   0.743  12.402   1.906 -0.0016 -0.3456 -1.4498
  461MOL0     H62207   0.986  12.208   1.882  2.8010  0.8704  0.7540
  461MOL0     H62208   0.991  12.384   1.826  0.5266  0.7939  0.4842
  461MOL0     H62209   0.940  12.323   2.115  1.8884  2.8874  2.5412
  461MOL0     H62210   0.956  12.480   2.036  1.9177  0.8826  2.5762
  461MOL0     H62211   1.150  12.267   2.077  3.7789  1.1118  1.2544
  461MOL0     H62212   1.186  12.387   1.951  1.8942 -3.4204  0.5697
  461MOL0     H62213   1.144  12.440   2.251 -3.4232 -1.8703 -1.5413
  461MOL0     H62214   1.174  12.569   2.137  0.5270 -0.8161 -1.2954
  461MOL0     H62215   1.373  12.535   2.247  1.5561  0.3488  0.0226
  461MOL0     H62216   1.397  12.503   2.079 -1.9732 -0.9832 -0.1172
  461MOL0     H62217   0.617  11.920   2.014 -3.0924 -0.0964  2.1269
  461MOL0     H62218   0.534  11.686   1.957  2.9709  0.5636 -0.8549
  461MOL0     H62219   0.007  11.470   1.865 -0.0029  0.9790 -0.9316
  461MOL0     H62220  -0.032  11.234   1.877  0.3064 -1.3305 -0.4112
  461MOL0     H62221   0.053  10.248   2.081  3.8600  1.8199 -1.6468
  461MOL0     H62222   0.277  10.200   2.055  1.3376 -1.5280 -0.8282
  461MOL0     H62223   0.655  10.002   2.238  1.8257  0.4310 -0.8226
  461MOL0     H62224   0.879  10.030   2.196 -4.4491  0.8683  2.9876
  461MOL0     H62225   1.080  10.137   2.083 -1.6096 -0.9070 -1.4868
  461MOL0     H62226   1.131   9.976   2.135  3.5737 -0.2907 -0.4652
  461MOL0     H62227   1.273   9.948   1.943  0.3032 -1.1198  5.7686
  461MOL0     H62228   1.316  10.102   2.010  0.4359 -0.1939  0.4808
  461MOL0     H62229   1.117  10.077   1.775 -1.3816  0.3985 -0.0825
  461MOL0     H62230   1.289  10.120   1.756 -0.0447  0.7318 -0.3434
  461MOL0     H62231   1.237  10.327   1.895 -1.2225  0.4823  2.3369
  461MOL0     H62232   1.067  10.295   1.889  1.2605  1.2426  1.0298
  461MOL0     H62233   1.137  10.402   1.482 -0.4071 -2.3197  0.0187
  461MOL0     H62234   0.840   9.895   1.789 -2.1492  1.2556 -1.0838
  461MOL0     H62235   0.594   9.891   1.830  0.0231  2.9084 -0.4884
  462MOL0     O62236   6.367   8.092   8.987 -0.1399  0.5112  0.3673
  462MOL0     C62237   6.439   8.100   8.887 -0.2363 -0.4136  0.2501
  462MOL0     O62238   6.391   8.101   8.758  0.1335 -0.4871  0.3762
  462MOL0     C62239   6.258   8.134   8.739  0.5312 -0.4246  0.2995
  462MOL0     C62240   6.172   8.064   8.645  0.0331  0.3807 -0.4032
  462MOL0     C62241   6.041   8.105   8.615 -0.4227 -0.0382 -0.0198
  462MOL0     C62242   5.986   8.222   8.674  0.1016  0.0583 -0.3873
  462MOL0     O62243   5.858   8.245   8.636 -0.0199 -0.2393  0.2602
  462MOL0     C62244   5.783   8.349   8.713 -0.2811  0.3341 -0.9739
  462MOL0     C62245   5.643   8.303   8.720 -0.7010 -0.3628  0.4287
  462MOL0     C62246   5.565   8.405   8.793  0.4724  0.0885 -0.0383
  462MOL0     C62247   5.515   8.516   8.710 -0.3242  0.0415  0.2652
  462MOL0     C62248   5.544   8.663   8.772  0.0077  0.1575  0.4813
  462MOL0     C62249   5.537   8.769   8.662 -0.8688 -0.1420  0.3058
  462MOL0     C62250   5.400   8.786   8.600  0.2184 -0.9626  0.0498
  462MOL0     C62251   5.405   8.923   8.535 -0.4242  0.2130  0.3270
  462MOL0     N62252   5.277   8.957   8.467  0.3181 -0.3703  0.1519
  462MOL0     C62253   5.245   8.907   8.348 -0.3518  0.6010 -0.9278
  462MOL0     C62254   5.117   8.927   8.336 -0.5355  0.1856  0.4889
  462MOL0     C62255   5.035   8.891   8.217  0.4001 -1.1470 -0.4510
  462MOL0     C62256   5.053   8.993   8.108  0.4505  0.4426 -0.2624
  462MOL0     C62257   4.963   8.981   7.978  0.5409 -0.1607  0.4060
  462MOL0     C62258   5.007   9.100   7.893  0.4039  0.5192  0.2747
  462MOL0     O62259   4.974   9.064   7.759 -0.0873  0.2093  0.0555
  462MOL0     C62260   4.850   9.090   7.707 -0.8290  0.7449 -0.7963
  462MOL0     C62261   4.809   9.015   7.595  0.9899  0.9276  0.5397
  462MOL0     C62262   4.681   9.036   7.534  0.2349  1.1661  0.2436
  462MOL0     C62263   4.632   8.917   7.450 -0.0807  0.2126 -0.3617
  462MOL0     C62264   4.595   9.142   7.579  0.2010  0.3895  0.0640
  462MOL0     C62265   4.460   9.166   7.527  0.3662  0.2119  0.1428
  462MOL0     O62266   4.376   9.215   7.621  0.5931 -0.3924  0.4065
  462MOL0     C62267   4.265   9.281   7.568  0.4227  0.3581  0.8622
  462MOL0     C62268   4.135   9.250   7.603 -0.6623  0.5101  0.1178
  462MOL0     C62269   4.030   9.326   7.557  0.5552  0.2140 -0.1079
  462MOL0     C62270   4.046   9.439   7.470 -0.2475 -0.6474 -0.0358
  462MOL0     O62271   3.948   9.518   7.429 -0.1480  0.2149  0.0364
  462MOL0     C62272   3.825   9.499   7.501 -0.4702  0.5029 -0.1122
  462MOL0     C62273   3.742   9.396   7.423  0.3546 -0.5905  0.3184
  462MOL0     C62274   3.603   9.388   7.480  0.3892 -0.3713  0.3986
  462MOL0     C62275   3.504   9.341   7.373  0.1196 -0.2735 -1.3939
  462MOL0     C62276   3.369   9.326   7.440  1.2906  0.4631 -0.3423
  462MOL0     C62277   3.259   9.323   7.333 -0.2327 -0.3441 -0.7034
  462MOL0     C62278   3.127   9.320   7.396  0.0699  0.1002 -0.3882
  462MOL0     C62279   3.058   9.188   7.391 -0.3114  0.0661  0.1241
  462MOL0    Cl62280   2.898   9.191   7.476 -0.1429  0.1136  0.2014
  462MOL0     C62281   4.174   9.466   7.431 -0.0737 -0.4041 -0.1889
  462MOL0     C62282   4.285   9.394   7.483  1.0210 -0.3785 -0.1323
  462MOL0     O62283   4.430   9.132   7.414  0.6770 -0.3108 -0.1881
  462MOL0     C62284   4.633   9.210   7.695  0.1552 -0.0134  0.3387
  462MOL0     C62285   4.758   9.180   7.762 -0.9524  0.3614 -0.1607
  462MOL0     N62286   5.067   8.999   8.440  0.0882 -0.2422 -0.8110
  462MOL0     N62287   5.168   9.013   8.527  0.7319  0.7463  0.4064
  462MOL0     C62288   6.073   8.297   8.762  1.5769  0.2825 -0.6140
  462MOL0     C62289   6.207   8.257   8.787  0.8962  0.7230  0.2244
  462MOL0     C62290   6.585   8.117   8.913 -0.2582  0.4070  1.5140
  462MOL0     C62291   6.673   8.039   8.827 -0.4064 -0.7984 -0.1283
  462MOL0     C62292   6.815   8.063   8.841 -0.8244 -0.4276  0.0205
  462MOL0     C62293   6.865   8.117   8.951 -0.6309  0.5787  0.2338
  462MOL0     O62294   7.001   8.132   8.941 -0.2182  0.5886 -0.2644
  462MOL0     C62295   7.083   8.184   9.046 -0.2281 -0.9685 -0.0138
  462MOL0     C62296   7.091   8.335   9.038 -0.1681  0.7939  0.5916
  462MOL0     C62297   7.166   8.402   9.153 -0.0778 -0.1248 -0.4789
  462MOL0     C62298   7.322   8.437   9.141  0.1042  0.0393  0.3491
  462MOL0     C62299   7.398   8.312   9.138 -0.1923  0.3302  0.4753
  462MOL0     C62300   7.461   8.202   9.124  0.4434 -0.4286  0.2084
  462MOL0     C62301   6.785   8.179   9.048  0.7914  0.5884  0.0360
  462MOL0     C62302   6.642   8.170   9.035 -0.1905  0.0528 -0.3621
  462MOL0     H62303   6.209   7.969   8.608 -0.1470 -0.0091  0.3888
  462MOL0     H62304   5.976   8.043   8.554  1.3593 -1.4164 -0.5681
  462MOL0     H62305   5.811   8.344   8.818  0.4426 -1.3355 -1.1991
  462MOL0     H62306   5.796   8.448   8.668  0.4747  1.0147  0.6636
  462MOL0     H62307   5.600   8.293   8.620  0.0143  0.8911 -0.0334
  462MOL0     H62308   5.623   8.206   8.766 -1.5906  0.3645  1.6469
  462MOL0     H62309   5.480   8.350   8.834  0.9742 -0.8007 -0.1679
  462MOL0     H62310   5.622   8.445   8.878 -0.1627  1.1169 -0.0773
  462MOL0     H62311   5.553   8.508   8.607 -1.1994  2.1578 -0.2779
  462MOL0     H62312   5.407   8.527   8.705 -0.4430 -1.0203  0.2801
  462MOL0     H62313   5.470   8.677   8.851 -0.5972 -2.2759  0.4102
  462MOL0     H62314   5.641   8.659   8.824 -0.0207 -1.2953  0.4699
  462MOL0     H62315   5.589   8.859   8.698 -0.1137 -0.7208  0.7149
  462MOL0     H62316   5.598   8.728   8.581 -1.7977  0.3283 -0.6454
  462MOL0     H62317   5.380   8.711   8.523  1.2025  1.3131 -2.6341
  462MOL0     H62318   5.326   8.779   8.681 -1.0114 -0.8899 -1.0246
  462MOL0     H62319   5.491   8.913   8.468 -0.7405  1.2403 -0.2500
  462MOL0     H62320   5.428   9.004   8.605  0.4137  0.3682 -0.1147
  462MOL0     H62321   5.303   8.848   8.278 -0.5354 -2.1262  1.0602
  462MOL0     H62322   5.080   8.799   8.180  1.8545 -0.5627 -0.1813
  462MOL0     H62323   4.932   8.863   8.240  1.2930 -3.7385  0.7655
  462MOL0     H62324   5.155   8.982   8.070 -0.5284 -0.8206 -2.8072
  462MOL0     H62325   5.035   9.091   8.153  2.8254  0.4859  0.7433
  462MOL0     H62326   4.859   9.004   8.000  0.6520 -0.3834  1.1861
  462MOL0     H62327   4.979   8.886   7.925  2.6018  0.3507  0.0308
  462MOL0     H62328   5.116   9.112   7.894  0.2214  2.6479  0.0139
  462MOL0     H62329   4.960   9.197   7.915 -2.1866 -0.0196 -2.2887
  462MOL0     H62330   4.872   8.931   7.566 -1.2858 -1.1119  1.2151
  462MOL0     H62331   4.531   8.879   7.471 -0.2486 -0.7560 -2.6268
  462MOL0     H62332   4.639   8.944   7.344  2.2640  0.6226 -0.1452
  462MOL0     H62333   4.698   8.831   7.463  0.3716  0.7756  1.3665
  462MOL0     H62334   4.118   9.176   7.681  0.5512  0.5395  0.4359
  462MOL0     H62335   3.934   9.290   7.591  0.8652 -0.0229  0.5291
  462MOL0     H62336   3.845   9.473   7.605  2.3318 -1.5248 -1.0213
  462MOL0     H62337   3.764   9.590   7.496 -2.3253 -0.6970 -0.2367
  462MOL0     H62338   3.742   9.438   7.322 -0.0474  0.3521  0.6983
  462MOL0     H62339   3.790   9.300   7.402  2.7389  0.7329 -0.6320
  462MOL0     H62340   3.572   9.487   7.514  1.9710 -0.0783  1.0521
  462MOL0     H62341   3.601   9.312   7.559  1.7028 -1.3203 -0.4370
  462MOL0     H62342   3.497   9.415   7.292 -2.3386  0.7432 -0.3678
  462MOL0     H62343   3.532   9.244   7.333  1.2541 -1.2832  1.5941
  462MOL0     H62344   3.352   9.408   7.510 -4.4704 -0.0953 -0.6586
  462MOL0     H62345   3.347   9.233   7.494 -2.2365 -0.2081 -2.6472
  462MOL0     H62346   3.270   9.413   7.271 -3.2953  3.8034  3.9742
  462MOL0     H62347   3.269   9.238   7.265 -0.4718  2.0455 -3.9713
  462MOL0     H62348   3.063   9.394   7.346 -0.0495  1.0104  1.0364
  462MOL0     H62349   3.131   9.362   7.497 -0.2310 -0.4068 -0.1629
  462MOL0     H62350   3.120   9.110   7.436  1.1501  0.0210 -1.8392
  462MOL0     H62351   3.042   9.160   7.287  1.5044 -1.0291  0.0956
  462MOL0     H62352   4.185   9.546   7.358 -2.1834 -0.2323 -0.3608
  462MOL0     H62353   4.382   9.430   7.448  0.6174  1.2413  0.3269
  462MOL0     H62354   4.574   9.289   7.739 -1.9722 -1.7497  0.7455
  462MOL0     H62355   4.788   9.236   7.850 -0.0877 -3.7219  2.4229
  462MOL0     H62356   6.040   8.394   8.797 -0.2173 -0.8752  1.1723
  462MOL0     H62357   6.275   8.322   8.842  0.6524 -0.0754  1.5340
  462MOL0     H62358   6.629   8.000   8.736 -3.7706  2.0880  0.0459
  462MOL0     H62359   6.870   7.998   8.775 -1.3255 -0.8794  0.0426
  462MOL0     H62360   7.043   8.159   9.144 -0.9661 -0.9377 -0.3011
  462MOL0     H62361   7.185   8.145   9.040 -0.5343 -1.6432 -3.6102
  462MOL0     H62362   6.989   8.369   9.015 -1.0233 -1.2656  1.1151
  462MOL0     H62363   7.147   8.350   8.945 -1.5061 -1.8290 -0.7766
  462MOL0     H62364   7.148   8.336   9.238  1.2991 -0.1026 -0.1539
  462MOL0     H62365   7.109   8.492   9.179  0.6640 -0.4318  2.5866
  462MOL0     H62366   7.340   8.492   9.234 -0.1458 -0.3989  0.6562
  462MOL0     H62367   7.357   8.506   9.063 -0.5713  0.3287  0.2993
  462MOL0     H62368   7.505   8.108   9.098 -2.4804 -1.8171 -0.1110
  462MOL0     H62369   6.813   8.216   9.146 -3.9440  1.3080  1.3806
  462MOL0     H62370   6.577   8.209   9.112 -1.6541  0.7590 -1.8858
  463MOL0     O62371   7.191   6.656   0.988  0.1791 -0.4412  1.3257
  463MOL0     C62372   7.280   6.606   0.922  0.4310  0.5001 -0.4961
  463MOL0     O62373   7.271   6.494   0.845  0.1724  0.2792 -0.6415
  463MOL0     C62374   7.147   6.436   0.831  0.6401 -0.5486  0.1301
  463MOL0     C62375   7.040   6.508   0.775 -0.4219 -0.5875  0.1869
  463MOL0     C62376   6.912   6.458   0.764  0.3866  0.0073 -0.3010
  463MOL0     C62377   6.892   6.326   0.806  0.1535  0.4398  0.1939
  463MOL0     O62378   6.772   6.256   0.810  0.5513  0.0260 -1.0743
  463MOL0     C62379   6.658   6.329   0.775 -0.1852 -0.1951 -0.2608
  463MOL0     C62380   6.530   6.254   0.808 -0.5039 -0.5979 -0.3150
  463MOL0     C62381   6.419   6.259   0.711  0.7952 -0.2002 -0.0382
  463MOL0     C62382   6.285   6.200   0.769 -0.4339 -0.4110  0.0937
  463MOL0     C62383   6.173   6.239   0.677  0.1694 -0.0436 -0.8789
  463MOL0     C62384   6.051   6.169   0.725  0.3710 -0.0026 -0.0745
  463MOL0     C62385   5.930   6.219   0.636  0.4204 -0.3264 -0.0257
  463MOL0     C62386   5.797   6.142   0.665 -0.8605 -0.3268  0.2206
  463MOL0     N62387   5.780   6.101   0.802 -0.3700 -0.5701  0.0944
  463MOL0     C62388   5.764   5.979   0.854 -0.1059  0.8890 -0.5190
  463MOL0     C62389   5.765   5.996   0.988 -0.0507  1.3717  0.3886
  463MOL0     C62390   5.761   5.882   1.090 -0.7207 -0.5830 -0.4783
  463MOL0     C62391   5.625   5.822   1.094 -1.0859 -0.5510 -0.3008
  463MOL0     C62392   5.621   5.699   1.185 -0.5434 -0.0756  0.1993
  463MOL0     C62393   5.478   5.635   1.187 -0.8417 -0.2740  0.6034
  463MOL0     O62394   5.449   5.604   1.048 -0.9099 -0.2539 -0.1969
  463MOL0     C62395   5.335   5.535   1.013  0.0815  0.4757 -0.3576
  463MOL0     C62396   5.212   5.530   1.079 -0.6292 -0.6563  0.0695
  463MOL0     C62397   5.101   5.471   1.020 -0.2602 -0.2425  0.3147
  463MOL0     C62398   4.964   5.490   1.087 -0.7684  0.6801  0.1432
  463MOL0     C62399   5.111   5.401   0.891 -0.2576  0.0847  0.1340
  463MOL0     C62400   4.999   5.336   0.824 -0.6642 -0.1340  0.6171
  463MOL0     O62401   5.017   5.334   0.691  0.7895  0.1167  0.0975
  463MOL0     C62402   4.936   5.258   0.609  0.0754  0.6742  0.4183
  463MOL0     C62403   4.796   5.263   0.605 -0.6030 -0.3062  0.0203
  463MOL0     C62404   4.725   5.207   0.500 -0.4424  0.4790 -0.1362
  463MOL0     C62405   4.797   5.138   0.402  0.3316 -0.0351  1.0777
  463MOL0     O62406   4.735   5.096   0.283 -0.4273  0.7279 -0.3328
  463MOL0     C62407   4.730   5.194   0.182 -0.8141  0.5677  0.0654
  463MOL0     C62408   4.626   5.295   0.219 -0.3914 -0.0183  0.1679
  463MOL0     C62409   4.488   5.230   0.222 -0.3641  0.3095  0.7320
  463MOL0     C62410   4.386   5.347   0.219 -0.5950 -0.0619 -0.4720
  463MOL0     C62411   4.248   5.287   0.204 -0.2489  0.7210 -0.3691
  463MOL0     C62412   4.136   5.374   0.258 -0.5959 -0.1068 -0.4835
  463MOL0     C62413   4.000   5.295   0.266  0.0718 -0.2921  0.3141
  463MOL0     C62414   3.903   5.369   0.347 -1.0237  1.0008 -0.1261
  463MOL0    Cl62415   3.744   5.285   0.344  0.5598  0.2108  0.0328
  463MOL0     C62416   4.935   5.129   0.409  0.2504 -0.4889 -0.2094
  463MOL0     C62417   5.006   5.196   0.507  0.5303  0.4132 -0.7123
  463MOL0     O62418   4.920   5.263   0.886 -0.1479  0.1196 -0.0785
  463MOL0     C62419   5.241   5.419   0.825  0.2349  0.1530  0.1252
  463MOL0     C62420   5.349   5.483   0.886 -0.3815  0.0013  0.3420
  463MOL0     N62421   5.779   6.129   1.018 -0.5167  0.8444 -0.3843
  463MOL0     N62422   5.791   6.188   0.908 -0.2858  0.0967 -0.0989
  463MOL0     C62423   6.989   6.251   0.862 -0.2437  0.1761  0.0337
  463MOL0     C62424   7.119   6.308   0.881 -0.2501 -0.6498 -0.2093
  463MOL0     C62425   7.414   6.670   0.935 -0.9034 -0.3545  0.3476
  463MOL0     C62426   7.507   6.654   0.830 -0.5241 -0.5836 -0.5136
  463MOL0     C62427   7.631   6.716   0.836  0.1536 -0.2094  0.0457
  463MOL0     C62428   7.668   6.780   0.957 -0.3207 -0.8942  0.7706
  463MOL0     O62429   7.787   6.848   0.970 -0.2304  0.0541 -0.2746
  463MOL0     C62430   7.865   6.885   0.848  0.1460  0.1051  0.0218
  463MOL0     C62431   7.976   6.983   0.912  0.6537  0.3177 -0.6272
  463MOL0     C62432   8.060   7.052   0.809  0.3868  0.2459 -0.1520
  463MOL0     C62433   8.152   7.150   0.866 -0.3344  0.6025 -0.0822
  463MOL0     C62434   8.248   7.194   0.772  0.1368  0.3605 -0.4687
  463MOL0     C62435   8.338   7.218   0.696  0.4134 -0.2106  0.5538
  463MOL0     C62436   7.581   6.784   1.060  0.5143 -0.8855 -1.1459
  463MOL0     C62437   7.449   6.740   1.051  0.0870 -0.5560 -0.2804
  463MOL0     H62438   7.063   6.602   0.727 -0.7339 -1.4855 -1.8143
  463MOL0     H62439   6.830   6.515   0.721  0.2498  1.9933  2.4096
  463MOL0     H62440   6.659   6.427   0.823 -0.5036  0.0469 -0.7458
  463MOL0     H62441   6.665   6.324   0.666 -2.4199 -0.4821 -0.4384
  463MOL0     H62442   6.549   6.148   0.830  0.0597 -0.0828  1.9351
  463MOL0     H62443   6.501   6.295   0.905  0.0850 -2.7709  0.8554
  463MOL0     H62444   6.394   6.361   0.681 -0.1121  0.0643  1.4915
  463MOL0     H62445   6.447   6.198   0.625 -0.3032  1.1432 -1.3839
  463MOL0     H62446   6.297   6.092   0.780 -1.2234 -0.2787  3.6511
  463MOL0     H62447   6.262   6.232   0.871 -0.0799 -1.0578  0.3831
  463MOL0     H62448   6.153   6.347   0.671 -0.4657 -0.1608 -0.9333
  463MOL0     H62449   6.191   6.208   0.574 -0.9791  1.8213 -1.6982
  463MOL0     H62450   6.060   6.063   0.703  0.8031  0.1003 -0.3940
  463MOL0     H62451   6.038   6.177   0.834 -0.5877 -1.9827  0.0047
  463MOL0     H62452   5.922   6.326   0.657 -2.7576 -0.0965 -1.8351
  463MOL0     H62453   5.944   6.219   0.527  1.4673  1.3561  0.0737
  463MOL0     H62454   5.799   6.059   0.594  2.1048 -0.5784  0.4679
  463MOL0     H62455   5.717   6.209   0.633 -2.5695 -2.6307 -0.5417
  463MOL0     H62456   5.759   5.884   0.801  2.2920 -0.7219  1.8482
  463MOL0     H62457   5.834   5.801   1.074  0.4386  0.3797 -0.2612
  463MOL0     H62458   5.783   5.933   1.185 -2.2667  1.1947 -1.0280
  463MOL0     H62459   5.586   5.787   0.998 -0.9598  0.5381 -0.7658
  463MOL0     H62460   5.556   5.902   1.124  3.1924  3.5916 -0.4101
  463MOL0     H62461   5.649   5.727   1.287 -0.4121 -0.2259  0.2051
  463MOL0     H62462   5.696   5.627   1.150  1.0809  2.4879 -2.0541
  463MOL0     H62463   5.403   5.707   1.221  0.0081  2.5509 -2.8050
  463MOL0     H62464   5.470   5.545   1.249  0.8567 -0.7018  0.2640
  463MOL0     H62465   5.192   5.568   1.179 -1.1752 -1.3147  0.2179
  463MOL0     H62466   4.886   5.507   1.013 -2.2285 -0.6353  1.2932
  463MOL0     H62467   4.953   5.397   1.145  0.7017  1.4686  1.7749
  463MOL0     H62468   4.971   5.574   1.156 -0.2564  1.9643 -1.4262
  463MOL0     H62469   4.739   5.325   0.673 -0.1868  0.4571 -0.3129
  463MOL0     H62470   4.617   5.210   0.487 -0.3604  3.1349 -0.9206
  463MOL0     H62471   4.830   5.233   0.162 -0.5225  0.2326  0.8637
  463MOL0     H62472   4.695   5.146   0.090 -0.8623 -1.2943  1.0272
  463MOL0     H62473   4.653   5.340   0.315  0.6924 -0.1426 -0.0627
  463MOL0     H62474   4.640   5.378   0.150 -0.3727  1.0170  1.3879
  463MOL0     H62475   4.488   5.168   0.313  2.3896  0.1550  0.7255
  463MOL0     H62476   4.487   5.177   0.127  0.0854  3.4117 -1.1469
  463MOL0     H62477   4.402   5.391   0.318  0.0359 -0.3743 -0.4276
  463MOL0     H62478   4.409   5.428   0.149  0.2411  1.3103  1.3064
  463MOL0     H62479   4.237   5.195   0.263 -1.9161 -1.4456 -3.7302
  463MOL0     H62480   4.235   5.261   0.098  1.2240 -0.6475 -0.2576
  463MOL0     H62481   4.173   5.415   0.353 -0.3496 -3.1346  0.8512
  463MOL0     H62482   4.116   5.456   0.190  0.4190 -1.8136 -2.9798
  463MOL0     H62483   4.008   5.198   0.315 -1.6969 -1.7229 -2.0428
  463MOL0     H62484   3.954   5.281   0.168  0.1798 -0.5152  0.2945
  463MOL0     H62485   3.882   5.472   0.314  2.5933  1.6990 -0.6988
  463MOL0     H62486   3.951   5.375   0.445  4.7720 -0.0769 -2.5060
  463MOL0     H62487   4.990   5.075   0.332  4.1106  0.9123  1.3022
  463MOL0     H62488   5.113   5.210   0.501  0.5841 -0.0454 -0.8233
  463MOL0     H62489   5.257   5.379   0.725 -0.0836  1.0507 -0.2982
  463MOL0     H62490   5.447   5.501   0.844 -0.1820  0.6611  1.0767
  463MOL0     H62491   6.964   6.151   0.897 -0.1367  0.7190  1.7457
  463MOL0     H62492   7.194   6.243   0.924 -0.2775 -1.3276 -1.1538
  463MOL0     H62493   7.477   6.599   0.742 -0.7594 -1.4878  0.1250
  463MOL0     H62494   7.688   6.702   0.744 -1.5504 -1.8128 -0.8244
  463MOL0     H62495   7.909   6.801   0.793 -0.1048  1.1522 -1.8766
  463MOL0     H62496   7.800   6.935   0.776  1.0817  1.8305  0.3420
  463MOL0     H62497   8.030   6.912   0.975 -1.3594 -2.1596 -1.5162
  463MOL0     H62498   7.925   7.060   0.971  3.7722  0.7921  1.7219
  463MOL0     H62499   7.989   7.090   0.736 -0.4579 -1.7490 -0.4467
  463MOL0     H62500   8.114   6.977   0.751 -0.3150 -0.0221 -0.4742
  463MOL0     H62501   8.188   7.113   0.962 -0.6657 -3.5875 -1.3659
  463MOL0     H62502   8.103   7.243   0.896 -1.5940 -0.3025  0.7569
  463MOL0     H62503   8.428   7.228   0.637  1.5900  0.0071  2.3090
  463MOL0     H62504   7.605   6.833   1.154 -3.3450 -0.4750 -0.1871
  463MOL0     H62505   7.388   6.757   1.139  0.3370 -0.3790 -0.1407
  464MOL0     O62506   7.672   7.103   1.612  0.0760  0.4245  0.0352
  464MOL0     C62507   7.795   7.111   1.646 -0.3498  0.3097 -0.1367
  464MOL0     O62508   7.845   7.146   1.775  0.3292 -0.3932  0.6510
  464MOL0     C62509   7.769   7.191   1.880 -0.2353 -0.1651 -0.8459
  464MOL0     C62510   7.841   7.234   1.996 -0.3630 -0.1450 -0.1732
  464MOL0     C62511   7.774   7.249   2.114 -0.1920 -0.2197 -0.1701
  464MOL0     C62512   7.635   7.236   2.137 -0.2430  0.1263 -0.1333
  464MOL0     O62513   7.571   7.233   2.258  0.1447  0.9767 -0.1189
  464MOL0     C62514   7.596   7.113   2.333  0.1112  0.2052 -0.7143
  464MOL0     C62515   7.471   7.070   2.407  1.1084  0.3624 -0.0570
  464MOL0     C62516   7.351   7.024   2.311 -0.4881 -0.4250  0.0198
  464MOL0     C62517   7.257   6.950   2.402  0.5232  0.1930 -0.6133
  464MOL0     C62518   7.119   6.917   2.335  1.1026  0.5699  0.4448
  464MOL0     C62519   7.033   7.043   2.308  0.9430  0.4382  0.1599
  464MOL0     C62520   7.055   7.174   2.399 -0.1719  0.8755 -0.3403
  464MOL0     C62521   6.929   7.256   2.366  0.0610 -0.5895  0.0598
  464MOL0     N62522   6.810   7.216   2.440  0.6177  0.1785 -0.6465
  464MOL0     C62523   6.698   7.173   2.373  0.4503  0.0417  0.0674
  464MOL0     C62524   6.596   7.185   2.464 -0.2944  0.0055  0.5987
  464MOL0     C62525   6.457   7.122   2.460  0.1061 -0.6379 -0.0904
  464MOL0     C62526   6.411   7.101   2.313 -0.3005  0.0487  0.1250
  464MOL0     C62527   6.278   7.026   2.313  0.4406 -0.2401 -1.0990
  464MOL0     C62528   6.224   6.983   2.177 -0.6078 -0.6582 -0.4322
  464MOL0     O62529   6.091   6.925   2.189 -0.8167  0.2157 -0.0028
  464MOL0     C62530   6.023   6.886   2.077  0.1697 -0.3604  0.5878
  464MOL0     C62531   5.887   6.842   2.099  0.0793  0.3296 -0.8209
  464MOL0     C62532   5.813   6.782   1.997 -0.9692 -0.2349 -0.2370
  464MOL0     C62533   5.675   6.736   2.033  0.4098 -0.0271  0.1429
  464MOL0     C62534   5.878   6.762   1.871 -0.0350  0.6219 -0.3803
  464MOL0     C62535   5.806   6.684   1.763  0.2637  0.2424  0.1571
  464MOL0     O62536   5.874   6.581   1.705 -0.6077  0.4669  0.8205
  464MOL0     C62537   5.799   6.503   1.621  0.2646  0.3433  0.4189
  464MOL0     C62538   5.775   6.535   1.488 -0.2552 -0.0244  0.6458
  464MOL0     C62539   5.702   6.454   1.404 -0.0922  0.7662  0.0720
  464MOL0     C62540   5.628   6.340   1.468  0.0188  0.5841 -0.2975
  464MOL0     O62541   5.535   6.263   1.405 -1.0540 -0.3479 -0.8175
  464MOL0     C62542   5.551   6.246   1.259  0.2547 -0.3140  0.2028
  464MOL0     C62543   5.418   6.219   1.187  0.2688  0.1564 -0.2102
  464MOL0     C62544   5.318   6.127   1.256  0.7831  0.1019 -0.6798
  464MOL0     C62545   5.192   6.120   1.184  1.1659  1.2160  0.1342
  464MOL0     C62546   5.087   6.026   1.253 -0.0248  0.5143  0.1364
  464MOL0     C62547   4.948   6.024   1.181  0.2758  0.6327  0.5405
  464MOL0     C62548   4.869   5.898   1.230  0.4978  0.3338 -0.5799
  464MOL0     C62549   4.741   5.888   1.145 -0.7024 -0.3038 -0.5711
  464MOL0    Cl62550   4.621   5.806   1.245 -0.6162  0.3081 -0.0205
  464MOL0     C62551   5.656   6.314   1.604  0.0533  0.8955  0.1083
  464MOL0     C62552   5.738   6.396   1.677 -0.2968 -0.2648  0.6742
  464MOL0     O62553   5.697   6.726   1.731  0.1575  0.1840  0.1043
  464MOL0     C62554   6.006   6.817   1.846 -0.4812 -0.3704 -0.1245
  464MOL0     C62555   6.079   6.884   1.946  0.7431  0.1633 -0.0486
  464MOL0     N62556   6.646   7.252   2.573  0.3489  0.2737  0.7679
  464MOL0     N62557   6.770   7.264   2.566  0.0596 -0.8293  1.0229
  464MOL0     C62558   7.561   7.202   2.023 -0.5824 -0.5453  0.1981
  464MOL0     C62559   7.634   7.162   1.906 -0.5608  0.5788 -0.1830
  464MOL0     C62560   7.891   7.072   1.543 -0.2624  0.2627  0.6379
  464MOL0     C62561   8.028   7.104   1.547  0.6431 -0.6594 -0.6735
  464MOL0     C62562   8.120   7.065   1.448 -0.4846 -0.1203 -0.5667
  464MOL0     C62563   8.076   6.994   1.333  0.1880  0.0252 -0.1511
  464MOL0     O62564   8.171   6.944   1.246 -0.2385  0.2002 -0.8435
  464MOL0     C62565   8.308   6.977   1.258 -0.3280  0.0435  0.1206
  464MOL0     C62566   8.379   6.929   1.134 -0.1734 -0.4959  0.0601
  464MOL0     C62567   8.528   6.954   1.155  0.4345 -0.6222 -0.0764
  464MOL0     C62568   8.577   7.095   1.205  0.3429  0.4708 -0.4017
  464MOL0     C62569   8.517   7.197   1.125 -0.1599  0.3277  0.5454
  464MOL0     C62570   8.451   7.278   1.069 -0.3456 -0.1589 -0.4038
  464MOL0     C62571   7.938   6.955   1.327 -0.3983  0.3750 -0.1024
  464MOL0     C62572   7.853   6.994   1.430  0.0738  0.4765  0.0985
  464MOL0     H62573   7.950   7.238   1.993 -0.3464 -0.6967 -2.3714
  464MOL0     H62574   7.836   7.279   2.197 -1.2801  0.4746  0.4284
  464MOL0     H62575   7.620   7.030   2.266  2.6008 -0.5587  0.9748
  464MOL0     H62576   7.680   7.127   2.402  0.5886  0.6081 -1.3651
  464MOL0     H62577   7.500   6.988   2.472  0.8030  0.5932  0.3780
  464MOL0     H62578   7.456   7.159   2.469  0.5767 -0.5324  1.1354
  464MOL0     H62579   7.293   7.106   2.269 -1.1908  0.0411  1.8217
  464MOL0     H62580   7.385   6.951   2.237  0.6867 -0.1321  0.2496
  464MOL0     H62581   7.290   6.848   2.426 -1.7946 -0.8406 -1.4959
  464MOL0     H62582   7.235   7.001   2.496 -1.1664 -1.5488  0.0026
  464MOL0     H62583   7.137   6.858   2.245 -3.3939 -1.7457  0.7786
  464MOL0     H62584   7.061   6.849   2.399 -0.2088  2.1426  1.0028
  464MOL0     H62585   7.051   7.069   2.204 -2.5621 -1.6414 -1.1477
  464MOL0     H62586   6.926   7.020   2.316  0.5626  1.8219 -0.5899
  464MOL0     H62587   7.043   7.144   2.503 -0.6755  0.2996 -0.5607
  464MOL0     H62588   7.145   7.232   2.375 -0.9319  2.3639  0.2728
  464MOL0     H62589   6.902   7.266   2.260  0.9484 -0.4662 -0.1582
  464MOL0     H62590   6.944   7.360   2.395  0.0009 -0.5835  0.0687
  464MOL0     H62591   6.690   7.135   2.272 -1.6120 -0.3726  0.3267
  464MOL0     H62592   6.486   7.030   2.512  2.5824  0.4392  0.6235
  464MOL0     H62593   6.387   7.185   2.516  0.3302  1.0781 -1.6399
  464MOL0     H62594   6.479   7.040   2.253 -0.3910 -0.5012  0.5686
  464MOL0     H62595   6.408   7.196   2.260 -0.9986 -0.8346 -1.4873
  464MOL0     H62596   6.210   7.104   2.348 -0.3841 -1.5158  0.2794
  464MOL0     H62597   6.283   6.940   2.381  1.9856 -0.4595 -1.4494
  464MOL0     H62598   6.298   6.916   2.132  1.1090  1.2957 -0.6938
  464MOL0     H62599   6.209   7.072   2.115 -2.7022 -0.4578  0.2816
  464MOL0     H62600   5.849   6.840   2.200 -1.1029  0.9253 -1.2366
  464MOL0     H62601   5.634   6.647   1.983 -0.6988 -0.5355  1.8692
  464MOL0     H62602   5.667   6.734   2.142  1.7709 -2.9154  0.2821
  464MOL0     H62603   5.614   6.816   1.990  0.0901 -1.0281 -1.3514
  464MOL0     H62604   5.825   6.619   1.441 -4.2673  2.4348  0.3104
  464MOL0     H62605   5.688   6.475   1.298  2.4587  2.6666  0.0223
  464MOL0     H62606   5.606   6.320   1.200 -1.7421 -0.1268 -1.5298
  464MOL0     H62607   5.607   6.153   1.252  1.2739  0.1700  1.4208
  464MOL0     H62608   5.369   6.317   1.178 -0.4512  0.0383  1.7866
  464MOL0     H62609   5.443   6.174   1.091  2.4351  0.2592  0.2545
  464MOL0     H62610   5.302   6.168   1.356  0.4369 -1.4834 -0.0536
  464MOL0     H62611   5.366   6.030   1.270  0.0500 -0.1250  0.3890
  464MOL0     H62612   5.143   6.217   1.176 -0.9884  0.1942  0.4556
  464MOL0     H62613   5.216   6.079   1.085  2.3180  0.0947  0.8488
  464MOL0     H62614   5.090   6.040   1.361 -3.0193 -1.3521  0.5921
  464MOL0     H62615   5.134   5.930   1.230  0.6203  1.5115 -3.3444
  464MOL0     H62616   4.892   6.115   1.203 -0.6109  0.1970  0.1308
  464MOL0     H62617   4.959   6.015   1.073  2.5528 -1.4930  0.8596
  464MOL0     H62618   4.859   5.906   1.338  3.3150 -2.7002  0.0846
  464MOL0     H62619   4.926   5.807   1.208  1.1672  1.2099 -2.7515
  464MOL0     H62620   4.763   5.820   1.063  1.3671  0.0219 -0.3399
  464MOL0     H62621   4.714   5.988   1.109 -0.8889 -0.8286 -1.9416
  464MOL0     H62622   5.627   6.217   1.643 -1.7935  0.9220 -1.0723
  464MOL0     H62623   5.748   6.375   1.783  0.1259 -0.9919  0.5005
  464MOL0     H62624   6.046   6.789   1.749 -1.5287 -0.8489 -0.4291
  464MOL0     H62625   6.182   6.899   1.914  0.0901  1.8120 -1.5516
  464MOL0     H62626   7.454   7.189   2.029 -0.9254  2.2409  1.7328
  464MOL0     H62627   7.572   7.128   1.824  1.9757 -1.6070 -1.3261
  464MOL0     H62628   8.074   7.166   1.624 -0.8469 -1.2728  0.7523
  464MOL0     H62629   8.223   7.099   1.462 -0.7440  0.4561 -0.0160
  464MOL0     H62630   8.307   7.084   1.279 -2.3883 -0.1164  1.0701
  464MOL0     H62631   8.365   6.938   1.343  1.2367 -0.7614 -1.2331
  464MOL0     H62632   8.354   6.990   1.046  2.7044 -1.2470 -1.4122
  464MOL0     H62633   8.365   6.824   1.108  0.6815  0.0339 -2.9146
  464MOL0     H62634   8.583   6.920   1.068 -1.3285 -0.1889 -1.4249
  464MOL0     H62635   8.567   6.881   1.226  0.8548 -1.9662 -1.6354
  464MOL0     H62636   8.685   7.109   1.203  0.3624  0.2788 -1.7374
  464MOL0     H62637   8.542   7.121   1.305  0.0738  0.5391 -0.5127
  464MOL0     H62638   8.394   7.352   1.016  1.3557  0.4313 -1.5146
  464MOL0     H62639   7.894   6.900   1.244 -0.2474 -2.9101  1.7999
  464MOL0     H62640   7.748   6.973   1.416  0.6493 -1.4284 -1.8733
  465MOL0     O62641   2.803   1.115   8.003  0.1620 -1.3115  0.1585
  465MOL0     C62642   2.803   1.131   7.881 -0.8605 -0.2557  0.6274
  465MOL0     O62643   2.694   1.158   7.799 -0.0415 -0.6045  0.0472
  465MOL0     C62644   2.563   1.175   7.851 -1.3746  0.4360 -0.4776
  465MOL0     C62645   2.479   1.262   7.788  0.2067  0.1726 -0.1355
  465MOL0     C62646   2.347   1.286   7.837 -0.3973 -0.2498 -0.2770
  465MOL0     C62647   2.293   1.210   7.943 -0.3018  0.6021 -0.2865
  465MOL0     O62648   2.173   1.238   8.007  0.0322  0.5698 -0.1446
  465MOL0     C62649   2.083   1.334   7.948  0.2973  0.1129 -0.6592
  465MOL0     C62650   1.961   1.343   8.043  0.7404  1.0532  0.3571
  465MOL0     C62651   1.847   1.441   7.997 -0.6524  0.7168  0.0303
  465MOL0     C62652   1.746   1.467   8.116 -0.3358 -0.0264  0.4889
  465MOL0     C62653   1.624   1.530   8.058  0.5380 -0.2948  1.2644
  465MOL0     C62654   1.522   1.552   8.166  0.1700  1.2968 -0.0634
  465MOL0     C62655   1.393   1.618   8.111 -0.4782  0.2460  0.9710
  465MOL0     C62656   1.411   1.760   8.041  0.3832 -0.2237 -0.5958
  465MOL0     N62657   1.473   1.860   8.131  0.2604  0.6322  0.1056
  465MOL0     C62658   1.603   1.903   8.139  0.3742  0.8085  0.2309
  465MOL0     C62659   1.609   1.991   8.246  0.0304  0.1097  0.5675
  465MOL0     C62660   1.725   2.078   8.264 -0.7156 -0.1718 -0.3717
  465MOL0     C62661   1.853   2.006   8.271 -0.4599 -0.1078 -0.2637
  465MOL0     C62662   1.857   1.935   8.405  0.6912 -0.0838 -0.3918
  465MOL0     C62663   2.004   1.913   8.451 -0.3133 -0.4191 -0.2447
  465MOL0     O62664   2.028   1.796   8.382 -0.1332  0.1794  0.2868
  465MOL0     C62665   2.153   1.763   8.336  0.5526 -0.1858 -0.4160
  465MOL0     C62666   2.265   1.838   8.363 -0.2764  0.8024  1.0421
  465MOL0     C62667   2.391   1.793   8.312 -1.1438  0.1923  1.2635
  465MOL0     C62668   2.505   1.888   8.315 -0.0987 -0.5951 -0.4650
  465MOL0     C62669   2.402   1.669   8.230 -0.5881 -0.5155 -0.0448
  465MOL0     C62670   2.520   1.620   8.159 -0.3940 -0.6287  0.7466
  465MOL0     O62671   2.639   1.657   8.208  0.2514  0.3035 -1.0049
  465MOL0     C62672   2.742   1.641   8.117 -0.0649  0.0294 -0.4967
  465MOL0     C62673   2.793   1.519   8.078  0.5716 -1.1319 -0.4469
  465MOL0     C62674   2.896   1.517   7.986 -0.3695 -0.4147 -0.8213
  465MOL0     C62675   2.958   1.636   7.936 -0.1680 -0.2350 -0.8735
  465MOL0     O62676   3.061   1.637   7.840 -0.3660  0.0113 -0.2533
  465MOL0     C62677   3.088   1.511   7.772  0.2885  0.8172 -0.7939
  465MOL0     C62678   3.177   1.526   7.648 -0.3706  0.4662  0.0129
  465MOL0     C62679   3.317   1.592   7.675  0.4655 -0.7023  0.7405
  465MOL0     C62680   3.420   1.486   7.726 -0.7978 -0.0754 -0.0591
  465MOL0     C62681   3.550   1.546   7.774  0.4163 -0.4164  0.1797
  465MOL0     C62682   3.669   1.447   7.788 -0.4716 -0.5359 -0.2770
  465MOL0     C62683   3.641   1.342   7.905  0.0088 -0.3919 -0.1561
  465MOL0     C62684   3.734   1.218   7.887 -0.4344 -0.9688  0.0424
  465MOL0    Cl62685   3.723   1.135   7.722  0.0759  0.0340  0.0435
  465MOL0     C62686   2.899   1.758   7.972  0.5725  0.0710  0.2877
  465MOL0     C62687   2.797   1.760   8.066  0.1965  0.6352  0.0893
  465MOL0     O62688   2.504   1.552   8.058 -0.4300 -0.1949  0.3109
  465MOL0     C62689   2.276   1.605   8.204 -0.5251  0.2049  0.4598
  465MOL0     C62690   2.150   1.651   8.255  0.3646  0.0786  0.3889
  465MOL0     N62691   1.483   1.988   8.309  0.1228 -0.1986  0.1410
  465MOL0     N62692   1.405   1.912   8.238 -0.6522 -0.3569 -0.0991
  465MOL0     C62693   2.369   1.106   7.999  0.2623  0.0235  0.3183
  465MOL0     C62694   2.507   1.097   7.961  0.8742  0.3610  0.5266
  465MOL0     C62695   2.938   1.140   7.809 -0.6627 -0.7901 -0.4922
  465MOL0     C62696   2.944   1.145   7.673 -0.4642  0.9483  0.1804
  465MOL0     C62697   3.062   1.132   7.604 -0.3112 -0.1282  1.0307
  465MOL0     C62698   3.178   1.148   7.672  0.6667  0.0811  0.2023
  465MOL0     O62699   3.296   1.141   7.604 -0.2032 -0.4358 -1.0171
  465MOL0     C62700   3.333   1.013   7.563 -1.3501 -0.1845 -0.0262
  465MOL0     C62701   3.386   1.015   7.415 -0.3136 -0.4328 -0.3665
  465MOL0     C62702   3.513   1.098   7.401  0.3383  0.4232  0.0149
  465MOL0     C62703   3.570   1.089   7.258  0.1456 -0.0328 -0.2570
  465MOL0     C62704   3.686   1.186   7.239  0.7938  0.3101  0.3151
  465MOL0     C62705   3.774   1.267   7.236  0.4109 -0.0213  0.2149
  465MOL0     C62706   3.178   1.164   7.812  0.7059 -0.2257 -0.1287
  465MOL0     C62707   3.058   1.151   7.886 -0.7131  0.6090  0.7892
  465MOL0     H62708   2.516   1.315   7.701 -1.6211 -1.7133 -2.1880
  465MOL0     H62709   2.284   1.360   7.789 -1.2079 -1.0167 -0.4331
  465MOL0     H62710   2.124   1.436   7.944  0.5227  0.1548  1.3330
  465MOL0     H62711   2.053   1.302   7.848  0.6161  0.3720 -0.8417
  465MOL0     H62712   1.917   1.245   8.063  0.1624  1.4550  1.0814
  465MOL0     H62713   2.003   1.382   8.136  1.7384 -0.4931  0.6012
  465MOL0     H62714   1.892   1.526   7.946  2.0354 -0.8197 -0.3935
  465MOL0     H62715   1.780   1.393   7.925  0.5872 -1.1445  0.0418
  465MOL0     H62716   1.720   1.369   8.157 -1.2930 -0.7457 -1.6767
  465MOL0     H62717   1.788   1.526   8.198 -3.0880 -0.6435  2.4774
  465MOL0     H62718   1.655   1.625   8.014  0.5788 -0.8054  0.1596
  465MOL0     H62719   1.583   1.470   7.976 -0.7397  2.5271 -0.2932
  465MOL0     H62720   1.503   1.454   8.210  0.0853  0.1310 -2.5539
  465MOL0     H62721   1.555   1.618   8.247 -1.8681  3.1595 -0.6510
  465MOL0     H62722   1.352   1.553   8.033  1.5754  0.4553 -0.3474
  465MOL0     H62723   1.328   1.620   8.199  0.7861  0.1903  1.9307
  465MOL0     H62724   1.311   1.799   8.018  0.3787 -0.0247 -0.2499
  465MOL0     H62725   1.470   1.747   7.950  2.5521  0.3138  0.6754
  465MOL0     H62726   1.683   1.872   8.073  1.3324  0.4450  1.5376
  465MOL0     H62727   1.732   2.146   8.179 -0.7925  1.1384  0.6350
  465MOL0     H62728   1.718   2.140   8.354 -1.1447 -3.2318  1.8678
  465MOL0     H62729   1.930   2.083   8.259  1.3842 -1.4038  2.1912
  465MOL0     H62730   1.857   1.934   8.188  0.9524 -3.0719  2.1558
  465MOL0     H62731   1.802   1.841   8.392  2.0758 -0.6779 -2.4243
  465MOL0     H62732   1.813   2.001   8.480  1.4425  3.4864 -2.8702
  465MOL0     H62733   2.015   1.901   8.559  3.1423  1.9713 -0.1845
  465MOL0     H62734   2.068   1.996   8.419 -0.7691  0.7331  1.6351
  465MOL0     H62735   2.258   1.930   8.420 -0.0125 -0.3108  2.9590
  465MOL0     H62736   2.463   1.987   8.336  2.1316  0.8973 -2.5473
  465MOL0     H62737   2.571   1.851   8.394 -0.4288  1.2092  0.6988
  465MOL0     H62738   2.551   1.887   8.216  0.8339  0.2344 -0.0520
  465MOL0     H62739   2.752   1.429   8.124 -1.5162  0.6722  1.4979
  465MOL0     H62740   2.921   1.416   7.957  1.0314 -0.0200 -1.0480
  465MOL0     H62741   3.132   1.442   7.844  0.3802  3.1309  1.5234
  465MOL0     H62742   2.991   1.479   7.734 -0.3171  0.9905  0.5297
  465MOL0     H62743   3.197   1.438   7.585  1.1738 -0.4955  1.7446
  465MOL0     H62744   3.121   1.589   7.579 -2.8293 -1.1186  0.4253
  465MOL0     H62745   3.299   1.671   7.748 -1.9458  0.3633 -0.8873
  465MOL0     H62746   3.357   1.632   7.581  2.0033 -1.4998  1.0084
  465MOL0     H62747   3.378   1.417   7.800 -0.2282 -3.1945 -2.4340
  465MOL0     H62748   3.447   1.422   7.641  0.4706  1.1635 -0.6356
  465MOL0     H62749   3.539   1.604   7.866  1.1390  1.8390 -1.0984
  465MOL0     H62750   3.568   1.616   7.692 -0.7331 -0.0099  0.2461
  465MOL0     H62751   3.674   1.395   7.692  1.7293 -1.6926  0.3767
  465MOL0     H62752   3.770   1.490   7.796 -0.3894 -0.8935  0.7029
  465MOL0     H62753   3.542   1.299   7.889  0.4801 -0.8117 -2.1482
  465MOL0     H62754   3.651   1.374   8.009 -0.7481 -1.7177  0.3496
  465MOL0     H62755   3.697   1.149   7.963  0.1540 -1.5143 -0.1650
  465MOL0     H62756   3.837   1.239   7.915 -0.7849 -0.6097  1.0922
  465MOL0     H62757   2.950   1.847   7.938  5.2981 -3.2220 -2.3846
  465MOL0     H62758   2.748   1.850   8.102 -0.6187  0.8645 -1.4815
  465MOL0     H62759   2.282   1.511   8.149  1.8130 -0.8804  2.3798
  465MOL0     H62760   2.069   1.581   8.235  2.3771 -1.8278 -1.6849
  465MOL0     H62761   2.328   1.044   8.078  2.8572 -0.2006  1.5921
  465MOL0     H62762   2.572   1.029   8.016  0.6255 -0.0797  0.2828
  465MOL0     H62763   2.852   1.137   7.617 -0.0464 -0.1116 -0.3839
  465MOL0     H62764   3.045   1.106   7.500 -0.7823  0.2076  1.0259
  465MOL0     H62765   3.410   0.989   7.637 -1.7505  1.7663  1.1104
  465MOL0     H62766   3.254   0.940   7.581 -0.4490 -0.8962  1.2408
  465MOL0     H62767   3.297   1.050   7.361 -0.3406 -0.0708 -0.0878
  465MOL0     H62768   3.408   0.916   7.373  2.2450 -0.2857  0.4346
  465MOL0     H62769   3.582   1.055   7.473 -0.3961  2.3636  1.9737
  465MOL0     H62770   3.498   1.202   7.433  2.3650  1.4262 -1.9951
  465MOL0     H62771   3.484   1.096   7.190  0.1443  0.4496 -0.2043
  465MOL0     H62772   3.611   0.989   7.242  0.8645 -0.0320  1.3813
  465MOL0     H62773   3.858   1.333   7.220 -2.5261  4.8432  2.5325
  465MOL0     H62774   3.269   1.195   7.863  0.6996  1.9412 -1.3045
  465MOL0     H62775   3.063   1.156   7.994  0.6949 -1.6429  0.8861
  466MOL0     O62776   6.025   2.460   7.621  0.1935 -0.1624  0.3046
  466MOL0     C62777   5.980   2.360   7.678 -0.1464  0.0324  0.3449
  466MOL0     O62778   6.047   2.259   7.740  0.3057 -0.2046  0.6669
  466MOL0     C62779   6.182   2.289   7.756  0.0169 -0.2324 -0.0370
  466MOL0     C62780   6.281   2.212   7.691  0.3989  0.0435  0.8447
  466MOL0     C62781   6.418   2.223   7.718  0.5154  0.3308  0.3759
  466MOL0     C62782   6.457   2.324   7.809 -0.1183 -0.1422 -0.2093
  466MOL0     O62783   6.595   2.329   7.836 -0.0204 -0.7645 -0.1658
  466MOL0     C62784   6.646   2.441   7.912 -0.2236  0.7366 -0.6603
  466MOL0     C62785   6.640   2.568   7.830 -0.2894 -0.3941 -0.4873
  466MOL0     C62786   6.719   2.556   7.699  0.4161 -0.1170 -0.1476
  466MOL0     C62787   6.690   2.656   7.578 -0.5070  0.6914 -0.6320
  466MOL0     C62788   6.542   2.705   7.553 -0.5424 -0.0172  0.9395
  466MOL0     C62789   6.452   2.581   7.522 -0.1270 -0.4733  1.0638
  466MOL0     C62790   6.311   2.626   7.538  1.0857 -0.0613 -0.0301
  466MOL0     C62791   6.271   2.751   7.458 -0.7418  0.1551  0.0543
  466MOL0     N62792   6.126   2.779   7.469 -0.4337  0.1085  0.4777
  466MOL0     C62793   6.024   2.767   7.379  0.5492  0.2356  0.2017
  466MOL0     C62794   5.906   2.816   7.427  0.2427  0.0118  0.3422
  466MOL0     C62795   5.766   2.806   7.374 -0.0978  0.2353 -0.4597
  466MOL0     C62796   5.741   2.907   7.258  0.4919  0.6473  0.3437
  466MOL0     C62797   5.824   2.874   7.133 -0.4513 -0.5799 -0.4072
  466MOL0     C62798   5.789   2.975   7.023  1.1868  0.3271  0.7710
  466MOL0     O62799   5.665   2.933   6.965 -0.2290  0.6361 -0.3088
  466MOL0     C62800   5.658   2.835   6.868 -0.0275 -0.7872  0.5130
  466MOL0     C62801   5.758   2.758   6.818 -0.6042  1.3494  0.2956
  466MOL0     C62802   5.742   2.660   6.714  0.2509  0.7781 -0.4584
  466MOL0     C62803   5.862   2.574   6.669  0.4929  0.4416 -0.5983
  466MOL0     C62804   5.618   2.639   6.658  0.0831 -0.0105  0.2258
  466MOL0     C62805   5.586   2.523   6.582  0.6989 -0.1859  0.4847
  466MOL0     O62806   5.652   2.397   6.593  0.2878 -0.3306 -0.2270
  466MOL0     C62807   5.565   2.299   6.654 -0.3540 -0.6116  0.2452
  466MOL0     C62808   5.447   2.320   6.726 -0.1847 -0.7426  0.5080
  466MOL0     C62809   5.386   2.217   6.797 -0.0406  0.0991 -0.8493
  466MOL0     C62810   5.451   2.091   6.810 -0.3491  0.6768  0.2860
  466MOL0     O62811   5.391   1.988   6.874  0.1340 -0.8060 -0.2356
  466MOL0     C62812   5.391   1.851   6.831  0.4493 -0.1925  0.0420
  466MOL0     C62813   5.260   1.783   6.858  1.0602  0.7043 -0.4089
  466MOL0     C62814   5.253   1.634   6.825  0.1104  0.1650 -0.4168
  466MOL0     C62815   5.313   1.538   6.936 -0.9190  0.0764  0.1646
  466MOL0     C62816   5.318   1.392   6.889  0.7059  0.0591  0.8253
  466MOL0     C62817   5.184   1.330   6.868  0.1107 -0.0688 -0.4644
  466MOL0     C62818   5.186   1.177   6.866 -0.3307 -0.2549 -0.1700
  466MOL0     C62819   5.036   1.129   6.869  0.1887  0.5426  0.1909
  466MOL0    Cl62820   5.038   0.956   6.863  0.4904  0.7116  0.0779
  466MOL0     C62821   5.569   2.070   6.742  0.4030  0.4588 -0.2284
  466MOL0     C62822   5.628   2.169   6.668 -0.2433  0.4336  0.0967
  466MOL0     O62823   5.497   2.544   6.500  0.1048 -0.1690  1.5086
  466MOL0     C62824   5.520   2.728   6.702 -0.5089  0.3888 -0.2590
  466MOL0     C62825   5.538   2.815   6.803  0.3133  0.0954 -0.1579
  466MOL0     N62826   5.943   2.869   7.546  0.3137 -0.0198 -0.1560
  466MOL0     N62827   6.067   2.849   7.563 -0.8293  0.5185 -0.3451
  466MOL0     C62828   6.364   2.399   7.877  0.2069  0.3192 -0.0269
  466MOL0     C62829   6.221   2.377   7.857  0.9099  0.8505  0.6158
  466MOL0     C62830   5.826   2.350   7.674 -1.0011  0.0591  0.2874
  466MOL0     C62831   5.751   2.250   7.739 -0.4635  0.4267  1.1986
  466MOL0     C62832   5.611   2.242   7.717 -0.2762 -0.3105 -0.6086
  466MOL0     C62833   5.539   2.335   7.635 -0.3549 -0.2137 -1.0232
  466MOL0     O62834   5.402   2.333   7.611 -0.2225  0.4262 -0.2946
  466MOL0     C62835   5.331   2.231   7.678  0.1339 -0.5198  0.1729
  466MOL0     C62836   5.182   2.225   7.635  1.1419  0.1460  0.7684
  466MOL0     C62837   5.125   2.091   7.687  0.5439 -0.6560  0.5812
  466MOL0     C62838   4.979   2.069   7.656  0.9426  0.2164 -0.2926
  466MOL0     C62839   4.946   2.081   7.513 -0.1383 -0.4848  0.8835
  466MOL0     C62840   4.938   2.088   7.388  0.6059  0.1791 -1.1770
  466MOL0     C62841   5.612   2.442   7.568 -0.0160  1.3159 -0.8212
  466MOL0     C62842   5.751   2.447   7.599  0.4114 -0.1029  0.5976
  466MOL0     H62843   6.244   2.142   7.617 -0.0381 -0.1861  1.2770
  466MOL0     H62844   6.480   2.152   7.664 -2.0309  0.4123 -3.0074
  466MOL0     H62845   6.594   2.457   8.007  0.3934 -0.7456 -0.0388
  466MOL0     H62846   6.746   2.402   7.930 -0.5677  0.2886  0.3933
  466MOL0     H62847   6.535   2.595   7.815 -0.1108  2.8895  2.7841
  466MOL0     H62848   6.693   2.646   7.884  3.6016 -1.8717 -1.8615
  466MOL0     H62849   6.826   2.565   7.723  0.1645  3.7092  0.0200
  466MOL0     H62850   6.689   2.465   7.645 -0.0568  1.2713 -2.3411
  466MOL0     H62851   6.752   2.744   7.598 -1.9194  1.5110  0.2994
  466MOL0     H62852   6.725   2.594   7.494  0.1823 -1.7871  1.3653
  466MOL0     H62853   6.505   2.744   7.648  0.5187  1.1826  0.8939
  466MOL0     H62854   6.522   2.771   7.468 -0.1799 -0.6320  0.3717
  466MOL0     H62855   6.479   2.550   7.421  2.0290  1.9261  0.7931
  466MOL0     H62856   6.476   2.495   7.586  2.7039 -1.8180 -1.5670
  466MOL0     H62857   6.243   2.543   7.521  0.2241  0.0833  2.4447
  466MOL0     H62858   6.289   2.647   7.643 -3.0914 -0.4916 -0.6467
  466MOL0     H62859   6.287   2.736   7.351 -2.2256  0.9354 -0.3060
  466MOL0     H62860   6.330   2.838   7.487 -0.5154  0.2477 -0.6499
  466MOL0     H62861   6.031   2.716   7.283 -0.1403 -2.6590  1.5944
  466MOL0     H62862   5.744   2.704   7.341 -1.6649 -0.7194  3.0780
  466MOL0     H62863   5.690   2.822   7.451 -0.0721 -1.5807 -0.0235
  466MOL0     H62864   5.746   3.013   7.284 -1.4708  1.1448 -1.0603
  466MOL0     H62865   5.640   2.883   7.222  1.2968  0.1644 -1.7293
  466MOL0     H62866   5.818   2.768   7.107 -0.0587 -0.8579  0.6202
  466MOL0     H62867   5.929   2.887   7.162  0.4509 -0.3049 -3.4161
  466MOL0     H62868   5.857   2.989   6.939 -0.9534  0.5344 -1.0084
  466MOL0     H62869   5.767   3.071   7.070 -2.3352 -1.5376  3.3944
  466MOL0     H62870   5.858   2.768   6.859 -0.8341 -0.9885  1.5993
  466MOL0     H62871   5.954   2.610   6.716  0.1656  2.1905 -1.1981
  466MOL0     H62872   5.843   2.468   6.689 -1.6108  0.8077 -0.3873
  466MOL0     H62873   5.867   2.585   6.561 -1.0273 -1.6175 -0.9415
  466MOL0     H62874   5.395   2.415   6.717 -0.0769 -0.6345  1.0333
  466MOL0     H62875   5.303   2.245   6.861 -0.2629  6.8138 -3.2838
  466MOL0     H62876   5.421   1.834   6.727  0.1798 -2.7054  0.3112
  466MOL0     H62877   5.470   1.797   6.884  0.3195 -0.1705  0.2593
  466MOL0     H62878   5.229   1.798   6.962 -0.4606 -2.4842 -0.3042
  466MOL0     H62879   5.181   1.834   6.801  0.5793 -0.4952 -0.8298
  466MOL0     H62880   5.305   1.608   6.732 -0.3195 -0.7025 -0.4261
  466MOL0     H62881   5.149   1.605   6.807 -0.6717  2.5849 -0.1780
  466MOL0     H62882   5.415   1.572   6.959 -1.2960  0.3217  1.6041
  466MOL0     H62883   5.265   1.549   7.034  1.0484 -2.0223  1.4682
  466MOL0     H62884   5.359   1.338   6.975  1.4457 -1.6909 -0.5646
  466MOL0     H62885   5.384   1.378   6.803 -0.1695 -3.9092  0.5922
  466MOL0     H62886   5.122   1.357   6.954 -0.2272 -0.9076 -0.4382
  466MOL0     H62887   5.131   1.372   6.782  2.5243  0.2576 -1.9008
  466MOL0     H62888   5.235   1.131   6.952  0.2324 -1.0536 -0.8949
  466MOL0     H62889   5.235   1.153   6.771 -2.2514 -1.0382 -1.0075
  466MOL0     H62890   4.966   1.166   6.794 -1.1303 -1.2939  0.4512
  466MOL0     H62891   5.000   1.155   6.969 -2.3449  2.4528 -1.1258
  466MOL0     H62892   5.612   1.971   6.755  0.5879  0.6060  0.3066
  466MOL0     H62893   5.720   2.160   6.610  0.5620 -0.6600  1.4935
  466MOL0     H62894   5.417   2.713   6.671 -0.7717 -2.1822  1.5411
  466MOL0     H62895   5.449   2.870   6.829 -0.2139 -1.0635  0.5959
  466MOL0     H62896   6.397   2.467   7.955 -0.9907 -0.3656  1.1155
  466MOL0     H62897   6.133   2.418   7.905 -4.5164 -6.8882 -0.7121
  466MOL0     H62898   5.802   2.169   7.792  1.9275  0.3429 -1.0042
  466MOL0     H62899   5.562   2.157   7.763 -0.3657  0.1573  0.1821
  466MOL0     H62900   5.379   2.137   7.651 -1.3111 -1.0903 -0.5130
  466MOL0     H62901   5.335   2.239   7.787 -2.4329 -4.5596  0.7752
  466MOL0     H62902   5.173   2.222   7.526 -2.0513 -4.7379  0.8449
  466MOL0     H62903   5.110   2.301   7.669 -0.9816 -0.6090 -1.6753
  466MOL0     H62904   5.132   2.090   7.796  0.2436  1.5537  0.6673
  466MOL0     H62905   5.177   2.012   7.632 -0.3285 -0.9200  0.1107
  466MOL0     H62906   4.911   2.140   7.704  2.1970  0.7851  0.6793
  466MOL0     H62907   4.938   1.976   7.698  1.0375  0.8393  1.2286
  466MOL0     H62908   4.946   2.104   7.282 -0.4854  1.0490 -1.1563
  466MOL0     H62909   5.549   2.509   7.510 -1.5621 -0.7238 -1.6553
  466MOL0     H62910   5.810   2.521   7.545 -0.9236  0.6815  0.1742
  467MOL0     O62911   3.494   7.538   6.500 -0.3698 -0.5891 -0.2576
  467MOL0     C62912   3.501   7.446   6.420 -0.6832 -0.5313  0.1383
  467MOL0     O62913   3.422   7.434   6.307 -0.5128 -0.9045 -0.6083
  467MOL0     C62914   3.362   7.547   6.251 -0.6563 -0.1646 -1.1770
  467MOL0     C62915   3.438   7.649   6.200  0.4585 -0.0883 -0.8652
  467MOL0     C62916   3.378   7.753   6.137  0.0145  0.3349 -0.2878
  467MOL0     C62917   3.238   7.751   6.126 -0.4209 -1.4842  0.0510
  467MOL0     O62918   3.175   7.871   6.081  0.5315 -0.0377 -0.4435
  467MOL0     C62919   3.033   7.880   6.053 -1.0997 -0.0247 -0.5028
  467MOL0     C62920   2.998   8.015   5.993  0.4373  0.4885 -0.6034
  467MOL0     C62921   2.851   8.049   6.026  0.5625  0.6108  1.0106
  467MOL0     C62922   2.757   7.973   5.939  0.6517  0.9543  0.7849
  467MOL0     C62923   2.622   8.049   5.928 -0.3071 -0.6003 -0.1223
  467MOL0     C62924   2.526   7.973   5.835 -0.0009 -0.2727 -0.3179
  467MOL0     C62925   2.386   8.048   5.840 -0.6990 -0.0065  0.5566
  467MOL0     C62926   2.318   8.051   5.973  0.9641  0.3830  0.5628
  467MOL0     N62927   2.180   8.102   5.968 -0.5041  0.0926  0.2065
  467MOL0     C62928   2.137   8.236   5.953 -0.0948  0.2596  0.7973
  467MOL0     C62929   2.007   8.229   5.968  0.7967  0.2787 -0.4560
  467MOL0     C62930   1.917   8.345   5.947  0.1240  1.2950  0.4293
  467MOL0     C62931   1.906   8.371   5.794  0.8428 -0.5692 -0.6173
  467MOL0     C62932   1.765   8.334   5.746  0.1278 -0.2307  0.2352
  467MOL0     C62933   1.751   8.351   5.593  0.9408  0.5645  0.4260
  467MOL0     O62934   1.619   8.302   5.546  0.1783  0.3705 -0.4465
  467MOL0     C62935   1.507   8.384   5.560  0.8216  0.5672  0.6052
  467MOL0     C62936   1.380   8.309   5.560 -0.4531  0.3624  0.4916
  467MOL0     C62937   1.260   8.372   5.564  0.3292  0.4443 -0.4421
  467MOL0     C62938   1.128   8.292   5.570 -0.0407  0.2103  0.6291
  467MOL0     C62939   1.262   8.519   5.576 -0.1320 -0.0348  0.0946
  467MOL0     C62940   1.139   8.599   5.598  0.2591 -0.5618 -0.7552
  467MOL0     O62941   1.019   8.540   5.565 -0.1325  0.1505  0.1809
  467MOL0     C62942   0.899   8.605   5.594 -0.1038  0.6425  0.4382
  467MOL0     C62943   0.826   8.566   5.704 -0.3688 -0.1771  0.2918
  467MOL0     C62944   0.694   8.619   5.729 -0.0152 -0.3612  0.4122
  467MOL0     C62945   0.654   8.729   5.649 -0.6761 -0.1757  0.9391
  467MOL0     O62946   0.543   8.801   5.668  0.2034 -0.1971  0.3978
  467MOL0     C62947   0.563   8.922   5.743  1.1673 -0.0616  0.3934
  467MOL0     C62948   0.476   8.944   5.861  0.6636  0.2400  0.2291
  467MOL0     C62949   0.501   9.078   5.931 -0.1821  0.3561  0.6362
  467MOL0     C62950   0.394   9.136   6.027  0.4043 -0.8211  0.2373
  467MOL0     C62951   0.352   9.056   6.162 -0.0578  0.4155  0.0457
  467MOL0     C62952   0.459   9.027   6.263  0.5040 -0.4112 -0.6271
  467MOL0     C62953   0.424   8.921   6.375 -0.0507  0.4566 -0.4362
  467MOL0     C62954   0.540   8.849   6.440 -0.1552  0.5682 -0.4983
  467MOL0    Cl62955   0.489   8.715   6.548  0.3062  0.3116  0.2471
  467MOL0     C62956   0.737   8.772   5.537 -0.3410 -0.6064  0.0541
  467MOL0     C62957   0.857   8.701   5.502  0.2169  0.2593 -0.5821
  467MOL0     O62958   1.148   8.712   5.646  0.2571  0.3579  0.0745
  467MOL0     C62959   1.389   8.582   5.567 -0.0296 -0.2018  0.0021
  467MOL0     C62960   1.507   8.522   5.555  0.4042  0.1452 -0.1500
  467MOL0     N62961   1.968   8.100   6.006  0.1202 -0.7044 -0.5414
  467MOL0     N62962   2.073   8.026   5.982 -0.8094 -0.1050 -0.3461
  467MOL0     C62963   3.166   7.652   6.191 -0.3853  0.4899 -0.0298
  467MOL0     C62964   3.225   7.549   6.260 -0.3492  0.3537  0.4915
  467MOL0     C62965   3.573   7.320   6.459  0.3028 -0.0118  0.6137
  467MOL0     C62966   3.633   7.302   6.583 -0.1814  0.1012 -0.5141
  467MOL0     C62967   3.669   7.179   6.631 -0.1606  0.3487 -0.1701
  467MOL0     C62968   3.665   7.067   6.550  0.6631 -0.4483  0.2503
  467MOL0     O62969   3.706   6.950   6.613  0.2768 -0.6058  0.1313
  467MOL0     C62970   3.706   6.826   6.545 -0.3213 -0.0196  0.6392
  467MOL0     C62971   3.581   6.747   6.577  0.5993 -0.5978 -0.3009
  467MOL0     C62972   3.576   6.694   6.723 -0.2272  0.0320  0.0385
  467MOL0     C62973   3.458   6.601   6.754  0.5587  0.5626  0.6917
  467MOL0     C62974   3.469   6.546   6.892 -0.0852 -0.7897  0.1488
  467MOL0     C62975   3.483   6.521   7.008  0.1127 -0.2043 -0.0532
  467MOL0     C62976   3.584   7.069   6.434  0.0282 -0.3759  0.4955
  467MOL0     C62977   3.540   7.200   6.387  0.5391  0.7120 -0.7460
  467MOL0     H62978   3.544   7.647   6.222  0.1908 -3.5264  0.7464
  467MOL0     H62979   3.436   7.838   6.101 -1.8528  2.0399  0.5385
  467MOL0     H62980   2.999   7.808   5.978 -0.1263 -1.7532  0.6643
  467MOL0     H62981   2.970   7.868   6.141 -1.5775  1.0774 -0.6799
  467MOL0     H62982   3.065   8.087   6.041  1.9436 -1.7430  0.8271
  467MOL0     H62983   3.007   8.015   5.884  2.4413 -1.1480 -0.5036
  467MOL0     H62984   2.828   8.023   6.130  3.5107  2.1241  2.1659
  467MOL0     H62985   2.848   8.157   6.011 -2.8359  0.3110 -1.4529
  467MOL0     H62986   2.790   7.935   5.841 -1.4212 -0.1840  0.4581
  467MOL0     H62987   2.740   7.876   5.986  2.0585  0.8130  1.0501
  467MOL0     H62988   2.588   8.054   6.032  1.1539 -1.5805  0.4293
  467MOL0     H62989   2.635   8.149   5.884 -0.1933  0.3120  1.8716
  467MOL0     H62990   2.558   7.985   5.732 -0.1231  2.7811 -0.1196
  467MOL0     H62991   2.513   7.868   5.864  1.9407 -1.3220 -2.9321
  467MOL0     H62992   2.398   8.153   5.814  0.0811 -0.5905 -1.6483
  467MOL0     H62993   2.313   8.014   5.766  1.4147  1.2185 -2.2494
  467MOL0     H62994   2.378   8.116   6.037 -1.7349  1.4162  2.2068
  467MOL0     H62995   2.315   7.952   6.018  2.9049 -0.7127 -1.5075
  467MOL0     H62996   2.183   8.327   5.916  2.0833 -1.1146 -0.0619
  467MOL0     H62997   1.826   8.320   6.003  0.6086  0.5397  0.8994
  467MOL0     H62998   1.965   8.425   6.005  2.7342 -1.1248  1.8763
  467MOL0     H62999   1.974   8.321   5.725  2.0607 -0.7235  0.6434
  467MOL0     H63000   1.923   8.479   5.783  0.1005 -0.2444  1.1225
  467MOL0     H63001   1.693   8.401   5.795  0.8584  0.0337  0.9707
  467MOL0     H63002   1.742   8.228   5.765 -0.7177 -0.1067 -0.0502
  467MOL0     H63003   1.836   8.296   5.551  0.4711 -0.2202  0.4799
  467MOL0     H63004   1.761   8.458   5.573  0.6152  0.6675  0.7954
  467MOL0     H63005   1.391   8.202   5.547 -1.5615 -0.0136  2.3488
  467MOL0     H63006   1.064   8.307   5.483  1.5164 -0.9037 -0.7526
  467MOL0     H63007   1.149   8.185   5.581  0.3953  0.3062  0.7661
  467MOL0     H63008   1.065   8.308   5.658  0.6554 -2.1698  1.6495
  467MOL0     H63009   0.872   8.485   5.760  2.3886  3.8116  4.5316
  467MOL0     H63010   0.631   8.584   5.811 -1.1535 -0.3240 -0.4260
  467MOL0     H63011   0.670   8.937   5.764  0.9952  2.2919 -0.2209
  467MOL0     H63012   0.534   9.007   5.681 -1.3174 -0.5436  0.8176
  467MOL0     H63013   0.370   8.960   5.836  1.2751  1.7427 -1.6679
  467MOL0     H63014   0.486   8.859   5.928  1.5483 -0.6835 -1.0244
  467MOL0     H63015   0.513   9.143   5.843 -0.6576 -1.3852 -0.7604
  467MOL0     H63016   0.597   9.068   5.984 -0.0477 -0.4859  0.2483
  467MOL0     H63017   0.432   9.233   6.062  4.0036 -2.1699  0.4550
  467MOL0     H63018   0.305   9.148   5.966  0.0159 -0.3156  0.8777
  467MOL0     H63019   0.304   8.964   6.129  1.4826 -1.2576  2.2182
  467MOL0     H63020   0.276   9.119   6.209 -0.2970 -0.5116  0.9190
  467MOL0     H63021   0.549   8.995   6.210  0.4458 -0.8510 -0.4638
  467MOL0     H63022   0.470   9.127   6.307 -0.0524 -0.4577 -0.3770
  467MOL0     H63023   0.372   8.836   6.331  0.6492 -0.9151  1.2735
  467MOL0     H63024   0.365   8.962   6.457 -1.3122 -4.5730  1.5573
  467MOL0     H63025   0.595   8.925   6.497 -2.9716  3.5794 -1.4933
  467MOL0     H63026   0.595   8.820   6.350 -1.0459  0.2479 -0.9436
  467MOL0     H63027   0.707   8.860   5.482  1.2667 -0.0374  0.0152
  467MOL0     H63028   0.931   8.722   5.426  1.8337  0.9399  1.1164
  467MOL0     H63029   1.392   8.690   5.559  1.2207 -0.3358 -1.7367
  467MOL0     H63030   1.596   8.577   5.530 -0.7206  1.0530 -2.3861
  467MOL0     H63031   3.059   7.667   6.198 -0.3735  4.8794 -4.3181
  467MOL0     H63032   3.168   7.466   6.302  1.5762 -1.3750 -0.1356
  467MOL0     H63033   3.647   7.380   6.657 -0.8114 -0.0426 -0.2355
  467MOL0     H63034   3.704   7.185   6.734 -1.4108 -0.0647  0.3043
  467MOL0     H63035   3.719   6.835   6.437  2.2243 -1.4224  0.7460
  467MOL0     H63036   3.796   6.776   6.581  1.2946  1.9731 -0.4260
  467MOL0     H63037   3.566   6.666   6.505 -0.8332 -0.7054  0.0799
  467MOL0     H63038   3.491   6.810   6.574  0.4909 -0.6004  1.7016
  467MOL0     H63039   3.592   6.771   6.799 -1.1805 -2.6621  3.1837
  467MOL0     H63040   3.659   6.623   6.731 -1.1709 -1.1675 -0.5228
  467MOL0     H63041   3.459   6.514   6.688 -1.7835  0.8614  0.1686
  467MOL0     H63042   3.361   6.648   6.733  0.6828 -0.1038 -1.7133
  467MOL0     H63043   3.493   6.502   7.113  0.4963 -1.7020 -0.3241
  467MOL0     H63044   3.563   6.977   6.381 -1.1173  0.9481 -1.4540
  467MOL0     H63045   3.493   7.205   6.290 -0.4182  1.0984 -0.2782
  468MOL0     O63046   9.763   2.206   8.782 -0.2559 -0.2149  0.6657
  468MOL0     C63047   9.849   2.281   8.824  0.2727 -0.4573 -0.3644
  468MOL0     O63048   9.842   2.356   8.940  0.1854  0.4883 -0.2620
  468MOL0     C63049   9.721   2.363   9.004  0.1384 -0.3997 -1.0248
  468MOL0     C63050   9.672   2.490   9.013 -0.4041 -0.2254  0.1190
  468MOL0     C63051   9.553   2.524   9.079 -0.3799  0.2299 -0.1439
  468MOL0     C63052   9.473   2.421   9.122 -0.4100 -0.6374 -0.2877
  468MOL0     O63053   9.344   2.437   9.167  0.3523 -0.2703  0.0568
  468MOL0     C63054   9.297   2.559   9.207  0.3520 -0.1010 -0.4400
  468MOL0     C63055   9.342   2.597   9.345 -0.5160 -0.1097  0.2474
  468MOL0     C63056   9.303   2.489   9.448 -0.1107 -0.0197 -0.2491
  468MOL0     C63057   9.164   2.450   9.468  1.3361  0.0134 -0.4167
  468MOL0     C63058   9.145   2.355   9.589 -0.2374 -0.3476  0.3007
  468MOL0     C63059   8.993   2.352   9.627  0.2347  0.0554 -0.2591
  468MOL0     C63060   8.895   2.278   9.527  0.0791 -0.2003  0.5276
  468MOL0     C63061   8.746   2.263   9.577 -0.3400  0.3809 -0.2938
  468MOL0     N63062   8.698   2.379   9.666  0.6090 -0.7956 -0.5710
  468MOL0     C63063   8.694   2.506   9.639  0.5253 -0.7774  0.3960
  468MOL0     C63064   8.644   2.570   9.747  0.7069 -0.6996 -0.1187
  468MOL0     C63065   8.619   2.716   9.770  0.2542 -0.1267 -0.0671
  468MOL0     C63066   8.483   2.753   9.705 -0.0220  0.1200 -0.2033
  468MOL0     C63067   8.419   2.882   9.757 -0.2284 -0.0987  0.3054
  468MOL0     C63068   8.284   2.903   9.691 -0.6492  0.0270  0.3155
  468MOL0     O63069   8.213   2.789   9.736  0.0572 -0.2235  0.0128
  468MOL0     C63070   8.086   2.804   9.773  0.0691 -0.7619  0.9960
  468MOL0     C63071   8.031   2.689   9.820  0.1054  0.4804 -0.1770
  468MOL0     C63072   7.897   2.684   9.866 -0.7839  0.4060 -0.7181
  468MOL0     C63073   7.858   2.543   9.894  0.1875 -0.8768 -1.0530
  468MOL0     C63074   7.820   2.801   9.863  0.7658 -0.1794 -0.0257
  468MOL0     C63075   7.675   2.801   9.910 -0.6361  0.6927 -0.3164
  468MOL0     O63076   7.606   2.922   9.926 -0.2433  0.5170 -0.3458
  468MOL0     C63077   7.491   2.908   9.997  0.0949  0.3119 -0.1781
  468MOL0     C63078   7.378   2.967   9.938  0.1232  0.0808  0.7325
  468MOL0     C63079   7.248   2.969  10.000  0.5615 -0.4930  0.1321
  468MOL0     C63080   7.239   2.930  10.133 -0.3993  0.0666  1.2296
  468MOL0     O63081   7.117   2.922  10.194  0.0859 -0.3412 -0.0998
  468MOL0     C63082   7.001   2.872  10.126  0.1581 -0.1295 -0.1824
  468MOL0     C63083   6.878   2.879  10.217  0.1375  0.0646 -0.8221
  468MOL0     C63084   6.746   2.879  10.148  0.0285  0.5790  0.4448
  468MOL0     C63085   6.622   2.872  10.255  0.3052 -0.5756 -0.2094
  468MOL0     C63086   6.495   2.942  10.199 -0.1054  0.8375  0.2069
  468MOL0     C63087   6.382   2.912  10.299 -0.7545 -0.8149 -0.0217
  468MOL0     C63088   6.249   2.985  10.258 -0.3313 -0.7268  0.1265
  468MOL0     C63089   6.183   2.940  10.128 -0.1189 -0.1838  0.0194
  468MOL0    Cl63090   6.255   3.022   9.983 -0.0173 -0.4570 -0.4445
  468MOL0     C63091   7.350   2.874  10.196  0.3790  0.4226 -0.7729
  468MOL0     C63092   7.478   2.867  10.132  0.2819 -0.2871  0.1186
  468MOL0     O63093   7.622   2.687   9.925 -0.1802  0.1314 -0.3348
  468MOL0     C63094   7.870   2.912   9.804  0.1255  0.7340 -0.2077
  468MOL0     C63095   8.001   2.922   9.755  0.5159  0.6754 -0.0667
  468MOL0     N63096   8.606   2.470   9.834  0.2691 -0.7095 -0.1289
  468MOL0     N63097   8.635   2.363   9.782  1.1007  0.2681 -0.2995
  468MOL0     C63098   9.519   2.288   9.116 -0.6305  0.4051 -0.9068
  468MOL0     C63099   9.650   2.258   9.071 -0.1396 -0.4359 -0.0471
  468MOL0     C63100   9.970   2.295   8.736 -0.1396  0.3826 -0.1276
  468MOL0     C63101   9.966   2.239   8.609  0.0817 -0.0366  0.1373
  468MOL0     C63102  10.078   2.245   8.523 -0.5918 -0.2634 -0.3073
  468MOL0     C63103  10.199   2.314   8.575  0.3188  0.3362  0.3051
  468MOL0     O63104  10.318   2.307   8.505 -0.1595  0.8387  0.1425
  468MOL0     C63105  10.313   2.297   8.363 -0.0793  0.5958  0.6503
  468MOL0     C63106  10.376   2.171   8.308 -0.7921 -0.1006  0.6220
  468MOL0     C63107  10.526   2.168   8.332  0.2857  0.4959 -0.4484
  468MOL0     C63108  10.632   2.120   8.231  0.9555 -0.5942  0.4371
  468MOL0     C63109  10.661   1.974   8.238 -0.4262  0.4305 -0.3955
  468MOL0     C63110  10.683   1.852   8.227  0.2178  0.4804  0.1567
  468MOL0     C63111  10.197   2.370   8.702 -0.3440 -0.1459 -0.1006
  468MOL0     C63112  10.080   2.369   8.779  0.5464  0.1801 -0.1533
  468MOL0     H63113   9.730   2.570   8.968  0.1754 -1.0081 -0.5531
  468MOL0     H63114   9.519   2.627   9.072  0.3237  0.3690 -2.9155
  468MOL0     H63115   9.324   2.638   9.135  1.0244  0.9162  0.8814
  468MOL0     H63116   9.188   2.561   9.198 -0.2240 -3.0328  3.4624
  468MOL0     H63117   9.450   2.609   9.361 -0.8505  0.7014  2.0727
  468MOL0     H63118   9.301   2.696   9.364 -0.8728  0.1272 -1.5451
  468MOL0     H63119   9.371   2.407   9.426  1.6104  0.9403  1.2105
  468MOL0     H63120   9.351   2.532   9.535 -0.1646 -1.1537  0.3566
  468MOL0     H63121   9.103   2.538   9.491  0.8179 -0.1524 -1.1212
  468MOL0     H63122   9.127   2.414   9.371  1.0772  1.5139 -0.8896
  468MOL0     H63123   9.182   2.257   9.557 -0.2962  0.0925 -1.1888
  468MOL0     H63124   9.198   2.395   9.676 -0.1060 -1.6029  0.8252
  468MOL0     H63125   9.005   2.293   9.719  3.2935  1.0281  0.0634
  468MOL0     H63126   8.955   2.451   9.652  0.3563  0.1948 -0.6241
  468MOL0     H63127   8.892   2.345   9.440  1.4554 -2.5873 -1.4756
  468MOL0     H63128   8.936   2.180   9.503  1.4607  0.5413 -0.2707
  468MOL0     H63129   8.743   2.170   9.635 -1.9052  1.1085  0.8664
  468MOL0     H63130   8.677   2.242   9.495  2.2954 -1.3538 -2.2574
  468MOL0     H63131   8.729   2.551   9.547 -0.8959 -0.4384  0.0060
  468MOL0     H63132   8.617   2.746   9.875 -1.0332  2.9147 -0.8468
  468MOL0     H63133   8.701   2.772   9.723 -0.7712 -0.9227 -3.0064
  468MOL0     H63134   8.424   2.664   9.731  0.1589  0.1730  0.4243
  468MOL0     H63135   8.502   2.757   9.598  1.4215  0.5803  0.0436
  468MOL0     H63136   8.486   2.961   9.722 -0.6026  0.1374  0.1131
  468MOL0     H63137   8.399   2.876   9.864  3.5225 -3.3886  1.0279
  468MOL0     H63138   8.278   2.910   9.582 -2.7847  0.7556  0.4344
  468MOL0     H63139   8.237   2.994   9.730 -1.0372  0.3041 -0.7666
  468MOL0     H63140   8.093   2.600   9.816 -1.7821 -0.9505  0.6984
  468MOL0     H63141   7.939   2.482   9.853 -0.7093  0.6139 -5.5902
  468MOL0     H63142   7.839   2.521  10.000  0.8376 -2.1378 -1.1744
  468MOL0     H63143   7.774   2.516   9.829  0.7170 -0.2731 -2.0145
  468MOL0     H63144   7.391   3.015   9.841 -1.4701 -2.0469 -0.6308
  468MOL0     H63145   7.168   3.014   9.942  0.8900 -0.6318 -0.4238
  468MOL0     H63146   6.992   2.919  10.028  0.0772 -0.6163 -0.4104
  468MOL0     H63147   7.027   2.768  10.101 -1.1135 -0.6931  0.7134
  468MOL0     H63148   6.874   2.800  10.293 -1.5756 -0.1789 -1.1309
  468MOL0     H63149   6.873   2.972  10.273 -1.0300  0.3268 -1.3513
  468MOL0     H63150   6.739   2.787  10.088  2.0505  0.3253  0.5187
  468MOL0     H63151   6.747   2.973  10.091  0.3669  1.1255  1.3405
  468MOL0     H63152   6.613   2.767  10.286  2.1859 -0.8848 -0.5892
  468MOL0     H63153   6.652   2.930  10.343 -1.0524  2.0887 -1.3823
  468MOL0     H63154   6.476   2.906  10.098 -1.4604 -0.0972  0.7565
  468MOL0     H63155   6.509   3.048  10.179 -3.9685  1.5017  0.1527
  468MOL0     H63156   6.365   2.804  10.301 -0.1293 -0.9100  2.2535
  468MOL0     H63157   6.407   2.954  10.396  0.6844  4.0325 -2.1912
  468MOL0     H63158   6.261   3.093  10.265 -0.8704 -0.6296 -0.4607
  468MOL0     H63159   6.180   2.965  10.340  1.6621 -2.1951  1.5790
  468MOL0     H63160   6.077   2.964  10.135 -0.3263 -1.3049  0.8983
  468MOL0     H63161   6.187   2.833  10.107  0.7294 -0.2529  0.4762
  468MOL0     H63162   7.345   2.831  10.295 -3.5298 -0.5110 -1.1967
  468MOL0     H63163   7.568   2.834  10.183  0.9830 -0.3596 -1.1254
  468MOL0     H63164   7.807   2.999   9.789  0.5630  0.7979 -1.9547
  468MOL0     H63165   8.031   3.021   9.723  0.0151  0.6264 -0.7062
  468MOL0     H63166   9.461   2.209   9.162  3.6192 -1.6220  1.6121
  468MOL0     H63167   9.701   2.162   9.082  3.7717  1.4152 -0.5635
  468MOL0     H63168   9.879   2.189   8.565  0.8530  0.5977 -2.2369
  468MOL0     H63169  10.073   2.183   8.433  1.1410  1.1805 -1.4692
  468MOL0     H63170  10.211   2.307   8.325  0.7886  3.1677 -1.2707
  468MOL0     H63171  10.352   2.388   8.317 -2.1889  1.6868  0.9330
  468MOL0     H63172  10.368   2.163   8.199  2.2034 -1.3833  0.3986
  468MOL0     H63173  10.319   2.089   8.353 -0.5966 -1.3897 -1.3379
  468MOL0     H63174  10.536   2.102   8.418  0.8638 -0.2853 -1.0950
  468MOL0     H63175  10.572   2.264   8.357  1.5330 -0.5066  1.3082
  468MOL0     H63176  10.726   2.172   8.246  1.0203 -0.8952  1.0986
  468MOL0     H63177  10.603   2.158   8.132 -0.6855 -2.6516  0.0411
  468MOL0     H63178  10.709   1.750   8.243 -1.0551  0.3442  1.5376
  468MOL0     H63179  10.296   2.405   8.731 -0.2748  1.2811 -1.8910
  468MOL0     H63180  10.079   2.418   8.875  2.6450  0.2601 -0.1299
  469MOL0     O63181   8.417   3.274   6.300 -0.3366 -0.8158  0.0715
  469MOL0     C63182   8.506   3.364   6.297  0.8448  1.0014 -1.0526
  469MOL0     O63183   8.503   3.468   6.213  0.9842 -0.2718  0.3006
  469MOL0     C63184   8.407   3.476   6.110 -0.2742  0.6664  0.1987
  469MOL0     C63185   8.308   3.569   6.121 -0.4520 -0.0631  0.6865
  469MOL0     C63186   8.210   3.583   6.018  0.5033 -0.1867  0.3442
  469MOL0     C63187   8.210   3.491   5.914  0.0802  0.2969  0.4195
  469MOL0     O63188   8.112   3.509   5.823  0.3907  0.4786  0.4576
  469MOL0     C63189   8.097   3.443   5.701 -0.4952 -0.3924 -0.0634
  469MOL0     C63190   7.963   3.471   5.645  0.3652 -0.1972  0.4118
  469MOL0     C63191   7.854   3.373   5.705  0.8063 -0.9689  0.7992
  469MOL0     C63192   7.711   3.409   5.659 -0.5698 -0.4940  0.6036
  469MOL0     C63193   7.612   3.324   5.734 -0.0017 -1.1589 -0.4865
  469MOL0     C63194   7.612   3.171   5.706 -0.2981 -0.6848 -0.3263
  469MOL0     C63195   7.545   3.097   5.823  1.5019  0.1175  0.5760
  469MOL0     C63196   7.516   2.952   5.766 -0.0256 -0.2219 -0.4059
  469MOL0     N63197   7.374   2.938   5.776  0.5369  0.4117 -0.9277
  469MOL0     C63198   7.311   2.886   5.880 -0.1589 -0.2641  0.2403
  469MOL0     C63199   7.187   2.893   5.845 -0.3807  0.1460  0.9298
  469MOL0     C63200   7.075   2.857   5.915  0.3101 -0.2359 -0.7813
  469MOL0     C63201   6.984   2.733   5.878  0.1145  0.4331 -0.1352
  469MOL0     C63202   7.061   2.603   5.900  0.0484  0.4192 -0.5673
  469MOL0     C63203   7.085   2.565   6.048 -0.6448 -0.1889  0.6965
  469MOL0     O63204   7.103   2.421   6.066 -0.6578  0.0833 -0.3104
  469MOL0     C63205   6.996   2.340   6.069  0.1340  0.1155 -1.1060
  469MOL0     C63206   6.893   2.343   6.164 -0.1402  1.2201 -0.5286
  469MOL0     C63207   6.799   2.235   6.167  0.7012 -0.8155  0.5083
  469MOL0     C63208   6.691   2.242   6.272 -0.6933  0.6320 -0.1869
  469MOL0     C63209   6.818   2.132   6.079  0.0681  0.2689  0.9845
  469MOL0     C63210   6.718   2.015   6.068  0.5050 -0.1756 -0.0428
  469MOL0     O63211   6.587   2.040   6.091  0.2242 -0.1065 -0.5051
  469MOL0     C63212   6.502   1.927   6.099 -0.1824  0.2378 -0.4343
  469MOL0     C63213   6.493   1.858   5.972 -0.1739  0.3742  0.1300
  469MOL0     C63214   6.402   1.745   5.961  0.2220 -0.1522  0.1414
  469MOL0     C63215   6.305   1.717   6.055 -0.4075  0.9329 -0.0604
  469MOL0     O63216   6.202   1.624   6.037  0.2370 -0.3436 -0.5769
  469MOL0     C63217   6.219   1.537   5.926 -0.1057 -0.4658 -0.2385
  469MOL0     C63218   6.131   1.411   5.954  0.9545 -0.6885 -0.0714
  469MOL0     C63219   5.980   1.442   5.922  0.0016 -0.9988  0.5646
  469MOL0     C63220   5.919   1.584   5.959 -0.4970  0.7661  0.2909
  469MOL0     C63221   5.771   1.579   5.953 -0.7362  0.1843  1.2338
  469MOL0     C63222   5.688   1.535   5.822  0.3689 -0.0023  0.7197
  469MOL0     C63223   5.534   1.534   5.858  0.1826 -0.7755 -0.1258
  469MOL0     C63224   5.440   1.478   5.748  0.0549 -0.2679  0.4470
  469MOL0    Cl63225   5.264   1.497   5.792  0.0097 -0.0443  0.2385
  469MOL0     C63226   6.295   1.806   6.168  0.6706 -1.0813 -0.4985
  469MOL0     C63227   6.400   1.907   6.191 -0.2769 -0.7641 -0.0379
  469MOL0     O63228   6.765   1.909   6.021  0.3958 -0.1866 -0.2841
  469MOL0     C63229   6.926   2.130   5.990  0.0102 -0.3046 -0.7619
  469MOL0     C63230   7.025   2.230   5.990  0.0578  0.0044 -0.3551
  469MOL0     N63231   7.167   2.944   5.714 -0.5461  0.1953  0.3373
  469MOL0     N63232   7.286   2.977   5.675 -0.0296 -0.1838  0.5569
  469MOL0     C63233   8.312   3.388   5.909  0.8501 -1.0370 -0.3939
  469MOL0     C63234   8.414   3.383   6.004  0.1279 -0.3529 -1.5212
  469MOL0     C63235   8.628   3.355   6.381  0.8932 -0.6685  0.4417
  469MOL0     C63236   8.639   3.253   6.472 -0.1703 -0.7600  0.3492
  469MOL0     C63237   8.734   3.263   6.577 -0.4511 -0.1571  0.0487
  469MOL0     C63238   8.847   3.354   6.565  0.4298  0.5694 -0.3230
  469MOL0     O63239   8.957   3.353   6.651 -1.0338 -0.1116  1.3721
  469MOL0     C63240   8.975   3.253   6.746 -1.3276 -0.8611  0.4075
  469MOL0     C63241   9.124   3.257   6.798  0.7463  0.5634 -0.0923
  469MOL0     C63242   9.155   3.393   6.858 -0.5075 -0.4831 -0.5157
  469MOL0     C63243   9.298   3.391   6.928 -0.0366 -0.3410 -0.6366
  469MOL0     C63244   9.295   3.326   7.060 -0.4055 -0.8286 -0.3726
  469MOL0     C63245   9.301   3.269   7.174  0.3567 -1.1744 -0.0392
  469MOL0     C63246   8.841   3.448   6.457  0.0250 -0.0196 -0.3547
  469MOL0     C63247   8.729   3.451   6.366 -0.4602  0.3342 -0.1115
  469MOL0     H63248   8.305   3.624   6.215  0.0418 -0.4558  0.9376
  469MOL0     H63249   8.135   3.661   6.025  0.4577 -0.3009  1.3200
  469MOL0     H63250   8.166   3.492   5.632 -3.1892  2.4383 -0.9657
  469MOL0     H63251   8.113   3.335   5.705 -1.4548 -0.5469  4.4460
  469MOL0     H63252   7.933   3.574   5.667 -1.0919 -0.4684 -0.2121
  469MOL0     H63253   7.970   3.458   5.537  2.6343  1.1195  0.3503
  469MOL0     H63254   7.877   3.275   5.662 -1.0429 -1.4312  0.8015
  469MOL0     H63255   7.860   3.383   5.814 -0.2271 -2.1587  0.9848
  469MOL0     H63256   7.691   3.513   5.685 -3.8628 -0.9260  0.1314
  469MOL0     H63257   7.694   3.399   5.551  2.5427 -4.5165  0.2398
  469MOL0     H63258   7.637   3.339   5.839  0.1544  2.6621 -0.9251
  469MOL0     H63259   7.516   3.375   5.726  1.1958  2.0812  3.0200
  469MOL0     H63260   7.560   3.149   5.613  3.5361  1.1592 -3.1692
  469MOL0     H63261   7.711   3.125   5.699  0.2664  0.3424  0.5726
  469MOL0     H63262   7.601   3.098   5.916  3.4246  1.8134 -0.5087
  469MOL0     H63263   7.454   3.151   5.849  0.6682 -1.2002  0.5095
  469MOL0     H63264   7.563   2.869   5.821  1.8120  1.3420  0.5466
  469MOL0     H63265   7.543   2.941   5.661  2.1831 -0.4269  0.1345
  469MOL0     H63266   7.348   2.839   5.971 -3.1411 -0.8201  1.2988
  469MOL0     H63267   7.099   2.832   6.019 -0.1222  1.1561 -0.3183
  469MOL0     H63268   7.001   2.937   5.931  0.0001 -0.8646  1.2644
  469MOL0     H63269   6.950   2.733   5.774 -1.4714 -1.8080  0.3005
  469MOL0     H63270   6.895   2.726   5.941  0.0221  2.1536 -0.0103
  469MOL0     H63271   7.158   2.600   5.850 -1.1008 -4.6217 -3.1233
  469MOL0     H63272   7.007   2.523   5.849 -0.3598  0.3863 -0.0967
  469MOL0     H63273   7.000   2.595   6.110 -0.2938 -1.8342  2.0291
  469MOL0     H63274   7.175   2.622   6.073 -2.1428  3.4683 -1.3914
  469MOL0     H63275   6.900   2.416   6.244  3.3578 -0.9007  1.3817
  469MOL0     H63276   6.702   2.334   6.331 -2.6363 -0.5708  2.2680
  469MOL0     H63277   6.598   2.244   6.215  0.4734  0.5840 -2.2037
  469MOL0     H63278   6.706   2.161   6.344  3.2357  0.9603 -0.3929
  469MOL0     H63279   6.573   1.882   5.903  0.6651 -1.6853  0.3105
  469MOL0     H63280   6.419   1.683   5.874 -0.6271  1.3211 -1.1221
  469MOL0     H63281   6.193   1.594   5.836 -3.2805 -0.0735  0.7934
  469MOL0     H63282   6.324   1.507   5.918  0.5148  1.7974 -1.3965
  469MOL0     H63283   6.169   1.332   5.889 -1.0157  1.4033 -4.1206
  469MOL0     H63284   6.148   1.385   6.059  2.0892  1.2371  0.2680
  469MOL0     H63285   5.924   1.370   5.981 -0.2868  1.4988  3.6260
  469MOL0     H63286   5.967   1.430   5.814  1.9210 -0.5842  0.2429
  469MOL0     H63287   5.948   1.610   6.061  1.9653 -1.3851  0.2369
  469MOL0     H63288   5.963   1.662   5.896  1.1870 -0.8818 -0.6783
  469MOL0     H63289   5.738   1.682   5.972  1.0935  1.2842 -1.0774
  469MOL0     H63290   5.735   1.517   6.036 -1.6736  0.3867  0.9882
  469MOL0     H63291   5.708   1.596   5.733 -1.1675  1.8313  1.5526
  469MOL0     H63292   5.719   1.431   5.807  1.3988  0.1937  1.3942
  469MOL0     H63293   5.515   1.640   5.878 -0.3626 -0.5586 -1.6231
  469MOL0     H63294   5.522   1.477   5.950 -0.3367  0.8632  0.8632
  469MOL0     H63295   5.448   1.369   5.742 -1.9822 -0.4525  0.3926
  469MOL0     H63296   5.462   1.513   5.647  0.8951 -1.0338  0.3454
  469MOL0     H63297   6.214   1.809   6.241  1.1368 -0.9926  0.0168
  469MOL0     H63298   6.385   1.964   6.283 -1.5391  1.1257 -1.3295
  469MOL0     H63299   6.952   2.048   5.924 -1.0195 -2.0257  0.8894
  469MOL0     H63300   7.120   2.218   5.940  0.0329 -1.5503 -0.0789
  469MOL0     H63301   8.309   3.311   5.833 -2.6280 -0.8733 -0.5504
  469MOL0     H63302   8.494   3.310   6.010  0.0642 -0.3301  1.3803
  469MOL0     H63303   8.567   3.171   6.471 -2.6385  1.2746  0.5897
  469MOL0     H63304   8.741   3.199   6.664  1.5608 -0.4000 -0.2433
  469MOL0     H63305   8.906   3.277   6.828 -1.8668  1.3385 -0.6275
  469MOL0     H63306   8.964   3.148   6.715  0.3253 -1.6938  2.3865
  469MOL0     H63307   9.186   3.248   6.708  1.1825 -0.9902  0.3276
  469MOL0     H63308   9.152   3.179   6.869 -0.5129  2.2837  2.4521
  469MOL0     H63309   9.087   3.422   6.938  1.6931  1.4516  0.7653
  469MOL0     H63310   9.151   3.459   6.771  1.0590  0.5928  0.1871
  469MOL0     H63311   9.336   3.493   6.938  2.0213 -0.9918 -1.4406
  469MOL0     H63312   9.373   3.341   6.867  0.5608  1.7444 -1.7007
  469MOL0     H63313   9.326   3.244   7.275  0.3318  2.6733  1.0982
  469MOL0     H63314   8.920   3.520   6.437  1.6100 -1.6479 -0.1225
  469MOL0     H63315   8.723   3.532   6.294  1.6644 -0.6183 -1.4740
  470MOL0     O63316   4.842   5.590   4.102  0.3000  0.0161 -0.1438
  470MOL0     C63317   4.874   5.482   4.142  0.6504  0.2800 -0.7571
  470MOL0     O63318   4.784   5.380   4.175 -0.1645  0.5015  0.2393
  470MOL0     C63319   4.647   5.396   4.176  0.9386  0.3150  0.4357
  470MOL0     C63320   4.577   5.518   4.202 -0.0208  0.8981  0.4230
  470MOL0     C63321   4.432   5.507   4.214 -0.5111 -0.4932 -0.2978
  470MOL0     C63322   4.374   5.382   4.211  0.1346 -0.4738 -0.0460
  470MOL0     O63323   4.239   5.364   4.233 -0.3547  0.0591 -1.0858
  470MOL0     C63324   4.160   5.375   4.117  0.2676 -0.8763  0.4075
  470MOL0     C63325   4.013   5.350   4.151  0.5718 -0.2570 -0.1979
  470MOL0     C63326   3.933   5.419   4.032 -0.3062  0.0892  0.1232
  470MOL0     C63327   3.786   5.384   4.040  0.7813 -0.6710 -0.5189
  470MOL0     C63328   3.712   5.452   4.158  0.6677 -0.1496 -0.5285
  470MOL0     C63329   3.561   5.473   4.125  0.0339 -0.7265  0.5748
  470MOL0     C63330   3.494   5.339   4.099 -0.0997  1.1793 -1.1614
  470MOL0     C63331   3.439   5.277   4.227 -0.5174  0.7359 -0.6918
  470MOL0     N63332   3.530   5.241   4.333  0.7075 -0.0823  0.1900
  470MOL0     C63333   3.616   5.133   4.321  0.0805  0.2960  0.5709
  470MOL0     C63334   3.685   5.131   4.430 -0.2165  0.2433  0.5757
  470MOL0     C63335   3.807   5.041   4.464  0.0601 -0.1376 -0.8178
  470MOL0     C63336   3.901   5.020   4.346 -0.2758  0.4848 -0.8397
  470MOL0     C63337   3.991   4.898   4.382  0.4696  0.6688 -0.7624
  470MOL0     C63338   4.099   4.883   4.279  0.2762  0.8288 -0.1303
  470MOL0     O63339   4.109   4.739   4.250 -0.0667 -0.5792 -0.2004
  470MOL0     C63340   4.197   4.696   4.155  0.5008 -0.3212  0.1887
  470MOL0     C63341   4.221   4.563   4.119  0.5111 -0.1342  0.1497
  470MOL0     C63342   4.329   4.521   4.031  0.8365  1.0286  0.2056
  470MOL0     C63343   4.354   4.370   4.028  0.3140 -0.0166  0.2709
  470MOL0     C63344   4.415   4.619   3.976  0.3351  1.0916 -0.0787
  470MOL0     C63345   4.531   4.589   3.887 -0.3617 -0.5686  0.3721
  470MOL0     O63346   4.561   4.687   3.810  0.2412 -0.1062  0.8857
  470MOL0     C63347   4.684   4.704   3.753 -1.0085  0.1550  0.4850
  470MOL0     C63348   4.780   4.761   3.838  0.6734 -0.2539  0.2078
  470MOL0     C63349   4.908   4.801   3.789  0.2050 -0.5188 -0.5742
  470MOL0     C63350   4.936   4.772   3.655 -0.5555 -0.7464 -0.0265
  470MOL0     O63351   5.065   4.803   3.616 -0.7040 -0.3461  0.1599
  470MOL0     C63352   5.125   4.735   3.502  0.0191 -0.2829 -0.8468
  470MOL0     C63353   5.272   4.788   3.489 -0.7844  0.8543 -0.8303
  470MOL0     C63354   5.379   4.706   3.579  0.9497  0.3999 -0.3852
  470MOL0     C63355   5.517   4.766   3.547 -0.4889 -0.7733  0.4539
  470MOL0     C63356   5.621   4.713   3.651  0.3544 -0.2635 -0.3775
  470MOL0     C63357   5.759   4.782   3.639 -0.7793  0.3094  0.1426
  470MOL0     C63358   5.868   4.752   3.741 -0.2414 -0.0599  0.0720
  470MOL0     C63359   5.834   4.802   3.874  0.4310  0.3718  0.2292
  470MOL0    Cl63360   5.812   4.979   3.866 -0.0606  0.3432  0.0999
  470MOL0     C63361   4.835   4.717   3.575 -0.3909 -0.6442  0.5557
  470MOL0     C63362   4.708   4.674   3.618 -0.4709 -0.7160 -0.7384
  470MOL0     O63363   4.602   4.487   3.892 -0.5945 -0.1661 -0.0568
  470MOL0     C63364   4.387   4.751   4.007 -0.3374 -0.3399 -0.1872
  470MOL0     C63365   4.281   4.787   4.087  0.0292  0.3770 -0.5076
  470MOL0     N63366   3.645   5.240   4.505  0.5743  0.0546 -0.0173
  470MOL0     N63367   3.544   5.292   4.459  0.0757 -0.2185 -0.8022
  470MOL0     C63368   4.446   5.272   4.193 -0.8831  0.5608  0.2315
  470MOL0     C63369   4.582   5.279   4.185  0.7131  1.1325  0.4138
  470MOL0     C63370   5.018   5.455   4.156 -0.0810  0.6030  0.1649
  470MOL0     C63371   5.067   5.332   4.216  0.4071  0.0872  0.3583
  470MOL0     C63372   5.199   5.315   4.229 -1.5127 -0.5026 -0.5817
  470MOL0     C63373   5.290   5.410   4.186 -1.0042  0.2732  0.5970
  470MOL0     O63374   5.423   5.372   4.196 -0.5632  0.2570 -0.2735
  470MOL0     C63375   5.524   5.454   4.135 -0.8746 -0.2121 -0.3085
  470MOL0     C63376   5.660   5.400   4.183  0.7874  0.6871 -0.2149
  470MOL0     C63377   5.776   5.435   4.087 -0.4317 -0.4700  0.1542
  470MOL0     C63378   5.879   5.327   4.109 -0.9026  0.0943  0.4806
  470MOL0     C63379   6.001   5.387   4.058 -0.6404 -0.2644  0.2822
  470MOL0     C63380   6.100   5.436   4.001  0.5407 -0.1906  0.7719
  470MOL0     C63381   5.248   5.532   4.130 -0.4215  0.3272  0.1523
  470MOL0     C63382   5.115   5.560   4.125 -0.7532 -0.1581 -0.3059
  470MOL0     H63383   4.631   5.612   4.204  0.1661  0.7778  1.2400
  470MOL0     H63384   4.372   5.596   4.232  1.9993  1.1162  0.6721
  470MOL0     H63385   4.175   5.475   4.073 -3.3368 -0.6909 -0.7350
  470MOL0     H63386   4.178   5.300   4.039 -0.8392 -2.4857  1.6459
  470MOL0     H63387   3.989   5.244   4.153  1.9601 -0.5874  2.0459
  470MOL0     H63388   3.977   5.399   4.242 -2.0468  0.4179 -1.4875
  470MOL0     H63389   3.952   5.526   4.046 -2.3929  0.5073  0.0144
  470MOL0     H63390   3.960   5.380   3.934  1.0735 -0.4491  0.6810
  470MOL0     H63391   3.736   5.426   3.953  1.7085  1.1850 -0.2133
  470MOL0     H63392   3.769   5.277   4.047  1.4483 -0.7171  0.6655
  470MOL0     H63393   3.729   5.379   4.238  0.7097 -0.7808 -1.1066
  470MOL0     H63394   3.735   5.558   4.176 -1.7710  0.6442 -1.6624
  470MOL0     H63395   3.502   5.531   4.197 -5.0160 -1.9876 -2.1005
  470MOL0     H63396   3.554   5.527   4.030 -0.1544 -2.3212 -0.3511
  470MOL0     H63397   3.408   5.352   4.033 -0.3797  2.6890 -0.5415
  470MOL0     H63398   3.555   5.265   4.046 -0.1447 -0.2591  0.7189
  470MOL0     H63399   3.405   5.181   4.187 -0.9626  0.9475 -0.8304
  470MOL0     H63400   3.356   5.329   4.275 -0.0229  1.3101 -0.4572
  470MOL0     H63401   3.648   5.069   4.240 -0.8545  1.4567 -0.7676
  470MOL0     H63402   3.858   5.083   4.551 -0.6544 -2.4635  0.8380
  470MOL0     H63403   3.774   4.944   4.504  0.7451  0.8593  2.4324
  470MOL0     H63404   3.968   5.107   4.339  1.8063 -1.1505 -3.7832
  470MOL0     H63405   3.843   5.002   4.255 -0.7543 -0.8902 -0.2837
  470MOL0     H63406   3.933   4.807   4.367  1.2973 -0.4932  2.3407
  470MOL0     H63407   4.029   4.907   4.484 -0.6253 -0.5371 -0.2279
  470MOL0     H63408   4.198   4.922   4.304 -0.0579  0.8873  1.1564
  470MOL0     H63409   4.052   4.927   4.191  0.7217 -0.7840 -1.2196
  470MOL0     H63410   4.154   4.491   4.166 -0.0935 -0.7603 -1.6027
  470MOL0     H63411   4.269   4.315   4.071 -0.4068 -0.6094 -1.7612
  470MOL0     H63412   4.360   4.332   3.925  1.4170  1.4882 -0.2561
  470MOL0     H63413   4.440   4.340   4.088  0.1372 -2.0780 -0.4084
  470MOL0     H63414   4.740   4.785   3.936 -0.7977 -1.0577 -0.1584
  470MOL0     H63415   4.975   4.856   3.854 -1.8691 -1.2654  2.4388
  470MOL0     H63416   5.145   4.627   3.500  0.3113 -0.2188 -1.6984
  470MOL0     H63417   5.083   4.756   3.403  3.5672  1.9695 -2.0739
  470MOL0     H63418   5.300   4.794   3.383  2.6472  2.8760  0.0270
  470MOL0     H63419   5.271   4.888   3.533  2.4977  0.0925  1.3558
  470MOL0     H63420   5.385   4.599   3.558  1.4955  0.9005 -3.1864
  470MOL0     H63421   5.360   4.727   3.684  1.5647 -0.4877 -0.0866
  470MOL0     H63422   5.547   4.739   3.445 -0.2518 -0.1539  0.3600
  470MOL0     H63423   5.506   4.874   3.555 -1.2697 -0.8029 -0.1823
  470MOL0     H63424   5.629   4.605   3.635  0.0729 -0.1045 -1.7353
  470MOL0     H63425   5.590   4.725   3.755  1.1040 -2.5889  0.1734
  470MOL0     H63426   5.803   4.747   3.545 -0.3490  0.1350  0.4107
  470MOL0     H63427   5.738   4.889   3.638  0.8145  0.6703  1.5709
  470MOL0     H63428   5.956   4.798   3.695 -1.2022 -0.9766 -2.8761
  470MOL0     H63429   5.892   4.645   3.745 -0.5814 -0.2291 -1.9212
  470MOL0     H63430   5.920   4.793   3.941  0.1803  1.0378  0.6579
  470MOL0     H63431   5.737   4.763   3.907 -0.5933  0.1897 -2.6465
  470MOL0     H63432   4.860   4.701   3.471  0.1429 -3.3570  1.0257
  470MOL0     H63433   4.633   4.643   3.546  0.0590  0.2485 -1.7369
  470MOL0     H63434   4.434   4.836   3.958  1.7892 -0.3145  1.6873
  470MOL0     H63435   4.279   4.895   4.101 -1.0669  0.1425  1.6134
  470MOL0     H63436   4.402   5.173   4.189  1.7710 -0.6757 -3.0542
  470MOL0     H63437   4.648   5.196   4.162  1.2465  1.8613 -0.7591
  470MOL0     H63438   4.994   5.258   4.247 -1.1502  1.2022 -0.4940
  470MOL0     H63439   5.239   5.229   4.282  2.4704  0.4748 -1.6681
  470MOL0     H63440   5.526   5.437   4.027  2.2578  3.0305 -0.9440
  470MOL0     H63441   5.518   5.562   4.145 -2.3808 -0.2159 -0.9333
  470MOL0     H63442   5.653   5.291   4.191 -0.2889  0.9012  3.4966
  470MOL0     H63443   5.671   5.431   4.288 -2.1364 -0.0400  0.3879
  470MOL0     H63444   5.803   5.538   4.111 -0.7508 -0.1629 -0.7824
  470MOL0     H63445   5.747   5.430   3.982  1.1032 -3.5202 -0.2622
  470MOL0     H63446   5.871   5.235   4.051  0.6273  1.1729 -1.5762
  470MOL0     H63447   5.899   5.297   4.212  0.4227 -0.9714 -0.0661
  470MOL0     H63448   6.186   5.472   3.948 -0.2221  1.5679  0.6421
  470MOL0     H63449   5.315   5.609   4.094 -1.8462  0.7934 -1.6666
  470MOL0     H63450   5.084   5.658   4.090  0.7770  0.5743  0.2937
  471MOL0     O63451   7.579   5.916   8.614  0.8063 -0.4119 -0.2584
  471MOL0     C63452   7.514   5.840   8.682  0.7575 -0.0017  0.2613
  471MOL0     O63453   7.561   5.752   8.774  0.0802 -0.9212 -0.0879
  471MOL0     C63454   7.695   5.728   8.802  0.0484  0.0411 -0.2281
  471MOL0     C63455   7.805   5.806   8.772  0.2550  0.2788 -0.4575
  471MOL0     C63456   7.937   5.761   8.792 -0.2555  0.0537 -0.4608
  471MOL0     C63457   7.956   5.633   8.858 -0.2155  0.1382 -0.1588
  471MOL0     O63458   8.076   5.588   8.909 -0.1805 -0.2300  0.4169
  471MOL0     C63459   8.126   5.482   8.834 -0.0818  0.2390  0.7423
  471MOL0     C63460   8.272   5.458   8.872  0.5932  0.5270 -0.5075
  471MOL0     C63461   8.357   5.583   8.840 -0.7691 -0.3942 -0.3669
  471MOL0     C63462   8.503   5.563   8.810  0.4408 -0.7362  0.0363
  471MOL0     C63463   8.582   5.687   8.786 -0.1850  0.9197  0.6682
  471MOL0     C63464   8.726   5.663   8.761 -0.0169  0.1799 -0.1843
  471MOL0     C63465   8.751   5.615   8.618  1.2743 -0.1759  0.0233
  471MOL0     C63466   8.897   5.619   8.574  0.2179 -0.0523  0.3577
  471MOL0     N63467   8.904   5.582   8.426  0.2997 -0.3331 -0.2718
  471MOL0     C63468   8.850   5.665   8.329  0.0758  0.5189 -0.0174
  471MOL0     C63469   8.870   5.584   8.215  0.1675  0.1235 -0.5246
  471MOL0     C63470   8.825   5.635   8.082  0.7145 -0.0348  0.4402
  471MOL0     C63471   8.711   5.545   8.031 -0.1875  0.2141  0.5003
  471MOL0     C63472   8.677   5.565   7.875  0.7497  0.8327  0.3915
  471MOL0     C63473   8.554   5.489   7.821 -0.3129 -0.2749  0.7177
  471MOL0     O63474   8.435   5.560   7.864  0.4309 -0.0686 -0.0464
  471MOL0     C63475   8.312   5.545   7.814  0.6644  0.9174  1.1579
  471MOL0     C63476   8.280   5.438   7.735 -0.5492 -0.9746 -0.4140
  471MOL0     C63477   8.146   5.421   7.689 -0.1570 -0.3214  0.2014
  471MOL0     C63478   8.119   5.310   7.592 -0.7816  0.0120 -0.5347
  471MOL0     C63479   8.048   5.524   7.737  0.3952  1.3490  0.1384
  471MOL0     C63480   7.910   5.514   7.699  0.4653  0.8557  0.4043
  471MOL0     O63481   7.827   5.602   7.766 -0.1624 -0.3741 -0.4622
  471MOL0     C63482   7.693   5.628   7.745  0.3516  0.6427  0.7634
  471MOL0     C63483   7.638   5.701   7.848  0.9513  0.6131 -0.7603
  471MOL0     C63484   7.505   5.735   7.836  0.5590 -0.9578  0.1306
  471MOL0     C63485   7.427   5.705   7.733  0.5046 -0.0692 -0.3678
  471MOL0     O63486   7.303   5.759   7.735 -0.3056 -0.0043  0.2207
  471MOL0     C63487   7.193   5.681   7.684 -0.3216  0.3828 -0.2602
  471MOL0     C63488   7.064   5.760   7.707 -0.6244 -0.3784  0.1615
  471MOL0     C63489   7.039   5.873   7.608  0.1634 -1.0295  0.4781
  471MOL0     C63490   6.922   5.955   7.657  0.3542 -0.4512 -0.3828
  471MOL0     C63491   6.847   6.041   7.553 -0.1403  0.3638 -0.7364
  471MOL0     C63492   6.935   6.141   7.485 -0.5785 -0.1664  0.8697
  471MOL0     C63493   6.877   6.183   7.345  0.0364  0.3662 -0.9651
  471MOL0     C63494   6.785   6.311   7.350  0.6320  0.0238  0.3552
  471MOL0    Cl63495   6.622   6.280   7.421  0.1540  0.0552  0.1768
  471MOL0     C63496   7.475   5.628   7.629 -0.1785 -0.5253 -0.0675
  471MOL0     C63497   7.609   5.588   7.635  0.4224  0.8661  0.4735
  471MOL0     O63498   7.874   5.441   7.603  0.0179 -0.5183 -0.0924
  471MOL0     C63499   8.079   5.619   7.830 -0.4166  1.1458 -0.3174
  471MOL0     C63500   8.210   5.630   7.865 -0.2954  0.4244 -0.6591
  471MOL0     N63501   8.933   5.463   8.249 -0.5751 -0.6200 -0.1044
  471MOL0     N63502   8.955   5.471   8.377 -0.2223  0.6140  0.2862
  471MOL0     C63503   7.844   5.557   8.894  1.0704 -0.5164 -1.2752
  471MOL0     C63504   7.716   5.610   8.868  0.1549  0.9265 -0.7465
  471MOL0     C63505   7.369   5.819   8.634 -0.7157 -0.1061 -0.9358
  471MOL0     C63506   7.296   5.709   8.683  0.9019 -1.0055 -0.0344
  471MOL0     C63507   7.159   5.689   8.637 -0.5269  0.5977 -0.8998
  471MOL0     C63508   7.098   5.775   8.548 -0.4475 -0.6092  0.6638
  471MOL0     O63509   6.976   5.743   8.516  0.1867  0.6860 -0.1017
  471MOL0     C63510   6.874   5.844   8.491 -0.7375  0.6141  0.2914
  471MOL0     C63511   6.733   5.800   8.538 -0.1994  0.2118 -0.6361
  471MOL0     C63512   6.621   5.907   8.532 -0.2631 -0.2402 -0.3832
  471MOL0     C63513   6.492   5.841   8.523 -0.3676  1.2883  0.6115
  471MOL0     C63514   6.393   5.939   8.472  0.5771  0.5302  0.2187
  471MOL0     C63515   6.314   6.009   8.415  0.5619 -0.8008 -0.9124
  471MOL0     C63516   7.172   5.889   8.506 -0.4360 -0.3578  0.3162
  471MOL0     C63517   7.307   5.908   8.544 -0.0695 -0.9245 -0.7656
  471MOL0     H63518   7.798   5.903   8.725  1.0852 -0.3237 -1.9143
  471MOL0     H63519   8.023   5.822   8.763  0.0609  1.5213  2.9562
  471MOL0     H63520   8.069   5.397   8.873  2.6266 -1.7679  0.5881
  471MOL0     H63521   8.121   5.491   8.725 -1.4563 -0.5392  0.7137
  471MOL0     H63522   8.273   5.445   8.980  2.7949  0.8948 -0.4308
  471MOL0     H63523   8.324   5.368   8.838  4.7958  1.9068  1.5812
  471MOL0     H63524   8.312   5.639   8.756  0.1606  2.9085  1.1626
  471MOL0     H63525   8.352   5.650   8.926 -1.3646  2.3899 -2.4095
  471MOL0     H63526   8.539   5.509   8.898 -0.1209 -1.3090 -0.0764
  471MOL0     H63527   8.501   5.491   8.728 -0.7071 -1.3217  0.5547
  471MOL0     H63528   8.542   5.744   8.702  0.0034  0.9252  0.5812
  471MOL0     H63529   8.575   5.746   8.878  1.0405 -1.8153  2.6470
  471MOL0     H63530   8.786   5.752   8.785  1.5455 -0.5188 -1.3068
  471MOL0     H63531   8.771   5.590   8.829  2.0623  0.0217 -1.6420
  471MOL0     H63532   8.725   5.510   8.603 -1.8724  0.2121  1.8873
  471MOL0     H63533   8.683   5.668   8.551  2.2507  1.4979  0.3075
  471MOL0     H63534   8.969   5.550   8.620  1.2224 -0.4675 -1.6703
  471MOL0     H63535   8.938   5.721   8.576 -0.0566  0.1046 -0.9177
  471MOL0     H63536   8.798   5.760   8.337 -1.0207 -0.0570 -0.1258
  471MOL0     H63537   8.801   5.742   8.083  0.2330 -0.0410 -2.6297
  471MOL0     H63538   8.914   5.620   8.019  2.8040 -2.1696  3.5700
  471MOL0     H63539   8.630   5.562   8.102  1.1652  0.2704  2.0948
  471MOL0     H63540   8.740   5.440   8.037 -1.2529 -0.1624 -0.6356
  471MOL0     H63541   8.765   5.552   7.811 -0.7691 -0.6344 -1.4887
  471MOL0     H63542   8.648   5.668   7.858  0.5279  0.3091 -3.1192
  471MOL0     H63543   8.562   5.387   7.860  1.9333 -0.7896 -0.8850
  471MOL0     H63544   8.559   5.486   7.712 -1.7815  1.6042  0.5535
  471MOL0     H63545   8.362   5.375   7.704  1.0875  1.3774 -1.0721
  471MOL0     H63546   8.204   5.252   7.554 -2.3948 -2.5005 -0.4916
  471MOL0     H63547   8.044   5.240   7.630 -0.9808  0.7749  0.5213
  471MOL0     H63548   8.087   5.353   7.497 -1.4420 -2.3071 -1.4320
  471MOL0     H63549   7.706   5.712   7.933  0.7030  0.6772 -0.5691
  471MOL0     H63550   7.468   5.792   7.920 -1.7172 -0.8294 -0.8978
  471MOL0     H63551   7.210   5.649   7.581 -1.3794 -1.6803  0.1390
  471MOL0     H63552   7.184   5.587   7.740  3.1000 -0.9688 -1.7169
  471MOL0     H63553   6.979   5.694   7.688 -1.5331  0.9399 -0.6181
  471MOL0     H63554   7.061   5.800   7.809  2.1389 -0.0161  0.1627
  471MOL0     H63555   7.006   5.824   7.516 -0.4932  1.4713 -0.6980
  471MOL0     H63556   7.127   5.934   7.584 -0.7469  0.1651  0.1003
  471MOL0     H63557   6.846   5.882   7.688 -0.7565  1.8196  2.8201
  471MOL0     H63558   6.944   6.015   7.745 -1.2735 -2.2866  1.3789
  471MOL0     H63559   6.762   6.084   7.605  0.4956 -0.9806  1.5651
  471MOL0     H63560   6.807   5.970   7.480 -1.2704 -1.1340  1.2211
  471MOL0     H63561   6.960   6.229   7.545 -2.1716  1.7996 -1.1461
  471MOL0     H63562   7.028   6.090   7.460 -0.8723 -1.2559  1.9310
  471MOL0     H63563   6.833   6.106   7.282  0.8706 -0.2231 -0.8433
  471MOL0     H63564   6.966   6.208   7.286  0.1323 -2.9669 -2.4636
  471MOL0     H63565   6.776   6.357   7.251  0.4389 -2.9035 -1.1071
  471MOL0     H63566   6.831   6.386   7.415 -0.0681  1.2312 -0.4991
  471MOL0     H63567   7.408   5.600   7.549 -1.5784  1.2306  0.4277
  471MOL0     H63568   7.637   5.532   7.547 -5.5060  0.1208 -1.3765
  471MOL0     H63569   8.004   5.683   7.875 -2.6306  0.1043 -2.2449
  471MOL0     H63570   8.238   5.701   7.942 -0.7971  1.4036 -1.3616
  471MOL0     H63571   7.852   5.462   8.945  0.1419  0.3936  0.6917
  471MOL0     H63572   7.644   5.533   8.895  3.6646 -1.9390  1.3486
  471MOL0     H63573   7.346   5.639   8.750  0.8317  2.4705  4.1281
  471MOL0     H63574   7.111   5.597   8.667 -0.3322  0.4750 -0.9605
  471MOL0     H63575   6.911   5.933   8.542  1.4650  0.6567 -1.2280
  471MOL0     H63576   6.878   5.863   8.383  1.3384  2.6168  0.6259
  471MOL0     H63577   6.737   5.777   8.645  1.8487  2.8641 -0.0560
  471MOL0     H63578   6.701   5.708   8.489 -0.6323 -0.7507  1.3280
  471MOL0     H63579   6.630   5.964   8.439 -0.2184 -0.3940 -0.4729
  471MOL0     H63580   6.631   5.981   8.613 -0.2918 -1.3840  0.6922
  471MOL0     H63581   6.454   5.809   8.621 -0.5179 -0.8568 -0.0941
  471MOL0     H63582   6.502   5.759   8.452 -1.3161  2.1987 -0.6372
  471MOL0     H63583   6.246   6.085   8.382 -1.1013 -0.7302  2.3013
  471MOL0     H63584   7.116   5.958   8.443  0.5383  1.0912  0.9888
  471MOL0     H63585   7.351   6.003   8.514 -2.5992  1.1829  1.6553
  472MOL0     O63586   2.810   2.008   3.165 -0.5442  0.1408  1.0692
  472MOL0     C63587   2.817   2.076   3.054 -0.2173  0.6827 -0.2919
  472MOL0     O63588   2.717   2.114   2.976  0.3951  0.1432 -0.7647
  472MOL0     C63589   2.598   2.039   2.982  0.3352  0.1738  0.2317
  472MOL0     C63590   2.520   2.051   3.093  0.8632 -0.2530 -0.5946
  472MOL0     C63591   2.393   1.991   3.094 -0.1643  0.3628  0.2773
  472MOL0     C63592   2.351   1.910   2.983 -0.2790 -0.3518 -0.4298
  472MOL0     O63593   2.227   1.860   2.988 -0.0524 -0.1079  0.1731
  472MOL0     C63594   2.202   1.732   3.046 -1.0273  1.4966 -0.4333
  472MOL0     C63595   2.236   1.741   3.200  0.3293  0.1495 -0.2301
  472MOL0     C63596   2.156   1.636   3.275 -0.3173  0.1634 -0.0448
  472MOL0     C63597   2.190   1.636   3.429 -0.6276  0.4138  0.3901
  472MOL0     C63598   2.089   1.550   3.503  0.9416  0.0433  0.5613
  472MOL0     C63599   2.100   1.564   3.656 -0.7265  1.3040 -1.0693
  472MOL0     C63600   1.963   1.541   3.737 -0.9136  0.4267 -0.3354
  472MOL0     C63601   1.984   1.586   3.881 -0.5130  0.7137  0.4128
  472MOL0     N63602   1.874   1.564   3.972  0.6880  0.2809  0.1365
  472MOL0     C63603   1.746   1.615   3.958  0.5349 -0.0082 -0.5927
  472MOL0     C63604   1.667   1.562   4.050 -0.4834 -0.0735  0.0546
  472MOL0     C63605   1.532   1.585   4.073 -0.2475  0.1030  0.1058
  472MOL0     C63606   1.506   1.630   4.222  0.5399  0.7324 -0.0346
  472MOL0     C63607   1.355   1.675   4.256 -0.9947 -0.3446  0.4310
  472MOL0     C63608   1.248   1.575   4.236  1.0120  0.5715 -0.0915
  472MOL0     O63609   1.123   1.637   4.274 -0.1867 -0.0854  0.0464
  472MOL0     C63610   1.024   1.553   4.321  0.6124  0.2674  0.1077
  472MOL0     C63611   1.039   1.458   4.420 -1.2417 -0.3416 -0.6604
  472MOL0     C63612   0.936   1.370   4.465 -0.6600  0.1387 -0.4030
  472MOL0     C63613   0.975   1.266   4.563  0.1790 -0.8335  0.0117
  472MOL0     C63614   0.804   1.384   4.417 -0.3940 -0.4308 -0.0484
  472MOL0     C63615   0.689   1.300   4.468  0.7802  0.3298  1.6113
  472MOL0     O63616   0.562   1.353   4.458 -0.1432 -0.0562 -0.1764
  472MOL0     C63617   0.451   1.278   4.507 -0.3992  0.3218  0.0303
  472MOL0     C63618   0.359   1.344   4.595  0.4694  0.3608  0.0805
  472MOL0     C63619   0.250   1.272   4.647 -0.3079 -0.0868 -0.5345
  472MOL0     C63620   0.229   1.136   4.622 -0.6370 -0.3956 -1.2967
  472MOL0     O63621   0.137   1.054   4.681  0.5209  0.2382  0.2260
  472MOL0     C63622   0.159   1.007   4.815 -0.5162  1.0144 -0.2641
  472MOL0     C63623   0.061   1.077   4.901 -1.0051  0.2423  0.4448
  472MOL0     C63624  -0.040   0.988   4.969 -0.6390  0.8520  0.6347
  472MOL0     C63625   0.033   0.882   5.054 -0.0699  0.4282  0.6182
  472MOL0     C63626  -0.046   0.799   5.146  0.9548  0.8992 -1.4012
  472MOL0     C63627   0.043   0.692   5.210  0.3642 -0.6099 -0.6311
  472MOL0     C63628  -0.026   0.617   5.324  0.9070  0.2633  0.0491
  472MOL0     C63629  -0.144   0.535   5.285 -0.1250  0.1895 -0.0496
  472MOL0    Cl63630  -0.193   0.433   5.434 -0.0731 -0.2501  0.2673
  472MOL0     C63631   0.317   1.073   4.528 -0.0725 -0.5043 -0.0344
  472MOL0     C63632   0.434   1.141   4.480 -0.0350 -0.6375 -0.6518
  472MOL0     O63633   0.713   1.188   4.520  0.0608 -0.0287  0.7700
  472MOL0     C63634   0.785   1.490   4.321  0.9219 -0.4747 -0.6374
  472MOL0     C63635   0.893   1.572   4.282  0.6493 -0.1252 -0.7418
  472MOL0     N63636   1.744   1.484   4.130 -0.3145  0.0713 -0.2984
  472MOL0     N63637   1.865   1.484   4.079  0.6766  0.2888 -0.2568
  472MOL0     C63638   2.438   1.890   2.876  0.3047  0.6080 -1.1495
  472MOL0     C63639   2.559   1.956   2.876 -0.1115  0.3677  0.4705
  472MOL0     C63640   2.953   2.117   3.012 -0.5529 -0.9415  0.5033
  472MOL0     C63641   3.072   2.068   3.072  0.2593  0.5384  0.2337
  472MOL0     C63642   3.199   2.109   3.033  0.2170 -0.0791  0.2631
  472MOL0     C63643   3.212   2.192   2.927  0.1724 -0.4952 -0.3126
  472MOL0     O63644   3.333   2.230   2.875  0.4240 -0.4478 -0.5383
  472MOL0     C63645   3.431   2.127   2.883  0.1037 -0.5100 -0.2841
  472MOL0     C63646   3.550   2.149   2.785 -0.3362  0.4128  0.4603
  472MOL0     C63647   3.563   2.290   2.732 -0.2084  0.5886  0.0773
  472MOL0     C63648   3.676   2.310   2.631 -0.0471  0.0508  0.0746
  472MOL0     C63649   3.815   2.303   2.677 -0.1208  0.3689 -0.4902
  472MOL0     C63650   3.927   2.302   2.724 -0.3406  0.4651  0.5512
  472MOL0     C63651   3.097   2.248   2.871  0.6453 -0.8981 -0.1324
  472MOL0     C63652   2.967   2.205   2.912 -0.4921 -0.4903  0.0135
  472MOL0     H63653   2.559   2.100   3.182 -1.4993  0.5081  0.0730
  472MOL0     H63654   2.323   2.004   3.176 -0.8949 -2.3019  0.1519
  472MOL0     H63655   2.101   1.694   3.026 -0.4180  0.1819 -1.1707
  472MOL0     H63656   2.282   1.668   3.007 -1.8462  1.1385 -1.5831
  472MOL0     H63657   2.344   1.739   3.220 -0.0191  1.1344  2.2364
  472MOL0     H63658   2.202   1.837   3.242  0.5406 -0.4471  1.3815
  472MOL0     H63659   2.049   1.656   3.267 -0.7411 -2.1875 -1.0977
  472MOL0     H63660   2.182   1.536   3.238 -2.0567 -0.7704  1.1088
  472MOL0     H63661   2.288   1.592   3.445 -0.9917  0.1331  1.9646
  472MOL0     H63662   2.186   1.742   3.457  1.0040  0.7530 -0.5403
  472MOL0     H63663   1.988   1.584   3.482  0.3666 -0.1700  2.7234
  472MOL0     H63664   2.095   1.446   3.469  1.8659  0.2377  0.0906
  472MOL0     H63665   2.185   1.500   3.683  0.2338  1.9839 -2.3914
  472MOL0     H63666   2.120   1.668   3.681 -1.2833  0.7715  1.9978
  472MOL0     H63667   1.880   1.591   3.687 -3.4618 -2.8837  0.2668
  472MOL0     H63668   1.933   1.436   3.735  0.3377  0.0667 -1.8021
  472MOL0     H63669   2.009   1.693   3.883  1.9738  0.2209  3.5274
  472MOL0     H63670   2.082   1.550   3.916  0.9644  3.2505 -0.7898
  472MOL0     H63671   1.705   1.680   3.881 -1.3721  1.0611  1.2240
  472MOL0     H63672   1.510   1.668   4.005  0.0598 -1.0804 -1.4938
  472MOL0     H63673   1.473   1.494   4.055 -1.6350  0.2615  3.2216
  472MOL0     H63674   1.573   1.714   4.243 -0.8083  1.8516 -0.0540
  472MOL0     H63675   1.530   1.548   4.290 -3.7725  0.0057  0.9425
  472MOL0     H63676   1.338   1.771   4.206 -2.0381 -0.8984 -0.3088
  472MOL0     H63677   1.365   1.691   4.364  0.6827 -0.9784  0.4110
  472MOL0     H63678   1.269   1.481   4.287 -2.5614  0.0232  0.6141
  472MOL0     H63679   1.256   1.545   4.131  2.5290  1.7288 -0.3395
  472MOL0     H63680   1.141   1.438   4.452 -1.7072  1.1640  2.1284
  472MOL0     H63681   0.961   1.171   4.511 -2.8943  0.2626 -1.4125
  472MOL0     H63682   1.082   1.267   4.585 -0.0447  0.6757  1.2180
  472MOL0     H63683   0.910   1.269   4.651  0.4295 -0.4069  0.1826
  472MOL0     H63684   0.365   1.452   4.595 -2.4032  0.6260  1.4963
  472MOL0     H63685   0.185   1.316   4.722 -0.1777 -0.7409 -0.0327
  472MOL0     H63686   0.147   0.899   4.802  0.3415  0.7819  0.7550
  472MOL0     H63687   0.259   1.016   4.859 -0.4147 -2.9191  0.7171
  472MOL0     H63688   0.125   1.121   4.978  1.2579 -1.7085 -0.2067
  472MOL0     H63689   0.020   1.163   4.847  0.3999  0.8782  0.3614
  472MOL0     H63690  -0.099   0.935   4.894  2.5716 -0.5926 -1.1128
  472MOL0     H63691  -0.107   1.048   5.030 -1.5442 -1.1693  1.7166
  472MOL0     H63692   0.081   0.813   4.984 -0.3702 -0.5249  1.3344
  472MOL0     H63693   0.115   0.928   5.110  1.1543  1.0829 -1.5954
  472MOL0     H63694  -0.133   0.748   5.104  0.8262  0.3325 -0.4763
  472MOL0     H63695  -0.078   0.861   5.230 -1.9761 -1.3499 -0.6840
  472MOL0     H63696   0.082   0.627   5.131  2.2687  0.2726 -0.4840
  472MOL0     H63697   0.132   0.741   5.250  0.2732 -0.8097 -0.1686
  472MOL0     H63698  -0.050   0.686   5.406  1.5305  1.1766 -0.5094
  472MOL0     H63699   0.052   0.558   5.373 -1.5825 -2.1906  1.3195
  472MOL0     H63700  -0.127   0.455   5.211  0.8491 -0.4597  0.8399
  472MOL0     H63701  -0.216   0.606   5.244 -0.0707 -0.1553 -0.7654
  472MOL0     H63702   0.309   0.972   4.489 -0.3302 -1.0148  1.2937
  472MOL0     H63703   0.510   1.093   4.420  2.9385  0.0999  2.2270
  472MOL0     H63704   0.682   1.511   4.291  0.6087 -0.3891  0.4647
  472MOL0     H63705   0.873   1.640   4.199  1.6140  0.6729 -0.3485
  472MOL0     H63706   2.402   1.828   2.795  1.7154 -0.8395 -0.7187
  472MOL0     H63707   2.634   1.941   2.799  0.7737 -0.9976  1.5523
  472MOL0     H63708   3.068   1.995   3.152 -1.3714  1.1664  0.7624
  472MOL0     H63709   3.287   2.061   3.075  0.5458 -1.6902 -2.1053
  472MOL0     H63710   3.485   2.129   2.978  0.0675 -0.6970 -0.2589
  472MOL0     H63711   3.394   2.027   2.860  0.0420 -0.4099 -0.6337
  472MOL0     H63712   3.541   2.078   2.702 -0.7024 -2.3768  2.6929
  472MOL0     H63713   3.637   2.110   2.838 -0.9664 -0.9518  0.5563
  472MOL0     H63714   3.587   2.362   2.812  2.1233  0.0889 -0.0898
  472MOL0     H63715   3.465   2.310   2.688 -1.4282 -2.0031  1.4140
  472MOL0     H63716   3.667   2.411   2.590  1.6883  0.6143  1.0167
  472MOL0     H63717   3.654   2.246   2.545 -0.8208 -0.3847  0.5823
  472MOL0     H63718   4.027   2.298   2.764 -0.8150 -1.3625  1.6815
  472MOL0     H63719   3.103   2.323   2.793  1.1806  0.3949  1.0901
  472MOL0     H63720   2.888   2.259   2.860  0.5830  0.8778 -0.2478
  473MOL0     O63721   3.366   5.784   5.305  0.0497 -0.0784  0.5821
  473MOL0     C63722   3.457   5.749   5.234  0.2273  0.4600 -0.4556
  473MOL0     O63723   3.507   5.814   5.127  0.7477  0.3611  0.7490
  473MOL0     C63724   3.452   5.941   5.089  0.2031  0.5280 -0.2651
  473MOL0     C63725   3.518   6.052   5.131 -0.7115 -0.7085 -0.0591
  473MOL0     C63726   3.481   6.183   5.091  0.5044  0.7434  0.3282
  473MOL0     C63727   3.354   6.188   5.029 -0.8294 -0.1040  0.0440
  473MOL0     O63728   3.281   6.298   5.006  0.3072  0.1502 -0.3770
  473MOL0     C63729   3.345   6.421   4.970 -0.8572 -0.0538 -0.0501
  473MOL0     C63730   3.256   6.541   4.935  0.0608 -0.4328  0.4377
  473MOL0     C63731   3.141   6.500   4.833  0.6066  0.3320 -0.7965
  473MOL0     C63732   3.038   6.616   4.813 -0.0684  0.0913 -0.0539
  473MOL0     C63733   2.936   6.596   4.698  0.5052  0.1984  0.3288
  473MOL0     C63734   2.848   6.474   4.710 -0.1134  0.9798  0.1688
  473MOL0     C63735   2.725   6.476   4.805  0.4398 -0.2981  0.4041
  473MOL0     C63736   2.622   6.360   4.794 -1.3007  0.1527 -0.6387
  473MOL0     N63737   2.666   6.222   4.840  0.4765  0.6163 -0.0794
  473MOL0     C63738   2.778   6.147   4.792  0.2052 -0.2016 -0.4764
  473MOL0     C63739   2.758   6.025   4.845 -0.1575  0.1582 -0.0298
  473MOL0     C63740   2.847   5.894   4.831  0.1903  0.2825 -0.0199
  473MOL0     C63741   2.893   5.855   4.969 -0.6183 -0.7904 -0.0401
  473MOL0     C63742   2.966   5.723   4.981  0.0962  0.1828 -0.8291
  473MOL0     C63743   3.041   5.715   5.112  0.7452  0.0732  0.4421
  473MOL0     O63744   3.135   5.614   5.108 -0.2028 -0.2146  0.0205
  473MOL0     C63745   3.162   5.540   5.223  0.0508 -0.7779 -0.2450
  473MOL0     C63746   3.218   5.414   5.204  0.2176  0.2716  0.2191
  473MOL0     C63747   3.234   5.326   5.316  0.4140  0.9152  0.0506
  473MOL0     C63748   3.272   5.179   5.292 -0.3743  0.1793 -0.7802
  473MOL0     C63749   3.202   5.372   5.445  0.5718  0.0706 -0.3870
  473MOL0     C63750   3.250   5.299   5.565 -0.2466 -0.6077  0.0443
  473MOL0     O63751   3.307   5.370   5.664 -0.3088  0.4730  0.2066
  473MOL0     C63752   3.327   5.299   5.780 -0.2726 -0.7828 -0.0776
  473MOL0     C63753   3.459   5.259   5.810 -0.0538  0.1786  0.4622
  473MOL0     C63754   3.495   5.205   5.934 -0.9515  0.2624  0.8889
  473MOL0     C63755   3.396   5.164   6.017 -0.0200 -0.4810 -0.4383
  473MOL0     O63756   3.415   5.100   6.136 -0.0865 -0.1069  0.2086
  473MOL0     C63757   3.439   4.960   6.108  0.6222 -0.5677 -0.4829
  473MOL0     C63758   3.486   4.898   6.245 -0.2263 -0.4266  1.2044
  473MOL0     C63759   3.633   4.941   6.278  0.4248 -0.1655 -0.5814
  473MOL0     C63760   3.740   4.851   6.212 -0.0221 -0.0902  0.5472
  473MOL0     C63761   3.882   4.859   6.289  0.4740 -0.1475 -0.4753
  473MOL0     C63762   3.989   4.784   6.201 -0.0475 -0.8704 -0.1045
  473MOL0     C63763   4.131   4.777   6.262  0.3502 -0.1028  0.5049
  473MOL0     C63764   4.248   4.736   6.163  0.7518  0.4384  0.1778
  473MOL0    Cl63765   4.196   4.580   6.101 -0.4124  0.1482  0.0392
  473MOL0     C63766   3.264   5.203   5.985 -0.2702  0.5914 -0.6583
  473MOL0     C63767   3.226   5.264   5.869 -0.5872  0.0206  0.1758
  473MOL0     O63768   3.208   5.189   5.576  0.6150 -0.0169 -0.0856
  473MOL0     C63769   3.140   5.491   5.459  1.2000 -0.7750 -0.4222
  473MOL0     C63770   3.126   5.575   5.349 -0.9491 -0.7986  0.0435
  473MOL0     N63771   2.645   6.024   4.924  0.5157  0.7551  0.4792
  473MOL0     N63772   2.594   6.144   4.929 -1.0922 -0.2876  0.2451
  473MOL0     C63773   3.289   6.068   4.992 -0.6218 -0.4672  0.5204
  473MOL0     C63774   3.336   5.942   5.021  0.0284  0.0423 -0.0943
  473MOL0     C63775   3.504   5.618   5.272 -0.5039 -1.5118  0.4177
  473MOL0     C63776   3.482   5.554   5.388  1.2191 -0.0111  0.9617
  473MOL0     C63777   3.531   5.428   5.433 -0.4267 -0.3660  0.2674
  473MOL0     C63778   3.620   5.364   5.346  0.4379 -0.3346  0.3240
  473MOL0     O63779   3.642   5.229   5.372  0.3300  1.0560  0.6189
  473MOL0     C63780   3.739   5.148   5.305  0.1546 -0.3797 -0.4203
  473MOL0     C63781   3.876   5.198   5.335  0.2932  0.7214 -0.0795
  473MOL0     C63782   3.936   5.169   5.471  0.7052  0.4811  0.7450
  473MOL0     C63783   3.946   5.010   5.500 -0.8868  0.0722  0.3540
  473MOL0     C63784   3.977   4.929   5.379 -0.5047 -0.7095  0.0801
  473MOL0     C63785   4.014   4.855   5.296  0.0964 -0.2876  0.9168
  473MOL0     C63786   3.658   5.437   5.227 -0.5956  0.1395 -0.2084
  473MOL0     C63787   3.591   5.552   5.189 -0.3612  0.5229  0.9662
  473MOL0     H63788   3.612   6.034   5.184 -1.4275 -2.1096  0.8034
  473MOL0     H63789   3.532   6.269   5.133 -0.9540  2.6251 -1.5393
  473MOL0     H63790   3.396   6.460   5.058 -0.6642 -0.0730 -0.1512
  473MOL0     H63791   3.425   6.403   4.896  1.8688  1.9058  2.2149
  473MOL0     H63792   3.196   6.576   5.019 -3.6507  0.1876 -2.2570
  473MOL0     H63793   3.317   6.625   4.901 -0.4253 -0.4042 -0.3825
  473MOL0     H63794   3.180   6.466   4.737  1.3366 -0.4863 -0.2251
  473MOL0     H63795   3.089   6.414   4.876 -0.5617  1.5658  0.3731
  473MOL0     H63796   2.986   6.633   4.908 -0.6355 -1.4572 -0.0578
  473MOL0     H63797   3.095   6.707   4.793 -0.5390  0.0730 -1.6124
  473MOL0     H63798   2.866   6.680   4.696 -0.0733 -0.2779 -1.2574
  473MOL0     H63799   2.972   6.611   4.596  2.1216  1.5219  1.0720
  473MOL0     H63800   2.826   6.448   4.606  2.0715 -0.2675 -0.0345
  473MOL0     H63801   2.898   6.385   4.750  0.4245  0.9007 -0.6615
  473MOL0     H63802   2.758   6.476   4.909 -0.7485 -1.8312  0.8216
  473MOL0     H63803   2.672   6.570   4.790 -0.4375 -0.4903  2.0495
  473MOL0     H63804   2.591   6.349   4.690 -0.3871 -2.4379 -0.6983
  473MOL0     H63805   2.532   6.377   4.854 -0.1529 -0.1657  1.2674
  473MOL0     H63806   2.863   6.170   4.730  0.3925 -2.7090 -1.2547
  473MOL0     H63807   2.780   5.826   4.778 -2.0974  3.4758 -1.5388
  473MOL0     H63808   2.931   5.903   4.761  0.1737  2.3083  0.1695
  473MOL0     H63809   2.812   5.847   5.041  0.8771 -0.9581  1.6938
  473MOL0     H63810   2.958   5.938   4.997 -0.1483 -1.5306  1.1291
  473MOL0     H63811   3.041   5.715   4.902 -0.4622  2.1206 -1.6293
  473MOL0     H63812   2.888   5.649   4.969 -2.0522  2.0364  0.7965
  473MOL0     H63813   2.976   5.709   5.199 -0.5440  0.7183 -0.4407
  473MOL0     H63814   3.094   5.810   5.126  1.7556 -0.2811 -0.8028
  473MOL0     H63815   3.238   5.380   5.102  0.8504 -3.8867  1.5322
  473MOL0     H63816   3.221   5.110   5.360 -0.5099 -0.0267 -1.0834
  473MOL0     H63817   3.226   5.147   5.197 -2.7330  0.4483  0.1862
  473MOL0     H63818   3.380   5.163   5.288  0.0748  2.1095  1.6562
  473MOL0     H63819   3.542   5.276   5.742  1.0112  0.5996  1.7940
  473MOL0     H63820   3.601   5.185   5.948 -1.2244 -1.3697  0.8349
  473MOL0     H63821   3.345   4.907   6.090  0.1737  0.3061 -0.7502
  473MOL0     H63822   3.511   4.932   6.031 -1.2853  1.4583 -3.2026
  473MOL0     H63823   3.425   4.934   6.329  0.9148  1.2125  1.3846
  473MOL0     H63824   3.479   4.789   6.244  0.8894 -0.5074  1.2447
  473MOL0     H63825   3.624   4.932   6.387  1.7309  2.5560 -0.1596
  473MOL0     H63826   3.655   5.045   6.251  1.3439 -0.5153 -1.2081
  473MOL0     H63827   3.700   4.749   6.210 -1.7155  0.5390 -1.1862
  473MOL0     H63828   3.757   4.891   6.112 -0.1600  0.8241  0.8801
  473MOL0     H63829   3.864   4.806   6.383 -2.2954 -2.1125 -1.9773
  473MOL0     H63830   3.911   4.962   6.315  1.2252 -0.0813 -1.5455
  473MOL0     H63831   3.965   4.684   6.164 -1.2947 -0.6037 -0.0759
  473MOL0     H63832   3.999   4.846   6.112  0.9392  1.3630  1.4564
  473MOL0     H63833   4.126   4.691   6.330  3.0571  0.7008  1.8603
  473MOL0     H63834   4.152   4.871   6.314  1.1792  1.1918 -2.0235
  473MOL0     H63835   4.348   4.736   6.208  1.1608 -0.3372 -0.6897
  473MOL0     H63836   4.242   4.824   6.098 -2.6634  1.5117  1.7306
  473MOL0     H63837   3.182   5.179   6.052 -1.2662  0.7357 -1.7860
  473MOL0     H63838   3.124   5.296   5.847 -0.3502 -0.6285 -2.1731
  473MOL0     H63839   3.114   5.539   5.553  2.3710  1.3355 -1.0818
  473MOL0     H63840   3.068   5.663   5.377 -0.6229 -1.0891  1.7731
  473MOL0     H63841   3.192   6.072   4.945 -1.1169  0.0138  1.5646
  473MOL0     H63842   3.287   5.847   5.003 -1.4794  1.0398 -1.5295
  473MOL0     H63843   3.414   5.603   5.457  1.4687 -0.2094  1.3516
  473MOL0     H63844   3.510   5.387   5.531  1.6196  0.9580  1.3289
  473MOL0     H63845   3.717   5.046   5.337 -2.7497 -0.0892 -1.2281
  473MOL0     H63846   3.729   5.158   5.196  0.5105 -0.2953 -0.4461
  473MOL0     H63847   3.878   5.307   5.328 -1.4665  0.7357 -1.0147
  473MOL0     H63848   3.946   5.167   5.257  0.4707 -0.7331  0.6242
  473MOL0     H63849   3.877   5.208   5.555  3.0802 -0.2296  2.9037
  473MOL0     H63850   4.036   5.215   5.474  2.0375 -2.1523  0.1270
  473MOL0     H63851   3.850   4.975   5.540 -1.7102  2.6898  0.8703
  473MOL0     H63852   4.032   5.001   5.566  2.6152  0.2961 -3.7607
  473MOL0     H63853   4.052   4.794   5.217 -2.1284  0.9381 -1.2405
  473MOL0     H63854   3.718   5.395   5.147 -0.6399  0.6950 -0.5352
  473MOL0     H63855   3.605   5.600   5.093 -1.0280 -0.3050  0.4446
  474MOL0     O63856   4.653  10.347   9.418  0.1967  0.0331  0.4387
  474MOL0     C63857   4.627  10.435   9.497  0.3644  0.1151  0.4695
  474MOL0     O63858   4.587  10.415   9.627  0.6654 -0.1177 -0.6319
  474MOL0     C63859   4.562  10.293   9.664  0.3284 -0.4625 -0.0503
  474MOL0     C63860   4.454  10.214   9.606 -0.5362 -0.2199 -0.5322
  474MOL0     C63861   4.424  10.085   9.650 -0.2149 -0.1095 -0.3032
  474MOL0     C63862   4.497  10.026   9.759  0.4806  0.4783  0.1339
  474MOL0     O63863   4.468   9.892   9.785 -0.5815  0.3897 -0.4054
  474MOL0     C63864   4.517   9.843   9.903 -0.6435  0.3773 -0.7976
  474MOL0     C63865   4.441   9.887  10.033 -0.1778 -0.2441 -0.2158
  474MOL0     C63866   4.309   9.813  10.038 -0.7089 -0.0277  0.9732
  474MOL0     C63867   4.240   9.825  10.184 -0.9191  0.1923 -0.0787
  474MOL0     C63868   4.210   9.971  10.215  1.1392 -0.4265  0.0974
  474MOL0     C63869   4.162   9.992  10.358 -0.5371 -0.1192  0.5544
  474MOL0     C63870   4.137  10.131  10.399  0.4365 -0.1675  1.4675
  474MOL0     C63871   4.009  10.207  10.344 -0.2967 -0.2178 -0.3783
  474MOL0     N63872   3.890  10.184  10.423  0.4515  0.0970  0.8345
  474MOL0     C63873   3.871  10.261  10.539 -0.6435 -0.0936  0.4789
  474MOL0     C63874   3.741  10.277  10.548 -0.5015  0.0494 -1.1384
  474MOL0     C63875   3.661  10.357  10.651 -0.3386  0.4294  1.0902
  474MOL0     C63876   3.582  10.273  10.752  0.8327  0.7048 -0.3328
  474MOL0     C63877   3.515  10.352  10.860 -0.6766  0.0947 -0.1181
  474MOL0     C63878   3.381  10.405  10.805  0.4255 -0.1437 -0.5697
  474MOL0     O63879   3.335  10.498  10.905  0.1819 -0.7485 -0.0119
  474MOL0     C63880   3.213  10.552  10.890 -1.0563  0.1981  0.4068
  474MOL0     C63881   3.198  10.687  10.861 -0.4625 -0.5097 -0.5278
  474MOL0     C63882   3.072  10.746  10.863 -0.1259  0.0662 -0.3323
  474MOL0     C63883   3.066  10.899  10.860 -0.0731  0.5156 -0.5471
  474MOL0     C63884   2.961  10.663  10.902 -0.0996  0.6975 -0.2483
  474MOL0     C63885   2.819  10.726  10.892 -0.2719  0.6034  0.3316
  474MOL0     O63886   2.718  10.663  10.971  0.4063 -0.5848  0.3939
  474MOL0     C63887   2.587  10.707  10.971 -0.2641 -1.0924 -0.1657
  474MOL0     C63888   2.507  10.728  10.857 -0.3956 -0.1778  0.0080
  474MOL0     C63889   2.374  10.744  10.870 -0.2331 -0.0337  0.4003
  474MOL0     C63890   2.321  10.755  10.997 -0.1603 -0.1877 -0.5593
  474MOL0     O63891   2.187  10.776  11.004  0.1569  0.4189 -0.3384
  474MOL0     C63892   2.131  10.895  11.055 -0.2458  0.6827  1.2712
  474MOL0     C63893   1.984  10.882  11.067 -0.3546  0.3190  0.5256
  474MOL0     C63894   1.949  10.850  11.210  0.2863  0.1361  0.7192
  474MOL0     C63895   1.804  10.831  11.249  0.3266  0.1935 -0.4084
  474MOL0     C63896   1.781  10.836  11.398  0.3622  0.0610  0.9340
  474MOL0     C63897   1.636  10.835  11.431 -0.1293  1.2187 -0.5491
  474MOL0     C63898   1.613  10.813  11.580  0.8343  0.7350  0.3544
  474MOL0     C63899   1.591  10.667  11.636  0.3583 -0.2808 -0.1745
  474MOL0    Cl63900   1.447  10.587  11.562 -0.1509  0.2166  0.4517
  474MOL0     C63901   2.394  10.735  11.112  0.4921 -0.6498 -0.1768
  474MOL0     C63902   2.533  10.715  11.100  0.3601  0.4919  0.9305
  474MOL0     O63903   2.803  10.814  10.810  0.1035 -0.7040  0.7782
  474MOL0     C63904   2.985  10.529  10.929  0.5241  0.3172 -0.2924
  474MOL0     C63905   3.108  10.470  10.923 -0.2868 -0.7682  0.5480
  474MOL0     N63906   3.680  10.207  10.443  0.0440 -0.2131 -0.4563
  474MOL0     N63907   3.771  10.153  10.367 -0.3643  0.2964 -1.2566
  474MOL0     C63908   4.596  10.104   9.811 -0.4212  0.2846  0.0868
  474MOL0     C63909   4.628  10.237   9.769  0.4286 -0.2866  0.4304
  474MOL0     C63910   4.636  10.571   9.448 -1.0624  0.9217 -0.2250
  474MOL0     C63911   4.741  10.606   9.364 -0.3125  0.4532 -0.8589
  474MOL0     C63912   4.776  10.736   9.343  0.3096  1.1030  0.5416
  474MOL0     C63913   4.693  10.831   9.404 -0.2067 -0.2422  0.3360
  474MOL0     O63914   4.725  10.957   9.372  0.6833  0.5035  0.9260
  474MOL0     C63915   4.804  11.034   9.464  0.7417  0.3539 -0.5316
  474MOL0     C63916   4.915  11.128   9.397  0.0866  0.4670 -0.2534
  474MOL0     C63917   4.838  11.233   9.306  0.2188  0.4484  0.5103
  474MOL0     C63918   4.922  11.331   9.237  0.0250  0.1012  0.9784
  474MOL0     C63919   4.983  11.431   9.327  0.4988 -0.1282  0.0336
  474MOL0     C63920   5.011  11.509   9.415 -0.2754 -0.8075 -0.0455
  474MOL0     C63921   4.579  10.793   9.472  0.5533  0.7014  0.1149
  474MOL0     C63922   4.555  10.666   9.499 -0.3731 -0.1155 -0.7566
  474MOL0     H63923   4.385  10.268   9.541 -0.7121 -0.4456 -0.5331
  474MOL0     H63924   4.343  10.037   9.595 -2.0820  1.3323  1.0573
  474MOL0     H63925   4.500   9.736   9.885 -1.5608  0.8910 -3.4622
  474MOL0     H63926   4.624   9.851   9.922 -1.0319 -0.0037  2.0204
  474MOL0     H63927   4.509   9.863  10.115 -1.6856 -3.0993  0.3316
  474MOL0     H63928   4.432   9.996  10.037  0.5768  0.0269 -3.2095
  474MOL0     H63929   4.241   9.841   9.957  1.4453 -1.6452 -1.6114
  474MOL0     H63930   4.345   9.710  10.026  0.6973  0.3434  1.7667
  474MOL0     H63931   4.150   9.763  10.189 -1.8673  1.4402 -0.8974
  474MOL0     H63932   4.310   9.779  10.254  0.5196  1.3854 -0.6960
  474MOL0     H63933   4.301  10.031  10.206  1.2453 -0.4292  1.0249
  474MOL0     H63934   4.137  10.005  10.141  1.2257 -1.4833 -0.4817
  474MOL0     H63935   4.070   9.933  10.364 -0.5431 -0.5887 -2.3416
  474MOL0     H63936   4.243   9.955  10.422  0.3405  0.9182  0.0598
  474MOL0     H63937   4.136  10.150  10.507 -0.0042  1.2424  1.2469
  474MOL0     H63938   4.223  10.188  10.365 -1.7436  3.3093  1.2681
  474MOL0     H63939   4.000  10.174  10.240 -3.0897  1.9336 -0.9515
  474MOL0     H63940   4.028  10.315  10.339 -0.5108 -0.1758 -0.3205
  474MOL0     H63941   3.944  10.316  10.598  1.1011 -0.8746 -0.8649
  474MOL0     H63942   3.726  10.418  10.715 -0.2928  1.4812  0.0578
  474MOL0     H63943   3.596  10.419  10.589  2.4509  0.6599 -1.8216
  474MOL0     H63944   3.650  10.197  10.793  1.1609 -0.3158 -2.6270
  474MOL0     H63945   3.502  10.224  10.696  0.5014  0.7306  0.1077
  474MOL0     H63946   3.577  10.433  10.902 -0.3429 -0.6440  0.8387
  474MOL0     H63947   3.476  10.285  10.937 -0.1966 -1.8322 -1.5045
  474MOL0     H63948   3.318  10.318  10.785  0.3325 -0.6999  1.7973
  474MOL0     H63949   3.402  10.468  10.719  3.9298  0.2349  0.3853
  474MOL0     H63950   3.284  10.742  10.825  0.6048 -1.1095  1.0186
  474MOL0     H63951   3.013  10.936  10.948 -0.1259 -0.8041 -0.0020
  474MOL0     H63952   3.169  10.937  10.867 -0.2861  1.1919 -1.0159
  474MOL0     H63953   3.032  10.925  10.760  0.7707 -0.8147 -1.2192
  474MOL0     H63954   2.551  10.729  10.758 -1.7354  1.8024 -0.6207
  474MOL0     H63955   2.314  10.739  10.780 -1.5699 -1.5843  1.3349
  474MOL0     H63956   2.191  10.919  11.143  0.1785 -1.4406  1.6049
  474MOL0     H63957   2.138  10.975  10.980  1.3927 -1.5284 -1.0931
  474MOL0     H63958   1.929  10.972  11.036 -0.6608  0.8311  2.4201
  474MOL0     H63959   1.944  10.798  11.011  0.1544  0.7535 -0.5296
  474MOL0     H63960   1.981  10.935  11.271 -3.1374  0.6027  2.0361
  474MOL0     H63961   1.999  10.758  11.243 -2.0568 -0.7363  2.0999
  474MOL0     H63962   1.748  10.916  11.210 -1.8401 -0.8383  0.3300
  474MOL0     H63963   1.771  10.737  11.204  0.4035  0.3506 -0.7999
  474MOL0     H63964   1.808  10.933  11.440 -3.8848  1.1427  1.6004
  474MOL0     H63965   1.835  10.749  11.439  1.1587 -0.4326 -1.0777
  474MOL0     H63966   1.594  10.930  11.396  0.1899  2.1188  1.3708
  474MOL0     H63967   1.587  10.760  11.369  0.7569 -0.8279  1.1037
  474MOL0     H63968   1.515  10.855  11.608  0.9430  1.4068 -0.2470
  474MOL0     H63969   1.683  10.871  11.640  0.9030 -1.5070  2.5909
  474MOL0     H63970   1.591  10.672  11.745 -0.1230  0.5760 -0.2080
  474MOL0     H63971   1.678  10.604  11.616  0.6880 -0.1983  0.9353
  474MOL0     H63972   2.347  10.743  11.209  1.1747  2.3953 -0.0142
  474MOL0     H63973   2.587  10.689  11.191  0.1486  0.7490  1.1285
  474MOL0     H63974   2.896  10.468  10.938 -0.2814  0.9968 -2.7266
  474MOL0     H63975   3.120  10.363  10.933 -0.2693 -0.7675  0.5378
  474MOL0     H63976   4.651  10.059   9.893 -0.7939  2.0788  1.3713
  474MOL0     H63977   4.704  10.292   9.823 -0.9233 -2.3308  4.8505
  474MOL0     H63978   4.802  10.534   9.311 -1.0627 -2.4735  1.9551
  474MOL0     H63979   4.868  10.752   9.288  1.0571  1.0831  1.7446
  474MOL0     H63980   4.741  11.100   9.525  2.2358  0.7894  0.6153
  474MOL0     H63981   4.857  10.969   9.535  0.0138  0.0036 -0.3057
  474MOL0     H63982   4.989  11.064   9.347  2.7491  1.4154  2.1964
  474MOL0     H63983   4.972  11.183   9.472 -2.2404  2.2834  0.3065
  474MOL0     H63984   4.768  11.292   9.366 -0.9123  1.1636 -1.4208
  474MOL0     H63985   4.773  11.173   9.242  0.4564 -0.5389  1.1695
  474MOL0     H63986   4.879  11.372   9.146 -0.6468 -0.0374  1.2297
  474MOL0     H63987   5.010  11.273   9.207  0.3918 -0.2896  2.6680
  474MOL0     H63988   5.042  11.584   9.486 -1.2974  1.0264 -1.4451
  474MOL0     H63989   4.514  10.870   9.512  2.3151  0.4602  3.8436
  474MOL0     H63990   4.464  10.633   9.547  0.9824 -1.8131  0.7724
  475MOL0     O63991  11.074   5.650   2.403  1.0099 -0.8395  0.4503
  475MOL0     C63992  11.068   5.575   2.503  0.1477  0.4659 -0.4028
  475MOL0     O63993  10.961   5.533   2.565 -0.1648  0.4257  0.0225
  475MOL0     C63994  10.840   5.575   2.517 -0.5136  0.3187  0.2428
  475MOL0     C63995  10.778   5.516   2.403 -0.1010 -0.0178  0.2537
  475MOL0     C63996  10.666   5.575   2.346 -0.8889 -0.5768 -0.1143
  475MOL0     C63997  10.591   5.677   2.405 -0.4276  0.2712 -0.7854
  475MOL0     O63998  10.485   5.722   2.326  0.0395 -0.0283 -0.1868
  475MOL0     C63999  10.435   5.847   2.364 -0.1452 -0.5143 -0.1844
  475MOL0     C64000  10.365   5.904   2.239 -1.0187  0.4526 -0.2007
  475MOL0     C64001  10.465   5.904   2.126  0.3594 -0.6160  0.2752
  475MOL0     C64002  10.388   5.983   2.011 -0.5179  0.3783 -0.9363
  475MOL0     C64003  10.468   6.034   1.899  0.4716  0.0932 -0.2604
  475MOL0     C64004  10.556   6.155   1.941  1.0719  0.2435  0.3737
  475MOL0     C64005  10.648   6.207   1.824 -0.7223  0.8111  0.5457
  475MOL0     C64006  10.575   6.268   1.703  0.0822 -0.4641  0.3636
  475MOL0     N64007  10.501   6.381   1.751  0.5433 -0.3816  0.8572
  475MOL0     C64008  10.367   6.383   1.775  0.9474 -0.3646 -0.2906
  475MOL0     C64009  10.348   6.510   1.826  0.4611  0.5409 -1.0494
  475MOL0     C64010  10.233   6.543   1.912 -0.1343  0.3301  0.5074
  475MOL0     C64011  10.268   6.528   2.067  0.0084 -0.2465  0.0230
  475MOL0     C64012  10.141   6.493   2.148 -0.1034 -0.2335 -0.0879
  475MOL0     C64013  10.175   6.475   2.295  0.6427 -0.2626 -0.0695
  475MOL0     O64014  10.176   6.339   2.327  0.3503 -0.1446 -0.2272
  475MOL0     C64015  10.061   6.273   2.364  0.4354 -0.4977  0.0789
  475MOL0     C64016  10.079   6.137   2.405 -0.0707  0.0413  0.4795
  475MOL0     C64017   9.970   6.071   2.464 -0.1638 -0.8984  0.2695
  475MOL0     C64018   9.992   5.934   2.519 -0.6947 -0.2790 -0.4697
  475MOL0     C64019   9.841   6.138   2.472 -0.5628  0.6447  0.1944
  475MOL0     C64020   9.721   6.080   2.536 -0.0303  1.1592 -0.9540
  475MOL0     O64021   9.603   6.150   2.518 -0.2671 -0.4814 -0.0587
  475MOL0     C64022   9.518   6.144   2.630  0.0996  0.5363 -0.0143
  475MOL0     C64023   9.490   6.256   2.704  0.0810 -0.4332 -0.2591
  475MOL0     C64024   9.404   6.252   2.818 -0.7202  0.3111 -0.0764
  475MOL0     C64025   9.353   6.134   2.871 -0.6684  0.3734  1.0375
  475MOL0     O64026   9.273   6.112   2.981  0.4033  0.2355 -0.8722
  475MOL0     C64027   9.201   6.223   3.046 -0.4755 -0.2304 -0.7360
  475MOL0     C64028   9.057   6.200   3.026 -0.8451 -0.1401 -0.1134
  475MOL0     C64029   9.006   6.066   3.104  0.4023  0.0570  0.3663
  475MOL0     C64030   8.872   6.022   3.055  0.3186  0.0666  0.6070
  475MOL0     C64031   8.759   6.115   3.113  0.2923 -0.5268 -0.0805
  475MOL0     C64032   8.623   6.079   3.052 -0.3997  0.4495  0.3086
  475MOL0     C64033   8.506   6.104   3.142 -1.0348  0.1244  1.3020
  475MOL0     C64034   8.376   6.088   3.069 -0.2983 -0.6514  0.1019
  475MOL0    Cl64035   8.378   6.227   2.950  0.0898 -0.1281  0.4641
  475MOL0     C64036   9.390   6.018   2.801  0.3355 -0.4647 -0.2052
  475MOL0     C64037   9.463   6.024   2.681  0.0789 -0.8230  0.2095
  475MOL0     O64038   9.739   5.993   2.623 -0.3146  0.0925  0.3859
  475MOL0     C64039   9.825   6.268   2.417  0.1280  0.0978  0.0697
  475MOL0     C64040   9.934   6.337   2.363  0.2886  0.3966  0.2924
  475MOL0     N64041  10.461   6.581   1.826  0.3160  0.3115 -0.4755
  475MOL0     N64042  10.550   6.508   1.768  0.3740  0.3476 -0.0297
  475MOL0     C64043  10.651   5.734   2.523  0.5391  0.5618 -0.1045
  475MOL0     C64044  10.774   5.685   2.572  0.2813  0.2022 -0.4847
  475MOL0     C64045  11.190   5.536   2.565 -0.0526 -0.0696 -0.3441
  475MOL0     C64046  11.305   5.516   2.489 -0.6954  0.6746 -0.1259
  475MOL0     C64047  11.426   5.474   2.544  0.8083 -0.5702 -0.9475
  475MOL0     C64048  11.437   5.448   2.680 -0.5387  0.1819  0.0988
  475MOL0     O64049  11.557   5.390   2.725  0.1195  0.2686  0.7978
  475MOL0     C64050  11.556   5.288   2.822  0.1894  0.0117  0.3411
  475MOL0     C64051  11.692   5.277   2.889 -0.6225 -0.2882 -0.2692
  475MOL0     C64052  11.811   5.239   2.794 -0.6704  0.7212 -0.2856
  475MOL0     C64053  11.935   5.188   2.857  0.3862  0.7739  0.1737
  475MOL0     C64054  12.022   5.283   2.921 -0.4468 -0.3369 -0.4988
  475MOL0     C64055  12.088   5.363   2.977 -0.1062 -0.4848 -0.1031
  475MOL0     C64056  11.324   5.476   2.759  0.3613 -0.0672  0.2081
  475MOL0     C64057  11.205   5.523   2.702  0.8262  0.1633  0.3308
  475MOL0     H64058  10.831   5.430   2.365 -1.8344 -1.0240  0.0291
  475MOL0     H64059  10.630   5.543   2.249 -1.3041  0.9235 -0.4944
  475MOL0     H64060  10.356   5.838   2.438 -0.0949 -0.7122 -0.1538
  475MOL0     H64061  10.509   5.918   2.402 -0.2161 -2.2138  3.5931
  475MOL0     H64062  10.280   5.840   2.211 -0.5987 -0.0783 -0.2741
  475MOL0     H64063  10.325   6.004   2.261 -1.0216 -0.2220  3.4309
  475MOL0     H64064  10.554   5.957   2.162 -0.6254 -0.8173  3.3207
  475MOL0     H64065  10.490   5.806   2.085  1.3322 -0.0078 -0.6273
  475MOL0     H64066  10.311   5.909   1.987  0.7951 -1.8006  1.1861
  475MOL0     H64067  10.332   6.072   2.042  1.3172  2.5815 -3.4150
  475MOL0     H64068  10.526   5.950   1.859 -1.1393 -1.3757  0.3448
  475MOL0     H64069  10.393   6.044   1.820 -2.8839 -2.2312  2.3252
  475MOL0     H64070  10.503   6.248   1.965  2.7603  1.3312  0.0650
  475MOL0     H64071  10.610   6.127   2.032 -0.3378 -2.2112  0.5403
  475MOL0     H64072  10.707   6.294   1.853  1.4305 -0.0801 -0.8729
  475MOL0     H64073  10.716   6.128   1.792 -0.0236  1.6808 -0.1794
  475MOL0     H64074  10.510   6.206   1.641  1.1236 -1.9663  0.7169
  475MOL0     H64075  10.661   6.304   1.646  0.6758  0.0966  1.5878
  475MOL0     H64076  10.306   6.295   1.791  4.4186 -2.6651  1.8449
  475MOL0     H64077  10.189   6.642   1.893 -0.7541  0.4574  2.4302
  475MOL0     H64078  10.170   6.458   1.883  2.9635 -2.4397  1.2962
  475MOL0     H64079  10.312   6.618   2.110 -0.4134 -0.6709  1.4035
  475MOL0     H64080  10.344   6.451   2.085  0.3146  0.4400  1.8563
  475MOL0     H64081  10.105   6.399   2.106  1.0005 -2.0289  2.7290
  475MOL0     H64082  10.058   6.563   2.132  0.3705 -0.2952 -3.4637
  475MOL0     H64083  10.115   6.524   2.371  0.0789 -0.7976 -0.1668
  475MOL0     H64084  10.272   6.520   2.321  0.6758 -1.4426  2.0142
  475MOL0     H64085  10.177   6.091   2.410 -1.9435 -4.2728  1.7407
  475MOL0     H64086  10.086   5.896   2.478  0.7216  1.9941  0.5314
  475MOL0     H64087  10.014   5.939   2.625  2.5171  1.1136 -1.0972
  475MOL0     H64088   9.910   5.865   2.496 -1.8719  1.2330 -0.9869
  475MOL0     H64089   9.532   6.353   2.678 -1.3798 -0.3362 -2.5405
  475MOL0     H64090   9.386   6.341   2.876  0.9027  0.6931 -0.1054
  475MOL0     H64091   9.223   6.230   3.153  1.0273 -1.0333 -0.9662
  475MOL0     H64092   9.241   6.319   3.013 -1.7047  0.8651  0.8218
  475MOL0     H64093   9.008   6.291   3.063  0.5636  0.6385 -0.0961
  475MOL0     H64094   9.032   6.183   2.921  0.4880  0.7872 -0.6133
  475MOL0     H64095   9.016   6.080   3.212  0.8679  1.0645  0.2067
  475MOL0     H64096   9.075   5.983   3.084  0.2292  0.2833 -1.3070
  475MOL0     H64097   8.868   6.036   2.947  1.3662  2.1363  0.7928
  475MOL0     H64098   8.856   5.916   3.076 -1.5321  0.0600 -0.5770
  475MOL0     H64099   8.772   6.218   3.078  0.6986 -0.3820  0.4896
  475MOL0     H64100   8.752   6.110   3.222 -3.4497 -2.5966 -0.2496
  475MOL0     H64101   8.615   6.125   2.953  1.1512  0.3740  0.1133
  475MOL0     H64102   8.622   5.970   3.041  3.7611  0.4437 -2.5461
  475MOL0     H64103   8.503   6.201   3.192  0.2019  1.1133 -0.4469
  475MOL0     H64104   8.496   6.027   3.220  0.4364 -1.4912 -0.0077
  475MOL0     H64105   8.297   6.098   3.144  0.1581 -2.9146  0.9286
  475MOL0     H64106   8.375   5.998   3.007  1.4342 -0.2601 -0.5560
  475MOL0     H64107   9.354   5.918   2.824  0.1278 -0.3643 -0.0958
  475MOL0     H64108   9.497   5.928   2.644  2.9878 -0.9327  2.8347
  475MOL0     H64109   9.728   6.316   2.412  0.4858  0.6972 -1.5673
  475MOL0     H64110   9.909   6.438   2.333 -1.6385 -0.5834 -1.7235
  475MOL0     H64111  10.591   5.818   2.558 -0.1817  0.1086 -0.2205
  475MOL0     H64112  10.825   5.733   2.654  0.7470  0.3840 -0.8802
  475MOL0     H64113  11.302   5.536   2.383 -1.6444  0.9367 -0.0633
  475MOL0     H64114  11.518   5.463   2.488  1.0393  2.2941 -1.2936
  475MOL0     H64115  11.487   5.314   2.903  1.0529 -0.7937  1.3820
  475MOL0     H64116  11.533   5.190   2.780 -1.1051  1.1698 -1.7630
  475MOL0     H64117  11.687   5.208   2.973  1.9604  0.2317  0.4034
  475MOL0     H64118  11.703   5.373   2.941 -3.4709 -1.8181  3.5769
  475MOL0     H64119  11.837   5.329   2.738 -0.3646  1.3459  0.8335
  475MOL0     H64120  11.777   5.168   2.718 -1.1927  0.0845  0.5251
  475MOL0     H64121  12.001   5.150   2.778 -0.5168  1.2006 -0.8081
  475MOL0     H64122  11.901   5.117   2.933 -1.1210  1.7449  0.4411
  475MOL0     H64123  12.126   5.448   3.030 -1.4050 -1.8784  3.3587
  475MOL0     H64124  11.332   5.463   2.867 -2.9652  0.1243  0.5789
  475MOL0     H64125  11.131   5.563   2.771  1.4577  0.9381  0.5662
  476MOL0     O64126  10.513   4.778   8.679 -0.2154 -0.5065  0.8758
  476MOL0     C64127  10.535   4.750   8.796  0.1424  0.1136  0.6869
  476MOL0     O64128  10.435   4.704   8.886  0.4956 -1.2670 -0.3233
  476MOL0     C64129  10.295   4.685   8.855  1.0258 -1.1902  0.0228
  476MOL0     C64130  10.223   4.603   8.939 -0.0233 -0.1803 -0.4106
  476MOL0     C64131  10.077   4.602   8.939  0.1269  1.2990  0.1348
  476MOL0     C64132  10.015   4.670   8.840  0.9646 -0.8342 -0.2192
  476MOL0     O64133   9.883   4.659   8.807 -0.8739  0.3658 -0.2422
  476MOL0     C64134   9.853   4.537   8.746  0.0959 -0.0143 -0.0380
  476MOL0     C64135   9.705   4.547   8.698  0.2562  0.0278 -0.0449
  476MOL0     C64136   9.591   4.518   8.793 -0.3472  0.2333 -0.5548
  476MOL0     C64137   9.460   4.532   8.717  0.2160 -0.0659 -1.2964
  476MOL0     C64138   9.439   4.407   8.631 -0.3555  0.0496  0.0187
  476MOL0     C64139   9.295   4.394   8.578 -0.6809  0.0885  0.5945
  476MOL0     C64140   9.261   4.308   8.453 -0.0062  0.6117 -0.2743
  476MOL0     C64141   9.264   4.378   8.315 -0.7453  0.2974  0.5831
  476MOL0     N64142   9.176   4.488   8.300  0.4370 -0.5070 -0.4246
  476MOL0     C64143   9.037   4.502   8.325 -0.9386 -0.1804  0.0134
  476MOL0     C64144   9.001   4.617   8.263 -0.4256  0.2252  0.1597
  476MOL0     C64145   8.856   4.668   8.241 -0.2469  0.1365  0.6489
  476MOL0     C64146   8.802   4.630   8.111 -1.0501 -0.5140  0.2122
  476MOL0     C64147   8.651   4.643   8.095 -1.0129 -0.6210 -0.3009
  476MOL0     C64148   8.614   4.598   7.953  0.0911  0.3982 -0.4676
  476MOL0     O64149   8.478   4.613   7.951  0.0624  0.0992  0.6757
  476MOL0     C64150   8.418   4.548   7.849  0.4378  0.2937  0.3768
  476MOL0     C64151   8.427   4.412   7.827  0.4133 -0.1902 -0.7220
  476MOL0     C64152   8.362   4.340   7.730 -0.0186 -0.7334  0.8656
  476MOL0     C64153   8.392   4.196   7.693  0.2560  0.2679 -0.2714
  476MOL0     C64154   8.274   4.413   7.645 -0.7521  0.4630 -0.8847
  476MOL0     C64155   8.194   4.353   7.546 -0.5202 -0.2717  0.5395
  476MOL0     O64156   8.128   4.241   7.578  0.0570 -0.0813  0.2754
  476MOL0     C64157   8.039   4.174   7.490  0.0502 -0.6053 -0.3327
  476MOL0     C64158   8.043   4.178   7.349 -0.0586  0.3475  0.7041
  476MOL0     C64159   7.954   4.103   7.271  0.1300  0.6866 -0.4220
  476MOL0     C64160   7.845   4.041   7.327  0.1977 -0.0382 -0.1597
  476MOL0     O64161   7.750   3.983   7.239 -0.6172 -0.1776  0.1031
  476MOL0     C64162   7.644   4.069   7.196  0.2788  0.9369 -1.2374
  476MOL0     C64163   7.512   3.990   7.167 -0.5110 -0.3156  0.2981
  476MOL0     C64164   7.400   4.094   7.143 -0.3572  0.8746  0.1233
  476MOL0     C64165   7.395   4.111   6.985  0.2435 -0.5159  0.4262
  476MOL0     C64166   7.275   4.192   6.933  0.1940 -0.4427  0.2932
  476MOL0     C64167   7.280   4.341   6.992  0.3503 -0.7277  1.0062
  476MOL0     C64168   7.139   4.402   7.014 -0.1953 -0.7339  0.0505
  476MOL0     C64169   7.156   4.556   7.019 -0.3065 -0.5429  0.3055
  476MOL0    Cl64170   7.005   4.637   7.058 -0.0652 -0.5069 -0.1406
  476MOL0     C64171   7.834   4.050   7.472  0.1401  1.2426 -0.0265
  476MOL0     C64172   7.935   4.110   7.551  0.3172  0.4361  1.0957
  476MOL0     O64173   8.200   4.407   7.438  0.3211 -0.0404  0.0610
  476MOL0     C64174   8.255   4.550   7.665 -0.1574  0.2340  0.7705
  476MOL0     C64175   8.329   4.616   7.762 -0.5152  0.0451  0.1057
  476MOL0     N64176   9.114   4.675   8.204  0.3880 -0.5591 -0.3101
  476MOL0     N64177   9.214   4.588   8.222  1.0346  0.5333  0.7333
  476MOL0     C64178  10.084   4.757   8.758  0.2815 -0.0862 -0.4036
  476MOL0     C64179  10.226   4.765   8.763 -0.2314 -0.3133  0.4447
  476MOL0     C64180  10.672   4.747   8.854 -0.1636  0.0477  0.7265
  476MOL0     C64181  10.772   4.710   8.769  0.5896 -0.5845 -0.5715
  476MOL0     C64182  10.909   4.705   8.809 -0.4986  0.5244  0.3140
  476MOL0     C64183  10.946   4.749   8.936  0.3083  0.1177  0.3264
  476MOL0     O64184  11.078   4.748   8.970  0.3513  0.2154 -0.2463
  476MOL0     C64185  11.135   4.878   9.015  0.2040  0.3374 -0.3224
  476MOL0     C64186  11.143   4.999   8.918  0.0896 -0.3745 -0.2263
  476MOL0     C64187  11.224   4.956   8.794 -0.7680  0.1700  0.0557
  476MOL0     C64188  11.368   4.937   8.820 -0.8743 -0.0375 -0.9584
  476MOL0     C64189  11.441   5.049   8.881  0.0176  0.2979  0.0034
  476MOL0     C64190  11.505   5.143   8.924  0.0674 -0.4444 -0.5109
  476MOL0     C64191  10.837   4.788   9.022  0.7499 -0.0366  0.4939
  476MOL0     C64192  10.709   4.789   8.978  0.1812  1.4029  0.1139
  476MOL0     H64193  10.273   4.540   9.012  2.7577 -0.1980 -2.1657
  476MOL0     H64194  10.028   4.534   9.008  0.3665  3.0874  2.1853
  476MOL0     H64195   9.915   4.532   8.656  0.7592 -3.0623  0.4785
  476MOL0     H64196   9.869   4.444   8.802 -1.4126 -1.1497 -1.4123
  476MOL0     H64197   9.686   4.647   8.656  1.4925 -0.1970 -1.2423
  476MOL0     H64198   9.698   4.475   8.615  1.1946  0.4741 -0.5283
  476MOL0     H64199   9.585   4.416   8.832 -3.3794 -0.5979 -2.8297
  476MOL0     H64200   9.596   4.588   8.877  2.4032  1.4079 -1.5600
  476MOL0     H64201   9.385   4.532   8.796  1.3013 -1.0277 -0.2363
  476MOL0     H64202   9.456   4.620   8.651 -1.6443 -0.0567 -1.2270
  476MOL0     H64203   9.509   4.418   8.547 -0.8495  1.8708 -0.2036
  476MOL0     H64204   9.462   4.315   8.685  0.2977 -0.7868 -1.6115
  476MOL0     H64205   9.238   4.351   8.660 -0.8058 -0.3287  0.2944
  476MOL0     H64206   9.256   4.494   8.554 -1.8320 -0.4708  0.0380
  476MOL0     H64207   9.315   4.213   8.447 -0.8249  0.1394 -0.3317
  476MOL0     H64208   9.156   4.287   8.473  0.1899  0.6498  0.8655
  476MOL0     H64209   9.235   4.298   8.246 -3.0362 -0.2596  2.0648
  476MOL0     H64210   9.370   4.401   8.304 -0.4591 -1.0628  0.3374
  476MOL0     H64211   8.957   4.436   8.356 -0.5814  0.5865  2.7739
  476MOL0     H64212   8.801   4.636   8.330  0.0300  2.6121  1.8112
  476MOL0     H64213   8.847   4.777   8.243  0.4627  0.2170 -0.1584
  476MOL0     H64214   8.832   4.527   8.089 -0.4043 -0.4572  0.8029
  476MOL0     H64215   8.856   4.695   8.042 -0.0572 -0.4099  1.0592
  476MOL0     H64216   8.612   4.741   8.124 -1.1545 -1.2156  1.6844
  476MOL0     H64217   8.606   4.567   8.159  1.6790  0.4661  3.2140
  476MOL0     H64218   8.647   4.495   7.935  3.0467  1.2968 -0.7139
  476MOL0     H64219   8.665   4.665   7.884 -0.4242  2.0192  0.6531
  476MOL0     H64220   8.485   4.355   7.898 -0.2417 -0.0872 -0.0920
  476MOL0     H64221   8.379   4.176   7.587  3.3966 -0.3884 -0.6358
  476MOL0     H64222   8.494   4.159   7.713 -0.7620 -3.1772 -0.8127
  476MOL0     H64223   8.336   4.126   7.757  2.7376 -0.1413  1.6481
  476MOL0     H64224   8.125   4.219   7.290 -1.6857 -0.4528 -2.3469
  476MOL0     H64225   7.961   4.093   7.164 -1.9657  1.9175 -0.7210
  476MOL0     H64226   7.614   4.136   7.277  0.0468 -0.0634 -0.4689
  476MOL0     H64227   7.676   4.127   7.109 -1.0668  3.0289 -0.4121
  476MOL0     H64228   7.525   3.928   7.077  1.4204  1.3960 -0.6728
  476MOL0     H64229   7.493   3.918   7.247 -0.9720 -2.6738 -1.7838
  476MOL0     H64230   7.412   4.185   7.202 -0.4589  0.2326  1.1708
  476MOL0     H64231   7.307   4.046   7.174 -2.3825  2.4733 -2.9968
  476MOL0     H64232   7.484   4.163   6.948 -0.1342 -1.6249 -2.2439
  476MOL0     H64233   7.382   4.019   6.927 -0.2330  1.0197 -2.0503
  476MOL0     H64234   7.185   4.139   6.966 -0.5802  0.6871  0.1031
  476MOL0     H64235   7.274   4.199   6.824  0.0064 -0.5988  0.2838
  476MOL0     H64236   7.330   4.340   7.089  0.8289 -0.4978  0.7635
  476MOL0     H64237   7.341   4.406   6.928 -0.1795  0.1735  1.3991
  476MOL0     H64238   7.104   4.364   7.111 -1.2359 -0.4595 -0.2120
  476MOL0     H64239   7.067   4.378   6.936  0.6210 -0.5459 -0.7719
  476MOL0     H64240   7.187   4.594   6.921  1.0840  3.1205  1.9721
  476MOL0     H64241   7.242   4.584   7.081  0.8043  0.2109 -1.4781
  476MOL0     H64242   7.749   4.010   7.526 -0.6118 -0.0042 -2.0093
  476MOL0     H64243   7.932   4.100   7.659 -0.9557 -0.1923  1.0200
  476MOL0     H64244   8.192   4.606   7.596 -1.2664 -1.3856  0.4296
  476MOL0     H64245   8.319   4.721   7.789  1.8452  0.1060  0.9917
  476MOL0     H64246  10.041   4.824   8.684  1.5746  1.0003 -0.2130
  476MOL0     H64247  10.277   4.819   8.685  0.2819  2.9147  2.8237
  476MOL0     H64248  10.739   4.684   8.669 -1.0040 -1.0509  0.0538
  476MOL0     H64249  10.990   4.668   8.748 -2.4593 -3.6107 -0.1078
  476MOL0     H64250  11.081   4.907   9.105 -1.3244  1.4411 -1.5322
  476MOL0     H64251  11.232   4.859   9.062 -1.3901 -1.0578  2.6067
  476MOL0     H64252  11.173   5.093   8.964 -1.7320  0.3685 -0.4811
  476MOL0     H64253  11.040   5.020   8.888  0.2891  0.5902 -0.2418
  476MOL0     H64254  11.197   5.023   8.713  2.4242  1.4566 -0.0825
  476MOL0     H64255  11.191   4.857   8.761 -1.3436  1.3184 -3.1054
  476MOL0     H64256  11.413   4.922   8.721 -1.6862 -3.1776 -0.9315
  476MOL0     H64257  11.381   4.849   8.883 -2.6738  1.4669  1.7055
  476MOL0     H64258  11.567   5.222   8.961 -0.4298 -0.4926  0.4695
  476MOL0     H64259  10.856   4.821   9.123  1.4013  1.2463 -0.0348
  476MOL0     H64260  10.633   4.824   9.048  0.6479 -0.3046  1.5458
  477MOL0     O64261   8.544   6.366   7.299 -0.5882  0.7031  0.6242
  477MOL0     C64262   8.581   6.319   7.406 -1.0283 -0.3371  0.1223
  477MOL0     O64263   8.499   6.251   7.495 -0.3620 -0.8497  0.5988
  477MOL0     C64264   8.368   6.273   7.469  0.0369 -0.5081  0.4969
  477MOL0     C64265   8.321   6.408   7.452  0.8604 -0.1625 -0.3858
  477MOL0     C64266   8.189   6.425   7.417 -0.1735  0.5193 -0.2997
  477MOL0     C64267   8.101   6.316   7.402 -0.0783 -0.0796 -0.6379
  477MOL0     O64268   7.964   6.320   7.382  0.2221  0.7081 -0.1187
  477MOL0     C64269   7.905   6.446   7.369 -0.3575 -0.3390  0.5166
  477MOL0     C64270   7.753   6.441   7.332 -0.0636  0.3223 -0.4121
  477MOL0     C64271   7.693   6.583   7.359 -0.1628  0.5271 -0.6901
  477MOL0     C64272   7.545   6.581   7.309  0.9683 -0.0244 -0.3166
  477MOL0     C64273   7.501   6.715   7.258 -0.3311  0.9081  0.2016
  477MOL0     C64274   7.359   6.721   7.204  0.0105  0.8169  1.4898
  477MOL0     C64275   7.322   6.863   7.147 -0.3448  0.4557  0.0831
  477MOL0     C64276   7.168   6.867   7.096 -0.0594  0.0792  0.2058
  477MOL0     N64277   7.120   7.002   7.058 -0.3798  0.5802 -0.0758
  477MOL0     C64278   7.102   7.041   6.928  0.5267 -0.0595  1.0766
  477MOL0     C64279   7.046   7.164   6.940  0.6571 -0.4193 -0.1293
  477MOL0     C64280   7.031   7.259   6.829  0.7775 -0.4429  0.8629
  477MOL0     C64281   6.886   7.275   6.780  0.0223 -0.0289 -0.3521
  477MOL0     C64282   6.830   7.145   6.710 -0.1128 -0.1932 -0.4567
  477MOL0     C64283   6.852   7.144   6.555  0.4820 -0.3767 -0.6860
  477MOL0     O64284   6.780   7.256   6.504  0.8430 -0.8243  0.3568
  477MOL0     C64285   6.675   7.211   6.424  0.3735 -0.6628 -0.8969
  477MOL0     C64286   6.667   7.222   6.281  0.3284 -1.1102 -0.0208
  477MOL0     C64287   6.556   7.172   6.211 -0.6444 -0.7152  0.7265
  477MOL0     C64288   6.558   7.178   6.065  0.0852 -0.2685 -0.4303
  477MOL0     C64289   6.446   7.119   6.278 -0.2592  0.2829  0.4215
  477MOL0     C64290   6.323   7.067   6.208 -0.5409 -0.2374  0.4622
  477MOL0     O64291   6.273   6.952   6.259 -0.4710 -0.7545  0.6560
  477MOL0     C64292   6.146   6.918   6.230  0.7001 -0.2508 -0.7734
  477MOL0     C64293   6.054   6.883   6.335 -0.5788 -1.1485  0.1120
  477MOL0     C64294   5.929   6.834   6.308 -0.1346  0.1690  0.6177
  477MOL0     C64295   5.889   6.825   6.173  0.2788 -0.9665  0.5838
  477MOL0     O64296   5.762   6.776   6.154  0.9982 -0.0514  0.1409
  477MOL0     C64297   5.731   6.681   6.053  0.0189 -0.6942 -0.0211
  477MOL0     C64298   5.586   6.647   6.063  0.6062  0.2677  0.4305
  477MOL0     C64299   5.554   6.519   5.973 -0.7445 -0.2039 -0.0865
  477MOL0     C64300   5.410   6.464   5.999 -0.3295  0.5477  0.1812
  477MOL0     C64301   5.410   6.350   6.103  0.1408  0.4417  0.3249
  477MOL0     C64302   5.273   6.326   6.172 -0.2894  0.2102  0.5590
  477MOL0     C64303   5.299   6.231   6.292 -0.0910  0.1496 -0.6811
  477MOL0     C64304   5.175   6.207   6.377  0.0546  0.7272 -0.0484
  477MOL0    Cl64305   5.043   6.131   6.280 -0.5321  0.0436 -0.0348
  477MOL0     C64306   5.977   6.859   6.066 -0.7172 -0.0717 -0.0674
  477MOL0     C64307   6.100   6.916   6.102  0.1462 -0.1148  0.9332
  477MOL0     O64308   6.270   7.142   6.121  0.0029  0.4954 -0.4001
  477MOL0     C64309   6.457   7.111   6.416 -1.1766  0.2008  0.1699
  477MOL0     C64310   6.566   7.155   6.489  0.1092 -0.2406 -0.0157
  477MOL0     N64311   7.017   7.190   7.072  0.3147  0.2614 -0.0203
  477MOL0     N64312   7.065   7.095   7.143 -0.6424  0.0891 -0.2427
  477MOL0     C64313   8.150   6.189   7.420 -0.3980 -0.1424  0.2203
  477MOL0     C64314   8.285   6.165   7.451  0.1814 -0.9076  0.5553
  477MOL0     C64315   8.727   6.336   7.435 -0.0771  0.1928 -0.0065
  477MOL0     C64316   8.826   6.396   7.350 -0.0663 -0.0478  0.2874
  477MOL0     C64317   8.957   6.423   7.398 -0.3984  0.9144  0.6393
  477MOL0     C64318   8.994   6.377   7.523  0.2633  1.1301 -0.2708
  477MOL0     O64319   9.119   6.364   7.568 -0.2509 -0.4500 -0.1090
  477MOL0     C64320   9.184   6.490   7.564 -0.0789  0.6506 -0.3261
  477MOL0     C64321   9.329   6.473   7.637 -0.1861 -0.5742 -0.1391
  477MOL0     C64322   9.421   6.373   7.563  0.8620 -0.6556  0.5665
  477MOL0     C64323   9.552   6.364   7.642 -0.5785  0.3525  0.1066
  477MOL0     C64324   9.645   6.456   7.595  0.4785 -0.4474  0.0462
  477MOL0     C64325   9.731   6.526   7.552  0.3707 -0.6327 -0.2733
  477MOL0     C64326   8.898   6.333   7.613 -0.2145 -0.0596 -0.0145
  477MOL0     C64327   8.766   6.308   7.570  0.7392 -0.6973  0.9468
  477MOL0     H64328   8.381   6.496   7.469  0.7819  0.3921 -2.6242
  477MOL0     H64329   8.165   6.530   7.407  0.0606  0.5203 -0.8774
  477MOL0     H64330   7.902   6.497   7.465  0.3477 -1.5615  1.2100
  477MOL0     H64331   7.966   6.506   7.300 -1.1921  1.1968  1.0670
  477MOL0     H64332   7.733   6.410   7.229 -0.5313  0.1780 -0.2765
  477MOL0     H64333   7.705   6.368   7.398 -1.3312  0.0151 -1.6353
  477MOL0     H64334   7.695   6.607   7.465 -0.5366  2.1859 -1.0334
  477MOL0     H64335   7.763   6.655   7.316 -1.4614  2.5681  0.4469
  477MOL0     H64336   7.528   6.507   7.230 -2.3792 -0.0298  0.2669
  477MOL0     H64337   7.486   6.556   7.397 -0.8582 -1.5464 -1.8912
  477MOL0     H64338   7.511   6.791   7.336  0.5200  3.3351 -2.1273
  477MOL0     H64339   7.554   6.745   7.167 -1.3086 -0.1725 -0.7579
  477MOL0     H64340   7.367   6.661   7.113 -0.5413  0.9087  1.3820
  477MOL0     H64341   7.288   6.682   7.277 -2.6829 -0.8338 -1.7323
  477MOL0     H64342   7.324   6.935   7.229 -2.1456 -0.5767  1.1202
  477MOL0     H64343   7.387   6.903   7.069  0.0441  1.7277  1.0379
  477MOL0     H64344   7.109   6.839   7.183 -0.5041  1.9310  0.5476
  477MOL0     H64345   7.139   6.800   7.014  2.2675 -2.6213  1.4459
  477MOL0     H64346   7.133   6.987   6.839  0.3052 -1.3073  1.7239
  477MOL0     H64347   7.070   7.356   6.863 -2.3213  0.0835  3.3737
  477MOL0     H64348   7.097   7.227   6.748  1.7734  1.1641  0.9916
  477MOL0     H64349   6.875   7.366   6.721  1.0571  0.1482 -0.2853
  477MOL0     H64350   6.831   7.307   6.869  1.4269 -1.0646  0.9392
  477MOL0     H64351   6.725   7.129   6.735  0.1380 -1.8383 -0.3924
  477MOL0     H64352   6.880   7.060   6.756  2.7259  0.2199 -2.5338
  477MOL0     H64353   6.811   7.049   6.518 -1.8091 -0.1976  1.2034
  477MOL0     H64354   6.958   7.158   6.532  0.6999  0.6985  0.8452
  477MOL0     H64355   6.751   7.263   6.226 -1.1878  0.1068 -1.5355
  477MOL0     H64356   6.496   7.098   6.024 -2.1525 -1.4630  4.4959
  477MOL0     H64357   6.505   7.270   6.039 -2.4408 -1.2324  0.9078
  477MOL0     H64358   6.662   7.176   6.031  1.1083  2.0227  2.1547
  477MOL0     H64359   6.100   6.885   6.433  2.9459 -0.9887 -1.4125
  477MOL0     H64360   5.850   6.797   6.373 -1.5606 -1.0383 -1.7024
  477MOL0     H64361   5.753   6.731   5.958 -0.7073 -1.3009 -0.5223
  477MOL0     H64362   5.783   6.585   6.062  0.9692 -0.2119 -0.2763
  477MOL0     H64363   5.559   6.636   6.168 -0.1125 -0.6056  0.1734
  477MOL0     H64364   5.535   6.738   6.032 -2.0398 -1.7115 -1.5606
  477MOL0     H64365   5.627   6.439   5.981 -1.3561 -0.6619  1.4132
  477MOL0     H64366   5.553   6.551   5.869  2.8119  3.3572  0.7217
  477MOL0     H64367   5.342   6.546   6.026  1.6279  2.1403  0.4630
  477MOL0     H64368   5.374   6.425   5.903  1.3405 -0.2174 -0.1599
  477MOL0     H64369   5.483   6.366   6.183  0.5893 -2.7743  0.6793
  477MOL0     H64370   5.448   6.262   6.052 -0.5356 -0.0145  0.5894
  477MOL0     H64371   5.236   6.421   6.211  2.9263  0.9805  2.0897
  477MOL0     H64372   5.214   6.275   6.095  2.0158 -3.8331  1.2049
  477MOL0     H64373   5.367   6.279   6.363 -0.8492 -2.0077  1.6705
  477MOL0     H64374   5.335   6.134   6.256 -0.5555 -0.3327  0.1262
  477MOL0     H64375   5.138   6.304   6.411 -0.0339  0.8378 -0.4511
  477MOL0     H64376   5.192   6.150   6.469  1.2892  1.7342  0.3735
  477MOL0     H64377   5.948   6.876   5.963  0.5439  1.0634 -0.2714
  477MOL0     H64378   6.160   6.939   6.014  0.7666 -0.7243  1.1874
  477MOL0     H64379   6.363   7.079   6.457 -0.1997 -1.0613  1.5128
  477MOL0     H64380   6.576   7.152   6.597 -0.3386 -0.3205  0.0243
  477MOL0     H64381   8.079   6.107   7.415 -2.3970  1.5467 -0.5132
  477MOL0     H64382   8.331   6.067   7.466  0.4309 -0.3622  4.1613
  477MOL0     H64383   8.806   6.418   7.245  1.2733 -0.7590 -0.1530
  477MOL0     H64384   9.040   6.466   7.343 -0.7608 -0.9100 -1.5326
  477MOL0     H64385   9.208   6.523   7.463 -0.5609  0.6315 -0.4484
  477MOL0     H64386   9.127   6.576   7.600 -0.7506  0.9832 -2.1095
  477MOL0     H64387   9.313   6.445   7.741 -1.7199  1.0584  0.1283
  477MOL0     H64388   9.378   6.571   7.630  1.7729 -1.5856 -1.3807
  477MOL0     H64389   9.435   6.410   7.461  1.1828 -2.0273  0.0950
  477MOL0     H64390   9.376   6.274   7.554 -0.6033 -0.1333  1.8105
  477MOL0     H64391   9.594   6.263   7.640  0.8245  0.9161 -0.2688
  477MOL0     H64392   9.543   6.385   7.749 -0.5501 -3.5886  1.0319
  477MOL0     H64393   9.803   6.588   7.503  0.1490 -0.1979 -0.0535
  477MOL0     H64394   8.919   6.300   7.714  1.6545 -1.6107 -0.8502
  477MOL0     H64395   8.695   6.264   7.640  0.8137 -1.0511  0.8019
  478MOL0     O64396   2.168   6.814   6.288 -0.3018  0.2089 -0.2819
  478MOL0     C64397   2.096   6.794   6.187  0.5716 -0.0002 -0.8343
  478MOL0     O64398   2.135   6.752   6.067  0.6689 -0.5366  0.1085
  478MOL0     C64399   2.261   6.723   6.063  0.0064 -0.1791  0.1784
  478MOL0     C64400   2.301   6.596   6.099 -0.4061  0.7252  0.2441
  478MOL0     C64401   2.436   6.567   6.103  0.4729  0.1017  0.0955
  478MOL0     C64402   2.532   6.667   6.071  0.3959 -0.0110 -0.9197
  478MOL0     O64403   2.662   6.620   6.071  0.1707  0.1989 -0.5204
  478MOL0     C64404   2.761   6.719   6.088 -0.0224  0.8060  0.0630
  478MOL0     C64405   2.779   6.756   6.236 -0.6216 -0.6046  0.5449
  478MOL0     C64406   2.769   6.646   6.336  1.1533  0.6260 -0.2891
  478MOL0     C64407   2.791   6.714   6.474 -1.1340  0.3747  0.0408
  478MOL0     C64408   2.929   6.719   6.536 -0.9849  0.1068  0.4304
  478MOL0     C64409   2.907   6.771   6.680  0.1920 -0.0351 -0.0510
  478MOL0     C64410   3.035   6.795   6.755  0.3147  0.7106 -0.7199
  478MOL0     C64411   3.024   6.860   6.888  0.3484  0.1051  0.8643
  478MOL0     N64412   2.941   6.980   6.885 -0.6863  0.0402  0.4067
  478MOL0     C64413   2.809   6.969   6.913 -0.4369  0.4258  0.0526
  478MOL0     C64414   2.770   7.098   6.903  0.8085  0.7035 -0.4787
  478MOL0     C64415   2.630   7.134   6.943 -0.3646  0.2913 -0.6009
  478MOL0     C64416   2.588   7.262   6.876  0.2277 -0.6601  0.4068
  478MOL0     C64417   2.549   7.371   6.974  0.7994  1.2531  0.1488
  478MOL0     C64418   2.417   7.347   7.048  0.1441 -0.2455 -0.0720
  478MOL0     O64419   2.306   7.334   6.960  0.1032  0.1832 -0.1056
  478MOL0     C64420   2.179   7.339   7.012  0.1819  1.0650  0.1902
  478MOL0     C64421   2.134   7.362   7.148  0.2617 -0.6908  0.0971
  478MOL0     C64422   2.002   7.384   7.180  0.0524  0.2464 -1.2752
  478MOL0     C64423   1.965   7.402   7.325  0.2626 -0.6060 -0.1843
  478MOL0     C64424   1.908   7.390   7.078  0.6399 -1.0893 -0.0785
  478MOL0     C64425   1.760   7.383   7.097  0.6342  0.5995  1.1113
  478MOL0     O64426   1.718   7.291   7.196 -0.6310 -0.2775  0.1147
  478MOL0     C64427   1.589   7.305   7.239 -0.2199 -0.2491  0.8216
  478MOL0     C64428   1.554   7.394   7.339  0.6868 -0.9644 -0.4223
  478MOL0     C64429   1.423   7.374   7.404  0.2603 -0.1883 -0.5741
  478MOL0     C64430   1.328   7.295   7.349  0.2934  0.2194 -0.2844
  478MOL0     O64431   1.210   7.262   7.411 -0.6562  0.0796  0.7120
  478MOL0     C64432   1.194   7.284   7.549  0.9395  0.6426  0.2829
  478MOL0     C64433   1.066   7.214   7.576 -0.0145  0.2949 -0.2820
  478MOL0     C64434   1.013   7.208   7.723 -0.3922  0.3351 -0.2430
  478MOL0     C64435   1.011   7.057   7.774 -0.1094 -0.5248  0.5515
  478MOL0     C64436   0.974   7.058   7.919  0.2089  0.6065 -0.7047
  478MOL0     C64437   0.920   6.922   7.964 -0.0673 -0.4861  0.8230
  478MOL0     C64438   0.886   6.916   8.117  0.2337 -0.0597 -0.2920
  478MOL0     C64439   0.927   6.785   8.178 -0.4475  0.5032 -0.0826
  478MOL0    Cl64440   1.100   6.780   8.219  0.2309  0.4337  0.1227
  478MOL0     C64441   1.358   7.226   7.237  0.0045 -1.1630  1.0487
  478MOL0     C64442   1.493   7.238   7.183 -0.7640  0.6532 -0.4502
  478MOL0     O64443   1.681   7.438   7.023  0.3022 -0.2615 -0.0794
  478MOL0     C64444   1.949   7.382   6.945  0.5412  0.2500  0.7442
  478MOL0     C64445   2.084   7.344   6.911  0.6980  0.0803 -0.2366
  478MOL0     N64446   2.883   7.179   6.889 -0.4882 -0.3787 -0.5379
  478MOL0     N64447   2.987   7.109   6.874  0.2621  0.7651 -1.6366
  478MOL0     C64448   2.492   6.803   6.053  0.1215  0.0808  0.1804
  478MOL0     C64449   2.361   6.824   6.041  0.0285 -0.2933  0.6455
  478MOL0     C64450   1.947   6.830   6.206 -0.5370  1.0237 -0.5527
  478MOL0     C64451   1.855   6.812   6.104  0.8625  0.5843 -0.1353
  478MOL0     C64452   1.715   6.855   6.121  0.5093  0.4889 -0.7371
  478MOL0     C64453   1.670   6.916   6.238 -0.3841  0.1082 -0.5770
  478MOL0     O64454   1.547   6.970   6.233  0.2953  0.3378 -0.2388
  478MOL0     C64455   1.497   7.040   6.348 -0.3071  0.1389  0.1989
  478MOL0     C64456   1.346   7.067   6.312 -0.1398  0.9922  0.2100
  478MOL0     C64457   1.323   7.180   6.218 -0.4405  0.3304 -0.1558
  478MOL0     C64458   1.176   7.221   6.199 -0.0607 -0.0760 -0.7621
  478MOL0     C64459   1.094   7.122   6.123  0.5327  0.8190  0.0833
  478MOL0     C64460   1.025   7.040   6.068  0.3383  0.7996 -0.3929
  478MOL0     C64461   1.766   6.926   6.336  0.0743  0.1748 -0.1880
  478MOL0     C64462   1.900   6.895   6.325  0.7817  0.4106  0.2655
  478MOL0     H64463   2.229   6.525   6.138  1.2890 -0.9721  0.3947
  478MOL0     H64464   2.467   6.467   6.132 -0.7229  0.0810  1.4357
  478MOL0     H64465   2.850   6.670   6.047  0.9416  3.7222 -1.6560
  478MOL0     H64466   2.748   6.806   6.024  1.7588  1.6609  0.7796
  478MOL0     H64467   2.875   6.807   6.247  0.8850 -2.9025 -1.0523
  478MOL0     H64468   2.703   6.833   6.255  1.6527  2.1170 -0.7299
  478MOL0     H64469   2.665   6.614   6.329  1.1028 -1.0958  4.4392
  478MOL0     H64470   2.839   6.564   6.318 -2.2322 -2.8028  0.7591
  478MOL0     H64471   2.770   6.821   6.470  2.1377  1.1091 -0.0884
  478MOL0     H64472   2.732   6.657   6.546  0.6202  0.9089  2.0085
  478MOL0     H64473   2.971   6.619   6.553  0.9406  1.1041  1.8384
  478MOL0     H64474   3.008   6.772   6.483  0.8791 -1.5473  1.4391
  478MOL0     H64475   2.852   6.866   6.669  3.4262  1.9561 -0.4351
  478MOL0     H64476   2.848   6.702   6.742 -2.0554 -0.3022 -2.3123
  478MOL0     H64477   3.088   6.701   6.772 -1.4629  0.0244  1.4856
  478MOL0     H64478   3.105   6.855   6.696 -1.1394 -0.4323 -3.8326
  478MOL0     H64479   3.115   6.889   6.941  0.6929  1.3929 -0.3730
  478MOL0     H64480   2.975   6.784   6.950 -0.6611 -0.7995 -0.9682
  478MOL0     H64481   2.753   6.881   6.944 -1.4272  2.2913  4.3207
  478MOL0     H64482   2.555   7.064   6.906  1.6810 -1.8389 -0.9138
  478MOL0     H64483   2.619   7.141   7.051 -1.3940 -1.1047 -0.5960
  478MOL0     H64484   2.505   7.244   6.808 -2.4063 -2.9832  3.8522
  478MOL0     H64485   2.655   7.307   6.802 -2.3289 -2.2004 -3.1294
  478MOL0     H64486   2.531   7.461   6.914 -0.2329  0.5699 -0.6075
  478MOL0     H64487   2.631   7.389   7.044  2.2911 -0.1643 -1.1677
  478MOL0     H64488   2.399   7.431   7.117 -0.3976 -0.3779 -0.0465
  478MOL0     H64489   2.432   7.258   7.110 -0.8227 -2.9669 -3.4375
  478MOL0     H64490   2.205   7.359   7.230  0.5736  0.3017 -0.1162
  478MOL0     H64491   1.904   7.493   7.336 -0.6318 -1.3035  0.9000
  478MOL0     H64492   1.905   7.322   7.369 -3.0926  0.8744 -1.6457
  478MOL0     H64493   2.052   7.420   7.388  0.6156  3.3188 -1.4984
  478MOL0     H64494   1.631   7.446   7.394  1.6111 -1.2748 -1.3957
  478MOL0     H64495   1.394   7.432   7.491  1.7429  1.6739 -1.2582
  478MOL0     H64496   1.281   7.240   7.599  0.1366 -2.4693 -0.8408
  478MOL0     H64497   1.178   7.385   7.588 -0.5887  0.3314  0.5179
  478MOL0     H64498   1.000   7.290   7.535  0.2507 -0.5900 -2.5106
  478MOL0     H64499   1.060   7.114   7.531 -4.2271  1.1883 -2.1660
  478MOL0     H64500   0.917   7.259   7.735 -0.3803  0.5584 -1.0209
  478MOL0     H64501   1.089   7.266   7.777 -1.0472  1.0792 -0.0907
  478MOL0     H64502   0.930   7.004   7.724 -1.8575 -1.6144  4.2110
  478MOL0     H64503   1.107   7.009   7.749  0.3437  0.5775  0.1198
  478MOL0     H64504   0.892   7.128   7.933 -1.6547 -1.0703 -2.5981
  478MOL0     H64505   1.060   7.083   7.983 -0.9203 -2.7181  2.5058
  478MOL0     H64506   0.834   6.895   7.902 -0.9021  2.8710  0.3214
  478MOL0     H64507   0.998   6.852   7.936  0.4828  1.0364 -1.8450
  478MOL0     H64508   0.778   6.934   8.124  0.2215  1.6674 -3.0374
  478MOL0     H64509   0.935   6.997   8.172  1.6209 -2.1799  1.7490
  478MOL0     H64510   0.908   6.701   8.111  0.9279 -0.0336  0.1869
  478MOL0     H64511   0.856   6.772   8.261 -1.1301  3.6999 -0.0302
  478MOL0     H64512   1.282   7.166   7.189 -0.2608  0.3224 -0.4962
  478MOL0     H64513   1.525   7.167   7.107  1.5451  1.6113 -0.4324
  478MOL0     H64514   1.881   7.393   6.861  0.1896 -2.1275  0.6327
  478MOL0     H64515   2.120   7.348   6.808  1.7888 -0.3965  0.1129
  478MOL0     H64516   2.567   6.879   6.037  3.1781 -2.6761  0.4448
  478MOL0     H64517   2.326   6.927   6.036 -0.8307 -0.6312 -1.2099
  478MOL0     H64518   1.883   6.767   6.010  0.3969 -1.2381  0.5594
  478MOL0     H64519   1.657   6.850   6.029 -0.0734  0.9507 -0.3991
  478MOL0     H64520   1.499   6.976   6.437  3.9238 -1.7484 -1.0009
  478MOL0     H64521   1.550   7.131   6.377  0.4499 -0.2230 -0.0363
  478MOL0     H64522   1.291   7.074   6.406 -1.5639 -2.8043 -0.1662
  478MOL0     H64523   1.301   6.975   6.273 -1.8499  1.0596  1.8739
  478MOL0     H64524   1.349   7.136   6.121  1.2313 -0.7061  0.7192
  478MOL0     H64525   1.381   7.266   6.252 -0.7604  0.5201 -0.0770
  478MOL0     H64526   1.180   7.310   6.136  0.6145 -0.1077 -0.7756
  478MOL0     H64527   1.129   7.237   6.296  0.0247  1.5224 -0.9626
  478MOL0     H64528   0.964   6.966   6.019  1.3937 -0.0096 -0.5160
  478MOL0     H64529   1.728   6.971   6.427 -2.5183 -1.9058 -0.1052
  478MOL0     H64530   1.967   6.908   6.409  2.5605  2.4945 -1.3716
  479MOL0     O64531   1.897   2.374   5.758 -0.1088  0.1652  0.5741
  479MOL0     C64532   1.918   2.262   5.802 -0.9563  0.0311 -0.1438
  479MOL0     O64533   1.842   2.197   5.897  0.2681  0.6237 -0.3533
  479MOL0     C64534   1.722   2.261   5.917  0.7948 -0.0561  0.1036
  479MOL0     C64535   1.629   2.263   5.815 -0.1537 -0.7942  0.6067
  479MOL0     C64536   1.507   2.336   5.825  0.4954  0.0957 -1.0751
  479MOL0     C64537   1.490   2.416   5.942  0.2056  0.1387 -0.1242
  479MOL0     O64538   1.379   2.494   5.945 -0.1865 -0.3245  0.4116
  479MOL0     C64539   1.280   2.475   6.047 -0.1650 -0.6630  0.0127
  479MOL0     C64540   1.188   2.594   6.029 -0.4343 -0.3844  0.2373
  479MOL0     C64541   1.099   2.607   6.158  0.2579 -0.0443 -0.1415
  479MOL0     C64542   0.995   2.718   6.139  0.3866 -1.1450  0.3623
  479MOL0     C64543   0.859   2.688   6.058 -0.4879 -0.3071  0.4495
  479MOL0     C64544   0.788   2.821   6.030 -0.3010  0.4283 -0.2253
  479MOL0     C64545   0.648   2.809   5.987 -0.0484  0.2269  0.0397
  479MOL0     C64546   0.579   2.937   5.939  0.0174  0.5598  0.3612
  479MOL0     N64547   0.450   2.927   5.876 -0.5063  0.5550  0.3193
  479MOL0     C64548   0.348   2.838   5.901 -0.3107 -0.0933 -0.3029
  479MOL0     C64549   0.270   2.828   5.793  0.1984  0.0070 -0.2856
  479MOL0     C64550   0.140   2.750   5.777 -0.1319  0.4019  0.6019
  479MOL0     C64551   0.013   2.841   5.772 -0.7383  1.6800 -0.3021
  479MOL0     C64552   0.004   2.937   5.887  0.3505 -0.7041 -0.2666
  479MOL0     C64553  -0.113   3.040   5.873 -0.1338 -0.1116 -0.1765
  479MOL0     O64554  -0.240   2.970   5.887 -0.0699 -0.8902  0.3742
  479MOL0     C64555  -0.357   3.049   5.903 -0.4902  0.7878  0.6551
  479MOL0     C64556  -0.477   2.995   5.856  0.8071 -0.5104  0.7890
  479MOL0     C64557  -0.597   3.071   5.869 -1.0599 -0.1390 -0.2693
  479MOL0     C64558  -0.723   3.006   5.822  1.1252  0.4493  0.7049
  479MOL0     C64559  -0.592   3.206   5.922  0.2505 -0.4036 -0.1287
  479MOL0     C64560  -0.718   3.282   5.937  0.5027 -0.6056  0.5002
  479MOL0     O64561  -0.823   3.267   5.852 -0.4148 -0.0494 -0.3952
  479MOL0     C64562  -0.925   3.360   5.863 -0.4063 -0.4894  0.5824
  479MOL0     C64563  -1.052   3.307   5.852 -0.4802  0.0613 -0.7826
  479MOL0     C64564  -1.161   3.390   5.854  0.2817  0.9042 -0.1342
  479MOL0     C64565  -1.137   3.527   5.849  0.1535 -0.0701  0.3442
  479MOL0     O64566  -1.246   3.608   5.851  0.2563 -0.2744 -0.0544
  479MOL0     C64567  -1.253   3.704   5.735  0.3616 -0.0976  0.3868
  479MOL0     C64568  -1.298   3.613   5.612 -0.3105 -0.4654  0.7282
  479MOL0     C64569  -1.267   3.694   5.478 -0.4717 -0.3280  0.5934
  479MOL0     C64570  -1.355   3.618   5.369  0.1905 -0.7895  0.1676
  479MOL0     C64571  -1.377   3.712   5.256  0.8029 -0.3519  0.1247
  479MOL0     C64572  -1.465   3.640   5.158 -0.0848 -0.3959  1.5854
  479MOL0     C64573  -1.473   3.721   5.027 -0.1993 -0.4833 -0.3293
  479MOL0     C64574  -1.600   3.681   4.955  0.0731  0.0436 -0.5854
  479MOL0    Cl64575  -1.602   3.520   4.872  0.1190 -0.6432  0.1140
  479MOL0     C64576  -1.018   3.583   5.867 -0.2920  0.1562  0.5220
  479MOL0     C64577  -0.904   3.498   5.876  0.0159 -0.3915  0.6698
  479MOL0     O64578  -0.724   3.356   6.040 -0.0908  0.2183 -0.8069
  479MOL0     C64579  -0.477   3.250   5.980  0.3416  0.3725 -0.2673
  479MOL0     C64580  -0.361   3.170   5.970 -0.4063  0.0783  1.1109
  479MOL0     N64581   0.313   2.923   5.703  0.5750  0.2085  0.1743
  479MOL0     N64582   0.434   2.971   5.744  0.1568 -0.2033 -0.2724
  479MOL0     C64583   1.583   2.431   6.038  0.0151  0.0976 -0.3701
  479MOL0     C64584   1.703   2.354   6.025  0.0578 -0.8141 -0.0519
  479MOL0     C64585   2.049   2.194   5.769  0.5204  0.6483  0.5348
  479MOL0     C64586   2.145   2.269   5.699 -0.1624 -0.0533 -0.1836
  479MOL0     C64587   2.264   2.202   5.664 -0.0689  0.5682 -0.3387
  479MOL0     C64588   2.290   2.072   5.705  0.8375  0.6590  0.8507
  479MOL0     O64589   2.417   2.033   5.685  0.0284 -0.1951 -0.5332
  479MOL0     C64590   2.477   1.961   5.798 -0.3311  0.2742 -0.2012
  479MOL0     C64591   2.628   1.940   5.796 -0.1491 -0.1260 -0.1395
  479MOL0     C64592   2.713   2.050   5.854  0.0579  0.1728  0.5919
  479MOL0     C64593   2.687   2.186   5.788 -0.2949 -0.7007  0.5160
  479MOL0     C64594   2.786   2.275   5.841 -0.5946  0.5189 -0.1427
  479MOL0     C64595   2.866   2.350   5.881  0.3818 -0.0317 -0.0687
  479MOL0     C64596   2.190   2.003   5.766  0.4014 -0.1361 -0.1023
  479MOL0     C64597   2.077   2.068   5.814 -0.6574  0.0774 -0.0577
  479MOL0     H64598   1.646   2.190   5.736  4.4802 -1.7919  2.2273
  479MOL0     H64599   1.416   2.325   5.767 -0.4197 -4.7702  0.8116
  479MOL0     H64600   1.211   2.393   6.026 -1.0599  1.1352 -5.9722
  479MOL0     H64601   1.325   2.466   6.146  3.2126 -2.7022 -1.5162
  479MOL0     H64602   1.248   2.685   6.024 -1.8626  0.9764  4.0532
  479MOL0     H64603   1.127   2.573   5.941 -0.6263  1.0825  0.0015
  479MOL0     H64604   1.038   2.518   6.169 -1.9209  1.1042 -2.0475
  479MOL0     H64605   1.162   2.620   6.246  0.9621 -2.0729 -0.2894
  479MOL0     H64606   0.968   2.751   6.240  3.5896 -0.6657  1.1446
  479MOL0     H64607   1.043   2.802   6.087 -0.9577 -0.3386  0.3593
  479MOL0     H64608   0.894   2.641   5.966  0.3639  1.6793 -0.3055
  479MOL0     H64609   0.795   2.616   6.111  0.1660 -0.7999  0.5895
  479MOL0     H64610   0.792   2.892   6.114 -1.8154 -1.5905  1.6588
  479MOL0     H64611   0.846   2.848   5.941  1.4284 -3.8890 -0.6137
  479MOL0     H64612   0.642   2.736   5.906  0.5448 -0.5364  0.6664
  479MOL0     H64613   0.587   2.775   6.071  1.2596  3.6743  2.5964
  479MOL0     H64614   0.649   2.987   5.872 -1.4436  1.0899 -0.8463
  479MOL0     H64615   0.552   2.994   6.029 -2.6448 -0.0441  0.0472
  479MOL0     H64616   0.323   2.780   5.989  0.3212 -1.8872 -1.2508
  479MOL0     H64617   0.134   2.681   5.693 -3.5745 -1.2416  2.0067
  479MOL0     H64618   0.129   2.686   5.865  0.7705 -1.7690 -0.7913
  479MOL0     H64619  -0.077   2.779   5.770 -0.1476  0.7967 -0.2653
  479MOL0     H64620   0.022   2.906   5.684  1.1936  2.6055  0.5171
  479MOL0     H64621   0.092   3.003   5.889 -1.7139  2.2484  2.1669
  479MOL0     H64622  -0.011   2.886   5.982 -1.0788 -1.0619 -0.6541
  479MOL0     H64623  -0.113   3.097   5.780  0.4650 -0.8064 -0.6142
  479MOL0     H64624  -0.095   3.106   5.958 -0.9433 -2.3881  1.9146
  479MOL0     H64625  -0.469   2.893   5.819 -0.3605 -1.4798  3.0269
  479MOL0     H64626  -0.703   2.902   5.795 -1.2624 -0.3335  1.7123
  479MOL0     H64627  -0.794   3.005   5.905  1.5179  2.1925  1.1152
  479MOL0     H64628  -0.773   3.049   5.735  0.7483  0.8386  1.1109
  479MOL0     H64629  -1.058   3.203   5.821  1.0656 -0.0870 -0.6516
  479MOL0     H64630  -1.252   3.333   5.834  0.3381  0.2764  1.2729
  479MOL0     H64631  -1.333   3.775   5.758 -0.1614 -1.4523  3.2387
  479MOL0     H64632  -1.170   3.771   5.713 -0.3641  0.8500  0.4765
  479MOL0     H64633  -1.230   3.527   5.617  0.6719  0.3449  2.4431
  479MOL0     H64634  -1.403   3.588   5.625 -0.8746  0.4872 -1.5149
  479MOL0     H64635  -1.164   3.674   5.448 -1.2423 -3.0102 -0.6851
  479MOL0     H64636  -1.294   3.799   5.488  0.2113  0.2440 -2.5816
  479MOL0     H64637  -1.297   3.534   5.330  2.3736 -0.3576  2.2438
  479MOL0     H64638  -1.450   3.585   5.413 -1.7337  2.4853 -1.1451
  479MOL0     H64639  -1.281   3.725   5.205  1.4450  1.1917  1.6135
  479MOL0     H64640  -1.427   3.806   5.282 -2.3719 -1.1880 -2.2386
  479MOL0     H64641  -1.420   3.546   5.124 -0.0986  0.6066 -1.5251
  479MOL0     H64642  -1.565   3.628   5.200 -0.1312  0.0384  1.5961
  479MOL0     H64643  -1.381   3.711   4.968 -0.9394 -1.5081 -1.3445
  479MOL0     H64644  -1.485   3.827   5.051 -0.9240  0.3022 -3.6096
  479MOL0     H64645  -1.615   3.755   4.876 -0.5903  0.1553 -0.3603
  479MOL0     H64646  -1.682   3.682   5.028 -0.0075  0.8749 -0.6755
  479MOL0     H64647  -1.003   3.691   5.870  2.0051 -0.1202  0.9443
  479MOL0     H64648  -0.806   3.544   5.880  0.8019 -1.7566 -1.5613
  479MOL0     H64649  -0.481   3.330   6.053  2.6526  0.6341 -0.3771
  479MOL0     H64650  -0.271   3.213   6.013  0.0977  2.3056 -1.8253
  479MOL0     H64651   1.563   2.504   6.115 -2.1854  0.7940 -1.5276
  479MOL0     H64652   1.770   2.347   6.109  0.1270 -0.8393 -0.1090
  479MOL0     H64653   2.125   2.371   5.668 -1.7995 -0.3911 -0.2991
  479MOL0     H64654   2.343   2.260   5.619 -0.5807  1.3764 -0.2063
  479MOL0     H64655   2.442   2.012   5.888 -1.4395 -1.6919  0.5326
  479MOL0     H64656   2.425   1.865   5.796 -2.6659  1.4723 -0.2025
  479MOL0     H64657   2.652   1.925   5.690  1.1011 -0.0655  0.1226
  479MOL0     H64658   2.663   1.849   5.846 -3.0555 -1.1006  0.2885
  479MOL0     H64659   2.814   2.018   5.824  0.6671  3.5041 -1.5472
  479MOL0     H64660   2.708   2.058   5.963 -0.7680 -0.0187  0.5711
  479MOL0     H64661   2.589   2.228   5.813 -0.9949  0.1208 -3.0884
  479MOL0     H64662   2.700   2.178   5.680  1.0485  1.8810  0.4141
  479MOL0     H64663   2.913   2.428   5.936 -1.2976 -0.7561  2.5558
  479MOL0     H64664   2.211   1.898   5.779 -0.1242 -0.1954  0.2720
  479MOL0     H64665   2.008   2.016   5.881 -1.0988 -1.6897 -1.7949
  480MOL0     O64666   9.573   4.734  10.184 -0.2641  0.4586 -0.0443
  480MOL0     C64667   9.532   4.848  10.185 -0.0520 -0.0184 -0.0353
  480MOL0     O64668   9.408   4.893  10.242  0.1074 -0.1074  0.5075
  480MOL0     C64669   9.322   4.799  10.275 -0.1749  0.0747 -0.1402
  480MOL0     C64670   9.252   4.724  10.182  0.9612  0.0476 -0.0098
  480MOL0     C64671   9.159   4.627  10.230  1.4235 -0.2963 -0.7504
  480MOL0     C64672   9.133   4.625  10.367 -0.2499  1.0021  0.7461
  480MOL0     O64673   9.031   4.554  10.419  0.4266  0.3547  0.2032
  480MOL0     C64674   8.915   4.534  10.335  0.5328  0.0857 -0.2208
  480MOL0     C64675   8.810   4.502  10.432  0.0227  0.4004  0.9379
  480MOL0     C64676   8.678   4.452  10.365  0.6020  0.0649  1.1966
  480MOL0     C64677   8.589   4.397  10.474 -0.6419  0.6592  0.0518
  480MOL0     C64678   8.456   4.347  10.430  0.1392 -0.5955 -0.0735
  480MOL0     C64679   8.357   4.458  10.410  0.6196 -0.5249  0.0423
  480MOL0     C64680   8.229   4.397  10.349  0.1318 -0.9955 -0.0370
  480MOL0     C64681   8.117   4.489  10.317  0.5371 -0.1817 -0.0258
  480MOL0     N64682   7.981   4.424  10.313  0.6199 -0.2263  0.0998
  480MOL0     C64683   7.907   4.392  10.204 -0.2314  0.0034 -1.1045
  480MOL0     C64684   7.795   4.336  10.250 -0.2466  1.0167 -1.0874
  480MOL0     C64685   7.695   4.270  10.161  0.4854  0.4650  0.1957
  480MOL0     C64686   7.555   4.331  10.186 -0.9119  1.0069 -0.1608
  480MOL0     C64687   7.450   4.247  10.111  0.4908 -0.0287 -0.0935
  480MOL0     C64688   7.323   4.318  10.132  0.4925  0.4913 -0.8138
  480MOL0     O64689   7.210   4.222  10.131  0.5730  0.3655 -0.1257
  480MOL0     C64690   7.079   4.267  10.130 -0.1211  0.6772  0.5546
  480MOL0     C64691   7.041   4.404  10.135 -0.7475  0.0847  0.2301
  480MOL0     C64692   6.908   4.446  10.107 -0.0492 -0.1054  0.1511
  480MOL0     C64693   6.879   4.593  10.100  0.6445 -0.1770  0.9525
  480MOL0     C64694   6.810   4.347  10.089  1.0458  0.0789  0.6096
  480MOL0     C64695   6.660   4.365  10.060 -0.5275  0.1262 -1.7314
  480MOL0     O64696   6.586   4.248  10.027 -0.1991  0.1747  0.8414
  480MOL0     C64697   6.455   4.243   9.984  0.0435 -0.2731 -0.0239
  480MOL0     C64698   6.384   4.133  10.027  0.5368 -0.0372  0.0964
  480MOL0     C64699   6.249   4.116   9.997 -0.2194 -0.7043  0.3271
  480MOL0     C64700   6.183   4.220   9.938 -0.3092  0.1233 -0.6558
  480MOL0     O64701   6.052   4.219   9.901 -0.1327  0.1570  0.7533
  480MOL0     C64702   5.969   4.168  10.011  0.1604  0.2856  0.0611
  480MOL0     C64703   5.821   4.156   9.974 -0.8510  0.5389 -0.1371
  480MOL0     C64704   5.736   4.104  10.086  0.0461 -0.1154 -0.1801
  480MOL0     C64705   5.596   4.060  10.048  0.3961 -0.4610  0.2699
  480MOL0     C64706   5.526   4.037  10.179  0.6715 -0.3756 -1.3564
  480MOL0     C64707   5.401   3.968  10.126  0.3091  0.2948 -0.6661
  480MOL0     C64708   5.304   3.960  10.236 -0.6943  0.2958 -0.4526
  480MOL0     C64709   5.162   3.914  10.191 -0.1499 -1.0975  1.2667
  480MOL0    Cl64710   5.072   4.053  10.096 -0.2037  0.0146  0.2409
  480MOL0     C64711   6.251   4.337   9.903 -0.7905  0.2144 -0.1253
  480MOL0     C64712   6.389   4.347   9.924  0.2011 -0.7363  0.4963
  480MOL0     O64713   6.617   4.476  10.077 -0.3496 -0.4755 -0.2735
  480MOL0     C64714   6.855   4.213  10.081  0.8744  0.2647 -0.0666
  480MOL0     C64715   6.985   4.171  10.096 -0.3393 -0.1245  0.4131
  480MOL0     N64716   7.800   4.335  10.388 -0.0577 -0.6866  0.0674
  480MOL0     N64717   7.909   4.385  10.425  0.6787 -0.3285  0.4292
  480MOL0     C64718   9.205   4.696  10.461  0.3932  0.0093  0.1845
  480MOL0     C64719   9.292   4.793  10.416 -0.4373  0.3081  0.9813
  480MOL0     C64720   9.623   4.950  10.110  0.9484 -0.3462 -0.2185
  480MOL0     C64721   9.752   4.919  10.063 -0.5250  0.5678  0.1646
  480MOL0     C64722   9.846   5.021  10.018  0.4026  0.3977 -0.3590
  480MOL0     C64723   9.800   5.156  10.000 -0.0497 -0.3686  0.4239
  480MOL0     O64724   9.868   5.262   9.943 -0.3851  0.5240  0.2247
  480MOL0     C64725   9.979   5.237   9.860  0.1752  0.6003  0.1862
  480MOL0     C64726  10.040   5.357   9.791 -0.7770 -0.3285 -0.6661
  480MOL0     C64727  10.102   5.461   9.885 -0.1576  0.2798 -0.4898
  480MOL0     C64728  10.197   5.555   9.814 -0.3332 -0.3614 -0.3575
  480MOL0     C64729  10.312   5.482   9.748 -0.8957  0.1404 -0.7462
  480MOL0     C64730  10.417   5.443   9.694 -0.4685  0.1510  0.1119
  480MOL0     C64731   9.663   5.181  10.032 -0.1190  1.4963  0.8837
  480MOL0     C64732   9.585   5.087  10.095 -0.6226  0.3858 -0.4827
  480MOL0     H64733   9.270   4.751  10.078  1.3938 -0.4791 -0.0745
  480MOL0     H64734   9.102   4.578  10.152 -2.6890  1.0495  1.1288
  480MOL0     H64735   8.887   4.625  10.281 -3.8426 -0.5494  0.6085
  480MOL0     H64736   8.927   4.450  10.267  0.9522  1.0539 -1.3680
  480MOL0     H64737   8.839   4.426  10.506  1.1151  1.7289  1.9329
  480MOL0     H64738   8.792   4.598  10.480  1.7344  0.5916  1.2623
  480MOL0     H64739   8.636   4.543  10.322 -0.3549 -1.7230 -2.0410
  480MOL0     H64740   8.708   4.380  10.287  2.1352  0.6528  1.2134
  480MOL0     H64741   8.640   4.308  10.511  0.4470  0.8480 -0.9586
  480MOL0     H64742   8.589   4.467  10.559 -0.7816  0.8250 -0.0819
  480MOL0     H64743   8.469   4.296  10.334  2.2077  0.5407 -0.4353
  480MOL0     H64744   8.421   4.275  10.505 -2.1565 -0.7687 -1.2040
  480MOL0     H64745   8.337   4.505  10.507  2.0926 -1.5328  0.8766
  480MOL0     H64746   8.395   4.539  10.348  2.5776 -2.4597 -1.4774
  480MOL0     H64747   8.254   4.350  10.254  1.2067  0.8491 -0.7230
  480MOL0     H64748   8.178   4.327  10.415 -2.2125 -1.2669 -2.0219
  480MOL0     H64749   8.147   4.536  10.222  0.0380 -0.8438 -0.5203
  480MOL0     H64750   8.116   4.569  10.392  0.6218  1.3671 -1.5985
  480MOL0     H64751   7.943   4.402  10.102  0.7060 -1.0583 -0.9081
  480MOL0     H64752   7.719   4.281  10.055  0.4117 -0.0009  0.1265
  480MOL0     H64753   7.696   4.162  10.177  0.7306  0.4115 -0.1635
  480MOL0     H64754   7.551   4.435  10.153  0.4654  0.4468 -2.3608
  480MOL0     H64755   7.534   4.328  10.293  4.7964 -1.9504  1.2956
  480MOL0     H64756   7.439   4.146  10.151 -2.3257 -0.3595 -1.4374
  480MOL0     H64757   7.477   4.225  10.007 -2.5795 -1.7783 -0.6274
  480MOL0     H64758   7.324   4.404  10.064  0.2034  0.7281 -0.5194
  480MOL0     H64759   7.323   4.361  10.232  2.9664 -0.3046 -0.3870
  480MOL0     H64760   7.114   4.481  10.161  0.8994 -1.7024  1.1107
  480MOL0     H64761   6.826   4.632  10.187  0.7072  0.1809  0.8317
  480MOL0     H64762   6.973   4.649  10.094  0.9243 -0.6990  0.3208
  480MOL0     H64763   6.814   4.612  10.013  0.5802 -1.4424  0.7011
  480MOL0     H64764   6.449   4.061  10.077  0.0431 -0.9558 -0.5603
  480MOL0     H64765   6.189   4.030  10.025 -3.2489  0.5848 -1.6748
  480MOL0     H64766   5.981   4.060  10.023 -2.6964  0.0062  1.0823
  480MOL0     H64767   5.983   4.219  10.108 -0.3651 -0.0024  0.2891
  480MOL0     H64768   5.786   4.252   9.935  1.7681  2.5345  2.0510
  480MOL0     H64769   5.807   4.084   9.893 -0.4162  0.1388  0.1397
  480MOL0     H64770   5.722   4.188  10.155 -0.8100  0.2284 -0.7513
  480MOL0     H64771   5.776   4.022  10.146 -1.8729 -0.1125  1.2096
  480MOL0     H64772   5.554   4.134   9.980  1.5255  1.5031  1.6322
  480MOL0     H64773   5.599   3.971   9.984 -1.5515  0.4246 -1.1598
  480MOL0     H64774   5.511   4.125  10.242 -0.6903 -1.4935 -0.0587
  480MOL0     H64775   5.583   3.964  10.237 -1.4406  1.3088  3.3397
  480MOL0     H64776   5.363   4.049  10.063  1.8114  2.4132  1.0112
  480MOL0     H64777   5.422   3.875  10.072 -1.0315  0.7354 -2.0351
  480MOL0     H64778   5.312   4.048  10.302  0.4312 -0.4296  0.4247
  480MOL0     H64779   5.343   3.878  10.297 -0.8686 -0.2858 -1.1142
  480MOL0     H64780   5.103   3.882  10.277 -0.7889 -1.4632  0.7063
  480MOL0     H64781   5.180   3.832  10.121  1.4930 -0.0325  0.3562
  480MOL0     H64782   6.208   4.423   9.853 -1.5343  1.8181  3.0067
  480MOL0     H64783   6.440   4.432   9.879 -1.1337 -1.0906 -1.8431
  480MOL0     H64784   6.793   4.126  10.061  0.6411  1.0482 -3.2893
  480MOL0     H64785   7.009   4.066  10.083 -1.5948 -0.1768 -2.2909
  480MOL0     H64786   9.192   4.693  10.569 -1.2480  1.3831  0.0585
  480MOL0     H64787   9.332   4.867  10.485 -0.2178 -0.0329  1.2265
  480MOL0     H64788   9.784   4.817  10.078  0.4308  1.0586  1.7023
  480MOL0     H64789   9.949   4.991   9.999  1.0226  1.0686  1.6330
  480MOL0     H64790  10.059   5.190   9.918 -0.0530  0.3689  0.3150
  480MOL0     H64791   9.928   5.177   9.785  0.4217  0.4170  0.1652
  480MOL0     H64792   9.956   5.403   9.740 -1.0994 -0.9112 -0.6682
  480MOL0     H64793  10.110   5.321   9.714 -0.3289  0.8348 -0.8261
  480MOL0     H64794  10.156   5.402   9.960  0.9469 -0.1541 -1.6009
  480MOL0     H64795  10.028   5.520   9.940 -0.2086  0.0878 -0.3526
  480MOL0     H64796  10.233   5.634   9.880  1.0277 -0.0626 -1.3957
  480MOL0     H64797  10.146   5.612   9.736  3.1456  0.9891 -1.8716
  480MOL0     H64798  10.496   5.406   9.633 -2.1365 -1.1258 -1.3778
  480MOL0     H64799   9.641   5.285  10.013  1.6424  1.9046  0.9107
  480MOL0     H64800   9.485   5.113  10.126 -1.2609  0.3320 -2.3489
  481MOL0     O64801   4.476   9.723   0.535  0.1599  0.2013  0.0068
  481MOL0     C64802   4.531   9.828   0.560  0.1648  0.6296 -0.4539
  481MOL0     O64803   4.483   9.927   0.633  0.2292  0.0555  0.9605
  481MOL0     C64804   4.355   9.934   0.680 -1.3164  0.3298 -0.5978
  481MOL0     C64805   4.246   9.866   0.624 -0.2677  0.9562 -0.1116
  481MOL0     C64806   4.114   9.883   0.678  0.5101 -0.0725 -0.2719
  481MOL0     C64807   4.088   9.977   0.775 -1.0119 -0.2607 -0.4130
  481MOL0     O64808   3.959   9.990   0.809 -0.8306  0.4307  0.3058
  481MOL0     C64809   3.913  10.109   0.876  0.6758 -0.2771  0.1703
  481MOL0     C64810   3.759  10.101   0.896  0.8655 -0.2731  0.6872
  481MOL0     C64811   3.702   9.992   0.982  0.0093 -0.4956 -0.3608
  481MOL0     C64812   3.756  10.000   1.124 -0.2910 -0.4599 -0.1890
  481MOL0     C64813   3.688   9.885   1.197  0.3024 -1.2529 -0.5729
  481MOL0     C64814   3.733   9.879   1.345  1.1555  0.0156 -0.1742
  481MOL0     C64815   3.660   9.774   1.430 -0.6362  0.3193  0.8095
  481MOL0     C64816   3.703   9.799   1.579  0.1460 -0.0873 -0.4459
  481MOL0     N64817   3.635   9.704   1.670 -0.7308  0.0833 -0.5995
  481MOL0     C64818   3.497   9.714   1.706  0.7262  0.0204  0.3589
  481MOL0     C64819   3.478   9.624   1.802 -0.9875 -0.1623  1.0325
  481MOL0     C64820   3.334   9.592   1.845  1.4046  0.1137  0.1008
  481MOL0     C64821   3.285   9.668   1.972 -0.6126 -0.0027  0.5313
  481MOL0     C64822   3.254   9.817   1.938  0.4359 -0.2404  0.3323
  481MOL0     C64823   3.325   9.921   2.024 -0.5241  0.8040  0.0397
  481MOL0     O64824   3.295  10.053   1.975  0.4576 -0.4123 -0.5526
  481MOL0     C64825   3.369  10.121   1.877 -0.1572  0.4530 -0.4030
  481MOL0     C64826   3.309  10.230   1.811 -0.1689  0.1274 -0.2837
  481MOL0     C64827   3.378  10.305   1.723 -0.5888  0.0288 -0.0841
  481MOL0     C64828   3.314  10.437   1.680 -0.2762  0.6615 -1.0483
  481MOL0     C64829   3.506  10.260   1.689 -0.2495 -0.3776 -0.1361
  481MOL0     C64830   3.598  10.334   1.588  0.5277  0.5366  0.5904
  481MOL0     O64831   3.692  10.253   1.523 -0.1353  0.2372 -0.3922
  481MOL0     C64832   3.762  10.289   1.412 -0.7905 -0.3277  0.0657
  481MOL0     C64833   3.746  10.405   1.331  0.5231 -0.1018  0.3042
  481MOL0     C64834   3.835  10.419   1.224  0.3125 -0.0647  0.4180
  481MOL0     C64835   3.948  10.328   1.195  0.0284  0.3471  0.2723
  481MOL0     O64836   4.039  10.341   1.095  0.2975  0.0304  0.7674
  481MOL0     C64837   4.064  10.465   1.032  0.1069 -0.0736 -0.0908
  481MOL0     C64838   4.165  10.446   0.923 -0.4146 -0.2150  0.6954
  481MOL0     C64839   4.301  10.398   0.989 -0.7471 -0.3190  0.6664
  481MOL0     C64840   4.402  10.384   0.878 -0.0662 -0.1710 -0.0107
  481MOL0     C64841   4.530  10.335   0.935 -0.5930 -0.0105 -0.4089
  481MOL0     C64842   4.634  10.302   0.827 -0.6705  0.9576 -0.1494
  481MOL0     C64843   4.767  10.301   0.903 -0.1918 -0.2495  0.8454
  481MOL0     C64844   4.886  10.283   0.811 -0.4388 -0.2815 -0.4477
  481MOL0    Cl64845   4.973  10.428   0.737 -0.5882 -0.1348  0.2304
  481MOL0     C64846   3.966  10.220   1.284 -0.8085 -0.1145  0.1296
  481MOL0     C64847   3.877  10.207   1.390  0.0587 -0.9568  0.3255
  481MOL0     O64848   3.571  10.451   1.560  0.1346 -0.0076  0.1594
  481MOL0     C64849   3.561  10.144   1.739 -0.0141  0.4410  0.5463
  481MOL0     C64850   3.493  10.075   1.837 -0.4489  0.8799  1.7412
  481MOL0     N64851   3.605   9.568   1.832 -0.6970 -0.3319 -0.4820
  481MOL0     N64852   3.698   9.621   1.755 -1.1297  0.4221 -0.7571
  481MOL0     C64853   4.198  10.043   0.833 -0.3792 -0.6737  0.0503
  481MOL0     C64854   4.329  10.020   0.787 -0.0795 -1.1203  0.1549
  481MOL0     C64855   4.677   9.825   0.509 -0.0256 -0.2367 -0.9563
  481MOL0     C64856   4.773   9.896   0.575  0.9189  0.1659  0.3682
  481MOL0     C64857   4.907   9.883   0.537  0.6194 -0.0508  0.2617
  481MOL0     C64858   4.952   9.789   0.444 -0.0717 -0.1418  0.1373
  481MOL0     O64859   5.081   9.762   0.406 -1.1654  0.7529 -0.5061
  481MOL0     C64860   5.179   9.754   0.518 -0.1524 -0.5540 -0.1524
  481MOL0     C64861   5.318   9.805   0.473  0.0269  0.6708  0.0465
  481MOL0     C64862   5.420   9.769   0.575 -0.8175  0.2626  0.2144
  481MOL0     C64863   5.558   9.757   0.512 -0.5991 -0.3298 -0.0907
  481MOL0     C64864   5.655   9.740   0.623 -0.4429  0.4657 -0.8053
  481MOL0     C64865   5.735   9.714   0.709 -0.3836  0.3629 -1.2051
  481MOL0     C64866   4.852   9.726   0.374 -0.3877 -0.7105  0.2543
  481MOL0     C64867   4.716   9.747   0.400  0.3086  0.7338 -0.7667
  481MOL0     H64868   4.257   9.795   0.542 -1.4778  0.9103 -0.2505
  481MOL0     H64869   4.037   9.818   0.637  0.3627  0.1938 -0.4162
  481MOL0     H64870   3.959  10.138   0.970  0.1563  3.0158 -0.4707
  481MOL0     H64871   3.935  10.181   0.797  2.3077 -4.0977 -3.2432
  481MOL0     H64872   3.732  10.197   0.940  0.4490 -0.9912  2.0442
  481MOL0     H64873   3.712  10.085   0.798 -0.6168 -2.9585  1.7155
  481MOL0     H64874   3.593   9.999   0.969  0.1682 -1.4668 -2.9391
  481MOL0     H64875   3.718   9.899   0.926  2.3045  0.6383 -1.7530
  481MOL0     H64876   3.865   9.992   1.123 -0.3800 -1.7406 -0.6584
  481MOL0     H64877   3.732  10.099   1.165 -1.2002  0.4934 -2.7790
  481MOL0     H64878   3.580   9.901   1.186 -0.1857 -1.6012  2.8356
  481MOL0     H64879   3.712   9.792   1.145 -2.0494 -3.3258  1.7849
  481MOL0     H64880   3.841   9.883   1.363  0.9268 -1.1907  1.8621
  481MOL0     H64881   3.702   9.978   1.380 -0.1317 -0.2314 -0.5759
  481MOL0     H64882   3.552   9.786   1.421 -0.7927 -0.8343  0.9566
  481MOL0     H64883   3.685   9.673   1.395  0.7080  1.2621 -1.0918
  481MOL0     H64884   3.685   9.904   1.604  0.1748 -0.2657  0.3303
  481MOL0     H64885   3.812   9.784   1.583  0.1191 -0.3205 -0.5422
  481MOL0     H64886   3.415   9.768   1.659 -1.4997 -3.2688  0.1072
  481MOL0     H64887   3.270   9.603   1.756  1.2489 -0.5673  0.1233
  481MOL0     H64888   3.335   9.483   1.856 -0.8469  0.1001  0.6867
  481MOL0     H64889   3.363   9.668   2.048 -0.0234  3.2945  0.0532
  481MOL0     H64890   3.196   9.619   2.012 -1.4348  1.6134  0.7636
  481MOL0     H64891   3.147   9.826   1.954  0.7415  2.5338  1.4136
  481MOL0     H64892   3.273   9.840   1.833 -1.4329 -3.5714 -0.8563
  481MOL0     H64893   3.433   9.905   2.022 -0.3204  1.6447  1.7756
  481MOL0     H64894   3.294   9.914   2.129 -0.7568 -0.1231 -0.0825
  481MOL0     H64895   3.205  10.251   1.832 -0.1676 -0.5343  0.4225
  481MOL0     H64896   3.220  10.461   1.731  0.2240 -2.3577  1.6521
  481MOL0     H64897   3.396  10.506   1.699  0.3755 -0.1158 -1.0166
  481MOL0     H64898   3.299  10.438   1.572 -1.0599 -3.2822 -1.1227
  481MOL0     H64899   3.665  10.474   1.352  0.9116  0.6057 -0.4559
  481MOL0     H64900   3.827  10.519   1.183  2.6278 -0.2593 -0.6610
  481MOL0     H64901   3.973  10.513   0.994 -0.3524  0.0508  1.1265
  481MOL0     H64902   4.097  10.535   1.109 -1.9752 -0.6349  1.4296
  481MOL0     H64903   4.133  10.373   0.847  3.0841 -3.1305  1.7473
  481MOL0     H64904   4.179  10.538   0.866  0.1186 -0.9320 -0.3763
  481MOL0     H64905   4.285  10.304   1.041 -2.0769  0.5601  1.9189
  481MOL0     H64906   4.329  10.465   1.071  0.2334  0.7349 -0.4750
  481MOL0     H64907   4.359  10.313   0.806  1.3970 -0.1164 -0.9780
  481MOL0     H64908   4.423  10.483   0.837  0.2924 -0.0079  0.5529
  481MOL0     H64909   4.502  10.249   0.995 -1.3577  2.3835  2.9448
  481MOL0     H64910   4.577  10.409   1.000 -0.3200  0.4956 -1.1618
  481MOL0     H64911   4.615  10.205   0.782  2.5371 -0.1623  0.6166
  481MOL0     H64912   4.643  10.375   0.745 -1.1518  0.4171 -0.6882
  481MOL0     H64913   4.777  10.218   0.973  0.1052 -0.4384  0.5834
  481MOL0     H64914   4.779  10.391   0.964 -0.2118  0.0246  0.4482
  481MOL0     H64915   4.862  10.205   0.738 -2.4922 -0.3473  0.2245
  481MOL0     H64916   4.962  10.238   0.876 -2.0022 -0.6220  1.2173
  481MOL0     H64917   4.047  10.151   1.262 -0.4998  0.3989 -0.3847
  481MOL0     H64918   3.896  10.128   1.462  1.0494 -0.8803  0.1665
  481MOL0     H64919   3.655  10.102   1.704  0.2880  1.4416  0.1202
  481MOL0     H64920   3.542   9.985   1.873 -2.2673 -0.9216 -0.0405
  481MOL0     H64921   4.173  10.107   0.917  1.5310  1.2300 -0.7485
  481MOL0     H64922   4.410  10.082   0.825 -1.7642 -0.1927  2.4667
  481MOL0     H64923   4.737   9.950   0.663 -1.4516  0.1438 -0.5246
  481MOL0     H64924   4.980   9.935   0.599  0.6823  0.3971 -0.1815
  481MOL0     H64925   5.142   9.813   0.602 -2.2301  0.0738 -1.4182
  481MOL0     H64926   5.190   9.651   0.554 -0.0302  0.0346  1.5689
  481MOL0     H64927   5.321   9.913   0.456 -0.5510  0.6093 -0.4777
  481MOL0     H64928   5.339   9.750   0.381  0.7698 -0.5904  0.9473
  481MOL0     H64929   5.391   9.674   0.621  2.0782 -0.1273  1.4043
  481MOL0     H64930   5.415   9.853   0.646 -1.3558 -0.0668  0.5805
  481MOL0     H64931   5.577   9.855   0.467  0.8735 -0.4606  0.2179
  481MOL0     H64932   5.577   9.682   0.435 -2.0430  0.3663 -1.1876
  481MOL0     H64933   5.816   9.690   0.775  1.2848  1.4659 -2.7526
  481MOL0     H64934   4.876   9.652   0.299 -0.3516 -0.9729  0.5210
  481MOL0     H64935   4.649   9.681   0.347  0.5594 -1.2618  1.2438
  482MOL0     O64936   7.865   1.458   0.680 -0.2455  0.1669  0.1252
  482MOL0     C64937   7.938   1.542   0.736 -0.1042  0.1760  0.8653
  482MOL0     O64938   7.915   1.604   0.853  0.8745  0.4173 -0.6020
  482MOL0     C64939   7.789   1.584   0.912  0.2123  0.0721 -0.0802
  482MOL0     C64940   7.791   1.562   1.054  0.3527  0.1838  0.8908
  482MOL0     C64941   7.684   1.576   1.127  0.3163 -1.0352  0.5442
  482MOL0     C64942   7.556   1.612   1.062  0.5350  0.5059  0.2519
  482MOL0     O64943   7.440   1.645   1.125  0.8940  0.7784  0.5926
  482MOL0     C64944   7.445   1.651   1.267 -0.0882 -0.0008 -0.0013
  482MOL0     C64945   7.344   1.748   1.320  0.4320 -0.6650  0.6624
  482MOL0     C64946   7.205   1.733   1.265 -0.5755  0.0872  0.1095
  482MOL0     C64947   7.170   1.791   1.135 -0.1773  0.0927 -0.2992
  482MOL0     C64948   7.019   1.823   1.121 -0.2708 -1.0102 -0.2658
  482MOL0     C64949   7.009   1.933   1.006  0.7165  0.0532 -0.6480
  482MOL0     C64950   6.861   1.967   0.971  0.5541 -0.1484 -0.2536
  482MOL0     C64951   6.869   2.058   0.855 -0.7869 -0.3726 -0.0864
  482MOL0     N64952   6.741   2.094   0.798  0.0030 -0.2384 -0.6249
  482MOL0     C64953   6.675   2.206   0.849  0.5764  1.0642  0.3578
  482MOL0     C64954   6.542   2.177   0.821  0.0360 -0.2239 -0.5957
  482MOL0     C64955   6.422   2.267   0.869  0.1098 -0.1025 -0.0426
  482MOL0     C64956   6.305   2.183   0.920 -0.0279 -0.4151  0.5324
  482MOL0     C64957   6.199   2.159   0.814  0.2799  0.1933 -0.1959
  482MOL0     C64958   6.085   2.069   0.859 -0.3714  0.6460 -1.1075
  482MOL0     O64959   6.047   2.094   0.994  0.4929 -0.9441 -0.1091
  482MOL0     C64960   5.945   2.019   1.038  0.0959 -0.2869 -0.0774
  482MOL0     C64961   5.937   1.882   1.043  0.1154  0.3493  0.4632
  482MOL0     C64962   5.806   1.818   1.082 -0.4992 -0.6281  0.5125
  482MOL0     C64963   5.820   1.675   1.098  0.5033 -0.1333 -0.2000
  482MOL0     C64964   5.689   1.902   1.094 -0.8311  0.0663 -0.7844
  482MOL0     C64965   5.558   1.840   1.124 -0.0287  0.5987 -0.0172
  482MOL0     O64966   5.469   1.924   1.190 -0.1303  0.6231 -0.0032
  482MOL0     C64967   5.347   1.887   1.217 -0.0987 -0.7562  0.4438
  482MOL0     C64968   5.325   1.762   1.287 -0.1944 -1.0971  0.2043
  482MOL0     C64969   5.205   1.735   1.351 -0.1052  0.0665 -0.1030
  482MOL0     C64970   5.108   1.834   1.346  0.3721 -0.1891  0.6664
  482MOL0     O64971   4.997   1.809   1.416 -0.3690 -0.8928  0.3503
  482MOL0     C64972   4.876   1.808   1.331 -0.7395  0.3412  0.4937
  482MOL0     C64973   4.772   1.700   1.372  0.0711 -0.1446  1.0572
  482MOL0     C64974   4.624   1.742   1.362  0.2860 -0.3449  0.2451
  482MOL0     C64975   4.537   1.643   1.432  0.4551  0.0141  0.3427
  482MOL0     C64976   4.492   1.541   1.331  0.1773  1.0572 -0.4366
  482MOL0     C64977   4.412   1.425   1.397 -0.2095 -0.4413  0.4414
  482MOL0     C64978   4.316   1.342   1.311  0.1577  0.9402 -0.6559
  482MOL0     C64979   4.390   1.240   1.222 -0.7393  0.4035  0.1019
  482MOL0    Cl64980   4.483   1.116   1.320  0.3007  0.3584  0.6798
  482MOL0     C64981   5.133   1.958   1.291 -1.1918 -0.0748  0.3820
  482MOL0     C64982   5.249   1.986   1.224 -0.5986  0.3397  0.3233
  482MOL0     O64983   5.524   1.732   1.075  0.1566  0.0146  0.2698
  482MOL0     C64984   5.705   2.043   1.069  0.3893  0.0443 -0.2686
  482MOL0     C64985   5.829   2.094   1.053 -0.1800  0.3963 -0.1012
  482MOL0     N64986   6.531   2.053   0.753  0.2611 -0.3822  1.0355
  482MOL0     N64987   6.648   2.005   0.739 -0.0835 -0.2016  0.0367
  482MOL0     C64988   7.553   1.613   0.924 -0.6914  0.8278 -0.1119
  482MOL0     C64989   7.668   1.595   0.848 -0.2450  0.0951  0.3166
  482MOL0     C64990   8.077   1.551   0.677  0.1392 -0.1498  0.6186
  482MOL0     C64991   8.168   1.628   0.748  0.4806  0.5887 -0.2417
  482MOL0     C64992   8.299   1.654   0.696  0.1712 -0.0452  0.9415
  482MOL0     C64993   8.334   1.598   0.566  0.9432 -0.6326 -0.8275
  482MOL0     O64994   8.438   1.629   0.492  0.1625  0.7670  0.3029
  482MOL0     C64995   8.539   1.710   0.557 -1.3020  0.1732  0.2156
  482MOL0     C64996   8.626   1.614   0.639  0.4274  1.0019  0.9853
  482MOL0     C64997   8.747   1.669   0.707  0.5951  0.3795 -0.0009
  482MOL0     C64998   8.873   1.673   0.605 -0.7833 -0.3792  0.0484
  482MOL0     C64999   8.855   1.805   0.537  0.6917 -0.0155  0.1552
  482MOL0     C65000   8.851   1.899   0.462 -0.7086 -0.8963 -1.4405
  482MOL0     C65001   8.241   1.523   0.493 -0.6146  0.0122  0.1585
  482MOL0     C65002   8.116   1.500   0.554  0.1817  0.1147  0.4283
  482MOL0     H65003   7.877   1.538   1.115  0.2625 -1.1165  0.5318
  482MOL0     H65004   7.683   1.577   1.235  2.3452  2.2588  0.6291
  482MOL0     H65005   7.439   1.549   1.307  0.4259  0.6981  1.9998
  482MOL0     H65006   7.537   1.691   1.313  0.8479 -1.8053 -0.2107
  482MOL0     H65007   7.340   1.727   1.427 -0.4561 -1.3486  0.5087
  482MOL0     H65008   7.383   1.847   1.295  2.1092 -1.4595 -0.0708
  482MOL0     H65009   7.174   1.628   1.263  1.3356 -0.5595 -3.5459
  482MOL0     H65010   7.142   1.777   1.343 -0.9673 -2.1423  1.1191
  482MOL0     H65011   7.229   1.882   1.125  0.5613 -0.4756 -1.2196
  482MOL0     H65012   7.204   1.723   1.056  1.4613  0.7092 -0.1566
  482MOL0     H65013   6.961   1.734   1.096 -0.0688 -2.0357  2.5668
  482MOL0     H65014   6.991   1.873   1.215  4.1891  2.0426 -0.2184
  482MOL0     H65015   7.057   2.028   1.031  2.1408 -0.2138 -2.2011
  482MOL0     H65016   7.057   1.886   0.919  0.2126 -1.9989  0.1282
  482MOL0     H65017   6.805   1.878   0.941 -0.8317  0.5031  0.2937
  482MOL0     H65018   6.817   2.016   1.058 -2.3893  0.0194 -1.7288
  482MOL0     H65019   6.924   2.005   0.777 -1.0432 -0.8383  0.0424
  482MOL0     H65020   6.918   2.151   0.883 -0.8761 -0.2438 -0.3540
  482MOL0     H65021   6.704   2.288   0.914  0.1821  0.5954  1.1457
  482MOL0     H65022   6.454   2.340   0.943 -0.9117  1.7863 -1.3974
  482MOL0     H65023   6.393   2.327   0.782  2.1142 -3.3458 -3.2785
  482MOL0     H65024   6.262   2.250   0.996  1.9883  0.6070  0.8299
  482MOL0     H65025   6.321   2.088   0.972  2.0710 -0.3732  0.0118
  482MOL0     H65026   6.234   2.122   0.717 -2.9820 -2.3301 -0.6079
  482MOL0     H65027   6.150   2.255   0.794 -0.9697 -0.8315 -2.5073
  482MOL0     H65028   6.123   1.968   0.842  1.3925  0.9820  0.5258
  482MOL0     H65029   6.002   2.095   0.792  0.3417  1.8240 -1.5637
  482MOL0     H65030   6.032   1.830   1.034  0.5335  0.4883  3.2887
  482MOL0     H65031   5.910   1.662   1.159  0.6046  0.8101 -0.1287
  482MOL0     H65032   5.732   1.637   1.153  0.6055 -1.6372 -1.0325
  482MOL0     H65033   5.843   1.618   1.008  0.5355 -2.3043  1.1179
  482MOL0     H65034   5.408   1.692   1.285  0.6192 -0.1671 -2.4059
  482MOL0     H65035   5.205   1.637   1.399 -0.1162 -0.6247 -1.4504
  482MOL0     H65036   4.830   1.908   1.338 -1.3108  0.1727 -0.5171
  482MOL0     H65037   4.897   1.809   1.223  0.7788 -0.1445  0.7705
  482MOL0     H65038   4.780   1.606   1.317 -1.4765  1.5133 -2.2730
  482MOL0     H65039   4.786   1.681   1.479  3.6891 -0.3941  0.6675
  482MOL0     H65040   4.602   1.762   1.257  1.0392  5.3593  0.8660
  482MOL0     H65041   4.619   1.836   1.418  2.1363  0.2611 -0.5276
  482MOL0     H65042   4.581   1.587   1.516  0.3786 -1.1453 -0.3755
  482MOL0     H65043   4.445   1.690   1.470 -0.7168 -2.0997  0.2825
  482MOL0     H65044   4.578   1.503   1.275 -0.6847  0.4128 -1.3444
  482MOL0     H65045   4.430   1.582   1.251  0.2846 -2.0365 -2.2667
  482MOL0     H65046   4.485   1.358   1.445 -1.3688 -2.9886 -1.1286
  482MOL0     H65047   4.348   1.474   1.471 -0.4688 -1.5258  0.9555
  482MOL0     H65048   4.269   1.406   1.235 -0.5358 -1.7842 -2.6669
  482MOL0     H65049   4.239   1.299   1.376  1.2320 -0.7198 -0.4255
  482MOL0     H65050   4.457   1.293   1.154  1.7164 -4.3118 -1.5929
  482MOL0     H65051   4.315   1.185   1.166 -1.6525  0.5481  1.1441
  482MOL0     H65052   5.055   2.033   1.301  0.0954  1.1117  2.1065
  482MOL0     H65053   5.264   2.076   1.166  1.1398 -1.1459 -1.7237
  482MOL0     H65054   5.629   2.119   1.080 -1.2405 -1.3751 -1.2981
  482MOL0     H65055   5.839   2.200   1.034  2.2787  0.5626  1.6788
  482MOL0     H65056   7.456   1.621   0.876 -1.2719 -0.4836  0.7969
  482MOL0     H65057   7.651   1.602   0.741  1.4182  1.1426  0.0754
  482MOL0     H65058   8.143   1.670   0.845 -0.5898  0.5836 -0.5030
  482MOL0     H65059   8.363   1.716   0.758  0.8983 -1.3344  1.5048
  482MOL0     H65060   8.613   1.752   0.488 -0.7553  0.0859  0.7428
  482MOL0     H65061   8.489   1.792   0.608 -3.3250  0.1622 -1.6407
  482MOL0     H65062   8.655   1.532   0.573  2.7294  2.6007 -0.1575
  482MOL0     H65063   8.565   1.578   0.721  0.1277 -2.3215 -0.5419
  482MOL0     H65064   8.772   1.595   0.783  0.1353 -1.6697 -1.7376
  482MOL0     H65065   8.729   1.766   0.754  0.0477 -0.2175  1.0518
  482MOL0     H65066   8.868   1.588   0.537  1.9338  0.0333 -0.7665
  482MOL0     H65067   8.973   1.671   0.648 -0.9446 -0.0324  0.4491
  482MOL0     H65068   8.840   1.985   0.399  1.6119  1.6590  1.3484
  482MOL0     H65069   8.266   1.505   0.389  2.4065  1.4130  0.5384
  482MOL0     H65070   8.033   1.458   0.499  1.9989  3.0377 -5.4171
  483MOL0     O65071   5.508   4.462   1.385 -0.2631  0.1707 -0.1907
  483MOL0     C65072   5.592   4.485   1.298  0.0495  0.2335  0.1475
  483MOL0     O65073   5.570   4.513   1.164  0.0552 -0.7873  0.1560
  483MOL0     C65074   5.439   4.535   1.129  0.4075 -0.0033 -0.2203
  483MOL0     C65075   5.396   4.485   1.005 -0.4412 -0.6571  0.2070
  483MOL0     C65076   5.272   4.505   0.948 -0.0328 -0.4552  0.5913
  483MOL0     C65077   5.185   4.579   1.025 -0.2707 -0.7312  0.2250
  483MOL0     O65078   5.059   4.604   0.980  0.1390  0.4933 -0.2020
  483MOL0     C65079   4.985   4.494   0.911  0.5746  0.4173  0.1113
  483MOL0     C65080   4.834   4.532   0.935 -0.1531 -0.6909  0.2627
  483MOL0     C65081   4.745   4.458   0.830 -0.0446 -0.8949 -0.7293
  483MOL0     C65082   4.739   4.306   0.844 -0.3636  0.6804  0.4363
  483MOL0     C65083   4.669   4.255   0.712 -0.2600 -0.3473 -1.1844
  483MOL0     C65084   4.626   4.115   0.719 -0.1489  0.1020 -0.0846
  483MOL0     C65085   4.739   4.016   0.692  0.4946  1.1316 -0.0349
  483MOL0     C65086   4.680   3.874   0.674 -0.2985 -0.5968 -0.5463
  483MOL0     N65087   4.604   3.856   0.556  0.3819  0.9026  0.0201
  483MOL0     C65088   4.650   3.884   0.429 -0.5847  0.6884 -0.0023
  483MOL0     C65089   4.539   3.866   0.354 -0.3344 -0.7753  0.4707
  483MOL0     C65090   4.539   3.884   0.200  0.5810  0.6044 -0.1287
  483MOL0     C65091   4.401   3.931   0.144 -0.2443  0.4467 -0.9816
  483MOL0     C65092   4.430   3.958  -0.004  0.6775  1.0983 -0.7928
  483MOL0     C65093   4.317   4.045  -0.073 -0.0960  0.2506  0.3320
  483MOL0     O65094   4.192   4.003  -0.030  0.5876  0.8131  0.2652
  483MOL0     C65095   4.078   4.050  -0.093 -0.4518 -0.5150  0.0345
  483MOL0     C65096   4.081   4.131  -0.210 -0.4042 -1.3148  0.3812
  483MOL0     C65097   3.967   4.189  -0.267  0.6890  0.5961  1.5848
  483MOL0     C65098   3.985   4.286  -0.387 -0.0372 -0.9675 -0.1448
  483MOL0     C65099   3.838   4.157  -0.210  0.3035 -0.8239  0.6667
  483MOL0     C65100   3.706   4.222  -0.248 -0.3978  1.0827  0.2677
  483MOL0     O65101   3.708   4.339  -0.316  0.0504 -0.1529 -0.4469
  483MOL0     C65102   3.583   4.378  -0.360  0.1120 -0.6367 -0.6091
  483MOL0     C65103   3.514   4.291  -0.441  0.0801  0.5139  0.7219
  483MOL0     C65104   3.404   4.344  -0.517 -0.0499  0.0340 -0.5681
  483MOL0     C65105   3.354   4.469  -0.494 -0.1213 -0.0038  1.1245
  483MOL0     O65106   3.237   4.512  -0.543  0.3483 -0.6808  0.5788
  483MOL0     C65107   3.129   4.426  -0.564  0.1495  0.0950 -0.2346
  483MOL0     C65108   2.991   4.503  -0.568 -0.2238  0.4162 -0.3279
  483MOL0     C65109   3.002   4.577  -0.702  0.4605  0.3889 -0.1626
  483MOL0     C65110   2.868   4.648  -0.724  0.3020  0.3140 -0.2471
  483MOL0     C65111   2.874   4.753  -0.839 -0.0384 -0.3621  0.3166
  483MOL0     C65112   2.739   4.832  -0.860 -0.1153  0.2402  0.6689
  483MOL0     C65113   2.732   4.936  -0.968  0.2080 -0.2487  0.2724
  483MOL0     C65114   2.699   4.890  -1.107  0.7685 -0.7034  0.9209
  483MOL0    Cl65115   2.524   4.850  -1.114 -0.1293  0.3414 -0.2024
  483MOL0     C65116   3.431   4.560  -0.422 -0.0090 -0.5718  0.7371
  483MOL0     C65117   3.541   4.515  -0.349 -0.2558  0.8219 -0.0778
  483MOL0     O65118   3.606   4.160  -0.215 -0.5362 -0.6070 -0.1094
  483MOL0     C65119   3.839   4.080  -0.089 -0.2232  0.2530  0.0407
  483MOL0     C65120   3.958   4.024  -0.038  0.6650 -0.9741 -0.7492
  483MOL0     N65121   4.433   3.841   0.433  0.6286 -0.6012  0.0628
  483MOL0     N65122   4.471   3.841   0.552  0.2189  0.1516 -0.0074
  483MOL0     C65123   5.227   4.639   1.149  0.4173  0.1371  0.0527
  483MOL0     C65124   5.360   4.619   1.201  0.0348  0.1444 -0.6730
  483MOL0     C65125   5.735   4.470   1.333 -1.2002  0.2099  0.8910
  483MOL0     C65126   5.833   4.483   1.228 -0.2843 -0.1476 -0.0621
  483MOL0     C65127   5.965   4.458   1.265 -0.2869 -0.9780  0.0182
  483MOL0     C65128   6.000   4.422   1.396  0.9517 -0.1233  0.6087
  483MOL0     O65129   6.130   4.398   1.430  0.2263  0.1662 -0.2808
  483MOL0     C65130   6.183   4.367   1.557  0.1583 -0.2842  0.0524
  483MOL0     C65131   6.238   4.491   1.618  1.0590  0.4572  0.6864
  483MOL0     C65132   6.329   4.452   1.738 -0.4698 -0.7603 -0.1878
  483MOL0     C65133   6.478   4.436   1.697  0.6192 -0.2489 -0.2483
  483MOL0     C65134   6.553   4.558   1.704 -0.4587 -0.0166  0.4532
  483MOL0     C65135   6.613   4.661   1.721 -0.1743  0.1220  0.1874
  483MOL0     C65136   5.900   4.419   1.495  0.0913 -0.1892  1.6811
  483MOL0     C65137   5.765   4.444   1.463  0.2413  1.0020  0.1295
  483MOL0     H65138   5.459   4.421   0.945  1.7811 -0.4601  2.1743
  483MOL0     H65139   5.233   4.459   0.858 -1.2992 -0.5792  1.1810
  483MOL0     H65140   5.010   4.508   0.805  1.8032  0.7934  0.4263
  483MOL0     H65141   4.999   4.390   0.942  0.8241  0.0290 -1.2578
  483MOL0     H65142   4.800   4.513   1.037  0.9782 -3.7678  0.1567
  483MOL0     H65143   4.834   4.641   0.925  2.0280 -0.2381  3.7070
  483MOL0     H65144   4.643   4.495   0.848 -0.1079 -1.5600  0.3610
  483MOL0     H65145   4.778   4.485   0.729 -1.5678  1.1957 -0.7480
  483MOL0     H65146   4.838   4.262   0.856 -1.0902 -1.0109  0.5100
  483MOL0     H65147   4.676   4.286   0.932 -2.0490 -1.6459 -1.1786
  483MOL0     H65148   4.581   4.316   0.689 -1.4584 -0.2637  2.9127
  483MOL0     H65149   4.746   4.272   0.636  3.3924 -1.3950  1.9562
  483MOL0     H65150   4.576   4.091   0.814 -0.0007  0.4657  0.0909
  483MOL0     H65151   4.563   4.097   0.632  0.2770  0.7847 -0.5396
  483MOL0     H65152   4.794   4.050   0.604 -1.2776 -2.7835 -2.9457
  483MOL0     H65153   4.801   4.007   0.782 -0.4405 -1.3764  0.4481
  483MOL0     H65154   4.610   3.864   0.757 -0.7811 -2.0566 -1.0948
  483MOL0     H65155   4.758   3.797   0.676  0.9071  0.5771  1.4748
  483MOL0     H65156   4.752   3.914   0.409 -0.1465  2.7937  4.1561
  483MOL0     H65157   4.618   3.956   0.178  1.5228 -0.1350  0.7289
  483MOL0     H65158   4.566   3.791   0.151 -1.8491 -1.8602  2.8088
  483MOL0     H65159   4.353   4.015   0.195  0.2469  1.2881 -1.8687
  483MOL0     H65160   4.340   3.841   0.149 -3.6090  2.3676 -3.5814
  483MOL0     H65161   4.421   3.857  -0.045 -0.9784  0.9843 -0.2120
  483MOL0     H65162   4.531   3.999  -0.011  0.9916  0.4145 -0.3820
  483MOL0     H65163   4.334   4.023  -0.179 -1.5137 -1.0014  0.3205
  483MOL0     H65164   4.324   4.150  -0.047 -1.2725  0.2029  0.8945
  483MOL0     H65165   4.176   4.150  -0.259  0.3235 -4.3122  0.4065
  483MOL0     H65166   3.982   4.388  -0.347 -0.4912 -2.1447  3.1827
  483MOL0     H65167   4.081   4.270  -0.436 -0.9277  1.0346 -2.8092
  483MOL0     H65168   3.904   4.275  -0.459 -1.2938  1.7999  0.7026
  483MOL0     H65169   3.545   4.187  -0.454 -3.2959 -0.6779  1.0146
  483MOL0     H65170   3.346   4.277  -0.579  0.3140  1.4304 -2.5309
  483MOL0     H65171   3.137   4.365  -0.655 -1.6293 -0.0599 -0.3348
  483MOL0     H65172   3.125   4.349  -0.487 -1.0078  0.2494 -0.1158
  483MOL0     H65173   2.901   4.442  -0.556 -1.8257  2.7964  0.5561
  483MOL0     H65174   2.987   4.579  -0.489 -0.4111 -1.0993  1.1877
  483MOL0     H65175   3.022   4.501  -0.778  1.2866 -1.5415  1.8748
  483MOL0     H65176   3.087   4.646  -0.705  1.2072 -0.4137  1.2665
  483MOL0     H65177   2.787   4.574  -0.730  0.7988 -0.2033 -0.6551
  483MOL0     H65178   2.843   4.706  -0.635 -0.7521 -1.3290  0.5868
  483MOL0     H65179   2.903   4.708  -0.934  0.5214 -1.1177  0.8324
  483MOL0     H65180   2.958   4.821  -0.819  2.4651 -3.1469  0.0288
  483MOL0     H65181   2.670   4.754  -0.893 -1.1043  0.4278  2.1969
  483MOL0     H65182   2.702   4.876  -0.767 -1.1532  0.0123  0.3713
  483MOL0     H65183   2.835   4.971  -0.975  0.5377 -0.5767  2.7247
  483MOL0     H65184   2.659   5.012  -0.940 -1.2135 -0.7675 -1.8184
  483MOL0     H65185   2.763   4.804  -1.128  1.2642  0.2673 -2.0317
  483MOL0     H65186   2.717   4.966  -1.184 -1.6409 -0.7132  0.2792
  483MOL0     H65187   3.419   4.668  -0.415  1.8182 -0.3570  1.0770
  483MOL0     H65188   3.603   4.582  -0.291  0.0736  1.4353 -1.1197
  483MOL0     H65189   3.748   4.066  -0.031 -0.8675 -3.1636 -1.5598
  483MOL0     H65190   3.953   3.968   0.055 -2.5259 -0.1076 -0.2596
  483MOL0     H65191   5.155   4.695   1.208 -2.5346 -0.2286 -2.8641
  483MOL0     H65192   5.401   4.674   1.285  1.9545  0.1963 -1.5983
  483MOL0     H65193   5.809   4.521   1.129 -2.6092 -0.0584  0.4758
  483MOL0     H65194   6.038   4.479   1.188 -0.1957  2.7269  0.9415
  483MOL0     H65195   6.114   4.320   1.628 -0.9591  0.9168 -0.1908
  483MOL0     H65196   6.267   4.300   1.537 -0.8237 -1.3267 -0.7266
  483MOL0     H65197   6.147   4.538   1.656  1.0138  0.6768  0.3130
  483MOL0     H65198   6.281   4.558   1.543  0.8674  0.5198  0.6299
  483MOL0     H65199   6.296   4.355   1.777 -1.9430  0.0227  0.5745
  483MOL0     H65200   6.314   4.530   1.813  0.0671  2.0191 -2.7917
  483MOL0     H65201   6.472   4.385   1.600  2.1780 -3.2926  1.1131
  483MOL0     H65202   6.519   4.375   1.778  1.6487 -0.4879 -0.9306
  483MOL0     H65203   6.672   4.749   1.732 -0.1790 -0.0657  1.9646
  483MOL0     H65204   5.926   4.380   1.593  0.4700  3.0287  2.9704
  483MOL0     H65205   5.690   4.430   1.540  0.0975 -2.1325 -0.4257
  484MOL0     O65206  10.474   1.546   1.442  0.1213 -0.5541 -0.9213
  484MOL0     C65207  10.537   1.603   1.538  0.0274 -0.2295  0.2092
  484MOL0     O65208  10.483   1.688   1.633 -0.7443 -0.4230  0.2395
  484MOL0     C65209  10.346   1.718   1.651 -0.8070  0.0805  0.0104
  484MOL0     C65210  10.234   1.677   1.582 -0.1537 -0.7884 -0.5923
  484MOL0     C65211  10.114   1.737   1.613 -0.3540  0.2248  0.3588
  484MOL0     C65212  10.105   1.843   1.712  0.3059 -0.3646  0.0061
  484MOL0     O65213   9.988   1.897   1.758  0.6693 -0.2285  0.3792
  484MOL0     C65214   9.874   1.902   1.671 -0.3987 -0.1396 -0.2096
  484MOL0     C65215   9.792   2.032   1.692 -0.5234  0.0907 -0.1076
  484MOL0     C65216   9.642   2.011   1.683 -0.5004  0.6338  0.1220
  484MOL0     C65217   9.571   2.137   1.646 -0.2708  0.7924 -0.2391
  484MOL0     C65218   9.548   2.155   1.491  0.1119  0.0628  0.3872
  484MOL0     C65219   9.425   2.241   1.478 -1.1027 -0.3093 -1.0596
  484MOL0     C65220   9.366   2.233   1.340  0.1220 -0.7461  0.8387
  484MOL0     C65221   9.429   2.308   1.220 -0.3625  0.1903 -1.3159
  484MOL0     N65222   9.332   2.318   1.116 -0.0093  0.0895 -0.6089
  484MOL0     C65223   9.265   2.214   1.052  0.6172  0.3453 -0.2992
  484MOL0     C65224   9.187   2.274   0.962 -0.8349 -0.5627 -0.1843
  484MOL0     C65225   9.098   2.224   0.857  0.9512  0.7026 -1.4883
  484MOL0     C65226   9.058   2.083   0.895 -0.6133 -0.1612  0.1321
  484MOL0     C65227   8.953   2.025   0.795 -0.5180  0.3698 -0.0294
  484MOL0     C65228   8.841   2.124   0.750  0.5275 -0.1486 -0.6043
  484MOL0     O65229   8.757   2.163   0.863  0.0231 -0.1853  0.0141
  484MOL0     C65230   8.631   2.215   0.846 -0.0175 -0.3345  0.9864
  484MOL0     C65231   8.552   2.227   0.955  0.1771 -0.2918  0.1476
  484MOL0     C65232   8.428   2.284   0.955 -0.3771 -0.8925  1.1558
  484MOL0     C65233   8.355   2.283   1.085  0.3714  0.2168  0.5452
  484MOL0     C65234   8.372   2.340   0.831 -0.6816  0.0710 -0.4192
  484MOL0     C65235   8.241   2.407   0.816 -1.0471 -0.2363  0.3709
  484MOL0     O65236   8.187   2.460   0.935  1.1175  0.1752 -0.2000
  484MOL0     C65237   8.060   2.512   0.925  0.3773  0.2470 -0.7083
  484MOL0     C65238   7.941   2.441   0.894  0.1558 -0.1733  0.7717
  484MOL0     C65239   7.819   2.505   0.903 -0.9328  0.1569  0.7760
  484MOL0     C65240   7.808   2.633   0.943  0.1569 -0.1194 -0.3603
  484MOL0     O65241   7.684   2.695   0.945 -0.0169 -0.4584  0.5176
  484MOL0     C65242   7.661   2.802   1.044  0.3621 -0.3317  0.0823
  484MOL0     C65243   7.511   2.831   1.066  0.6858  0.9828 -0.2370
  484MOL0     C65244   7.479   2.927   1.177 -0.8159 -0.2631  0.4814
  484MOL0     C65245   7.326   2.919   1.203  0.1383  0.2451 -0.4330
  484MOL0     C65246   7.277   3.018   1.315  0.4959  0.3063 -0.6061
  484MOL0     C65247   7.128   3.006   1.330  0.4145  0.3928  0.9498
  484MOL0     C65248   7.085   3.146   1.372 -0.5544  0.1893 -0.7167
  484MOL0     C65249   7.122   3.173   1.513 -0.0551 -0.7922 -0.8658
  484MOL0    Cl65250   7.006   3.081   1.610  0.1283  0.0972  0.4263
  484MOL0     C65251   7.919   2.700   0.989 -0.9622  0.4423 -0.8626
  484MOL0     C65252   8.046   2.643   0.981  0.4738 -0.0518 -0.1656
  484MOL0     O65253   8.195   2.429   0.701  0.2875 -0.6190 -0.3488
  484MOL0     C65254   8.465   2.343   0.720  0.9158  0.6076 -1.0167
  484MOL0     C65255   8.587   2.283   0.725 -0.1838 -0.3545 -0.6519
  484MOL0     N65256   9.218   2.413   0.973 -0.2185  0.3718 -0.0454
  484MOL0     N65257   9.300   2.432   1.062  1.3572 -0.1707 -0.4992
  484MOL0     C65258  10.220   1.890   1.773 -0.4600  0.1360  0.3537
  484MOL0     C65259  10.340   1.829   1.735  0.3554  0.3979  0.3412
  484MOL0     C65260  10.686   1.590   1.541  0.0914  0.4740 -0.8929
  484MOL0     C65261  10.746   1.626   1.669 -0.1060 -0.0418  0.0099
  484MOL0     C65262  10.886   1.624   1.681  0.9069 -0.2050 -0.6472
  484MOL0     C65263  10.965   1.588   1.571  0.6496 -0.3239 -0.1977
  484MOL0     O65264  11.098   1.597   1.579  0.0384  0.3609 -0.4906
  484MOL0     C65265  11.164   1.645   1.699 -0.2522 -0.4407 -0.7179
  484MOL0     C65266  11.299   1.686   1.648 -0.6645  0.0722 -0.8432
  484MOL0     C65267  11.291   1.804   1.559  0.1430  1.3160 -0.1444
  484MOL0     C65268  11.431   1.865   1.527 -0.0910 -0.2376  0.3463
  484MOL0     C65269  11.527   1.768   1.462  0.0574 -0.1857  0.5804
  484MOL0     C65270  11.618   1.695   1.427 -0.1720  0.1565 -0.0608
  484MOL0     C65271  10.904   1.554   1.444  0.8981 -0.5421 -0.2264
  484MOL0     C65272  10.762   1.555   1.432  0.5480  0.2837 -1.3255
  484MOL0     H65273  10.230   1.587   1.522 -0.0449 -0.3317 -1.2911
  484MOL0     H65274  10.037   1.704   1.545  0.5564  2.1727 -1.7618
  484MOL0     H65275   9.905   1.919   1.568  0.7731  1.5663  0.3857
  484MOL0     H65276   9.813   1.811   1.679 -2.1106  1.0128  0.5353
  484MOL0     H65277   9.819   2.068   1.791 -2.6825  2.7528 -0.3889
  484MOL0     H65278   9.828   2.106   1.620  0.0661  0.7226  0.8291
  484MOL0     H65279   9.620   1.925   1.619  2.7728  1.2266 -2.0536
  484MOL0     H65280   9.616   1.982   1.786  2.5305  0.9390  1.0824
  484MOL0     H65281   9.479   2.134   1.704  0.2103 -1.3422  0.5132
  484MOL0     H65282   9.634   2.211   1.697  0.5443 -0.1532  0.1790
  484MOL0     H65283   9.632   2.210   1.448 -1.8438  1.7301 -1.5318
  484MOL0     H65284   9.531   2.056   1.448 -0.7089  0.4973 -0.3319
  484MOL0     H65285   9.351   2.217   1.554  1.8655 -3.6473  1.1083
  484MOL0     H65286   9.458   2.343   1.498 -0.7962 -0.7584  0.9432
  484MOL0     H65287   9.368   2.127   1.312 -1.1488 -0.7803  0.8079
  484MOL0     H65288   9.261   2.264   1.341 -0.1723 -1.4058 -2.1188
  484MOL0     H65289   9.518   2.251   1.196 -0.9914 -1.2159 -0.4538
  484MOL0     H65290   9.475   2.404   1.246  1.3265 -1.4443  2.5080
  484MOL0     H65291   9.280   2.108   1.065 -1.0497  0.3716  2.5348
  484MOL0     H65292   9.014   2.294   0.856 -0.1977 -0.6217 -1.1998
  484MOL0     H65293   9.135   2.235   0.755 -2.8496 -1.6725 -3.3622
  484MOL0     H65294   9.028   2.069   0.999  0.4223 -0.7604  0.3613
  484MOL0     H65295   9.148   2.024   0.879 -0.8315  0.1897 -3.2048
  484MOL0     H65296   8.903   1.934   0.830 -1.3072  1.1457  0.9357
  484MOL0     H65297   9.014   1.994   0.709 -0.2797 -1.5978  0.7781
  484MOL0     H65298   8.765   2.076   0.689 -1.5090  1.6488  0.3791
  484MOL0     H65299   8.881   2.211   0.699  1.0349 -1.5781 -2.7526
  484MOL0     H65300   8.606   2.190   1.041 -1.2986  0.7524  1.5940
  484MOL0     H65301   8.347   2.387   1.118  1.9921  0.5491 -0.0021
  484MOL0     H65302   8.255   2.245   1.062  1.0350 -1.2655  0.0313
  484MOL0     H65303   8.404   2.228   1.165  1.0562 -1.9042 -1.2446
  484MOL0     H65304   7.950   2.338   0.860  2.7575 -0.2651  1.4767
  484MOL0     H65305   7.734   2.455   0.856  1.1860 -0.5011 -2.6757
  484MOL0     H65306   7.686   2.769   1.145  0.0741  1.2632  0.7057
  484MOL0     H65307   7.722   2.889   1.019  2.3039 -1.6909 -0.0806
  484MOL0     H65308   7.468   2.866   0.972  1.2531  2.4236  0.0117
  484MOL0     H65309   7.470   2.731   1.083  1.7618  0.1885 -2.0320
  484MOL0     H65310   7.506   3.027   1.140  0.8557 -1.0136 -0.4683
  484MOL0     H65311   7.544   2.894   1.258 -2.9473 -4.5646  0.6999
  484MOL0     H65312   7.266   2.935   1.114 -1.1334 -0.6026  0.2374
  484MOL0     H65313   7.308   2.817   1.239 -3.2119  0.9267  0.1266
  484MOL0     H65314   7.309   3.115   1.275  2.8498  0.0471  0.4560
  484MOL0     H65315   7.332   2.997   1.408  0.1719 -2.2320 -0.9157
  484MOL0     H65316   7.095   2.991   1.227  1.3273  1.5245  0.4809
  484MOL0     H65317   7.083   2.928   1.393 -2.0252 -0.1106 -1.2240
  484MOL0     H65318   6.975   3.143   1.370 -0.6390 -3.3307  0.7852
  484MOL0     H65319   7.105   3.227   1.301 -2.5244  1.9550  0.6185
  484MOL0     H65320   7.097   3.278   1.529 -1.4364 -1.5003  2.5378
  484MOL0     H65321   7.228   3.160   1.536 -0.0555 -3.3066 -1.9417
  484MOL0     H65322   7.919   2.790   1.049 -0.7291  0.3063 -0.6548
  484MOL0     H65323   8.127   2.700   1.025 -1.5196  3.3250 -0.5365
  484MOL0     H65324   8.433   2.393   0.630 -1.5735  1.0686  0.0490
  484MOL0     H65325   8.645   2.281   0.633  1.1415 -0.8042  0.1826
  484MOL0     H65326  10.225   1.957   1.858 -2.3302 -0.7763  1.2734
  484MOL0     H65327  10.437   1.859   1.774  2.2026 -3.5831 -0.6353
  484MOL0     H65328  10.689   1.640   1.759 -1.0505 -0.3858 -0.5242
  484MOL0     H65329  10.932   1.643   1.777 -0.6643  0.3050  0.0295
  484MOL0     H65330  11.128   1.737   1.747  0.4768  0.0219 -1.0542
  484MOL0     H65331  11.177   1.562   1.769 -0.0381  0.9572  0.9798
  484MOL0     H65332  11.348   1.607   1.590  1.0968  1.1214 -0.8804
  484MOL0     H65333  11.366   1.709   1.731  0.6058 -2.0529 -1.2060
  484MOL0     H65334  11.218   1.878   1.592 -0.9550  0.9596 -1.6668
  484MOL0     H65335  11.252   1.770   1.463 -1.0599  0.1484  0.7299
  484MOL0     H65336  11.475   1.893   1.623 -2.0707  0.8232  1.0061
  484MOL0     H65337  11.419   1.956   1.467  1.6065  0.1167  0.5087
  484MOL0     H65338  11.695   1.636   1.381  0.8929 -1.9613  3.9113
  484MOL0     H65339  10.964   1.527   1.358  1.9388  0.2455  0.2397
  484MOL0     H65340  10.726   1.523   1.334  1.3566 -1.2105 -1.1643
  485MOL0     O65341  11.024   7.310  10.369 -0.0754 -0.3204 -0.4687
  485MOL0     C65342  11.092   7.422  10.353  0.2639  0.5003 -0.5794
  485MOL0     O65343  11.030   7.549  10.335 -0.4204 -0.4397  0.1175
  485MOL0     C65344  10.890   7.528  10.320  0.0100 -0.1455 -0.1290
  485MOL0     C65345  10.803   7.528  10.431 -0.3818  0.0037  0.3260
  485MOL0     C65346  10.675   7.479  10.420  0.4507 -0.2424 -0.0827
  485MOL0     C65347  10.624   7.464  10.290 -0.4248 -0.4493 -0.7800
  485MOL0     O65348  10.491   7.443  10.286 -0.1247 -0.8743 -0.0887
  485MOL0     C65349  10.415   7.555  10.235 -0.8806 -0.2122  0.0065
  485MOL0     C65350  10.281   7.518  10.166 -0.2041  0.4647  0.0136
  485MOL0     C65351  10.202   7.448  10.280  0.4885 -0.3291  0.4963
  485MOL0     C65352  10.057   7.492  10.271 -0.7197  0.1398 -0.0413
  485MOL0     C65353   9.976   7.417  10.377  0.5158  0.9646 -0.4937
  485MOL0     C65354   9.836   7.479  10.379  0.3278  0.7460 -0.0912
  485MOL0     C65355   9.730   7.387  10.447 -0.2082 -0.1261 -0.0460
  485MOL0     C65356   9.697   7.263  10.362 -0.3919  0.5110 -0.2304
  485MOL0     N65357   9.585   7.186  10.411  0.2745  0.4381 -0.6872
  485MOL0     C65358   9.549   7.141  10.536 -0.3700  0.5068  0.3541
  485MOL0     C65359   9.443   7.057  10.519 -0.0388 -0.8411 -0.3613
  485MOL0     C65360   9.375   6.983  10.628  0.2661 -0.0432  0.2132
  485MOL0     C65361   9.269   6.889  10.577 -0.2216  0.1257  1.0321
  485MOL0     C65362   9.210   6.801  10.690 -0.4066  0.1657  0.4575
  485MOL0     C65363   9.065   6.733  10.665  0.8490 -0.2492 -0.4260
  485MOL0     O65364   9.060   6.706  10.529  0.0732  0.2661  0.0614
  485MOL0     C65365   8.950   6.641  10.489  0.5155  0.4574  0.4161
  485MOL0     C65366   8.954   6.509  10.433 -0.6122  0.2192 -0.9923
  485MOL0     C65367   8.842   6.436  10.392  0.2959 -0.2646  0.3877
  485MOL0     C65368   8.872   6.296  10.335  0.3263 -0.2651  0.7248
  485MOL0     C65369   8.714   6.505  10.399 -1.5638  0.2622 -0.3188
  485MOL0     C65370   8.588   6.447  10.370  0.2551  0.3857 -0.0068
  485MOL0     O65371   8.586   6.351  10.266  0.2008 -0.1275 -0.4679
  485MOL0     C65372   8.470   6.290  10.235  0.2745 -0.4060  0.1713
  485MOL0     C65373   8.343   6.347  10.222  0.0608  0.3272  0.7886
  485MOL0     C65374   8.228   6.269  10.194 -0.4326 -0.6761  0.5048
  485MOL0     C65375   8.247   6.128  10.178  0.4936 -0.0692 -0.0529
  485MOL0     O65376   8.135   6.059  10.157 -0.3997  0.8704 -0.0490
  485MOL0     C65377   8.145   5.927  10.111 -0.1545  0.3370 -0.4943
  485MOL0     C65378   8.007   5.861  10.117 -0.2728 -0.1797  0.3828
  485MOL0     C65379   7.936   5.854  10.252  0.9417  0.0820  0.2112
  485MOL0     C65380   7.964   5.734  10.342 -0.7026 -0.4664 -0.3351
  485MOL0     C65381   7.885   5.605  10.293 -0.9127 -0.1601 -0.7074
  485MOL0     C65382   7.875   5.508  10.413 -0.8295  0.6430 -0.5798
  485MOL0     C65383   7.800   5.376  10.372  0.1852  0.4387 -0.2235
  485MOL0     C65384   7.831   5.261  10.469  0.6472  0.1306  0.7106
  485MOL0    Cl65385   8.005   5.217  10.456 -0.1407 -0.0996  0.0592
  485MOL0     C65386   8.372   6.071  10.188 -0.8314  0.1022 -0.2059
  485MOL0     C65387   8.486   6.150  10.227 -0.0289 -0.6173  0.0019
  485MOL0     O65388   8.491   6.478  10.438  0.5861 -0.1970  0.1626
  485MOL0     C65389   8.715   6.642  10.454  0.4970  0.5051 -0.2846
  485MOL0     C65390   8.829   6.704  10.490  0.1002 -0.4335  0.1039
  485MOL0     N65391   9.426   7.040  10.384  0.1262  0.2420 -0.4026
  485MOL0     N65392   9.510   7.117  10.327 -0.3416 -0.0085  0.3680
  485MOL0     C65393  10.706   7.456  10.182 -0.2702  0.6088  0.1743
  485MOL0     C65394  10.836   7.497  10.199 -0.3750  0.4194  0.0195
  485MOL0     C65395  11.243   7.425  10.359  0.3879 -1.0982 -0.0705
  485MOL0     C65396  11.300   7.549  10.384  0.7086 -0.6912 -0.1088
  485MOL0     C65397  11.439   7.560  10.401 -0.5507  0.4799  0.6673
  485MOL0     C65398  11.516   7.445  10.383  0.3989 -1.0688  0.2104
  485MOL0     O65399  11.651   7.442  10.398 -0.0124  0.0695  0.1593
  485MOL0     C65400  11.713   7.566  10.384 -0.1486  0.6157 -0.4350
  485MOL0     C65401  11.868   7.540  10.343  0.0045  0.5419 -0.2176
  485MOL0     C65402  11.889   7.449  10.210 -0.3035 -0.9476 -0.4223
  485MOL0     C65403  12.039   7.448  10.171  0.0751 -0.5657  0.0397
  485MOL0     C65404  12.123   7.399  10.282  0.0714  0.1433 -0.6855
  485MOL0     C65405  12.187   7.351  10.377 -0.3693 -0.4218 -0.5590
  485MOL0     C65406  11.452   7.324  10.353 -0.5680  0.3566 -0.1191
  485MOL0     C65407  11.317   7.313  10.345 -0.2788  0.2789 -0.4706
  485MOL0     H65408  10.848   7.548  10.528 -2.7063  3.4789  0.8519
  485MOL0     H65409  10.623   7.475  10.515 -1.5932 -1.6924 -1.1691
  485MOL0     H65410  10.391   7.614  10.324 -0.1487  2.0939 -1.2382
  485MOL0     H65411  10.464   7.615  10.158 -0.8220  0.0311  0.2337
  485MOL0     H65412  10.231   7.609  10.131 -0.8658  0.4351  0.8583
  485MOL0     H65413  10.304   7.459  10.077 -0.0867  0.3845  0.0961
  485MOL0     H65414  10.198   7.340  10.260 -0.5326 -0.6324  2.1803
  485MOL0     H65415  10.248   7.464  10.378 -0.9791  1.3221  0.9628
  485MOL0     H65416  10.056   7.601  10.277 -0.4624  0.1023  0.9483
  485MOL0     H65417  10.020   7.458  10.174 -0.5651 -2.7967  0.8216
  485MOL0     H65418   9.979   7.311  10.348  0.8656  0.3408  1.5945
  485MOL0     H65419  10.033   7.421  10.470  2.3970  0.3515 -1.5775
  485MOL0     H65420   9.838   7.576  10.429  0.7498  0.1925  1.0125
  485MOL0     H65421   9.804   7.499  10.277 -2.2298 -0.3704  0.4041
  485MOL0     H65422   9.766   7.350  10.543 -0.0601 -0.1927 -0.1254
  485MOL0     H65423   9.641   7.449  10.457 -0.9679 -1.4027  1.4114
  485MOL0     H65424   9.784   7.196  10.359  1.6407  2.9274  0.8284
  485MOL0     H65425   9.681   7.295  10.259  0.5005 -0.2824 -0.6349
  485MOL0     H65426   9.604   7.173  10.625 -0.9083  0.4967  0.6965
  485MOL0     H65427   9.444   6.913  10.675  0.3767 -2.3659 -3.0582
  485MOL0     H65428   9.347   7.055  10.705  0.4077  0.4663 -0.2041
  485MOL0     H65429   9.322   6.827  10.504 -1.4789 -1.7874  1.6577
  485MOL0     H65430   9.196   6.940  10.513 -1.3800  0.6959  2.7399
  485MOL0     H65431   9.194   6.879  10.766 -2.4051 -2.2684  2.7091
  485MOL0     H65432   9.284   6.730  10.729 -0.4279  0.7689  1.6627
  485MOL0     H65433   8.992   6.809  10.693  3.4503  1.8024  1.2729
  485MOL0     H65434   9.055   6.643  10.727  1.3792  1.5521  2.4562
  485MOL0     H65435   9.054   6.478  10.405 -0.2436  1.2288 -0.8437
  485MOL0     H65436   8.789   6.234  10.369 -0.7385  0.8376  0.2202
  485MOL0     H65437   8.879   6.299  10.226  0.5849 -1.9162  0.6783
  485MOL0     H65438   8.962   6.260  10.385 -1.5560 -0.4411  4.3633
  485MOL0     H65439   8.326   6.454  10.234 -3.5802  0.1316 -1.3146
  485MOL0     H65440   8.128   6.311  10.195  0.5772  1.8991  1.7868
  485MOL0     H65441   8.185   5.933  10.009 -1.6010 -0.4885 -1.1305
  485MOL0     H65442   8.209   5.863  10.173  0.1015  1.2780  0.2383
  485MOL0     H65443   7.941   5.915  10.048 -1.9280  0.7731  2.5596
  485MOL0     H65444   8.016   5.764  10.068 -2.3074  0.4639 -1.4523
  485MOL0     H65445   7.829   5.856  10.231  0.9095 -3.4240 -0.6003
  485MOL0     H65446   7.960   5.942  10.313 -3.1699  0.5879  1.3604
  485MOL0     H65447   8.071   5.710  10.344 -0.9545 -1.6895 -0.2785
  485MOL0     H65448   7.934   5.763  10.443  4.2481 -1.3446  1.6649
  485MOL0     H65449   7.933   5.562  10.205  1.6359 -1.3053  1.1263
  485MOL0     H65450   7.787   5.649  10.268  0.5207  3.2029 -1.0208
  485MOL0     H65451   7.974   5.484  10.454 -1.5118 -1.9216 -0.2103
  485MOL0     H65452   7.807   5.549  10.488 -0.3045 -0.6704  0.6469
  485MOL0     H65453   7.835   5.343  10.274 -1.9973 -2.0670 -0.2839
  485MOL0     H65454   7.692   5.393  10.373  0.0564 -0.2703  0.8138
  485MOL0     H65455   7.766   5.178  10.437 -0.0579  0.8676  0.1925
  485MOL0     H65456   7.809   5.286  10.573 -0.4520 -1.8093  0.9914
  485MOL0     H65457   8.381   5.964  10.172  1.7567 -0.3213  2.9918
  485MOL0     H65458   8.579   6.102  10.256  0.2047  0.5133  1.2443
  485MOL0     H65459   8.618   6.691  10.449  0.3638  0.1043 -3.7968
  485MOL0     H65460   8.827   6.810  10.512 -2.4064  0.0953 -2.0817
  485MOL0     H65461  10.666   7.446  10.082  0.0380  3.3254 -0.2907
  485MOL0     H65462  10.896   7.506  10.110 -1.9636 -0.8267 -1.2392
  485MOL0     H65463  11.243   7.641  10.380  3.5072  1.2737  1.2687
  485MOL0     H65464  11.480   7.657  10.429  1.2047 -0.3792  1.2399
  485MOL0     H65465  11.663   7.619  10.303  1.2815 -0.5342 -2.1213
  485MOL0     H65466  11.706   7.623  10.478  3.0692 -0.6150  0.6907
  485MOL0     H65467  11.917   7.488  10.425  0.3695  3.7978  1.8125
  485MOL0     H65468  11.921   7.633  10.320  1.8015 -0.6596 -1.1959
  485MOL0     H65469  11.830   7.500  10.132 -1.0203 -0.3043  0.5176
  485MOL0     H65470  11.854   7.349  10.237 -1.2173 -0.6589 -0.5161
  485MOL0     H65471  12.076   7.549  10.153  0.7132 -1.0261 -1.4206
  485MOL0     H65472  12.062   7.394  10.078  0.8212 -0.4495  0.1464
  485MOL0     H65473  12.230   7.320  10.470 -1.3684  0.9584  0.4201
  485MOL0     H65474  11.511   7.233  10.345 -1.1529  0.0989 -1.7021
  485MOL0     H65475  11.275   7.225  10.299 -1.6783 -0.1930  1.5740
  486MOL0     O65476   7.185   3.361   4.833  0.0570 -0.3946  0.4121
  486MOL0     C65477   7.193   3.388   4.955  0.7357  0.3860 -0.3157
  486MOL0     O65478   7.313   3.389   5.029  1.1561 -0.1451  0.3199
  486MOL0     C65479   7.436   3.377   4.960 -0.1967 -0.0334 -0.3592
  486MOL0     C65480   7.520   3.269   4.985  0.2777 -0.1832  0.0778
  486MOL0     C65481   7.642   3.264   4.916 -0.2102  0.8175  0.0081
  486MOL0     C65482   7.681   3.362   4.834 -0.5292 -0.4971 -0.6514
  486MOL0     O65483   7.796   3.357   4.752 -0.2645  0.5263 -0.9988
  486MOL0     C65484   7.871   3.235   4.737  0.5263  0.1499  0.2600
  486MOL0     C65485   7.990   3.247   4.632  0.6572 -0.3337 -0.9387
  486MOL0     C65486   8.107   3.332   4.683  0.5662 -0.1734  0.1642
  486MOL0     C65487   8.069   3.475   4.712 -0.3851 -0.8903  0.9005
  486MOL0     C65488   8.192   3.566   4.735  0.1694 -0.0016  0.3085
  486MOL0     C65489   8.173   3.704   4.790  0.3133 -0.2173 -0.6203
  486MOL0     C65490   8.074   3.777   4.694 -0.8657 -0.3309 -0.0742
  486MOL0     C65491   8.120   3.803   4.549 -0.0952 -0.6943  1.5431
  486MOL0     N65492   8.238   3.896   4.520 -0.6297  0.3030  0.6774
  486MOL0     C65493   8.220   4.030   4.532 -0.9194 -1.0992  0.1817
  486MOL0     C65494   8.353   4.071   4.555  0.1346 -0.7354 -0.2545
  486MOL0     C65495   8.389   4.214   4.595  0.5309  0.4571 -0.4328
  486MOL0     C65496   8.408   4.206   4.752 -0.0085 -0.1156  1.1200
  486MOL0     C65497   8.270   4.187   4.824  1.0525 -0.0141  0.4739
  486MOL0     C65498   8.292   4.204   4.971  0.5333 -0.4193 -0.5564
  486MOL0     O65499   8.398   4.124   5.023 -0.0548  0.7250  0.1010
  486MOL0     C65500   8.374   3.991   5.052 -0.1519  0.4056 -0.0682
  486MOL0     C65501   8.331   3.962   5.173  0.4946  0.1536 -0.4579
  486MOL0     C65502   8.314   3.830   5.221  0.6180  0.0810 -0.0864
  486MOL0     C65503   8.263   3.817   5.365 -0.1168  0.0485  0.4547
  486MOL0     C65504   8.339   3.721   5.131 -0.1888 -0.1836 -0.0138
  486MOL0     C65505   8.313   3.580   5.163 -0.4107 -0.2944  0.3708
  486MOL0     O65506   8.370   3.498   5.070  0.6929  0.1153  0.1487
  486MOL0     C65507   8.333   3.368   5.067  0.4573  0.1027 -0.6827
  486MOL0     C65508   8.429   3.270   5.073 -0.5044  0.3257  0.5323
  486MOL0     C65509   8.391   3.133   5.076 -0.7745 -0.9658  0.1313
  486MOL0     C65510   8.262   3.090   5.071  0.3317  0.3736  0.4552
  486MOL0     O65511   8.210   2.959   5.089 -0.3407 -0.3313  0.8626
  486MOL0     C65512   8.288   2.841   5.056  1.1780  0.0417  0.4650
  486MOL0     C65513   8.196   2.709   5.044 -0.2134  0.3132  0.2260
  486MOL0     C65514   8.236   2.587   5.124  0.3632  0.2055  0.8067
  486MOL0     C65515   8.143   2.468   5.111  0.1521 -0.6501  0.7487
  486MOL0     C65516   8.180   2.358   5.205 -0.5720  0.8592  0.3181
  486MOL0     C65517   8.066   2.260   5.221 -1.0764  1.0471 -0.5925
  486MOL0     C65518   8.091   2.161   5.340 -0.5151  0.0939 -0.3773
  486MOL0     C65519   8.069   2.227   5.468 -0.3643  0.9059 -0.2101
  486MOL0    Cl65520   8.080   2.101   5.595  0.2116  0.0283  0.3294
  486MOL0     C65521   8.173   3.196   5.067  0.5712  0.4529 -0.0531
  486MOL0     C65522   8.200   3.329   5.072  0.7954  0.1899 -0.4057
  486MOL0     O65523   8.261   3.546   5.271  0.1889  0.7966  0.1973
  486MOL0     C65524   8.403   3.756   5.016 -0.6738  0.0676  0.1882
  486MOL0     C65525   8.427   3.889   4.975 -0.1765 -0.4079 -0.0258
  486MOL0     N65526   8.437   3.967   4.558  0.3474  0.0044  0.4932
  486MOL0     N65527   8.371   3.860   4.536 -0.1149  0.2419 -0.3709
  486MOL0     C65528   7.593   3.470   4.810 -0.0635 -0.2467 -0.2633
  486MOL0     C65529   7.469   3.477   4.874  0.3434  0.2560 -0.7247
  486MOL0     C65530   7.064   3.406   5.021 -0.7212  0.3848  0.0278
  486MOL0     C65531   6.948   3.398   4.945 -0.0438 -0.3936  0.5548
  486MOL0     C65532   6.823   3.399   5.000 -0.0013 -0.1127  0.0759
  486MOL0     C65533   6.804   3.408   5.133 -0.7743 -0.3658 -0.0494
  486MOL0     O65534   6.674   3.425   5.171  0.0589  0.1792 -0.2645
  486MOL0     C65535   6.647   3.488   5.303  0.2028 -0.2768 -1.1174
  486MOL0     C65536   6.500   3.485   5.319  0.2287  0.7055 -0.6356
  486MOL0     C65537   6.424   3.350   5.333  0.1281 -0.2658  0.6523
  486MOL0     C65538   6.494   3.268   5.447  0.3662 -0.3905  0.4053
  486MOL0     C65539   6.461   3.332   5.577 -0.2754 -0.2995 -0.3744
  486MOL0     C65540   6.426   3.383   5.680  0.3755 -1.0171 -0.0082
  486MOL0     C65541   6.921   3.416   5.213  1.4190  0.0921  0.3139
  486MOL0     C65542   7.047   3.414   5.155  0.2619  0.7873  0.7088
  486MOL0     H65543   7.494   3.193   5.058 -0.2135  0.0014  0.1033
  486MOL0     H65544   7.709   3.179   4.922 -0.5548  0.4295 -1.3191
  486MOL0     H65545   7.908   3.198   4.833 -0.0642  0.2775  0.5460
  486MOL0     H65546   7.801   3.159   4.700 -1.2909  1.8935 -0.0842
  486MOL0     H65547   8.015   3.141   4.618  2.5129 -0.2063  0.8685
  486MOL0     H65548   7.961   3.282   4.532  4.4368 -0.9752 -2.4632
  486MOL0     H65549   8.137   3.292   4.780 -0.5560 -1.1844  0.1261
  486MOL0     H65550   8.191   3.335   4.614  0.6105  2.0257  0.2447
  486MOL0     H65551   8.006   3.511   4.629  0.3519 -0.2663  0.6008
  486MOL0     H65552   8.007   3.489   4.801 -0.9576  2.2353  0.1593
  486MOL0     H65553   8.257   3.513   4.805 -1.2174 -0.4843  1.2682
  486MOL0     H65554   8.247   3.572   4.640 -0.4008 -1.7516 -0.1720
  486MOL0     H65555   8.119   3.686   4.884  0.0856 -0.3890 -0.7832
  486MOL0     H65556   8.260   3.769   4.803 -0.9492  1.2096  1.3277
  486MOL0     H65557   7.976   3.729   4.704 -0.4813 -1.3720 -1.1342
  486MOL0     H65558   8.066   3.880   4.730  0.5849  0.8353 -2.7973
  486MOL0     H65559   8.033   3.849   4.502  2.4361  2.5421 -0.4188
  486MOL0     H65560   8.136   3.708   4.497 -0.8032  1.3112 -2.8429
  486MOL0     H65561   8.125   4.082   4.526 -0.3015 -0.0442 -0.8451
  486MOL0     H65562   8.483   4.232   4.541  1.3453 -3.1265 -0.4684
  486MOL0     H65563   8.317   4.285   4.555 -0.4270 -0.9678 -1.3383
  486MOL0     H65564   8.461   4.292   4.794 -0.3146 -0.1342  1.5558
  486MOL0     H65565   8.467   4.116   4.770  1.2654 -0.2121 -2.6728
  486MOL0     H65566   8.235   4.087   4.798  1.4724 -0.0757  0.1359
  486MOL0     H65567   8.191   4.253   4.785  2.8351  2.7567  1.2579
  486MOL0     H65568   8.198   4.192   5.027  1.2468  1.6962  1.2729
  486MOL0     H65569   8.328   4.306   4.991 -0.7648 -0.6645  4.5316
  486MOL0     H65570   8.287   4.041   5.233 -0.6689 -1.0809  0.4126
  486MOL0     H65571   8.334   3.765   5.430  2.9646  0.0021 -2.6625
  486MOL0     H65572   8.259   3.919   5.404 -0.6355  1.1332 -2.2711
  486MOL0     H65573   8.169   3.760   5.370 -0.0816  0.0890  3.6260
  486MOL0     H65574   8.531   3.306   5.077 -1.6327  3.7682  2.4594
  486MOL0     H65575   8.452   3.045   5.093  0.7438  0.2533  1.2267
  486MOL0     H65576   8.345   2.859   4.965  1.6295  1.9892  1.0672
  486MOL0     H65577   8.367   2.835   5.132 -0.6475  2.9582  2.8828
  486MOL0     H65578   8.103   2.736   5.094 -0.5506 -1.1464  0.4151
  486MOL0     H65579   8.207   2.680   4.939  2.3891 -2.2403  1.0427
  486MOL0     H65580   8.245   2.622   5.228  1.3742  2.9712 -0.1335
  486MOL0     H65581   8.336   2.555   5.096  0.0931  1.9986 -2.6947
  486MOL0     H65582   8.038   2.498   5.116  0.1045 -0.6909  0.0176
  486MOL0     H65583   8.158   2.424   5.012 -3.2477  1.9705 -1.1440
  486MOL0     H65584   8.209   2.408   5.298  0.5857  1.2027 -0.2031
  486MOL0     H65585   8.263   2.300   5.163 -0.7976  0.9779 -0.3032
  486MOL0     H65586   7.963   2.293   5.239 -2.1086 -3.3626  3.8071
  486MOL0     H65587   8.069   2.206   5.126  2.1454  1.9971 -1.1230
  486MOL0     H65588   8.188   2.110   5.339 -1.2889 -1.5539  1.8308
  486MOL0     H65589   8.014   2.086   5.324 -0.5967  0.4608 -1.8817
  486MOL0     H65590   7.970   2.273   5.468 -2.6116 -3.3539  1.5526
  486MOL0     H65591   8.148   2.298   5.494  0.4402  1.2051 -3.1226
  486MOL0     H65592   8.069   3.164   5.076  0.3027  1.1907 -0.3757
  486MOL0     H65593   8.124   3.404   5.090 -0.3659 -1.1772  0.5888
  486MOL0     H65594   8.439   3.680   4.947 -1.1313 -0.8280  0.9223
  486MOL0     H65595   8.469   3.920   4.880  0.9412 -0.3343  0.4748
  486MOL0     H65596   7.634   3.554   4.755 -2.1602 -0.6311 -2.5864
  486MOL0     H65597   7.403   3.563   4.865  0.6665  0.6690  0.5525
  486MOL0     H65598   6.943   3.384   4.837 -0.1295 -1.8827  0.7352
  486MOL0     H65599   6.738   3.398   4.932  2.2049 -0.5852 -2.8255
  486MOL0     H65600   6.696   3.449   5.393 -1.4211  0.4742  0.1431
  486MOL0     H65601   6.683   3.591   5.300 -4.4857  1.6623  0.1262
  486MOL0     H65602   6.460   3.529   5.227 -0.2655 -0.9340 -1.2365
  486MOL0     H65603   6.464   3.542   5.405  1.1341 -1.5970  1.3987
  486MOL0     H65604   6.428   3.303   5.235  0.4703  1.4489 -0.1905
  486MOL0     H65605   6.320   3.365   5.362  0.8274  3.1885  1.9124
  486MOL0     H65606   6.601   3.253   5.434  0.3834 -1.2202  1.3827
  486MOL0     H65607   6.450   3.169   5.432  0.4262 -0.1095 -1.9830
  486MOL0     H65608   6.385   3.427   5.768  1.0495 -1.0762  0.3373
  486MOL0     H65609   6.890   3.414   5.317 -2.3151 -4.5498 -0.4827
  486MOL0     H65610   7.127   3.427   5.228  0.0763  2.2029  0.6948
  487MOL0     O65611   2.249  10.853   2.978 -0.3864 -0.2297 -0.4265
  487MOL0     C65612   2.269  10.794   3.084 -0.4905 -0.5203 -0.1953
  487MOL0     O65613   2.191  10.810   3.192 -0.1860  0.5459 -0.3417
  487MOL0     C65614   2.079  10.896   3.183  0.1255 -0.5822 -0.4495
  487MOL0     C65615   2.101  11.035   3.182 -0.0040 -0.4869 -0.3461
  487MOL0     C65616   1.992  11.123   3.197  0.3979 -0.9663 -0.0526
  487MOL0     C65617   1.861  11.071   3.205  0.0437 -0.3161 -0.3136
  487MOL0     O65618   1.753  11.161   3.218 -0.3380 -0.4686 -0.3031
  487MOL0     C65619   1.614  11.109   3.222  0.6507  1.2380  0.3666
  487MOL0     C65620   1.535  11.236   3.245  0.4866 -0.3167 -0.2635
  487MOL0     C65621   1.382  11.227   3.252 -0.6056  0.4251  0.2484
  487MOL0     C65622   1.328  11.347   3.170  0.1069 -0.4701 -0.6140
  487MOL0     C65623   1.179  11.370   3.194  0.7854 -0.0500  0.9325
  487MOL0     C65624   1.085  11.265   3.116 -0.0703 -0.0021 -0.9104
  487MOL0     C65625   0.940  11.278   3.154  0.4067 -0.0302  0.2983
  487MOL0     C65626   0.849  11.174   3.079 -0.5620 -0.3548 -0.4364
  487MOL0     N65627   0.793  11.225   2.955 -0.6170 -0.2074  0.6291
  487MOL0     C65628   0.712  11.153   2.868 -0.0238 -0.2575 -0.0067
  487MOL0     C65629   0.667  11.240   2.776  0.7974 -0.8377 -0.2920
  487MOL0     C65630   0.551  11.217   2.674 -1.0255 -1.3334  0.2461
  487MOL0     C65631   0.538  11.307   2.554 -0.0516  0.4397  0.2438
  487MOL0     C65632   0.667  11.309   2.471 -0.3471 -0.6652  0.0778
  487MOL0     C65633   0.732  11.172   2.453 -0.7409  0.5746  0.1624
  487MOL0     O65634   0.825  11.188   2.350 -0.1090  0.5181  0.6457
  487MOL0     C65635   0.950  11.236   2.364  0.4031  0.4113 -0.5040
  487MOL0     C65636   1.036  11.228   2.252 -0.4364 -0.3640  0.1534
  487MOL0     C65637   1.169  11.269   2.266  0.0456  0.4274  0.5759
  487MOL0     C65638   1.259  11.251   2.146  0.2221  0.4680  0.2889
  487MOL0     C65639   1.214  11.334   2.381  0.0568 -0.0152  0.6215
  487MOL0     C65640   1.347  11.400   2.393  0.2097  0.1843  0.4212
  487MOL0     O65641   1.379  11.446   2.524 -0.8142  0.4632  0.7233
  487MOL0     C65642   1.505  11.481   2.557 -1.0067 -0.6307  0.1512
  487MOL0     C65643   1.504  11.599   2.635  0.2546 -0.2837 -0.2212
  487MOL0     C65644   1.622  11.665   2.679 -0.4189 -0.8338  1.1321
  487MOL0     C65645   1.744  11.607   2.633  0.9494 -0.2423  0.0699
  487MOL0     O65646   1.857  11.677   2.662  0.2375 -0.1944  0.2815
  487MOL0     C65647   1.969  11.590   2.700 -0.1372 -1.0872 -0.3047
  487MOL0     C65648   2.082  11.669   2.786  0.4043  0.2999  0.9712
  487MOL0     C65649   2.040  11.700   2.931 -0.7494 -0.1510  0.0390
  487MOL0     C65650   2.164  11.720   3.015 -0.2255  0.2364 -0.1996
  487MOL0     C65651   2.129  11.765   3.155  0.3147  0.5061 -1.2593
  487MOL0     C65652   2.223  11.862   3.227 -0.0031 -0.6890 -0.7053
  487MOL0     C65653   2.366  11.807   3.240  0.1225  0.3555 -0.2424
  487MOL0     C65654   2.456  11.895   3.333 -0.0734 -0.0454  0.6264
  487MOL0    Cl65655   2.438  11.834   3.501 -0.0383 -0.5521  0.1202
  487MOL0     C65656   1.742  11.489   2.555 -0.1433 -0.0419 -0.4815
  487MOL0     C65657   1.625  11.428   2.518  0.1406  1.3712  0.5958
  487MOL0     O65658   1.416  11.420   2.296 -0.2335 -0.2212  0.0308
  487MOL0     C65659   1.126  11.344   2.488 -0.3831  0.2869 -0.6078
  487MOL0     C65660   0.999  11.290   2.484 -0.0042  0.6218 -0.1060
  487MOL0     N65661   0.738  11.359   2.800 -0.4862 -0.1314 -0.0342
  487MOL0     N65662   0.809  11.352   2.902 -0.4021  0.0609 -0.5749
  487MOL0     C65663   1.837  10.934   3.197 -0.5663  0.1850  0.5602
  487MOL0     C65664   1.949  10.850   3.192 -0.4571 -0.4269 -0.1516
  487MOL0     C65665   2.382  10.698   3.088  0.7059 -0.5269  0.9050
  487MOL0     C65666   2.461  10.686   2.963  0.8345 -0.5053  0.0797
  487MOL0     C65667   2.564  10.594   2.961  1.1778 -0.1376 -0.1641
  487MOL0     C65668   2.598  10.518   3.073 -0.5075 -0.1288  0.2096
  487MOL0     O65669   2.701  10.422   3.075 -0.2480 -0.5475  0.5484
  487MOL0     C65670   2.769  10.380   2.948  0.2572 -0.1242  0.2508
  487MOL0     C65671   2.893  10.467   2.910  0.1704 -0.5272 -0.0891
  487MOL0     C65672   3.013  10.439   2.996 -1.1881 -0.2923  0.0897
  487MOL0     C65673   3.142  10.478   2.932  0.0032 -0.5177 -0.2451
  487MOL0     C65674   3.258  10.470   3.024  0.1306  0.1092 -0.3229
  487MOL0     C65675   3.343  10.471   3.113  0.3342 -0.6471  0.0598
  487MOL0     C65676   2.518  10.536   3.190  0.5650  0.6484 -0.8642
  487MOL0     C65677   2.414  10.623   3.195 -0.3346 -0.3557 -0.2280
  487MOL0     H65678   2.199  11.083   3.177  0.1105 -0.3333  2.0241
  487MOL0     H65679   2.006  11.230   3.196 -1.6230 -0.6241  1.4526
  487MOL0     H65680   1.576  11.065   3.129  0.6979  0.5213  0.6779
  487MOL0     H65681   1.592  11.043   3.307 -0.0884  1.2669  0.2017
  487MOL0     H65682   1.576  11.282   3.336  3.3230 -1.8726 -0.6321
  487MOL0     H65683   1.558  11.307   3.165  2.0645  0.8480  1.1277
  487MOL0     H65684   1.343  11.134   3.212 -0.0491 -1.0352  2.8722
  487MOL0     H65685   1.348  11.232   3.355  0.4870  1.3132  0.5988
  487MOL0     H65686   1.375  11.439   3.207 -2.1105  0.0685  1.0552
  487MOL0     H65687   1.342  11.344   3.062 -0.0102 -1.6107 -0.6087
  487MOL0     H65688   1.165  11.371   3.303 -0.9011 -1.2121  0.7785
  487MOL0     H65689   1.142  11.462   3.148 -0.0477 -0.7562  0.1370
  487MOL0     H65690   1.081  11.289   3.009 -2.9800  2.0323 -0.4721
  487MOL0     H65691   1.107  11.159   3.127 -1.3627 -0.1964  0.0693
  487MOL0     H65692   0.921  11.274   3.261 -1.4015  0.1040  0.0175
  487MOL0     H65693   0.903  11.378   3.132  1.7327  0.2109 -0.9529
  487MOL0     H65694   0.773  11.152   3.155  3.0682 -0.8055  3.4108
  487MOL0     H65695   0.907  11.083   3.065 -1.0119 -0.4766 -1.6725
  487MOL0     H65696   0.687  11.049   2.883 -0.7591  0.0447  1.0185
  487MOL0     H65697   0.564  11.114   2.642  0.7830 -1.6499  1.8465
  487MOL0     H65698   0.456  11.223   2.727 -1.7507 -3.6373 -0.7109
  487MOL0     H65699   0.508  11.409   2.582  0.8800  0.9069 -0.4008
  487MOL0     H65700   0.454  11.271   2.496  0.7228 -1.4570  0.2388
  487MOL0     H65701   0.729  11.391   2.509 -0.6451 -1.2383  1.8976
  487MOL0     H65702   0.627  11.337   2.373  0.2519 -0.1893 -0.0377
  487MOL0     H65703   0.657  11.100   2.419  1.0384 -0.6938 -1.3076
  487MOL0     H65704   0.799  11.140   2.534 -1.8509 -1.3770  0.3754
  487MOL0     H65705   1.002  11.175   2.164  0.4868  0.9432 -1.0382
  487MOL0     H65706   1.335  11.176   2.171  2.0857  0.9840 -3.1672
  487MOL0     H65707   1.202  11.199   2.068 -0.7110 -1.1864  1.9916
  487MOL0     H65708   1.302  11.339   2.098 -0.3756  0.1926 -0.7970
  487MOL0     H65709   1.414  11.653   2.662  0.1530 -0.6354  0.1571
  487MOL0     H65710   1.615  11.760   2.730  1.5413 -1.1858  2.1456
  487MOL0     H65711   1.941  11.503   2.760  1.6374  0.3273  2.8195
  487MOL0     H65712   2.017  11.550   2.610  0.4017 -3.1297  0.8023
  487MOL0     H65713   2.167  11.602   2.798 -2.1276 -3.3303  0.3296
  487MOL0     H65714   2.118  11.763   2.744  0.0875  0.6679  1.5028
  487MOL0     H65715   1.984  11.610   2.958 -0.2187 -1.1871 -2.0729
  487MOL0     H65716   1.971  11.785   2.933 -0.3452  0.2029 -0.5767
  487MOL0     H65717   2.232  11.634   3.017 -1.1729 -0.5404 -0.8912
  487MOL0     H65718   2.220  11.804   2.972  2.3384 -0.4901  1.4631
  487MOL0     H65719   2.100  11.678   3.214 -0.6904  1.8861  0.3468
  487MOL0     H65720   2.035  11.820   3.158  1.2683  2.1683  0.1247
  487MOL0     H65721   2.219  11.952   3.164 -3.5297 -1.2667 -1.5400
  487MOL0     H65722   2.179  11.895   3.321 -0.8774  1.8776 -1.9230
  487MOL0     H65723   2.402  11.790   3.139 -1.0014  3.3185 -1.2598
  487MOL0     H65724   2.360  11.706   3.281  1.9827  0.1007 -0.5261
  487MOL0     H65725   2.414  11.996   3.338 -0.0858 -0.0543  0.7140
  487MOL0     H65726   2.562  11.890   3.307 -0.4601 -0.7401 -0.9706
  487MOL0     H65727   1.828  11.437   2.515 -0.6844 -2.4585  1.2617
  487MOL0     H65728   1.627  11.333   2.464  2.9390  0.6421  1.8073
  487MOL0     H65729   1.157  11.397   2.578  0.3745 -1.3168  0.1210
  487MOL0     H65730   0.942  11.309   2.575  0.5220  0.7972  0.1940
  487MOL0     H65731   1.740  10.885   3.195 -0.3047 -0.4242  2.0599
  487MOL0     H65732   1.939  10.743   3.185 -1.1875 -0.4782  1.3809
  487MOL0     H65733   2.442  10.748   2.876  1.7335 -0.4987 -0.1217
  487MOL0     H65734   2.611  10.589   2.863  0.4181  1.5815 -0.6699
  487MOL0     H65735   2.796  10.276   2.967 -1.2976 -0.1982  2.4154
  487MOL0     H65736   2.696  10.383   2.867 -0.2049 -1.1361  0.6133
  487MOL0     H65737   2.860  10.571   2.908 -2.1439 -1.1145  1.9394
  487MOL0     H65738   2.919  10.434   2.809 -2.5490  0.3915 -1.1856
  487MOL0     H65739   3.015  10.334   3.029  3.6440  0.6367  3.7888
  487MOL0     H65740   3.000  10.499   3.087  0.1810 -0.1658  0.2139
  487MOL0     H65741   3.134  10.583   2.905 -0.9607 -0.7143 -0.7799
  487MOL0     H65742   3.167  10.421   2.842  2.3929  3.3601 -2.3164
  487MOL0     H65743   3.420  10.479   3.187  1.1474 -2.2765 -0.5804
  487MOL0     H65744   2.546  10.473   3.274 -3.0559  0.5334  0.3935
  487MOL0     H65745   2.370  10.640   3.293  1.4262  0.9665  0.3932
  488MOL0     O65746   9.937   3.126  11.108 -0.4406  0.4493 -0.2241
  488MOL0     C65747   9.987   3.237  11.130  0.7701  0.6750 -0.1029
  488MOL0     O65748   9.920   3.357  11.119  0.5032  0.3832 -0.5249
  488MOL0     C65749   9.789   3.368  11.073 -0.4496 -0.5494 -0.0412
  488MOL0     C65750   9.697   3.267  11.069 -0.5656  0.2998 -0.6508
  488MOL0     C65751   9.566   3.295  11.033  0.4072  1.0093  0.4162
  488MOL0     C65752   9.517   3.418  10.989 -0.4962  0.2632 -0.8615
  488MOL0     O65753   9.381   3.437  10.950 -0.6350  0.5131  0.2214
  488MOL0     C65754   9.320   3.553  10.895 -0.7439  0.1776  0.6012
  488MOL0     C65755   9.279   3.653  11.006  1.0876  0.4885  0.6252
  488MOL0     C65756   9.134   3.641  11.054 -0.2831  0.1058 -0.0829
  488MOL0     C65757   9.113   3.747  11.174 -0.5458  0.7987  1.2353
  488MOL0     C65758   8.968   3.753  11.212  0.2715  0.0722  1.1061
  488MOL0     C65759   8.956   3.843  11.336  0.0429  0.8454 -0.2142
  488MOL0     C65760   8.825   3.823  11.408 -0.0197  0.1996 -0.0371
  488MOL0     C65761   8.723   3.909  11.338 -0.2681  0.3771  0.1738
  488MOL0     N65762   8.591   3.885  11.386  0.8362  0.4597 -0.7054
  488MOL0     C65763   8.536   3.919  11.510  0.9086  0.2070  0.1940
  488MOL0     C65764   8.402   3.895  11.494 -0.0558  0.1384  0.7592
  488MOL0     C65765   8.292   3.927  11.589 -1.1485 -0.6634 -1.2520
  488MOL0     C65766   8.155   3.859  11.569 -0.9601  0.2601 -0.2515
  488MOL0     C65767   8.072   3.920  11.457  0.3684 -0.5679  0.6314
  488MOL0     C65768   7.949   3.838  11.445 -0.3163  0.1835  0.2220
  488MOL0     O65769   7.899   3.835  11.314  0.8232 -0.3051 -0.3873
  488MOL0     C65770   7.955   3.763  11.217 -0.7153 -0.6312  0.5596
  488MOL0     C65771   8.063   3.674  11.231 -1.1313 -0.7635 -0.1961
  488MOL0     C65772   8.118   3.601  11.119  0.3176  0.1047  0.8498
  488MOL0     C65773   8.230   3.506  11.148 -0.6590  0.2960  0.1607
  488MOL0     C65774   8.058   3.622  10.987 -0.1810 -0.4317  0.5306
  488MOL0     C65775   8.105   3.541  10.863  0.6814 -2.4127 -0.5591
  488MOL0     O65776   8.056   3.585  10.746 -0.2935 -0.0186 -0.0162
  488MOL0     C65777   8.113   3.545  10.626 -0.5166 -0.2525 -0.6634
  488MOL0     C65778   8.027   3.505  10.527 -0.2114 -0.4554  0.1726
  488MOL0     C65779   8.090   3.468  10.404 -0.7219 -0.4054  0.2932
  488MOL0     C65780   8.228   3.492  10.381 -0.2707 -1.0514 -0.5379
  488MOL0     O65781   8.279   3.468  10.260  0.0230  0.1723  0.8921
  488MOL0     C65782   8.427   3.470  10.240  0.4726  0.1665  0.6079
  488MOL0     C65783   8.461   3.414  10.103  0.3407  0.7245 -0.1475
  488MOL0     C65784   8.555   3.295  10.132 -0.0497 -0.0206  0.7646
  488MOL0     C65785   8.599   3.227   9.997 -0.5104  0.1910 -0.8331
  488MOL0     C65786   8.693   3.101  10.029  0.2839 -0.0917  0.1642
  488MOL0     C65787   8.794   3.055   9.921 -0.2845  0.1301  0.4679
  488MOL0     C65788   8.906   2.976   9.993 -0.3758 -0.0883 -0.2818
  488MOL0     C65789   9.035   2.952   9.918 -0.4236  1.1611  0.5478
  488MOL0    Cl65790   9.009   2.876   9.754 -0.2512  0.2571 -0.4936
  488MOL0     C65791   8.307   3.547  10.490  0.8728  0.7127 -0.1490
  488MOL0     C65792   8.253   3.572  10.614  0.9007  0.6944 -0.5676
  488MOL0     O65793   8.179   3.449  10.872 -0.2838  0.0951  0.6569
  488MOL0     C65794   7.948   3.707  10.970  0.1107  0.4463  0.1145
  488MOL0     C65795   7.902   3.778  11.087  0.0973  0.2389 -0.3544
  488MOL0     N65796   8.380   3.845  11.368  0.1305  0.0798  0.1685
  488MOL0     N65797   8.496   3.825  11.309 -0.0482 -0.0166 -0.0270
  488MOL0     C65798   9.607   3.525  11.006 -1.1552 -0.0612 -0.4957
  488MOL0     C65799   9.738   3.502  11.058 -0.1841  0.4845  0.0563
  488MOL0     C65800  10.119   3.243  11.196  0.6709 -1.4073 -0.0416
  488MOL0     C65801  10.196   3.128  11.206 -0.4424  0.3412 -0.4506
  488MOL0     C65802  10.328   3.132  11.240 -0.6400 -0.0051 -0.0717
  488MOL0     C65803  10.392   3.258  11.256 -0.5203  0.4074 -1.1382
  488MOL0     O65804  10.524   3.255  11.277 -0.2951  0.5821  0.3627
  488MOL0     C65805  10.595   3.328  11.174  0.1203  0.3417 -0.6788
  488MOL0     C65806  10.743   3.309  11.189  0.6714  0.3920  0.6639
  488MOL0     C65807  10.793   3.170  11.142 -0.9075  0.3226 -0.5184
  488MOL0     C65808  10.930   3.138  11.198 -0.2039  0.5575 -0.5573
  488MOL0     C65809  11.041   3.195  11.119 -0.4362  0.1021  0.0259
  488MOL0     C65810  11.140   3.230  11.059 -1.1085 -0.5109  0.0463
  488MOL0     C65811  10.316   3.371  11.261 -0.8296 -0.7886 -0.0796
  488MOL0     C65812  10.177   3.364  11.228 -0.1767  0.3505  0.0059
  488MOL0     H65813   9.717   3.165  11.098  1.4534  1.1207  1.1006
  488MOL0     H65814   9.487   3.222  11.019  0.0452  1.9065 -3.3586
  488MOL0     H65815   9.395   3.594  10.827  0.5639  0.9288  2.4010
  488MOL0     H65816   9.232   3.519  10.840  0.5938 -0.9065 -0.9602
  488MOL0     H65817   9.354   3.637  11.084 -1.1985  2.3237  3.4107
  488MOL0     H65818   9.291   3.758  10.977 -6.8105  1.6845 -0.6968
  488MOL0     H65819   9.073   3.677  10.971  0.2473  0.6695 -0.2362
  488MOL0     H65820   9.111   3.542  11.095  2.0904 -0.1504  0.8158
  488MOL0     H65821   9.168   3.708  11.260  0.4814  0.1613  0.3188
  488MOL0     H65822   9.152   3.840  11.132  0.7732  0.1823  1.0365
  488MOL0     H65823   8.900   3.787  11.132 -0.9639 -2.0631  1.1727
  488MOL0     H65824   8.939   3.650  11.232 -1.1202  0.4552  1.1870
  488MOL0     H65825   9.039   3.827  11.405 -0.2994  1.6824  0.4131
  488MOL0     H65826   8.960   3.947  11.302 -1.6228  0.1829 -2.7401
  488MOL0     H65827   8.796   3.718  11.416 -0.8652  0.3250 -1.2897
  488MOL0     H65828   8.836   3.862  11.510  3.9065  2.2502 -1.0175
  488MOL0     H65829   8.729   3.890  11.231  0.4835 -0.1857  0.3066
  488MOL0     H65830   8.751   4.013  11.352  1.4790 -0.1270  0.6716
  488MOL0     H65831   8.591   3.957  11.595 -0.5749  0.8802  0.8920
  488MOL0     H65832   8.330   3.905  11.689  1.8683 -1.2142 -2.4033
  488MOL0     H65833   8.282   4.036  11.587 -1.4465 -0.6543  0.2009
  488MOL0     H65834   8.105   3.865  11.666  1.5166 -1.7193  1.2778
  488MOL0     H65835   8.179   3.753  11.556 -2.3691 -0.0193 -0.8004
  488MOL0     H65836   8.130   3.931  11.364 -2.2361  0.1966 -1.0093
  488MOL0     H65837   8.041   4.022  11.478 -1.1875 -0.7789 -0.4622
  488MOL0     H65838   7.869   3.876  11.508  1.2152  1.1849  1.6342
  488MOL0     H65839   7.964   3.732  11.471 -1.9053 -0.8945 -2.7314
  488MOL0     H65840   8.131   3.671  11.316  0.3696 -1.8647 -1.3659
  488MOL0     H65841   8.207   3.408  11.105  3.7663 -1.4848  1.2435
  488MOL0     H65842   8.318   3.545  11.097 -2.3782  2.7470 -1.1194
  488MOL0     H65843   8.242   3.495  11.257 -2.1362 -0.8205  0.2535
  488MOL0     H65844   7.921   3.506  10.550 -0.0617 -1.3328  0.9609
  488MOL0     H65845   8.035   3.428  10.319  0.2223 -2.0555  0.4201
  488MOL0     H65846   8.465   3.572  10.247  0.9675  0.1240 -1.1420
  488MOL0     H65847   8.470   3.412  10.323  2.1673  1.5641  0.7613
  488MOL0     H65848   8.370   3.384  10.050 -2.5470  1.8348  3.6971
  488MOL0     H65849   8.519   3.490  10.049  1.5924  0.6833  1.0874
  488MOL0     H65850   8.504   3.232  10.206  0.7876  1.0034  2.2675
  488MOL0     H65851   8.649   3.321  10.182  0.2646 -0.2926  0.3131
  488MOL0     H65852   8.519   3.180   9.940  1.0257 -2.5256 -0.9060
  488MOL0     H65853   8.666   3.297   9.945  0.7243 -1.7829 -2.0502
  488MOL0     H65854   8.643   3.014  10.072 -1.1733  1.3086  1.4240
  488MOL0     H65855   8.765   3.133  10.105  0.1917 -0.0988  0.2532
  488MOL0     H65856   8.736   3.001   9.846 -0.1384  3.7340 -2.5421
  488MOL0     H65857   8.833   3.142   9.867  2.2995 -0.7497  0.7777
  488MOL0     H65858   8.862   2.884  10.031 -1.7110  1.5788  2.5135
  488MOL0     H65859   8.945   3.025  10.083 -0.8576  0.4980 -0.3855
  488MOL0     H65860   9.090   2.883   9.982  0.3313  0.2021 -1.0647
  488MOL0     H65861   9.100   3.040   9.926  0.8927  0.2829 -0.0410
  488MOL0     H65862   8.408   3.583  10.474  1.0223  0.8024  0.9338
  488MOL0     H65863   8.315   3.609  10.695  0.5490  0.9071 -0.3934
  488MOL0     H65864   7.900   3.729  10.876  2.6443  0.8888 -1.1376
  488MOL0     H65865   7.818   3.846  11.078 -0.5542 -0.5460 -0.4439
  488MOL0     H65866   9.574   3.629  11.011  1.3413  0.7480  1.3584
  488MOL0     H65867   9.807   3.582  11.084  0.0563  1.6132 -3.4779
  488MOL0     H65868  10.152   3.029  11.193 -0.4602  0.3679 -0.6047
  488MOL0     H65869  10.382   3.044  11.274 -0.7865  0.3424  1.1080
  488MOL0     H65870  10.572   3.300  11.071  1.3257 -1.0072 -0.6169
  488MOL0     H65871  10.575   3.435  11.183 -3.4170 -0.2572 -0.1367
  488MOL0     H65872  10.770   3.324  11.294  3.0097  0.1193  0.1468
  488MOL0     H65873  10.801   3.379  11.130 -0.4625  0.8117  0.0216
  488MOL0     H65874  10.794   3.180  11.033 -0.2794  1.4897 -0.4222
  488MOL0     H65875  10.736   3.083  11.176 -0.1823 -0.7597 -1.9826
  488MOL0     H65876  10.947   3.032  11.178  3.8479  1.2489 -1.5891
  488MOL0     H65877  10.931   3.182  11.298  2.2083 -0.5491 -0.0423
  488MOL0     H65878  11.236   3.258  11.022 -0.9799  1.9267  1.9825
  488MOL0     H65879  10.355   3.471  11.278 -1.1356 -0.3855 -1.5636
  488MOL0     H65880  10.132   3.460  11.205 -0.7677 -0.3055 -1.6909
  489MOL0     O65881   9.986   9.614  11.120  0.6025  0.7036 -0.0833
  489MOL0     C65882  10.055   9.613  11.020  0.1305 -0.0443 -0.1817
  489MOL0     O65883  10.031   9.677  10.905  0.4346 -0.1253 -0.4032
  489MOL0     C65884   9.928   9.764  10.899 -0.0631  1.4758 -0.3378
  489MOL0     C65885   9.805   9.733  10.830  0.0121  0.2631  0.4717
  489MOL0     C65886   9.708   9.829  10.834  0.3882 -1.0717  0.3896
  489MOL0     C65887   9.733   9.962  10.880  0.4417 -0.2955  1.1753
  489MOL0     O65888   9.626  10.054  10.870  0.0882 -0.0177 -1.4677
  489MOL0     C65889   9.658  10.196  10.864 -0.1439  0.5967 -0.2040
  489MOL0     C65890   9.557  10.297  10.818  0.4855  0.2747 -0.2903
  489MOL0     C65891   9.425  10.269  10.893  0.3086 -0.1462 -0.8659
  489MOL0     C65892   9.319  10.361  10.835  0.1794 -0.9482  0.0048
  489MOL0     C65893   9.181  10.336  10.883  0.4135 -0.0120  0.4489
  489MOL0     C65894   9.084  10.410  10.782 -0.2058  0.6208  0.4524
  489MOL0     C65895   8.939  10.383  10.823  0.0156 -0.2327 -0.3723
  489MOL0     C65896   8.849  10.423  10.714 -1.1076  0.2955  0.7431
  489MOL0     N65897   8.736  10.501  10.759  0.0520  0.8839  0.1047
  489MOL0     C65898   8.610  10.449  10.773 -0.9414 -0.1935 -0.0550
  489MOL0     C65899   8.528  10.553  10.780  0.7535 -0.0182 -0.0302
  489MOL0     C65900   8.370  10.547  10.757 -0.4811 -0.3815  0.4791
  489MOL0     C65901   8.328  10.424  10.831 -0.8164  0.6638  0.0612
  489MOL0     C65902   8.178  10.412  10.794 -0.4651  0.3826 -0.5731
  489MOL0     C65903   8.119  10.282  10.858  0.1817  0.4445  0.3039
  489MOL0     O65904   7.982  10.269  10.810  0.8551 -0.6035  0.8610
  489MOL0     C65905   7.877  10.311  10.883  0.2697 -0.9524  0.4554
  489MOL0     C65906   7.888  10.405  10.990  0.0958 -1.0334 -0.4455
  489MOL0     C65907   7.774  10.442  11.056 -1.4692 -0.3304 -0.1346
  489MOL0     C65908   7.782  10.528  11.182  0.1502 -0.4268 -0.1269
  489MOL0     C65909   7.647  10.389  11.023 -0.4791 -0.7046  0.5946
  489MOL0     C65910   7.521  10.429  11.081  0.5927  0.1137 -0.2193
  489MOL0     O65911   7.425  10.337  11.067  0.1908  0.8657 -0.0204
  489MOL0     C65912   7.300  10.360  11.117 -0.1408 -0.2209  0.0891
  489MOL0     C65913   7.272  10.344  11.252  0.7877  0.3143 -0.1982
  489MOL0     C65914   7.150  10.375  11.311  0.4375  0.1496  0.5099
  489MOL0     C65915   7.043  10.406  11.222 -0.7508 -0.2047  0.2432
  489MOL0     O65916   6.929  10.446  11.275  0.4207  0.0752  0.4558
  489MOL0     C65917   6.927  10.558  11.371  0.4063  0.2186  1.3380
  489MOL0     C65918   6.801  10.645  11.339  0.6803 -0.4422 -0.8897
  489MOL0     C65919   6.800  10.716  11.200  0.0734 -0.6037 -0.3005
  489MOL0     C65920   6.723  10.850  11.202 -0.3017  0.8357  0.5459
  489MOL0     C65921   6.755  10.938  11.086  0.2050 -0.5505  0.0941
  489MOL0     C65922   6.650  11.049  11.094 -0.4278 -0.3750  0.3090
  489MOL0     C65923   6.668  11.149  10.980  0.6680 -0.7292  0.3131
  489MOL0     C65924   6.593  11.100  10.860 -0.8818  0.4576  0.8541
  489MOL0    Cl65925   6.420  11.105  10.885  0.2334 -0.0232  0.3505
  489MOL0     C65926   7.063  10.420  11.078  0.1595  0.0780  0.3462
  489MOL0     C65927   7.195  10.399  11.026  0.5528 -0.1004  0.2478
  489MOL0     O65928   7.502  10.538  11.131 -0.6011  0.2163  0.4489
  489MOL0     C65929   7.634  10.308  10.913 -0.2612 -0.6792  0.3392
  489MOL0     C65930   7.751  10.275  10.842 -0.3903  1.1728 -0.2849
  489MOL0     N65931   8.606  10.665  10.768 -0.1306  0.2658  0.0341
  489MOL0     N65932   8.729  10.633  10.765  0.8469 -0.0024  0.4254
  489MOL0     C65933   9.862   9.991  10.919  0.1592  0.4731 -0.9178
  489MOL0     C65934   9.956   9.893  10.938  1.0349  0.2177  0.5170
  489MOL0     C65935  10.162   9.507  11.018 -0.0985  0.6696 -0.7596
  489MOL0     C65936  10.194   9.432  11.133 -0.4835 -0.3038  0.1755
  489MOL0     C65937  10.291   9.337  11.133 -0.0448  0.5308  0.1144
  489MOL0     C65938  10.367   9.317  11.019  0.1258  0.1101 -0.6749
  489MOL0     O65939  10.482   9.246  11.039  0.4162 -0.2783 -0.0233
  489MOL0     C65940  10.585   9.232  10.935  0.3391  0.0872  0.1045
  489MOL0     C65941  10.715   9.152  10.964 -1.4138  0.2097  0.2715
  489MOL0     C65942  10.775   9.189  11.102  0.1164  0.2325  0.3945
  489MOL0     C65943  10.911   9.116  11.122 -0.7833 -0.1451  0.3589
  489MOL0     C65944  10.945   9.112  11.263 -0.4090  0.2435 -1.0764
  489MOL0     C65945  10.981   9.085  11.384 -0.1671 -0.4830  0.0808
  489MOL0     C65946  10.324   9.371  10.896 -1.4353 -0.2934 -0.4867
  489MOL0     C65947  10.221   9.472  10.897  0.5157  0.2055 -0.2111
  489MOL0     H65948   9.788   9.638  10.780  1.4507  2.3569 -4.6295
  489MOL0     H65949   9.604   9.808  10.809  0.0200 -1.9143  2.3981
  489MOL0     H65950   9.701  10.227  10.960 -1.1603  2.6814 -0.3699
  489MOL0     H65951   9.739  10.210  10.792 -1.1593  2.5874 -1.0396
  489MOL0     H65952   9.602  10.395  10.835 -0.6838  0.7825  0.0067
  489MOL0     H65953   9.527  10.296  10.713 -3.2703 -0.5952  0.6245
  489MOL0     H65954   9.395  10.164  10.882  1.1049 -0.6571  1.2353
  489MOL0     H65955   9.428  10.292  11.000  3.0331 -1.0744 -0.6580
  489MOL0     H65956   9.359  10.460  10.860  0.6436 -1.1238 -0.0332
  489MOL0     H65957   9.324  10.357  10.726  0.5820  0.2534 -0.0459
  489MOL0     H65958   9.174  10.227  10.887  0.1467 -0.0162 -0.0460
  489MOL0     H65959   9.162  10.370  10.985 -2.6233  0.6895 -0.2731
  489MOL0     H65960   9.105  10.516  10.799  0.5254  0.1981  2.5395
  489MOL0     H65961   9.100  10.392  10.676 -2.4290  0.5309  0.0880
  489MOL0     H65962   8.916  10.278  10.839 -0.6733 -0.0594 -0.1693
  489MOL0     H65963   8.902  10.433  10.913 -0.4257 -0.9868 -0.1256
  489MOL0     H65964   8.823  10.330  10.663  0.3218 -1.4779  3.0375
  489MOL0     H65965   8.898  10.485  10.638 -0.7838 -1.4981 -0.5966
  489MOL0     H65966   8.586  10.343  10.768  1.0296 -0.6906  0.0366
  489MOL0     H65967   8.323  10.638  10.796 -1.2183 -0.1161 -0.9673
  489MOL0     H65968   8.338  10.556  10.653  1.3429  1.8866  0.0170
  489MOL0     H65969   8.350  10.416  10.938 -0.0804  1.4527 -0.0164
  489MOL0     H65970   8.377  10.336  10.789 -1.0355 -0.1384  1.4237
  489MOL0     H65971   8.159  10.388  10.689 -0.8092 -1.9406 -0.0392
  489MOL0     H65972   8.118  10.497  10.828  0.5991  0.5328  0.9961
  489MOL0     H65973   8.130  10.282  10.966 -0.9770  0.2029  0.4375
  489MOL0     H65974   8.179  10.202  10.814 -2.2715 -1.4905  0.2602
  489MOL0     H65975   7.980  10.458  11.014  0.8217 -1.1094 -2.8314
  489MOL0     H65976   7.887  10.538  11.210  0.1982 -2.7655  0.6889
  489MOL0     H65977   7.749  10.632  11.171 -0.4936 -0.8061 -2.0605
  489MOL0     H65978   7.732  10.470  11.260 -2.4528  0.6333 -0.8935
  489MOL0     H65979   7.353  10.311  11.316 -1.5760 -2.0928  1.8034
  489MOL0     H65980   7.137  10.360  11.418 -0.6877 -0.1508  0.3498
  489MOL0     H65981   6.926  10.523  11.475 -2.4153  2.4439  2.2050
  489MOL0     H65982   7.013  10.621  11.345 -1.3867  1.9304 -0.8625
  489MOL0     H65983   6.708  10.592  11.363  0.9654 -0.8155 -0.5999
  489MOL0     H65984   6.789  10.730  11.407 -2.4944  0.5931 -2.5499
  489MOL0     H65985   6.748  10.655  11.126 -0.3939  1.1496 -1.4815
  489MOL0     H65986   6.903  10.731  11.166  0.4733 -1.9484  0.2537
  489MOL0     H65987   6.618  10.827  11.222 -0.7896 -0.8047 -2.9738
  489MOL0     H65988   6.760  10.904  11.289 -1.4048 -0.5577  1.9368
  489MOL0     H65989   6.736  10.887  10.991  2.6047 -1.5399  0.0682
  489MOL0     H65990   6.861  10.967  11.088  0.6277 -1.9890  1.4015
  489MOL0     H65991   6.545  11.023  11.107  0.3641 -2.2093  4.5526
  489MOL0     H65992   6.670  11.110  11.183 -1.3342  0.5065 -0.0682
  489MOL0     H65993   6.771  11.159  10.943  0.9889 -0.6587  1.2072
  489MOL0     H65994   6.631  11.246  11.015  1.2533 -0.5864  0.5511
  489MOL0     H65995   6.628  11.000  10.835  1.9758  1.9087 -1.6542
  489MOL0     H65996   6.617  11.171  10.780 -1.7635 -0.8071 -0.5782
  489MOL0     H65997   6.982  10.465  11.020  0.8784  0.3326 -0.4913
  489MOL0     H65998   7.205  10.410  10.918 -2.2938 -2.8785 -0.4450
  489MOL0     H65999   7.539  10.282  10.868  0.1577  0.2469 -1.1314
  489MOL0     H66000   7.748  10.218  10.749  1.8399  0.8331 -0.2096
  489MOL0     H66001   9.879  10.094  10.949 -0.6830 -0.2870  2.7214
  489MOL0     H66002  10.056   9.929  10.963  0.6604  1.1082  0.7640
  489MOL0     H66003  10.137   9.458  11.221  1.6681  1.6269  1.0895
  489MOL0     H66004  10.319   9.286  11.225  0.7921  0.2816 -0.2645
  489MOL0     H66005  10.528   9.200  10.847 -1.3214  2.0669  0.3859
  489MOL0     H66006  10.612   9.335  10.908  0.6634 -0.1950 -0.6588
  489MOL0     H66007  10.786   9.184  10.887 -2.0616  0.1904 -0.3467
  489MOL0     H66008  10.700   9.045  10.948  5.1718 -0.9483 -0.5809
  489MOL0     H66009  10.701   9.152  11.174  0.1493  0.3445  0.4861
  489MOL0     H66010  10.785   9.298  11.113 -1.6808  0.9385 -3.3383
  489MOL0     H66011  10.989   9.166  11.065 -2.1002  0.6391 -0.8277
  489MOL0     H66012  10.905   9.018  11.075 -1.3454  0.9726 -2.0184
  489MOL0     H66013  11.008   9.046  11.481 -0.1320 -3.0425 -0.8787
  489MOL0     H66014  10.375   9.349  10.803  1.1561 -2.2604  1.2192
  489MOL0     H66015  10.204   9.538  10.813  2.4934 -0.7761 -1.4449
  490MOL0     O66016   8.915   4.526   7.799  0.1906  0.3937 -0.9534
  490MOL0     C66017   8.986   4.561   7.708 -0.7187 -0.6695 -0.2431
  490MOL0     O66018   8.938   4.566   7.585  0.2823  0.4258 -0.0808
  490MOL0     C66019   8.832   4.483   7.554  0.3085 -0.0233 -0.1938
  490MOL0     C66020   8.699   4.523   7.571  0.6111  0.1911 -0.5767
  490MOL0     C66021   8.603   4.446   7.503 -0.0408  0.1014 -0.2236
  490MOL0     C66022   8.630   4.336   7.424  0.7682 -0.1106 -0.9373
  490MOL0     O66023   8.526   4.288   7.352  0.6237  0.7963  0.4800
  490MOL0     C66024   8.551   4.179   7.251 -0.4493 -0.4798 -1.6607
  490MOL0     C66025   8.429   4.131   7.190  0.5649 -0.1323 -0.1735
  490MOL0     C66026   8.372   4.239   7.101  0.2738 -0.0570  0.6735
  490MOL0     C66027   8.266   4.183   7.011  0.5835 -0.6335 -0.1131
  490MOL0     C66028   8.183   4.296   6.950  0.8028 -0.4513 -0.5738
  490MOL0     C66029   8.064   4.250   6.858  0.0233 -0.9831 -0.2054
  490MOL0     C66030   7.961   4.352   6.816  0.8143  0.0620  0.0796
  490MOL0     C66031   7.815   4.295   6.780 -0.2847  0.3292 -0.2153
  490MOL0     N66032   7.718   4.399   6.739  0.6186  0.0479  0.0363
  490MOL0     C66033   7.583   4.392   6.727 -0.3584  0.5176  0.7959
  490MOL0     C66034   7.534   4.517   6.679  0.1559  0.5741 -0.9590
  490MOL0     C66035   7.387   4.553   6.643 -0.5649 -0.2037  0.2833
  490MOL0     C66036   7.381   4.609   6.498  0.7469  1.0347  0.1772
  490MOL0     C66037   7.423   4.750   6.474  0.4529 -0.0378  0.1647
  490MOL0     C66038   7.305   4.854   6.503 -0.3307 -0.3281  0.5413
  490MOL0     O66039   7.261   4.852   6.632 -0.2802 -0.1110  0.5431
  490MOL0     C66040   7.133   4.886   6.665 -0.7506 -0.4357 -0.3689
  490MOL0     C66041   7.029   4.902   6.579  0.5346  1.1617  0.8635
  490MOL0     C66042   6.895   4.915   6.624  0.1582  0.2102 -0.2113
  490MOL0     C66043   6.793   4.941   6.522 -0.4748 -0.6017 -0.6583
  490MOL0     C66044   6.879   4.933   6.763  0.6512 -0.1322 -0.9739
  490MOL0     C66045   6.743   4.960   6.837  0.5858  0.9838 -0.6427
  490MOL0     O66046   6.732   4.951   6.973  0.0488 -0.3322 -0.2664
  490MOL0     C66047   6.613   4.993   7.031 -0.0787 -0.1801  0.0941
  490MOL0     C66048   6.551   4.896   7.113 -0.2664  0.7095  0.5435
  490MOL0     C66049   6.425   4.925   7.166 -1.0100  0.3291 -0.7114
  490MOL0     C66050   6.358   5.047   7.142 -1.3087  0.3662 -0.4927
  490MOL0     O66051   6.226   5.055   7.184  0.2244  0.3361  0.2569
  490MOL0     C66052   6.128   5.147   7.131 -0.0588 -0.7472 -0.6565
  490MOL0     C66053   6.127   5.275   7.216 -0.1780  0.5255 -0.3819
  490MOL0     C66054   6.109   5.238   7.362 -0.4382 -0.2900 -0.5530
  490MOL0     C66055   5.962   5.207   7.408  0.8139  0.9614  0.0249
  490MOL0     C66056   5.934   5.171   7.559 -1.5714 -0.2150 -0.5879
  490MOL0     C66057   5.786   5.158   7.591  0.4723 -0.2790 -0.0916
  490MOL0     C66058   5.771   5.111   7.743  0.4716  0.0755  0.8639
  490MOL0     C66059   5.618   5.101   7.767  0.0065  1.4785  0.1951
  490MOL0    Cl66060   5.573   5.077   7.949  0.1075  0.3380  0.2362
  490MOL0     C66061   6.424   5.140   7.054  0.4417  0.3920  0.2910
  490MOL0     C66062   6.550   5.110   6.998  0.5614 -0.5136  0.9989
  490MOL0     O66063   6.653   4.994   6.766 -0.2210  0.0654  0.1855
  490MOL0     C66064   6.984   4.927   6.854 -0.1574  1.0866 -0.1481
  490MOL0     C66065   7.110   4.896   6.799  0.8543  0.2697  0.7080
  490MOL0     N66066   7.639   4.603   6.693 -0.5666 -0.1889 -0.1576
  490MOL0     N66067   7.745   4.528   6.717  0.6569 -0.7614 -0.4197
  490MOL0     C66068   8.756   4.296   7.409  0.1753 -0.0875  0.2728
  490MOL0     C66069   8.855   4.373   7.470  0.4657 -0.4159 -0.2957
  490MOL0     C66070   9.130   4.592   7.728  0.4140 -0.0697  0.8527
  490MOL0     C66071   9.225   4.601   7.625  0.5284 -0.3360  0.1409
  490MOL0     C66072   9.360   4.607   7.649  0.5718  0.1012 -0.3564
  490MOL0     C66073   9.405   4.643   7.779  0.0709  0.0297  1.4612
  490MOL0     O66074   9.537   4.658   7.805 -0.5906  0.6731 -0.1703
  490MOL0     C66075   9.587   4.604   7.923 -0.5615  0.2012  0.0792
  490MOL0     C66076   9.734   4.558   7.913  0.3823 -0.3789  0.5376
  490MOL0     C66077   9.767   4.479   7.783  0.2552  0.3287  0.0908
  490MOL0     C66078   9.916   4.460   7.772  1.1221  0.2302 -0.2325
  490MOL0     C66079   9.946   4.403   7.639  0.0652  0.3032 -0.2016
  490MOL0     C66080   9.962   4.343   7.536  0.2408  0.6136  0.0818
  490MOL0     C66081   9.310   4.645   7.886 -0.1082  0.6127  1.4063
  490MOL0     C66082   9.172   4.616   7.856  0.1996 -0.8215 -0.7278
  490MOL0     H66083   8.663   4.609   7.626 -3.1567 -1.8290  0.4454
  490MOL0     H66084   8.501   4.483   7.510  0.3811  0.9872  2.7225
  490MOL0     H66085   8.611   4.207   7.164  0.0274 -0.1206 -1.2210
  490MOL0     H66086   8.585   4.092   7.307  2.1207  1.2348 -0.3517
  490MOL0     H66087   8.461   4.044   7.132  0.9214  1.5678 -2.6577
  490MOL0     H66088   8.353   4.110   7.266 -0.2294 -0.3460 -1.0147
  490MOL0     H66089   8.318   4.306   7.169 -1.0298 -0.1215 -0.2731
  490MOL0     H66090   8.456   4.284   7.048 -0.5703 -0.7043 -1.2951
  490MOL0     H66091   8.314   4.121   6.936 -0.7025 -0.4961 -1.0832
  490MOL0     H66092   8.194   4.125   7.070  0.4132  0.0279  0.3451
  490MOL0     H66093   8.140   4.362   7.025  3.0965  0.5174 -0.0467
  490MOL0     H66094   8.253   4.366   6.902  0.9491  0.1309  0.4688
  490MOL0     H66095   8.098   4.195   6.770 -2.1539 -2.5665 -0.1520
  490MOL0     H66096   8.014   4.176   6.921  0.8253 -2.6220 -1.4274
  490MOL0     H66097   7.954   4.428   6.894  0.9067  0.7731 -0.5887
  490MOL0     H66098   7.986   4.403   6.722 -2.3857  1.5953 -0.0712
  490MOL0     H66099   7.772   4.257   6.873  1.6159 -1.0160  0.1710
  490MOL0     H66100   7.819   4.216   6.705 -0.1545  1.2412 -1.1947
  490MOL0     H66101   7.525   4.300   6.731  1.8374 -1.0724 -1.1647
  490MOL0     H66102   7.322   4.465   6.641 -1.8316  0.7111 -0.9668
  490MOL0     H66103   7.344   4.618   6.720 -1.0610  0.7071 -0.7378
  490MOL0     H66104   7.278   4.590   6.466  0.4257  2.9534 -0.0334
  490MOL0     H66105   7.435   4.542   6.431  0.6183  1.3446 -0.2388
  490MOL0     H66106   7.462   4.766   6.373  2.4506  2.3712  1.2131
  490MOL0     H66107   7.510   4.776   6.535 -0.8361  1.7015  1.3534
  490MOL0     H66108   7.225   4.834   6.431  0.6052  0.0077 -0.6359
  490MOL0     H66109   7.333   4.957   6.478 -2.3475  0.1805  0.1576
  490MOL0     H66110   7.045   4.892   6.472  1.3909 -0.6246  1.1268
  490MOL0     H66111   6.777   5.049   6.530  0.3085 -0.4750 -0.7488
  490MOL0     H66112   6.821   4.905   6.422 -2.7168  1.1175 -2.0161
  490MOL0     H66113   6.700   4.886   6.537 -1.5435  1.3710  0.4308
  490MOL0     H66114   6.593   4.797   7.129 -1.6427 -0.1112 -0.6916
  490MOL0     H66115   6.381   4.847   7.227 -1.5579  1.0318 -0.1886
  490MOL0     H66116   6.141   5.181   7.028 -0.7912 -0.2163 -0.5842
  490MOL0     H66117   6.031   5.097   7.134  0.9871 -3.0197 -2.3186
  490MOL0     H66118   6.227   5.318   7.207  0.5459 -0.5289  1.7688
  490MOL0     H66119   6.042   5.339   7.191 -2.5067 -1.4665  1.7514
  490MOL0     H66120   6.145   5.322   7.423  0.6131 -0.6558 -0.6547
  490MOL0     H66121   6.164   5.148   7.393 -1.1759 -0.7480 -0.5567
  490MOL0     H66122   5.910   5.302   7.393 -0.3108  0.2372 -0.7906
  490MOL0     H66123   5.921   5.125   7.348  3.0634  0.4086 -0.8791
  490MOL0     H66124   5.989   5.238   7.627 -1.3837 -2.4075  1.5756
  490MOL0     H66125   5.992   5.082   7.583 -0.8031  0.3955 -0.1137
  490MOL0     H66126   5.735   5.254   7.582  0.5355  0.1211  2.8928
  490MOL0     H66127   5.744   5.079   7.528 -1.0938  2.0756 -2.1797
  490MOL0     H66128   5.811   5.192   7.805  0.0698  1.5143 -0.6974
  490MOL0     H66129   5.817   5.014   7.762  0.8333 -0.0503 -0.5654
  490MOL0     H66130   5.590   5.017   7.702  2.7950 -0.9806  1.9446
  490MOL0     H66131   5.556   5.185   7.733  0.8095  1.5368 -1.1806
  490MOL0     H66132   6.372   5.232   7.030 -0.5830 -0.2444  0.0022
  490MOL0     H66133   6.597   5.184   6.933  3.1338 -3.0518 -0.2556
  490MOL0     H66134   6.977   4.928   6.962  1.1588  0.8272 -0.0477
  490MOL0     H66135   7.189   4.871   6.870  2.1484  0.2195 -0.6983
  490MOL0     H66136   8.783   4.208   7.352  0.7732 -0.5913  1.3062
  490MOL0     H66137   8.961   4.357   7.458  1.3794  2.7966  1.9642
  490MOL0     H66138   9.192   4.581   7.524 -1.5955  1.9528  0.2914
  490MOL0     H66139   9.417   4.579   7.560  0.2794 -2.0932  0.0812
  490MOL0     H66140   9.587   4.676   8.005  2.1103  0.5373 -0.1261
  490MOL0     H66141   9.530   4.518   7.960 -1.6531  1.7986  2.3292
  490MOL0     H66142   9.767   4.494   7.996 -0.1917  0.8697  1.7637
  490MOL0     H66143   9.800   4.645   7.918  2.1283 -1.5306 -1.1069
  490MOL0     H66144   9.732   4.530   7.692  0.3927 -0.1834 -0.2528
  490MOL0     H66145   9.717   4.382   7.773 -1.1421  1.2362 -3.4801
  490MOL0     H66146   9.950   4.388   7.847 -1.1950 -1.8259 -1.0164
  490MOL0     H66147   9.970   4.555   7.773 -0.0210  0.8970  0.5390
  490MOL0     H66148   9.984   4.284   7.449  2.5840 -0.0822  1.0706
  490MOL0     H66149   9.343   4.678   7.984 -1.7272  0.9242  1.8731
  490MOL0     H66150   9.107   4.621   7.943  1.7170  0.5499  0.3921
  491MOL0     O66151   1.937   9.643   8.374 -0.6768  0.1383  0.0631
  491MOL0     C66152   1.997   9.596   8.475  0.6072  0.3614 -0.1726
  491MOL0     O66153   1.930   9.549   8.596 -0.7828  0.0620  0.1984
  491MOL0     C66154   1.802   9.595   8.613 -0.1235 -0.0098  0.5045
  491MOL0     C66155   1.693   9.513   8.576  0.4152  0.0263 -0.4150
  491MOL0     C66156   1.560   9.560   8.605  0.3795 -0.2092  0.2079
  491MOL0     C66157   1.538   9.691   8.642  0.8144  0.2962  0.5900
  491MOL0     O66158   1.412   9.740   8.653  0.5876 -0.9543 -0.2280
  491MOL0     C66159   1.308   9.691   8.560 -0.3231  0.5936  0.1761
  491MOL0     C66160   1.323   9.755   8.423  0.1335  0.4521 -0.1006
  491MOL0     C66161   1.195   9.754   8.334  0.2665 -0.2671  1.4366
  491MOL0     C66162   1.193   9.855   8.218  0.2437  0.0927 -0.0836
  491MOL0     C66163   1.088   9.841   8.101  0.0033 -0.3099 -0.3686
  491MOL0     C66164   0.950   9.837   8.157  0.0850  0.2063 -0.2048
  491MOL0     C66165   0.835   9.805   8.070 -0.7614 -0.1207  0.2601
  491MOL0     C66166   0.796   9.927   7.983 -0.4710 -0.0898 -0.4924
  491MOL0     N66167   0.692   9.891   7.886  0.0109 -0.1292  0.2908
  491MOL0     C66168   0.702   9.853   7.759 -0.5687  0.4641  0.5450
  491MOL0     C66169   0.568   9.826   7.718  0.1196 -0.7667 -0.6803
  491MOL0     C66170   0.535   9.791   7.581  0.6737 -1.4093 -0.2080
  491MOL0     C66171   0.482   9.914   7.508 -0.1168 -0.6632 -0.1247
  491MOL0     C66172   0.501   9.899   7.363 -0.3154 -0.2999  0.0526
  491MOL0     C66173   0.395   9.988   7.293 -1.2465 -0.0962 -0.0659
  491MOL0     O66174   0.259   9.943   7.316  0.2441  0.3941  0.6184
  491MOL0     C66175   0.166  10.007   7.240 -0.0769  0.6371 -0.3117
  491MOL0     C66176   0.041   9.943   7.241 -0.6214  0.5576 -1.1844
  491MOL0     C66177  -0.066  10.001   7.169  0.7217  0.5666 -0.2504
  491MOL0     C66178  -0.194   9.929   7.178  0.4309 -0.1382  0.1490
  491MOL0     C66179  -0.054  10.125   7.097  0.3858 -0.4066  1.1035
  491MOL0     C66180  -0.151  10.192   7.009  0.3070  0.5118 -0.0492
  491MOL0     O66181  -0.120  10.317   6.969  0.1926 -0.6172 -0.2068
  491MOL0     C66182  -0.214  10.397   6.902 -0.1329 -0.3137  0.0856
  491MOL0     C66183  -0.351  10.390   6.926  0.4054 -0.8196 -0.2453
  491MOL0     C66184  -0.445  10.467   6.866 -0.8168  0.2517 -0.0709
  491MOL0     C66185  -0.403  10.565   6.776  0.3184  0.4623  1.1884
  491MOL0     O66186  -0.492  10.641   6.710 -0.4041  0.1210  0.4290
  491MOL0     C66187  -0.635  10.617   6.716  0.7299 -0.1807 -0.4767
  491MOL0     C66188  -0.697  10.725   6.623 -0.9658  0.0181 -0.2103
  491MOL0     C66189  -0.850  10.707   6.614  1.0168 -0.0997  0.4055
  491MOL0     C66190  -0.886  10.587   6.527 -0.3992 -0.2525  0.9754
  491MOL0     C66191  -1.035  10.568   6.490  0.3109  0.9714  0.1508
  491MOL0     C66192  -1.118  10.484   6.587 -0.1524  0.4041  0.3651
  491MOL0     C66193  -1.253  10.457   6.532 -0.4157  0.5115 -0.6564
  491MOL0     C66194  -1.330  10.375   6.635  0.1160 -1.5172 -0.3680
  491MOL0    Cl66195  -1.501  10.369   6.577  0.4510  0.1398  0.2779
  491MOL0     C66196  -0.274  10.583   6.747  0.0826  0.1447  0.9990
  491MOL0     C66197  -0.176  10.499   6.810  0.0559 -0.2237  1.0695
  491MOL0     O66198  -0.229  10.114   6.955 -0.1180  0.4255 -0.3107
  491MOL0     C66199   0.077  10.191   7.112  0.0722 -1.1518  0.5289
  491MOL0     C66200   0.179  10.128   7.171  0.1045  0.1770  0.3750
  491MOL0     N66201   0.482   9.859   7.817  0.6360  0.1792  0.1988
  491MOL0     N66202   0.558   9.906   7.907  0.1426  0.2756  0.6081
  491MOL0     C66203   1.641   9.774   8.653 -1.0247 -0.5412  0.3369
  491MOL0     C66204   1.775   9.726   8.640  0.6060 -0.2731 -0.0856
  491MOL0     C66205   2.137   9.574   8.456 -1.8434  0.5756  0.3918
  491MOL0     C66206   2.219   9.631   8.346 -0.1455  0.5156 -0.1374
  491MOL0     C66207   2.355   9.598   8.348  1.0720 -0.1011  0.2008
  491MOL0     C66208   2.413   9.509   8.438 -0.2803 -0.0792  0.2636
  491MOL0     O66209   2.549   9.480   8.440 -0.1587  0.2303 -0.6268
  491MOL0     C66210   2.618   9.482   8.315  0.9375 -0.1115  0.1977
  491MOL0     C66211   2.731   9.588   8.333  0.3961 -0.8541 -0.0265
  491MOL0     C66212   2.686   9.737   8.346  0.6403 -1.0151  0.0065
  491MOL0     C66213   2.793   9.831   8.417 -0.5661  0.2827  1.3135
  491MOL0     C66214   2.906   9.841   8.325  0.6299  0.2521 -0.3305
  491MOL0     C66215   3.009   9.849   8.255 -0.0201  0.3745 -0.8966
  491MOL0     C66216   2.339   9.456   8.542 -0.1531  0.7393  0.0097
  491MOL0     C66217   2.201   9.488   8.547  0.5193 -0.2704  0.7661
  491MOL0     H66218   1.715   9.408   8.557  1.4091  0.3417 -1.0519
  491MOL0     H66219   1.482   9.488   8.581  2.0418 -1.8744 -0.4292
  491MOL0     H66220   1.302   9.582   8.553  1.3219  0.5853 -2.1563
  491MOL0     H66221   1.214   9.724   8.606 -1.9533 -1.9384 -1.0897
  491MOL0     H66222   1.353   9.860   8.430  0.5169  0.2940  0.7270
  491MOL0     H66223   1.401   9.699   8.372  0.5015 -1.6116  2.5355
  491MOL0     H66224   1.186   9.657   8.284 -0.2108  1.4146 -2.0596
  491MOL0     H66225   1.113   9.768   8.405  0.0815 -2.7282  1.8125
  491MOL0     H66226   1.177   9.952   8.267 -1.3568  0.4724 -1.2639
  491MOL0     H66227   1.297   9.846   8.188  0.1231  1.0990 -0.8426
  491MOL0     H66228   1.089   9.922   8.027  2.4489  0.9450  0.9045
  491MOL0     H66229   1.106   9.743   8.055  0.6708 -1.6124  2.4444
  491MOL0     H66230   0.955   9.745   8.216 -0.8298  1.0893  1.3166
  491MOL0     H66231   0.921   9.926   8.214 -0.0100  0.2391 -0.3015
  491MOL0     H66232   0.862   9.714   8.016  0.9945  0.8572 -0.6020
  491MOL0     H66233   0.746   9.781   8.128  0.1908 -0.6486  1.5422
  491MOL0     H66234   0.874   9.970   7.919  1.0278 -2.0129 -0.0687
  491MOL0     H66235   0.760  10.005   8.050  1.2258  1.3413 -1.1592
  491MOL0     H66236   0.787   9.845   7.692  1.0638  3.3238  2.0483
  491MOL0     H66237   0.628   9.757   7.533  1.4360 -2.5631  1.9353
  491MOL0     H66238   0.465   9.707   7.579 -1.8992  0.6092 -0.8401
  491MOL0     H66239   0.521  10.007   7.551  0.3221  0.1149 -2.1056
  491MOL0     H66240   0.379   9.931   7.541 -0.2105 -0.7239 -0.3906
  491MOL0     H66241   0.504   9.796   7.328 -0.7037  0.2292 -1.6028
  491MOL0     H66242   0.598   9.943   7.338  1.5331 -3.2462  1.5801
  491MOL0     H66243   0.411   9.981   7.185 -1.7983 -1.2082 -0.0903
  491MOL0     H66244   0.414  10.093   7.316  1.2671 -0.1613 -1.4800
  491MOL0     H66245   0.023   9.846   7.288 -1.6584  1.6584  0.8148
  491MOL0     H66246  -0.200   9.861   7.263 -0.1199 -0.0936  0.1476
  491MOL0     H66247  -0.279   9.998   7.186  0.0208 -0.7893  1.7221
  491MOL0     H66248  -0.210   9.884   7.080 -0.8264  2.7830 -1.1084
  491MOL0     H66249  -0.384  10.311   6.993 -0.0512  0.2211  0.8099
  491MOL0     H66250  -0.551  10.449   6.885 -1.0914 -1.0208 -2.4021
  491MOL0     H66251  -0.652  10.513   6.686 -0.2192 -0.0348 -0.4674
  491MOL0     H66252  -0.676  10.637   6.816  0.1779  3.9964 -1.3610
  491MOL0     H66253  -0.679  10.828   6.658 -0.0167 -1.0844  2.8801
  491MOL0     H66254  -0.640  10.725   6.530  2.3706 -0.1259  1.6854
  491MOL0     H66255  -0.898  10.797   6.575  2.6975  1.4809  1.8298
  491MOL0     H66256  -0.882  10.688   6.717 -1.9882 -0.9594 -0.5834
  491MOL0     H66257  -0.830  10.601   6.434  3.8414  0.8743  3.4811
  491MOL0     H66258  -0.831  10.494   6.547  2.6644  0.9327 -1.2218
  491MOL0     H66259  -1.033  10.515   6.395 -1.8061 -1.4481  1.3358
  491MOL0     H66260  -1.085  10.664   6.475 -2.1510  0.0504  1.7252
  491MOL0     H66261  -1.060  10.392   6.596  0.2766  0.5746 -0.4614
  491MOL0     H66262  -1.116  10.538   6.682 -0.4354  1.2857 -0.1226
  491MOL0     H66263  -1.255  10.391   6.445 -2.8936 -0.8020  0.2986
  491MOL0     H66264  -1.300  10.553   6.509  0.2132  0.4750 -2.2434
  491MOL0     H66265  -1.322  10.418   6.735  2.1542 -2.6487  0.0072
  491MOL0     H66266  -1.294  10.274   6.656  0.4189 -1.0409  1.5460
  491MOL0     H66267  -0.242  10.663   6.682 -1.8178  1.5208  1.6808
  491MOL0     H66268  -0.069  10.519   6.810 -0.2207  1.5352  2.0777
  491MOL0     H66269   0.102  10.286   7.066 -0.9585 -0.2651  1.7291
  491MOL0     H66270   0.271  10.184   7.186 -0.3604  0.9813  0.2974
  491MOL0     H66271   1.626   9.877   8.684  0.3416 -1.2904  4.0128
  491MOL0     H66272   1.855   9.795   8.666  1.7069 -1.1437 -1.0196
  491MOL0     H66273   2.175   9.710   8.286 -0.9505  0.8508  0.8524
  491MOL0     H66274   2.400   9.654   8.265 -0.5862  0.2343 -0.5039
  491MOL0     H66275   2.675   9.389   8.317  2.2004  0.6558  1.5764
  491MOL0     H66276   2.564   9.487   8.220  2.3657 -0.4655 -0.6643
  491MOL0     H66277   2.810   9.573   8.259  0.3976  0.9663 -0.4452
  491MOL0     H66278   2.787   9.568   8.426 -0.6351  0.7106  0.9749
  491MOL0     H66279   2.598   9.746   8.410  1.3850  0.6080  0.8715
  491MOL0     H66280   2.656   9.779   8.249 -1.0182 -0.9928  0.4871
  491MOL0     H66281   2.810   9.805   8.522  0.1741 -0.9516  0.9132
  491MOL0     H66282   2.741   9.927   8.418 -1.0210  0.0840 -0.0884
  491MOL0     H66283   3.093   9.856   8.189  2.0848 -0.7340  1.5094
  491MOL0     H66284   2.396   9.400   8.616  0.7723  1.0909 -0.4272
  491MOL0     H66285   2.145   9.455   8.633  2.2973 -1.7938  1.3904
  492MOL0     O66286   5.513   0.318   3.237 -0.4076 -0.1487 -0.1968
  492MOL0     C66287   5.539   0.196   3.234  0.1218  0.2625 -0.5422
  492MOL0     O66288   5.443   0.094   3.239 -0.2569 -0.6738 -0.1438
  492MOL0     C66289   5.315   0.122   3.296  0.1632 -0.0448  0.9697
  492MOL0     C66290   5.204   0.045   3.239 -1.3595 -0.5994  0.8573
  492MOL0     C66291   5.088   0.040   3.306  0.4954  0.4555 -1.1348
  492MOL0     C66292   5.055   0.119   3.414  0.0565 -0.2149  0.4062
  492MOL0     O66293   4.939   0.115   3.470  0.1725 -0.0786 -0.6778
  492MOL0     C66294   4.827   0.167   3.398 -0.3829 -0.5539  0.3830
  492MOL0     C66295   4.706   0.120   3.474  0.3478  0.5374 -1.5298
  492MOL0     C66296   4.578   0.152   3.405  0.6556 -0.3773  0.2147
  492MOL0     C66297   4.467   0.119   3.503  0.5192 -0.4145  0.1504
  492MOL0     C66298   4.325   0.161   3.449 -0.4791  0.3532 -0.2102
  492MOL0     C66299   4.200   0.142   3.541 -1.0137 -1.1569  0.3537
  492MOL0     C66300   4.067   0.155   3.464 -0.4348  0.7053 -0.0656
  492MOL0     C66301   3.944   0.116   3.556 -0.0096 -0.0521  0.1667
  492MOL0     N66302   3.811   0.130   3.479 -0.3748 -0.3119  0.6677
  492MOL0     C66303   3.692   0.070   3.506 -0.0628 -0.4339  0.0865
  492MOL0     C66304   3.598   0.126   3.424 -0.7450  0.4026 -0.1895
  492MOL0     C66305   3.447   0.092   3.390 -0.7256  1.2018 -1.0460
  492MOL0     C66306   3.360   0.067   3.511  0.3232 -0.0318  0.5608
  492MOL0     C66307   3.222   0.021   3.456 -0.1899  0.2821 -0.4784
  492MOL0     C66308   3.132   0.001   3.569 -0.1780 -0.3352 -0.1242
  492MOL0     O66309   3.020  -0.079   3.542  0.0976  0.2021 -0.2423
  492MOL0     C66310   2.921  -0.047   3.460 -0.0228  0.1110 -0.5720
  492MOL0     C66311   2.866   0.084   3.473 -0.7635 -0.4399 -0.3319
  492MOL0     C66312   2.757   0.120   3.393 -0.5421  0.9093 -0.5875
  492MOL0     C66313   2.702   0.267   3.409 -0.0508 -0.1296 -0.6205
  492MOL0     C66314   2.694   0.020   3.303  0.5658 -0.4867 -0.7828
  492MOL0     C66315   2.587   0.055   3.214 -0.6446 -0.2178  0.2849
  492MOL0     O66316   2.550  -0.050   3.139  0.8057 -0.2346 -0.1043
  492MOL0     C66317   2.441  -0.040   3.052 -0.1318 -0.6069  0.2928
  492MOL0     C66318   2.453  -0.121   2.929  0.1751 -1.0280 -1.1375
  492MOL0     C66319   2.354  -0.124   2.835 -0.3438 -0.0169  0.6639
  492MOL0     C66320   2.239  -0.050   2.862 -0.0442  0.2931  0.2400
  492MOL0     O66321   2.123  -0.053   2.777 -0.2319 -0.0491 -0.2907
  492MOL0     C66322   2.103  -0.155   2.675  0.3553 -0.5778  0.3575
  492MOL0     C66323   2.074  -0.288   2.742  0.5687  0.2044 -0.3539
  492MOL0     C66324   1.952  -0.293   2.829 -0.7232 -0.2559  0.1116
  492MOL0     C66325   1.821  -0.273   2.754 -0.5703  0.1024 -0.8555
  492MOL0     C66326   1.705  -0.272   2.854  0.6337  0.4920  0.1720
  492MOL0     C66327   1.585  -0.211   2.791  0.0723 -0.1895  0.2421
  492MOL0     C66328   1.453  -0.254   2.840 -0.6955  0.2065 -0.8669
  492MOL0     C66329   1.330  -0.179   2.784  0.2299 -0.1522 -0.3452
  492MOL0    Cl66330   1.184  -0.251   2.848  0.3224  0.6496 -0.1241
  492MOL0     C66331   2.224   0.021   2.978 -0.8041 -0.3011  0.7480
  492MOL0     C66332   2.320   0.027   3.081  0.2566  1.7297  0.1973
  492MOL0     O66333   2.525   0.159   3.223  0.1728  0.3781  0.8274
  492MOL0     C66334   2.746  -0.111   3.308 -0.1163  0.1918 -0.7446
  492MOL0     C66335   2.860  -0.144   3.381  0.0266 -0.1405  0.5328
  492MOL0     N66336   3.665   0.222   3.345 -1.0427 -0.3333 -0.2489
  492MOL0     N66337   3.790   0.218   3.376  0.2771  0.6718  0.1843
  492MOL0     C66338   5.158   0.201   3.461 -0.2650  0.1088 -0.0254
  492MOL0     C66339   5.289   0.195   3.409 -0.5207  0.3745  0.1170
  492MOL0     C66340   5.683   0.157   3.194  0.9161 -0.1157 -0.0985
  492MOL0     C66341   5.767   0.252   3.148 -0.1017  0.6447 -0.5023
  492MOL0     C66342   5.896   0.218   3.112 -0.1471  0.3202 -0.9153
  492MOL0     C66343   5.941   0.081   3.099 -0.1857 -0.4147 -0.1844
  492MOL0     O66344   6.053   0.034   3.036  0.3232 -0.0620 -1.2560
  492MOL0     C66345   6.123   0.137   2.965  0.3441 -0.0974  0.3589
  492MOL0     C66346   6.215   0.056   2.872 -0.0112  0.5188  0.0188
  492MOL0     C66347   6.313   0.136   2.785  0.3650 -0.1126 -0.1833
  492MOL0     C66348   6.433   0.170   2.859 -0.1731 -0.5767 -0.6917
  492MOL0     C66349   6.542   0.189   2.756  0.1463  0.0773 -0.2160
  492MOL0     C66350   6.645   0.201   2.687  0.1839  0.7838  1.1998
  492MOL0     C66351   5.858  -0.019   3.151  0.4462 -0.1299  0.1177
  492MOL0     C66352   5.735   0.024   3.200  0.5106  0.9121  0.2912
  492MOL0     H66353   5.208  -0.008   3.144 -1.2794  3.1894 -1.4618
  492MOL0     H66354   5.008  -0.021   3.266  1.9364 -3.2624  1.1115
  492MOL0     H66355   4.836   0.276   3.403 -1.6902 -0.4903  3.0543
  492MOL0     H66356   4.825   0.122   3.298 -4.1129 -2.0384  0.9691
  492MOL0     H66357   4.700   0.011   3.488 -0.5079  0.6772 -0.6897
  492MOL0     H66358   4.696   0.172   3.570 -0.4695 -1.3912 -0.5062
  492MOL0     H66359   4.577   0.256   3.371  4.1058  0.0647  1.0488
  492MOL0     H66360   4.547   0.086   3.324 -2.2807  0.3903  0.5852
  492MOL0     H66361   4.456   0.015   3.537 -1.0283 -0.5608 -0.6818
  492MOL0     H66362   4.493   0.176   3.592  1.7324 -0.6103 -0.0669
  492MOL0     H66363   4.334   0.267   3.422  4.2477  0.4926  0.9875
  492MOL0     H66364   4.309   0.103   3.358  4.4638  2.4334 -2.8154
  492MOL0     H66365   4.195   0.045   3.592 -0.7183 -0.2236  2.1988
  492MOL0     H66366   4.203   0.221   3.616 -1.6034 -1.2897  0.5248
  492MOL0     H66367   4.062   0.259   3.429 -0.1623  0.7538  0.0404
  492MOL0     H66368   4.065   0.098   3.371 -3.4599 -0.6936  0.7264
  492MOL0     H66369   3.924   0.181   3.641 -2.1366 -2.9955  2.1111
  492MOL0     H66370   3.953   0.016   3.598 -0.9551 -0.6653 -1.0367
  492MOL0     H66371   3.691  -0.011   3.579 -0.3488  0.7214  1.4157
  492MOL0     H66372   3.396   0.170   3.332 -3.2764 -0.1881 -0.8138
  492MOL0     H66373   3.444  -0.001   3.332  0.4640  1.0403 -0.8794
  492MOL0     H66374   3.349   0.159   3.570  1.8484  1.1344 -0.8908
  492MOL0     H66375   3.407   0.005   3.588 -1.2341  1.4003  2.8079
  492MOL0     H66376   3.242  -0.079   3.416 -1.3727  0.1131 -0.6875
  492MOL0     H66377   3.169   0.088   3.388 -2.2872  0.1480  0.9365
  492MOL0     H66378   3.094   0.095   3.610  0.8766  0.3207 -0.5910
  492MOL0     H66379   3.191  -0.058   3.639  0.1806  0.0539 -0.0931
  492MOL0     H66380   2.910   0.151   3.545 -0.0127 -1.7194  0.4483
  492MOL0     H66381   2.673   0.313   3.315  1.5961  1.2587 -0.5024
  492MOL0     H66382   2.617   0.272   3.478 -0.9152  0.0673 -1.6707
  492MOL0     H66383   2.773   0.331   3.461 -2.4158  0.5218  2.0693
  492MOL0     H66384   2.541  -0.182   2.910  1.6370  0.5157  0.3193
  492MOL0     H66385   2.369  -0.183   2.746 -1.5681 -0.9418  1.0550
  492MOL0     H66386   2.024  -0.124   2.606  2.4715  2.2482 -1.0252
  492MOL0     H66387   2.190  -0.168   2.610 -0.3044 -3.0001 -0.1024
  492MOL0     H66388   2.060  -0.349   2.652  2.7424  1.1713 -1.4126
  492MOL0     H66389   2.163  -0.320   2.797  0.8059  0.5076 -0.5628
  492MOL0     H66390   1.958  -0.234   2.921  2.3965 -1.5395  0.8789
  492MOL0     H66391   1.943  -0.395   2.867 -2.0831 -0.0370  0.4103
  492MOL0     H66392   1.825  -0.180   2.696 -1.0676  1.4553  1.2126
  492MOL0     H66393   1.805  -0.356   2.684 -0.6556 -0.3658 -0.2810
  492MOL0     H66394   1.727  -0.212   2.942 -2.8707 -1.4851  2.6554
  492MOL0     H66395   1.679  -0.370   2.895 -1.0431  0.0396 -1.7859
  492MOL0     H66396   1.586  -0.101   2.793  2.4949 -0.0718 -2.0040
  492MOL0     H66397   1.592  -0.236   2.685  1.9476 -2.9750  0.9087
  492MOL0     H66398   1.452  -0.244   2.949 -1.9984 -2.1400 -0.5785
  492MOL0     H66399   1.440  -0.361   2.820 -0.2820  0.1617 -0.8904
  492MOL0     H66400   1.323  -0.195   2.676  0.5349  2.4287 -0.8134
  492MOL0     H66401   1.335  -0.072   2.804 -2.7300 -0.1131  0.7642
  492MOL0     H66402   2.134   0.080   2.987 -0.4351  1.1304 -2.9645
  492MOL0     H66403   2.300   0.078   3.175 -3.4161 -1.5870  1.4982
  492MOL0     H66404   2.689  -0.183   3.250 -1.0369  1.6813 -1.7429
  492MOL0     H66405   2.904  -0.244   3.384  1.5711  0.5197  2.9371
  492MOL0     H66406   5.129   0.259   3.548 -3.1195  0.3297 -1.0368
  492MOL0     H66407   5.370   0.247   3.459 -1.3027 -1.0157  3.0343
  492MOL0     H66408   5.739   0.357   3.149 -1.4677  0.3365  1.5869
  492MOL0     H66409   5.968   0.298   3.099  0.8309 -0.4573 -0.4599
  492MOL0     H66410   6.067   0.209   2.905  1.2397  0.5876  0.3153
  492MOL0     H66411   6.188   0.194   3.032  0.8803 -0.2211 -0.0497
  492MOL0     H66412   6.149  -0.004   2.808 -2.0594  3.1330 -0.4917
  492MOL0     H66413   6.265  -0.014   2.940 -1.4553  0.6740  1.3008
  492MOL0     H66414   6.267   0.214   2.724  0.6671  0.0849 -0.1601
  492MOL0     H66415   6.334   0.058   2.710 -0.9584  0.3619 -1.0892
  492MOL0     H66416   6.464   0.099   2.936  2.9489  1.0331 -0.2940
  492MOL0     H66417   6.415   0.259   2.920  0.6168  0.8651 -2.4367
  492MOL0     H66418   6.735   0.204   2.629 -0.5987  3.8422 -0.0740
  492MOL0     H66419   5.870  -0.126   3.138  0.7857 -0.4040  2.2604
  492MOL0     H66420   5.671  -0.052   3.244 -0.9913  1.5275 -0.7272
  493MOL0     O66421   8.721   8.256  10.761  0.3772 -0.3820  0.6593
  493MOL0     C66422   8.738   8.160  10.840  0.3457 -1.1121  0.6108
  493MOL0     O66423   8.850   8.087  10.860 -0.4853  0.2296 -0.9739
  493MOL0     C66424   8.953   8.122  10.774  0.6946  0.2231 -0.7255
  493MOL0     C66425   9.022   8.240  10.798  0.2555  0.9070  0.9623
  493MOL0     C66426   9.113   8.288  10.695  0.1504  1.1240 -0.0241
  493MOL0     C66427   9.142   8.212  10.577 -1.0130 -0.6199 -0.2969
  493MOL0     O66428   9.234   8.255  10.487  0.4105  0.3433  0.4911
  493MOL0     C66429   9.276   8.166  10.382 -0.2339 -0.0815 -0.0314
  493MOL0     C66430   9.391   8.236  10.319 -0.0510 -0.0028 -0.3013
  493MOL0     C66431   9.458   8.152  10.210 -0.3437  0.1155 -0.1179
  493MOL0     C66432   9.595   8.206  10.151  0.5786 -0.5095 -0.8414
  493MOL0     C66433   9.575   8.343  10.089 -0.6009 -0.3836 -0.0016
  493MOL0     C66434   9.489   8.347   9.953  1.0503 -0.3763  0.2190
  493MOL0     C66435   9.570   8.301   9.839  0.2792  0.7254  1.1041
  493MOL0     C66436   9.490   8.237   9.723  0.0267 -0.6329 -0.1617
  493MOL0     N66437   9.450   8.100   9.766  0.1895  0.0979  0.2702
  493MOL0     C66438   9.338   8.072   9.839  0.7376 -0.4519  0.7885
  493MOL0     C66439   9.327   7.941   9.817  0.7034 -0.0039 -0.1801
  493MOL0     C66440   9.211   7.873   9.873 -0.2066 -0.0920  0.4421
  493MOL0     C66441   9.235   7.850  10.025 -0.3324 -0.3589  0.2485
  493MOL0     C66442   9.173   7.723  10.063  0.3693  0.8484 -0.5703
  493MOL0     C66443   9.146   7.715  10.215 -0.1059 -0.1276 -0.1638
  493MOL0     O66444   9.048   7.808  10.246 -0.2541  0.0798 -0.0237
  493MOL0     C66445   8.958   7.784  10.349 -0.8044  0.2475 -0.7894
  493MOL0     C66446   8.977   7.715  10.463  0.5282  0.4394 -0.6097
  493MOL0     C66447   8.877   7.696  10.560  0.1915  0.1099 -0.3498
  493MOL0     C66448   8.908   7.615  10.680 -0.4815  0.5903  0.0163
  493MOL0     C66449   8.747   7.756  10.536 -0.0030  0.4177  0.1540
  493MOL0     C66450   8.625   7.761  10.630 -0.5186 -0.4830  0.6695
  493MOL0     O66451   8.632   7.715  10.756  0.3327  0.3743  0.5356
  493MOL0     C66452   8.522   7.685  10.834 -0.0416  0.5750 -0.7367
  493MOL0     C66453   8.506   7.556  10.877  0.3900 -0.4492 -0.6900
  493MOL0     C66454   8.378   7.519  10.939  0.5046 -0.6193 -0.0604
  493MOL0     C66455   8.275   7.608  10.952  0.1005  0.4696  0.9402
  493MOL0     O66456   8.158   7.561  11.004 -0.1266 -0.0027  0.0328
  493MOL0     C66457   8.045   7.645  10.992  0.1982  0.1989 -0.4741
  493MOL0     C66458   7.927   7.577  11.057 -0.1168 -0.7025 -0.2873
  493MOL0     C66459   7.806   7.660  11.029  0.7368 -0.5896  0.2857
  493MOL0     C66460   7.667   7.585  11.018  0.1109 -0.1546  0.5329
  493MOL0     C66461   7.617   7.548  11.163  0.1946  0.4786  0.3403
  493MOL0     C66462   7.470   7.495  11.183 -0.1734 -0.5571 -0.7323
  493MOL0     C66463   7.435   7.504  11.335 -0.4349 -0.1282  0.4991
  493MOL0     C66464   7.302   7.438  11.378  0.3250 -0.3544  0.3458
  493MOL0    Cl66465   7.178   7.502  11.269 -0.1679 -0.2064  0.1084
  493MOL0     C66466   8.283   7.730  10.893  0.1651 -0.9225  0.1083
  493MOL0     C66467   8.413   7.776  10.844  0.5006 -0.4957  0.4339
  493MOL0     O66468   8.515   7.796  10.581 -0.1700 -0.0691  0.0261
  493MOL0     C66469   8.728   7.821  10.413 -0.4962 -0.1131 -0.2768
  493MOL0     C66470   8.833   7.844  10.326  0.0710  0.1019 -0.0867
  493MOL0     N66471   9.419   7.893   9.726  1.0243 -0.4399 -0.8687
  493MOL0     N66472   9.501   7.988   9.703  1.0308 -0.9760 -0.2525
  493MOL0     C66473   9.073   8.088  10.564  0.0423 -0.0572  0.1680
  493MOL0     C66474   8.978   8.046  10.660  0.3787 -0.4507  0.4792
  493MOL0     C66475   8.624   8.120  10.930 -0.3528 -0.4910 -0.0199
  493MOL0     C66476   8.635   7.999  11.002  0.5497  1.0682  0.2164
  493MOL0     C66477   8.537   7.967  11.100  0.7603 -0.0824  0.1146
  493MOL0     C66478   8.427   8.049  11.120  0.2788  0.5175  0.5647
  493MOL0     O66479   8.330   8.024  11.210 -0.0377 -0.7434 -0.3085
  493MOL0     C66480   8.333   7.910  11.294 -1.0528  0.8863 -0.5560
  493MOL0     C66481   8.200   7.890  11.352 -0.1078 -0.1741 -0.1126
  493MOL0     C66482   8.210   7.805  11.480  0.1311 -0.8720  0.1118
  493MOL0     C66483   8.103   7.694  11.487 -0.7638 -0.2345  0.4894
  493MOL0     C66484   7.966   7.743  11.476  0.6041 -0.5600  0.4612
  493MOL0     C66485   7.851   7.790  11.462 -0.3363  0.5763  0.2428
  493MOL0     C66486   8.408   8.157  11.035  0.5395 -0.1054 -0.0737
  493MOL0     C66487   8.512   8.199  10.941 -0.5063 -0.4636 -0.4076
  493MOL0     H66488   8.994   8.301  10.883 -1.7619 -0.9334  1.6864
  493MOL0     H66489   9.158   8.382  10.722 -1.5529  1.7109  0.9386
  493MOL0     H66490   9.314   8.072  10.423 -1.6697 -0.4706  0.4656
  493MOL0     H66491   9.202   8.153  10.302  1.4694 -1.2893 -1.4914
  493MOL0     H66492   9.342   8.325  10.276 -0.6393 -0.4183 -0.5075
  493MOL0     H66493   9.468   8.271  10.389  0.6026 -3.6476  1.0294
  493MOL0     H66494   9.493   8.061  10.260  1.3325 -0.6247 -2.4188
  493MOL0     H66495   9.385   8.131  10.131 -0.4973 -0.0777  0.0759
  493MOL0     H66496   9.655   8.216  10.243 -0.3890 -2.1147 -0.0046
  493MOL0     H66497   9.645   8.138  10.082 -1.5195 -2.5523 -0.4411
  493MOL0     H66498   9.530   8.414  10.159  1.0090 -1.5801  2.3864
  493MOL0     H66499   9.676   8.372  10.058 -0.9931  1.3046  0.2039
  493MOL0     H66500   9.406   8.279   9.972  2.1723 -1.8344  0.0834
  493MOL0     H66501   9.444   8.444   9.929  0.7647 -0.6581 -0.3948
  493MOL0     H66502   9.631   8.383   9.802 -1.3289  0.3867 -2.8368
  493MOL0     H66503   9.644   8.228   9.871 -0.2719  0.0131  0.7736
  493MOL0     H66504   9.551   8.234   9.632  0.8725 -3.6061  0.3879
  493MOL0     H66505   9.406   8.303   9.696 -1.6212 -1.9670  1.4279
  493MOL0     H66506   9.275   8.137   9.898  2.2816  1.5009  0.3862
  493MOL0     H66507   9.125   7.938   9.852  1.3890  1.7159 -0.8113
  493MOL0     H66508   9.209   7.779   9.816 -2.2063  1.4907 -2.3565
  493MOL0     H66509   9.188   7.933  10.080 -0.3960  0.7776 -1.4256
  493MOL0     H66510   9.341   7.854  10.052  0.2678  0.9999 -2.0181
  493MOL0     H66511   9.245   7.645  10.039  0.9176  0.4409  2.1170
  493MOL0     H66512   9.080   7.712  10.006 -0.6590  0.5761  1.0949
  493MOL0     H66513   9.237   7.739  10.271 -1.1454  0.1946  1.4374
  493MOL0     H66514   9.112   7.615  10.243  0.3266 -0.1181  0.4276
  493MOL0     H66515   9.077   7.676  10.482  0.5657  1.0244  0.5098
  493MOL0     H66516   8.897   7.679  10.768  1.0184 -0.5996  1.1280
  493MOL0     H66517   8.839   7.534  10.703  0.9105 -0.9317 -0.9231
  493MOL0     H66518   9.012   7.583  10.669  0.0804  2.4698 -0.5427
  493MOL0     H66519   8.587   7.489  10.850 -1.1360 -2.7678  0.0754
  493MOL0     H66520   8.366   7.417  10.976 -0.7591 -0.5554 -0.2756
  493MOL0     H66521   8.059   7.744  11.035  2.4717 -0.2803  0.0197
  493MOL0     H66522   8.035   7.653  10.883  0.9999  0.6620 -0.5163
  493MOL0     H66523   7.910   7.479  11.010  0.0499  0.1645 -2.2455
  493MOL0     H66524   7.939   7.565  11.165  0.0511 -0.4060 -0.2743
  493MOL0     H66525   7.828   7.732  10.950  1.0049  3.1155  3.4501
  493MOL0     H66526   7.795   7.733  11.110 -0.5332  1.4992 -1.6592
  493MOL0     H66527   7.592   7.657  10.984  0.0796  0.4917  1.9007
  493MOL0     H66528   7.677   7.496  10.955 -0.4024  0.5907 -0.6352
  493MOL0     H66529   7.626   7.642  11.217  1.7121  0.1133  0.7616
  493MOL0     H66530   7.680   7.473  11.212 -2.1891 -0.4551  2.2161
  493MOL0     H66531   7.390   7.550  11.132  0.2785  0.2780 -0.5565
  493MOL0     H66532   7.478   7.389  11.159  3.9170 -1.3841  2.9740
  493MOL0     H66533   7.434   7.612  11.355  1.4634 -0.2569  1.4890
  493MOL0     H66534   7.510   7.453  11.396  0.2739 -0.2572 -0.4560
  493MOL0     H66535   7.282   7.443  11.485  1.2773  3.0765  0.4785
  493MOL0     H66536   7.317   7.332  11.354  1.9699  0.4062 -2.4502
  493MOL0     H66537   8.205   7.805  10.886  1.9944  1.0163 -0.8578
  493MOL0     H66538   8.421   7.880  10.817 -0.7160 -0.5272 -0.1365
  493MOL0     H66539   8.628   7.855  10.386 -0.9276  1.4328  2.7593
  493MOL0     H66540   8.822   7.896  10.232  1.2469 -0.0487 -0.3184
  493MOL0     H66541   9.087   8.041  10.467 -1.9301  4.1565 -2.4265
  493MOL0     H66542   8.923   7.953  10.646  0.3294 -0.5362  1.2248
  493MOL0     H66543   8.710   7.923  10.985 -0.4600  0.0978  0.0075
  493MOL0     H66544   8.539   7.865  11.137  3.1653 -0.8619 -1.8585
  493MOL0     H66545   8.347   7.818  11.237 -2.5862 -0.5482  1.2448
  493MOL0     H66546   8.406   7.920  11.376 -1.4958  0.1674 -0.0627
  493MOL0     H66547   8.140   7.832  11.281 -1.4549  0.9867  0.0459
  493MOL0     H66548   8.149   7.986  11.361  0.6449  0.2858 -0.5790
  493MOL0     H66549   8.197   7.891  11.546  2.5773  3.8681 -4.7584
  493MOL0     H66550   8.311   7.769  11.501  1.7390  2.9736 -0.0298
  493MOL0     H66551   8.105   7.656  11.589 -4.2282  1.6921  1.4063
  493MOL0     H66552   8.111   7.615  11.412 -0.8793  0.1892  0.0244
  493MOL0     H66553   7.755   7.835  11.448 -0.8471 -1.0224 -2.0601
  493MOL0     H66554   8.318   8.215  11.052 -1.3442 -1.6609 -3.6879
  493MOL0     H66555   8.505   8.294  10.891 -0.9802 -0.5933 -0.5906
  494MOL0     O66556   6.913   1.768   5.194 -0.4526 -0.7096 -0.0030
  494MOL0     C66557   6.938   1.887   5.215  0.9903  0.2533  0.0164
  494MOL0     O66558   6.847   1.990   5.198  0.5466 -0.0788 -0.0037
  494MOL0     C66559   6.717   1.981   5.172  0.6556 -0.4563  0.2730
  494MOL0     C66560   6.657   2.096   5.122 -0.1287 -0.5632 -1.0947
  494MOL0     C66561   6.516   2.102   5.116  0.1870  0.1730  0.4655
  494MOL0     C66562   6.435   1.997   5.138 -0.5505  0.1686 -0.0709
  494MOL0     O66563   6.307   2.015   5.099 -0.0784  0.2372 -1.0377
  494MOL0     C66564   6.205   1.919   5.133  1.0707 -0.7099  0.3358
  494MOL0     C66565   6.062   1.949   5.088  0.8354  0.2932  0.3165
  494MOL0     C66566   6.021   2.093   5.120  0.0732  0.6045 -0.6572
  494MOL0     C66567   5.886   2.144   5.063 -0.1783 -0.6385 -0.1969
  494MOL0     C66568   5.874   2.166   4.915 -0.4001  0.4167  0.4393
  494MOL0     C66569   5.730   2.197   4.868 -0.2065  0.7865  0.6071
  494MOL0     C66570   5.631   2.082   4.905 -0.7434  0.0676  0.3617
  494MOL0     C66571   5.503   2.071   4.807 -0.4052  0.2721 -0.4513
  494MOL0     N66572   5.434   1.944   4.812 -0.4035  0.4699 -0.4686
  494MOL0     C66573   5.311   1.931   4.865 -0.0632 -0.9678 -0.1723
  494MOL0     C66574   5.291   1.790   4.874 -0.1860 -0.2905  1.1425
  494MOL0     C66575   5.159   1.734   4.909  0.4052 -0.2376 -0.6610
  494MOL0     C66576   5.068   1.699   4.793  0.4782  0.2319 -0.1286
  494MOL0     C66577   4.943   1.620   4.833 -0.0113  0.7822  0.2867
  494MOL0     C66578   4.839   1.703   4.911 -0.2540 -0.6538  0.3279
  494MOL0     O66579   4.781   1.801   4.825 -0.8232 -0.0569 -0.1928
  494MOL0     C66580   4.674   1.857   4.883  0.7492 -0.4693 -0.1399
  494MOL0     C66581   4.696   1.955   4.983  0.3373  0.5781  0.2482
  494MOL0     C66582   4.592   2.033   5.025 -0.6830 -0.4287 -0.6509
  494MOL0     C66583   4.624   2.129   5.133  0.5770 -0.6903  0.2840
  494MOL0     C66584   4.458   2.022   4.972  0.0229 -0.0324 -0.2610
  494MOL0     C66585   4.345   2.109   5.028  0.2247 -0.4042 -0.3559
  494MOL0     O66586   4.216   2.062   5.015  0.2565 -0.0620  0.0885
  494MOL0     C66587   4.126   2.142   5.087  0.9691 -0.2809 -0.1491
  494MOL0     C66588   4.083   2.113   5.219 -0.0827  0.1003 -0.1015
  494MOL0     C66589   3.988   2.191   5.289  0.5259 -0.1482  0.9809
  494MOL0     C66590   3.919   2.288   5.212 -0.0450 -0.3542  0.3952
  494MOL0     O66591   3.814   2.363   5.272  0.0107  0.2317  0.9292
  494MOL0     C66592   3.726   2.288   5.355  0.5748  0.2645  0.6727
  494MOL0     C66593   3.588   2.268   5.288  0.0032 -0.6565  0.6882
  494MOL0     C66594   3.519   2.403   5.274 -0.4382  0.0883  1.0456
  494MOL0     C66595   3.391   2.393   5.181  1.0115  0.6382 -0.2026
  494MOL0     C66596   3.427   2.347   5.037 -0.0726  0.3722  0.0490
  494MOL0     C66597   3.294   2.322   4.956  0.3093  0.3209  0.0943
  494MOL0     C66598   3.319   2.279   4.802  0.5772  0.1063 -0.2184
  494MOL0     C66599   3.193   2.266   4.717  0.6285 -0.2831 -0.1891
  494MOL0    Cl66600   3.084   2.412   4.743 -0.0374  0.0369 -0.6077
  494MOL0     C66601   3.961   2.319   5.082  0.0645 -0.5510  0.2166
  494MOL0     C66602   4.066   2.244   5.023 -0.6497  0.7171  0.3047
  494MOL0     O66603   4.368   2.213   5.074  0.2229 -0.2053 -0.1330
  494MOL0     C66604   4.433   1.931   4.872 -0.2013  0.7537 -0.8924
  494MOL0     C66605   4.543   1.847   4.834  0.3923  0.0657  0.1109
  494MOL0     N66606   5.403   1.720   4.825  0.9828  0.4140  0.4541
  494MOL0     N66607   5.485   1.821   4.788  0.3491  0.7116 -0.3122
  494MOL0     C66608   6.497   1.876   5.192  0.2246 -0.1734 -0.7971
  494MOL0     C66609   6.635   1.869   5.210 -0.1156 -0.4390  1.0311
  494MOL0     C66610   7.072   1.923   5.268 -0.0779  0.5412 -0.5977
  494MOL0     C66611   7.112   2.056   5.296  0.1610 -0.4198  0.1346
  494MOL0     C66612   7.240   2.074   5.346 -0.1594  0.0847 -0.0969
  494MOL0     C66613   7.329   1.970   5.374  1.0852 -0.1609 -0.3106
  494MOL0     O66614   7.444   2.000   5.437 -0.6117  0.0157  0.6533
  494MOL0     C66615   7.562   1.948   5.369  0.4693 -0.0666 -0.0428
  494MOL0     C66616   7.678   2.038   5.352  0.0251 -0.1755  0.3861
  494MOL0     C66617   7.644   2.183   5.319 -0.1460  0.2294  0.3239
  494MOL0     C66618   7.600   2.186   5.167 -0.0627 -0.0281  0.5082
  494MOL0     C66619   7.707   2.131   5.077  0.0898 -0.6261 -0.6621
  494MOL0     C66620   7.790   2.089   4.998  0.5017  0.4829  0.1238
  494MOL0     C66621   7.292   1.847   5.334 -0.3008  0.0858 -0.8673
  494MOL0     C66622   7.167   1.819   5.286  0.1221  0.6205  0.4937
  494MOL0     H66623   6.714   2.184   5.093 -2.6978  1.5540 -0.1465
  494MOL0     H66624   6.462   2.179   5.062 -0.7143 -1.9186 -1.8209
  494MOL0     H66625   6.224   1.811   5.129  1.1469 -0.7124  0.7381
  494MOL0     H66626   6.198   1.934   5.241 -0.1702  1.2121  0.0515
  494MOL0     H66627   6.054   1.932   4.980  2.2852 -1.3195  0.4208
  494MOL0     H66628   5.981   1.892   5.134  1.1894 -0.2185  0.3115
  494MOL0     H66629   6.021   2.098   5.230  0.4339  0.3537 -0.6448
  494MOL0     H66630   6.102   2.161   5.091  1.3017 -0.7570 -0.5492
  494MOL0     H66631   5.816   2.068   5.098  1.4663 -1.5047  1.3974
  494MOL0     H66632   5.854   2.233   5.117  2.0711 -0.6451  1.2777
  494MOL0     H66633   5.940   2.244   4.877  0.8793 -2.1223 -3.1347
  494MOL0     H66634   5.910   2.081   4.856  1.0352 -0.1892  2.1178
  494MOL0     H66635   5.690   2.290   4.910 -0.5035  0.5915  0.7585
  494MOL0     H66636   5.735   2.196   4.759 -1.0888  0.4567  0.5656
  494MOL0     H66637   5.681   1.986   4.899 -0.5060  0.2242 -0.1743
  494MOL0     H66638   5.591   2.087   5.007  0.1521 -3.8414  1.0360
  494MOL0     H66639   5.539   2.087   4.705  0.2889  0.0639 -0.2435
  494MOL0     H66640   5.435   2.153   4.834 -0.4721  0.1792 -0.3346
  494MOL0     H66641   5.237   2.002   4.901 -2.1389 -3.4797  0.8595
  494MOL0     H66642   5.175   1.636   4.954  0.1451 -0.2881 -0.6784
  494MOL0     H66643   5.101   1.800   4.974 -1.6669 -1.5879 -1.0368
  494MOL0     H66644   5.126   1.641   4.722 -1.2363  0.2894 -1.6561
  494MOL0     H66645   5.041   1.791   4.739  1.9190 -0.4794 -2.1410
  494MOL0     H66646   4.963   1.527   4.886  0.1201  0.3909 -0.4414
  494MOL0     H66647   4.889   1.588   4.744  0.1802 -2.6685  1.2802
  494MOL0     H66648   4.880   1.761   4.994 -2.0775  2.0311 -0.4938
  494MOL0     H66649   4.759   1.640   4.950  0.8785 -1.0604  2.0885
  494MOL0     H66650   4.801   1.969   5.006  0.6469  0.5169 -1.0378
  494MOL0     H66651   4.562   2.129   5.223 -0.8250  0.0405 -0.6411
  494MOL0     H66652   4.725   2.116   5.172  0.6979  1.1007  0.6709
  494MOL0     H66653   4.625   2.230   5.090 -2.0284 -1.0241 -0.7686
  494MOL0     H66654   4.143   2.034   5.262 -2.0192 -0.1596  2.3639
  494MOL0     H66655   3.967   2.168   5.393 -0.4107 -2.3917  0.3680
  494MOL0     H66656   3.751   2.184   5.378  1.8234 -0.0243 -1.7137
  494MOL0     H66657   3.728   2.342   5.451  0.5097 -0.5394  1.1334
  494MOL0     H66658   3.611   2.211   5.198 -1.1607 -0.1671  0.0616
  494MOL0     H66659   3.519   2.199   5.338  0.4175 -2.3705 -0.9697
  494MOL0     H66660   3.582   2.478   5.225 -0.3249 -2.8220 -3.8802
  494MOL0     H66661   3.511   2.447   5.374 -0.7153 -0.5709  1.3203
  494MOL0     H66662   3.332   2.322   5.239 -0.2457  1.4072 -0.5092
  494MOL0     H66663   3.330   2.484   5.184 -2.9017 -1.7471 -0.0206
  494MOL0     H66664   3.492   2.259   5.038 -0.1923  0.2517 -1.1228
  494MOL0     H66665   3.480   2.423   4.980  1.0163 -1.6882 -1.8807
  494MOL0     H66666   3.230   2.247   5.004  1.7020 -1.1209 -0.2334
  494MOL0     H66667   3.235   2.414   4.954 -2.4817 -1.3193 -2.2752
  494MOL0     H66668   3.360   2.178   4.805  0.1292 -0.0981 -1.0682
  494MOL0     H66669   3.391   2.349   4.758 -1.6300  1.3492 -2.0637
  494MOL0     H66670   3.133   2.180   4.748 -0.9666  0.7437 -0.2843
  494MOL0     H66671   3.233   2.239   4.619 -0.5755 -0.4501 -0.6620
  494MOL0     H66672   3.909   2.399   5.030  0.5368 -0.5132 -0.2077
  494MOL0     H66673   4.096   2.262   4.920 -1.3333  3.0200  0.4439
  494MOL0     H66674   4.334   1.905   4.836  1.2040 -6.2049 -1.1368
  494MOL0     H66675   4.517   1.770   4.762 -0.2726  0.5593 -0.1796
  494MOL0     H66676   6.449   1.782   5.215 -0.5624  0.0304 -1.5418
  494MOL0     H66677   6.672   1.772   5.243 -1.0509 -1.6099 -1.0915
  494MOL0     H66678   7.036   2.133   5.286 -2.0146 -2.5099 -0.5322
  494MOL0     H66679   7.275   2.174   5.369 -1.8454  0.5977  0.3630
  494MOL0     H66680   7.598   1.852   5.408  0.5561 -0.7510 -1.7229
  494MOL0     H66681   7.532   1.919   5.268 -1.7647  1.3937  0.1222
  494MOL0     H66682   7.748   2.002   5.276  0.7578  0.7263  0.6032
  494MOL0     H66683   7.741   2.043   5.441 -2.2100 -1.9921  2.1667
  494MOL0     H66684   7.714   2.267   5.324 -0.9259  0.9020  0.1518
  494MOL0     H66685   7.556   2.211   5.378 -0.6401 -0.1975 -0.1949
  494MOL0     H66686   7.590   2.292   5.141  1.5117  0.9048  3.2341
  494MOL0     H66687   7.507   2.131   5.150  0.5634 -0.8103 -0.4545
  494MOL0     H66688   7.860   2.056   4.924  3.0500  3.7144  0.8664
  494MOL0     H66689   7.366   1.768   5.330 -1.5188 -1.2326  0.9426
  494MOL0     H66690   7.154   1.714   5.258  3.2003  0.7562 -2.0029
  495MOL0     O66691   7.514   3.028   2.848 -0.9799  0.2867 -0.6059
  495MOL0     C66692   7.577   2.941   2.910  0.4228 -0.4281  0.0415
  495MOL0     O66693   7.516   2.831   2.963 -0.4844 -0.6695 -0.1085
  495MOL0     C66694   7.390   2.844   3.006  0.2704 -0.0586 -0.0486
  495MOL0     C66695   7.349   2.945   3.096 -0.4045  0.2633 -0.9497
  495MOL0     C66696   7.223   2.959   3.138 -0.2669 -0.2475 -0.1068
  495MOL0     C66697   7.127   2.866   3.088 -0.6224 -0.1004 -0.1122
  495MOL0     O66698   6.997   2.886   3.120 -0.0471 -0.2635 -0.5293
  495MOL0     C66699   6.937   3.007   3.168 -0.5168 -0.5532  0.5298
  495MOL0     C66700   6.792   3.000   3.127 -1.0742  0.2470 -0.6189
  495MOL0     C66701   6.721   3.119   3.193  0.0882 -0.5951  0.4907
  495MOL0     C66702   6.589   3.155   3.126  0.0045 -0.6677 -0.5702
  495MOL0     C66703   6.506   3.260   3.196 -0.2536  0.6392 -0.1194
  495MOL0     C66704   6.560   3.399   3.167  0.1184 -0.6713  0.5034
  495MOL0     C66705   6.499   3.492   3.266  0.0174 -0.7269  0.0016
  495MOL0     C66706   6.519   3.641   3.242  0.2659 -0.6909 -0.2701
  495MOL0     N66707   6.529   3.710   3.376 -0.0610  0.9830 -0.1261
  495MOL0     C66708   6.461   3.816   3.412 -0.2918  0.0533 -0.6496
  495MOL0     C66709   6.495   3.837   3.540 -0.4789 -0.2649  0.4180
  495MOL0     C66710   6.448   3.960   3.615 -0.2992  0.5014  0.7696
  495MOL0     C66711   6.295   3.938   3.635 -0.5326 -0.2156  0.2409
  495MOL0     C66712   6.267   3.818   3.731  0.9281 -0.2117 -0.9651
  495MOL0     C66713   6.162   3.733   3.689 -0.3328 -0.3077  0.1272
  495MOL0     O66714   6.188   3.653   3.578  0.0989  0.3502 -0.3335
  495MOL0     C66715   6.106   3.550   3.533  0.6619 -0.0898 -0.1688
  495MOL0     C66716   6.163   3.453   3.449 -0.1281 -0.1763  0.8231
  495MOL0     C66717   6.084   3.336   3.416  0.6985 -0.4573 -0.7347
  495MOL0     C66718   6.160   3.221   3.345  0.0296  0.4599 -0.2177
  495MOL0     C66719   5.942   3.328   3.462 -0.2526 -0.9891 -0.1007
  495MOL0     C66720   5.849   3.230   3.422  0.0847  0.5843  0.7256
  495MOL0     O66721   5.730   3.224   3.491  0.3985 -0.1813 -0.8507
  495MOL0     C66722   5.629   3.144   3.451  1.2156 -0.1420 -0.0887
  495MOL0     C66723   5.587   3.143   3.314  0.1542 -0.8844 -0.4339
  495MOL0     C66724   5.474   3.064   3.282  0.5375 -0.1650 -0.0860
  495MOL0     C66725   5.396   2.982   3.376  0.0566 -0.2483  0.0402
  495MOL0     O66726   5.282   2.907   3.358 -0.3746  0.2389 -0.6660
  495MOL0     C66727   5.275   2.868   3.220  0.4284  0.3605 -0.5270
  495MOL0     C66728   5.157   2.783   3.199  0.1537  0.1999 -0.7584
  495MOL0     C66729   5.038   2.866   3.154 -0.1218  0.6894  0.5637
  495MOL0     C66730   4.930   2.777   3.095 -0.2368  0.3323 -0.0818
  495MOL0     C66731   4.860   2.854   2.978 -1.3038  0.7233  0.3284
  495MOL0     C66732   4.759   2.761   2.924 -0.5805 -0.2725  0.8597
  495MOL0     C66733   4.658   2.836   2.836  0.3706  0.0774  0.1679
  495MOL0     C66734   4.521   2.768   2.839  0.7445 -0.2530 -0.1031
  495MOL0    Cl66735   4.537   2.603   2.757 -0.3762  0.1025  0.6467
  495MOL0     C66736   5.442   2.996   3.508 -1.2875 -0.3284  0.4885
  495MOL0     C66737   5.554   3.078   3.548  0.1773 -0.2404  0.5174
  495MOL0     O66738   5.877   3.161   3.322  0.2986  0.0812 -0.7891
  495MOL0     C66739   5.891   3.423   3.547 -0.7006  0.0256  0.8605
  495MOL0     C66740   5.971   3.534   3.578 -1.3211  0.1398 -0.0497
  495MOL0     N66741   6.578   3.731   3.577  0.2136  1.0492  0.2139
  495MOL0     N66742   6.611   3.673   3.475  0.1080 -0.0836 -0.4990
  495MOL0     C66743   7.164   2.754   3.016 -0.2203  0.0032  0.6109
  495MOL0     C66744   7.297   2.742   2.974 -0.8068  0.1820  0.4417
  495MOL0     C66745   7.724   2.940   2.919 -0.8712 -0.6617 -0.2775
  495MOL0     C66746   7.790   3.056   2.878 -0.1148 -0.0603  0.2755
  495MOL0     C66747   7.929   3.058   2.891 -0.1130 -0.6445  0.9143
  495MOL0     C66748   8.007   2.965   2.957  0.0351 -0.1622 -1.0983
  495MOL0     O66749   8.134   2.993   2.981  0.2417  0.4941 -0.1761
  495MOL0     C66750   8.231   2.908   3.052  0.0213  0.6524  0.0378
  495MOL0     C66751   8.365   2.974   3.083 -0.1761  0.0815  0.6267
  495MOL0     C66752   8.420   3.052   2.964 -0.9166  0.1978 -0.2191
  495MOL0     C66753   8.465   2.978   2.840 -0.1481 -0.0417  0.2268
  495MOL0     C66754   8.358   2.939   2.752  0.2426 -0.6412 -0.4177
  495MOL0     C66755   8.279   2.918   2.666 -0.5545 -0.3590 -1.1595
  495MOL0     C66756   7.938   2.849   2.988 -0.6354  0.1213  0.3050
  495MOL0     C66757   7.798   2.841   2.982 -0.7400  0.2237  0.0505
  495MOL0     H66758   7.425   3.010   3.138 -1.3155  1.2226 -0.7456
  495MOL0     H66759   7.196   3.028   3.218 -0.9285 -1.3524  0.6418
  495MOL0     H66760   6.949   3.007   3.276 -0.6557 -0.6139  0.5453
  495MOL0     H66761   6.991   3.095   3.131 -0.8276 -1.1644 -1.5445
  495MOL0     H66762   6.781   3.002   3.018 -0.4287 -1.7223 -0.7545
  495MOL0     H66763   6.739   2.911   3.163  1.3031 -0.8453  0.3583
  495MOL0     H66764   6.711   3.109   3.302  5.3061 -0.6946  1.1882
  495MOL0     H66765   6.787   3.204   3.175  0.6013 -0.8376  1.2008
  495MOL0     H66766   6.606   3.189   3.023 -1.4074 -0.4135 -0.7295
  495MOL0     H66767   6.532   3.062   3.123 -2.1022  0.5252  0.5675
  495MOL0     H66768   6.399   3.254   3.170 -0.8480 -0.2486  2.2954
  495MOL0     H66769   6.507   3.243   3.304 -1.1540 -2.3815 -0.4895
  495MOL0     H66770   6.666   3.416   3.189  0.7507 -0.7865 -2.1123
  495MOL0     H66771   6.540   3.432   3.065  1.0877 -1.3367  0.0688
  495MOL0     H66772   6.391   3.479   3.263  0.0244 -0.6552 -1.3887
  495MOL0     H66773   6.528   3.462   3.367  0.6105  0.6414  0.2695
  495MOL0     H66774   6.431   3.667   3.182  1.9506  0.1267 -2.4918
  495MOL0     H66775   6.604   3.667   3.179 -0.7159 -0.4601 -1.5324
  495MOL0     H66776   6.402   3.884   3.352 -0.6479  0.2912 -0.0342
  495MOL0     H66777   6.510   3.970   3.704 -0.0467 -2.2768  0.9870
  495MOL0     H66778   6.455   4.050   3.552 -1.0476  1.5163  2.0758
  495MOL0     H66779   6.248   3.927   3.537  1.3305 -0.7704 -0.6553
  495MOL0     H66780   6.261   4.035   3.672  1.2030  0.2329  0.7777
  495MOL0     H66781   6.219   3.872   3.813  0.0011  1.5480 -2.5804
  495MOL0     H66782   6.354   3.763   3.769 -0.0736 -0.0755  1.7979
  495MOL0     H66783   6.073   3.794   3.667 -1.2030 -1.9948 -1.2953
  495MOL0     H66784   6.139   3.668   3.774  1.4645  1.9513  2.5179
  495MOL0     H66785   6.268   3.470   3.432 -0.6199  3.8118  0.9734
  495MOL0     H66786   6.140   3.219   3.238 -1.0188 -1.8906 -0.0274
  495MOL0     H66787   6.266   3.241   3.366  0.2099  0.2435 -0.9064
  495MOL0     H66788   6.138   3.124   3.390 -1.7051 -0.3680 -2.6500
  495MOL0     H66789   5.645   3.200   3.242  0.5930 -0.9370 -0.1250
  495MOL0     H66790   5.450   3.060   3.176 -1.6137 -1.3791  0.3897
  495MOL0     H66791   5.269   2.956   3.155  0.4170  0.5566 -0.2655
  495MOL0     H66792   5.369   2.817   3.197  1.7236  2.6230 -0.5774
  495MOL0     H66793   5.179   2.709   3.122  0.3814 -0.7362  0.1904
  495MOL0     H66794   5.126   2.721   3.283  0.6388  1.6406  0.5280
  495MOL0     H66795   5.071   2.933   3.074 -2.4853  0.6020 -0.5896
  495MOL0     H66796   4.993   2.926   3.234 -1.7573 -1.5937  1.4758
  495MOL0     H66797   4.969   2.687   3.047 -1.7467  1.0880 -2.8873
  495MOL0     H66798   4.867   2.744   3.179  0.2094 -3.3096 -1.0104
  495MOL0     H66799   4.939   2.879   2.907  0.2155  1.5804  2.2355
  495MOL0     H66800   4.816   2.948   3.014 -1.0478  0.8658  0.2671
  495MOL0     H66801   4.814   2.688   2.863 -1.2931 -0.3672  0.3176
  495MOL0     H66802   4.704   2.703   2.998  1.3900 -1.3144  1.5911
  495MOL0     H66803   4.695   2.841   2.733 -1.5569  2.2292 -0.5097
  495MOL0     H66804   4.631   2.939   2.862 -1.1335  0.1611 -1.5372
  495MOL0     H66805   4.456   2.835   2.782  1.0624  0.0014 -0.1707
  495MOL0     H66806   4.479   2.759   2.939 -0.8554  0.6895 -0.6562
  495MOL0     H66807   5.395   2.940   3.588 -1.8665 -0.2605  0.1985
  495MOL0     H66808   5.586   3.075   3.651 -1.7206  0.3084  1.1660
  495MOL0     H66809   5.794   3.418   3.594 -0.3915  0.9586  1.6239
  495MOL0     H66810   5.929   3.601   3.652 -0.5796  0.1465  0.3830
  495MOL0     H66811   7.104   2.666   2.998  1.9221 -1.1051 -1.8610
  495MOL0     H66812   7.335   2.661   2.913 -0.8288  1.6866 -1.6983
  495MOL0     H66813   7.754   3.140   2.819  1.4783 -0.1483 -0.9104
  495MOL0     H66814   7.994   3.133   2.846  0.1170 -0.9349  0.7567
  495MOL0     H66815   8.188   2.886   3.150  0.8374 -0.5431  0.1566
  495MOL0     H66816   8.258   2.818   2.996  2.3558  0.8446  0.7208
  495MOL0     H66817   8.431   2.894   3.116  1.7942 -0.1812 -3.3985
  495MOL0     H66818   8.337   3.044   3.163 -1.2535 -0.8904  1.1296
  495MOL0     H66819   8.510   3.102   3.000  1.0610 -1.5216 -2.4701
  495MOL0     H66820   8.352   3.129   2.925 -0.5629  0.7150  0.1818
  495MOL0     H66821   8.534   2.896   2.862 -0.6545 -0.3743  0.6034
  495MOL0     H66822   8.527   3.050   2.787  0.9058 -0.1217  1.3253
  495MOL0     H66823   8.208   2.900   2.588 -2.2356 -2.1940  0.6751
  495MOL0     H66824   7.979   2.756   3.026 -1.0379 -1.3633 -2.5663
  495MOL0     H66825   7.740   2.755   3.015 -4.2128  2.8882  1.4931
  496MOL0     O66826   4.506   4.680  10.659 -0.4488 -0.8730 -0.1034
  496MOL0     C66827   4.569   4.574  10.633 -0.7125  0.2587 -0.5189
  496MOL0     O66828   4.533   4.470  10.551  0.6831  0.7509  0.0662
  496MOL0     C66829   4.416   4.472  10.478 -0.3749  0.2809 -0.6380
  496MOL0     C66830   4.371   4.592  10.420  0.1592 -0.7577  0.6898
  496MOL0     C66831   4.244   4.591  10.350 -0.4210  0.5017 -0.2626
  496MOL0     C66832   4.180   4.475  10.323  0.0510 -0.6938 -0.4105
  496MOL0     O66833   4.065   4.488  10.257  0.0970 -0.1548  0.0991
  496MOL0     C66834   4.025   4.381  10.171  0.6641  0.2217  0.8824
  496MOL0     C66835   3.925   4.411  10.050  0.5756 -0.1983  0.0485
  496MOL0     C66836   3.787   4.460  10.101 -0.1334 -0.0697 -0.5571
  496MOL0     C66837   3.702   4.520   9.978  0.1380  0.3591  0.1438
  496MOL0     C66838   3.565   4.569  10.032 -0.6828 -0.4407  0.2934
  496MOL0     C66839   3.484   4.624   9.915  0.3957 -1.1855  0.0397
  496MOL0     C66840   3.333   4.669   9.937 -0.4504 -0.0843  0.8433
  496MOL0     C66841   3.332   4.743  10.070 -0.0825  0.6666 -0.3539
  496MOL0     N66842   3.225   4.835  10.085 -0.1855 -0.6950  0.0858
  496MOL0     C66843   3.238   4.969  10.120 -1.4321  0.3815 -0.0871
  496MOL0     C66844   3.113   5.015  10.148  0.2504  0.4029  0.1072
  496MOL0     C66845   3.082   5.157  10.174  0.4160  0.9311 -0.2797
  496MOL0     C66846   2.986   5.177  10.294 -0.2879  0.6028  0.7294
  496MOL0     C66847   2.999   5.318  10.345  0.3523  0.5271 -0.5006
  496MOL0     C66848   2.864   5.352  10.430  0.0396  0.1737 -0.5484
  496MOL0     O66849   2.845   5.243  10.522 -0.0402 -0.1142  0.2865
  496MOL0     C66850   2.748   5.243  10.622 -0.1988  1.2026 -0.3310
  496MOL0     C66851   2.652   5.339  10.640  0.5272  0.7110  0.4663
  496MOL0     C66852   2.551   5.324  10.734  0.2251  0.4336  0.0976
  496MOL0     C66853   2.452   5.443  10.744 -0.4614  0.1130  0.7519
  496MOL0     C66854   2.552   5.213  10.825  0.6942 -0.4866  0.0256
  496MOL0     C66855   2.446   5.188  10.927  0.4471 -0.6559  0.7380
  496MOL0     O66856   2.433   5.065  10.979  0.0082  0.4360 -0.0983
  496MOL0     C66857   2.323   5.034  11.062  0.3565 -0.0097  0.7501
  496MOL0     C66858   2.191   5.073  11.030 -0.8117 -0.3232  0.5951
  496MOL0     C66859   2.087   5.038  11.118 -0.8315  0.2973  0.0497
  496MOL0     C66860   2.099   4.946  11.221  1.1048 -0.5634  0.3869
  496MOL0     O66861   1.982   4.901  11.287  0.0607 -0.0503  0.2429
  496MOL0     C66862   1.989   4.779  11.359 -0.2616  0.2262  0.6614
  496MOL0     C66863   1.849   4.720  11.367  0.0088 -0.2667 -0.1796
  496MOL0     C66864   1.852   4.578  11.412 -0.2275  0.0959 -0.1619
  496MOL0     C66865   1.714   4.536  11.454  0.1126  0.3022  0.2207
  496MOL0     C66866   1.620   4.492  11.336 -0.5278  0.4854  0.0656
  496MOL0     C66867   1.491   4.422  11.368  0.0482  0.1113 -0.5225
  496MOL0     C66868   1.400   4.532  11.415 -0.0126 -0.3274  0.0446
  496MOL0     C66869   1.259   4.495  11.471  1.0610 -0.1387 -0.0309
  496MOL0    Cl66870   1.170   4.379  11.376  0.1142 -0.1657 -0.0505
  496MOL0     C66871   2.228   4.900  11.253  0.6700 -0.4838  0.0868
  496MOL0     C66872   2.338   4.943  11.169  0.1769 -0.4786 -0.1700
  496MOL0     O66873   2.377   5.278  10.963 -0.3734  0.2087  0.5759
  496MOL0     C66874   2.640   5.106  10.802  0.6607  0.5667  1.1549
  496MOL0     C66875   2.741   5.125  10.701 -0.3050  0.1088 -1.5084
  496MOL0     N66876   3.027   4.912  10.131  0.6554  0.4268 -0.0835
  496MOL0     N66877   3.089   4.805  10.103  0.4194 -0.4659 -0.3907
  496MOL0     C66878   4.228   4.357  10.375  0.2232  0.8137 -0.3095
  496MOL0     C66879   4.347   4.352  10.453 -0.0217 -0.1849  0.3385
  496MOL0     C66880   4.681   4.546  10.717  0.2052 -0.1259 -0.6906
  496MOL0     C66881   4.777   4.440  10.685  0.0794 -0.4283  0.9903
  496MOL0     C66882   4.880   4.416  10.764 -0.5814  0.5818 -0.5750
  496MOL0     C66883   4.906   4.487  10.882  0.1285 -0.7031  0.0748
  496MOL0     O66884   5.009   4.435  10.951  0.5864  0.2229 -0.6364
  496MOL0     C66885   5.032   4.495  11.080 -0.9154 -0.2793  0.2560
  496MOL0     C66886   5.179   4.484  11.115 -0.3070 -0.3677  0.3628
  496MOL0     C66887   5.205   4.551  11.250  1.0968  0.1727 -0.8816
  496MOL0     C66888   5.340   4.504  11.305 -0.6453 -0.3669 -0.0332
  496MOL0     C66889   5.329   4.407  11.419 -0.9357  0.0096  0.2083
  496MOL0     C66890   5.327   4.330  11.516 -0.0877 -0.7486  0.2115
  496MOL0     C66891   4.812   4.590  10.913  0.0103 -0.0823  0.0134
  496MOL0     C66892   4.698   4.616  10.840 -0.3597 -0.3892 -0.6162
  496MOL0     H66893   4.432   4.680  10.440 -0.7300  0.9178 -3.1359
  496MOL0     H66894   4.205   4.682  10.306 -2.4333  0.5017  1.3151
  496MOL0     H66895   4.110   4.331  10.123 -0.8333 -2.5885  0.9560
  496MOL0     H66896   3.986   4.294  10.225  1.5355  0.2912  1.6617
  496MOL0     H66897   3.984   4.483   9.993 -2.2802 -0.2081 -3.1843
  496MOL0     H66898   3.912   4.317   9.997 -1.7737 -0.0075  0.1900
  496MOL0     H66899   3.751   4.374  10.158  4.7150 -0.4599  2.4761
  496MOL0     H66900   3.798   4.536  10.179  1.6280 -0.0294 -0.8060
  496MOL0     H66901   3.752   4.599   9.922  0.8099 -1.1174 -1.4176
  496MOL0     H66902   3.675   4.440   9.908  1.4606  0.6983 -0.7949
  496MOL0     H66903   3.520   4.489  10.093  1.7586 -0.2065  2.6120
  496MOL0     H66904   3.583   4.651  10.103  0.2731  0.4774 -0.9744
  496MOL0     H66905   3.530   4.711   9.867 -1.3232  1.8579  3.4012
  496MOL0     H66906   3.481   4.545   9.840 -2.8223 -0.9815 -0.1903
  496MOL0     H66907   3.311   4.735   9.853 -0.7625 -1.3397 -0.0690
  496MOL0     H66908   3.274   4.579   9.953 -1.2493  0.6961  2.6120
  496MOL0     H66909   3.427   4.797  10.068  0.5540 -0.4143 -1.9974
  496MOL0     H66910   3.329   4.679  10.159  0.0222  1.4082  0.1831
  496MOL0     H66911   3.323   5.035  10.115  0.6641 -2.2229 -0.7902
  496MOL0     H66912   3.180   5.205  10.186  2.1087 -1.4061 -3.3009
  496MOL0     H66913   3.027   5.201  10.090  0.2253  0.9527 -0.1440
  496MOL0     H66914   2.999   5.117  10.385 -1.0776  2.4593  2.1542
  496MOL0     H66915   2.885   5.146  10.267 -0.6059  0.0172  2.4190
  496MOL0     H66916   2.994   5.392  10.264  1.0006 -0.2761 -1.2984
  496MOL0     H66917   3.092   5.335  10.399  1.4055 -4.3432 -0.3046
  496MOL0     H66918   2.777   5.365  10.365 -0.0707  2.3564 -0.0221
  496MOL0     H66919   2.875   5.445  10.486 -0.8113  0.7956 -1.3947
  496MOL0     H66920   2.650   5.426  10.575  0.2616  1.1655  1.0824
  496MOL0     H66921   2.349   5.415  10.721 -0.7615  0.4171  1.7080
  496MOL0     H66922   2.452   5.489  10.843  1.3192 -0.0925  0.8722
  496MOL0     H66923   2.486   5.522  10.676  2.9359 -1.2992  0.5996
  496MOL0     H66924   2.172   5.151  10.958 -1.2201  1.1355  2.2201
  496MOL0     H66925   1.990   5.083  11.099 -0.2001  0.6180 -2.8736
  496MOL0     H66926   2.043   4.706  11.298 -0.3624 -0.6597  1.6106
  496MOL0     H66927   2.044   4.792  11.452  2.6966 -0.8783 -0.7959
  496MOL0     H66928   1.794   4.776  11.442  1.1444 -0.7322  1.0376
  496MOL0     H66929   1.809   4.723  11.265  2.2833  2.2620 -1.1310
  496MOL0     H66930   1.919   4.581  11.498  1.3104  1.0651 -1.3514
  496MOL0     H66931   1.883   4.519  11.326  1.9341  0.7892  0.0848
  496MOL0     H66932   1.720   4.453  11.525 -0.5127 -0.8599 -1.0392
  496MOL0     H66933   1.664   4.611  11.517 -3.0816  0.8203 -2.6638
  496MOL0     H66934   1.671   4.423  11.268  1.3717 -0.0915  1.9781
  496MOL0     H66935   1.593   4.580  11.277  4.2688  2.3003  0.1281
  496MOL0     H66936   1.449   4.370  11.282 -0.0484 -0.6887  0.0027
  496MOL0     H66937   1.509   4.350  11.448 -0.4120 -2.1761 -2.3619
  496MOL0     H66938   1.375   4.595  11.329 -2.4031 -0.8911  0.2495
  496MOL0     H66939   1.455   4.585  11.494  2.2823 -0.2385 -1.5125
  496MOL0     H66940   1.201   4.587  11.488  0.3177 -0.7980  1.0929
  496MOL0     H66941   1.277   4.471  11.576 -3.1309  5.1246  2.3802
  496MOL0     H66942   2.247   4.827  11.331 -1.9386  0.1339  1.3921
  496MOL0     H66943   2.439   4.910  11.195 -0.0328 -0.9531  0.0536
  496MOL0     H66944   2.642   5.012  10.855 -2.9004 -1.9427 -2.5607
  496MOL0     H66945   2.817   5.051  10.679  1.3015  0.0611  3.1843
  496MOL0     H66946   4.188   4.258  10.353 -1.8096  1.8708 -1.6911
  496MOL0     H66947   4.389   4.260  10.493 -0.5138  0.2406  1.9209
  496MOL0     H66948   4.765   4.375  10.598  1.9024 -0.0483  0.4004
  496MOL0     H66949   4.948   4.337  10.736 -2.5505 -2.5317  2.5640
  496MOL0     H66950   4.987   4.593  11.095 -0.4956 -0.3693  2.4249
  496MOL0     H66951   4.981   4.420  11.141 -1.5192  1.0925  1.4911
  496MOL0     H66952   5.233   4.533  11.033 -2.9934  1.8985 -0.2018
  496MOL0     H66953   5.212   4.380  11.126 -1.6658 -0.8884 -0.2595
  496MOL0     H66954   5.114   4.532  11.307  0.6407  0.2814 -1.5631
  496MOL0     H66955   5.206   4.658  11.224 -2.0154  0.3067 -0.7729
  496MOL0     H66956   5.396   4.591  11.340  1.0927 -1.3208 -0.3283
  496MOL0     H66957   5.396   4.464  11.220  1.6815  0.8194  0.8424
  496MOL0     H66958   5.302   4.277  11.606  0.2604 -1.1575  0.0708
  496MOL0     H66959   4.817   4.643  11.008 -0.5518 -0.0790  0.0456
  496MOL0     H66960   4.631   4.687  10.887  0.5878 -1.0460  1.8650
  497MOL0     O66961   2.556   6.374   5.541  0.5751  0.2596  0.4714
  497MOL0     C66962   2.535   6.388   5.664 -0.8712  0.3507  0.2664
  497MOL0     O66963   2.420   6.420   5.736 -0.4500  0.4648 -0.0137
  497MOL0     C66964   2.293   6.443   5.685  0.4501 -0.4680 -0.5099
  497MOL0     C66965   2.252   6.440   5.550 -0.3717  0.1815 -0.8578
  497MOL0     C66966   2.121   6.480   5.518  0.3866 -0.1239  0.1199
  497MOL0     C66967   2.026   6.519   5.599  0.5285  0.3324  0.3932
  497MOL0     O66968   1.906   6.561   5.546  0.6826 -0.0951  0.5664
  497MOL0     C66969   1.805   6.585   5.649 -0.2868  0.1781 -0.3407
  497MOL0     C66970   1.688   6.657   5.595 -0.2383  0.4011  0.1935
  497MOL0     C66971   1.595   6.561   5.514 -0.3990 -0.7151 -0.5648
  497MOL0     C66972   1.467   6.629   5.479  1.0468 -0.7147  0.4227
  497MOL0     C66973   1.392   6.569   5.358  0.3688 -0.2093 -0.1874
  497MOL0     C66974   1.261   6.654   5.326  0.9485  0.2465 -0.0141
  497MOL0     C66975   1.164   6.568   5.249  0.8384  0.1048 -0.3235
  497MOL0     C66976   1.045   6.644   5.197  1.4506  0.1302  0.5785
  497MOL0     N66977   0.958   6.688   5.303  0.1124 -1.1903  0.3504
  497MOL0     C66978   0.851   6.626   5.357  0.2144 -0.2279 -0.1829
  497MOL0     C66979   0.790   6.720   5.438 -0.5716  0.1260  1.0704
  497MOL0     C66980   0.683   6.691   5.531 -0.2740  0.6317 -0.5092
  497MOL0     C66981   0.544   6.741   5.477  0.2960 -0.3035  0.0023
  497MOL0     C66982   0.451   6.788   5.591  0.2453 -0.7742 -0.4453
  497MOL0     C66983   0.313   6.795   5.544 -0.6617 -0.5108  0.0140
  497MOL0     O66984   0.222   6.842   5.639  0.3284  0.3307  0.2912
  497MOL0     C66985   0.094   6.846   5.586 -0.1112  0.2356 -0.2362
  497MOL0     C66986   0.049   6.794   5.462 -0.3690 -0.4854  0.1038
  497MOL0     C66987  -0.086   6.825   5.418 -0.6324  0.3755 -0.4367
  497MOL0     C66988  -0.107   6.835   5.265  0.4556  0.3321 -0.9481
  497MOL0     C66989  -0.191   6.887   5.505 -0.2825  0.5232  0.6728
  497MOL0     C66990  -0.335   6.909   5.470 -0.4503  0.2425 -0.2981
  497MOL0     O66991  -0.401   6.995   5.548 -0.2405  0.1664  0.4391
  497MOL0     C66992  -0.528   7.024   5.525 -0.4023  0.3358  0.3196
  497MOL0     C66993  -0.568   7.118   5.427  0.6159  0.4036  0.8058
  497MOL0     C66994  -0.707   7.144   5.410 -0.6157 -0.5009  0.1067
  497MOL0     C66995  -0.801   7.094   5.491  0.7374 -0.4930  0.0217
  497MOL0     O66996  -0.934   7.120   5.470  1.0946 -0.1085 -0.5937
  497MOL0     C66997  -1.026   7.095   5.568 -0.1725  0.2466 -0.7168
  497MOL0     C66998  -1.157   7.165   5.536  0.2772 -0.3435  0.5494
  497MOL0     C66999  -1.232   7.073   5.443 -0.5467  1.0412  0.9500
  497MOL0     C67000  -1.363   7.144   5.431  0.4030 -0.0222 -0.6246
  497MOL0     C67001  -1.476   7.060   5.352 -0.1370 -0.6328  0.7378
  497MOL0     C67002  -1.555   7.161   5.272  0.9975  0.5811  0.6590
  497MOL0     C67003  -1.656   7.096   5.172 -0.5058 -0.2004 -0.1261
  497MOL0     C67004  -1.771   7.194   5.139 -0.3199 -0.0680  0.4701
  497MOL0    Cl67005  -1.909   7.221   5.254  0.2445 -0.1001 -0.1136
  497MOL0     C67006  -0.759   7.006   5.590  0.0503  0.1048 -0.3452
  497MOL0     C67007  -0.626   6.975   5.610 -1.3875 -1.0088 -0.0704
  497MOL0     O67008  -0.375   6.855   5.372  0.2322 -0.5341  0.0841
  497MOL0     C67009  -0.142   6.928   5.628  0.2991  1.4892  0.2985
  497MOL0     C67010  -0.006   6.914   5.658 -1.3846  0.4703 -0.4773
  497MOL0     N67011   0.855   6.841   5.418  0.1194 -1.0609 -0.4031
  497MOL0     N67012   0.963   6.817   5.350 -0.3828 -0.1863 -0.0947
  497MOL0     C67013   2.060   6.500   5.735  0.6629  0.3089  0.5621
  497MOL0     C67014   2.184   6.465   5.774 -0.1851  0.7818 -0.4208
  497MOL0     C67015   2.646   6.346   5.748  0.1970 -0.3027  0.5008
  497MOL0     C67016   2.776   6.315   5.699  0.9891  0.9802  0.0055
  497MOL0     C67017   2.862   6.258   5.790 -0.0563  0.6397 -0.5657
  497MOL0     C67018   2.838   6.245   5.927 -0.5829  0.1628 -0.5429
  497MOL0     O67019   2.926   6.180   6.013 -0.0543 -0.2081 -0.6603
  497MOL0     C67020   3.069   6.190   5.994 -0.2656  0.1465  0.1975
  497MOL0     C67021   3.121   6.333   5.998 -1.0976 -0.0514 -1.1156
  497MOL0     C67022   3.085   6.395   6.134  0.1023  0.6488 -0.2189
  497MOL0     C67023   3.162   6.527   6.148  0.3778  0.2944 -0.6737
  497MOL0     C67024   3.286   6.510   6.225 -0.1105  0.1331 -0.4670
  497MOL0     C67025   3.380   6.512   6.301  0.8142  0.7926 -0.9499
  497MOL0     C67026   2.706   6.275   5.969 -0.4894 -0.2716 -0.2667
  497MOL0     C67027   2.614   6.328   5.883 -0.7776  0.3465 -0.4864
  497MOL0     H67028   2.322   6.427   5.468 -0.0960  3.1797 -1.2029
  497MOL0     H67029   2.097   6.490   5.413 -0.5741 -1.0884  0.2359
  497MOL0     H67030   1.771   6.487   5.685 -1.0087 -0.2650 -2.1435
  497MOL0     H67031   1.847   6.648   5.728 -4.3765  2.0601  0.5872
  497MOL0     H67032   1.616   6.687   5.672  1.3265  1.7594  1.2071
  497MOL0     H67033   1.728   6.740   5.536 -0.2957 -0.4764 -1.0929
  497MOL0     H67034   1.638   6.533   5.417  2.3984 -0.1788  0.4215
  497MOL0     H67035   1.582   6.471   5.575  1.8658 -1.6564 -1.3709
  497MOL0     H67036   1.403   6.622   5.567 -2.4045 -3.0644 -2.0304
  497MOL0     H67037   1.485   6.735   5.459  1.4772 -0.5395  1.6732
  497MOL0     H67038   1.459   6.563   5.271  1.0038 -0.7718  0.3302
  497MOL0     H67039   1.370   6.467   5.389  1.0707 -0.2468  0.2215
  497MOL0     H67040   1.225   6.698   5.419 -0.1134  1.6719 -1.0544
  497MOL0     H67041   1.297   6.733   5.260 -0.3694  0.8268 -0.0735
  497MOL0     H67042   1.215   6.523   5.164  2.2244  0.7737  0.1289
  497MOL0     H67043   1.126   6.482   5.306  1.7502  0.7162  1.2765
  497MOL0     H67044   0.984   6.582   5.130 -0.0683  1.9562  0.1821
  497MOL0     H67045   1.081   6.731   5.141 -1.7531  0.8455 -0.5916
  497MOL0     H67046   0.825   6.522   5.369  0.1723 -0.1805  0.1562
  497MOL0     H67047   0.674   6.583   5.541 -1.9931  0.7148 -0.7373
  497MOL0     H67048   0.688   6.741   5.628 -2.5753 -1.8000  1.0012
  497MOL0     H67049   0.495   6.665   5.415 -2.5897  0.5733  1.0355
  497MOL0     H67050   0.555   6.824   5.406  0.5634 -0.3332  0.0067
  497MOL0     H67051   0.481   6.882   5.637  0.6587 -0.5348 -1.1813
  497MOL0     H67052   0.448   6.716   5.673  0.3538 -0.6754 -0.3535
  497MOL0     H67053   0.282   6.695   5.512 -2.7550 -0.3629  1.3750
  497MOL0     H67054   0.307   6.856   5.453 -1.7683 -1.3661 -0.5163
  497MOL0     H67055   0.109   6.727   5.401 -2.3190 -0.1736 -2.3198
  497MOL0     H67056  -0.175   6.757   5.229 -0.1298  0.6538 -0.5551
  497MOL0     H67057  -0.166   6.924   5.240 -5.4837 -3.7157 -3.8651
  497MOL0     H67058  -0.011   6.836   5.214 -0.2384  0.3629 -2.3034
  497MOL0     H67059  -0.498   7.166   5.358 -0.1198 -0.8841 -0.9088
  497MOL0     H67060  -0.725   7.206   5.323  1.6183 -0.0865 -0.1196
  497MOL0     H67061  -1.052   6.988   5.572  2.8965 -0.6431 -1.8326
  497MOL0     H67062  -0.984   7.130   5.663  0.2846 -2.9605  0.3980
  497MOL0     H67063  -1.210   7.186   5.629 -0.9526 -0.5611 -0.0867
  497MOL0     H67064  -1.125   7.258   5.489  0.2822 -0.0031  1.2109
  497MOL0     H67065  -1.249   6.971   5.478 -0.3651  0.3203 -0.9781
  497MOL0     H67066  -1.175   7.064   5.350  0.6253 -1.0360  1.8105
  497MOL0     H67067  -1.404   7.168   5.530  0.6906  1.1971 -0.7896
  497MOL0     H67068  -1.343   7.243   5.391  0.6735 -0.7931 -2.4731
  497MOL0     H67069  -1.540   7.012   5.427  0.4768 -1.6518  0.6384
  497MOL0     H67070  -1.431   6.983   5.288  0.5416 -0.9089  1.5215
  497MOL0     H67071  -1.610   7.227   5.339 -1.7838  0.4846 -1.3389
  497MOL0     H67072  -1.485   7.215   5.207 -1.7523  1.8106 -1.5376
  497MOL0     H67073  -1.701   7.006   5.213 -1.1609 -0.7586 -1.9760
  497MOL0     H67074  -1.594   7.070   5.086 -0.2913 -1.4718  0.3972
  497MOL0     H67075  -1.813   7.173   5.040  1.0540  0.4030 -0.2304
  497MOL0     H67076  -1.730   7.295   5.133 -2.8573  1.1931  2.2016
  497MOL0     H67077  -0.838   6.975   5.658 -3.3440  2.3664 -2.8863
  497MOL0     H67078  -0.602   6.899   5.684  2.8958 -1.0631 -1.2449
  497MOL0     H67079  -0.211   6.984   5.690 -4.1935 -1.0995 -1.8726
  497MOL0     H67080   0.031   6.970   5.743  1.1903 -0.7646 -0.7002
  497MOL0     H67081   1.984   6.518   5.810 -1.4318 -4.4537 -0.0273
  497MOL0     H67082   2.196   6.446   5.880 -2.5951 -0.5867 -0.3086
  497MOL0     H67083   2.805   6.321   5.594 -1.3433  1.2132 -0.6657
  497MOL0     H67084   2.956   6.219   5.752  0.8559  1.4727  0.7435
  497MOL0     H67085   3.105   6.127   6.076 -0.7337  1.9630  1.8640
  497MOL0     H67086   3.094   6.140   5.900  1.1906  0.3033  0.4675
  497MOL0     H67087   3.080   6.394   5.917 -1.7771 -0.1729 -0.8752
  497MOL0     H67088   3.230   6.333   6.000 -0.9728  2.3868  2.5909
  497MOL0     H67089   3.122   6.336   6.219 -0.2529  2.0540  0.9581
  497MOL0     H67090   2.981   6.426   6.145  0.7316  3.4351 -1.2340
  497MOL0     H67091   3.107   6.606   6.199  1.7414  1.2324 -0.6198
  497MOL0     H67092   3.179   6.578   6.053  1.9780  0.1673 -0.4740
  497MOL0     H67093   3.453   6.502   6.379  0.5258  0.4599 -0.7218
  497MOL0     H67094   2.684   6.252   6.073 -0.1002 -0.4031 -0.2097
  497MOL0     H67095   2.519   6.339   5.935 -0.9255 -4.6138  0.8566
  498MOL0     O67096   3.412   1.602  11.223 -0.0330  0.0778  0.5351
  498MOL0     C67097   3.384   1.680  11.315 -0.0167 -0.6462 -0.4476
  498MOL0     O67098   3.276   1.667  11.402  0.0894  0.5416 -0.4449
  498MOL0     C67099   3.182   1.572  11.379  0.2429  0.5457  0.3664
  498MOL0     C67100   3.227   1.446  11.359 -0.1383 -0.3080 -0.1037
  498MOL0     C67101   3.146   1.343  11.323  0.2933  0.4062 -0.6003
  498MOL0     C67102   3.019   1.376  11.289 -0.1783  0.2602 -0.6462
  498MOL0     O67103   2.928   1.289  11.224  0.2993  0.0457  0.0970
  498MOL0     C67104   2.885   1.178  11.301 -0.5317  0.0764 -0.6758
  498MOL0     C67105   2.754   1.117  11.258 -0.1253  0.9110  0.5552
  498MOL0     C67106   2.628   1.198  11.316 -0.0573  0.6597 -0.8425
  498MOL0     C67107   2.503   1.171  11.233  0.0677  0.9094  0.1321
  498MOL0     C67108   2.455   1.020  11.240  0.8643 -1.1214  0.3528
  498MOL0     C67109   2.315   1.000  11.189  0.8095  0.1489 -0.0907
  498MOL0     C67110   2.258   0.876  11.249  1.1565 -0.3744  0.3172
  498MOL0     C67111   2.163   0.913  11.367  0.9452 -0.3896 -0.1292
  498MOL0     N67112   2.040   0.981  11.334  1.0125  0.4902  0.1411
  498MOL0     C67113   1.956   0.941  11.235 -0.4734  0.1471 -0.9601
  498MOL0     C67114   1.871   1.045  11.224  0.0482  0.2628  0.4327
  498MOL0     C67115   1.771   1.040  11.116  0.8337  0.1183 -0.4222
  498MOL0     C67116   1.630   1.016  11.173 -0.8108 -0.2507  0.1845
  498MOL0     C67117   1.614   0.885  11.255 -0.3099  0.4085  0.7232
  498MOL0     C67118   1.464   0.874  11.302  0.6146  0.6790 -0.1552
  498MOL0     O67119   1.379   0.855  11.189  0.1374  0.2379 -0.6220
  498MOL0     C67120   1.248   0.887  11.203  0.5508 -0.2585 -0.2939
  498MOL0     C67121   1.174   0.898  11.327  0.2718  0.9241  0.4408
  498MOL0     C67122   1.040   0.935  11.325 -0.0896 -0.6347 -0.2303
  498MOL0     C67123   0.973   0.954  11.463 -0.7308  0.2630  0.1592
  498MOL0     C67124   0.980   0.960  11.196 -1.0808  0.5705  0.3001
  498MOL0     C67125   0.835   1.000  11.176  0.3746  0.0469 -1.0076
  498MOL0     O67126   0.799   1.032  11.046  0.0341 -0.6907  0.1167
  498MOL0     C67127   0.682   1.097  11.019  0.3456 -0.2218  0.2511
  498MOL0     C67128   0.597   1.051  10.918  0.5742 -0.6634  0.2395
  498MOL0     C67129   0.492   1.133  10.868 -0.4699  0.0569 -0.2592
  498MOL0     C67130   0.463   1.258  10.922  0.2885  0.0410  0.4057
  498MOL0     O67131   0.356   1.337  10.893  0.8300  0.0872  0.2238
  498MOL0     C67132   0.297   1.306  10.763  0.3608 -0.3796  0.2395
  498MOL0     C67133   0.168   1.396  10.763  0.5329 -0.7081 -0.1188
  498MOL0     C67134   0.111   1.422  10.626  0.5499  0.5582  0.9552
  498MOL0     C67135  -0.008   1.513  10.637 -0.5540  0.2232  0.3239
  498MOL0     C67136   0.008   1.636  10.554 -1.2498 -0.4342  1.2327
  498MOL0     C67137   0.087   1.740  10.636  0.7631  0.4086  1.0866
  498MOL0     C67138   0.101   1.877  10.555 -1.0427 -0.1316 -0.1480
  498MOL0     C67139   0.156   1.984  10.663  0.0166  0.1626 -0.2860
  498MOL0    Cl67140   0.327   1.954  10.708 -0.3440 -0.1005  0.0057
  498MOL0     C67141   0.534   1.289  11.039 -0.0769  0.4246  0.5323
  498MOL0     C67142   0.638   1.215  11.083 -0.0513 -0.1597  1.0986
  498MOL0     O67143   0.761   1.014  11.273  0.2015  0.2254 -0.1354
  498MOL0     C67144   1.053   0.940  11.074  0.2535  0.4231 -0.0278
  498MOL0     C67145   1.182   0.905  11.073 -1.2087  0.2772  0.2580
  498MOL0     N67146   1.911   1.154  11.297  1.0970 -0.3356 -0.2443
  498MOL0     N67147   2.008   1.116  11.368  0.5136 -0.3179  0.1188
  498MOL0     C67148   2.972   1.510  11.296 -0.5567 -0.3764 -0.5800
  498MOL0     C67149   3.047   1.609  11.347 -0.4885  0.1986 -0.1907
  498MOL0     C67150   3.470   1.798  11.353 -0.1207  0.0590  0.0440
  498MOL0     C67151   3.437   1.892  11.454  0.2552  0.3999  0.2511
  498MOL0     C67152   3.514   2.004  11.486 -0.4127 -0.1950  0.1604
  498MOL0     C67153   3.632   2.030  11.406 -0.2258  0.8131 -0.6427
  498MOL0     O67154   3.711   2.139  11.424  0.1550 -0.1131 -0.3124
  498MOL0     C67155   3.704   2.213  11.545 -0.4517 -0.0762  0.0997
  498MOL0     C67156   3.827   2.316  11.548  0.0731  0.1579 -0.0804
  498MOL0     C67157   3.956   2.246  11.575 -0.1750 -0.1614  0.8463
  498MOL0     C67158   4.080   2.330  11.526  0.6597 -0.4560 -2.0360
  498MOL0     C67159   4.102   2.457  11.609 -0.2719  1.7814  0.4906
  498MOL0     C67160   4.139   2.538  11.690  0.6199  0.3837 -0.0338
  498MOL0     C67161   3.671   1.934  11.317 -0.3245  0.5079  0.6190
  498MOL0     C67162   3.597   1.821  11.285 -0.6599 -0.5474  0.2243
  498MOL0     H67163   3.332   1.422  11.368  0.0271  0.7522  1.0933
  498MOL0     H67164   3.181   1.241  11.322 -0.1200  0.1249  2.5799
  498MOL0     H67165   2.958   1.096  11.296  0.9970  1.3492 -0.2845
  498MOL0     H67166   2.867   1.207  11.404 -0.5511  0.2349 -0.7233
  498MOL0     H67167   2.760   1.112  11.149  0.5508 -1.0104  0.6339
  498MOL0     H67168   2.749   1.013  11.291  3.2313  0.1851 -0.8093
  498MOL0     H67169   2.620   1.183  11.424  1.1669  4.2795 -0.1118
  498MOL0     H67170   2.635   1.306  11.304  1.1611  0.4073 -3.0362
  498MOL0     H67171   2.419   1.237  11.256 -2.7534 -1.2590 -2.8957
  498MOL0     H67172   2.526   1.206  11.132  1.0369  1.9753  0.7068
  498MOL0     H67173   2.526   0.953  11.190  1.3806  0.0995 -0.6024
  498MOL0     H67174   2.465   0.995  11.346  3.2050  1.0440  0.7493
  498MOL0     H67175   2.256   1.092  11.194  0.1000 -0.2184 -1.1832
  498MOL0     H67176   2.324   0.987  11.081  1.7243  0.9562 -0.1202
  498MOL0     H67177   2.196   0.830  11.171  0.7415  1.1745 -0.2863
  498MOL0     H67178   2.332   0.809  11.292 -0.4478 -0.3184  3.4523
  498MOL0     H67179   2.209   0.970  11.448 -0.8546  0.5943  0.2499
  498MOL0     H67180   2.125   0.817  11.404 -0.1563 -0.3158 -1.0282
  498MOL0     H67181   1.962   0.855  11.168 -0.2549 -0.5280 -0.0896
  498MOL0     H67182   1.771   1.128  11.050  1.6890  0.7885  0.4464
  498MOL0     H67183   1.785   0.964  11.038 -1.5544 -0.7045 -0.1271
  498MOL0     H67184   1.564   1.020  11.086  2.9883 -1.3687 -3.0782
  498MOL0     H67185   1.597   1.096  11.239 -0.9828  0.5451 -0.8479
  498MOL0     H67186   1.677   0.896  11.344 -3.0768 -0.0859  2.8535
  498MOL0     H67187   1.645   0.799  11.195  3.4008  0.6361  2.0342
  498MOL0     H67188   1.441   0.969  11.352 -0.3783  0.0869  0.5601
  498MOL0     H67189   1.453   0.788  11.368 -0.5299  0.8774 -0.0688
  498MOL0     H67190   1.230   0.886  11.419 -0.2082 -3.2274  0.3661
  498MOL0     H67191   0.930   1.054  11.467 -1.4170 -0.0244  0.2744
  498MOL0     H67192   0.898   0.875  11.476  1.1270 -1.2345  2.6880
  498MOL0     H67193   1.047   0.938  11.542 -1.1627 -5.6902 -0.2003
  498MOL0     H67194   0.621   0.957  10.870 -1.5381 -1.4590  0.6486
  498MOL0     H67195   0.435   1.101  10.781  1.3328  3.0676 -2.7351
  498MOL0     H67196   0.361   1.337  10.680  2.1954 -1.3305  1.2392
  498MOL0     H67197   0.271   1.199  10.760 -0.4581 -0.1905  0.3335
  498MOL0     H67198   0.085   1.358  10.823  0.2881 -0.7457 -0.4825
  498MOL0     H67199   0.204   1.488  10.810  1.8009 -1.9607  1.5447
  498MOL0     H67200   0.079   1.328  10.580  0.3571  1.6341 -1.2235
  498MOL0     H67201   0.187   1.458  10.557  1.4612 -0.3965  1.4294
  498MOL0     H67202  -0.104   1.462  10.622 -2.5377  3.3673  1.1985
  498MOL0     H67203  -0.025   1.548  10.739 -0.0475 -2.5782  1.4358
  498MOL0     H67204  -0.086   1.687  10.527 -2.0422 -1.7160  1.4825
  498MOL0     H67205   0.064   1.612  10.463 -1.7000 -2.8662  1.5381
  498MOL0     H67206   0.027   1.759  10.725 -2.4020  0.5673 -0.9209
  498MOL0     H67207   0.183   1.695  10.663  1.1840 -0.4176 -1.4724
  498MOL0     H67208   0.006   1.902  10.506 -0.8733  1.0598  0.0965
  498MOL0     H67209   0.177   1.871  10.478 -2.5491  1.3990 -1.8734
  498MOL0     H67210   0.089   1.987  10.749  0.5865 -1.4049  0.2406
  498MOL0     H67211   0.162   2.082  10.614  0.0644  0.9512  1.2508
  498MOL0     H67212   0.512   1.385  11.085 -2.4271 -0.1532  0.7191
  498MOL0     H67213   0.700   1.245  11.167  0.7305  2.0339 -0.1700
  498MOL0     H67214   1.019   0.944  10.971  2.0759 -3.1662 -0.9697
  498MOL0     H67215   1.230   0.878  10.979  1.9332  1.1141  1.4765
  498MOL0     H67216   2.869   1.524  11.265 -1.4284 -0.6510  1.9567
  498MOL0     H67217   3.002   1.705  11.367 -0.9233  0.1597 -0.9568
  498MOL0     H67218   3.341   1.879  11.502 -1.0145  0.2294 -2.1639
  498MOL0     H67219   3.473   2.069  11.564  0.0637  0.4474 -0.1152
  498MOL0     H67220   3.609   2.267  11.549  0.3601  1.7285 -2.5757
  498MOL0     H67221   3.701   2.151  11.635  0.0561  1.5562  1.2851
  498MOL0     H67222   3.814   2.386  11.631 -0.4427 -2.6388  2.3494
  498MOL0     H67223   3.841   2.365  11.451  1.8396 -0.4665 -0.1768
  498MOL0     H67224   3.952   2.151  11.522 -0.3454 -1.4229  2.9941
  498MOL0     H67225   3.965   2.214  11.679 -0.1587 -1.5423  0.4293
  498MOL0     H67226   4.071   2.367  11.424 -1.0769  2.0160 -1.0804
  498MOL0     H67227   4.172   2.270  11.529  2.1295  1.7074 -1.0569
  498MOL0     H67228   4.175   2.609  11.762  1.4315  2.1194 -2.0406
  498MOL0     H67229   3.769   1.962  11.280 -1.2491  1.1869 -1.4435
  498MOL0     H67230   3.639   1.766  11.201  2.5938  2.5271 -0.3834
  499MOL0     O67231   5.838   3.397   2.082 -0.3862 -0.6693  0.2683
  499MOL0     C67232   5.890   3.455   1.983 -0.4621  1.0790  0.1609
  499MOL0     O67233   5.826   3.495   1.878  0.1263 -0.0130  0.6776
  499MOL0     C67234   5.695   3.462   1.846  0.4842 -0.1323  1.1516
  499MOL0     C67235   5.622   3.568   1.783 -1.0487  0.0637  0.1423
  499MOL0     C67236   5.494   3.542   1.737  0.4072  0.0218  0.0785
  499MOL0     C67237   5.427   3.424   1.768 -0.1191 -0.7987 -0.2103
  499MOL0     O67238   5.290   3.425   1.755  0.8851  0.1042  0.6875
  499MOL0     C67239   5.219   3.305   1.764  0.2216  0.5678 -0.6008
  499MOL0     C67240   5.079   3.317   1.716  1.4157 -0.1364 -0.4850
  499MOL0     C67241   5.088   3.365   1.573  0.3298 -0.2059 -0.0204
  499MOL0     C67242   4.968   3.342   1.478  0.0614 -0.6470 -0.1856
  499MOL0     C67243   4.821   3.360   1.529 -0.2599 -0.2188 -0.6155
  499MOL0     C67244   4.724   3.351   1.413 -1.4229 -0.1159 -0.5668
  499MOL0     C67245   4.592   3.416   1.461 -0.1021  0.0895 -0.1769
  499MOL0     C67246   4.494   3.405   1.339  0.4388  0.5168 -0.0131
  499MOL0     N67247   4.462   3.525   1.255 -0.7814  0.5642  0.0740
  499MOL0     C67248   4.340   3.585   1.253 -0.6847  0.7130  1.2864
  499MOL0     C67249   4.355   3.676   1.154  0.2927 -0.0166 -0.4038
  499MOL0     C67250   4.261   3.775   1.097 -1.2546  0.8586 -0.2422
  499MOL0     C67251   4.202   3.713   0.967  0.2862 -0.8981 -0.1371
  499MOL0     C67252   4.095   3.809   0.905 -0.8293  1.1484  0.0027
  499MOL0     C67253   4.051   3.768   0.754  0.5576  0.7175 -0.3686
  499MOL0     O67254   4.013   3.629   0.742  0.0731 -0.4072 -0.2626
  499MOL0     C67255   3.876   3.607   0.712 -0.2786  0.3626  0.8252
  499MOL0     C67256   3.836   3.582   0.582  0.1679 -0.9026  0.0441
  499MOL0     C67257   3.697   3.559   0.560  0.1851 -0.3816 -0.2107
  499MOL0     C67258   3.650   3.504   0.416 -0.7475 -0.1608 -0.3519
  499MOL0     C67259   3.613   3.582   0.664  1.4106 -0.1189 -0.0870
  499MOL0     C67260   3.466   3.560   0.654  0.2096  0.2008 -0.7598
  499MOL0     O67261   3.388   3.494   0.755  0.0310 -0.0102 -0.1562
  499MOL0     C67262   3.252   3.492   0.755  0.6020  0.3227 -0.7787
  499MOL0     C67263   3.169   3.452   0.646 -0.2051 -0.8232  0.5411
  499MOL0     C67264   3.029   3.454   0.660 -0.3830  0.3939 -0.5292
  499MOL0     C67265   2.966   3.485   0.781 -1.3299 -0.1695 -0.2813
  499MOL0     O67266   2.833   3.485   0.775 -0.2952 -0.4241  0.2817
  499MOL0     C67267   2.758   3.534   0.889 -1.0270 -0.1240 -0.4140
  499MOL0     C67268   2.602   3.526   0.862 -0.2176 -0.5844 -0.0321
  499MOL0     C67269   2.530   3.587   0.985  0.5625  0.1493 -0.7449
  499MOL0     C67270   2.537   3.509   1.111  0.2476 -0.6576  0.4614
  499MOL0     C67271   2.419   3.518   1.215  0.1001 -0.5996 -0.7502
  499MOL0     C67272   2.418   3.661   1.284 -0.8813 -0.0113 -0.0656
  499MOL0     C67273   2.289   3.675   1.365  0.0947 -0.1723 -0.3197
  499MOL0     C67274   2.291   3.795   1.452  0.4541  0.2494 -0.0790
  499MOL0    Cl67275   2.134   3.825   1.528 -0.1030 -0.6212  0.1379
  499MOL0     C67276   3.042   3.518   0.893 -1.1045 -0.5407  0.3124
  499MOL0     C67277   3.186   3.519   0.878  0.4831  0.3410 -0.7879
  499MOL0     O67278   3.422   3.604   0.547 -0.1250 -0.5922 -0.2464
  499MOL0     C67279   3.659   3.582   0.796 -0.0452 -0.3233 -0.1983
  499MOL0     C67280   3.794   3.597   0.818 -0.8017  0.2763 -0.4030
  499MOL0     N67281   4.484   3.665   1.101 -0.5073 -0.1892  0.8873
  499MOL0     N67282   4.544   3.575   1.160  0.4536  0.4107 -0.1680
  499MOL0     C67283   5.492   3.324   1.831 -0.2374 -0.1064 -0.0625
  499MOL0     C67284   5.625   3.341   1.874 -0.0261  0.4688  0.7122
  499MOL0     C67285   6.035   3.498   1.997  0.7127 -0.1309  0.5023
  499MOL0     C67286   6.113   3.552   1.889  0.6350  0.2402 -0.1876
  499MOL0     C67287   6.250   3.567   1.892  0.1252  0.9315  0.4069
  499MOL0     C67288   6.319   3.543   2.007 -0.5417  0.0381 -0.5804
  499MOL0     O67289   6.456   3.550   1.999  0.4790 -0.8265 -0.1590
  499MOL0     C67290   6.538   3.505   2.108 -0.0461 -1.0406  0.9744
  499MOL0     C67291   6.667   3.587   2.109 -0.1787  0.3048  0.4157
  499MOL0     C67292   6.764   3.537   2.226 -0.4329  0.7247  0.2477
  499MOL0     C67293   6.900   3.593   2.217 -0.5884  0.6654  0.3868
  499MOL0     C67294   6.969   3.600   2.345 -0.6610 -0.0683  0.7808
  499MOL0     C67295   7.009   3.596   2.461  0.0830  0.1492 -0.0406
  499MOL0     C67296   6.254   3.500   2.118  0.2784 -0.3637  0.0800
  499MOL0     C67297   6.110   3.483   2.113 -0.0661 -0.2836  0.1293
  499MOL0     H67298   5.666   3.667   1.785 -0.2214 -0.2815  1.9043
  499MOL0     H67299   5.447   3.614   1.671  1.6109 -0.9600 -1.9109
  499MOL0     H67300   5.263   3.219   1.712  1.1891 -1.0650  2.6537
  499MOL0     H67301   5.218   3.279   1.870  1.7376  3.1693  0.1410
  499MOL0     H67302   5.030   3.219   1.723  0.6085  0.3601  1.6187
  499MOL0     H67303   5.028   3.396   1.771 -0.3682 -1.0324 -0.7424
  499MOL0     H67304   5.112   3.471   1.578 -1.6242  0.2191  1.6139
  499MOL0     H67305   5.173   3.311   1.529  0.2717 -1.5328  1.3835
  499MOL0     H67306   4.978   3.405   1.389  2.3639 -0.0054  0.4567
  499MOL0     H67307   4.978   3.239   1.444  1.1885  0.1364 -2.3830
  499MOL0     H67308   4.793   3.290   1.608 -2.8403 -1.8946 -2.8456
  499MOL0     H67309   4.809   3.458   1.577 -4.6621 -0.8794  0.0346
  499MOL0     H67310   4.756   3.406   1.325 -1.3380  2.8018  1.1506
  499MOL0     H67311   4.711   3.246   1.386  1.8540 -0.6960 -0.3562
  499MOL0     H67312   4.548   3.375   1.553  0.9697  0.4573  0.5179
  499MOL0     H67313   4.614   3.522   1.476 -1.0251  0.2000  0.5188
  499MOL0     H67314   4.403   3.366   1.386  1.3817 -0.3017  1.1918
  499MOL0     H67315   4.525   3.324   1.273  1.5797  0.0445  1.0606
  499MOL0     H67316   4.249   3.568   1.311 -1.3867  0.9710  0.2949
  499MOL0     H67317   4.179   3.798   1.165 -2.9540  0.7514 -2.1762
  499MOL0     H67318   4.313   3.870   1.083  0.8290  0.0299  1.2671
  499MOL0     H67319   4.146   3.624   0.994 -3.3999  1.4272  0.5959
  499MOL0     H67320   4.277   3.675   0.897  0.0797  0.4428 -1.1242
  499MOL0     H67321   4.142   3.907   0.892  2.1160 -0.3590 -1.8294
  499MOL0     H67322   4.002   3.813   0.963 -0.1838 -1.0425  1.3183
  499MOL0     H67323   4.133   3.787   0.684  1.6206  1.9053  1.1215
  499MOL0     H67324   3.962   3.825   0.728 -0.5353 -1.4422 -1.6887
  499MOL0     H67325   3.907   3.571   0.500  1.4342 -1.1419  1.1477
  499MOL0     H67326   3.565   3.437   0.431 -0.8682 -0.4262 -2.0269
  499MOL0     H67327   3.621   3.598   0.367  0.8826  1.0466  0.8857
  499MOL0     H67328   3.725   3.444   0.364 -0.1012 -0.9696  1.4518
  499MOL0     H67329   3.221   3.423   0.555  0.8960  0.5735  0.6795
  499MOL0     H67330   2.970   3.425   0.573 -1.4063 -0.2136  0.3429
  499MOL0     H67331   2.792   3.474   0.974  0.1751 -0.7270 -1.2738
  499MOL0     H67332   2.786   3.638   0.906  0.7343 -0.0473 -3.1443
  499MOL0     H67333   2.571   3.578   0.771 -0.5220  0.9818  0.9206
  499MOL0     H67334   2.575   3.421   0.850  0.5922 -0.5247 -3.3599
  499MOL0     H67335   2.425   3.580   0.956  0.1294 -3.5740  1.0533
  499MOL0     H67336   2.562   3.688   1.012  1.1897 -0.4513  0.8971
  499MOL0     H67337   2.542   3.406   1.075  0.2298 -1.5999  2.9461
  499MOL0     H67338   2.625   3.540   1.170 -0.3943  0.2336  0.9774
  499MOL0     H67339   2.423   3.438   1.290  1.7571  1.6934  1.7903
  499MOL0     H67340   2.329   3.506   1.155  0.0030 -0.2821 -0.6700
  499MOL0     H67341   2.507   3.660   1.347  0.7139  1.0166 -2.2123
  499MOL0     H67342   2.431   3.740   1.210 -0.4395  1.8110  1.8861
  499MOL0     H67343   2.266   3.590   1.430  2.2240  0.2622  1.0949
  499MOL0     H67344   2.206   3.683   1.293 -0.1239 -0.4192 -0.0963
  499MOL0     H67345   2.323   3.885   1.398  1.9855  0.4271  1.0659
  499MOL0     H67346   2.364   3.776   1.532  0.2638 -2.1597 -0.4171
  499MOL0     H67347   2.996   3.553   0.985 -4.6779  1.6988 -2.0549
  499MOL0     H67348   3.254   3.533   0.961 -0.7895 -1.4993  0.6667
  499MOL0     H67349   3.593   3.573   0.881  0.1383 -0.1518 -0.0361
  499MOL0     H67350   3.842   3.622   0.912  1.7217  0.6327 -1.6941
  499MOL0     H67351   5.444   3.235   1.871  1.6959 -1.7764 -1.2364
  499MOL0     H67352   5.675   3.259   1.925 -1.4323  0.1958  1.7215
  499MOL0     H67353   6.054   3.580   1.803  0.9414 -0.4795 -0.6368
  499MOL0     H67354   6.298   3.598   1.800  1.8825 -1.1351  0.5636
  499MOL0     H67355   6.490   3.519   2.206  0.6503  0.3108  1.1431
  499MOL0     H67356   6.561   3.399   2.097  3.6630 -0.1587 -1.7202
  499MOL0     H67357   6.660   3.696   2.115  1.7625  0.3921  2.7176
  499MOL0     H67358   6.721   3.562   2.017  0.6186 -2.4435  1.5216
  499MOL0     H67359   6.774   3.429   2.239  1.5378  1.0795  2.3701
  499MOL0     H67360   6.720   3.563   2.323 -0.0107 -0.7811  0.8608
  499MOL0     H67361   6.882   3.695   2.182 -0.6766  0.6159  0.2899
  499MOL0     H67362   6.961   3.542   2.142 -0.9472 -0.3365  0.7737
  499MOL0     H67363   7.055   3.581   2.556  2.5089  3.6440 -0.4831
  499MOL0     H67364   6.308   3.482   2.210  1.0854 -1.2989 -0.5680
  499MOL0     H67365   6.055   3.459   2.203 -0.5107  0.2743  0.0209
  500MOL0     O67366   2.214   7.413   6.592 -0.0233 -0.5484  0.3055
  500MOL0     C67367   2.238   7.298   6.546 -0.8109  0.5729  1.0489
  500MOL0     O67368   2.146   7.205   6.542  0.0763  0.7537  0.5270
  500MOL0     C67369   2.016   7.226   6.555  0.2122 -0.6057 -0.4207
  500MOL0     C67370   1.951   7.122   6.622  0.5809 -0.6266 -0.1837
  500MOL0     C67371   1.810   7.135   6.661 -0.3182 -0.3044  0.8499
  500MOL0     C67372   1.742   7.254   6.632  0.1918 -0.0772  0.4217
  500MOL0     O67373   1.613   7.282   6.673  0.0783  0.1533  0.6863
  500MOL0     C67374   1.561   7.224   6.797 -0.3459 -0.5001  0.0639
  500MOL0     C67375   1.456   7.116   6.775  0.9418  0.0807  0.2732
  500MOL0     C67376   1.348   7.143   6.673 -0.2522  0.0862 -0.5901
  500MOL0     C67377   1.239   7.229   6.742  1.0479  0.2808  1.6625
  500MOL0     C67378   1.116   7.230   6.646  0.4392  0.0983  0.7513
  500MOL0     C67379   1.020   7.346   6.668  0.1744 -1.0934 -0.2146
  500MOL0     C67380   0.907   7.347   6.571  0.0515  0.5992  0.9277
  500MOL0     C67381   0.805   7.463   6.605  0.2957 -0.4513  0.5043
  500MOL0     N67382   0.860   7.601   6.617  0.5361  0.1016 -0.0167
  500MOL0     C67383   0.865   7.676   6.729  0.4035 -0.2178  0.6481
  500MOL0     C67384   0.958   7.771   6.697 -0.2073  0.1122 -0.2578
  500MOL0     C67385   0.997   7.888   6.783  0.8044 -0.1075 -0.0991
  500MOL0     C67386   0.878   7.952   6.863 -0.5188 -0.3596  0.5024
  500MOL0     C67387   0.928   8.085   6.917 -0.4408 -0.3194 -0.4821
  500MOL0     C67388   0.825   8.148   7.026  0.5499 -0.8331  0.3468
  500MOL0     O67389   0.804   8.066   7.141 -0.5985 -0.0934 -0.4134
  500MOL0     C67390   0.681   8.092   7.199  0.2942 -0.0549 -1.4803
  500MOL0     C67391   0.607   7.986   7.252 -0.7627  0.5198 -1.0316
  500MOL0     C67392   0.489   7.999   7.317  0.1719 -0.2449  0.5808
  500MOL0     C67393   0.439   7.881   7.390  0.4047  0.3319 -0.6397
  500MOL0     C67394   0.433   8.136   7.328 -1.0236  1.4469 -0.3192
  500MOL0     C67395   0.300   8.153   7.394  0.7008  0.4941 -0.2002
  500MOL0     O67396   0.204   8.055   7.393 -0.3477 -0.5289  0.8730
  500MOL0     C67397   0.078   8.070   7.454  0.2711 -0.1931  0.6103
  500MOL0     C67398   0.032   8.172   7.541 -0.2697 -0.5863 -0.0036
  500MOL0     C67399  -0.098   8.178   7.586 -0.1809  0.3712 -0.2782
  500MOL0     C67400  -0.187   8.075   7.551 -0.5232  0.5174 -0.1402
  500MOL0     O67401  -0.324   8.068   7.583  0.5712  1.0373 -0.2909
  500MOL0     C67402  -0.372   8.151   7.697  0.0139  0.1982  0.9205
  500MOL0     C67403  -0.528   8.139   7.695  0.5534 -0.2413 -1.2774
  500MOL0     C67404  -0.603   8.194   7.821 -0.2336  0.5807  1.0200
  500MOL0     C67405  -0.570   8.338   7.864  0.7664 -0.6516 -0.4570
  500MOL0     C67406  -0.622   8.370   7.998 -0.1286 -0.6505 -0.4028
  500MOL0     C67407  -0.771   8.393   7.990  0.0290 -0.3948  0.0891
  500MOL0     C67408  -0.820   8.419   8.123  0.4898 -0.2345  0.3085
  500MOL0     C67409  -0.974   8.406   8.132 -0.2464 -0.2843  0.7886
  500MOL0    Cl67410  -1.044   8.489   8.267 -0.4953  0.1988  0.1651
  500MOL0     C67411  -0.143   7.966   7.484  0.5707  0.2012  0.4682
  500MOL0     C67412  -0.015   7.963   7.440 -0.5603  1.0510  0.5132
  500MOL0     O67413   0.278   8.262   7.434 -0.3848  0.3352  0.0968
  500MOL0     C67414   0.500   8.243   7.264  0.2406  0.1069  0.0172
  500MOL0     C67415   0.624   8.220   7.198  0.3520 -0.1525  0.7492
  500MOL0     N67416   1.007   7.743   6.568  0.1779 -0.3130 -0.0276
  500MOL0     N67417   0.944   7.641   6.524 -0.4731 -0.3675 -0.0458
  500MOL0     C67418   1.810   7.356   6.566  0.1339 -0.1570 -0.3858
  500MOL0     C67419   1.943   7.349   6.521 -0.4213  0.3334 -0.4373
  500MOL0     C67420   2.380   7.260   6.508  0.1822  0.0502 -0.0431
  500MOL0     C67421   2.412   7.134   6.453 -0.1850  0.0268  0.0458
  500MOL0     C67422   2.548   7.100   6.428 -0.6110 -0.0487  0.1549
  500MOL0     C67423   2.651   7.190   6.455 -0.5201  0.4373  0.5778
  500MOL0     O67424   2.779   7.150   6.429  0.1185 -0.3186 -0.3433
  500MOL0     C67425   2.858   7.137   6.549  0.9889 -1.0161  0.0583
  500MOL0     C67426   3.003   7.100   6.524 -0.6616 -0.4150  0.3358
  500MOL0     C67427   3.063   7.168   6.400 -0.3465  0.1870  0.5331
  500MOL0     C67428   3.222   7.147   6.393  1.0010  0.5547 -0.6935
  500MOL0     C67429   3.265   7.006   6.385  0.5640 -0.2479  0.2709
  500MOL0     C67430   3.292   6.886   6.379  0.4754  0.0041  0.5983
  500MOL0     C67431   2.616   7.320   6.494  0.1284  0.5127  0.2871
  500MOL0     C67432   2.484   7.354   6.525  0.8525  0.0450  0.2285
  500MOL0     H67433   1.998   7.026   6.644 -0.8844 -1.2426  0.3925
  500MOL0     H67434   1.752   7.062   6.717 -2.7847  1.2002  0.3781
  500MOL0     H67435   1.636   7.172   6.857  1.3954  0.2737 -1.3836
  500MOL0     H67436   1.508   7.293   6.863 -0.3085 -0.8641  0.4856
  500MOL0     H67437   1.496   7.022   6.737  0.9012 -0.1464  0.7799
  500MOL0     H67438   1.417   7.089   6.874  0.3491 -3.1269 -0.7353
  500MOL0     H67439   1.406   7.188   6.592  2.2365 -0.9578  0.4882
  500MOL0     H67440   1.304   7.049   6.639 -1.2526  0.4793 -0.4198
  500MOL0     H67441   1.210   7.192   6.840 -1.1581 -3.2034 -0.0987
  500MOL0     H67442   1.276   7.332   6.741  0.7498  0.4464 -0.9437
  500MOL0     H67443   1.146   7.221   6.541 -0.8344 -1.3538  0.4798
  500MOL0     H67444   1.056   7.147   6.683 -1.8870  2.1088  1.8256
  500MOL0     H67445   0.986   7.348   6.772 -1.0502  1.1564 -0.5992
  500MOL0     H67446   1.077   7.439   6.658  1.0917 -1.3664  1.9157
  500MOL0     H67447   0.944   7.362   6.469  1.0075  0.2087  1.2028
  500MOL0     H67448   0.854   7.251   6.570  2.1167 -0.6757  2.9047
  500MOL0     H67449   0.756   7.438   6.699  0.8743 -1.0308  0.6567
  500MOL0     H67450   0.729   7.470   6.526 -0.9660  0.8152  1.7616
  500MOL0     H67451   0.797   7.670   6.814 -2.2192  1.0199 -1.1938
  500MOL0     H67452   1.075   7.844   6.846  1.4447 -2.7608 -2.5178
  500MOL0     H67453   1.034   7.973   6.726  1.6439  0.0076  0.5851
  500MOL0     H67454   0.854   7.880   6.942 -0.1021 -0.6354  0.3825
  500MOL0     H67455   0.795   7.974   6.794 -1.1455 -1.3176  0.9291
  500MOL0     H67456   0.938   8.152   6.832  0.9108 -0.9730 -0.8717
  500MOL0     H67457   1.033   8.079   6.949 -0.7817  2.4411  1.5548
  500MOL0     H67458   0.732   8.174   6.974  0.4881 -0.8286  0.4591
  500MOL0     H67459   0.859   8.248   7.052  1.0759 -0.7366 -0.6663
  500MOL0     H67460   0.656   7.890   7.256  1.0874  1.3680 -2.2919
  500MOL0     H67461   0.517   7.808   7.411  2.4735  1.9250 -2.3721
  500MOL0     H67462   0.397   7.925   7.481  1.0883  1.0345 -0.6550
  500MOL0     H67463   0.360   7.835   7.329  1.6993 -2.2454 -0.4932
  500MOL0     H67464   0.100   8.252   7.569  0.4652 -0.5552 -1.7894
  500MOL0     H67465  -0.127   8.263   7.646  2.9605  0.7153  0.9260
  500MOL0     H67466  -0.349   8.110   7.796 -1.8644  2.2236  2.2654
  500MOL0     H67467  -0.339   8.255   7.694  1.2810 -0.1543 -2.2709
  500MOL0     H67468  -0.576   8.185   7.609 -1.2391 -0.0032 -0.1972
  500MOL0     H67469  -0.558   8.034   7.690  0.9878 -0.6297  1.9680
  500MOL0     H67470  -0.582   8.131   7.908  0.0748  0.5888  0.9538
  500MOL0     H67471  -0.710   8.190   7.799  0.4016 -2.2366 -2.5790
  500MOL0     H67472  -0.462   8.346   7.872  1.0914 -2.9796 -1.5670
  500MOL0     H67473  -0.607   8.407   7.787  2.5162 -0.2107 -0.9438
  500MOL0     H67474  -0.583   8.468   8.029 -1.6328 -0.1807  0.1031
  500MOL0     H67475  -0.616   8.295   8.078  0.2504  1.6768  1.9130
  500MOL0     H67476  -0.793   8.476   7.922  2.4416  1.8852  1.8837
  500MOL0     H67477  -0.831   8.307   7.959 -1.7171  0.6375  0.4917
  500MOL0     H67478  -0.798   8.522   8.151  0.2324 -0.5607  1.7470
  500MOL0     H67479  -0.778   8.354   8.200  1.0064 -1.6125 -1.0629
  500MOL0     H67480  -1.006   8.302   8.144 -2.4853  0.5823  3.0003
  500MOL0     H67481  -1.024   8.440   8.041 -0.2028  0.8305  1.1655
  500MOL0     H67482  -0.205   7.882   7.457  0.6528  0.4112 -0.4169
  500MOL0     H67483   0.017   7.876   7.382 -1.2343  0.6937  0.6734
  500MOL0     H67484   0.470   8.347   7.268  0.3182  0.1070  0.9065
  500MOL0     H67485   0.670   8.306   7.149  0.0761 -0.8115 -0.7377
  500MOL0     H67486   1.761   7.452   6.555 -1.6683 -1.1612 -1.5705
  500MOL0     H67487   1.987   7.441   6.483 -0.4568  0.5258 -0.0105
  500MOL0     H67488   2.329   7.064   6.449 -0.0509 -0.2805  1.8692
  500MOL0     H67489   2.575   7.006   6.381 -0.7544  0.3521 -0.7700
  500MOL0     H67490   2.859   7.231   6.604 -0.4491 -0.2505 -1.1709
  500MOL0     H67491   2.815   7.060   6.613  1.4686 -1.4082 -0.0809
  500MOL0     H67492   2.999   6.992   6.509 -0.9893 -0.4545  0.6806
  500MOL0     H67493   3.055   7.131   6.615  2.4912 -1.2991 -1.0318
  500MOL0     H67494   3.042   7.275   6.408  1.4675  0.6572 -0.3920
  500MOL0     H67495   3.021   7.132   6.306 -0.9931 -1.1569  1.3142
  500MOL0     H67496   3.256   7.186   6.489  1.7959  2.3710 -1.6588
  500MOL0     H67497   3.245   7.217   6.312  1.0260  1.7485  0.3142
  500MOL0     H67498   3.305   6.780   6.390  1.0088 -0.1393 -1.0852
  500MOL0     H67499   2.693   7.393   6.514 -1.0636  1.6972  0.7642
  500MOL0     H67500   2.468   7.459   6.550  1.6494  1.1852 -3.3690
  501MOL0     O67501   5.217   8.094   2.771  0.5672 -0.0909 -0.2510
  501MOL0     C67502   5.272   8.152   2.675 -0.8921 -0.5280  1.3493
  501MOL0     O67503   5.208   8.211   2.565 -0.3186  0.8503 -0.0869
  501MOL0     C67504   5.068   8.186   2.545 -0.1978 -0.3231  0.0494
  501MOL0     C67505   4.982   8.257   2.631  0.5310  0.4093  0.8071
  501MOL0     C67506   4.844   8.241   2.607  0.1193 -0.0590  0.5238
  501MOL0     C67507   4.791   8.172   2.494 -0.3465 -1.0080 -0.5015
  501MOL0     O67508   4.650   8.179   2.478 -0.3979  0.7042 -0.1221
  501MOL0     C67509   4.584   8.134   2.357  0.0280 -1.6170  0.3263
  501MOL0     C67510   4.436   8.198   2.339 -0.2069  0.4035  0.9816
  501MOL0     C67511   4.346   8.164   2.456  0.8666 -0.3180 -0.6879
  501MOL0     C67512   4.376   8.227   2.590  0.0925 -0.5780  0.4941
  501MOL0     C67513   4.399   8.369   2.573 -0.5100 -0.5309  0.2297
  501MOL0     C67514   4.399   8.439   2.718  1.0166  0.3701 -0.3233
  501MOL0     C67515   4.445   8.582   2.706 -0.6905  0.4295 -0.6487
  501MOL0     C67516   4.330   8.669   2.662 -0.9763  0.2135 -0.4313
  501MOL0     N67517   4.366   8.807   2.654  0.7711 -0.2164  0.1872
  501MOL0     C67518   4.280   8.903   2.608 -0.1111 -0.3886 -0.0822
  501MOL0     C67519   4.360   9.013   2.607 -0.9424 -0.3465 -0.0716
  501MOL0     C67520   4.319   9.150   2.560  0.4126  0.2498  0.1363
  501MOL0     C67521   4.403   9.197   2.436  0.0580 -0.1923  0.7152
  501MOL0     C67522   4.306   9.272   2.350 -0.0918 -0.1981 -0.4241
  501MOL0     C67523   4.221   9.389   2.424 -0.3710  0.6324  0.3783
  501MOL0     O67524   4.313   9.483   2.481 -0.0459  0.6033  0.6858
  501MOL0     C67525   4.301   9.485   2.613  0.0983  0.5210  0.8194
  501MOL0     C67526   4.180   9.500   2.692 -0.4738 -0.0619  0.6204
  501MOL0     C67527   4.185   9.498   2.833  1.0987  0.0228  0.4172
  501MOL0     C67528   4.050   9.533   2.906  0.1042 -0.5407 -0.4105
  501MOL0     C67529   4.300   9.472   2.906  0.9460  0.4074  0.2181
  501MOL0     C67530   4.321   9.462   3.054  0.7459 -0.8371  0.7379
  501MOL0     O67531   4.432   9.396   3.097  0.0255 -0.6310 -0.3721
  501MOL0     C67532   4.489   9.394   3.224 -0.8875 -0.1575  0.4790
  501MOL0     C67533   4.456   9.475   3.330  0.4254  0.2368 -0.3885
  501MOL0     C67534   4.528   9.456   3.454 -0.8925  0.7641 -0.5369
  501MOL0     C67535   4.625   9.354   3.473  0.6604 -0.5463  0.9372
  501MOL0     O67536   4.687   9.334   3.592 -0.2217 -0.2121 -0.3081
  501MOL0     C67537   4.828   9.309   3.582 -0.3593  0.8115 -0.0904
  501MOL0     C67538   4.876   9.314   3.722 -0.0689 -0.3062 -0.7638
  501MOL0     C67539   5.023   9.336   3.733 -0.0194  0.5983  0.7131
  501MOL0     C67540   5.105   9.204   3.709  0.4279  0.4426 -0.0866
  501MOL0     C67541   5.258   9.236   3.699  0.5278 -0.0381  0.0495
  501MOL0     C67542   5.314   9.306   3.828 -0.5085  0.5053  0.2233
  501MOL0     C67543   5.309   9.223   3.953 -0.5553 -1.4626 -0.9068
  501MOL0     C67544   5.309   9.321   4.075 -0.5954  0.4304  0.2494
  501MOL0    Cl67545   5.449   9.439   4.064  0.6858  0.3843  0.2046
  501MOL0     C67546   4.664   9.288   3.356 -1.2390 -0.2189 -0.5473
  501MOL0     C67547   4.595   9.302   3.240  0.5321 -0.0573  0.1759
  501MOL0     O67548   4.236   9.510   3.126 -0.6650 -0.3242 -0.5797
  501MOL0     C67549   4.413   9.455   2.827  0.8507  0.7834 -0.3352
  501MOL0     C67550   4.416   9.469   2.687 -1.1060 -0.7787  0.1346
  501MOL0     N67551   4.484   8.983   2.672  0.3189  0.1702 -0.2952
  501MOL0     N67552   4.478   8.857   2.706 -0.2426 -0.3989  0.5354
  501MOL0     C67553   4.876   8.104   2.408 -0.4902 -0.0443  0.5498
  501MOL0     C67554   5.021   8.116   2.431  0.1104  0.2086  0.0003
  501MOL0     C67555   5.424   8.137   2.673  0.4933 -0.3133 -0.0859
  501MOL0     C67556   5.492   8.078   2.776  0.0556  1.1387  0.6509
  501MOL0     C67557   5.635   8.072   2.757  0.4099 -0.1395 -0.7240
  501MOL0     C67558   5.699   8.105   2.633 -0.7098  0.4063  0.5297
  501MOL0     O67559   5.829   8.067   2.610 -0.2807  0.7677 -0.2494
  501MOL0     C67560   5.930   8.158   2.587  0.0241  0.3215  0.3135
  501MOL0     C67561   5.946   8.268   2.697  0.3718  0.1736 -0.1838
  501MOL0     C67562   5.861   8.397   2.685 -0.0668 -1.1826 -0.6069
  501MOL0     C67563   5.908   8.483   2.568  0.3861 -0.1101  0.2071
  501MOL0     C67564   5.805   8.582   2.531  0.1005 -0.8989  0.5331
  501MOL0     C67565   5.745   8.682   2.504  0.1572 -0.2454 -0.5205
  501MOL0     C67566   5.619   8.150   2.530 -0.3151 -1.3487  0.8929
  501MOL0     C67567   5.485   8.171   2.551 -0.5024 -0.5095 -0.4631
  501MOL0     H67568   5.017   8.316   2.714  2.0505 -0.4694  0.8308
  501MOL0     H67569   4.769   8.280   2.674 -0.5139 -1.9346  0.9874
  501MOL0     H67570   4.649   8.175   2.279  1.7799  1.6154  3.1852
  501MOL0     H67571   4.570   8.026   2.365 -1.1836 -1.5343 -0.3660
  501MOL0     H67572   4.440   8.307   2.325  1.0323  1.0093  4.7843
  501MOL0     H67573   4.398   8.141   2.254 -1.0991  0.6897  1.1680
  501MOL0     H67574   4.247   8.204   2.434  0.9341  0.3715  0.1824
  501MOL0     H67575   4.341   8.057   2.473  1.4010 -0.2088  0.2527
  501MOL0     H67576   4.285   8.225   2.652  0.0756  0.2260  0.5141
  501MOL0     H67577   4.461   8.188   2.646  0.9920  1.0673  0.3521
  501MOL0     H67578   4.501   8.395   2.541 -1.2388  0.2914 -1.5089
  501MOL0     H67579   4.324   8.423   2.515  0.1933  3.2315  2.4257
  501MOL0     H67580   4.302   8.432   2.768  1.6075 -2.1592  0.5996
  501MOL0     H67581   4.471   8.388   2.783  0.2951 -0.1693  0.0637
  501MOL0     H67582   4.485   8.613   2.803 -2.1925 -3.5785  1.5051
  501MOL0     H67583   4.530   8.575   2.638  1.4766  3.6913  1.4383
  501MOL0     H67584   4.257   8.671   2.744 -2.4290  5.0551 -1.5234
  501MOL0     H67585   4.284   8.620   2.576 -2.0869  0.1841  0.1611
  501MOL0     H67586   4.188   8.902   2.552 -0.3033  0.2969  0.2220
  501MOL0     H67587   4.214   9.145   2.531  0.4775  1.7106 -0.4135
  501MOL0     H67588   4.341   9.208   2.650  3.1142  3.2978 -2.2456
  501MOL0     H67589   4.456   9.112   2.392 -3.2858 -2.0788 -0.0234
  501MOL0     H67590   4.475   9.265   2.482 -0.1467 -1.1647  2.5949
  501MOL0     H67591   4.233   9.199   2.313 -0.2547 -1.7253  2.5156
  501MOL0     H67592   4.356   9.304   2.258  1.2424 -2.2601 -0.4768
  501MOL0     H67593   4.145   9.346   2.488 -2.3137  1.7911 -1.0381
  501MOL0     H67594   4.165   9.439   2.344 -1.7918 -2.7642 -0.9354
  501MOL0     H67595   4.086   9.510   2.639 -0.3396 -0.6393  0.2649
  501MOL0     H67596   3.956   9.540   2.851 -2.1799 -1.6901  3.0251
  501MOL0     H67597   4.037   9.451   2.976  1.3786  1.6060  2.5533
  501MOL0     H67598   4.068   9.633   2.948  0.8098 -1.1681  0.8183
  501MOL0     H67599   4.382   9.553   3.316  0.9328  0.9334  0.7202
  501MOL0     H67600   4.501   9.528   3.531 -0.0005  0.1303  0.3878
  501MOL0     H67601   4.845   9.211   3.538 -1.6244  1.0028 -1.0606
  501MOL0     H67602   4.879   9.384   3.521  0.3833 -0.0933 -0.6107
  501MOL0     H67603   4.839   9.400   3.779  3.9403  3.0803 -2.7805
  501MOL0     H67604   4.858   9.217   3.771  1.6956  1.0925  3.0449
  501MOL0     H67605   5.047   9.373   3.833  1.7332  0.4904  0.3619
  501MOL0     H67606   5.057   9.414   3.664 -0.5407 -0.4911 -0.8443
  501MOL0     H67607   5.086   9.122   3.780  0.0177 -1.1431 -1.9441
  501MOL0     H67608   5.081   9.158   3.613 -1.9528 -0.5709  0.8920
  501MOL0     H67609   5.276   9.301   3.613  1.8817  0.3227  0.5752
  501MOL0     H67610   5.311   9.141   3.685  1.4711  0.5853 -0.7706
  501MOL0     H67611   5.422   9.326   3.822 -1.1467  4.6222  0.1116
  501MOL0     H67612   5.256   9.398   3.833 -1.3581  0.0212 -0.5331
  501MOL0     H67613   5.394   9.155   3.957 -0.2410 -1.1069 -1.4473
  501MOL0     H67614   5.219   9.161   3.958 -1.3871 -0.3992 -2.0627
  501MOL0     H67615   5.320   9.251   4.158  1.2271  0.2392 -0.1086
  501MOL0     H67616   5.218   9.381   4.087 -1.5106 -0.4144 -1.9596
  501MOL0     H67617   4.754   9.228   3.354 -1.5590 -0.7117 -0.3894
  501MOL0     H67618   4.634   9.255   3.150  0.2621  0.4773 -0.2296
  501MOL0     H67619   4.507   9.446   2.880 -0.0012  1.7792  1.4523
  501MOL0     H67620   4.504   9.443   2.628 -0.6447  2.0068 -0.5737
  501MOL0     H67621   4.834   8.061   2.318  1.8097  1.4569 -1.3608
  501MOL0     H67622   5.085   8.074   2.354  0.1529  3.9052 -2.2410
  501MOL0     H67623   5.445   8.055   2.871  0.4534 -0.6998  0.4559
  501MOL0     H67624   5.689   8.016   2.833  0.3236 -1.5694 -1.6805
  501MOL0     H67625   6.030   8.114   2.591 -0.5149 -0.8834  3.9667
  501MOL0     H67626   5.910   8.207   2.491  2.3609 -0.3294 -0.5824
  501MOL0     H67627   6.049   8.301   2.687 -0.0195  1.2543 -0.7915
  501MOL0     H67628   5.931   8.227   2.798 -1.0089  0.4561 -0.2442
  501MOL0     H67629   5.877   8.450   2.780  1.7021  3.2329 -3.0531
  501MOL0     H67630   5.755   8.374   2.672 -0.5357 -0.2213  1.0587
  501MOL0     H67631   5.915   8.424   2.477 -0.8231 -0.5363  0.3820
  501MOL0     H67632   6.012   8.516   2.582  1.0950 -1.4957 -1.4861
  501MOL0     H67633   5.693   8.774   2.488  0.2501  0.7466  3.7052
  501MOL0     H67634   5.678   8.183   2.446 -0.4300  0.5402  1.4909
  501MOL0     H67635   5.433   8.225   2.472 -0.8827  1.8102  1.2578
  502MOL0     O67636   2.097   1.826   9.650 -0.7607 -0.3386 -0.7074
  502MOL0     C67637   2.123   1.730   9.724 -0.1960  0.1032 -0.3608
  502MOL0     O67638   2.034   1.664   9.803 -0.2273  0.2240 -0.0782
  502MOL0     C67639   1.901   1.698   9.804  0.4724 -0.8953  0.2626
  502MOL0     C67640   1.852   1.784   9.906 -0.7096  0.3835 -0.3485
  502MOL0     C67641   1.722   1.820   9.912  0.5182  0.5573 -0.2113
  502MOL0     C67642   1.635   1.778   9.812  0.1517  0.3423  0.5377
  502MOL0     O67643   1.496   1.796   9.827 -0.5902 -0.6817 -0.1491
  502MOL0     C67644   1.422   1.701   9.901 -0.2941 -0.7693 -0.8707
  502MOL0     C67645   1.278   1.735   9.851  0.3562  0.2822 -0.1468
  502MOL0     C67646   1.234   1.878   9.901  0.3368 -0.1480  0.1641
  502MOL0     C67647   1.098   1.884   9.960 -0.5873 -0.3361  0.2571
  502MOL0     C67648   0.986   1.837   9.867  0.3795  0.0915 -0.1291
  502MOL0     C67649   0.978   1.908   9.734 -0.1900  0.3791  0.0008
  502MOL0     C67650   0.846   1.881   9.659  0.0442  0.4362  0.8652
  502MOL0     C67651   0.842   1.737   9.613 -0.4650  0.0886  0.2319
  502MOL0     N67652   0.719   1.714   9.538  0.5038 -0.1634 -0.8259
  502MOL0     C67653   0.596   1.702   9.603 -0.3952 -0.1940 -0.4523
  502MOL0     C67654   0.500   1.729   9.515 -0.6811 -0.7387 -0.4216
  502MOL0     C67655   0.346   1.714   9.526 -0.6901 -0.2183 -0.3699
  502MOL0     C67656   0.303   1.820   9.629 -0.0518  0.6031 -0.1771
  502MOL0     C67657   0.155   1.824   9.657 -0.3778  0.1764  0.1785
  502MOL0     C67658   0.080   1.910   9.557  0.2920  0.1795  0.3417
  502MOL0     O67659   0.079   2.044   9.612  0.6106  0.8285  0.8664
  502MOL0     C67660  -0.033   2.098   9.665 -0.6218  0.2980 -0.3663
  502MOL0     C67661  -0.136   2.019   9.723 -0.3056  0.2623  0.3606
  502MOL0     C67662  -0.250   2.070   9.781  0.8445  0.0588  0.5467
  502MOL0     C67663  -0.354   1.981   9.849 -0.6961 -0.1381  0.9056
  502MOL0     C67664  -0.260   2.215   9.773  0.3965  0.5990 -0.5232
  502MOL0     C67665  -0.368   2.294   9.829 -0.0745 -0.4743 -0.2521
  502MOL0     O67666  -0.333   2.410   9.891 -0.3600  0.4115 -0.6777
  502MOL0     C67667  -0.437   2.494   9.913  0.5266 -0.1457 -0.4794
  502MOL0     C67668  -0.520   2.474  10.031  0.5708 -0.0041  0.0042
  502MOL0     C67669  -0.627   2.552  10.054  0.0229 -0.7106  1.8531
  502MOL0     C67670  -0.652   2.663   9.964  0.1513  0.1936 -0.3267
  502MOL0     O67671  -0.765   2.739   9.992 -1.1814 -0.0868  0.2071
  502MOL0     C67672  -0.825   2.813   9.886  0.0206  0.1163 -0.6537
  502MOL0     C67673  -0.791   2.966   9.901  0.4593  0.3528  0.2316
  502MOL0     C67674  -0.877   3.059   9.807  0.0310 -0.4967  0.3900
  502MOL0     C67675  -1.015   3.123   9.861 -1.1418  0.3255  0.5961
  502MOL0     C67676  -0.983   3.239   9.959  0.1447 -0.9244  0.1909
  502MOL0     C67677  -0.980   3.376   9.888  0.4427  0.7292 -0.4692
  502MOL0     C67678  -1.025   3.486   9.981  0.5249 -0.0704 -0.2245
  502MOL0     C67679  -0.986   3.620   9.927  0.4257  0.2248  0.2791
  502MOL0    Cl67680  -0.813   3.632   9.905 -0.2672 -0.0161  0.4652
  502MOL0     C67681  -0.569   2.685   9.853  0.8288 -0.1898 -0.3403
  502MOL0     C67682  -0.462   2.603   9.835  0.0746 -0.7502  0.3356
  502MOL0     O67683  -0.483   2.257   9.829  0.5762  0.7753  0.4230
  502MOL0     C67684  -0.157   2.292   9.715 -0.2098 -0.0075  1.0169
  502MOL0     C67685  -0.043   2.234   9.669  0.2982 -0.8983 -0.0768
  502MOL0     N67686   0.567   1.761   9.402 -0.7868  0.4304 -0.2302
  502MOL0     N67687   0.697   1.732   9.408 -0.2794 -0.2846  0.4991
  502MOL0     C67688   1.686   1.701   9.707  0.8424 -0.2114 -0.2971
  502MOL0     C67689   1.814   1.660   9.699  0.5856  0.4877 -0.0937
  502MOL0     C67690   2.258   1.676   9.727 -0.2174  1.1948  0.1934
  502MOL0     C67691   2.289   1.563   9.806 -1.0961  0.3919 -0.0359
  502MOL0     C67692   2.423   1.513   9.809  0.4070 -0.2000 -0.3828
  502MOL0     C67693   2.515   1.566   9.722  0.0304 -0.8350  0.5932
  502MOL0     O67694   2.646   1.527   9.721  0.1327  0.1160  0.7083
  502MOL0     C67695   2.682   1.416   9.800 -0.0928  0.2482 -0.0502
  502MOL0     C67696   2.832   1.392   9.763  0.1624  1.3430 -0.1508
  502MOL0     C67697   2.936   1.475   9.835  0.3653 -0.4122 -0.3557
  502MOL0     C67698   3.073   1.411   9.831 -0.6435  0.2399  0.6086
  502MOL0     C67699   3.173   1.503   9.885  0.1275  0.0465  0.3828
  502MOL0     C67700   3.267   1.584   9.904  0.2459  0.2445  0.1381
  502MOL0     C67701   2.485   1.673   9.641  0.5696 -0.8526  0.6190
  502MOL0     C67702   2.358   1.726   9.643  0.0207 -0.9763  0.1819
  502MOL0     H67703   1.914   1.828   9.983  1.3744  0.7939 -2.1539
  502MOL0     H67704   1.672   1.863   9.998  2.1962 -4.2970  3.7004
  502MOL0     H67705   1.459   1.601   9.876 -0.8314 -1.0907 -0.3918
  502MOL0     H67706   1.443   1.717  10.007  2.5321 -1.0019 -1.3095
  502MOL0     H67707   1.273   1.721   9.742 -0.9795 -0.3777 -0.0198
  502MOL0     H67708   1.211   1.654   9.882  3.1695 -2.9915 -1.9663
  502MOL0     H67709   1.306   1.897   9.982  0.6163  2.1099 -0.5211
  502MOL0     H67710   1.250   1.960   9.830  0.8052  0.7946  1.3116
  502MOL0     H67711   1.094   1.829  10.055 -0.4172  0.5054  0.7587
  502MOL0     H67712   1.082   1.992   9.971  0.1977  0.3529 -3.7848
  502MOL0     H67713   1.014   1.733   9.846  2.6580  0.3482  1.2798
  502MOL0     H67714   0.889   1.840   9.918  0.8603 -0.4736  0.8599
  502MOL0     H67715   0.969   2.017   9.743  0.4268  0.7367 -2.7203
  502MOL0     H67716   1.073   1.883   9.684 -1.1478  0.6268 -2.0638
  502MOL0     H67717   0.767   1.899   9.731 -0.6300 -1.5521  0.6838
  502MOL0     H67718   0.843   1.955   9.578  0.5933  0.6172  1.0020
  502MOL0     H67719   0.853   1.674   9.702  2.0238 -0.7091 -0.5747
  502MOL0     H67720   0.920   1.715   9.540 -1.9302 -1.7381 -0.8851
  502MOL0     H67721   0.590   1.694   9.711  0.5790 -0.8026 -0.4330
  502MOL0     H67722   0.297   1.725   9.429  0.9372  1.4801 -1.0658
  502MOL0     H67723   0.326   1.615   9.568  4.2691 -0.7023  1.5297
  502MOL0     H67724   0.341   1.920   9.605  1.9311  0.1491  0.9169
  502MOL0     H67725   0.340   1.788   9.727 -0.6657  1.9857  0.5396
  502MOL0     H67726   0.157   1.867   9.757 -0.3014  1.1962 -0.2508
  502MOL0     H67727   0.104   1.727   9.665  0.5654 -0.6673 -2.7481
  502MOL0     H67728  -0.017   1.861   9.544  0.9388 -1.4175  1.2499
  502MOL0     H67729   0.118   1.908   9.454  3.0642  0.0130  1.2869
  502MOL0     H67730  -0.118   1.911   9.721  1.7695  0.5613 -1.9510
  502MOL0     H67731  -0.443   1.976   9.786 -1.6488 -2.8394  2.3167
  502MOL0     H67732  -0.317   1.879   9.864  0.0214  0.2758  2.1001
  502MOL0     H67733  -0.377   2.034   9.942 -0.3764  0.0753  0.8665
  502MOL0     H67734  -0.500   2.380  10.082 -2.0346 -1.0743 -0.7764
  502MOL0     H67735  -0.711   2.522  10.117 -1.0901  0.8117  1.1523
  502MOL0     H67736  -0.810   2.767   9.788 -2.1484 -0.7147 -0.6566
  502MOL0     H67737  -0.932   2.808   9.909  0.6259  1.0089  2.9635
  502MOL0     H67738  -0.800   2.996  10.006  0.3976  0.2361  0.2596
  502MOL0     H67739  -0.688   2.984   9.869  0.1166  1.6233 -0.2231
  502MOL0     H67740  -0.904   2.987   9.729  3.0820 -0.8129 -0.5364
  502MOL0     H67741  -0.816   3.139   9.762 -2.2878  0.5800 -1.0211
  502MOL0     H67742  -1.086   3.160   9.786  0.1061  4.7880  1.3471
  502MOL0     H67743  -1.065   3.039   9.912  0.3108 -0.3244  1.0078
  502MOL0     H67744  -0.895   3.211  10.019  0.5152 -3.1648 -1.2843
  502MOL0     H67745  -1.061   3.255  10.034 -0.2479  2.0543 -0.7389
  502MOL0     H67746  -0.882   3.380   9.839  0.8246 -1.6027  0.0103
  502MOL0     H67747  -1.062   3.364   9.817 -0.3027 -1.2263  0.6542
  502MOL0     H67748  -0.986   3.461  10.081  1.2234 -0.6880 -0.6407
  502MOL0     H67749  -1.134   3.496   9.985  0.4579 -1.1301  1.9174
  502MOL0     H67750  -1.033   3.701   9.983  1.5187 -0.4159  2.1992
  502MOL0     H67751  -1.044   3.618   9.834 -1.4653 -0.5555  1.4301
  502MOL0     H67752  -0.588   2.771   9.790 -1.6483 -0.4454 -0.0647
  502MOL0     H67753  -0.393   2.617   9.752 -0.9847  1.0489 -0.2940
  502MOL0     H67754  -0.159   2.399   9.696  2.6432 -0.4533 -3.6993
  502MOL0     H67755   0.031   2.301   9.628  1.3645 -0.0198  2.9715
  502MOL0     H67756   1.617   1.669   9.630 -0.1724  3.4324 -1.0816
  502MOL0     H67757   1.843   1.577   9.635 -0.6572 -0.0269 -0.0264
  502MOL0     H67758   2.210   1.524   9.868 -1.0031 -1.8691 -1.2226
  502MOL0     H67759   2.446   1.440   9.885  4.4455  0.3078 -0.8946
  502MOL0     H67760   2.678   1.425   9.909 -0.4511  0.1039 -0.0472
  502MOL0     H67761   2.618   1.333   9.768 -2.8190  2.8182 -1.8735
  502MOL0     H67762   2.846   1.417   9.658  0.4529  3.1429  0.2936
  502MOL0     H67763   2.863   1.291   9.795 -0.3015  1.3872  0.4702
  502MOL0     H67764   2.900   1.480   9.939  0.8866  1.9732 -0.2284
  502MOL0     H67765   2.944   1.575   9.792  1.3787  0.7664  2.3052
  502MOL0     H67766   3.099   1.374   9.731  0.2296  0.7726  0.6260
  502MOL0     H67767   3.071   1.320   9.893  0.2292 -0.1804  0.0490
  502MOL0     H67768   3.335   1.661   9.935 -1.0466  0.8582  1.5366
  502MOL0     H67769   2.559   1.708   9.570 -1.4130  0.4223 -0.9334
  502MOL0     H67770   2.330   1.808   9.578  1.2148  0.2523  1.1313
  503MOL0     O67771   0.870   2.430   5.493  0.2042  0.5913 -0.3422
  503MOL0     C67772   0.955   2.469   5.569  0.2661 -0.3434 -0.6174
  503MOL0     O67773   0.945   2.483   5.700 -0.1565  0.2384 -0.1169
  503MOL0     C67774   0.816   2.459   5.750 -0.0144  0.8196 -1.1391
  503MOL0     C67775   0.797   2.393   5.872 -0.0471 -0.6654 -0.3923
  503MOL0     C67776   0.671   2.378   5.936 -0.7441 -0.1573 -0.8459
  503MOL0     C67777   0.552   2.422   5.867  0.6962  0.6939  0.1167
  503MOL0     O67778   0.420   2.418   5.900 -0.5701 -0.2442  0.3894
  503MOL0     C67779   0.369   2.294   5.952 -0.4196  0.7258  0.4347
  503MOL0     C67780   0.239   2.338   6.019  0.2002  0.1415 -0.0310
  503MOL0     C67781   0.137   2.384   5.917  0.3006 -0.1337 -0.2107
  503MOL0     C67782   0.063   2.294   5.821  1.3370 -1.1802  0.1614
  503MOL0     C67783  -0.023   2.361   5.722  0.2442 -0.0773  0.1026
  503MOL0     C67784  -0.137   2.448   5.792  0.0046  0.3274  0.0874
  503MOL0     C67785  -0.243   2.490   5.688  0.6222  0.3297  0.4860
  503MOL0     C67786  -0.359   2.553   5.752  0.8382 -0.0974 -1.0142
  503MOL0     N67787  -0.471   2.553   5.662 -0.2919 -0.8480 -0.0356
  503MOL0     C67788  -0.476   2.623   5.544 -0.0354 -0.2930  0.4677
  503MOL0     C67789  -0.597   2.597   5.483  0.6026 -0.0890  0.2056
  503MOL0     C67790  -0.653   2.664   5.356  0.3467 -0.7242  0.8313
  503MOL0     C67791  -0.777   2.747   5.380  0.1646 -0.4209  0.1113
  503MOL0     C67792  -0.835   2.803   5.246 -0.4537 -0.2477  0.1206
  503MOL0     C67793  -0.967   2.875   5.266 -0.5637  0.1229 -0.3287
  503MOL0     O67794  -1.059   2.803   5.349  0.6173  0.4482  0.0036
  503MOL0     C67795  -1.194   2.840   5.345 -0.4697  1.0358  0.3386
  503MOL0     C67796  -1.284   2.763   5.423  0.4201  0.1570  0.2151
  503MOL0     C67797  -1.421   2.775   5.414 -0.5651 -0.4282 -0.8630
  503MOL0     C67798  -1.499   2.680   5.492 -0.0171  0.1125 -0.1367
  503MOL0     C67799  -1.475   2.880   5.330 -0.3514 -0.1001  0.8354
  503MOL0     C67800  -1.615   2.905   5.307  0.5707 -0.4619  0.3624
  503MOL0     O67801  -1.704   2.815   5.354 -0.2768 -0.5146 -0.2111
  503MOL0     C67802  -1.839   2.842   5.385  0.4085  0.0890  0.1663
  503MOL0     C67803  -1.887   2.955   5.466  0.0803  1.0345  0.2848
  503MOL0     C67804  -2.022   2.966   5.491  0.3627 -0.1338 -0.3783
  503MOL0     C67805  -2.118   2.885   5.436  0.4798  0.8458  0.7278
  503MOL0     O67806  -2.244   2.920   5.472 -0.1089  0.7244 -0.2168
  503MOL0     C67807  -2.355   2.827   5.453  0.1562 -0.4126 -0.1617
  503MOL0     C67808  -2.466   2.898   5.525  0.8593 -0.7707  0.2288
  503MOL0     C67809  -2.572   2.797   5.573  0.0756 -0.2530 -0.9710
  503MOL0     C67810  -2.691   2.872   5.641 -1.2450 -0.2721  0.1119
  503MOL0     C67811  -2.809   2.776   5.641  0.7578  0.2357  0.0968
  503MOL0     C67812  -2.940   2.857   5.662 -0.5590 -0.9125 -0.0036
  503MOL0     C67813  -3.059   2.760   5.661  0.0204 -0.5273  0.2690
  503MOL0     C67814  -3.090   2.682   5.537  0.3587  0.0445 -1.5996
  503MOL0    Cl67815  -3.238   2.566   5.569  0.0397  0.1623 -0.0113
  503MOL0     C67816  -2.079   2.792   5.346  0.6309  0.0603 -0.1928
  503MOL0     C67817  -1.941   2.765   5.327  0.5046 -0.1721  1.0006
  503MOL0     O67818  -1.644   2.997   5.230  0.0567 -0.1554  0.1910
  503MOL0     C67819  -1.389   2.962   5.256  0.0810  0.3055 -0.0032
  503MOL0     C67820  -1.246   2.940   5.259  0.2920  0.4655  0.1964
  503MOL0     N67821  -0.668   2.517   5.577 -0.1078 -0.2390  0.3137
  503MOL0     N67822  -0.591   2.486   5.674 -0.3909 -0.1377 -0.3517
  503MOL0     C67823   0.572   2.500   5.755 -0.2586 -0.6476  0.1234
  503MOL0     C67824   0.701   2.529   5.705 -0.3883  0.5540  0.6069
  503MOL0     C67825   1.094   2.478   5.515  0.4071 -0.3215  0.6227
  503MOL0     C67826   1.121   2.492   5.376 -0.2268 -0.0227  0.4539
  503MOL0     C67827   1.251   2.515   5.328 -0.1289 -0.1781  0.1714
  503MOL0     C67828   1.354   2.532   5.415  0.0198 -0.5112 -1.0840
  503MOL0     O67829   1.475   2.562   5.365 -0.5237 -0.7055 -0.4863
  503MOL0     C67830   1.598   2.529   5.437  0.0335  0.2673  0.3644
  503MOL0     C67831   1.718   2.539   5.349  0.0205  0.3127 -0.1323
  503MOL0     C67832   1.853   2.521   5.424  0.1828 -0.6020 -0.3891
  503MOL0     C67833   1.985   2.531   5.325  1.1999  0.3282 -0.0180
  503MOL0     C67834   2.113   2.545   5.399 -0.1743  0.4730 -0.4614
  503MOL0     C67835   2.227   2.553   5.450 -0.4713 -0.3083 -0.8560
  503MOL0     C67836   1.332   2.522   5.552  0.0018 -0.2121 -0.7911
  503MOL0     C67837   1.201   2.497   5.597  0.0120 -0.7548  0.9385
  503MOL0     H67838   0.878   2.338   5.919 -0.2332 -1.0144 -0.4738
  503MOL0     H67839   0.664   2.353   6.042  3.8295 -0.1903 -0.3636
  503MOL0     H67840   0.348   2.218   5.876  4.1004 -1.4851  1.0609
  503MOL0     H67841   0.450   2.251   6.012 -0.5528 -4.1126 -2.3504
  503MOL0     H67842   0.212   2.262   6.093  1.9741  1.2999  1.8970
  503MOL0     H67843   0.252   2.418   6.091 -1.4726 -0.9244  1.5469
  503MOL0     H67844   0.063   2.433   5.981 -0.8240 -2.5117  0.4579
  503MOL0     H67845   0.195   2.456   5.860  2.5392 -0.8768  1.0042
  503MOL0     H67846   0.144   2.240   5.772  1.2248 -3.3700  2.1883
  503MOL0     H67847   0.002   2.232   5.887 -1.6039  1.1981 -0.1306
  503MOL0     H67848   0.034   2.431   5.660 -1.3376  1.4370  0.2821
  503MOL0     H67849  -0.058   2.276   5.663  1.7011  0.3180 -1.4173
  503MOL0     H67850  -0.176   2.398   5.881  0.2503  0.7408  0.4302
  503MOL0     H67851  -0.088   2.542   5.819 -2.1762  1.4159  0.4303
  503MOL0     H67852  -0.186   2.553   5.620  1.1411  1.5318  1.9701
  503MOL0     H67853  -0.285   2.402   5.639 -3.2232  1.3912  1.5094
  503MOL0     H67854  -0.344   2.658   5.779  1.8269  0.2448 -2.7320
  503MOL0     H67855  -0.389   2.492   5.837 -0.1058 -0.8386 -1.8562
  503MOL0     H67856  -0.399   2.696   5.519 -1.0815  1.7613  2.8328
  503MOL0     H67857  -0.576   2.732   5.318 -1.8270  1.9506  0.9538
  503MOL0     H67858  -0.665   2.580   5.286 -0.0629 -0.0120  0.0306
  503MOL0     H67859  -0.749   2.834   5.440 -1.2368  0.4480 -0.4421
  503MOL0     H67860  -0.846   2.684   5.437 -0.3051 -3.7064 -3.6450
  503MOL0     H67861  -0.848   2.725   5.171 -0.7381 -1.3241  1.2645
  503MOL0     H67862  -0.764   2.880   5.214 -0.8869 -0.9117 -2.7148
  503MOL0     H67863  -1.015   2.896   5.170 -1.2440 -0.0129 -0.0247
  503MOL0     H67864  -0.945   2.965   5.325 -3.2270  1.5965 -1.4069
  503MOL0     H67865  -1.239   2.684   5.482  1.3428  1.4526  1.2928
  503MOL0     H67866  -1.577   2.634   5.430 -1.1532  0.7531  0.7725
  503MOL0     H67867  -1.433   2.604   5.537  0.0486  0.8820  1.1220
  503MOL0     H67868  -1.548   2.722   5.580 -1.4971 -0.9869 -0.3896
  503MOL0     H67869  -1.829   3.040   5.499 -1.0783  2.3118 -0.8492
  503MOL0     H67870  -2.061   3.044   5.557 -0.5272 -1.1047  0.2684
  503MOL0     H67871  -2.383   2.798   5.352 -2.4430 -1.1492  0.7105
  503MOL0     H67872  -2.337   2.734   5.507 -1.1729 -0.0877  0.8890
  503MOL0     H67873  -2.429   2.949   5.614 -0.3884 -0.8028  0.7941
  503MOL0     H67874  -2.514   2.973   5.461 -0.6030 -0.6020  1.4569
  503MOL0     H67875  -2.531   2.726   5.645  0.0459 -0.5609 -1.2589
  503MOL0     H67876  -2.603   2.737   5.488 -1.9289  0.1816 -0.6024
  503MOL0     H67877  -2.658   2.900   5.742 -1.8524  0.9862 -0.0187
  503MOL0     H67878  -2.720   2.958   5.580 -1.0781  0.2641  0.7720
  503MOL0     H67879  -2.810   2.696   5.715 -0.4236  0.9144  0.8305
  503MOL0     H67880  -2.809   2.725   5.544  3.9266 -1.0335  0.6376
  503MOL0     H67881  -2.929   2.902   5.761  1.8443  1.8018 -1.3482
  503MOL0     H67882  -2.958   2.932   5.584 -0.6599 -0.7489  0.1779
  503MOL0     H67883  -3.149   2.818   5.686  1.3582  0.6637  2.6990
  503MOL0     H67884  -3.042   2.695   5.747  3.3652 -0.1828 -0.0170
  503MOL0     H67885  -3.004   2.627   5.498 -0.2345  0.4349 -3.5799
  503MOL0     H67886  -3.111   2.757   5.460 -0.0820  1.6720  0.0002
  503MOL0     H67887  -2.159   2.739   5.295 -1.1954 -0.7692  3.2179
  503MOL0     H67888  -1.913   2.688   5.256  0.4112  1.1409 -0.5405
  503MOL0     H67889  -1.415   3.044   5.190 -2.7867  1.3979  2.2446
  503MOL0     H67890  -1.184   3.004   5.197 -0.5091  0.3329 -0.7726
  503MOL0     H67891   0.481   2.544   5.717  0.1026  2.2683  2.2883
  503MOL0     H67892   0.705   2.603   5.625 -2.9061 -1.2273 -1.3708
  503MOL0     H67893   1.047   2.484   5.298  0.5658  0.5042 -0.3743
  503MOL0     H67894   1.271   2.520   5.221  0.6288  1.3014  0.3640
  503MOL0     H67895   1.616   2.599   5.519 -0.9338  2.6181 -1.3096
  503MOL0     H67896   1.588   2.423   5.465 -2.3940 -0.6017 -3.0740
  503MOL0     H67897   1.717   2.634   5.295 -0.7272  0.6996  0.5413
  503MOL0     H67898   1.709   2.454   5.280 -1.0492 -2.2914  2.9561
  503MOL0     H67899   1.849   2.425   5.477  1.2159  0.6255  2.0804
  503MOL0     H67900   1.867   2.601   5.498 -3.2988  3.3668 -3.5116
  503MOL0     H67901   1.970   2.606   5.247  0.6025 -0.2478 -0.4635
  503MOL0     H67902   2.000   2.434   5.275  0.3894  0.5856 -0.7810
  503MOL0     H67903   2.320   2.555   5.504 -0.7989 -0.7212 -0.2628
  503MOL0     H67904   1.423   2.546   5.606 -0.3193  0.0644 -0.3590
  503MOL0     H67905   1.186   2.484   5.704 -0.7795  0.9037  1.0520
  504MOL0     O67906   2.314   9.895   6.803  0.7282 -0.4629 -0.0263
  504MOL0     C67907   2.371  10.001   6.803 -0.1592 -0.2544  0.5493
  504MOL0     O67908   2.355  10.107   6.887  0.3493  0.5476 -0.2122
  504MOL0     C67909   2.266  10.099   6.990 -0.0898  0.1022  0.1524
  504MOL0     C67910   2.130  10.062   6.970  0.0356 -0.0061  0.8174
  504MOL0     C67911   2.042  10.083   7.074  0.6469  0.7618  0.5064
  504MOL0     C67912   2.080  10.122   7.201 -0.0550  0.7725  0.8550
  504MOL0     O67913   1.989  10.127   7.303 -0.3869 -0.5431  0.2075
  504MOL0     C67914   2.011  10.214   7.413  0.3158  0.0877 -0.3682
  504MOL0     C67915   1.885  10.208   7.489 -0.3493 -0.5313 -0.1377
  504MOL0     C67916   1.897  10.088   7.582  0.6843 -1.3710 -0.2635
  504MOL0     C67917   1.801  10.110   7.702 -0.6204 -0.1563  0.5118
  504MOL0     C67918   1.817  10.004   7.811  0.2215  0.6720  0.5490
  504MOL0     C67919   1.686   9.994   7.898  1.1550  0.7143 -0.5686
  504MOL0     C67920   1.559   9.930   7.831 -0.4982  1.0550  0.0774
  504MOL0     C67921   1.445   9.929   7.936  0.7870  0.6060  0.7235
  504MOL0     N67922   1.331   9.863   7.868  0.7691 -0.9652  0.4747
  504MOL0     C67923   1.316   9.725   7.836 -0.5288 -0.2898  0.4060
  504MOL0     C67924   1.214   9.709   7.748 -0.4097 -0.4116 -1.0807
  504MOL0     C67925   1.170   9.575   7.704 -0.2862  0.2736  0.9930
  504MOL0     C67926   1.014   9.565   7.690  0.1510 -0.4445  0.5574
  504MOL0     C67927   0.971   9.436   7.617  0.0290 -0.1692  0.3484
  504MOL0     C67928   0.827   9.439   7.564  0.0994 -0.4871  0.3399
  504MOL0     O67929   0.732   9.462   7.667  0.0418 -0.0291 -0.0686
  504MOL0     C67930   0.599   9.457   7.627 -0.1573 -0.3284  0.2834
  504MOL0     C67931   0.551   9.443   7.493  0.0820 -0.0332 -0.0547
  504MOL0     C67932   0.415   9.441   7.460  1.0466 -0.0007  0.1905
  504MOL0     C67933   0.370   9.439   7.307  0.5377 -0.9509 -0.1548
  504MOL0     C67934   0.313   9.454   7.563 -0.3053  0.6967  1.4600
  504MOL0     C67935   0.163   9.447   7.542 -0.1221  0.2167  0.3775
  504MOL0     O67936   0.097   9.527   7.636  0.1132 -0.5306  0.8092
  504MOL0     C67937  -0.041   9.521   7.638  0.3085 -0.1359  0.6038
  504MOL0     C67938  -0.104   9.398   7.658 -0.2771 -0.6758 -0.3469
  504MOL0     C67939  -0.241   9.389   7.652 -0.5476  0.3649  0.4513
  504MOL0     C67940  -0.326   9.503   7.637  0.0075 -0.1982 -0.7754
  504MOL0     O67941  -0.462   9.480   7.637 -0.1685 -0.1153 -0.2256
  504MOL0     C67942  -0.553   9.588   7.645 -0.5713  0.6765 -0.9410
  504MOL0     C67943  -0.667   9.601   7.549 -0.6387 -0.3181 -0.0501
  504MOL0     C67944  -0.635   9.598   7.400  0.2995 -0.3315 -0.0999
  504MOL0     C67945  -0.778   9.586   7.331  0.7747 -0.5097 -0.0704
  504MOL0     C67946  -0.781   9.628   7.184  1.2696 -0.3627  0.3189
  504MOL0     C67947  -0.927   9.643   7.135  0.3812  0.1802 -1.5941
  504MOL0     C67948  -0.903   9.701   6.992  0.7291  0.6955  0.0002
  504MOL0     C67949  -1.039   9.739   6.935  0.2645  0.5652  0.0707
  504MOL0    Cl67950  -1.128   9.868   7.023 -0.0731  0.8818  0.2577
  504MOL0     C67951  -0.257   9.628   7.607  0.0725  0.2468  0.0445
  504MOL0     C67952  -0.119   9.632   7.610  0.4580  0.2291 -0.3466
  504MOL0     O67953   0.113   9.374   7.451 -0.0213  0.3969 -0.7175
  504MOL0     C67954   0.368   9.474   7.696  0.2319  0.2148  0.1048
  504MOL0     C67955   0.505   9.474   7.729 -0.6419  0.2434  0.4840
  504MOL0     N67956   1.163   9.839   7.736  0.1265  0.0936  0.0775
  504MOL0     N67957   1.227   9.926   7.802  0.3014 -0.5111 -0.5724
  504MOL0     C67958   2.212  10.132   7.224 -0.3249 -0.5816  0.3706
  504MOL0     C67959   2.305  10.135   7.123 -0.7407  0.3307 -0.0765
  504MOL0     C67960   2.475  10.032   6.698 -0.4114 -0.0645  0.3453
  504MOL0     C67961   2.588  10.109   6.726 -0.4855 -0.2755 -0.6376
  504MOL0     C67962   2.689  10.117   6.624 -0.7575  0.4727  0.0992
  504MOL0     C67963   2.680  10.053   6.501  0.1012  0.0889  1.0494
  504MOL0     O67964   2.787  10.057   6.411  0.5868  0.7097  0.0904
  504MOL0     C67965   2.781   9.980   6.286  0.0034 -0.0846 -1.1372
  504MOL0     C67966   2.906  10.027   6.208  0.8078  0.0245 -0.4895
  504MOL0     C67967   3.038   9.964   6.260 -0.9404  0.2595 -0.0319
  504MOL0     C67968   3.100  10.026   6.386 -0.7770 -0.5952  0.7549
  504MOL0     C67969   3.110   9.934   6.502  0.1408 -1.3918  0.1934
  504MOL0     C67970   3.135   9.861   6.597  0.1352  0.5927 -0.1330
  504MOL0     C67971   2.562   9.976   6.476 -0.0350  0.9195 -0.5723
  504MOL0     C67972   2.462   9.965   6.576 -0.2551 -0.8242  0.3084
  504MOL0     H67973   2.092  10.038   6.871 -0.3577  0.0460  0.9542
  504MOL0     H67974   1.935  10.074   7.058  0.7567  0.4385 -0.0710
  504MOL0     H67975   2.095  10.183   7.476 -1.0792  1.5022  2.3392
  504MOL0     H67976   2.023  10.320   7.388  0.2782  0.1625 -0.0724
  504MOL0     H67977   1.882  10.301   7.548  2.3600 -0.1644 -0.4619
  504MOL0     H67978   1.797  10.207   7.423  1.2486 -0.2286 -2.3685
  504MOL0     H67979   1.869  10.001   7.522  1.5311 -1.5904 -0.3478
  504MOL0     H67980   1.998  10.062   7.612  1.8155 -0.9997 -3.3790
  504MOL0     H67981   1.839  10.200   7.752  3.1683  0.2014 -2.5232
  504MOL0     H67982   1.696  10.108   7.673 -0.7753 -1.8425  1.0561
  504MOL0     H67983   1.837   9.913   7.753  1.7203  2.0916 -1.2899
  504MOL0     H67984   1.907  10.024   7.869  0.4875  1.9690 -0.2755
  504MOL0     H67985   1.705   9.924   7.981 -2.6484 -1.0854 -0.9741
  504MOL0     H67986   1.665  10.087   7.952  1.5041  0.6530 -0.3234
  504MOL0     H67987   1.519   9.986   7.746  1.9301  2.9988  0.0892
  504MOL0     H67988   1.574   9.825   7.805 -1.6436  1.7810 -4.1894
  504MOL0     H67989   1.413  10.028   7.971 -2.3511 -0.2247  0.5166
  504MOL0     H67990   1.471   9.874   8.026  1.5416  1.9926  1.3859
  504MOL0     H67991   1.376   9.645   7.879 -1.1453 -0.6926  0.5139
  504MOL0     H67992   1.212   9.560   7.605 -1.6225  0.9981  0.2821
  504MOL0     H67993   1.215   9.496   7.766  2.4929  2.6297  2.2073
  504MOL0     H67994   0.981   9.646   7.624 -0.2061 -0.4430  0.7326
  504MOL0     H67995   0.970   9.588   7.788 -3.4069 -3.7605  0.0006
  504MOL0     H67996   0.991   9.356   7.689  0.5625  0.7959  1.2986
  504MOL0     H67997   1.040   9.427   7.533  1.0925  0.2050  1.1637
  504MOL0     H67998   0.804   9.354   7.499 -2.7070  0.2113  0.3130
  504MOL0     H67999   0.825   9.526   7.497  0.4124  0.4945  1.5772
  504MOL0     H68000   0.626   9.425   7.416  1.4326  1.5321  0.8246
  504MOL0     H68001   0.261   9.444   7.302  0.5678 -0.5172 -0.3218
  504MOL0     H68002   0.404   9.535   7.269 -2.6280  0.3966  0.0979
  504MOL0     H68003   0.407   9.350   7.254  0.3873 -0.0189 -1.8789
  504MOL0     H68004  -0.043   9.310   7.671 -2.2142 -2.1010 -0.4559
  504MOL0     H68005  -0.279   9.291   7.682  1.4254  0.3859  3.5180
  504MOL0     H68006  -0.588   9.585   7.748 -2.5130  0.7133 -1.5648
  504MOL0     H68007  -0.500   9.683   7.634  2.3105 -0.8208 -1.0778
  504MOL0     H68008  -0.742   9.524   7.569  0.9196 -2.1279 -0.9292
  504MOL0     H68009  -0.709   9.701   7.567  0.5938  0.4643 -1.2980
  504MOL0     H68010  -0.566   9.518   7.372  0.8356  0.0417  0.1301
  504MOL0     H68011  -0.593   9.695   7.374  0.3958 -0.5385 -0.7337
  504MOL0     H68012  -0.822   9.487   7.347  2.8772 -1.3553  0.8201
  504MOL0     H68013  -0.844   9.656   7.383  1.2741  0.8255 -1.1807
  504MOL0     H68014  -0.728   9.553   7.124  1.8263 -0.1472  0.5372
  504MOL0     H68015  -0.730   9.723   7.167  0.1258  0.1246 -0.5129
  504MOL0     H68016  -0.975   9.545   7.133  2.1493 -0.7464 -0.8833
  504MOL0     H68017  -0.993   9.707   7.194  0.2328 -0.4162 -1.1029
  504MOL0     H68018  -0.843   9.635   6.927 -0.6119 -1.4355  0.8041
  504MOL0     H68019  -0.841   9.791   6.995  5.3257 -2.1522  0.7623
  504MOL0     H68020  -1.095   9.648   6.908  1.6657 -0.3133  0.0160
  504MOL0     H68021  -1.024   9.783   6.836  2.6812  0.0480  0.1356
  504MOL0     H68022  -0.312   9.714   7.570  2.0375  2.8594  2.7943
  504MOL0     H68023  -0.071   9.729   7.601  2.2557 -0.4361  1.4411
  504MOL0     H68024   0.302   9.478   7.782 -0.7042  0.6881 -0.6280
  504MOL0     H68025   0.537   9.465   7.832  1.7629  1.1898 -0.1145
  504MOL0     H68026   2.247  10.159   7.324 -0.5837  2.7003 -0.2988
  504MOL0     H68027   2.404  10.166   7.156 -0.9559 -2.8351  4.5424
  504MOL0     H68028   2.614  10.136   6.828 -1.4828 -1.3701 -0.0658
  504MOL0     H68029   2.791  10.149   6.646 -1.1441  0.5664  1.9034
  504MOL0     H68030   2.781   9.877   6.322  0.7077  0.0791 -0.6542
  504MOL0     H68031   2.686  10.001   6.236 -0.5185  0.7259  0.1336
  504MOL0     H68032   2.903  10.136   6.197 -3.8984 -0.0357 -1.9522
  504MOL0     H68033   2.900   9.990   6.105 -0.0720 -2.5705  0.4189
  504MOL0     H68034   3.114   9.976   6.182  0.5657 -0.8639  1.1962
  504MOL0     H68035   3.017   9.858   6.278 -3.6923  1.2603  3.5941
  504MOL0     H68036   3.055  10.120   6.420  2.7233  1.7460 -0.5468
  504MOL0     H68037   3.205  10.048   6.364 -0.7001 -0.2003  1.4842
  504MOL0     H68038   3.179   9.797   6.671 -2.2977  0.6029  1.4479
  504MOL0     H68039   2.548   9.921   6.383 -1.9825  1.1055 -0.4380
  504MOL0     H68040   2.372   9.911   6.547 -0.5123 -0.2132 -0.0418
  505MOL0     O68041   3.278   4.193   4.951 -0.0812 -0.2677 -0.4452
  505MOL0     C68042   3.227   4.259   5.048  0.1929  0.2051  0.3776
  505MOL0     O68043   3.288   4.289   5.171  0.4459  0.3387 -0.0774
  505MOL0     C68044   3.404   4.224   5.187 -0.5176 -0.3415  0.6972
  505MOL0     C68045   3.425   4.088   5.187 -0.3117 -0.1417 -0.4417
  505MOL0     C68046   3.557   4.040   5.184 -0.3768 -0.0741 -0.2909
  505MOL0     C68047   3.669   4.125   5.190  0.1645  0.1451  0.0154
  505MOL0     O68048   3.796   4.065   5.182  0.1136 -0.3928  0.0584
  505MOL0     C68049   3.910   4.151   5.164  0.0782 -0.3752  0.0581
  505MOL0     C68050   4.042   4.084   5.185 -0.2280  0.8833 -0.0560
  505MOL0     C68051   4.069   4.047   5.330  0.6821 -0.1282 -0.3159
  505MOL0     C68052   4.205   3.977   5.334 -0.2209  0.2012 -1.0650
  505MOL0     C68053   4.246   3.949   5.482 -0.2189 -0.2616  0.5076
  505MOL0     C68054   4.388   3.892   5.499 -0.7742 -1.4875  0.3745
  505MOL0     C68055   4.424   3.842   5.642  0.0473 -0.1271  0.5397
  505MOL0     C68056   4.517   3.726   5.641  0.8421 -0.6614 -0.7835
  505MOL0     N68057   4.592   3.709   5.764 -0.9976 -0.5927  0.3274
  505MOL0     C68058   4.665   3.599   5.791 -0.3071  0.7030 -0.3454
  505MOL0     C68059   4.718   3.629   5.915  0.0618 -0.5291 -0.1017
  505MOL0     C68060   4.817   3.539   5.995 -0.7577 -0.6931  0.0992
  505MOL0     C68061   4.947   3.606   5.987 -0.0792 -0.2971  0.5528
  505MOL0     C68062   5.064   3.520   6.026 -1.0995  0.1525 -0.2002
  505MOL0     C68063   5.196   3.595   6.016  0.3372  0.8956  0.1607
  505MOL0     O68064   5.259   3.608   5.885  0.0076  0.2408  0.5931
  505MOL0     C68065   5.391   3.644   5.889 -0.4515 -0.0709 -0.1137
  505MOL0     C68066   5.484   3.560   5.839 -0.1674  0.3429  0.4574
  505MOL0     C68067   5.625   3.579   5.841  0.3855  0.0026 -0.2585
  505MOL0     C68068   5.710   3.474   5.775  0.0610  0.6202  0.7347
  505MOL0     C68069   5.671   3.694   5.913 -0.0202 -0.3453  0.2804
  505MOL0     C68070   5.815   3.731   5.931 -0.2098  0.4155  0.7925
  505MOL0     O68071   5.901   3.648   5.874  0.8798 -0.3689 -0.0586
  505MOL0     C68072   6.030   3.676   5.855  0.5192 -0.2590 -0.0340
  505MOL0     C68073   6.097   3.657   5.725  0.2323  0.4123 -0.2590
  505MOL0     C68074   6.226   3.697   5.712  0.6650 -0.1841  0.2451
  505MOL0     C68075   6.301   3.760   5.815 -0.1284 -0.2136 -0.0639
  505MOL0     O68076   6.432   3.803   5.794  0.3962  0.3792  0.6616
  505MOL0     C68077   6.524   3.806   5.905  0.3399  0.6655 -0.0220
  505MOL0     C68078   6.662   3.871   5.873 -1.2578 -0.3159 -0.1275
  505MOL0     C68079   6.776   3.836   5.973 -0.3493  0.2843 -0.0161
  505MOL0     C68080   6.735   3.894   6.110 -0.4008  0.3076 -0.3653
  505MOL0     C68081   6.849   3.903   6.204 -0.0135 -0.2324  0.7816
  505MOL0     C68082   6.804   3.971   6.334  0.0504  0.4768 -0.3532
  505MOL0     C68083   6.728   3.872   6.431  0.1259  0.1542 -0.0147
  505MOL0     C68084   6.757   3.910   6.574 -0.4350 -0.4483 -0.1988
  505MOL0    Cl68085   6.919   3.903   6.615 -0.2187 -0.0879  0.2982
  505MOL0     C68086   6.240   3.761   5.940 -0.1157 -0.4483 -0.8700
  505MOL0     C68087   6.106   3.729   5.963  0.7223  0.3590 -0.0794
  505MOL0     O68088   5.836   3.845   5.976 -0.4568 -0.2009 -0.7890
  505MOL0     C68089   5.569   3.777   5.970  0.5525  0.4140  0.4838
  505MOL0     C68090   5.431   3.754   5.961 -0.6594 -0.1612  0.0229
  505MOL0     N68091   4.674   3.750   5.952  0.0214 -0.0723  0.5593
  505MOL0     N68092   4.590   3.798   5.865 -0.6262  0.0311  1.0282
  505MOL0     C68093   3.642   4.262   5.187  0.1657 -0.5082  0.3717
  505MOL0     C68094   3.511   4.312   5.195 -1.1205 -0.0418  0.3163
  505MOL0     C68095   3.094   4.314   5.023  0.3567  0.1748  0.0714
  505MOL0     C68096   3.016   4.277   4.910 -0.9766 -0.0585 -0.0617
  505MOL0     C68097   2.886   4.305   4.895  0.8466  0.5498  0.0128
  505MOL0     C68098   2.823   4.375   4.990  0.5609  0.3384 -0.1079
  505MOL0     O68099   2.682   4.386   4.976 -0.3994  0.6389  0.2766
  505MOL0     C68100   2.602   4.451   5.075  0.4522 -0.3277 -1.4256
  505MOL0     C68101   2.570   4.368   5.207  0.0630  0.2081  0.0679
  505MOL0     C68102   2.500   4.225   5.210  0.3811  0.3576  0.4995
  505MOL0     C68103   2.352   4.223   5.242  0.8094  0.1808 -0.5688
  505MOL0     C68104   2.266   4.307   5.155  0.0251 -0.1431 -0.0543
  505MOL0     C68105   2.202   4.368   5.083 -0.0722 -0.3765  0.6814
  505MOL0     C68106   2.888   4.423   5.106 -0.2522 -0.2151  0.7962
  505MOL0     C68107   3.027   4.394   5.117 -0.2707  0.1639 -0.1493
  505MOL0     H68108   3.344   4.016   5.182 -1.0337  0.3898  2.0798
  505MOL0     H68109   3.583   3.935   5.181  0.9262  0.1615  0.8974
  505MOL0     H68110   3.919   4.184   5.060  3.1261 -0.3590  0.2453
  505MOL0     H68111   3.896   4.233   5.234 -0.9127  0.6542 -1.3032
  505MOL0     H68112   4.046   3.994   5.123  0.7975 -1.3506  3.0271
  505MOL0     H68113   4.129   4.144   5.155 -1.1082  1.9032 -0.6479
  505MOL0     H68114   4.076   4.138   5.391  0.8079  0.9664 -1.9116
  505MOL0     H68115   3.988   3.987   5.372  0.3350  0.0485 -0.7332
  505MOL0     H68116   4.190   3.884   5.278 -0.8401  1.2421 -2.7185
  505MOL0     H68117   4.289   4.034   5.294 -0.2273  1.2802  0.3877
  505MOL0     H68118   4.244   4.045   5.533 -4.6987 -0.0447  0.2894
  505MOL0     H68119   4.175   3.887   5.536  1.3533 -0.5882  2.3111
  505MOL0     H68120   4.384   3.806   5.431 -3.0104 -0.4559 -0.9008
  505MOL0     H68121   4.462   3.964   5.463 -0.6742 -2.2917 -1.1204
  505MOL0     H68122   4.469   3.924   5.700  0.7275 -0.4382  0.4709
  505MOL0     H68123   4.346   3.820   5.716  0.0752  3.2984  1.7556
  505MOL0     H68124   4.588   3.736   5.558  0.5048  2.0421 -0.8544
  505MOL0     H68125   4.460   3.634   5.625  0.6691 -0.4086 -1.6950
  505MOL0     H68126   4.692   3.512   5.732  2.4398  1.2679 -0.0861
  505MOL0     H68127   4.787   3.524   6.099 -3.3562 -2.2600 -0.7924
  505MOL0     H68128   4.826   3.436   5.958  2.8763 -0.9133  1.2197
  505MOL0     H68129   4.939   3.699   6.045 -0.3589 -2.2034  3.7998
  505MOL0     H68130   4.960   3.635   5.882  0.4335  0.4585  0.8074
  505MOL0     H68131   5.076   3.422   5.978  3.2375  1.1857 -1.6004
  505MOL0     H68132   5.050   3.498   6.132  0.7257  2.4833  0.6002
  505MOL0     H68133   5.268   3.552   6.086 -2.4447 -1.0288  2.0592
  505MOL0     H68134   5.171   3.689   6.065 -0.9716 -0.6072  2.6193
  505MOL0     H68135   5.440   3.475   5.787 -1.4517  0.3070  1.5502
  505MOL0     H68136   5.669   3.418   5.691 -0.4830  1.2017  0.6051
  505MOL0     H68137   5.805   3.510   5.734  1.2154 -3.6697 -0.9399
  505MOL0     H68138   5.729   3.390   5.842  0.0143 -1.1439 -1.3672
  505MOL0     H68139   6.045   3.609   5.642 -0.3453  0.8124 -0.1375
  505MOL0     H68140   6.274   3.672   5.618  0.6900 -1.2969  0.5356
  505MOL0     H68141   6.482   3.858   5.993 -0.0320 -2.4380  1.7863
  505MOL0     H68142   6.538   3.703   5.938  0.0498  0.5518 -0.2488
  505MOL0     H68143   6.709   3.830   5.783  0.3061  0.7054  0.1772
  505MOL0     H68144   6.639   3.977   5.862  0.0095 -0.1899 -2.0634
  505MOL0     H68145   6.872   3.881   5.945  0.1592 -0.5781  0.2875
  505MOL0     H68146   6.778   3.726   5.971 -0.4533  0.2525  1.2149
  505MOL0     H68147   6.699   3.997   6.109  0.8860  0.7891  0.7434
  505MOL0     H68148   6.658   3.834   6.160  1.7436 -3.0822 -0.8045
  505MOL0     H68149   6.931   3.959   6.158 -0.8929  3.1092  2.8830
  505MOL0     H68150   6.886   3.804   6.230  1.0370  0.1943  0.9795
  505MOL0     H68151   6.895   4.004   6.384  0.5909 -0.3375 -0.7783
  505MOL0     H68152   6.747   4.064   6.328  2.5783  2.0012 -3.4726
  505MOL0     H68153   6.743   3.767   6.403  0.7485  0.4082 -0.6901
  505MOL0     H68154   6.622   3.889   6.414 -0.1890 -0.3829  1.2959
  505MOL0     H68155   6.722   3.836   6.647 -0.2352  0.1781  0.5405
  505MOL0     H68156   6.710   4.008   6.585  1.1270  0.1688  1.4792
  505MOL0     H68157   6.294   3.793   6.029  0.8655 -1.3372 -1.1139
  505MOL0     H68158   6.065   3.769   6.055 -0.1287  1.6528 -0.9914
  505MOL0     H68159   5.608   3.865   6.020  0.6729 -0.7826  2.5981
  505MOL0     H68160   5.359   3.814   6.016 -1.2401 -1.6390  0.9289
  505MOL0     H68161   3.728   4.328   5.182  1.2229 -1.7470  1.2695
  505MOL0     H68162   3.489   4.418   5.201 -0.6206  0.2436 -2.0063
  505MOL0     H68163   3.055   4.199   4.846 -1.8275 -1.7429  1.3854
  505MOL0     H68164   2.825   4.272   4.811  0.2541  3.6229 -0.8947
  505MOL0     H68165   2.651   4.542   5.113 -1.2684 -0.6638  1.9892
  505MOL0     H68166   2.508   4.477   5.026  0.9271  0.1190 -2.1100
  505MOL0     H68167   2.520   4.427   5.285 -2.0679 -1.2771 -0.0837
  505MOL0     H68168   2.663   4.341   5.257 -0.1725 -0.3144  0.2249
  505MOL0     H68169   2.556   4.168   5.284  0.2131  2.4590  2.3364
  505MOL0     H68170   2.517   4.179   5.112 -0.3325  3.3044 -1.1277
  505MOL0     H68171   2.344   4.251   5.347 -1.5703 -0.2826 -0.5623
  505MOL0     H68172   2.313   4.122   5.223 -0.5223  0.5913 -0.1162
  505MOL0     H68173   2.142   4.423   5.013  0.0860 -2.2045 -0.9870
  505MOL0     H68174   2.836   4.488   5.175 -2.6123  0.5391 -1.5074
  505MOL0     H68175   3.084   4.423   5.204  1.8808  2.1462 -2.0636
  506MOL0     O68176  10.278   6.702   7.509 -0.7796 -0.4736  0.8237
  506MOL0     C68177  10.199   6.763   7.585  0.8477  0.6067 -0.2831
  506MOL0     O68178  10.222   6.789   7.712  0.5791  0.1700  0.1142
  506MOL0     C68179  10.334   6.743   7.776 -0.1923  0.3625 -0.0690
  506MOL0     C68180  10.358   6.609   7.775  0.5316  0.6837  0.6068
  506MOL0     C68181  10.475   6.554   7.838 -0.0991 -0.6452 -0.6474
  506MOL0     C68182  10.564   6.629   7.917  0.0035  0.6025  0.1058
  506MOL0     O68183  10.679   6.581   7.979  0.0667 -0.3255 -0.1654
  506MOL0     C68184  10.674   6.438   8.023  0.2470  0.0554  0.0463
  506MOL0     C68185  10.809   6.414   8.095  0.2395 -0.2687 -0.0485
  506MOL0     C68186  10.938   6.425   8.006 -0.4533 -0.7905  0.0653
  506MOL0     C68187  10.985   6.290   7.957  0.6238  0.6569  0.1741
  506MOL0     C68188  11.064   6.297   7.820  0.3089  0.0638 -0.6990
  506MOL0     C68189  11.182   6.396   7.835  0.4699  0.4500  0.1327
  506MOL0     C68190  11.296   6.377   7.730  0.2018  0.3467 -0.3193
  506MOL0     C68191  11.418   6.461   7.753  0.1515  0.5657 -0.5558
  506MOL0     N68192  11.475   6.446   7.887 -0.2682 -0.0119 -0.4198
  506MOL0     C68193  11.521   6.326   7.947 -0.4812  0.4353  0.4295
  506MOL0     C68194  11.559   6.370   8.071  1.1208 -0.6010 -0.0787
  506MOL0     C68195  11.618   6.293   8.184  0.4132  0.0832  0.4631
  506MOL0     C68196  11.503   6.230   8.260 -0.0148  0.1397 -0.7779
  506MOL0     C68197  11.410   6.334   8.316 -0.5859  0.0579  1.0594
  506MOL0     C68198  11.366   6.324   8.470 -0.6291  0.1296  0.5534
  506MOL0     O68199  11.285   6.436   8.506 -0.7608 -0.1673  0.6861
  506MOL0     C68200  11.154   6.434   8.480 -0.7703 -0.3355 -0.4127
  506MOL0     C68201  11.087   6.521   8.561  1.0570 -0.3463  0.3184
  506MOL0     C68202  10.942   6.515   8.580  0.5432 -0.4439 -0.4688
  506MOL0     C68203  10.889   6.618   8.678  0.1968 -0.0236 -0.0877
  506MOL0     C68204  10.869   6.413   8.510 -0.4146  0.5232 -0.2215
  506MOL0     C68205  10.724   6.408   8.519  0.0188  0.2063  0.4890
  506MOL0     O68206  10.669   6.299   8.459  0.8793  0.0844  0.0829
  506MOL0     C68207  10.530   6.279   8.455 -0.9865  0.0038 -0.7465
  506MOL0     C68208  10.491   6.199   8.565  0.4841 -0.6634  0.0827
  506MOL0     C68209  10.367   6.137   8.575  0.0814 -0.4064  0.2622
  506MOL0     C68210  10.281   6.156   8.473  1.1390 -0.1578  0.3504
  506MOL0     O68211  10.161   6.095   8.478  0.1130  0.8986 -0.5266
  506MOL0     C68212  10.077   6.077   8.368 -0.0177 -0.2369  0.6441
  506MOL0     C68213  10.061   5.922   8.327  0.0632  0.5440  0.2501
  506MOL0     C68214  10.007   5.838   8.446 -0.3149  0.0114  0.1261
  506MOL0     C68215   9.858   5.831   8.460 -0.5795 -0.6757 -0.1683
  506MOL0     C68216   9.813   5.765   8.586 -0.8953  0.0474 -0.4347
  506MOL0     C68217   9.677   5.703   8.579  0.1781  0.8413 -0.2669
  506MOL0     C68218   9.680   5.571   8.502  0.1154 -0.0817  0.4618
  506MOL0     C68219   9.553   5.504   8.512  0.2706 -0.9581 -0.4679
  506MOL0    Cl68220   9.420   5.616   8.475 -0.2187 -0.2093  0.1628
  506MOL0     C68221  10.311   6.249   8.364 -0.8764 -0.6439 -0.8583
  506MOL0     C68222  10.444   6.303   8.355 -0.5823 -0.1141 -0.2549
  506MOL0     O68223  10.659   6.492   8.576  0.4869 -0.2400  0.4030
  506MOL0     C68224  10.947   6.337   8.422  0.2760 -0.7778  0.5488
  506MOL0     C68225  11.084   6.338   8.411  0.0440  0.4317 -1.1695
  506MOL0     N68226  11.523   6.503   8.091  0.8623 -0.3401  0.6296
  506MOL0     N68227  11.479   6.556   7.977  0.0361  0.4920 -0.2157
  506MOL0     C68228  10.533   6.765   7.921  0.0599 -0.1862  0.4559
  506MOL0     C68229  10.422   6.821   7.859  0.4263  0.5077  0.4393
  506MOL0     C68230  10.070   6.798   7.530 -0.5899  0.5226  0.3051
  506MOL0     C68231   9.966   6.816   7.614 -0.0561 -0.5803 -0.1543
  506MOL0     C68232   9.847   6.869   7.566  0.3692  0.4937  0.0343
  506MOL0     C68233   9.827   6.893   7.434  0.4136 -0.1324 -0.4882
  506MOL0     O68234   9.706   6.953   7.410 -0.0140  0.4881  0.5985
  506MOL0     C68235   9.661   6.958   7.280 -0.5005 -0.7808 -0.3587
  506MOL0     C68236   9.515   7.008   7.266  0.4771 -0.2894 -0.0951
  506MOL0     C68237   9.471   6.978   7.118 -0.3978  0.0443 -0.3153
  506MOL0     C68238   9.324   7.004   7.111  0.1734  0.0369 -0.1542
  506MOL0     C68239   9.266   6.966   6.978 -0.5221 -0.3130  0.0417
  506MOL0     C68240   9.216   6.949   6.860 -0.2380  0.3772 -0.2762
  506MOL0     C68241   9.929   6.860   7.345 -0.4198  0.4935 -0.1875
  506MOL0     C68242  10.053   6.821   7.394 -0.8017  0.1153 -0.0035
  506MOL0     H68243  10.294   6.545   7.716 -0.7374  3.1685 -0.8604
  506MOL0     H68244  10.493   6.452   7.806  0.6216 -0.7436  0.0492
  506MOL0     H68245  10.589   6.409   8.085 -0.3662  2.4565  0.4248
  506MOL0     H68246  10.668   6.373   7.935  2.8529  0.2605 -0.3775
  506MOL0     H68247  10.828   6.487   8.174  2.2040 -1.5511  0.7410
  506MOL0     H68248  10.801   6.321   8.151  0.6612  0.2140  0.8332
  506MOL0     H68249  10.940   6.496   7.923 -1.4096 -2.1723 -1.1941
  506MOL0     H68250  11.005   6.465   8.083  1.4378 -0.2582 -1.7438
  506MOL0     H68251  11.047   6.243   8.034 -0.0329  0.4096  0.5634
  506MOL0     H68252  10.897   6.225   7.946 -1.1510  2.5159  2.3285
  506MOL0     H68253  11.097   6.198   7.788 -0.3931 -0.0694 -1.0299
  506MOL0     H68254  10.995   6.329   7.741  2.0991  4.1039 -0.8939
  506MOL0     H68255  11.139   6.492   7.809  2.1715  1.2359  0.1069
  506MOL0     H68256  11.211   6.414   7.939 -0.2639  2.4290  0.0201
  506MOL0     H68257  11.321   6.271   7.743 -0.3336 -0.1458 -2.8017
  506MOL0     H68258  11.258   6.383   7.628 -1.0010 -4.0118 -0.2968
  506MOL0     H68259  11.399   6.565   7.723 -0.3795  0.1349 -1.7989
  506MOL0     H68260  11.500   6.428   7.688  2.1667  1.4784  1.4096
  506MOL0     H68261  11.538   6.229   7.902 -0.4688 -0.2902  1.9247
  506MOL0     H68262  11.674   6.211   8.138  0.2773  1.4960 -2.4473
  506MOL0     H68263  11.687   6.355   8.242 -0.5363  1.0898  0.5547
  506MOL0     H68264  11.553   6.185   8.347  1.9520  2.0716 -0.8275
  506MOL0     H68265  11.460   6.147   8.203 -1.3782  0.3804 -0.1136
  506MOL0     H68266  11.324   6.314   8.251  0.7895 -0.5578 -0.6602
  506MOL0     H68267  11.443   6.438   8.305  2.1440 -0.4307  3.4371
  506MOL0     H68268  11.450   6.310   8.539 -0.1484  0.8717  0.1335
  506MOL0     H68269  11.311   6.230   8.487 -0.2908  0.0436  1.1876
  506MOL0     H68270  11.136   6.609   8.601 -0.7465  0.6696  0.3831
  506MOL0     H68271  10.870   6.575   8.777  1.2449 -0.1282  0.0820
  506MOL0     H68272  10.968   6.691   8.702  1.2066 -1.1847  0.2045
  506MOL0     H68273  10.804   6.674   8.638 -0.3644 -0.4520  0.4821
  506MOL0     H68274  10.565   6.191   8.643  1.5228  0.6161 -0.7225
  506MOL0     H68275  10.349   6.078   8.665 -0.3517  1.7548  1.6457
  506MOL0     H68276   9.985   6.126   8.399  1.1191  2.6928 -0.2426
  506MOL0     H68277  10.117   6.123   8.277 -1.2201 -0.5859 -0.0876
  506MOL0     H68278   9.980   5.930   8.253  0.6691  2.6138 -0.2740
  506MOL0     H68279  10.156   5.894   8.280  1.4084  1.2980  2.3611
  506MOL0     H68280  10.043   5.869   8.544  0.8558  2.2748 -0.9530
  506MOL0     H68281  10.054   5.739   8.436  2.4995  1.1938  0.6153
  506MOL0     H68282   9.826   5.935   8.446  2.5938  0.1943 -1.9112
  506MOL0     H68283   9.818   5.781   8.371  2.7626 -2.6223 -0.7429
  506MOL0     H68284   9.816   5.842   8.664  2.4989  1.6508 -1.9261
  506MOL0     H68285   9.881   5.687   8.621 -2.7480 -1.3130  0.3046
  506MOL0     H68286   9.653   5.686   8.684  1.4037  1.1172  0.0775
  506MOL0     H68287   9.622   5.784   8.530 -1.7451 -1.0134 -1.3106
  506MOL0     H68288   9.757   5.509   8.548  1.2382  1.5813  0.9023
  506MOL0     H68289   9.702   5.592   8.397  0.1863 -2.7856 -0.1302
  506MOL0     H68290   9.540   5.464   8.613 -0.2111  1.6147  0.5606
  506MOL0     H68291   9.550   5.428   8.433  2.1959  0.1261 -1.6638
  506MOL0     H68292  10.244   6.255   8.278 -1.3617 -2.6575 -0.6843
  506MOL0     H68293  10.470   6.366   8.270  0.4411 -1.3902 -0.9289
  506MOL0     H68294  10.889   6.268   8.362 -0.0221 -0.2272  0.1917
  506MOL0     H68295  11.125   6.246   8.370  0.1129 -0.6058  1.0614
  506MOL0     H68296  10.599   6.837   7.968 -2.0063  1.3452  1.1811
  506MOL0     H68297  10.411   6.925   7.887  2.2552  0.8698 -0.0503
  506MOL0     H68298   9.967   6.799   7.722 -0.2924  1.3792  0.1853
  506MOL0     H68299   9.763   6.892   7.631  1.4002  2.6635  0.6726
  506MOL0     H68300   9.723   7.026   7.220 -0.0033 -1.0477 -0.1513
  506MOL0     H68301   9.669   6.860   7.234 -0.8545 -1.7179  1.4853
  506MOL0     H68302   9.512   7.114   7.290 -2.9984 -0.5713  1.3053
  506MOL0     H68303   9.460   6.949   7.340  2.4913 -1.4335  0.5940
  506MOL0     H68304   9.492   6.873   7.098  0.9584  0.3210 -0.4192
  506MOL0     H68305   9.520   7.049   7.050  0.5724  0.6279  0.9489
  506MOL0     H68306   9.314   7.112   7.125 -3.7273 -0.4606  2.4338
  506MOL0     H68307   9.265   6.961   7.193  2.1743 -1.9799  0.3463
  506MOL0     H68308   9.178   6.949   6.760  0.3731  2.5527 -0.5555
  506MOL0     H68309   9.919   6.890   7.241 -1.9795 -1.1185 -0.5535
  506MOL0     H68310  10.136   6.810   7.325 -2.8703 -0.4927 -2.5558
  507MOL0     O68311  10.065   1.534   8.266  0.4868  0.3737  0.1778
  507MOL0     C68312  10.032   1.423   8.225  0.7314  0.0229 -0.2997
  507MOL0     O68313  10.111   1.339   8.151  0.4445 -0.3679 -0.1462
  507MOL0     C68314  10.240   1.377   8.125  0.3803 -0.2106  0.7462
  507MOL0     C68315  10.352   1.328   8.198  0.7278  0.2418 -0.0907
  507MOL0     C68316  10.478   1.354   8.153  0.8671 -0.6829 -0.8810
  507MOL0     C68317  10.496   1.418   8.029 -0.0612  0.2535  0.6354
  507MOL0     O68318  10.621   1.401   7.981 -0.3763 -0.1813  0.3341
  507MOL0     C68319  10.654   1.482   7.869 -0.6134  0.1375 -0.2133
  507MOL0     C68320  10.810   1.473   7.833 -0.3417  0.3993 -0.5407
  507MOL0     C68321  10.904   1.532   7.944 -0.1258  0.2532 -0.0840
  507MOL0     C68322  11.054   1.513   7.908  0.9128  0.3718 -0.5948
  507MOL0     C68323  11.152   1.584   8.003 -0.1309 -0.2784 -0.0694
  507MOL0     C68324  11.297   1.595   7.943 -0.8145 -0.8580  0.2226
  507MOL0     C68325  11.342   1.457   7.882  0.0430  0.2851  0.1674
  507MOL0     C68326  11.490   1.457   7.853 -0.1573  0.0934  0.2694
  507MOL0     N68327  11.529   1.322   7.805  0.1378 -0.2946 -0.3128
  507MOL0     C68328  11.554   1.202   7.868 -0.1679  0.0661  0.0204
  507MOL0     C68329  11.589   1.107   7.772 -0.5471 -0.6539 -0.3719
  507MOL0     C68330  11.631   0.959   7.798 -0.0774  0.2343  0.6136
  507MOL0     C68331  11.505   0.879   7.750  0.0064  0.3150  0.4704
  507MOL0     C68332  11.517   0.731   7.789 -0.7226  0.0722  0.2424
  507MOL0     C68333  11.384   0.663   7.786 -1.2165  0.4540 -0.2096
  507MOL0     O68334  11.336   0.675   7.652 -0.5201 -0.5884 -0.2616
  507MOL0     C68335  11.200   0.660   7.653  1.0060 -0.4909  0.9328
  507MOL0     C68336  11.152   0.536   7.604  0.4259  0.0050  0.8853
  507MOL0     C68337  11.019   0.510   7.567  0.5870 -0.2981 -0.3702
  507MOL0     C68338  10.997   0.376   7.519  0.0001 -0.3187 -0.7370
  507MOL0     C68339  10.928   0.616   7.586  0.5774  0.4192 -0.4603
  507MOL0     C68340  10.785   0.605   7.550  0.7303 -0.1203 -0.0446
  507MOL0     O68341  10.705   0.705   7.589  0.6018 -0.2351 -0.2507
  507MOL0     C68342  10.562   0.709   7.584 -0.3427  0.1667 -0.0842
  507MOL0     C68343  10.497   0.786   7.676 -0.1436 -0.1142  0.5885
  507MOL0     C68344  10.351   0.794   7.685 -0.3052 -0.0091 -0.1931
  507MOL0     C68345  10.277   0.714   7.598 -0.0768  0.0146 -0.5051
  507MOL0     O68346  10.135   0.717   7.589 -0.6075  0.2070  0.0165
  507MOL0     C68347  10.058   0.771   7.703 -0.1296  0.1014  0.5904
  507MOL0     C68348   9.922   0.706   7.678 -0.5038 -0.0017  0.2248
  507MOL0     C68349   9.835   0.769   7.562 -0.0633  0.1997 -0.2021
  507MOL0     C68350   9.705   0.690   7.530 -0.6730  0.3558 -0.2756
  507MOL0     C68351   9.606   0.688   7.648 -0.4695 -0.6248  0.8076
  507MOL0     C68352   9.552   0.829   7.696 -0.0036  0.8995  0.6175
  507MOL0     C68353   9.414   0.804   7.762 -0.8854  0.4533  0.4817
  507MOL0     C68354   9.366   0.936   7.815  0.6448  0.7174  0.4487
  507MOL0    Cl68355   9.353   1.066   7.687 -0.2108  0.0320  0.1207
  507MOL0     C68356  10.343   0.636   7.497  1.1349 -0.5440  0.1374
  507MOL0     C68357  10.481   0.638   7.492 -0.3616  0.0713  0.1420
  507MOL0     O68358  10.743   0.496   7.514 -0.1189  0.1612 -0.2873
  507MOL0     C68359  10.970   0.747   7.638  0.4748  0.8461  0.8830
  507MOL0     C68360  11.104   0.765   7.667  0.6568 -0.0577 -0.3624
  507MOL0     N68361  11.569   1.172   7.656  0.3041 -1.1061  0.0621
  507MOL0     N68362  11.541   1.302   7.673  0.6021 -0.0402 -0.3398
  507MOL0     C68363  10.383   1.464   7.953  0.1866  0.1991 -0.6045
  507MOL0     C68364  10.256   1.445   8.006  0.0489  0.0745  0.0629
  507MOL0     C68365   9.896   1.381   8.246  1.6891  0.9094 -0.7863
  507MOL0     C68366   9.793   1.477   8.265  0.3384 -0.3107  0.6522
  507MOL0     C68367   9.656   1.439   8.275 -0.5394  1.0037 -0.0545
  507MOL0     C68368   9.618   1.305   8.266  0.0368 -0.3247  0.1305
  507MOL0     O68369   9.480   1.265   8.272 -0.6505 -0.6800 -0.0934
  507MOL0     C68370   9.427   1.233   8.142  0.2226  0.9073 -1.1824
  507MOL0     C68371   9.287   1.167   8.163  0.6032 -0.4990 -0.0926
  507MOL0     C68372   9.185   1.274   8.211  0.3584 -0.4095 -0.2564
  507MOL0     C68373   9.052   1.221   8.269  0.4698 -0.2161 -0.3725
  507MOL0     C68374   8.979   1.310   8.369  0.0588 -0.0703  0.0544
  507MOL0     C68375   8.908   1.374   8.442  0.2186  0.0928 -0.0695
  507MOL0     C68376   9.716   1.209   8.241  0.8585  0.6044  0.0336
  507MOL0     C68377   9.855   1.245   8.243  0.1549 -0.7020  0.8931
  507MOL0     H68378  10.333   1.253   8.274  1.7460  0.7758  0.7254
  507MOL0     H68379  10.553   1.290   8.198 -1.6652 -1.4160  2.8015
  507MOL0     H68380  10.595   1.455   7.781  0.0314  1.7003 -1.1582
  507MOL0     H68381  10.634   1.586   7.893 -2.2399  0.0091 -0.9114
  507MOL0     H68382  10.828   1.366   7.816  0.4982  0.8024 -2.4681
  507MOL0     H68383  10.829   1.518   7.736  1.5227  0.7888 -0.0364
  507MOL0     H68384  10.890   1.636   7.974  2.2672 -0.7558  5.7920
  507MOL0     H68385  10.887   1.491   8.043 -1.2720  0.2287 -0.2684
  507MOL0     H68386  11.079   1.407   7.904  0.9354  0.3448  0.1703
  507MOL0     H68387  11.064   1.559   7.809 -0.4966 -0.0304 -0.9511
  507MOL0     H68388  11.108   1.681   8.028 -0.5694  0.1257 -2.2432
  507MOL0     H68389  11.159   1.544   8.105 -0.2311  1.7441  0.7754
  507MOL0     H68390  11.302   1.664   7.858 -0.3399 -1.3852 -0.1824
  507MOL0     H68391  11.373   1.624   8.015  1.5452 -1.6410 -1.8303
  507MOL0     H68392  11.340   1.390   7.969  2.2665  0.6608  0.5895
  507MOL0     H68393  11.269   1.419   7.811  0.1505 -0.9326  0.6795
  507MOL0     H68394  11.548   1.462   7.946  2.3549 -2.2699 -1.0373
  507MOL0     H68395  11.526   1.540   7.791  0.1413 -0.8077 -0.7889
  507MOL0     H68396  11.553   1.187   7.975  0.5938 -2.8691 -0.2917
  507MOL0     H68397  11.719   0.935   7.738 -0.8338 -1.5143  0.1206
  507MOL0     H68398  11.652   0.934   7.903  1.6301 -3.0420 -0.3576
  507MOL0     H68399  11.500   0.883   7.641 -2.6727  0.3239  0.5257
  507MOL0     H68400  11.414   0.918   7.796 -0.0290  1.3622 -0.4438
  507MOL0     H68401  11.561   0.725   7.889  1.5838  2.6495 -0.5008
  507MOL0     H68402  11.579   0.680   7.715  0.1277  1.7104 -0.2109
  507MOL0     H68403  11.318   0.706   7.862  0.9464  1.1044  1.4035
  507MOL0     H68404  11.393   0.556   7.810 -0.6015  0.7745  1.0526
  507MOL0     H68405  11.233   0.466   7.589 -0.5032 -0.3916 -3.8385
  507MOL0     H68406  10.960   0.310   7.597 -1.0622  0.0953 -0.8727
  507MOL0     H68407  10.939   0.378   7.426  1.5714 -0.3771 -1.7585
  507MOL0     H68408  11.087   0.324   7.485 -0.0461 -1.2194  0.4521
  507MOL0     H68409  10.560   0.844   7.744  2.4997 -0.9899 -0.9638
  507MOL0     H68410  10.299   0.847   7.764 -2.4236  0.2071 -1.6193
  507MOL0     H68411  10.094   0.745   7.803 -2.2689 -0.2363  1.3325
  507MOL0     H68412  10.049   0.879   7.688  2.6576  0.7740  2.8426
  507MOL0     H68413   9.937   0.602   7.647 -0.7032 -0.2136  0.8272
  507MOL0     H68414   9.865   0.707   7.771 -0.3800  2.6032  0.3399
  507MOL0     H68415   9.909   0.779   7.482  0.7376 -0.4429  0.4403
  507MOL0     H68416   9.807   0.869   7.596  1.8627  0.5952  0.3821
  507MOL0     H68417   9.659   0.736   7.442  1.8047  0.2707 -1.7241
  507MOL0     H68418   9.740   0.591   7.500 -1.5981  0.4736 -1.8467
  507MOL0     H68419   9.652   0.634   7.732  0.8452  0.6391  0.9336
  507MOL0     H68420   9.525   0.622   7.616 -2.0632 -0.5688  4.2676
  507MOL0     H68421   9.625   0.872   7.764 -0.9294  0.6461  1.7979
  507MOL0     H68422   9.523   0.899   7.617 -0.8615  0.7493  0.7930
  507MOL0     H68423   9.419   0.717   7.828 -0.3954 -0.7743 -1.1102
  507MOL0     H68424   9.350   0.772   7.679  1.4009  0.1999 -1.2812
  507MOL0     H68425   9.437   0.975   7.888 -0.1222  0.5156  1.3113
  507MOL0     H68426   9.271   0.920   7.867  1.3228 -0.0029  1.5130
  507MOL0     H68427  10.273   0.591   7.427  2.8066 -1.5165 -0.9695
  507MOL0     H68428  10.534   0.588   7.411 -0.3791  4.1471 -2.6912
  507MOL0     H68429  10.897   0.827   7.645 -3.5598 -2.4580  0.4633
  507MOL0     H68430  11.111   0.867   7.705 -1.9550  0.9792 -2.3745
  507MOL0     H68431  10.389   1.519   7.860 -1.6538 -0.7901 -1.3454
  507MOL0     H68432  10.174   1.479   7.944 -0.5167 -1.9616 -0.3701
  507MOL0     H68433   9.823   1.581   8.270 -1.7726  0.3018  2.0277
  507MOL0     H68434   9.579   1.515   8.282 -2.0849 -0.6373  2.6078
  507MOL0     H68435   9.428   1.325   8.084 -1.5107  0.6107 -1.7566
  507MOL0     H68436   9.496   1.171   8.083  0.0931  0.9064 -1.3349
  507MOL0     H68437   9.292   1.086   8.236  4.8392  1.8725  2.6173
  507MOL0     H68438   9.252   1.127   8.067  1.3423 -2.4534  0.4076
  507MOL0     H68439   9.156   1.331   8.123 -1.4168  0.6421  0.9383
  507MOL0     H68440   9.227   1.336   8.291 -3.0388  2.0200 -0.1453
  507MOL0     H68441   9.081   1.127   8.316  3.7442 -0.2194 -2.1496
  507MOL0     H68442   8.989   1.195   8.182 -2.3472  0.3173  1.3685
  507MOL0     H68443   8.840   1.427   8.506 -1.0998 -0.1396 -1.2058
  507MOL0     H68444   9.680   1.107   8.237  0.4145  0.4322  3.9828
  507MOL0     H68445   9.940   1.178   8.235 -0.2370 -1.2114  0.9036
  508MOL0     O68446  11.176   1.241   5.918 -0.0402  0.1304 -0.1378
  508MOL0     C68447  11.233   1.141   5.874  0.0135  0.4453  0.3282
  508MOL0     O68448  11.175   1.037   5.821  0.0639 -0.0927  0.2828
  508MOL0     C68449  11.037   1.046   5.808 -0.0190 -0.6166 -0.0781
  508MOL0     C68450  10.984   1.133   5.714  0.4921 -1.2097 -0.4756
  508MOL0     C68451  10.848   1.155   5.715  0.3290 -0.0967 -0.5530
  508MOL0     C68452  10.762   1.073   5.791  0.1148 -0.7287  0.1530
  508MOL0     O68453  10.625   1.081   5.768  0.4047 -0.2537  0.6887
  508MOL0     C68454  10.542   1.058   5.881  0.6172 -0.5019 -0.1945
  508MOL0     C68455  10.451   0.931   5.867  0.0795  0.3680  0.4976
  508MOL0     C68456  10.356   0.963   5.760  1.0254 -0.4603  0.0087
  508MOL0     C68457  10.265   0.848   5.713 -0.8686 -0.5537  0.1981
  508MOL0     C68458  10.133   0.816   5.796 -0.0746  0.0922  0.2353
  508MOL0     C68459  10.011   0.892   5.737 -0.3378 -0.3032  0.1015
  508MOL0     C68460   9.887   0.836   5.818 -0.1744  0.3565 -0.0037
  508MOL0     C68461   9.757   0.883   5.743 -0.1695  0.1601  1.1322
  508MOL0     N68462   9.642   0.829   5.815  0.4432 -0.2384 -0.8262
  508MOL0     C68463   9.586   0.902   5.911  0.0878  0.0507 -0.8821
  508MOL0     C68464   9.465   0.842   5.943 -0.2332  0.7121 -0.0213
  508MOL0     C68465   9.377   0.901   6.044 -0.1875 -0.8658 -0.1731
  508MOL0     C68466   9.245   0.832   6.059 -0.2672  0.3575  0.2587
  508MOL0     C68467   9.159   0.903   6.162  0.2766 -0.1497  0.0583
  508MOL0     C68468   9.042   0.824   6.201 -0.5215 -0.0374 -0.6781
  508MOL0     O68469   8.949   0.858   6.102  0.1669 -0.2144  0.1066
  508MOL0     C68470   8.817   0.823   6.113 -0.6702 -0.1928 -0.3043
  508MOL0     C68471   8.748   0.770   6.223  0.6036 -0.3046 -0.5369
  508MOL0     C68472   8.621   0.723   6.206 -0.0724  0.1194 -0.5337
  508MOL0     C68473   8.548   0.665   6.328  0.1162  0.6278  0.5356
  508MOL0     C68474   8.558   0.724   6.074 -0.2816 -1.2453 -0.8022
  508MOL0     C68475   8.419   0.672   6.055 -0.1176 -0.5030  0.1948
  508MOL0     O68476   8.348   0.739   5.966  0.1139  0.5059  0.9599
  508MOL0     C68477   8.232   0.681   5.911  0.3692 -0.1044 -0.4501
  508MOL0     C68478   8.233   0.563   5.832 -1.2892 -0.7002  0.9909
  508MOL0     C68479   8.119   0.498   5.784 -0.1404 -0.2281  0.0926
  508MOL0     C68480   7.999   0.556   5.796 -0.1654 -0.0737 -1.0522
  508MOL0     O68481   7.896   0.496   5.727 -0.3304  0.2281 -0.1366
  508MOL0     C68482   7.755   0.506   5.750  0.2910 -0.1855  0.0850
  508MOL0     C68483   7.719   0.449   5.886 -0.1693  0.0438 -0.1376
  508MOL0     C68484   7.752   0.293   5.873  0.6279 -0.1327 -0.7764
  508MOL0     C68485   7.675   0.194   5.967  0.1618 -0.8171 -0.3896
  508MOL0     C68486   7.675   0.245   6.114 -0.1368  0.1381  0.8369
  508MOL0     C68487   7.818   0.256   6.171  0.5511 -0.2281 -0.9177
  508MOL0     C68488   7.896   0.119   6.175 -0.4758 -0.7279 -0.5895
  508MOL0     C68489   7.829   0.001   6.255  0.0676 -0.3700 -0.5381
  508MOL0    Cl68490   7.774   0.041   6.420 -0.1287 -0.0415 -0.3033
  508MOL0     C68491   7.986   0.674   5.878 -0.3468 -0.4009  0.3873
  508MOL0     C68492   8.099   0.729   5.935 -0.5168  0.2037 -0.4161
  508MOL0     O68493   8.394   0.564   6.099  1.0602  0.1781  0.2715
  508MOL0     C68494   8.621   0.792   5.973 -0.3244 -0.2615 -0.1915
  508MOL0     C68495   8.751   0.842   5.988 -0.0369  0.2766  0.1874
  508MOL0     N68496   9.461   0.725   5.867  0.2247 -0.0062 -0.0854
  508MOL0     N68497   9.565   0.717   5.788 -0.9598 -0.6799  0.3581
  508MOL0     C68498  10.819   0.974   5.881 -0.0967  0.1094 -0.1205
  508MOL0     C68499  10.959   0.960   5.895  0.0542 -0.0894  0.9273
  508MOL0     C68500  11.381   1.169   5.866  0.1559 -0.6584 -0.2217
  508MOL0     C68501  11.475   1.071   5.882 -0.3043 -0.8945 -0.4795
  508MOL0     C68502  11.615   1.100   5.881 -0.3924 -0.5515  0.4428
  508MOL0     C68503  11.660   1.231   5.860 -0.3748  0.9726 -0.1030
  508MOL0     O68504  11.793   1.255   5.840 -0.2248 -0.1912 -0.0468
  508MOL0     C68505  11.876   1.261   5.961  0.3479 -0.5657  0.2208
  508MOL0     C68506  11.842   1.381   6.045 -0.5347 -0.1531  0.8901
  508MOL0     C68507  11.818   1.342   6.193  0.1587 -0.5489 -0.4189
  508MOL0     C68508  11.681   1.260   6.212 -0.5043 -0.2724  0.6343
  508MOL0     C68509  11.566   1.354   6.221 -0.8475 -0.3494 -0.2583
  508MOL0     C68510  11.491   1.445   6.222  0.4001  0.4579  0.4010
  508MOL0     C68511  11.565   1.325   5.831 -0.2063  0.6957 -0.4994
  508MOL0     C68512  11.428   1.304   5.840 -0.3403  0.1475 -0.9428
  508MOL0     H68513  11.060   1.198   5.671  2.6371 -2.3836  1.3321
  508MOL0     H68514  10.807   1.222   5.639 -1.0589  0.9518  1.0283
  508MOL0     H68515  10.584   1.044   5.981 -1.1707 -0.9739  0.5355
  508MOL0     H68516  10.480   1.148   5.890 -0.2754 -1.1264  0.1064
  508MOL0     H68517  10.518   0.849   5.840 -2.2765 -1.7846  0.8719
  508MOL0     H68518  10.399   0.891   5.954 -0.6969  0.2282 -0.0235
  508MOL0     H68519  10.304   1.056   5.787  1.3669 -0.1367 -0.4304
  508MOL0     H68520  10.424   0.990   5.679  1.1226 -2.1522 -0.5073
  508MOL0     H68521  10.249   0.854   5.605  2.8657  3.0758 -0.3976
  508MOL0     H68522  10.334   0.764   5.729  0.2781  0.4435  0.6264
  508MOL0     H68523  10.102   0.712   5.784 -1.3663  0.5407 -0.5840
  508MOL0     H68524  10.147   0.832   5.903 -2.5116  1.3881  0.4465
  508MOL0     H68525  10.027   1.000   5.743  4.6595 -0.7525 -1.0957
  508MOL0     H68526  10.006   0.857   5.634 -2.7483 -0.0049  0.0536
  508MOL0     H68527   9.891   0.727   5.827 -1.1042  0.1077 -2.0020
  508MOL0     H68528   9.893   0.875   5.920 -1.7268  1.0643 -0.1459
  508MOL0     H68529   9.767   0.863   5.636 -1.9776  1.6389  0.6290
  508MOL0     H68530   9.753   0.992   5.733 -0.9073 -0.1039 -3.4394
  508MOL0     H68531   9.626   0.996   5.946 -1.2614  0.2915  0.1059
  508MOL0     H68532   9.432   0.903   6.139 -0.4585 -3.6736  0.1252
  508MOL0     H68533   9.365   1.003   6.007 -1.0131 -0.7720  0.3325
  508MOL0     H68534   9.263   0.726   6.081  5.2213  0.7105 -1.0293
  508MOL0     H68535   9.186   0.840   5.967 -2.2479 -1.2759  1.2953
  508MOL0     H68536   9.125   0.998   6.121  0.3201  0.1654  0.7359
  508MOL0     H68537   9.221   0.920   6.251  0.8273 -1.3620 -0.0726
  508MOL0     H68538   9.003   0.856   6.298  0.4440 -0.3383 -0.1775
  508MOL0     H68539   9.064   0.718   6.212  1.0950  0.5347  3.6523
  508MOL0     H68540   8.808   0.765   6.314 -2.0525  0.0291  1.3662
  508MOL0     H68541   8.560   0.556   6.336  0.0835  0.7107  2.0866
  508MOL0     H68542   8.584   0.718   6.416  1.3233  2.0289 -0.7447
  508MOL0     H68543   8.441   0.682   6.314 -0.5143 -0.7207  3.0319
  508MOL0     H68544   8.322   0.512   5.798 -2.1616  0.6568 -4.2483
  508MOL0     H68545   8.121   0.405   5.729 -2.0428 -0.5958  0.5631
  508MOL0     H68546   7.724   0.611   5.749  0.2037 -0.1936  1.1998
  508MOL0     H68547   7.701   0.452   5.672 -0.9483  0.9221  0.1574
  508MOL0     H68548   7.780   0.497   5.963 -1.2709  1.6938 -0.2282
  508MOL0     H68549   7.617   0.481   5.909  0.6360  2.7568  0.0102
  508MOL0     H68550   7.858   0.270   5.889  0.3532 -0.4060  0.9198
  508MOL0     H68551   7.720   0.266   5.773  1.3212 -0.0871 -1.0139
  508MOL0     H68552   7.570   0.205   5.939  0.2405  3.8959  0.4391
  508MOL0     H68553   7.700   0.088   5.956 -0.5724 -0.9265 -1.0960
  508MOL0     H68554   7.610   0.179   6.172 -0.9603 -0.1910 -0.4173
  508MOL0     H68555   7.630   0.344   6.129 -0.8590  0.1207 -1.0195
  508MOL0     H68556   7.868   0.342   6.125 -1.8384  2.2403  0.7304
  508MOL0     H68557   7.796   0.281   6.276 -0.9951 -1.2980 -0.9495
  508MOL0     H68558   7.988   0.144   6.229 -0.3433  1.8103 -1.8570
  508MOL0     H68559   7.931   0.088   6.076 -0.5168 -2.4960 -0.0859
  508MOL0     H68560   7.908  -0.074   6.251 -1.1362 -1.6575 -1.0604
  508MOL0     H68561   7.732  -0.023   6.208 -2.3867 -0.2532  3.9197
  508MOL0     H68562   7.886   0.716   5.889  0.9307  3.0718 -0.0328
  508MOL0     H68563   8.093   0.810   6.007  2.6326  0.8292 -0.7431
  508MOL0     H68564   8.573   0.795   5.876 -0.4052 -0.1487 -0.1480
  508MOL0     H68565   8.815   0.886   5.912  2.7980  0.6258  2.6334
  508MOL0     H68566  10.756   0.908   5.939 -3.9222  1.8122 -1.9175
  508MOL0     H68567  11.013   0.905   5.972  0.6461  0.6296  1.0329
  508MOL0     H68568  11.439   0.969   5.894  0.5872 -0.8882  4.5161
  508MOL0     H68569  11.693   1.026   5.894  1.4394  1.1507 -0.3673
  508MOL0     H68570  11.862   1.173   6.024 -3.0926  0.5553  1.2320
  508MOL0     H68571  11.984   1.254   5.939  0.3675 -0.5126  0.3019
  508MOL0     H68572  11.755   1.439   6.014 -0.3184  0.0191  0.5890
  508MOL0     H68573  11.925   1.453   6.042 -0.9873  0.3658 -0.8156
  508MOL0     H68574  11.820   1.427   6.262 -1.2673  0.6694 -1.8038
  508MOL0     H68575  11.901   1.277   6.221  1.4538  1.4320  0.5377
  508MOL0     H68576  11.672   1.203   6.305 -0.7717 -2.8636 -0.8707
  508MOL0     H68577  11.664   1.193   6.127 -0.1010  0.1574  0.2086
  508MOL0     H68578  11.416   1.522   6.223  1.2181  1.4172 -2.5442
  508MOL0     H68579  11.599   1.426   5.812 -0.1787  0.8828  0.4930
  508MOL0     H68580  11.360   1.388   5.828 -0.8070 -0.3952 -2.2962
  509MOL0     O68581   0.464   6.651   2.012  0.3851  0.4160  0.3012
  509MOL0     C68582   0.425   6.560   2.085 -0.1502  0.1082 -1.0040
  509MOL0     O68583   0.296   6.535   2.117 -0.5545  0.2447 -0.7860
  509MOL0     C68584   0.191   6.588   2.038  1.2044  0.5398 -0.1548
  509MOL0     C68585   0.077   6.638   2.099  0.6419 -0.3624  0.0207
  509MOL0     C68586  -0.026   6.679   2.017 -0.6814  0.2364  0.6813
  509MOL0     C68587  -0.019   6.676   1.883  0.5852 -0.4798  0.7348
  509MOL0     O68588  -0.125   6.733   1.812 -0.4509  0.0233 -0.3123
  509MOL0     C68589  -0.110   6.798   1.684 -0.0133  0.2365 -0.3255
  509MOL0     C68590  -0.171   6.731   1.563 -0.6784  0.3474 -0.1780
  509MOL0     C68591  -0.323   6.730   1.588 -0.3001  0.8107  0.3439
  509MOL0     C68592  -0.367   6.726   1.447  0.3910  0.0561  0.0838
  509MOL0     C68593  -0.521   6.715   1.420 -0.7368 -0.6281 -0.2337
  509MOL0     C68594  -0.591   6.854   1.450  0.3718  0.7326  0.6533
  509MOL0     C68595  -0.729   6.870   1.397 -0.0914  0.2054  0.1855
  509MOL0     C68596  -0.823   6.763   1.455  0.2849 -0.4594 -0.4144
  509MOL0     N68597  -0.962   6.811   1.442 -0.2344 -0.0192  0.0953
  509MOL0     C68598  -1.015   6.908   1.519  0.4076  0.7761 -0.8400
  509MOL0     C68599  -1.140   6.927   1.464 -1.0295  0.0068 -0.2002
  509MOL0     C68600  -1.228   7.040   1.526 -0.2219  0.1515  0.6146
  509MOL0     C68601  -1.382   7.002   1.550  0.0797  0.1826  0.3494
  509MOL0     C68602  -1.411   6.969   1.696  0.0422 -0.1681  0.2537
  509MOL0     C68603  -1.328   6.858   1.773 -0.2673 -0.3235 -0.3783
  509MOL0     O68604  -1.380   6.850   1.905 -0.0224  0.1928 -0.3288
  509MOL0     C68605  -1.467   6.753   1.940 -0.1700 -0.4072 -0.2897
  509MOL0     C68606  -1.484   6.759   2.073  0.6147  0.1083 -1.2957
  509MOL0     C68607  -1.565   6.672   2.142  0.6632 -0.0484 -0.5953
  509MOL0     C68608  -1.602   6.696   2.285  0.4374  0.3537  0.0662
  509MOL0     C68609  -1.627   6.569   2.055 -0.2227 -0.0876 -1.1107
  509MOL0     C68610  -1.716   6.458   2.106 -0.4469  0.7145 -0.9145
  509MOL0     O68611  -1.811   6.411   2.021 -0.1924  0.4854 -0.2005
  509MOL0     C68612  -1.890   6.303   2.044  0.7395  0.3778 -0.4583
  509MOL0     C68613  -1.950   6.278   2.167 -0.4920  0.2601  0.2779
  509MOL0     C68614  -2.047   6.179   2.196  0.3040 -0.1162 -0.6774
  509MOL0     C68615  -2.084   6.097   2.096  0.6984 -0.2661 -0.3380
  509MOL0     O68616  -2.155   5.983   2.115  0.1700 -0.3797 -0.5183
  509MOL0     C68617  -2.240   5.978   2.229  0.9103 -0.2533 -1.2248
  509MOL0     C68618  -2.348   5.876   2.203  0.7303 -0.2785 -0.4897
  509MOL0     C68619  -2.437   5.835   2.329 -0.0826 -0.3941  1.1330
  509MOL0     C68620  -2.473   5.687   2.304  0.4431  0.0362 -0.0876
  509MOL0     C68621  -2.532   5.624   2.430 -0.5180 -0.3908  0.0642
  509MOL0     C68622  -2.669   5.675   2.478  0.3665  0.2491  0.3809
  509MOL0     C68623  -2.749   5.588   2.564 -0.0186  0.0372 -0.1081
  509MOL0     C68624  -2.894   5.626   2.536 -0.6447  0.5260 -0.8412
  509MOL0    Cl68625  -2.924   5.581   2.366 -0.0378  0.1739 -0.2028
  509MOL0     C68626  -2.040   6.126   1.968 -0.6497 -0.4883 -0.0040
  509MOL0     C68627  -1.943   6.231   1.939 -0.3374  0.8116 -0.1637
  509MOL0     O68628  -1.692   6.417   2.220 -1.0970 -0.4494  0.7081
  509MOL0     C68629  -1.606   6.570   1.917  0.4138 -0.0422  0.2879
  509MOL0     C68630  -1.522   6.659   1.862  0.4149  0.6720 -0.2912
  509MOL0     N68631  -1.161   6.845   1.356 -0.2944  0.3280 -0.1303
  509MOL0     N68632  -1.053   6.779   1.342  0.2555 -0.1453 -0.3334
  509MOL0     C68633   0.099   6.633   1.824 -0.7380 -0.5256 -0.4964
  509MOL0     C68634   0.210   6.593   1.905 -0.5986 -0.0362  1.0520
  509MOL0     C68635   0.525   6.475   2.155  0.5799 -0.1711 -0.7654
  509MOL0     C68636   0.490   6.363   2.220  0.2739  0.5924 -0.3040
  509MOL0     C68637   0.599   6.276   2.264  0.3466 -0.9617 -0.1945
  509MOL0     C68638   0.734   6.321   2.259 -0.5913 -0.0481  0.0696
  509MOL0     O68639   0.839   6.243   2.295  0.7149 -0.0679 -0.0091
  509MOL0     C68640   0.811   6.106   2.324  0.0410 -0.6819  0.7843
  509MOL0     C68641   0.943   6.030   2.331 -0.8777 -0.3606 -0.8055
  509MOL0     C68642   0.930   5.878   2.333 -0.8619  0.5267 -0.3211
  509MOL0     C68643   1.076   5.816   2.336  0.7699 -0.0698 -0.1195
  509MOL0     C68644   1.061   5.682   2.300  0.2709  0.2453  0.3474
  509MOL0     C68645   1.055   5.566   2.279  0.4292  0.2221  0.2144
  509MOL0     C68646   0.763   6.451   2.204 -0.0191  1.1276 -0.2378
  509MOL0     C68647   0.651   6.520   2.157  0.7276 -0.6595  0.3618
  509MOL0     H68648   0.073   6.649   2.207 -0.1781  0.7995 -0.1054
  509MOL0     H68649  -0.107   6.726   2.072  0.3675  0.2312  2.3019
  509MOL0     H68650  -0.158   6.895   1.699 -1.4936 -0.1919 -1.9519
  509MOL0     H68651  -0.006   6.812   1.653 -0.3406  0.8966 -1.1551
  509MOL0     H68652  -0.133   6.784   1.475  2.1153 -0.5822  0.3622
  509MOL0     H68653  -0.140   6.628   1.540  0.1011  1.2649 -3.8294
  509MOL0     H68654  -0.354   6.635   1.632  0.5017  0.2661 -0.2414
  509MOL0     H68655  -0.368   6.820   1.632  1.0153  2.0157 -0.7013
  509MOL0     H68656  -0.332   6.821   1.405  1.0231 -0.2485 -0.0900
  509MOL0     H68657  -0.324   6.638   1.399 -0.1559 -0.8473  1.2004
  509MOL0     H68658  -0.519   6.693   1.313  2.9680 -1.7972 -0.0652
  509MOL0     H68659  -0.566   6.631   1.475  0.2473 -0.6052  0.6226
  509MOL0     H68660  -0.592   6.873   1.558  0.6666  2.1395  0.4309
  509MOL0     H68661  -0.537   6.943   1.415  0.6547  0.5233  0.5481
  509MOL0     H68662  -0.763   6.967   1.433 -1.4907 -0.3883  0.5023
  509MOL0     H68663  -0.730   6.862   1.288 -0.7852 -0.4154  0.2351
  509MOL0     H68664  -0.788   6.744   1.557  1.1646 -1.7190 -0.9266
  509MOL0     H68665  -0.816   6.671   1.398 -1.2140 -1.0077  0.2327
  509MOL0     H68666  -0.979   6.958   1.609 -2.7941  0.2393  0.9091
  509MOL0     H68667  -1.188   7.081   1.620  0.6095  2.1400 -0.5353
  509MOL0     H68668  -1.239   7.122   1.454 -2.3986 -1.3157 -0.8573
  509MOL0     H68669  -1.402   6.912   1.491  1.0423  0.8737 -1.0676
  509MOL0     H68670  -1.447   7.084   1.520 -0.3926 -0.0466  0.7255
  509MOL0     H68671  -1.516   6.946   1.718  0.2328 -0.0524  1.3446
  509MOL0     H68672  -1.395   7.063   1.750 -1.0084 -1.8723  3.8332
  509MOL0     H68673  -1.225   6.892   1.782 -0.8597  1.0556  2.9906
  509MOL0     H68674  -1.326   6.762   1.722  4.2061  0.5473 -2.2939
  509MOL0     H68675  -1.441   6.844   2.125  0.0093  0.7868 -1.9041
  509MOL0     H68676  -1.711   6.683   2.293  0.5173  0.3572  1.3723
  509MOL0     H68677  -1.548   6.640   2.362  1.2464  0.2766 -0.5450
  509MOL0     H68678  -1.592   6.803   2.306  0.0583  0.9129 -2.2824
  509MOL0     H68679  -1.913   6.330   2.256 -4.1930  0.0486  2.1531
  509MOL0     H68680  -2.078   6.161   2.299  3.2818  0.4365  0.4146
  509MOL0     H68681  -2.182   5.944   2.314 -2.2908  1.6311  1.9861
  509MOL0     H68682  -2.287   6.074   2.254 -3.3069 -2.4843  0.4846
  509MOL0     H68683  -2.420   5.907   2.128  0.4285 -1.7678 -0.8421
  509MOL0     H68684  -2.296   5.793   2.155  1.0513 -1.3268  1.5463
  509MOL0     H68685  -2.524   5.900   2.335 -0.5730 -1.1470  2.7097
  509MOL0     H68686  -2.373   5.854   2.416 -0.1060  1.5886  0.7603
  509MOL0     H68687  -2.536   5.667   2.217  0.4272 -1.2673  0.1968
  509MOL0     H68688  -2.384   5.629   2.279  0.5879 -0.1466  0.8140
  509MOL0     H68689  -2.470   5.656   2.514 -2.6102 -0.1135  1.5911
  509MOL0     H68690  -2.546   5.517   2.412  1.6175 -0.8495  0.8261
  509MOL0     H68691  -2.647   5.763   2.538 -0.1573  0.3942  0.3650
  509MOL0     H68692  -2.724   5.705   2.388 -0.6196 -0.5631  0.6907
  509MOL0     H68693  -2.734   5.598   2.672  0.6745 -0.5330 -0.1444
  509MOL0     H68694  -2.737   5.486   2.527  2.7240  1.0039 -2.1843
  509MOL0     H68695  -2.911   5.733   2.551 -1.9985  0.4089 -1.4015
  509MOL0     H68696  -2.964   5.569   2.598 -0.3298  1.4697  0.4054
  509MOL0     H68697  -2.087   6.065   1.892  2.2882 -1.3171 -1.2877
  509MOL0     H68698  -1.913   6.258   1.838 -1.1885 -1.4502 -1.0749
  509MOL0     H68699  -1.645   6.496   1.848 -0.2848  0.2402  0.3765
  509MOL0     H68700  -1.506   6.653   1.754  1.2535  1.6262 -0.2404
  509MOL0     H68701   0.104   6.627   1.716  1.0332 -1.8928 -0.3759
  509MOL0     H68702   0.300   6.558   1.855 -1.2831  0.0738 -0.3139
  509MOL0     H68703   0.385   6.334   2.218 -0.3967  2.7879  0.2313
  509MOL0     H68704   0.577   6.179   2.308  0.0771  0.6168  3.5125
  509MOL0     H68705   0.760   6.112   2.421  1.9621  3.9683  1.8025
  509MOL0     H68706   0.744   6.060   2.251 -0.4216  2.6782 -1.0983
  509MOL0     H68707   0.994   6.059   2.423 -1.0738 -1.3332 -0.3736
  509MOL0     H68708   1.007   6.068   2.250 -0.4726 -0.3696 -0.4920
  509MOL0     H68709   0.887   5.838   2.241  1.9731  0.7834 -1.8973
  509MOL0     H68710   0.873   5.840   2.418 -0.8573  1.0143 -0.0933
  509MOL0     H68711   1.121   5.825   2.435 -0.3704 -3.4213  0.8521
  509MOL0     H68712   1.141   5.873   2.270  2.9287 -0.7590  1.3116
  509MOL0     H68713   1.060   5.463   2.252  0.7362  0.4112 -0.4705
  509MOL0     H68714   0.863   6.493   2.197 -0.2422  1.4193 -2.4081
  509MOL0     H68715   0.666   6.618   2.113 -2.8718 -0.2389 -0.2409
  510MOL0     O68716   2.505   3.216   8.161  0.1056 -0.4318  0.1160
  510MOL0     C68717   2.522   3.183   8.042  0.2872 -0.4724 -0.1626
  510MOL0     O68718   2.421   3.149   7.952  0.4509 -0.0730  0.3572
  510MOL0     C68719   2.295   3.215   7.966 -0.0288  0.5163 -0.1831
  510MOL0     C68720   2.285   3.353   7.956  0.6297  0.0054  0.2708
  510MOL0     C68721   2.158   3.421   7.974  0.0500  0.7646  0.9693
  510MOL0     C68722   2.038   3.346   7.983  0.1784  0.7629  0.1640
  510MOL0     O68723   1.902   3.382   7.989  0.1240 -0.0270  0.0513
  510MOL0     C68724   1.873   3.502   8.063 -0.0930 -0.2639  0.0486
  510MOL0     C68725   1.749   3.558   8.004 -0.7150 -0.6595  0.1077
  510MOL0     C68726   1.735   3.714   8.019 -0.1312 -0.7612  0.1509
  510MOL0     C68727   1.604   3.761   7.951 -0.1360 -0.3424  0.5452
  510MOL0     C68728   1.595   3.908   7.922  0.1421 -0.9846  0.3648
  510MOL0     C68729   1.451   3.925   7.861  0.3745 -0.4946  1.1139
  510MOL0     C68730   1.422   4.064   7.808 -0.3674 -0.2408 -0.0589
  510MOL0     C68731   1.281   4.100   7.752 -0.1653 -0.0510 -0.8021
  510MOL0     N68732   1.256   4.033   7.629  0.0014  0.2405  0.4176
  510MOL0     C68733   1.288   4.080   7.505 -0.3279 -0.1943 -0.3786
  510MOL0     C68734   1.216   4.011   7.415 -0.1563  0.3204 -0.7693
  510MOL0     C68735   1.219   4.031   7.264  0.7251  0.3619 -0.7115
  510MOL0     C68736   1.081   4.050   7.207 -0.0116  0.0795 -0.0663
  510MOL0     C68737   1.090   4.109   7.061 -0.0535 -0.6990 -0.1448
  510MOL0     C68738   0.970   4.092   6.964 -0.1034 -0.1470 -0.2709
  510MOL0     O68739   0.858   4.128   7.045  0.0089 -0.2967 -0.3294
  510MOL0     C68740   0.742   4.145   6.981  0.4467  0.1932 -0.3745
  510MOL0     C68741   0.718   4.170   6.845 -0.0711 -0.1313  0.0712
  510MOL0     C68742   0.590   4.187   6.797  0.2893  0.6023  0.0679
  510MOL0     C68743   0.578   4.204   6.648 -0.6338 -0.0996  1.2011
  510MOL0     C68744   0.480   4.180   6.886  1.5764  0.4756 -0.3284
  510MOL0     C68745   0.345   4.168   6.843 -0.2704 -0.2036  0.4161
  510MOL0     O68746   0.252   4.211   6.940  0.4813  0.4874  0.3919
  510MOL0     C68747   0.117   4.232   6.903  0.3219 -0.2751  0.3921
  510MOL0     C68748   0.078   4.258   6.771 -0.4611 -0.1305  0.7160
  510MOL0     C68749  -0.051   4.294   6.733 -0.2883 -0.7816  0.6210
  510MOL0     C68750  -0.149   4.313   6.837 -0.2439 -0.9669  0.9200
  510MOL0     O68751  -0.287   4.337   6.807 -0.1049 -0.2364 -0.3259
  510MOL0     C68752  -0.327   4.376   6.680 -0.7329 -0.1660  0.2695
  510MOL0     C68753  -0.306   4.525   6.657  0.0986  0.3547  0.1674
  510MOL0     C68754  -0.359   4.559   6.520 -0.1432 -0.9298 -1.1077
  510MOL0     C68755  -0.514   4.554   6.509 -0.0396  0.1474  0.8739
  510MOL0     C68756  -0.545   4.623   6.376  0.2676  0.0367  0.0243
  510MOL0     C68757  -0.691   4.592   6.328 -0.5821 -0.9380  0.1236
  510MOL0     C68758  -0.717   4.606   6.177 -0.2472  0.0808  0.0494
  510MOL0     C68759  -0.866   4.584   6.152  0.2132 -0.0640  0.5959
  510MOL0    Cl68760  -0.977   4.697   6.221 -0.0671  0.4742 -0.1399
  510MOL0     C68761  -0.115   4.272   6.968 -0.9011  0.5736 -0.6239
  510MOL0     C68762   0.014   4.240   6.999 -0.4129 -0.5484  0.1014
  510MOL0     O68763   0.321   4.106   6.740 -0.6277 -0.1578 -0.0196
  510MOL0     C68764   0.507   4.164   7.026 -0.5602 -0.6120 -0.7665
  510MOL0     C68765   0.638   4.151   7.070  0.3555 -0.0952 -0.1238
  510MOL0     N68766   1.146   3.914   7.498  0.0141 -0.3126  0.6271
  510MOL0     N68767   1.171   3.932   7.628  0.1301  0.3737  0.0122
  510MOL0     C68768   2.047   3.203   7.996 -0.0966 -0.4666  0.2922
  510MOL0     C68769   2.177   3.139   7.987  0.6508  0.6314  0.3979
  510MOL0     C68770   2.672   3.153   8.018  0.2424  0.7816  0.0708
  510MOL0     C68771   2.696   3.113   7.884 -0.8235 -0.3787  0.7357
  510MOL0     C68772   2.829   3.096   7.838 -0.5112 -0.8055 -0.0514
  510MOL0     C68773   2.933   3.109   7.937  1.4450  0.7504 -1.2595
  510MOL0     O68774   3.059   3.102   7.890 -0.5176  0.0741 -0.1419
  510MOL0     C68775   3.094   2.989   7.798 -0.9475 -0.4249 -0.0296
  510MOL0     C68776   3.253   2.964   7.783  0.5973  0.3833 -0.6772
  510MOL0     C68777   3.307   2.918   7.912 -0.3287  0.2384 -0.2150
  510MOL0     C68778   3.463   2.904   7.923  0.4136 -0.3177  0.0970
  510MOL0     C68779   3.520   2.814   7.823 -0.2991 -0.2937  0.5206
  510MOL0     C68780   3.556   2.741   7.737  0.7056 -0.1464  0.3950
  510MOL0     C68781   2.906   3.163   8.063  0.3672 -0.6728 -0.2405
  510MOL0     C68782   2.777   3.185   8.110  0.1670 -0.3017 -0.7391
  510MOL0     H68783   2.373   3.406   7.922  1.2747 -0.6932  0.8212
  510MOL0     H68784   2.159   3.528   7.953  0.6485  0.1690 -2.7801
  510MOL0     H68785   1.844   3.473   8.164 -2.6301 -0.4769 -0.6698
  510MOL0     H68786   1.953   3.576   8.065 -1.3724  1.1516  1.5743
  510MOL0     H68787   1.751   3.527   7.899  0.4333  0.8112 -0.3336
  510MOL0     H68788   1.663   3.508   8.050 -1.3477  1.6498  1.5858
  510MOL0     H68789   1.736   3.740   8.125  5.6291  0.5032  0.0995
  510MOL0     H68790   1.829   3.760   7.987  1.1429 -1.8074  2.1873
  510MOL0     H68791   1.599   3.710   7.854  1.3039  0.8381 -0.1900
  510MOL0     H68792   1.515   3.723   8.002 -1.6962  1.3529 -0.7660
  510MOL0     H68793   1.607   3.972   8.010 -0.5436  1.2976 -1.1022
  510MOL0     H68794   1.668   3.947   7.850 -2.4664  4.4642  0.1760
  510MOL0     H68795   1.429   3.844   7.791 -0.7921 -0.2547  1.1948
  510MOL0     H68796   1.374   3.903   7.935 -1.7209  0.9036 -0.5212
  510MOL0     H68797   1.450   4.137   7.884 -0.1641 -1.5513  1.1594
  510MOL0     H68798   1.488   4.075   7.721  0.0483 -0.5464  0.2102
  510MOL0     H68799   1.277   4.209   7.739  0.7774  0.2553  1.1548
  510MOL0     H68800   1.207   4.071   7.826  1.0109 -1.3544 -0.0974
  510MOL0     H68801   1.349   4.169   7.499  1.0445 -1.0313  0.4241
  510MOL0     H68802   1.287   4.114   7.245  0.2150  0.8998 -0.2343
  510MOL0     H68803   1.270   3.944   7.222 -1.0242 -1.1694  0.1777
  510MOL0     H68804   1.018   4.115   7.270 -2.2483 -2.4364  0.4876
  510MOL0     H68805   1.039   3.949   7.205  0.8600 -0.3603  1.8230
  510MOL0     H68806   1.178   4.066   7.013  0.2184 -0.8514  0.4903
  510MOL0     H68807   1.120   4.214   7.069  1.8512 -0.6764 -4.5495
  510MOL0     H68808   0.975   3.988   6.930  0.9071 -0.0102 -0.5647
  510MOL0     H68809   0.977   4.160   6.878  0.9193 -0.0144 -0.0939
  510MOL0     H68810   0.797   4.181   6.772 -0.1878 -0.0866 -0.0500
  510MOL0     H68811   0.566   4.109   6.595  0.0116  0.6469 -0.3465
  510MOL0     H68812   0.505   4.285   6.636  0.4599  0.8186  0.4887
  510MOL0     H68813   0.665   4.256   6.607 -3.5044  1.1803 -4.2404
  510MOL0     H68814   0.146   4.265   6.686 -0.8522  0.3834  0.4468
  510MOL0     H68815  -0.068   4.296   6.626  0.3420 -3.2919  0.3952
  510MOL0     H68816  -0.292   4.310   6.600 -0.8270 -0.5554  0.5472
  510MOL0     H68817  -0.434   4.352   6.675 -0.6575 -1.3803  2.8397
  510MOL0     H68818  -0.370   4.571   6.733 -2.2939  0.7177 -1.9339
  510MOL0     H68819  -0.200   4.550   6.665  0.7143 -1.7639 -0.5491
  510MOL0     H68820  -0.301   4.505   6.444  1.8212  2.8359 -2.5060
  510MOL0     H68821  -0.333   4.663   6.499 -2.3619  0.0549  0.5417
  510MOL0     H68822  -0.534   4.446   6.510  0.9445 -0.0489  0.6947
  510MOL0     H68823  -0.554   4.594   6.602  0.9126  0.3059  1.2320
  510MOL0     H68824  -0.473   4.591   6.300  0.5289  0.3946  0.1126
  510MOL0     H68825  -0.545   4.732   6.390 -3.4241  0.4203 -1.6654
  510MOL0     H68826  -0.715   4.488   6.352 -2.7527 -0.4026  0.5113
  510MOL0     H68827  -0.767   4.644   6.387  0.2118  1.5740 -0.9715
  510MOL0     H68828  -0.657   4.541   6.113  1.1334  2.3754 -1.1494
  510MOL0     H68829  -0.693   4.708   6.145 -2.3479  1.3554  2.2258
  510MOL0     H68830  -0.893   4.484   6.188  1.1173 -0.1565  1.0646
  510MOL0     H68831  -0.883   4.585   6.044 -1.7421  2.9831  0.8265
  510MOL0     H68832  -0.187   4.272   7.049  0.7436 -0.3748  0.9090
  510MOL0     H68833   0.057   4.226   7.098  0.1363  0.0334 -0.0517
  510MOL0     H68834   0.422   4.162   7.093 -0.7557  3.7081 -0.6158
  510MOL0     H68835   0.649   4.144   7.177 -0.9974  1.0935  0.1222
  510MOL0     H68836   1.959   3.141   8.008  0.3100 -0.9151  1.0217
  510MOL0     H68837   2.186   3.031   7.987 -0.8945  0.4723  1.2358
  510MOL0     H68838   2.619   3.121   7.809 -0.8729 -0.0893  0.8165
  510MOL0     H68839   2.842   3.098   7.731 -0.6144 -1.2062 -0.0727
  510MOL0     H68840   3.039   2.903   7.837 -0.6869 -0.7033 -0.2724
  510MOL0     H68841   3.045   3.006   7.702 -0.1925 -0.3748 -0.4122
  510MOL0     H68842   3.309   3.057   7.765  3.1176 -0.9481 -0.1255
  510MOL0     H68843   3.271   2.893   7.701 -1.3562 -1.1406  0.1468
  510MOL0     H68844   3.269   2.819   7.938  0.8027 -0.7021 -1.8916
  510MOL0     H68845   3.278   2.991   7.988  0.5358  0.4388 -0.0607
  510MOL0     H68846   3.506   2.871   8.018 -1.9383 -1.2008  0.9093
  510MOL0     H68847   3.503   3.003   7.898 -2.0757  0.2488 -2.1078
  510MOL0     H68848   3.589   2.666   7.667  3.6674 -0.7912  2.2816
  510MOL0     H68849   2.983   3.194   8.134 -0.3612  2.5830 -0.7173
  510MOL0     H68850   2.771   3.225   8.211  2.4768 -1.7250  0.0540
  511MOL0     O68851   0.667  10.846   2.747 -0.0895  0.1028 -0.0682
  511MOL0     C68852   0.733  10.745   2.700 -0.8522 -0.2549 -0.0614
  511MOL0     O68853   0.690  10.612   2.688  0.3419 -0.2548 -0.5820
  511MOL0     C68854   0.549  10.588   2.687  0.1123  0.2444 -0.0444
  511MOL0     C68855   0.490  10.472   2.743  0.0033 -0.5108 -0.1233
  511MOL0     C68856   0.345  10.460   2.741  0.0563 -0.2241 -0.4090
  511MOL0     C68857   0.258  10.558   2.684  0.1046 -0.0621  0.1577
  511MOL0     O68858   0.118  10.537   2.681 -0.5376  0.0091 -0.0879
  511MOL0     C68859   0.069  10.518   2.819 -0.3676 -0.4805  0.8890
  511MOL0     C68860  -0.082  10.526   2.824  1.4425  0.2277 -0.1728
  511MOL0     C68861  -0.142  10.665   2.822 -1.4271 -0.1170 -0.8662
  511MOL0     C68862  -0.299  10.671   2.836  0.7948 -0.8850 -0.3070
  511MOL0     C68863  -0.351  10.818   2.795 -0.1804  0.6902 -0.9254
  511MOL0     C68864  -0.485  10.857   2.858 -0.3657 -0.3015 -0.1749
  511MOL0     C68865  -0.518  11.005   2.834 -0.0684  0.1806 -0.2506
  511MOL0     C68866  -0.562  11.028   2.698 -0.1780 -0.0274 -0.2783
  511MOL0     N68867  -0.563  11.177   2.678 -0.9737  1.0019 -0.3749
  511MOL0     C68868  -0.673  11.253   2.703 -0.4690 -0.0501  0.1838
  511MOL0     C68869  -0.634  11.381   2.692  0.4502 -0.3249 -0.2048
  511MOL0     C68870  -0.721  11.501   2.693  0.9235  0.9201  1.2388
  511MOL0     C68871  -0.753  11.550   2.831 -0.1542  0.3238 -0.3248
  511MOL0     C68872  -0.625  11.597   2.903  0.7478  0.7648 -0.9347
  511MOL0     C68873  -0.656  11.641   3.051 -0.8820 -0.1279  0.3529
  511MOL0     O68874  -0.753  11.750   3.055  0.6296  1.1854  0.6671
  511MOL0     C68875  -0.887  11.728   3.051  0.2171  0.0507 -0.2033
  511MOL0     C68876  -0.962  11.839   3.002 -0.1897 -0.1342  0.1803
  511MOL0     C68877  -1.104  11.834   2.983 -0.7469 -0.4911 -0.1604
  511MOL0     C68878  -1.172  11.943   2.908 -0.0818  0.3729 -0.0852
  511MOL0     C68879  -1.175  11.715   3.022 -0.4240 -0.0434 -0.4055
  511MOL0     C68880  -1.317  11.688   3.006 -0.2128 -0.3951 -0.1855
  511MOL0     O68881  -1.351  11.559   3.005 -0.9128  0.2756  0.0926
  511MOL0     C68882  -1.483  11.516   3.014  0.5009  0.2183  0.4546
  511MOL0     C68883  -1.589  11.556   2.940  0.2645 -0.3656  0.0685
  511MOL0     C68884  -1.711  11.491   2.935 -0.2531 -0.0500 -0.2126
  511MOL0     C68885  -1.734  11.388   3.024 -0.4564  0.6905  0.9165
  511MOL0     O68886  -1.852  11.308   3.028 -0.7997 -0.0463 -0.2741
  511MOL0     C68887  -1.927  11.309   2.902  0.0850  0.9077 -0.1859
  511MOL0     C68888  -2.014  11.178   2.876  0.0683 -0.5654  0.1903
  511MOL0     C68889  -1.935  11.061   2.918  0.2075  0.5979  0.6934
  511MOL0     C68890  -1.858  10.980   2.814 -0.3382 -0.1240  0.2312
  511MOL0     C68891  -1.749  11.069   2.766 -0.3129 -0.2620 -0.2882
  511MOL0     C68892  -1.623  10.990   2.720  0.5666  0.5091  0.2396
  511MOL0     C68893  -1.647  10.892   2.611 -0.7145  0.6869 -0.3270
  511MOL0     C68894  -1.545  10.779   2.587 -0.6740  0.1088  0.0551
  511MOL0    Cl68895  -1.382  10.827   2.550 -0.8368 -0.2034  0.3011
  511MOL0     C68896  -1.627  11.344   3.102  0.0404  0.8620  0.1110
  511MOL0     C68897  -1.506  11.414   3.098  0.6847 -0.3815  0.5098
  511MOL0     O68898  -1.392  11.789   3.006  0.4347 -0.0176 -0.2802
  511MOL0     C68899  -1.096  11.614   3.093 -0.5894  0.0845  0.2920
  511MOL0     C68900  -0.960  11.619   3.112 -0.5229 -1.0013 -0.7634
  511MOL0     N68901  -0.511  11.377   2.630 -0.6557  0.3300 -0.2490
  511MOL0     N68902  -0.473  11.256   2.615 -0.3494 -0.7220 -0.7782
  511MOL0     C68903   0.319  10.664   2.627  0.3132 -0.2678 -0.2944
  511MOL0     C68904   0.461  10.679   2.621  0.4838 -0.3978 -0.4636
  511MOL0     C68905   0.856  10.781   2.623 -0.2581  0.0187 -0.9358
  511MOL0     C68906   0.900  10.696   2.531  0.5835  0.5435  0.5164
  511MOL0     C68907   1.008  10.719   2.455 -0.3841  0.0182 -0.0061
  511MOL0     C68908   1.078  10.834   2.459 -0.6872  0.8901 -0.4157
  511MOL0     O68909   1.179  10.855   2.367 -0.2361  0.0629 -0.1750
  511MOL0     C68910   1.287  10.945   2.408 -0.2322  0.6343  0.3415
  511MOL0     C68911   1.415  10.926   2.325  0.0847 -0.3428  0.7226
  511MOL0     C68912   1.525  11.013   2.361 -0.1824 -1.0360  0.6635
  511MOL0     C68913   1.646  10.971   2.283  0.1666  0.0877  0.0343
  511MOL0     C68914   1.625  10.973   2.135 -0.4561 -0.1776 -0.3009
  511MOL0     C68915   1.595  10.978   2.020  0.7257 -0.2592 -0.4927
  511MOL0     C68916   1.034  10.929   2.546 -0.1718 -0.9974 -0.6772
  511MOL0     C68917   0.921  10.905   2.634 -0.5135 -0.9551  0.1507
  511MOL0     H68918   0.558  10.408   2.797  0.8464  0.5245  0.0703
  511MOL0     H68919   0.298  10.374   2.788  0.3596  0.2355  0.7783
  511MOL0     H68920   0.104  10.421   2.855 -0.2362  0.3370  3.1312
  511MOL0     H68921   0.103  10.601   2.881  1.2939 -0.3864 -0.0752
  511MOL0     H68922  -0.131  10.475   2.741  1.1682 -0.7437  0.5696
  511MOL0     H68923  -0.115  10.482   2.919  0.0520 -0.9201 -1.1335
  511MOL0     H68924  -0.089  10.721   2.900  0.7690  0.1919 -2.4990
  511MOL0     H68925  -0.115  10.704   2.724 -0.0655 -0.3360 -0.6012
  511MOL0     H68926  -0.343  10.594   2.771  0.7850 -0.4547 -0.8144
  511MOL0     H68927  -0.338  10.660   2.938 -2.6248  1.1302 -1.2215
  511MOL0     H68928  -0.267  10.886   2.812 -0.6714  0.6679  2.1615
  511MOL0     H68929  -0.368  10.813   2.687  0.5409 -0.0046 -1.0143
  511MOL0     H68930  -0.558  10.784   2.819  0.8580 -1.4454 -0.3877
  511MOL0     H68931  -0.476  10.841   2.966 -1.6150  0.2873  0.0440
  511MOL0     H68932  -0.602  11.019   2.903 -0.8186 -3.1066 -0.3559
  511MOL0     H68933  -0.433  11.067   2.867 -2.3897  2.6920  1.4257
  511MOL0     H68934  -0.659  10.981   2.684 -0.8532  0.5017  2.1124
  511MOL0     H68935  -0.488  10.974   2.638  1.5536  0.9118  0.9061
  511MOL0     H68936  -0.770  11.219   2.738 -1.1628 -3.1508 -3.9565
  511MOL0     H68937  -0.669  11.580   2.640 -0.9863  0.4424 -1.5883
  511MOL0     H68938  -0.816  11.481   2.641  0.9150 -0.2076  1.6480
  511MOL0     H68939  -0.806  11.476   2.891 -2.6022  1.5515 -0.8598
  511MOL0     H68940  -0.822  11.635   2.825  0.4239  0.8386  0.1156
  511MOL0     H68941  -0.576  11.673   2.841  0.7022  1.4235 -0.1758
  511MOL0     H68942  -0.556  11.512   2.909 -0.4690 -0.1784  0.5948
  511MOL0     H68943  -0.569  11.680   3.105 -0.3724  2.1542 -1.9023
  511MOL0     H68944  -0.687  11.552   3.106 -1.5143 -0.5956 -0.7338
  511MOL0     H68945  -0.897  11.922   2.975 -1.1081 -0.4000 -3.3155
  511MOL0     H68946  -1.239  11.897   2.836  0.0763 -1.0204  0.6207
  511MOL0     H68947  -1.234  12.004   2.974 -1.1477  2.0580 -2.5277
  511MOL0     H68948  -1.101  12.006   2.853  1.3651 -0.5046  0.6893
  511MOL0     H68949  -1.581  11.655   2.896  0.9485  0.7761  2.5866
  511MOL0     H68950  -1.792  11.525   2.871  0.8686  2.2051 -0.5310
  511MOL0     H68951  -2.003  11.387   2.891 -4.9005 -3.5507 -1.4753
  511MOL0     H68952  -1.861  11.325   2.817  1.3144  3.4798  1.1568
  511MOL0     H68953  -2.101  11.183   2.941  0.3504  0.2777  0.5113
  511MOL0     H68954  -2.053  11.180   2.774 -1.3033 -1.9758  0.6416
  511MOL0     H68955  -2.015  11.000   2.962 -0.4098  1.6965  1.1172
  511MOL0     H68956  -1.865  11.087   2.998  3.4235  1.7507 -2.2690
  511MOL0     H68957  -1.818  10.887   2.854 -0.3499 -0.6749 -0.9722
  511MOL0     H68958  -1.924  10.960   2.729  1.5442 -3.2048 -0.6769
  511MOL0     H68959  -1.711  11.146   2.834  0.5338  1.0327 -2.1415
  511MOL0     H68960  -1.795  11.122   2.682 -0.3206  0.5965  0.2403
  511MOL0     H68961  -1.550  11.059   2.678  1.9223 -1.5542 -0.9144
  511MOL0     H68962  -1.583  10.951   2.814  0.1977  1.2068  0.7027
  511MOL0     H68963  -1.649  10.955   2.522  2.7775 -2.3335 -2.8377
  511MOL0     H68964  -1.742  10.838   2.620 -0.1549 -0.2392  0.1509
  511MOL0     H68965  -1.580  10.727   2.497 -2.8257  1.7449 -0.1206
  511MOL0     H68966  -1.540  10.694   2.656  1.9959  2.2003  2.6741
  511MOL0     H68967  -1.636  11.257   3.167  0.7570  1.3125  0.8323
  511MOL0     H68968  -1.420  11.379   3.154  1.3011 -2.8085 -1.7341
  511MOL0     H68969  -1.160  11.534   3.129  0.8431 -1.2492 -0.0513
  511MOL0     H68970  -0.914  11.536   3.165  0.7857  0.8185  1.1121
  511MOL0     H68971   0.259  10.744   2.586 -2.4450 -2.5103 -0.9508
  511MOL0     H68972   0.495  10.778   2.591 -0.2540 -0.0586 -0.2006
  511MOL0     H68973   0.856  10.599   2.511  0.6475  0.0573  2.5307
  511MOL0     H68974   1.054  10.646   2.389  5.2479 -1.3053  4.4983
  511MOL0     H68975   1.248  11.047   2.406  1.3118  1.2976 -2.9751
  511MOL0     H68976   1.319  10.932   2.512  1.0071 -0.9330 -0.1978
  511MOL0     H68977   1.386  10.945   2.221  2.7694 -4.5772 -1.0854
  511MOL0     H68978   1.443  10.820   2.331  0.6419 -0.2434  0.0361
  511MOL0     H68979   1.552  11.016   2.467  0.2994 -2.7708  0.6221
  511MOL0     H68980   1.511  11.117   2.330 -1.2485 -1.3023  0.1926
  511MOL0     H68981   1.666  10.874   2.329 -0.5777 -0.1741 -0.1689
  511MOL0     H68982   1.733  11.033   2.301 -0.3059  1.0980 -1.0094
  511MOL0     H68983   1.579  10.995   1.916  0.3232  1.7605 -0.1352
  511MOL0     H68984   1.094  11.019   2.554 -0.6931 -0.8011  1.4703
  511MOL0     H68985   0.878  10.973   2.707 -1.0104 -0.0070 -0.9997
  512MOL0     O68986   1.419   2.827   4.921 -0.1082  0.1778  0.0531
  512MOL0     C68987   1.450   2.857   5.030  0.2667 -0.8782 -0.1869
  512MOL0     O68988   1.361   2.888   5.140  0.1697  0.1430 -0.0152
  512MOL0     C68989   1.229   2.901   5.109  0.2331 -0.3113  0.9956
  512MOL0     C68990   1.167   3.025   5.110  0.4819 -0.4742 -0.0915
  512MOL0     C68991   1.027   3.043   5.085 -0.6597  0.2311  0.3798
  512MOL0     C68992   0.955   2.928   5.041 -0.7697  0.6644 -0.0080
  512MOL0     O68993   0.822   2.948   5.008  0.2866 -0.1570 -0.1501
  512MOL0     C68994   0.769   2.853   4.913  0.0776 -0.2678  0.3666
  512MOL0     C68995   0.649   2.907   4.840  0.8081 -0.1072  0.4001
  512MOL0     C68996   0.518   2.890   4.919 -0.6557 -0.9818  0.0589
  512MOL0     C68997   0.405   2.938   4.821  0.1387  0.5149  0.2062
  512MOL0     C68998   0.263   2.947   4.883  0.7528 -0.5385  0.5123
  512MOL0     C68999   0.171   3.058   4.813  0.0190  0.7522 -0.6066
  512MOL0     C69000   0.040   3.059   4.879  0.6079 -1.0383 -1.1333
  512MOL0     C69001  -0.041   3.159   4.799  0.2226 -1.0352 -0.5376
  512MOL0     N69002  -0.165   3.202   4.871 -0.3393  0.3909  0.3962
  512MOL0     C69003  -0.180   3.324   4.932  0.1382 -0.2186 -0.3687
  512MOL0     C69004  -0.304   3.318   4.980  0.4040 -0.4138 -0.2585
  512MOL0     C69005  -0.358   3.423   5.068 -0.3899 -0.1920 -0.2940
  512MOL0     C69006  -0.496   3.477   5.013  0.7908 -0.1276  0.0018
  512MOL0     C69007  -0.555   3.596   5.088 -0.1982  0.2650  0.5483
  512MOL0     C69008  -0.470   3.718   5.090 -0.2893  0.5199  1.0275
  512MOL0     O69009  -0.538   3.826   5.144  0.0195  0.0496  0.3126
  512MOL0     C69010  -0.489   3.885   5.259  0.5482  0.6862 -0.7480
  512MOL0     C69011  -0.465   3.813   5.372 -0.1691 -0.4315 -0.5549
  512MOL0     C69012  -0.400   3.875   5.486  0.1427 -0.7848  0.4932
  512MOL0     C69013  -0.365   3.787   5.600 -0.3411  0.1556 -0.0368
  512MOL0     C69014  -0.361   4.014   5.483  0.1387 -0.3099  0.4235
  512MOL0     C69015  -0.295   4.085   5.591 -0.7319 -0.3982 -1.2479
  512MOL0     O69016  -0.274   4.031   5.714 -0.3994 -0.0042  0.0267
  512MOL0     C69017  -0.207   4.113   5.802  0.5165 -0.5306  0.4408
  512MOL0     C69018  -0.267   4.150   5.926  0.1226 -0.7007  0.6372
  512MOL0     C69019  -0.214   4.256   5.998  0.1990  0.1144 -0.1495
  512MOL0     C69020  -0.087   4.316   5.968 -0.1060  0.3347 -0.0324
  512MOL0     O69021  -0.035   4.414   6.038  0.3286  0.1265 -0.5445
  512MOL0     C69022  -0.112   4.466   6.147 -0.6942  0.4157 -0.5890
  512MOL0     C69023  -0.037   4.589   6.209 -0.6222  0.2253 -0.0187
  512MOL0     C69024  -0.129   4.707   6.242  0.4689  0.1728 -0.1489
  512MOL0     C69025  -0.068   4.829   6.316 -0.0362  0.1366 -0.2756
  512MOL0     C69026  -0.171   4.930   6.351  0.1606  0.3857  0.3348
  512MOL0     C69027  -0.103   5.066   6.365  0.0035  0.1443  0.6185
  512MOL0     C69028  -0.206   5.177   6.371 -0.4310 -0.1960  0.2142
  512MOL0     C69029  -0.144   5.322   6.376 -0.1792  0.7712 -0.6491
  512MOL0    Cl69030  -0.039   5.336   6.231 -0.0352  0.1269 -0.1417
  512MOL0     C69031  -0.019   4.269   5.850  0.7335 -0.0195  1.1254
  512MOL0     C69032  -0.080   4.170   5.770  0.9069  0.7310  0.2200
  512MOL0     O69033  -0.261   4.198   5.551 -0.1996 -0.9537 -0.6281
  512MOL0     C69034  -0.413   4.084   5.365  1.3239 -0.0899 -0.1496
  512MOL0     C69035  -0.474   4.022   5.259  0.3643 -0.1467  0.3331
  512MOL0     N69036  -0.363   3.196   4.943 -0.2097 -0.6088  0.4488
  512MOL0     N69037  -0.273   3.130   4.883  0.4667  0.2243 -0.5819
  512MOL0     C69038   1.023   2.805   5.016 -0.2151 -0.4666 -0.0790
  512MOL0     C69039   1.153   2.791   5.064 -0.6584  1.0636  0.3910
  512MOL0     C69040   1.589   2.861   5.069 -0.4937 -0.1698 -0.4317
  512MOL0     C69041   1.690   2.789   5.013 -0.2052  0.5814  0.0814
  512MOL0     C69042   1.822   2.784   5.052 -0.0252 -0.1219 -0.5333
  512MOL0     C69043   1.867   2.863   5.152  0.4635 -0.6034 -0.4701
  512MOL0     O69044   2.008   2.874   5.166  0.5431  0.6544 -0.7456
  512MOL0     C69045   2.063   3.004   5.196  0.6177  0.6878  0.1613
  512MOL0     C69046   2.225   3.002   5.190  0.3824 -0.4273 -0.1957
  512MOL0     C69047   2.264   2.917   5.304  0.6460 -1.0554  0.6629
  512MOL0     C69048   2.335   2.992   5.414 -0.0870 -0.5098  0.0817
  512MOL0     C69049   2.259   3.104   5.478  0.5038  0.2705 -0.1401
  512MOL0     C69050   2.196   3.189   5.547 -0.5122 -1.2426  0.2200
  512MOL0     C69051   1.769   2.951   5.210 -0.0643 -0.2138 -0.3513
  512MOL0     C69052   1.632   2.948   5.173  0.3765  0.0044  0.2112
  512MOL0     H69053   1.222   3.111   5.149 -0.7125 -0.4370  1.6391
  512MOL0     H69054   0.969   3.133   5.104  0.2267  0.3336  3.0781
  512MOL0     H69055   0.843   2.838   4.834  1.8750 -0.2073  1.9512
  512MOL0     H69056   0.752   2.758   4.965 -1.0063 -0.6369 -0.6231
  512MOL0     H69057   0.660   3.013   4.815  0.4092 -0.0569  0.4293
  512MOL0     H69058   0.644   2.852   4.745 -0.1363 -2.8909  1.9567
  512MOL0     H69059   0.501   2.788   4.953  0.6170 -0.8956  1.0038
  512MOL0     H69060   0.524   2.958   5.004 -1.9069  0.4609 -0.9374
  512MOL0     H69061   0.431   3.038   4.784  1.0307  0.1622 -0.1486
  512MOL0     H69062   0.402   2.862   4.742 -2.0798 -0.0771  0.7887
  512MOL0     H69063   0.214   2.850   4.869  1.3145 -0.8588  0.7180
  512MOL0     H69064   0.265   2.959   4.991 -1.1962  2.0958  0.3292
  512MOL0     H69065   0.220   3.154   4.830 -0.4459  0.6766  1.3043
  512MOL0     H69066   0.160   3.046   4.704  0.6620  0.0788 -0.6111
  512MOL0     H69067  -0.020   2.968   4.871 -1.8566  0.3701  0.0823
  512MOL0     H69068   0.054   3.082   4.985  0.7981  0.5831 -1.4892
  512MOL0     H69069  -0.062   3.125   4.697  0.5070  1.0902 -1.3668
  512MOL0     H69070   0.029   3.241   4.778 -1.1756  0.1347 -0.8481
  512MOL0     H69071  -0.104   3.399   4.948  1.0037 -1.1121 -0.1495
  512MOL0     H69072  -0.361   3.383   5.169 -0.2725 -2.6345 -1.2061
  512MOL0     H69073  -0.287   3.507   5.071  0.1163 -0.6499  1.7964
  512MOL0     H69074  -0.561   3.391   5.030 -0.1591  0.9101  1.8907
  512MOL0     H69075  -0.499   3.511   4.909 -2.4804 -2.0983 -0.6817
  512MOL0     H69076  -0.575   3.557   5.188 -0.6902  1.5850  0.9943
  512MOL0     H69077  -0.652   3.633   5.051 -0.1013  1.1775  1.1796
  512MOL0     H69078  -0.461   3.755   4.987 -4.6225  0.4042  0.4535
  512MOL0     H69079  -0.375   3.705   5.142  1.0224 -0.9107 -1.5199
  512MOL0     H69080  -0.484   3.706   5.364  1.6068 -0.8232 -0.1764
  512MOL0     H69081  -0.258   3.795   5.622 -0.5221  1.8045  0.3808
  512MOL0     H69082  -0.421   3.814   5.689  0.9307 -0.6755  1.0504
  512MOL0     H69083  -0.396   3.686   5.572 -3.5409  0.4763  1.9129
  512MOL0     H69084  -0.363   4.100   5.938 -0.3033 -0.0966 -0.1685
  512MOL0     H69085  -0.263   4.280   6.092  0.1339 -3.2456  0.7744
  512MOL0     H69086  -0.216   4.488   6.122 -1.4413 -3.7118 -1.9104
  512MOL0     H69087  -0.111   4.393   6.229  0.4070  0.5584 -0.4636
  512MOL0     H69088   0.004   4.545   6.300 -1.9691  1.5062  1.2550
  512MOL0     H69089   0.043   4.628   6.144  0.5702 -0.4791  0.9892
  512MOL0     H69090  -0.218   4.675   6.297  0.8928  0.5185  0.7498
  512MOL0     H69091  -0.170   4.746   6.148 -0.0377  0.3052  0.1237
  512MOL0     H69092  -0.015   4.795   6.405  4.2136  2.0211 -1.8023
  512MOL0     H69093   0.004   4.875   6.247 -0.8116  2.1116  0.1656
  512MOL0     H69094  -0.221   4.887   6.438  0.4544  0.5182  0.5724
  512MOL0     H69095  -0.244   4.939   6.270 -2.2839  0.3384  2.4030
  512MOL0     H69096  -0.038   5.059   6.452 -1.5428  0.6804  1.8572
  512MOL0     H69097  -0.047   5.086   6.273  0.2063  1.2026  0.9581
  512MOL0     H69098  -0.255   5.159   6.467  1.8070  0.3147  1.5337
  512MOL0     H69099  -0.284   5.167   6.295 -0.2332 -1.4833  0.1742
  512MOL0     H69100  -0.082   5.326   6.466 -1.8593 -0.8345  0.6561
  512MOL0     H69101  -0.226   5.393   6.362 -0.2551  0.8532  0.1596
  512MOL0     H69102   0.078   4.305   5.817 -0.4192  1.9961 -0.2542
  512MOL0     H69103  -0.033   4.132   5.681 -0.1590  1.1411 -0.5423
  512MOL0     H69104  -0.403   4.191   5.357 -0.6051  0.0359 -2.0088
  512MOL0     H69105  -0.501   4.080   5.172 -0.9778 -1.4623 -0.1927
  512MOL0     H69106   0.974   2.719   4.972 -3.2108  0.0498  2.0050
  512MOL0     H69107   1.186   2.688   5.073 -3.1134  0.4221  4.2638
  512MOL0     H69108   1.649   2.728   4.933  1.6601 -3.1008  1.6822
  512MOL0     H69109   1.885   2.714   4.999  1.3829 -0.3672  1.3546
  512MOL0     H69110   2.046   3.081   5.120 -1.2321 -0.2891 -0.4644
  512MOL0     H69111   2.013   3.030   5.290 -1.5087  0.5179 -0.8644
  512MOL0     H69112   2.264   3.105   5.191  2.7029 -1.1737 -2.2909
  512MOL0     H69113   2.270   2.963   5.099  3.4327  2.5567 -0.1830
  512MOL0     H69114   2.330   2.834   5.275 -1.2724 -2.2545 -0.4784
  512MOL0     H69115   2.177   2.864   5.345 -0.2651  1.2077  1.8106
  512MOL0     H69116   2.429   3.032   5.376 -0.0544 -0.1281  0.5466
  512MOL0     H69117   2.355   2.927   5.500 -3.3147  0.2516  1.5935
  512MOL0     H69118   2.141   3.256   5.610  2.5377 -0.5573  2.3474
  512MOL0     H69119   1.813   3.022   5.279 -1.1759 -1.5764  1.8420
  512MOL0     H69120   1.555   3.003   5.226 -0.0075 -1.8217  1.6584
  513MOL0     O69121   1.498   5.882   2.383 -0.1790 -0.3586 -0.5420
  513MOL0     C69122   1.504   5.986   2.449  0.2901  0.5940 -0.1513
  513MOL0     O69123   1.425   6.009   2.561 -0.4428 -0.1460  0.5946
  513MOL0     C69124   1.333   5.919   2.607 -0.4643 -0.8712 -1.0232
  513MOL0     C69125   1.238   5.981   2.685 -0.3651 -0.7330  0.5914
  513MOL0     C69126   1.139   5.898   2.749  0.3608  0.0858  1.1845
  513MOL0     C69127   1.124   5.760   2.720  0.5896  0.4323 -0.1529
  513MOL0     O69128   1.016   5.690   2.772  0.3624 -0.3247 -0.2837
  513MOL0     C69129   0.928   5.658   2.659  0.5034 -0.3948 -0.1675
  513MOL0     C69130   0.803   5.584   2.702  0.1430  0.6185 -1.1823
  513MOL0     C69131   0.697   5.576   2.591  0.2150 -0.3195 -0.5327
  513MOL0     C69132   0.615   5.706   2.572 -0.6072 -0.8903 -0.3064
  513MOL0     C69133   0.536   5.700   2.439 -0.3479  0.2695 -0.5947
  513MOL0     C69134   0.389   5.729   2.472  0.0943 -0.0566 -0.2373
  513MOL0     C69135   0.293   5.714   2.352  0.1363  0.4045 -0.4174
  513MOL0     C69136   0.297   5.832   2.251  0.0797 -0.1379  0.1403
  513MOL0     N69137   0.261   5.959   2.319  0.1877 -0.0414 -0.9170
  513MOL0     C69138   0.138   6.014   2.324 -0.6640 -0.3867  0.5588
  513MOL0     C69139   0.154   6.142   2.383  0.6894  0.1830  0.1695
  513MOL0     C69140   0.036   6.228   2.437  0.1433  0.8528  0.1243
  513MOL0     C69141  -0.035   6.315   2.328  0.4705 -0.3852 -0.5884
  513MOL0     C69142  -0.169   6.366   2.376  0.2272 -0.2051 -0.0448
  513MOL0     C69143  -0.147   6.480   2.479  0.3915  0.8442  0.1997
  513MOL0     O69144  -0.055   6.579   2.438 -0.2703  0.1758  0.5006
  513MOL0     C69145  -0.095   6.707   2.428  0.6857 -0.8611 -0.4383
  513MOL0     C69146  -0.221   6.749   2.374 -0.3534  0.4276 -0.1774
  513MOL0     C69147  -0.251   6.880   2.362 -0.1046  0.7806 -0.0930
  513MOL0     C69148  -0.391   6.908   2.316 -0.1554  0.0955 -0.4127
  513MOL0     C69149  -0.161   6.978   2.406 -0.1544  1.2145 -0.4993
  513MOL0     C69150  -0.179   7.129   2.405  0.5079 -0.7272 -0.1393
  513MOL0     O69151  -0.295   7.167   2.343  0.6232  0.3800  0.0803
  513MOL0     C69152  -0.343   7.287   2.384 -0.7124  0.7486 -0.1530
  513MOL0     C69153  -0.443   7.294   2.479 -0.6356 -0.6670  0.9027
  513MOL0     C69154  -0.493   7.413   2.519  0.0745  0.2677  0.1138
  513MOL0     C69155  -0.443   7.532   2.464 -0.5064  0.5146  0.0836
  513MOL0     O69156  -0.501   7.644   2.517  0.5143  0.4906  0.1108
  513MOL0     C69157  -0.476   7.765   2.453  0.3211 -0.9296  0.6213
  513MOL0     C69158  -0.557   7.872   2.528 -0.2949 -0.0059 -0.0481
  513MOL0     C69159  -0.707   7.845   2.523  0.1981 -0.3601 -0.3018
  513MOL0     C69160  -0.778   7.973   2.534  0.0185 -0.5500  0.5924
  513MOL0     C69161  -0.934   7.945   2.514 -1.1703  0.2255 -0.0264
  513MOL0     C69162  -1.012   8.080   2.532  0.2076  0.4920 -0.4263
  513MOL0     C69163  -1.158   8.059   2.572 -0.6635  0.1359 -0.6166
  513MOL0     C69164  -1.224   7.934   2.500  0.9965  0.6899 -0.1586
  513MOL0    Cl69165  -1.395   7.947   2.492 -0.1372 -0.0942  0.3538
  513MOL0     C69166  -0.331   7.522   2.387 -0.0452  0.8868 -0.2646
  513MOL0     C69167  -0.281   7.402   2.341 -0.2755 -0.9446 -0.3528
  513MOL0     O69168  -0.101   7.192   2.476  0.7971  0.7084  0.3651
  513MOL0     C69169  -0.041   6.928   2.462  0.4657  0.5153 -0.1390
  513MOL0     C69170  -0.001   6.796   2.473  0.4318 -0.3034 -0.0824
  513MOL0     N69171   0.290   6.158   2.402 -0.5046  0.1891  0.5005
  513MOL0     N69172   0.350   6.053   2.356  0.4249  0.1491 -0.5313
  513MOL0     C69173   1.220   5.707   2.638  0.0618  0.3278  1.7021
  513MOL0     C69174   1.329   5.775   2.585 -0.6165 -0.0816 -0.1011
  513MOL0     C69175   1.594   6.099   2.406  0.3985 -0.0348 -0.5086
  513MOL0     C69176   1.567   6.218   2.461 -0.3503 -0.6097 -0.0358
  513MOL0     C69177   1.653   6.323   2.425 -0.4192 -0.0710  0.0922
  513MOL0     C69178   1.758   6.304   2.332  0.0232 -0.7571 -0.4719
  513MOL0     O69179   1.843   6.406   2.311  0.6719 -0.3022  0.2000
  513MOL0     C69180   1.937   6.446   2.417  0.5049 -0.7902  0.8163
  513MOL0     C69181   2.053   6.348   2.433  0.0574 -0.0474 -0.9271
  513MOL0     C69182   2.121   6.292   2.302  0.7818 -1.3469 -1.2627
  513MOL0     C69183   2.200   6.396   2.229  0.4049 -0.2594 -0.6317
  513MOL0     C69184   2.246   6.357   2.101  0.0222 -0.3676 -0.3323
  513MOL0     C69185   2.275   6.316   1.989  0.3683 -0.4776  0.0760
  513MOL0     C69186   1.777   6.190   2.266  0.7242  0.4036 -0.3812
  513MOL0     C69187   1.693   6.082   2.307  1.3300 -0.0852 -0.0782
  513MOL0     H69188   1.237   6.087   2.708  1.4653 -0.6483  0.4100
  513MOL0     H69189   1.062   5.949   2.805  0.6473  0.8253  0.9165
  513MOL0     H69190   0.889   5.751   2.618  2.1114 -0.0309 -0.9385
  513MOL0     H69191   0.986   5.606   2.582 -0.9114 -2.8437  0.3056
  513MOL0     H69192   0.826   5.480   2.725 -2.2104  0.2585 -0.1444
  513MOL0     H69193   0.761   5.618   2.797 -1.0701  0.4818 -1.6470
  513MOL0     H69194   0.750   5.555   2.498  2.5446  3.1151 -0.1661
  513MOL0     H69195   0.623   5.501   2.620 -0.6049  0.2352 -1.1502
  513MOL0     H69196   0.564   5.734   2.665  1.4467  0.6499  0.4229
  513MOL0     H69197   0.679   5.793   2.559 -3.1222  0.8833 -1.7238
  513MOL0     H69198   0.578   5.772   2.369 -1.3502 -0.2008 -1.7223
  513MOL0     H69199   0.544   5.607   2.382 -0.6994  0.2228 -0.5746
  513MOL0     H69200   0.360   5.657   2.550 -1.8944  1.5139  0.5465
  513MOL0     H69201   0.378   5.827   2.519  0.6220 -0.0760 -0.0618
  513MOL0     H69202   0.317   5.619   2.304  0.0532 -1.8507  3.5567
  513MOL0     H69203   0.193   5.715   2.395 -0.4084  2.8873 -1.5504
  513MOL0     H69204   0.217   5.804   2.181 -1.5724 -2.0411  2.6001
  513MOL0     H69205   0.395   5.836   2.202 -0.4951  0.5994 -1.0064
  513MOL0     H69206   0.047   5.959   2.300  0.7401 -1.8338 -1.8201
  513MOL0     H69207  -0.045   6.159   2.463  1.2229  0.5082  2.8512
  513MOL0     H69208   0.062   6.278   2.531  0.5811  3.1209 -1.1351
  513MOL0     H69209  -0.051   6.258   2.236  0.3744 -0.7703 -0.3337
  513MOL0     H69210   0.034   6.394   2.294  1.1691 -1.3809 -1.5543
  513MOL0     H69211  -0.225   6.281   2.416  2.1099 -1.8505 -0.6653
  513MOL0     H69212  -0.218   6.425   2.298 -1.3259 -1.2954  0.0780
  513MOL0     H69213  -0.115   6.440   2.575  0.2265  1.9097  0.7075
  513MOL0     H69214  -0.244   6.531   2.484  0.7024  1.6394 -1.1748
  513MOL0     H69215  -0.304   6.684   2.351  1.1915 -0.4069 -4.2386
  513MOL0     H69216  -0.389   6.965   2.222 -3.0998  1.7297  0.3807
  513MOL0     H69217  -0.456   6.823   2.295 -2.0288  1.7546 -1.7344
  513MOL0     H69218  -0.425   6.966   2.402 -1.9911 -2.6370  0.8195
  513MOL0     H69219  -0.499   7.205   2.507  0.0534 -1.0809  0.9935
  513MOL0     H69220  -0.576   7.421   2.589  0.2507 -0.1187  0.3728
  513MOL0     H69221  -0.372   7.797   2.465  0.0663  1.6043 -2.3866
  513MOL0     H69222  -0.508   7.758   2.348 -1.9420  2.4094  0.9256
  513MOL0     H69223  -0.534   7.869   2.635  0.8590 -1.6097 -0.3097
  513MOL0     H69224  -0.524   7.975   2.509 -0.4640  0.2216  0.8533
  513MOL0     H69225  -0.742   7.774   2.598  1.5160  0.8182  1.5228
  513MOL0     H69226  -0.727   7.792   2.430  2.2469 -4.3076  1.2462
  513MOL0     H69227  -0.761   8.011   2.635 -0.1462 -1.9661  1.1663
  513MOL0     H69228  -0.734   8.047   2.466 -1.8787  0.7078  0.6439
  513MOL0     H69229  -0.969   7.870   2.586  1.5115 -1.7613 -0.6115
  513MOL0     H69230  -0.957   7.892   2.421 -2.3640  0.5041  0.0918
  513MOL0     H69231  -0.969   8.137   2.615 -1.2488  1.3183 -0.2135
  513MOL0     H69232  -1.009   8.149   2.446  2.5997  2.0797  0.7975
  513MOL0     H69233  -1.221   8.144   2.546 -1.5353 -0.8179 -1.7594
  513MOL0     H69234  -1.155   8.039   2.680  1.4248 -1.0838 -0.8555
  513MOL0     H69235  -1.204   7.847   2.563  0.0895 -0.1870 -1.0530
  513MOL0     H69236  -1.196   7.927   2.395 -0.1251 -0.8600 -0.3843
  513MOL0     H69237  -0.284   7.617   2.363  1.6628  0.2905  0.5787
  513MOL0     H69238  -0.196   7.398   2.274 -0.9273  1.0496 -1.3923
  513MOL0     H69239   0.029   6.999   2.504 -0.4756  1.4918 -0.1585
  513MOL0     H69240   0.095   6.769   2.516  0.0915  0.5033  1.2594
  513MOL0     H69241   1.217   5.603   2.605  0.1333  1.2012 -1.2595
  513MOL0     H69242   1.398   5.714   2.526  0.8372 -0.2758  1.6909
  513MOL0     H69243   1.475   6.231   2.516  0.4886 -1.6351  1.7132
  513MOL0     H69244   1.634   6.419   2.470 -0.4849 -0.5541  1.1155
  513MOL0     H69245   1.974   6.549   2.407 -1.8548  0.5966  4.2921
  513MOL0     H69246   1.881   6.461   2.510 -1.0484  1.0311 -0.3196
  513MOL0     H69247   2.010   6.259   2.479 -0.3850  1.4790  1.7860
  513MOL0     H69248   2.130   6.396   2.494 -1.5277  2.1501 -0.5382
  513MOL0     H69249   2.037   6.251   2.246  0.0912 -0.8876 -0.5875
  513MOL0     H69250   2.195   6.217   2.330  1.5408 -0.0161  0.5293
  513MOL0     H69251   2.282   6.412   2.300  1.3363 -3.6497 -0.7936
  513MOL0     H69252   2.143   6.490   2.224  2.8326  1.4231  1.0324
  513MOL0     H69253   2.277   6.263   1.897  1.2312 -3.5077  1.7244
  513MOL0     H69254   1.842   6.193   2.179 -0.6485  1.1047 -1.4416
  513MOL0     H69255   1.701   5.982   2.266 -0.6701 -1.1700  1.9845
  514MOL0     O69256   6.115   2.021   9.815 -0.5760 -0.5159 -0.9629
  514MOL0     C69257   6.087   2.014   9.934 -0.1689  0.1770 -0.8633
  514MOL0     O69258   5.974   2.082   9.990 -0.1914  0.4531  0.2492
  514MOL0     C69259   5.892   2.160   9.905 -0.2119 -0.8054 -0.6223
  514MOL0     C69260   5.944   2.251   9.807  0.1458 -0.5382  0.1409
  514MOL0     C69261   5.850   2.334   9.743  0.0981  0.8391 -0.5884
  514MOL0     C69262   5.717   2.332   9.774  0.0928 -0.0243 -0.5365
  514MOL0     O69263   5.637   2.403   9.686 -0.0621 -0.0179  0.0107
  514MOL0     C69264   5.495   2.429   9.722  0.1537  0.7491  0.1996
  514MOL0     C69265   5.440   2.512   9.605 -0.1143 -0.3439  0.3425
  514MOL0     C69266   5.288   2.527   9.621 -0.4016 -1.5595 -0.0651
  514MOL0     C69267   5.227   2.589   9.498  0.3310 -0.8367  0.4088
  514MOL0     C69268   5.075   2.584   9.502 -0.1588  0.9065 -0.6631
  514MOL0     C69269   5.012   2.642   9.372 -0.0509  0.4781 -0.0897
  514MOL0     C69270   4.861   2.625   9.372 -0.2343 -1.1251  0.0532
  514MOL0     C69271   4.792   2.688   9.498 -0.7929  0.6624 -0.6923
  514MOL0     N69272   4.647   2.654   9.524 -0.6373 -0.4305  0.0960
  514MOL0     C69273   4.599   2.525   9.523  0.0871  0.4831  1.3769
  514MOL0     C69274   4.466   2.543   9.537 -0.4303 -0.1091  0.5330
  514MOL0     C69275   4.366   2.434   9.564 -0.0792  0.5664 -0.6275
  514MOL0     C69276   4.296   2.461   9.694 -0.1333 -0.2356  0.4443
  514MOL0     C69277   4.162   2.383   9.727 -0.3405  0.4049  0.1201
  514MOL0     C69278   4.061   2.410   9.628  0.1551  0.5924  0.3679
  514MOL0     O69279   4.066   2.319   9.518 -1.1127 -0.2742 -0.1117
  514MOL0     C69280   3.980   2.214   9.516 -0.4304  0.4023  0.4105
  514MOL0     C69281   3.842   2.230   9.498  0.8248 -0.2803 -0.4757
  514MOL0     C69282   3.760   2.114   9.486 -0.0564 -0.2160 -0.2585
  514MOL0     C69283   3.610   2.135   9.484  0.2805  0.0654  0.1278
  514MOL0     C69284   3.814   1.984   9.504 -0.8515 -0.0205 -0.1614
  514MOL0     C69285   3.734   1.856   9.498 -0.0446  0.5054 -0.2443
  514MOL0     O69286   3.773   1.755   9.588 -0.4304 -0.0180  0.3535
  514MOL0     C69287   3.701   1.638   9.579  0.5161  0.2573  0.1154
  514MOL0     C69288   3.570   1.625   9.632 -0.0684  0.1530  0.0979
  514MOL0     C69289   3.479   1.522   9.597  1.2571 -0.0840  0.1748
  514MOL0     C69290   3.533   1.419   9.521  0.4236 -0.5530  0.0846
  514MOL0     O69291   3.462   1.307   9.495  0.3289  0.1915  0.4124
  514MOL0     C69292   3.332   1.288   9.565 -0.3517 -1.3706 -0.9029
  514MOL0     C69293   3.293   1.141   9.569  0.7958  0.0133 -0.3774
  514MOL0     C69294   3.141   1.116   9.552 -0.3882 -0.2373 -0.9509
  514MOL0     C69295   3.090   1.135   9.410 -1.0122  0.6198  0.0782
  514MOL0     C69296   2.942   1.105   9.394 -0.0508 -0.5914  0.1537
  514MOL0     C69297   2.893   0.954   9.387  0.3363 -0.4398 -0.1441
  514MOL0     C69298   2.747   0.919   9.412 -0.7157  0.1325 -0.2980
  514MOL0     C69299   2.729   0.765   9.375 -0.2529  0.0971 -1.2055
  514MOL0    Cl69300   2.804   0.658   9.514 -0.0301 -0.1175  1.0533
  514MOL0     C69301   3.663   1.433   9.464  0.0761  0.3648  0.0027
  514MOL0     C69302   3.742   1.543   9.495 -0.2730  0.2482  0.3078
  514MOL0     O69303   3.650   1.843   9.414  0.0853 -0.0516 -0.5823
  514MOL0     C69304   3.952   1.972   9.534 -0.5332 -0.9556 -0.7143
  514MOL0     C69305   4.034   2.088   9.538 -0.8315  0.7043  0.0354
  514MOL0     N69306   4.433   2.673   9.547 -0.1488 -0.9151  0.0196
  514MOL0     N69307   4.545   2.738   9.534 -0.1580  0.0463 -0.2882
  514MOL0     C69308   5.676   2.246   9.879  0.2724  0.1248  1.1253
  514MOL0     C69309   5.758   2.161   9.942 -0.6911  0.2506  0.2606
  514MOL0     C69310   6.166   1.920  10.027 -0.4178 -0.3007  0.0400
  514MOL0     C69311   6.267   1.835   9.982 -0.6876 -0.0542  0.4296
  514MOL0     C69312   6.346   1.754  10.066  0.8290 -0.2326  0.1345
  514MOL0     C69313   6.325   1.766  10.205 -0.4706 -1.1020 -0.2807
  514MOL0     O69314   6.398   1.705  10.302 -0.1566 -0.0995  0.4834
  514MOL0     C69315   6.533   1.668  10.297  0.1253  0.4814  0.0466
  514MOL0     C69316   6.624   1.772  10.347  0.4210 -0.0092 -0.0792
  514MOL0     C69317   6.623   1.775  10.500 -0.5510  0.0211  0.9421
  514MOL0     C69318   6.609   1.924  10.543 -0.0812  0.3468  0.3467
  514MOL0     C69319   6.474   1.976  10.551  0.2427  1.1395  0.2618
  514MOL0     C69320   6.364   2.020  10.544  0.6280  0.3829  0.3956
  514MOL0     C69321   6.229   1.851  10.245 -0.0776  0.4146 -0.0388
  514MOL0     C69322   6.143   1.928  10.166  0.1532 -0.4569 -0.1469
  514MOL0     H69323   6.049   2.245   9.782  0.2723 -0.7380  0.6861
  514MOL0     H69324   5.894   2.384   9.657  1.2914 -0.0422 -0.5225
  514MOL0     H69325   5.440   2.335   9.733 -1.4616  1.7432  1.1226
  514MOL0     H69326   5.471   2.479   9.817 -3.5273  3.2406 -1.7718
  514MOL0     H69327   5.489   2.609   9.595  0.8144 -0.8877 -0.5984
  514MOL0     H69328   5.473   2.464   9.513  2.7102  0.4912  0.8284
  514MOL0     H69329   5.239   2.434   9.651 -0.9502 -0.0292  4.5082
  514MOL0     H69330   5.269   2.599   9.701  0.1884 -1.2939 -0.1607
  514MOL0     H69331   5.252   2.693   9.477  2.4382 -1.2240  0.7147
  514MOL0     H69332   5.258   2.525   9.415  0.2083 -1.6049  0.9473
  514MOL0     H69333   5.051   2.477   9.506  1.9760  0.3661 -1.1552
  514MOL0     H69334   5.039   2.634   9.592 -0.9787  0.2980 -0.6415
  514MOL0     H69335   5.052   2.742   9.352 -0.1260  0.7443  1.0108
  514MOL0     H69336   5.055   2.584   9.290 -0.1764 -1.6731  1.2762
  514MOL0     H69337   4.817   2.668   9.281 -1.2462  0.3635  1.1960
  514MOL0     H69338   4.850   2.516   9.372 -0.7798 -1.0744 -0.4928
  514MOL0     H69339   4.815   2.795   9.505  0.3584  0.3384  2.1185
  514MOL0     H69340   4.834   2.644   9.589 -1.6288 -0.5045 -0.8506
  514MOL0     H69341   4.650   2.431   9.505 -2.3429 -0.4364 -1.4906
  514MOL0     H69342   4.287   2.453   9.490 -1.4946 -2.0284  0.0850
  514MOL0     H69343   4.405   2.332   9.552  1.5349  1.0485  0.3144
  514MOL0     H69344   4.270   2.567   9.699 -0.2011 -0.2065 -0.3952
  514MOL0     H69345   4.367   2.458   9.778 -1.6757 -0.2387  1.7833
  514MOL0     H69346   4.131   2.412   9.828  0.4241 -1.7190  1.0346
  514MOL0     H69347   4.176   2.275   9.744  1.4622  0.5019 -0.5804
  514MOL0     H69348   4.055   2.516   9.604 -3.5687  0.0145 -2.1703
  514MOL0     H69349   3.973   2.391   9.690  0.3204 -0.8250  0.1995
  514MOL0     H69350   3.797   2.328   9.486  0.8091 -0.2288 -0.0230
  514MOL0     H69351   3.562   2.043   9.518  0.9635 -0.6655 -0.8578
  514MOL0     H69352   3.564   2.218   9.540 -1.9126 -1.7895  1.2261
  514MOL0     H69353   3.584   2.134   9.378 -3.2660 -2.3895  0.8487
  514MOL0     H69354   3.521   1.687   9.706  0.2037  0.5214 -0.0310
  514MOL0     H69355   3.374   1.523   9.624  0.4517  1.3566 -2.5538
  514MOL0     H69356   3.339   1.320   9.670  1.3702  2.9232 -2.1051
  514MOL0     H69357   3.254   1.351   9.520 -3.1140 -0.8988  3.8501
  514MOL0     H69358   3.345   1.087   9.490  0.6560  0.2425 -0.6266
  514MOL0     H69359   3.334   1.107   9.665  0.6151  1.4773  0.2417
  514MOL0     H69360   3.081   1.177   9.619 -1.7413 -0.1075 -2.2348
  514MOL0     H69361   3.125   1.013   9.585  0.6247  0.3322  1.5694
  514MOL0     H69362   3.107   1.236   9.373  3.5365 -0.3453 -1.0442
  514MOL0     H69363   3.143   1.056   9.356  1.9202  0.2542  3.1920
  514MOL0     H69364   2.906   1.154   9.304  1.0995 -1.5512 -0.8645
  514MOL0     H69365   2.891   1.149   9.481  1.7420  2.1113 -0.0430
  514MOL0     H69366   2.926   0.923   9.287 -0.5263  1.4236 -1.0630
  514MOL0     H69367   2.951   0.908   9.468  1.3603  1.4273  0.2648
  514MOL0     H69368   2.677   0.970   9.346  0.1721 -1.8256 -2.9253
  514MOL0     H69369   2.723   0.941   9.516 -0.4932  0.7279 -0.3677
  514MOL0     H69370   2.771   0.733   9.279  1.2787  2.0135 -1.2236
  514MOL0     H69371   2.622   0.744   9.372 -0.2031 -0.6452  0.7120
  514MOL0     H69372   3.691   1.350   9.400  0.1898 -1.2016  1.9865
  514MOL0     H69373   3.843   1.563   9.459 -1.1376 -0.2365 -2.6252
  514MOL0     H69374   3.997   1.873   9.542 -0.2208 -0.8547 -1.1497
  514MOL0     H69375   4.141   2.073   9.537 -0.7287  1.2443 -1.8197
  514MOL0     H69376   5.572   2.230   9.903 -0.4589  0.6280 -1.4230
  514MOL0     H69377   5.735   2.093  10.024  1.0120 -0.8539 -0.1514
  514MOL0     H69378   6.294   1.825   9.877  3.3243 -1.3006  1.3796
  514MOL0     H69379   6.413   1.678  10.027 -0.1083 -0.2406 -1.6169
  514MOL0     H69380   6.553   1.586  10.367 -0.2786  0.8139  0.5597
  514MOL0     H69381   6.563   1.638  10.196 -1.1859  0.0029 -0.2265
  514MOL0     H69382   6.606   1.866  10.294  0.0035 -0.3395 -0.5220
  514MOL0     H69383   6.731   1.756  10.329  1.0597 -0.1033  3.1163
  514MOL0     H69384   6.721   1.746  10.539 -0.4957  0.0811  0.8478
  514MOL0     H69385   6.536   1.724  10.545 -3.3394  2.0864 -1.6863
  514MOL0     H69386   6.669   1.985  10.476 -0.3269  0.8622  0.5848
  514MOL0     H69387   6.643   1.939  10.646 -0.1894  3.6163  0.0174
  514MOL0     H69388   6.263   2.050  10.524  0.6732  0.8495  0.8381
  514MOL0     H69389   6.195   1.853  10.348  0.2512  1.9175  0.0595
  514MOL0     H69390   6.059   1.990  10.195  1.4502  1.1358  0.3372
  515MOL0     O69391   9.258   6.071   5.485 -0.4451 -0.0907 -0.0637
  515MOL0     C69392   9.269   5.991   5.577 -0.9763 -0.1601  0.0832
  515MOL0     O69393   9.167   5.944   5.661 -0.1323 -0.0633 -0.6440
  515MOL0     C69394   9.041   5.992   5.662  0.1368 -0.0460  0.2211
  515MOL0     C69395   9.005   6.121   5.612 -0.5656 -0.6980 -0.3695
  515MOL0     C69396   8.879   6.165   5.619 -0.0474  0.3310  0.1001
  515MOL0     C69397   8.778   6.091   5.679  0.6119  1.2628 -0.2048
  515MOL0     O69398   8.646   6.132   5.677  0.4212 -0.5156 -0.5326
  515MOL0     C69399   8.557   6.026   5.624  0.6767 -0.5642  0.3694
  515MOL0     C69400   8.416   6.077   5.596  0.9436  0.0942 -0.3344
  515MOL0     C69401   8.329   5.977   5.523  0.5884  0.6714 -0.1504
  515MOL0     C69402   8.199   6.040   5.468  0.4592  0.3044 -0.3389
  515MOL0     C69403   8.101   5.944   5.404  0.9021 -0.3946  0.2678
  515MOL0     C69404   8.059   5.819   5.486  0.0910 -0.1684 -0.3845
  515MOL0     C69405   7.940   5.749   5.413 -0.5000  0.3580 -0.4749
  515MOL0     C69406   7.900   5.620   5.497  0.2673  0.3291  0.1043
  515MOL0     N69407   7.775   5.561   5.439 -0.3300  0.2190  0.5042
  515MOL0     C69408   7.769   5.541   5.300 -0.2263  1.2713 -0.8033
  515MOL0     C69409   7.637   5.517   5.287 -0.1478 -0.4725 -1.1458
  515MOL0     C69410   7.563   5.510   5.152 -0.0039 -0.3452 -0.5367
  515MOL0     C69411   7.548   5.357   5.119  0.0010 -0.3834 -0.0741
  515MOL0     C69412   7.490   5.319   4.982  0.5755 -0.3955 -0.0306
  515MOL0     C69413   7.349   5.376   4.961  0.7078 -0.0932 -0.3395
  515MOL0     O69414   7.273   5.353   5.078 -0.4035  0.3756  1.1329
  515MOL0     C69415   7.137   5.350   5.076 -0.2216 -0.7970 -0.2541
  515MOL0     C69416   7.056   5.332   4.961 -0.3070 -0.7187 -0.0697
  515MOL0     C69417   6.918   5.314   4.979  0.5532  0.2908  0.3709
  515MOL0     C69418   6.831   5.281   4.857  0.0126  0.3841  0.6293
  515MOL0     C69419   6.860   5.324   5.111 -0.1168 -0.2401  0.5289
  515MOL0     C69420   6.717   5.300   5.138 -0.1398  0.1558 -0.1872
  515MOL0     O69421   6.699   5.279   5.274  0.3182  1.2219 -0.3728
  515MOL0     C69422   6.593   5.191   5.303 -0.7494  0.2933 -0.3303
  515MOL0     C69423   6.607   5.046   5.299  0.4472 -0.3500 -0.3011
  515MOL0     C69424   6.485   4.971   5.304  0.1254 -0.0726 -0.4747
  515MOL0     C69425   6.366   5.030   5.319  1.0711 -0.2778  0.7781
  515MOL0     O69426   6.243   4.969   5.328  0.6287 -0.3910  0.7682
  515MOL0     C69427   6.245   4.832   5.380 -0.7658  1.0692 -0.4689
  515MOL0     C69428   6.103   4.788   5.412 -0.0032  0.0245  0.1841
  515MOL0     C69429   6.024   4.774   5.293  0.2220  0.4791  0.4839
  515MOL0     C69430   5.947   4.897   5.246  1.2231 -0.1878 -0.3594
  515MOL0     C69431   5.806   4.882   5.168 -0.6482 -0.0336  0.6404
  515MOL0     C69432   5.693   4.845   5.264  0.6344  0.6459 -0.0331
  515MOL0     C69433   5.558   4.799   5.186  0.2788 -0.6859  0.0481
  515MOL0     C69434   5.448   4.749   5.286 -0.7887  0.2094 -0.0362
  515MOL0    Cl69435   5.382   4.891   5.374  0.3787  0.3874 -0.0551
  515MOL0     C69436   6.354   5.169   5.329 -0.2451  0.2267 -1.0374
  515MOL0     C69437   6.468   5.246   5.319  0.5536  0.0298  0.8546
  515MOL0     O69438   6.628   5.299   5.052 -0.0088 -0.6087 -0.0538
  515MOL0     C69439   6.944   5.343   5.225  0.3626 -0.2153  0.8495
  515MOL0     C69440   7.078   5.341   5.200  0.2821 -0.2305 -0.0567
  515MOL0     N69441   7.574   5.514   5.407  0.2039 -0.3988  0.1486
  515MOL0     N69442   7.657   5.545   5.498 -0.8056  0.5120 -0.4029
  515MOL0     C69443   8.814   5.973   5.737  0.8067 -0.4308  0.2946
  515MOL0     C69444   8.942   5.922   5.729 -0.0220  0.3589 -1.0282
  515MOL0     C69445   9.396   5.920   5.593  0.9746  0.2993 -0.4870
  515MOL0     C69446   9.506   5.979   5.530 -0.2106  0.8391 -0.2040
  515MOL0     C69447   9.638   5.920   5.554 -0.9189 -0.8032 -0.0677
  515MOL0     C69448   9.648   5.806   5.632 -0.3225  0.1495  0.3415
  515MOL0     O69449   9.765   5.751   5.642  0.6027 -0.0704 -1.0355
  515MOL0     C69450   9.784   5.612   5.594 -0.8654  1.1539  0.0463
  515MOL0     C69451   9.901   5.598   5.500 -0.7527 -0.3798 -0.5457
  515MOL0     C69452  10.021   5.668   5.567  0.3587  0.5087 -0.3380
  515MOL0     C69453  10.157   5.647   5.502  0.7848  0.0196  0.2268
  515MOL0     C69454  10.179   5.508   5.459 -0.1935  0.5314 -0.2553
  515MOL0     C69455  10.204   5.393   5.428 -0.9245 -0.3111 -0.0097
  515MOL0     C69456   9.536   5.747   5.682  0.9186  0.4917  0.6369
  515MOL0     C69457   9.413   5.805   5.666 -0.8994 -0.4568 -0.4134
  515MOL0     H69458   9.077   6.183   5.559 -2.8905  2.2392 -0.3744
  515MOL0     H69459   8.851   6.256   5.567  1.3328 -0.7027 -2.6626
  515MOL0     H69460   8.598   5.980   5.533 -0.9616 -1.7922  0.1976
  515MOL0     H69461   8.544   5.945   5.697  0.9780 -1.0119 -0.0636
  515MOL0     H69462   8.368   6.097   5.692 -2.5177 -3.3324 -1.0804
  515MOL0     H69463   8.419   6.168   5.535  1.8350  1.0063  1.0132
  515MOL0     H69464   8.380   5.953   5.429  0.9697  4.0831 -0.9458
  515MOL0     H69465   8.305   5.887   5.580  1.2419 -0.8844 -2.2249
  515MOL0     H69466   8.149   6.082   5.556  0.7026  0.0387 -0.0697
  515MOL0     H69467   8.218   6.121   5.398  1.7269 -0.5600 -1.0364
  515MOL0     H69468   8.024   6.012   5.366  2.0312  0.5984 -0.3079
  515MOL0     H69469   8.160   5.904   5.320 -0.0620  1.7282 -1.5391
  515MOL0     H69470   8.145   5.757   5.513  1.0523  2.2383  2.6253
  515MOL0     H69471   8.031   5.858   5.585 -1.5434 -1.4057 -0.3065
  515MOL0     H69472   7.855   5.817   5.404 -1.2711 -0.5624 -0.3209
  515MOL0     H69473   7.983   5.723   5.316 -0.6297 -1.6779 -0.0235
  515MOL0     H69474   7.886   5.662   5.597  0.2286  2.6324 -0.8089
  515MOL0     H69475   7.978   5.544   5.506  2.2731  1.7463 -3.2385
  515MOL0     H69476   7.849   5.572   5.232  2.0255 -2.5905 -0.2273
  515MOL0     H69477   7.466   5.560   5.149 -0.4337 -1.1163  0.0032
  515MOL0     H69478   7.619   5.553   5.069 -2.2631  1.2280 -1.3306
  515MOL0     H69479   7.482   5.319   5.197  0.8638  1.5028  1.6591
  515MOL0     H69480   7.649   5.317   5.123 -0.5308 -1.6984  0.7368
  515MOL0     H69481   7.496   5.210   4.971 -1.1117 -0.3960 -1.2873
  515MOL0     H69482   7.566   5.348   4.909 -0.7440  1.4334 -0.7523
  515MOL0     H69483   7.314   5.328   4.869 -1.7236  0.7780  0.0747
  515MOL0     H69484   7.343   5.485   4.957  2.8042  0.2513  2.8020
  515MOL0     H69485   7.099   5.325   4.861 -0.3178 -0.4896 -0.0897
  515MOL0     H69486   6.745   5.347   4.846  1.1519  2.2628  2.1986
  515MOL0     H69487   6.891   5.281   4.765 -0.7232 -1.1507  0.1113
  515MOL0     H69488   6.788   5.181   4.846 -0.6035  0.5756  1.1932
  515MOL0     H69489   6.706   5.002   5.290  1.7500  2.3907 -0.3727
  515MOL0     H69490   6.490   4.863   5.301  1.6489 -0.0957  1.0951
  515MOL0     H69491   6.299   4.764   5.314 -2.2155 -0.1319 -0.4723
  515MOL0     H69492   6.299   4.831   5.475 -1.0612 -0.9664 -0.2567
  515MOL0     H69493   6.093   4.690   5.460 -2.9172 -0.1416 -0.5701
  515MOL0     H69494   6.065   4.863   5.483 -0.0711  1.2353 -1.0964
  515MOL0     H69495   5.951   4.697   5.319  0.1614  0.4515  0.2271
  515MOL0     H69496   6.083   4.725   5.215 -0.6583  0.3427 -0.1128
  515MOL0     H69497   5.916   4.963   5.328 -2.0593 -1.7475 -0.2002
  515MOL0     H69498   6.005   4.957   5.175 -1.0269  2.4944 -0.1149
  515MOL0     H69499   5.813   4.807   5.089  1.1388 -0.2449  0.9503
  515MOL0     H69500   5.787   4.975   5.114 -1.2525  0.1115  1.0904
  515MOL0     H69501   5.713   4.749   5.313  1.0593  0.3401 -0.7890
  515MOL0     H69502   5.662   4.927   5.329 -0.0544  0.2023  0.2065
  515MOL0     H69503   5.580   4.718   5.116 -1.6459 -1.3888  0.1898
  515MOL0     H69504   5.508   4.882   5.135  2.7953  1.1396  0.3390
  515MOL0     H69505   5.484   4.676   5.359 -0.2957  0.4342 -0.0460
  515MOL0     H69506   5.364   4.700   5.236 -0.5301 -0.8463  0.5582
  515MOL0     H69507   6.253   5.208   5.342 -0.3494 -0.6293  1.0925
  515MOL0     H69508   6.442   5.351   5.324  0.5327 -0.0428  3.0747
  515MOL0     H69509   6.900   5.359   5.322 -0.7341  0.7689  0.2105
  515MOL0     H69510   7.138   5.352   5.289  0.4477 -0.5662 -0.1253
  515MOL0     H69511   8.738   5.909   5.781  1.3390 -1.1303  0.2052
  515MOL0     H69512   8.965   5.824   5.769  1.3898  1.7589  1.8583
  515MOL0     H69513   9.493   6.065   5.465  2.5341  2.2565  0.9575
  515MOL0     H69514   9.723   5.969   5.508  0.5267 -3.3760 -0.2604
  515MOL0     H69515   9.768   5.535   5.670 -1.2656 -0.2573 -1.4220
  515MOL0     H69516   9.697   5.595   5.531 -0.9341  1.6275  0.0051
  515MOL0     H69517   9.888   5.638   5.399 -0.0389 -2.6419 -1.6038
  515MOL0     H69518   9.930   5.495   5.478 -0.7008 -0.9269  1.8179
  515MOL0     H69519  10.041   5.631   5.668  2.5231 -1.8159 -1.5069
  515MOL0     H69520   9.998   5.775   5.576  0.0952  0.3477  1.1900
  515MOL0     H69521  10.225   5.670   5.584  2.9751 -1.6787 -1.0161
  515MOL0     H69522  10.171   5.711   5.414  0.9446 -1.0415 -0.5282
  515MOL0     H69523  10.226   5.292   5.400  1.7201  0.0250  0.6008
  515MOL0     H69524   9.543   5.651   5.733  4.5074  0.8935  1.2172
  515MOL0     H69525   9.329   5.766   5.723 -1.4496  4.9443  3.3178
  516MOL0     O69526  10.652   4.203   3.906  0.1122 -0.2983 -0.3791
  516MOL0     C69527  10.598   4.144   3.809 -0.5329  0.1724 -0.7634
  516MOL0     O69528  10.468   4.138   3.780 -0.6900  0.7194 -0.0720
  516MOL0     C69529  10.373   4.195   3.861 -0.7071 -1.2465  0.1113
  516MOL0     C69530  10.266   4.256   3.787 -0.0590  0.2090 -0.2613
  516MOL0     C69531  10.157   4.314   3.853  0.7257 -0.4262  0.0533
  516MOL0     C69532  10.144   4.297   3.990 -0.4889 -0.4421  0.9864
  516MOL0     O69533  10.036   4.350   4.061  0.4622  0.3512 -0.0462
  516MOL0     C69534   9.931   4.403   3.988 -0.4872 -0.3646  0.6232
  516MOL0     C69535   9.825   4.445   4.083  0.6489 -0.1172  0.8326
  516MOL0     C69536   9.694   4.475   4.015  0.4547  0.5973  0.0188
  516MOL0     C69537   9.594   4.528   4.126  0.5560  0.1069 -0.1330
  516MOL0     C69538   9.454   4.547   4.062 -0.3541 -0.0109 -0.2245
  516MOL0     C69539   9.357   4.638   4.145 -0.4648  0.2396 -0.4447
  516MOL0     C69540   9.225   4.617   4.075 -0.2874  0.0083 -0.4735
  516MOL0     C69541   9.110   4.698   4.129  0.1977  0.4916 -0.2566
  516MOL0     N69542   8.981   4.660   4.058 -0.2005  0.5076 -0.1256
  516MOL0     C69543   8.935   4.536   4.023  1.4511  0.8427  0.6268
  516MOL0     C69544   8.816   4.553   3.965 -0.8621  0.5468  0.2370
  516MOL0     C69545   8.746   4.455   3.892  0.0281 -0.8616  0.4302
  516MOL0     C69546   8.798   4.432   3.754 -0.1152  0.3244  0.6309
  516MOL0     C69547   8.712   4.319   3.686  0.7001  0.0519 -0.1633
  516MOL0     C69548   8.711   4.175   3.738  0.5755 -0.3344  0.0108
  516MOL0     O69549   8.703   4.083   3.636  0.0617 -0.0232 -0.2605
  516MOL0     C69550   8.582   4.035   3.580 -0.8744  0.8168 -0.0075
  516MOL0     C69551   8.585   3.925   3.494  0.8077  0.7641  0.0122
  516MOL0     C69552   8.464   3.863   3.453 -0.3190 -0.4248  0.6857
  516MOL0     C69553   8.463   3.728   3.382 -0.1620 -0.9907  0.8351
  516MOL0     C69554   8.343   3.941   3.464  0.1268  0.3832  0.7669
  516MOL0     C69555   8.211   3.894   3.409 -0.4441 -0.0171 -0.4378
  516MOL0     O69556   8.101   3.892   3.497  0.1219 -0.2900  0.7941
  516MOL0     C69557   7.981   3.844   3.451  0.8702 -0.5918 -0.3292
  516MOL0     C69558   7.950   3.746   3.350 -0.3394  0.5501  0.8356
  516MOL0     C69559   7.817   3.702   3.334 -0.3286 -0.3160 -0.1457
  516MOL0     C69560   7.704   3.760   3.395  0.4115  0.0304  0.1877
  516MOL0     O69561   7.573   3.726   3.367 -0.9793  0.3125 -0.1663
  516MOL0     C69562   7.538   3.721   3.225  1.1048  0.3194  1.1107
  516MOL0     C69563   7.423   3.616   3.210 -0.2317 -0.0249  0.0038
  516MOL0     C69564   7.301   3.660   3.294  0.0049 -0.8579 -0.0151
  516MOL0     C69565   7.251   3.801   3.263 -0.0777 -0.1072  0.3022
  516MOL0     C69566   7.103   3.828   3.284  0.4251  0.4536 -0.0480
  516MOL0     C69567   7.056   3.816   3.428 -0.4195  0.3078  1.0788
  516MOL0     C69568   6.899   3.812   3.430  0.4021 -0.9981 -0.1100
  516MOL0     C69569   6.829   3.942   3.481 -0.5278  0.0341  0.1971
  516MOL0    Cl69570   6.913   4.082   3.400  0.0600  0.5908 -0.8104
  516MOL0     C69571   7.734   3.867   3.479  0.3109  0.0139 -0.0696
  516MOL0     C69572   7.867   3.899   3.515  0.4417 -0.1891 -0.0146
  516MOL0     O69573   8.211   3.863   3.290  0.0391 -0.1322  0.5649
  516MOL0     C69574   8.339   4.051   3.546  0.6460 -0.3297  0.3288
  516MOL0     C69575   8.459   4.101   3.602  0.4102 -0.4096 -0.1635
  516MOL0     N69576   8.792   4.693   3.961 -0.0092  0.3027  0.3537
  516MOL0     N69577   8.890   4.749   4.024 -0.0357 -0.9991 -0.1800
  516MOL0     C69578  10.248   4.234   4.062  0.0773 -0.6540  0.6158
  516MOL0     C69579  10.364   4.189   4.002  0.1657 -0.4539  0.1619
  516MOL0     C69580  10.690   4.086   3.708 -0.6173 -1.6332  0.4570
  516MOL0     C69581  10.833   4.102   3.710 -0.2103  0.9457 -0.0129
  516MOL0     C69582  10.911   4.063   3.606  0.3530  0.0435  0.7358
  516MOL0     C69583  10.850   3.994   3.492  0.3473 -0.3087 -1.0689
  516MOL0     O69584  10.929   3.937   3.387 -0.0966  0.9331  0.5526
  516MOL0     C69585  11.067   3.957   3.380  0.6981  0.5353  0.5753
  516MOL0     C69586  11.105   4.097   3.338 -1.4805 -0.8144 -0.4964
  516MOL0     C69587  11.239   4.154   3.393 -0.0911 -0.5106 -0.6344
  516MOL0     C69588  11.358   4.081   3.321 -0.0293 -1.1633 -0.7305
  516MOL0     C69589  11.376   4.135   3.180  0.6015  0.3516 -0.5331
  516MOL0     C69590  11.391   4.207   3.081  0.1305 -0.2473 -0.3804
  516MOL0     C69591  10.719   3.969   3.497  1.5864 -0.3923 -0.4014
  516MOL0     C69592  10.637   4.020   3.595 -0.0561 -0.7902 -0.9741
  516MOL0     H69593  10.281   4.280   3.682  2.5228  1.0768  0.2249
  516MOL0     H69594  10.095   4.361   3.777  3.2518  0.5226 -1.6022
  516MOL0     H69595   9.975   4.491   3.938  1.8744 -1.0980  1.2558
  516MOL0     H69596   9.900   4.335   3.908 -0.1348 -0.3127  0.4365
  516MOL0     H69597   9.808   4.375   4.166 -2.4262 -0.6488 -0.0972
  516MOL0     H69598   9.868   4.534   4.130  1.1163  1.7266 -2.7652
  516MOL0     H69599   9.708   4.551   3.938 -1.1659  2.0266  1.0689
  516MOL0     H69600   9.653   4.380   3.977  1.1764  0.2115  0.1815
  516MOL0     H69601   9.581   4.446   4.197 -3.5081  0.6941  0.0454
  516MOL0     H69602   9.628   4.622   4.168  1.2259 -0.6803  1.1360
  516MOL0     H69603   9.473   4.597   3.966  1.9460  2.2391  1.2632
  516MOL0     H69604   9.405   4.451   4.047 -1.3060  0.2314  1.1338
  516MOL0     H69605   9.355   4.611   4.251  2.2072 -0.7701 -0.5866
  516MOL0     H69606   9.392   4.741   4.150  3.7133 -1.0504  2.3373
  516MOL0     H69607   9.247   4.638   3.970 -1.2706 -1.0961 -0.9145
  516MOL0     H69608   9.195   4.513   4.086 -0.4891 -0.2933 -3.1992
  516MOL0     H69609   9.131   4.802   4.106  0.0453  0.2118 -1.7693
  516MOL0     H69610   9.102   4.692   4.238  1.3631  0.4893 -0.1594
  516MOL0     H69611   8.986   4.442   4.040 -1.4691 -0.9713  0.1231
  516MOL0     H69612   8.741   4.361   3.948  0.4132  0.0055  1.9966
  516MOL0     H69613   8.644   4.494   3.877  0.6464  0.2352 -1.1144
  516MOL0     H69614   8.906   4.420   3.748  0.1537  2.4904  0.2680
  516MOL0     H69615   8.789   4.528   3.702 -1.2876  0.1762  0.5215
  516MOL0     H69616   8.743   4.321   3.582  2.8416  1.0282  0.4454
  516MOL0     H69617   8.606   4.349   3.683  0.7453  0.2487  0.1503
  516MOL0     H69618   8.630   4.162   3.811  0.4834 -0.1958 -0.0652
  516MOL0     H69619   8.805   4.150   3.787  2.2621  0.2951 -2.6507
  516MOL0     H69620   8.681   3.877   3.481 -0.0341 -1.4017  1.1801
  516MOL0     H69621   8.410   3.727   3.286  1.8672 -3.9600 -0.4191
  516MOL0     H69622   8.564   3.707   3.347 -0.6466  0.6768 -1.9112
  516MOL0     H69623   8.419   3.654   3.450 -1.2790 -1.9846 -0.8784
  516MOL0     H69624   8.035   3.698   3.303  1.0284  1.2738  2.4320
  516MOL0     H69625   7.794   3.619   3.268 -0.6271 -0.4402  0.1049
  516MOL0     H69626   7.498   3.820   3.202 -0.1272  0.0295  1.8801
  516MOL0     H69627   7.620   3.690   3.159  0.8029 -1.9887  1.7060
  516MOL0     H69628   7.389   3.602   3.107 -2.5668  1.4415  0.4782
  516MOL0     H69629   7.455   3.520   3.250  2.4217  1.3937  1.5512
  516MOL0     H69630   7.315   3.655   3.402 -0.5067 -0.6153  0.0650
  516MOL0     H69631   7.226   3.585   3.267  2.0257 -2.2931 -1.9912
  516MOL0     H69632   7.314   3.868   3.322 -0.9595 -0.6695  1.9419
  516MOL0     H69633   7.262   3.820   3.156 -0.6001  3.3008  0.7366
  516MOL0     H69634   7.046   3.759   3.221 -0.5439 -1.7574  3.0243
  516MOL0     H69635   7.081   3.930   3.250 -3.0767 -0.5991 -1.3099
  516MOL0     H69636   7.093   3.720   3.464  0.4158  0.7611  1.4554
  516MOL0     H69637   7.104   3.898   3.482 -0.4328  1.2839 -0.3323
  516MOL0     H69638   6.868   3.727   3.492 -2.2473  1.0736  1.6524
  516MOL0     H69639   6.854   3.790   3.333  0.9443 -0.0712 -0.5892
  516MOL0     H69640   6.834   3.952   3.590  0.2318  3.4081 -0.0389
  516MOL0     H69641   6.725   3.938   3.447  0.3965 -0.5484 -2.8212
  516MOL0     H69642   7.649   3.912   3.529 -1.1014 -0.2743 -2.0826
  516MOL0     H69643   7.876   3.978   3.589 -0.6151 -0.2597  0.2010
  516MOL0     H69644   8.238   4.091   3.561  0.2423 -1.3203  0.2897
  516MOL0     H69645   8.446   4.193   3.658 -1.1246 -0.1040 -0.9951
  516MOL0     H69646  10.235   4.235   4.170 -0.1311  0.9897  0.6006
  516MOL0     H69647  10.440   4.126   4.047  0.3932 -0.6487 -0.4813
  516MOL0     H69648  10.876   4.143   3.801  1.3277  0.6891 -0.6121
  516MOL0     H69649  11.018   4.077   3.617  0.3803  1.6445 -1.1770
  516MOL0     H69650  11.121   3.936   3.473  0.7723 -0.0984  0.3902
  516MOL0     H69651  11.095   3.889   3.299 -2.2948  0.6503 -0.7048
  516MOL0     H69652  11.024   4.169   3.354  0.7077  1.4859  0.7964
  516MOL0     H69653  11.115   4.097   3.229 -0.5077  2.2197 -0.4956
  516MOL0     H69654  11.243   4.132   3.500  1.3965  1.3908 -0.2611
  516MOL0     H69655  11.249   4.261   3.372  0.7998 -0.5268 -0.3211
  516MOL0     H69656  11.356   3.972   3.311  3.5430 -1.3629 -0.5544
  516MOL0     H69657  11.448   4.083   3.383 -0.4650  1.1482 -0.0864
  516MOL0     H69658  11.419   4.269   2.999  1.8146 -1.3480 -0.6789
  516MOL0     H69659  10.676   3.920   3.411 -0.6601  2.0981 -0.8421
  516MOL0     H69660  10.529   4.013   3.589 -0.0612  0.2290 -3.1051
  517MOL0     O69661   8.160   6.549   7.914 -0.1370  0.0888 -0.0379
  517MOL0     C69662   8.224   6.553   8.025 -0.1308  0.0156  0.0904
  517MOL0     O69663   8.174   6.530   8.151 -0.2893  0.0598 -0.9404
  517MOL0     C69664   8.056   6.478   8.183 -0.2679 -1.2217 -0.2562
  517MOL0     C69665   8.013   6.507   8.310 -0.2287 -0.4918 -0.2889
  517MOL0     C69666   7.887   6.473   8.363 -0.1825  0.4675  0.4713
  517MOL0     C69667   7.799   6.393   8.283 -0.5487 -0.0339 -0.4264
  517MOL0     O69668   7.678   6.350   8.338 -0.1187 -0.1515  0.2083
  517MOL0     C69669   7.553   6.365   8.258 -0.1588 -0.3116  1.2073
  517MOL0     C69670   7.528   6.518   8.257  0.2934 -0.6455 -1.5494
  517MOL0     C69671   7.406   6.556   8.178 -0.2444 -0.9448  0.0535
  517MOL0     C69672   7.348   6.701   8.179  0.0722 -0.3101 -0.0628
  517MOL0     C69673   7.222   6.713   8.086 -0.3306 -0.5298 -0.0999
  517MOL0     C69674   7.254   6.717   7.944  0.4224  0.0405  0.4226
  517MOL0     C69675   7.126   6.746   7.867 -0.8618  0.3751 -0.5779
  517MOL0     C69676   7.014   6.642   7.877  0.0933 -0.4325  0.7896
  517MOL0     N69677   6.920   6.650   7.993  0.5822 -1.0409 -0.8294
  517MOL0     C69678   6.863   6.769   8.028  0.1168  0.1739 -0.8181
  517MOL0     C69679   6.786   6.738   8.142 -0.8351  0.3186 -0.7510
  517MOL0     C69680   6.710   6.842   8.217  0.2646 -0.2092 -0.4697
  517MOL0     C69681   6.612   6.796   8.318 -0.8821 -0.6628  0.1624
  517MOL0     C69682   6.549   6.917   8.400 -0.1917 -0.0193  0.6127
  517MOL0     C69683   6.446   6.857   8.489 -0.1547  0.9480 -0.2489
  517MOL0     O69684   6.350   6.790   8.399 -0.2607  0.2038 -0.4093
  517MOL0     C69685   6.245   6.856   8.346  0.0098 -1.1798  0.2104
  517MOL0     C69686   6.172   6.794   8.246  0.4094 -0.5822 -0.1093
  517MOL0     C69687   6.050   6.841   8.197  0.1092  0.0181  0.7378
  517MOL0     C69688   5.986   6.758   8.086 -0.1485 -0.6383  1.0682
  517MOL0     C69689   5.998   6.967   8.243  0.3988 -0.5738 -0.2341
  517MOL0     C69690   5.864   7.011   8.221  1.0671  0.1320  0.2135
  517MOL0     O69691   5.834   7.120   8.295  0.0608 -0.5726 -0.4867
  517MOL0     C69692   5.723   7.202   8.289 -0.1353 -0.6543 -1.0841
  517MOL0     C69693   5.729   7.311   8.378  0.5067 -0.1214 -0.1052
  517MOL0     C69694   5.625   7.398   8.373 -0.5677 -0.0396  0.3181
  517MOL0     C69695   5.521   7.392   8.284  0.7269 -0.1051  0.0730
  517MOL0     O69696   5.429   7.491   8.279  1.1292 -0.3508 -0.4180
  517MOL0     C69697   5.299   7.450   8.243  0.4677  1.0298  0.9697
  517MOL0     C69698   5.201   7.562   8.290 -0.2088 -0.6537 -0.1830
  517MOL0     C69699   5.061   7.535   8.254  0.2708  0.0850  0.5017
  517MOL0     C69700   5.023   7.389   8.284  0.5168  0.6850 -0.2720
  517MOL0     C69701   4.875   7.361   8.267  0.3223  1.5763  0.0213
  517MOL0     C69702   4.797   7.424   8.387 -0.6481  0.3132 -0.1878
  517MOL0     C69703   4.665   7.359   8.435  0.0273  0.3149 -0.4654
  517MOL0     C69704   4.678   7.212   8.473  0.3060 -0.5616 -0.6986
  517MOL0    Cl69705   4.790   7.180   8.607  0.2639  0.0919  0.5971
  517MOL0     C69706   5.511   7.284   8.194 -0.7979  0.0405 -1.1674
  517MOL0     C69707   5.621   7.189   8.197  0.6412  0.6190 -0.2040
  517MOL0     O69708   5.797   6.963   8.130 -0.5038 -0.1805 -0.3047
  517MOL0     C69709   6.078   7.027   8.344  0.2032 -0.8655  0.2799
  517MOL0     C69710   6.204   6.980   8.391  0.6600 -0.2859  0.8041
  517MOL0     N69711   6.794   6.602   8.169 -0.1798  0.8855  0.5253
  517MOL0     N69712   6.868   6.554   8.065  0.2008 -1.0220 -0.1358
  517MOL0     C69713   7.839   6.364   8.149 -0.0721  0.0946  0.0896
  517MOL0     C69714   7.970   6.402   8.101  0.1187 -1.0941  0.4051
  517MOL0     C69715   8.371   6.569   8.012 -0.2476 -0.0833  0.0606
  517MOL0     C69716   8.452   6.570   7.899 -0.0857  1.2315 -0.6022
  517MOL0     C69717   8.599   6.568   7.902  0.2788  0.4222  0.1453
  517MOL0     C69718   8.665   6.581   8.023 -0.1714  0.1360 -0.2417
  517MOL0     O69719   8.800   6.606   8.039  0.8524  0.1874  0.0400
  517MOL0     C69720   8.870   6.671   7.945 -0.0304 -0.3131  0.0734
  517MOL0     C69721   9.006   6.709   8.014 -0.3255  0.3275 -0.6335
  517MOL0     C69722   9.096   6.586   8.058 -0.9299 -0.0261  0.4304
  517MOL0     C69723   9.114   6.478   7.945 -0.2471 -0.5483  0.6400
  517MOL0     C69724   9.204   6.366   7.977 -1.4720 -0.2263  0.0581
  517MOL0     C69725   9.271   6.271   8.006  0.5086  0.1118 -0.4203
  517MOL0     C69726   8.586   6.593   8.140 -0.8681 -0.6106  0.5595
  517MOL0     C69727   8.451   6.589   8.131  0.8209  0.1907  0.1659
  517MOL0     H69728   8.085   6.563   8.369  1.4060 -1.2324 -1.5051
  517MOL0     H69729   7.858   6.510   8.461 -0.5920  1.5167 -0.0291
  517MOL0     H69730   7.573   6.322   8.159 -2.1680  0.1138  0.5762
  517MOL0     H69731   7.468   6.314   8.305 -0.6535  0.7840  1.5243
  517MOL0     H69732   7.515   6.551   8.361 -1.0078 -3.0537 -0.8750
  517MOL0     H69733   7.623   6.556   8.217  2.0975 -2.8580  0.3523
  517MOL0     H69734   7.425   6.526   8.075 -0.8469 -0.9696 -0.0527
  517MOL0     H69735   7.327   6.493   8.219  0.2564 -2.3614 -1.0858
  517MOL0     H69736   7.306   6.721   8.278  0.2386  1.3468 -0.2934
  517MOL0     H69737   7.420   6.779   8.153 -1.4163  1.2629  0.3059
  517MOL0     H69738   7.167   6.619   8.104  1.1338 -1.8815 -2.2508
  517MOL0     H69739   7.160   6.796   8.122  0.7813 -0.5507  2.0466
  517MOL0     H69740   7.322   6.799   7.919 -0.3464  0.6916  0.4077
  517MOL0     H69741   7.296   6.622   7.910 -0.4837  1.1814 -4.6319
  517MOL0     H69742   7.087   6.843   7.898  0.5870  0.3315  1.6285
  517MOL0     H69743   7.156   6.753   7.762  0.3379 -4.5755 -0.8527
  517MOL0     H69744   7.068   6.546   7.880  0.4630 -0.3892 -2.0242
  517MOL0     H69745   6.953   6.654   7.787 -1.2547  2.8599  1.9954
  517MOL0     H69746   6.851   6.868   7.985  0.0055  0.9515  0.9029
  517MOL0     H69747   6.779   6.911   8.268 -2.0301  3.3004 -1.7211
  517MOL0     H69748   6.660   6.899   8.138 -3.1026  0.4063  1.9055
  517MOL0     H69749   6.668   6.731   8.386 -0.3035 -0.6001 -0.2490
  517MOL0     H69750   6.536   6.735   8.268 -0.6621 -0.9790  0.2106
  517MOL0     H69751   6.509   6.998   8.338  1.9724  1.2249  0.7543
  517MOL0     H69752   6.622   6.956   8.471 -1.0934  1.9305  0.5447
  517MOL0     H69753   6.401   6.931   8.557  0.2552  0.8723  0.1106
  517MOL0     H69754   6.496   6.782   8.550  2.6011 -0.5489 -3.9826
  517MOL0     H69755   6.216   6.704   8.205  3.2646 -0.6853  2.7287
  517MOL0     H69756   6.052   6.677   8.054  3.2789  2.7718 -1.5669
  517MOL0     H69757   5.890   6.715   8.116  2.0259 -4.1067  3.7287
  517MOL0     H69758   5.966   6.823   8.000 -0.2107 -2.1071 -0.0792
  517MOL0     H69759   5.804   7.328   8.455  1.3960  0.1741 -1.0027
  517MOL0     H69760   5.634   7.479   8.445  2.9814  0.6075 -0.6328
  517MOL0     H69761   5.274   7.442   8.136 -1.8399  0.3425  1.5124
  517MOL0     H69762   5.279   7.351   8.285  1.6544  0.3010 -0.0875
  517MOL0     H69763   5.204   7.570   8.399  0.8145  3.4410 -0.3388
  517MOL0     H69764   5.233   7.665   8.273  1.2667 -1.1017 -0.2960
  517MOL0     H69765   5.047   7.557   8.147  3.3080 -2.2848 -0.5513
  517MOL0     H69766   4.984   7.600   8.297 -1.5315 -0.5123 -1.6323
  517MOL0     H69767   5.068   7.326   8.207 -1.4294 -2.4509  0.9974
  517MOL0     H69768   5.057   7.364   8.385 -1.5656  1.0624  0.5574
  517MOL0     H69769   4.853   7.255   8.252 -2.7924  2.2024 -0.4619
  517MOL0     H69770   4.846   7.405   8.171 -0.9753  0.6288 -0.0448
  517MOL0     H69771   4.871   7.413   8.467 -0.7624 -1.8169 -0.3319
  517MOL0     H69772   4.765   7.525   8.357 -1.0172 -0.2360 -1.7291
  517MOL0     H69773   4.591   7.361   8.355 -4.5778 -0.9144  3.3340
  517MOL0     H69774   4.622   7.424   8.512 -0.8401  0.4904 -1.0908
  517MOL0     H69775   4.704   7.156   8.383 -3.2548 -0.1730 -2.0947
  517MOL0     H69776   4.579   7.177   8.501 -0.5949  1.8754 -0.6271
  517MOL0     H69777   5.437   7.275   8.116 -0.1845  0.8942 -1.8615
  517MOL0     H69778   5.621   7.117   8.116 -0.8062 -0.5033  0.7441
  517MOL0     H69779   6.052   7.124   8.385  1.6599 -0.7972  1.1038
  517MOL0     H69780   6.258   7.028   8.472  1.9489 -1.4188  0.6534
  517MOL0     H69781   7.775   6.317   8.075  0.8416  0.3204 -0.8738
  517MOL0     H69782   7.998   6.395   7.996 -1.8456  2.8720 -0.5904
  517MOL0     H69783   8.399   6.555   7.805 -1.0179  1.9525 -0.2161
  517MOL0     H69784   8.655   6.553   7.811  0.8531 -0.5236  0.6442
  517MOL0     H69785   8.885   6.619   7.849 -0.6645  2.1760 -1.4615
  517MOL0     H69786   8.825   6.767   7.919  0.6697 -0.9124 -4.0595
  517MOL0     H69787   9.001   6.774   8.102 -1.4219 -2.1902  1.2849
  517MOL0     H69788   9.071   6.755   7.939  1.1866 -2.5079 -1.2226
  517MOL0     H69789   9.064   6.538   8.151 -1.5084  0.0412  0.2746
  517MOL0     H69790   9.193   6.628   8.085 -1.2720  1.5775 -0.6545
  517MOL0     H69791   9.138   6.522   7.847  0.6618  1.7238  1.8194
  517MOL0     H69792   9.022   6.420   7.940  0.3767 -1.6008  1.0143
  517MOL0     H69793   9.342   6.196   8.037  1.7459  2.7134  3.8875
  517MOL0     H69794   8.626   6.598   8.241 -4.0771 -1.6971  2.0130
  517MOL0     H69795   8.394   6.589   8.223 -1.6772  0.6144 -1.2928
  518MOL0     O69796  10.420   7.503   7.242  0.3083  0.0702 -0.1726
  518MOL0     C69797  10.356   7.459   7.147 -0.0497 -0.5460  0.5440
  518MOL0     O69798  10.233   7.506   7.116 -0.8797  0.3535  0.5493
  518MOL0     C69799  10.151   7.549   7.215 -0.1701 -0.9822  0.3705
  518MOL0     C69800  10.159   7.509   7.352  0.2200 -0.4500 -0.2412
  518MOL0     C69801  10.056   7.555   7.435 -0.6447  0.0233  0.1640
  518MOL0     C69802   9.941   7.618   7.387 -0.3165  0.2386  0.4753
  518MOL0     O69803   9.824   7.630   7.459 -0.3636  0.2145  0.2284
  518MOL0     C69804   9.815   7.561   7.592  0.0237 -0.4509  0.5754
  518MOL0     C69805   9.693   7.605   7.668  0.9735  0.9708 -0.0385
  518MOL0     C69806   9.564   7.564   7.606 -0.6898 -0.1839 -0.1133
  518MOL0     C69807   9.446   7.596   7.695 -0.0733 -0.3663  1.4898
  518MOL0     C69808   9.314   7.574   7.610  0.7314  0.1232 -0.6016
  518MOL0     C69809   9.194   7.589   7.716  0.8861 -0.3757  0.7220
  518MOL0     C69810   9.069   7.535   7.648 -0.5740  0.6821 -0.2318
  518MOL0     C69811   8.944   7.550   7.740  0.1478  0.2929 -0.1414
  518MOL0     N69812   8.849   7.440   7.711  0.1985 -0.1265  0.7371
  518MOL0     C69813   8.751   7.431   7.610  0.4337  0.7692  0.1872
  518MOL0     C69814   8.682   7.321   7.640 -1.1121 -0.1407  0.3115
  518MOL0     C69815   8.572   7.250   7.559 -0.8184 -0.3036 -0.4264
  518MOL0     C69816   8.637   7.180   7.434 -0.4027  0.5891 -0.0907
  518MOL0     C69817   8.649   7.276   7.321  0.6361  0.0519  0.4311
  518MOL0     C69818   8.503   7.316   7.253  0.2939 -0.6281 -0.4805
  518MOL0     O69819   8.540   7.370   7.128 -0.5987  0.2168 -0.1241
  518MOL0     C69820   8.445   7.418   7.043  0.1363 -0.1811 -0.2241
  518MOL0     C69821   8.307   7.431   7.074 -1.0105  0.5850  0.1190
  518MOL0     C69822   8.218   7.484   6.983  0.4931  0.4080 -0.2545
  518MOL0     C69823   8.069   7.503   7.028 -0.1904  0.1780  0.1139
  518MOL0     C69824   8.259   7.505   6.844 -0.8092  0.1763  0.1593
  518MOL0     C69825   8.177   7.543   6.733  0.2466  0.2676 -0.9708
  518MOL0     O69826   8.236   7.597   6.626  0.0016  0.3890 -0.0783
  518MOL0     C69827   8.153   7.640   6.524 -0.2116  0.0975  0.6087
  518MOL0     C69828   8.169   7.573   6.402  0.6171  0.0407  0.2949
  518MOL0     C69829   8.093   7.613   6.294 -0.2119 -0.2064  0.0528
  518MOL0     C69830   7.988   7.710   6.307 -0.0738 -0.3149  0.3041
  518MOL0     O69831   7.889   7.730   6.210 -0.3625  0.1239 -0.1287
  518MOL0     C69832   7.926   7.691   6.078 -0.1834  0.4813  0.3436
  518MOL0     C69833   7.840   7.788   5.983 -0.0773 -0.1050 -0.4446
  518MOL0     C69834   7.863   7.941   6.009 -0.3809  0.8161  0.2763
  518MOL0     C69835   7.781   8.037   5.922  0.3505  0.4302 -1.1410
  518MOL0     C69836   7.816   8.192   5.929 -0.5162 -0.5080 -0.1773
  518MOL0     C69837   7.717   8.269   5.847 -1.1557  0.2813  0.1992
  518MOL0     C69838   7.709   8.246   5.695  0.4625  0.0528 -0.6667
  518MOL0     C69839   7.571   8.263   5.643  0.2676 -0.6025 -0.1374
  518MOL0    Cl69840   7.479   8.400   5.712 -0.0960  0.3618  0.0983
  518MOL0     C69841   7.984   7.784   6.432 -0.2071 -0.3046  0.3483
  518MOL0     C69842   8.066   7.749   6.537 -1.1139 -0.5032 -0.6497
  518MOL0     O69843   8.054   7.528   6.745 -0.0925 -0.3034  0.0242
  518MOL0     C69844   8.399   7.496   6.817  1.3294  0.1234  0.3800
  518MOL0     C69845   8.488   7.448   6.918  0.9657  0.3251  0.6203
  518MOL0     N69846   8.736   7.260   7.750  0.3897 -0.4464 -0.6294
  518MOL0     N69847   8.828   7.341   7.794 -0.5501 -0.4768 -0.8044
  518MOL0     C69848   9.941   7.653   7.256  0.6444 -0.3307 -0.2325
  518MOL0     C69849  10.038   7.622   7.169 -0.2404  1.2152 -0.1684
  518MOL0     C69850  10.422   7.363   7.051  0.0187  0.1080  0.1678
  518MOL0     C69851  10.562   7.374   7.031 -0.1816  0.7955  1.1299
  518MOL0     C69852  10.643   7.294   6.943  0.4161 -0.0179 -0.2363
  518MOL0     C69853  10.568   7.203   6.866 -0.1636  0.0005  0.3061
  518MOL0     O69854  10.630   7.114   6.784 -0.1310  0.1732  0.3233
  518MOL0     C69855  10.751   7.053   6.823 -0.7738 -0.0244  0.0479
  518MOL0     C69856  10.827   7.003   6.704 -0.3863 -0.1056  0.2260
  518MOL0     C69857  10.754   6.889   6.643 -0.5043  0.5859 -0.0531
  518MOL0     C69858  10.836   6.813   6.540  0.0516 -0.6502  0.3264
  518MOL0     C69859  10.749   6.713   6.481  0.2102  0.0009  0.6490
  518MOL0     C69860  10.665   6.637   6.430  0.0509  0.3663 -0.2352
  518MOL0     C69861  10.427   7.194   6.872 -0.2116 -0.5677 -0.5441
  518MOL0     C69862  10.351   7.278   6.962  0.5519  0.1468 -0.0437
  518MOL0     H69863  10.238   7.442   7.383  0.5107  0.1369  0.3181
  518MOL0     H69864  10.067   7.520   7.538  0.4271  1.4126  0.5684
  518MOL0     H69865   9.811   7.453   7.578 -2.2176 -0.1516 -2.1597
  518MOL0     H69866   9.910   7.585   7.640 -0.1844 -0.3699  0.9489
  518MOL0     H69867   9.693   7.559   7.768  1.4272 -0.2767 -0.5984
  518MOL0     H69868   9.694   7.714   7.683 -1.5057  1.0751 -0.2139
  518MOL0     H69869   9.565   7.621   7.512  1.1961  0.3135  0.1663
  518MOL0     H69870   9.570   7.460   7.572  1.3512  0.1740 -0.9680
  518MOL0     H69871   9.449   7.540   7.789 -0.9150 -1.3012  0.9826
  518MOL0     H69872   9.440   7.701   7.726 -2.2950 -0.3097  1.0426
  518MOL0     H69873   9.315   7.652   7.533 -1.3136  1.9551  1.0685
  518MOL0     H69874   9.310   7.474   7.567 -0.8364  0.3643 -1.0912
  518MOL0     H69875   9.211   7.528   7.805  4.8572 -1.3797 -0.5176
  518MOL0     H69876   9.189   7.695   7.743  0.4907  0.1110 -1.1265
  518MOL0     H69877   9.046   7.578   7.550  1.5302  0.4031 -0.8808
  518MOL0     H69878   9.093   7.430   7.631  0.5027  1.2172 -2.2892
  518MOL0     H69879   8.907   7.652   7.725  0.3786  0.2876 -0.7976
  518MOL0     H69880   8.969   7.547   7.846 -1.2147  1.1287  0.2332
  518MOL0     H69881   8.735   7.500   7.528  0.3590  2.4797  1.5896
  518MOL0     H69882   8.536   7.172   7.628 -0.7189  0.8136  0.9224
  518MOL0     H69883   8.494   7.322   7.535 -1.4468 -0.4775  1.0207
  518MOL0     H69884   8.574   7.097   7.399  1.8291 -2.9040  3.4388
  518MOL0     H69885   8.732   7.134   7.462 -1.2245 -2.5858 -2.0187
  518MOL0     H69886   8.707   7.223   7.246  1.3632 -1.9233  2.2810
  518MOL0     H69887   8.712   7.360   7.351  0.1061  0.4639  0.4115
  518MOL0     H69888   8.449   7.387   7.317 -1.6989 -2.3715 -0.1287
  518MOL0     H69889   8.435   7.232   7.243 -0.1345 -0.2764 -0.5418
  518MOL0     H69890   8.262   7.401   7.169 -1.4768  0.4151 -0.1489
  518MOL0     H69891   8.024   7.405   7.013  1.5801 -0.9586  1.7626
  518MOL0     H69892   8.060   7.518   7.136  0.8025 -0.7203  0.3306
  518MOL0     H69893   8.026   7.583   6.967 -1.1612  0.5461  1.2360
  518MOL0     H69894   8.246   7.498   6.391  0.4971 -0.0594  0.1392
  518MOL0     H69895   8.124   7.562   6.203 -2.7926  0.3470 -1.2361
  518MOL0     H69896   8.032   7.701   6.054  1.0258 -2.5027  3.5948
  518MOL0     H69897   7.898   7.586   6.080  0.2934  0.3310 -0.5049
  518MOL0     H69898   7.866   7.766   5.879 -2.0387  0.3083 -1.0755
  518MOL0     H69899   7.734   7.769   6.001  0.0581 -1.5699 -1.0775
  518MOL0     H69900   7.970   7.954   5.990  0.2569 -3.3774  0.0406
  518MOL0     H69901   7.836   7.972   6.111 -2.5133  0.8027 -0.2338
  518MOL0     H69902   7.808   8.014   5.818  4.1195  0.4565 -0.3433
  518MOL0     H69903   7.674   8.021   5.929  0.6212 -1.2843 -0.4620
  518MOL0     H69904   7.918   8.215   5.898 -1.0625  1.2771 -0.7471
  518MOL0     H69905   7.816   8.232   6.031  3.4613 -3.2707  1.1410
  518MOL0     H69906   7.616   8.246   5.884 -0.5378 -3.4492 -0.0186
  518MOL0     H69907   7.744   8.373   5.865 -0.7030  0.3693 -0.9249
  518MOL0     H69908   7.746   8.146   5.671  0.8454 -0.4099  1.6408
  518MOL0     H69909   7.777   8.319   5.649  0.5266  1.1552  1.0906
  518MOL0     H69910   7.503   8.179   5.658  0.2438 -0.2747  1.8305
  518MOL0     H69911   7.582   8.280   5.535  0.8921  0.6971  0.1049
  518MOL0     H69912   7.914   7.867   6.436 -1.4704 -1.3757  2.7360
  518MOL0     H69913   8.077   7.803   6.631  0.6358  0.4676 -1.3659
  518MOL0     H69914   8.431   7.521   6.716 -1.5142  2.4514 -0.0662
  518MOL0     H69915   8.594   7.438   6.895  0.7885  2.2566 -1.4285
  518MOL0     H69916   9.843   7.686   7.224 -0.1339 -3.0153 -0.8631
  518MOL0     H69917  10.028   7.657   7.067  3.1627  1.9475 -0.3756
  518MOL0     H69918  10.612   7.462   7.073 -0.1098  1.0361  0.5491
  518MOL0     H69919  10.750   7.311   6.954 -0.1688  2.9281  2.5199
  518MOL0     H69920  10.812   7.119   6.886 -1.4621  1.1939 -0.5154
  518MOL0     H69921  10.727   6.964   6.882  0.7594 -1.2822 -1.1336
  518MOL0     H69922  10.930   6.979   6.734 -0.1528  2.4397  1.7155
  518MOL0     H69923  10.830   7.092   6.641  0.1322 -0.3051 -0.0413
  518MOL0     H69924  10.659   6.923   6.601 -0.9696 -0.6433 -0.0396
  518MOL0     H69925  10.712   6.819   6.716  1.2114  0.8911  1.3027
  518MOL0     H69926  10.927   6.768   6.580  0.3767  0.9217  1.4525
  518MOL0     H69927  10.876   6.882   6.465  1.7095 -0.2634  1.5306
  518MOL0     H69928  10.601   6.567   6.379 -1.7510 -0.3174  2.7256
  518MOL0     H69929  10.372   7.127   6.806 -2.7018  0.0549  0.7645
  518MOL0     H69930  10.243   7.263   6.964  0.1672  2.4689  0.9064
  519MOL0     O69931   6.943   9.277   3.584 -0.0543  0.5355  0.1826
  519MOL0     C69932   6.964   9.373   3.504  0.6661  1.0703  0.0477
  519MOL0     O69933   6.899   9.395   3.386 -0.5117  0.0623 -0.1042
  519MOL0     C69934   6.795   9.323   3.330  1.0043 -0.7163  0.1947
  519MOL0     C69935   6.658   9.330   3.378 -0.1910 -0.4926  0.1942
  519MOL0     C69936   6.556   9.275   3.308 -0.4845  0.1328  0.1020
  519MOL0     C69937   6.574   9.211   3.183  0.4327 -0.3072 -0.3721
  519MOL0     O69938   6.457   9.169   3.131  0.2974  0.8414  0.6681
  519MOL0     C69939   6.461   9.118   3.000  0.2766  1.1115  1.1490
  519MOL0     C69940   6.325   9.114   2.929  0.7129  0.3393 -0.7040
  519MOL0     C69941   6.344   9.048   2.789 -0.4012  0.2114 -0.7091
  519MOL0     C69942   6.211   9.076   2.718 -0.2858 -0.2421 -0.6849
  519MOL0     C69943   6.212   9.019   2.572 -0.0657  0.3609  0.0755
  519MOL0     C69944   6.301   9.101   2.469  0.1922  0.6976 -0.6630
  519MOL0     C69945   6.277   9.042   2.330  0.4686  0.1001 -0.6273
  519MOL0     C69946   6.389   9.089   2.234  0.5489  0.3632  0.2377
  519MOL0     N69947   6.383   9.017   2.108  0.4817 -0.1061 -0.4924
  519MOL0     C69948   6.278   9.027   2.017 -0.5453 -0.6133 -0.0324
  519MOL0     C69949   6.310   8.932   1.922  0.2187 -0.1559  0.5468
  519MOL0     C69950   6.234   8.908   1.798 -0.1279 -0.0998 -0.6485
  519MOL0     C69951   6.121   9.006   1.762 -0.2011  1.0412 -0.3117
  519MOL0     C69952   6.044   8.947   1.639 -0.6297 -0.1772 -0.8261
  519MOL0     C69953   5.920   9.017   1.597  0.1473 -0.1545 -0.6383
  519MOL0     O69954   5.830   9.006   1.709  0.1126  0.4719  0.1580
  519MOL0     C69955   5.697   8.988   1.705  0.2355  0.4674  0.2125
  519MOL0     C69956   5.630   8.949   1.818  0.2688 -0.2662  0.8415
  519MOL0     C69957   5.492   8.926   1.820 -1.0728 -0.6759 -0.5501
  519MOL0     C69958   5.437   8.894   1.954  0.0881 -0.1397 -0.2292
  519MOL0     C69959   5.417   8.948   1.697  0.4460 -0.6146 -0.1811
  519MOL0     C69960   5.271   8.917   1.681 -0.2504 -0.5922  0.3042
  519MOL0     O69961   5.206   8.896   1.796  0.5827  0.2220  0.0854
  519MOL0     C69962   5.083   8.855   1.793  0.2346 -0.4870  0.7361
  519MOL0     C69963   4.971   8.937   1.778 -0.5293 -0.0931  0.5774
  519MOL0     C69964   4.836   8.885   1.775 -0.6475  0.1254 -0.4825
  519MOL0     C69965   4.822   8.752   1.785 -0.1032 -0.3771  0.2773
  519MOL0     O69966   4.699   8.690   1.775  0.4136 -0.0577 -0.0192
  519MOL0     C69967   4.576   8.770   1.756 -0.2933 -0.2172 -0.1473
  519MOL0     C69968   4.456   8.699   1.689 -0.5727 -0.3012 -0.8255
  519MOL0     C69969   4.324   8.779   1.692 -0.2416  0.8079  0.6114
  519MOL0     C69970   4.214   8.672   1.695 -0.2608  1.3055 -0.2370
  519MOL0     C69971   4.084   8.739   1.661  0.1837  0.8343  0.6322
  519MOL0     C69972   3.964   8.648   1.672  0.3742 -0.1838 -0.1327
  519MOL0     C69973   3.939   8.606   1.818 -0.0666 -0.1729  1.1221
  519MOL0     C69974   3.820   8.506   1.816 -0.2623  0.4669 -1.3770
  519MOL0    Cl69975   3.854   8.377   1.695  0.2192 -0.1896 -0.5729
  519MOL0     C69976   4.935   8.663   1.793 -0.0512 -0.7263  0.4527
  519MOL0     C69977   5.061   8.717   1.796  0.5729  0.0355 -1.0685
  519MOL0     O69978   5.207   8.925   1.574 -0.4949  0.0368  0.3339
  519MOL0     C69979   5.492   8.982   1.580  0.0773 -0.1849  0.2635
  519MOL0     C69980   5.629   8.998   1.580  0.5666 -0.3042  0.3195
  519MOL0     N69981   6.432   8.871   1.949 -1.0333 -0.1444  0.2519
  519MOL0     N69982   6.468   8.920   2.064 -0.7088 -0.7225 -0.3157
  519MOL0     C69983   6.706   9.186   3.147  0.3527 -0.6989  0.1073
  519MOL0     C69984   6.816   9.243   3.211 -0.5718 -0.0913 -0.2779
  519MOL0     C69985   7.083   9.451   3.540 -0.8020 -0.3406 -0.4355
  519MOL0     C69986   7.142   9.458   3.669 -0.4955 -0.3894  0.3422
  519MOL0     C69987   7.264   9.524   3.686 -0.1944  0.1298  0.1799
  519MOL0     C69988   7.329   9.587   3.584  0.2529 -1.1089  0.4858
  519MOL0     O69989   7.453   9.639   3.593  0.2373  0.4318  0.1135
  519MOL0     C69990   7.510   9.631   3.723  0.1194 -0.4394 -0.1224
  519MOL0     C69991   7.634   9.720   3.737 -0.7906 -0.0020 -0.2816
  519MOL0     C69992   7.731   9.688   3.625 -0.7099  0.5197  0.1784
  519MOL0     C69993   7.860   9.774   3.630  0.0518 -0.0008  0.1996
  519MOL0     C69994   7.943   9.725   3.734  0.7280  0.5588  0.1305
  519MOL0     C69995   8.001   9.702   3.841 -0.0286  0.3657 -0.8769
  519MOL0     C69996   7.269   9.597   3.457  0.2249  0.3626 -0.8654
  519MOL0     C69997   7.148   9.530   3.432 -0.1997  0.1459  0.1688
  519MOL0     H69998   6.631   9.390   3.465 -3.3695 -0.9500 -0.3352
  519MOL0     H69999   6.453   9.281   3.343 -0.0650 -1.5123  1.7644
  519MOL0     H70000   6.531   9.165   2.930 -1.8555  0.6548 -1.4375
  519MOL0     H70001   6.494   9.015   3.010 -2.8471 -0.2857 -1.2387
  519MOL0     H70002   6.257   9.054   2.991  1.2368  1.1627  0.7064
  519MOL0     H70003   6.284   9.214   2.922  0.8103  0.5043  0.7150
  519MOL0     H70004   6.432   9.099   2.749  0.7050 -0.3027  0.9670
  519MOL0     H70005   6.367   8.941   2.789  2.3783  0.7531 -1.2554
  519MOL0     H70006   6.130   9.028   2.774 -0.8959  3.4556  1.9087
  519MOL0     H70007   6.187   9.182   2.723  0.3353 -0.1001 -0.6631
  519MOL0     H70008   6.269   8.925   2.568  1.5094  1.3231 -1.8575
  519MOL0     H70009   6.109   9.005   2.541 -0.3565 -0.8429  1.4579
  519MOL0     H70010   6.280   9.208   2.482  0.5869  0.6559  0.4765
  519MOL0     H70011   6.405   9.098   2.503 -0.8089  0.3219  2.7681
  519MOL0     H70012   6.288   8.933   2.330  1.8204  0.0637  3.8711
  519MOL0     H70013   6.176   9.072   2.298 -0.2276  0.7086  1.8740
  519MOL0     H70014   6.491   9.075   2.269 -0.2573 -2.4369  1.8241
  519MOL0     H70015   6.371   9.195   2.212 -0.5035  0.2138  0.3264
  519MOL0     H70016   6.192   9.092   2.028 -0.9514 -1.1952  0.1949
  519MOL0     H70017   6.307   8.895   1.717  0.8865 -2.3731  0.5477
  519MOL0     H70018   6.182   8.812   1.799 -0.6894  0.2093  0.2355
  519MOL0     H70019   6.157   9.109   1.758  3.6835 -0.0912  0.2875
  519MOL0     H70020   6.063   9.010   1.854 -0.6441  0.8579 -0.5806
  519MOL0     H70021   6.027   8.841   1.660 -2.4778  0.4945  1.6296
  519MOL0     H70022   6.103   8.928   1.549 -2.4133  1.5482 -2.4642
  519MOL0     H70023   5.883   8.964   1.509 -0.5037 -0.9784  0.1176
  519MOL0     H70024   5.939   9.119   1.563 -0.5313  0.9007  1.8865
  519MOL0     H70025   5.680   8.941   1.914  0.9871  1.0759  0.6032
  519MOL0     H70026   5.521   8.873   2.021 -1.3074  2.1450  2.4693
  519MOL0     H70027   5.376   8.979   1.988 -2.8933 -1.2907 -2.2750
  519MOL0     H70028   5.366   8.810   1.950 -1.4893  0.9835  1.8343
  519MOL0     H70029   4.992   9.044   1.779 -1.5824  0.1263  0.3219
  519MOL0     H70030   4.755   8.956   1.765  0.6965  1.5065 -2.0945
  519MOL0     H70031   4.558   8.794   1.861  0.7724 -1.0766  0.2612
  519MOL0     H70032   4.594   8.858   1.694  0.5718  0.4483  1.0250
  519MOL0     H70033   4.483   8.663   1.589  4.9359 -0.7110  0.4788
  519MOL0     H70034   4.449   8.605   1.745  1.4309  0.8590  1.5589
  519MOL0     H70035   4.329   8.835   1.598 -2.2281 -0.0604 -0.0804
  519MOL0     H70036   4.324   8.856   1.770  3.1138  0.8020  0.7453
  519MOL0     H70037   4.235   8.590   1.626  0.1805  0.8828  0.3873
  519MOL0     H70038   4.204   8.629   1.796  1.5702  0.1102 -0.5288
  519MOL0     H70039   4.101   8.770   1.558  0.0391 -0.5045  0.1911
  519MOL0     H70040   4.067   8.827   1.724  0.1664  1.7697 -0.6451
  519MOL0     H70041   3.872   8.695   1.637  1.0000  1.5551  0.4272
  519MOL0     H70042   3.993   8.564   1.609  0.3084 -0.1441 -0.2158
  519MOL0     H70043   3.921   8.683   1.894  0.5754  0.4673  0.6268
  519MOL0     H70044   4.024   8.542   1.845 -0.3963 -0.4961  1.4113
  519MOL0     H70045   3.726   8.561   1.812 -1.6042 -1.4481  1.1957
  519MOL0     H70046   3.814   8.456   1.913 -2.5681 -0.8146 -2.0952
  519MOL0     H70047   4.934   8.555   1.801  2.9454 -1.2183 -2.9365
  519MOL0     H70048   5.151   8.668   1.831 -0.4719  0.3200  2.3297
  519MOL0     H70049   5.435   8.989   1.488  0.9402 -2.1645 -0.4661
  519MOL0     H70050   5.673   9.019   1.483  0.5427  1.5807  0.6752
  519MOL0     H70051   6.715   9.133   3.053  0.2206 -1.0131  0.2707
  519MOL0     H70052   6.914   9.237   3.164 -0.9754 -1.0545 -1.0405
  519MOL0     H70053   7.092   9.405   3.749  1.0872 -0.6334  1.2072
  519MOL0     H70054   7.302   9.528   3.788  1.1897  0.9402 -0.3408
  519MOL0     H70055   7.448   9.677   3.800  1.4543  0.8167  0.2359
  519MOL0     H70056   7.532   9.529   3.755 -2.6242 -1.3324 -0.8316
  519MOL0     H70057   7.701   9.689   3.818  0.3639  0.4243 -1.0418
  519MOL0     H70058   7.621   9.829   3.737  0.9997  0.3175 -2.9478
  519MOL0     H70059   7.688   9.721   3.530  1.2797  1.5991 -0.4085
  519MOL0     H70060   7.755   9.581   3.617 -1.5540  0.4708 -2.5117
  519MOL0     H70061   7.851   9.883   3.631  0.4084  0.0783 -1.5976
  519MOL0     H70062   7.931   9.761   3.548  1.5687  0.1858  1.4436
  519MOL0     H70063   8.033   9.668   3.937 -2.6859  0.5135  0.1722
  519MOL0     H70064   7.312   9.649   3.371 -0.0136 -0.1268 -1.2827
  519MOL0     H70065   7.103   9.551   3.336  0.6525  1.4477  0.0385
  520MOL0     O70066  11.277   3.165   3.180 -0.5154 -0.0582 -0.0467
  520MOL0     C70067  11.296   3.159   3.061 -0.2475 -0.5838  0.4831
  520MOL0     O70068  11.226   3.084   2.969  0.8887 -0.0499 -0.2980
  520MOL0     C70069  11.097   3.039   3.000 -0.1850 -0.4593  1.5547
  520MOL0     C70070  11.053   2.913   2.957 -0.4160 -0.4447  0.1245
  520MOL0     C70071  10.928   2.868   2.997  0.2062  1.3514  0.6378
  520MOL0     C70072  10.842   2.946   3.067 -0.8944 -0.5503 -0.1828
  520MOL0     O70073  10.719   2.900   3.094  0.2148 -0.2586  0.9970
  520MOL0     C70074  10.625   2.961   3.182  0.1734 -0.4307  0.7221
  520MOL0     C70075  10.543   3.075   3.130  0.2256  0.2032  0.6671
  520MOL0     C70076  10.450   3.014   3.016 -0.8244  0.3980 -0.6774
  520MOL0     C70077  10.350   3.119   2.962 -0.2789 -0.2961  0.0036
  520MOL0     C70078  10.264   3.061   2.852  0.0733 -0.1755 -0.2110
  520MOL0     C70079  10.127   3.018   2.894  0.8022  0.8338 -0.4369
  520MOL0     C70080  10.030   3.132   2.920  0.3211 -0.4090  0.0846
  520MOL0     C70081   9.919   3.093   3.013 -0.3850 -0.0236  0.0182
  520MOL0     N70082   9.836   2.988   2.952  0.5689 -0.2514 -0.2249
  520MOL0     C70083   9.807   2.872   3.020 -0.0929  0.0828  0.5549
  520MOL0     C70084   9.735   2.791   2.939 -0.3472 -0.4268 -0.0087
  520MOL0     C70085   9.687   2.646   2.964 -0.6032  0.1262  0.7410
  520MOL0     C70086   9.626   2.641   3.108  0.6188 -0.3239 -0.9154
  520MOL0     C70087   9.582   2.510   3.165 -0.3187  0.6645 -0.2887
  520MOL0     C70088   9.440   2.463   3.122 -0.7812  0.4660 -0.0011
  520MOL0     O70089   9.445   2.431   2.981  0.2169  0.1672 -0.1297
  520MOL0     C70090   9.336   2.396   2.927  1.3079 -0.8202  0.7528
  520MOL0     C70091   9.228   2.329   2.987 -0.5734  0.4623 -0.0505
  520MOL0     C70092   9.115   2.289   2.917 -0.8276 -0.6916 -0.6183
  520MOL0     C70093   9.014   2.217   3.008  0.2404 -0.4111 -0.8095
  520MOL0     C70094   9.105   2.315   2.780  0.9222  0.0077 -0.9991
  520MOL0     C70095   8.991   2.279   2.699 -0.3364  0.0199  0.8282
  520MOL0     O70096   8.990   2.327   2.572  0.8153 -0.2914 -0.1595
  520MOL0     C70097   8.879   2.286   2.498 -0.0380 -0.1290  0.3006
  520MOL0     C70098   8.888   2.168   2.430  0.7570 -0.3619  0.0605
  520MOL0     C70099   8.773   2.129   2.356 -0.2424 -0.5178  0.8518
  520MOL0     C70100   8.654   2.202   2.357  0.4206  0.4233 -0.5459
  520MOL0     O70101   8.556   2.159   2.272 -0.0095  0.3274 -0.4884
  520MOL0     C70102   8.436   2.113   2.334  0.5763 -0.2892  0.0813
  520MOL0     C70103   8.352   2.038   2.231 -0.2730  0.6108  0.3243
  520MOL0     C70104   8.417   1.899   2.230 -0.5702  1.0049  0.5824
  520MOL0     C70105   8.350   1.809   2.134 -0.5446 -0.7139 -0.2571
  520MOL0     C70106   8.429   1.683   2.107  0.2545  0.4762 -0.4545
  520MOL0     C70107   8.517   1.690   1.975 -0.4894  0.2869 -0.0794
  520MOL0     C70108   8.568   1.556   1.929  0.1993  0.5078  0.0456
  520MOL0     C70109   8.641   1.549   1.795 -0.0518  0.7493  0.6526
  520MOL0    Cl70110   8.814   1.581   1.809 -0.2455  0.4838 -0.3935
  520MOL0     C70111   8.656   2.325   2.416  0.5314 -0.7343  0.3652
  520MOL0     C70112   8.762   2.366   2.495  0.9677  0.5616 -0.5280
  520MOL0     O70113   8.918   2.192   2.739 -0.0831  0.5372  0.0738
  520MOL0     C70114   9.207   2.385   2.724 -0.4104  0.3804  0.4712
  520MOL0     C70115   9.326   2.427   2.797  0.6245 -0.1112  0.4887
  520MOL0     N70116   9.730   2.863   2.820 -0.5002  0.2281 -0.1643
  520MOL0     N70117   9.790   2.977   2.830  0.8110 -0.3440  0.3658
  520MOL0     C70118  10.881   3.078   3.100 -1.0911 -0.2467  0.0874
  520MOL0     C70119  11.011   3.122   3.066  0.0379 -0.4927  0.0408
  520MOL0     C70120  11.410   3.231   2.992 -0.1990 -0.0115  0.2466
  520MOL0     C70121  11.509   3.298   3.063 -0.2229 -0.4042  0.2400
  520MOL0     C70122  11.606   3.380   3.013  0.0496  0.9638 -0.0899
  520MOL0     C70123  11.614   3.394   2.872 -0.7204  0.0047  0.2909
  520MOL0     O70124  11.705   3.469   2.804  0.7953 -0.2287  0.0092
  520MOL0     C70125  11.839   3.465   2.855 -0.1616  0.1971  0.0150
  520MOL0     C70126  11.945   3.473   2.742  0.6500  0.0236 -0.4650
  520MOL0     C70127  12.084   3.471   2.809 -0.4867  0.1679  0.8297
  520MOL0     C70128  12.197   3.467   2.706  0.3329  1.3571  0.7934
  520MOL0     C70129  12.327   3.469   2.767  0.3840  0.6210 -1.1303
  520MOL0     C70130  12.439   3.467   2.823  1.0234 -0.3945 -0.3660
  520MOL0     C70131  11.520   3.319   2.800 -0.3746  1.2151  0.7013
  520MOL0     C70132  11.415   3.241   2.857  0.4403 -0.3594 -0.8389
  520MOL0     H70133  11.122   2.842   2.914 -0.0661 -0.6165  0.9684
  520MOL0     H70134  10.892   2.770   2.970 -1.5950  2.0703  0.3066
  520MOL0     H70135  10.556   2.886   3.222 -0.5511  0.3968  1.0568
  520MOL0     H70136  10.678   2.982   3.276 -1.7060 -1.1226  1.9905
  520MOL0     H70137  10.483   3.108   3.215 -0.5405 -3.6684  1.8492
  520MOL0     H70138  10.615   3.151   3.099  0.9225 -1.7864 -3.4038
  520MOL0     H70139  10.514   2.980   2.935 -0.4982  1.5810 -0.9329
  520MOL0     H70140  10.385   2.942   3.066 -0.5114  1.2708  1.0755
  520MOL0     H70141  10.291   3.153   3.048  1.3430  2.6951  0.0522
  520MOL0     H70142  10.396   3.213   2.933 -1.4706 -0.3765 -2.3542
  520MOL0     H70143  10.260   3.137   2.774 -0.3306 -1.8960 -1.9577
  520MOL0     H70144  10.319   2.976   2.811  0.8525  0.6646 -0.9527
  520MOL0     H70145  10.083   2.947   2.823 -0.6977  2.4385 -1.1770
  520MOL0     H70146  10.139   2.963   2.987 -0.9366  1.0641 -0.0469
  520MOL0     H70147  10.092   3.208   2.968 -2.1834 -0.9746  4.7700
  520MOL0     H70148   9.982   3.176   2.831  2.4374 -1.0550 -1.4525
  520MOL0     H70149   9.863   3.184   3.038  0.4220  1.3303 -2.6894
  520MOL0     H70150   9.967   3.049   3.101  1.7814  1.3747 -0.3722
  520MOL0     H70151   9.842   2.845   3.119  0.7468 -1.8989 -0.2383
  520MOL0     H70152   9.610   2.607   2.897  0.0272  0.9415 -0.5028
  520MOL0     H70153   9.773   2.579   2.952 -1.1254 -0.1591 -2.2558
  520MOL0     H70154   9.538   2.705   3.121 -0.4267 -1.8691 -0.0784
  520MOL0     H70155   9.702   2.668   3.182  0.9517 -2.0113 -0.6013
  520MOL0     H70156   9.559   2.525   3.271 -1.9115  0.6677 -0.6065
  520MOL0     H70157   9.662   2.437   3.155 -2.8110 -2.6998  1.9180
  520MOL0     H70158   9.366   2.542   3.138 -0.6898  0.4390  0.5845
  520MOL0     H70159   9.419   2.375   3.184 -1.0765 -2.4743 -3.9020
  520MOL0     H70160   9.241   2.288   3.087 -0.8538 -0.3090 -0.3236
  520MOL0     H70161   9.021   2.108   3.005 -2.5827 -0.6743 -0.7882
  520MOL0     H70162   9.037   2.247   3.111 -1.2036  0.5280 -0.7263
  520MOL0     H70163   8.912   2.249   2.987  0.8272  3.9704  1.8534
  520MOL0     H70164   8.977   2.106   2.434  0.8552 -0.3603 -1.5349
  520MOL0     H70165   8.784   2.039   2.297 -0.6147 -0.8724  1.3159
  520MOL0     H70166   8.465   2.054   2.422  0.4414  1.2950  1.2370
  520MOL0     H70167   8.380   2.199   2.373 -3.5769 -1.6816 -2.2902
  520MOL0     H70168   8.248   2.027   2.262  0.1655 -2.3585  1.0830
  520MOL0     H70169   8.348   2.084   2.132 -1.5052  1.4193  0.7315
  520MOL0     H70170   8.415   1.844   2.324  1.0210 -1.0603 -0.5201
  520MOL0     H70171   8.523   1.901   2.203 -0.5844 -2.1597 -0.0267
  520MOL0     H70172   8.253   1.780   2.173 -0.7864  2.4863  1.8820
  520MOL0     H70173   8.322   1.864   2.044 -1.2433  2.5701  1.8135
  520MOL0     H70174   8.347   1.616   2.080 -2.4777  1.3831  4.4437
  520MOL0     H70175   8.483   1.652   2.197 -0.1371  0.7460 -0.1207
  520MOL0     H70176   8.454   1.725   1.893 -3.9663 -1.3249  1.7156
  520MOL0     H70177   8.594   1.767   1.991 -0.6015  1.0951 -2.9289
  520MOL0     H70178   8.479   1.493   1.924  0.2003  0.5057  0.0606
  520MOL0     H70179   8.636   1.505   1.997 -2.6865 -2.9837  0.6272
  520MOL0     H70180   8.595   1.615   1.722 -2.9373 -0.5281  1.1744
  520MOL0     H70181   8.628   1.447   1.756 -0.5760  1.6626 -1.7298
  520MOL0     H70182   8.570   2.391   2.408  1.4584  0.3248 -1.8074
  520MOL0     H70183   8.753   2.462   2.544 -2.3226 -0.1108  0.4413
  520MOL0     H70184   9.206   2.404   2.617 -1.1603 -1.9419  0.0110
  520MOL0     H70185   9.414   2.472   2.751 -0.1275  1.1799  0.2389
  520MOL0     H70186  10.822   3.144   3.162  0.0303 -0.2386  1.1830
  520MOL0     H70187  11.037   3.222   3.100 -0.0711 -0.4679  0.0534
  520MOL0     H70188  11.497   3.283   3.170 -2.4650 -3.1678 -0.2597
  520MOL0     H70189  11.677   3.436   3.073  0.5392  0.5621 -0.2910
  520MOL0     H70190  11.865   3.539   2.931  1.2396  0.9654 -1.1698
  520MOL0     H70191  11.851   3.366   2.900 -0.1733 -0.9480 -2.3378
  520MOL0     H70192  11.932   3.570   2.692  1.1394 -0.4583 -1.5738
  520MOL0     H70193  11.936   3.394   2.667 -2.1256 -0.2673  0.0512
  520MOL0     H70194  12.098   3.390   2.881  2.7315  0.3682  0.5679
  520MOL0     H70195  12.096   3.567   2.860 -2.6197  0.4990  0.8352
  520MOL0     H70196  12.186   3.552   2.637  0.5144  2.8654  2.5444
  520MOL0     H70197  12.186   3.379   2.642 -1.4364  2.2131 -0.1593
  520MOL0     H70198  12.541   3.484   2.851  1.8402 -2.9903 -1.5052
  520MOL0     H70199  11.528   3.335   2.693  0.0245  4.0079  1.0584
  520MOL0     H70200  11.340   3.198   2.791 -0.1640  0.1200 -0.4770
  521MOL0     O70201   4.083   0.610   5.088  0.5029  0.5368 -0.0157
  521MOL0     C70202   4.159   0.650   5.004  0.1130 -0.2953  0.4998
  521MOL0     O70203   4.149   0.646   4.874 -0.3408  0.7938  0.0797
  521MOL0     C70204   4.036   0.615   4.806 -0.2947 -0.3715  1.0628
  521MOL0     C70205   4.061   0.582   4.671 -0.2639  0.6435 -0.6886
  521MOL0     C70206   3.947   0.553   4.592 -0.3160 -0.1566  0.3587
  521MOL0     C70207   3.819   0.548   4.642  0.4412 -1.0529  0.4576
  521MOL0     O70208   3.716   0.513   4.560  0.9160 -0.1517  0.0237
  521MOL0     C70209   3.708   0.368   4.562 -0.1364  0.0188  0.0497
  521MOL0     C70210   3.563   0.311   4.557  0.3398  0.1662 -0.6790
  521MOL0     C70211   3.473   0.368   4.671  0.2027  0.0979  0.7023
  521MOL0     C70212   3.322   0.349   4.649  0.1498 -0.9307 -0.2127
  521MOL0     C70213   3.248   0.406   4.771  0.2341  0.5783 -0.0883
  521MOL0     C70214   3.094   0.428   4.736 -0.6633  0.2197 -1.0147
  521MOL0     C70215   3.034   0.538   4.817  1.0637 -0.2856  0.2793
  521MOL0     C70216   2.875   0.536   4.784  0.0338 -0.1763 -0.2795
  521MOL0     N70217   2.805   0.644   4.859 -0.8473  0.8614  0.4668
  521MOL0     C70218   2.758   0.642   4.988  0.8842 -0.2713 -0.3495
  521MOL0     C70219   2.687   0.761   4.996  0.3718  0.2003 -0.6098
  521MOL0     C70220   2.634   0.824   5.125 -0.0208 -0.6960 -0.4961
  521MOL0     C70221   2.512   0.751   5.164 -1.0076 -0.6680 -0.2800
  521MOL0     C70222   2.405   0.857   5.200 -0.1169  0.7489 -0.5149
  521MOL0     C70223   2.272   0.799   5.236  0.3092 -0.8492 -0.9134
  521MOL0     O70224   2.230   0.700   5.141 -0.3664  0.9999 -0.5565
  521MOL0     C70225   2.107   0.643   5.153 -0.0160 -0.8894 -0.2208
  521MOL0     C70226   2.085   0.545   5.064  0.1716  0.1861  0.3655
  521MOL0     C70227   1.957   0.486   5.055 -0.1691 -0.1935  0.6971
  521MOL0     C70228   1.929   0.390   4.942  1.0369 -0.6462 -0.6170
  521MOL0     C70229   1.848   0.533   5.138  0.7363 -0.2789 -0.1755
  521MOL0     C70230   1.711   0.478   5.144  0.7215  0.3613 -0.0956
  521MOL0     O70231   1.688   0.347   5.165  0.0577  0.4449 -0.0052
  521MOL0     C70232   1.561   0.305   5.162  0.5945  0.0312  0.8037
  521MOL0     C70233   1.516   0.249   5.045  0.7792  0.2851  0.4526
  521MOL0     C70234   1.390   0.192   5.049 -0.5386  0.1113  0.5476
  521MOL0     C70235   1.304   0.209   5.154 -0.1961 -0.1694 -0.5381
  521MOL0     O70236   1.175   0.161   5.154  0.4939 -0.0282 -0.4031
  521MOL0     C70237   1.139   0.074   5.055  0.4338  0.3422  0.3133
  521MOL0     C70238   0.989   0.039   5.087 -0.0530 -0.2308  0.7658
  521MOL0     C70239   0.941  -0.068   4.991  0.0319  0.2153 -0.2291
  521MOL0     C70240   0.789  -0.076   4.985  0.4829 -1.3926  0.4575
  521MOL0     C70241   0.726  -0.176   4.883 -0.7484  0.2904  0.0287
  521MOL0     C70242   0.573  -0.152   4.861 -0.4604 -0.8778 -0.2657
  521MOL0     C70243   0.488  -0.204   4.970  0.2455  0.0471 -0.5562
  521MOL0     C70244   0.385  -0.300   4.929  0.3140  0.6658 -0.3651
  521MOL0    Cl70245   0.267  -0.213   4.835  0.0035  0.2587  0.0108
  521MOL0     C70246   1.351   0.281   5.270  0.5193 -0.5878 -0.9582
  521MOL0     C70247   1.480   0.323   5.272 -0.1559 -0.1306 -0.0565
  521MOL0     O70248   1.621   0.561   5.136  0.1256  0.2903  0.1098
  521MOL0     C70249   1.880   0.629   5.237  0.2745 -0.5555  0.5089
  521MOL0     C70250   2.012   0.688   5.245 -0.5818 -0.1807 -0.8944
  521MOL0     N70251   2.698   0.824   4.879  0.5872 -0.2925  0.2533
  521MOL0     N70252   2.774   0.762   4.799 -0.3366  0.1704  0.2842
  521MOL0     C70253   3.791   0.591   4.771 -0.1707  0.2105  0.2035
  521MOL0     C70254   3.898   0.623   4.851 -0.0929 -0.1336  0.9731
  521MOL0     C70255   4.290   0.710   5.059  0.4159  0.7792  0.2249
  521MOL0     C70256   4.390   0.745   4.971 -0.2935  0.5300 -0.3720
  521MOL0     C70257   4.515   0.790   5.008 -0.7459  0.5088  0.1220
  521MOL0     C70258   4.544   0.794   5.145 -0.9826  0.1803  0.1683
  521MOL0     O70259   4.670   0.841   5.179 -0.1913 -0.3791 -0.1684
  521MOL0     C70260   4.710   0.873   5.314  0.9028 -0.9815 -0.5206
  521MOL0     C70261   4.802   0.765   5.370  0.3365  0.8352 -0.4602
  521MOL0     C70262   4.808   0.797   5.523 -0.9358  0.0787  0.1149
  521MOL0     C70263   4.884   0.682   5.602 -0.8291  0.0395  0.5613
  521MOL0     C70264   4.804   0.566   5.610  0.5727  0.0633  0.2701
  521MOL0     C70265   4.738   0.467   5.624 -1.3040 -0.2511 -0.0876
  521MOL0     C70266   4.450   0.763   5.249  0.0517 -0.5104  0.5516
  521MOL0     C70267   4.317   0.729   5.196 -0.4277  0.2531 -0.0461
  521MOL0     H70268   4.164   0.568   4.639 -0.0070 -0.7493  0.6261
  521MOL0     H70269   3.945   0.528   4.486 -3.8165  0.0244  0.2738
  521MOL0     H70270   3.760   0.313   4.483 -3.0301 -2.4699 -0.3125
  521MOL0     H70271   3.738   0.325   4.658 -1.6134 -2.0725 -0.3510
  521MOL0     H70272   3.520   0.356   4.467 -0.2474 -0.8355 -0.9142
  521MOL0     H70273   3.565   0.202   4.552  1.4031  0.1769 -0.6661
  521MOL0     H70274   3.504   0.317   4.762 -0.4808 -0.7977  0.4475
  521MOL0     H70275   3.487   0.476   4.682  0.0517  0.5547 -2.4929
  521MOL0     H70276   3.290   0.394   4.555 -0.6576 -0.3413  0.3310
  521MOL0     H70277   3.301   0.242   4.652  3.3654 -1.6641 -0.5898
  521MOL0     H70278   3.265   0.346   4.861 -2.9762 -0.2352  0.0811
  521MOL0     H70279   3.296   0.504   4.779 -1.8390  2.0183 -3.5187
  521MOL0     H70280   3.090   0.476   4.638  1.7267  0.9654 -0.8131
  521MOL0     H70281   3.030   0.340   4.727  0.3528 -0.4862 -1.7021
  521MOL0     H70282   3.049   0.522   4.924 -0.1520 -0.7230  0.3926
  521MOL0     H70283   3.080   0.633   4.787  1.6278  0.1396  2.3208
  521MOL0     H70284   2.835   0.438   4.812  0.0276 -1.7740 -5.0122
  521MOL0     H70285   2.870   0.551   4.676  0.8800  0.7994 -0.1950
  521MOL0     H70286   2.779   0.574   5.070 -0.3164 -0.7398 -0.4106
  521MOL0     H70287   2.711   0.817   5.202  0.1796 -0.1777 -0.6424
  521MOL0     H70288   2.617   0.932   5.116  2.8448 -0.2043 -0.9686
  521MOL0     H70289   2.534   0.695   5.256  1.6439  0.3793 -0.2011
  521MOL0     H70290   2.475   0.686   5.084 -2.1902  1.4698 -1.5520
  521MOL0     H70291   2.379   0.919   5.114 -1.7241 -1.6314 -1.8396
  521MOL0     H70292   2.450   0.914   5.282  2.3771 -2.3912  0.4882
  521MOL0     H70293   2.198   0.880   5.234  0.3255 -0.5906  2.4941
  521MOL0     H70294   2.271   0.770   5.342 -2.5271 -0.6986 -0.8133
  521MOL0     H70295   2.163   0.513   4.996 -0.8166  0.2365 -0.8290
  521MOL0     H70296   2.007   0.397   4.865 -0.8790  2.6987 -2.4935
  521MOL0     H70297   1.909   0.286   4.969 -1.9743 -0.3124 -1.2366
  521MOL0     H70298   1.838   0.437   4.904  1.1979 -0.7685 -1.1634
  521MOL0     H70299   1.576   0.229   4.956 -0.1104 -1.4715  0.2006
  521MOL0     H70300   1.355   0.144   4.958  0.2893  0.8500 -0.1771
  521MOL0     H70301   1.149   0.119   4.956  1.1800  2.5937  1.3329
  521MOL0     H70302   1.201  -0.016   5.049  0.8414  0.6900 -0.9055
  521MOL0     H70303   0.974   0.012   5.192 -0.3763  1.1575  1.0915
  521MOL0     H70304   0.929   0.129   5.073 -1.0698 -1.3352 -3.3034
  521MOL0     H70305   0.973  -0.165   5.030  0.7662  1.0447  1.3271
  521MOL0     H70306   0.984  -0.066   4.891  3.2014 -0.7007  0.9966
  521MOL0     H70307   0.761  -0.112   5.084 -1.9148 -0.6370  0.1325
  521MOL0     H70308   0.737   0.018   4.966  1.6591 -0.5674  1.2038
  521MOL0     H70309   0.751  -0.281   4.896 -1.1914  0.5574  4.4130
  521MOL0     H70310   0.767  -0.153   4.784 -1.0125 -0.2440 -0.2087
  521MOL0     H70311   0.565  -0.044   4.843  0.7240 -1.0966 -2.4642
  521MOL0     H70312   0.541  -0.202   4.769  0.1047 -1.8749  0.0720
  521MOL0     H70313   0.440  -0.124   5.027  0.9819  0.4593 -0.5146
  521MOL0     H70314   0.554  -0.263   5.034  2.6016  1.1019 -1.8893
  521MOL0     H70315   0.330  -0.317   5.022  3.6108 -2.1461  1.3041
  521MOL0     H70316   0.422  -0.388   4.875  0.0046  1.5847 -2.1507
  521MOL0     H70317   1.293   0.307   5.358  1.4911  0.5094 -0.6092
  521MOL0     H70318   1.531   0.361   5.360 -0.2264 -0.3172  0.0658
  521MOL0     H70319   1.807   0.663   5.309 -1.4741 -1.1936 -0.8764
  521MOL0     H70320   2.025   0.763   5.323  2.0240  0.9835 -2.3246
  521MOL0     H70321   3.690   0.592   4.809 -0.0583 -3.2203  0.8888
  521MOL0     H70322   3.868   0.675   4.942 -1.3374  0.1701  0.4028
  521MOL0     H70323   4.361   0.741   4.867  2.1096 -1.0153 -1.0617
  521MOL0     H70324   4.595   0.829   4.946 -1.8151 -0.1989 -1.7970
  521MOL0     H70325   4.747   0.976   5.323 -1.0564 -0.1507 -1.4614
  521MOL0     H70326   4.621   0.892   5.375  0.5385 -2.2798 -0.6196
  521MOL0     H70327   4.902   0.772   5.326 -0.2430  0.7724 -1.8257
  521MOL0     H70328   4.763   0.666   5.346  1.7141  0.9185 -3.4556
  521MOL0     H70329   4.704   0.803   5.557 -1.2479  0.1174 -0.8150
  521MOL0     H70330   4.866   0.887   5.548  0.3354 -1.0207  1.3016
  521MOL0     H70331   4.895   0.709   5.708  1.1836 -2.4675  1.0825
  521MOL0     H70332   4.979   0.671   5.551 -1.7533 -1.8247 -0.8618
  521MOL0     H70333   4.691   0.371   5.619 -1.1409 -0.2915 -1.0800
  521MOL0     H70334   4.463   0.776   5.356  0.5912 -0.7039  0.5124
  521MOL0     H70335   4.244   0.717   5.275  1.0010 -1.4796  1.0952
  522MOL0     O70336   5.791   5.165   9.023  0.8190  0.0318 -0.6451
  522MOL0     C70337   5.853   5.218   9.114 -0.5145  0.2453  0.1697
  522MOL0     O70338   5.810   5.318   9.192 -0.0061 -0.1811 -0.0421
  522MOL0     C70339   5.683   5.355   9.168  1.0182 -0.1028 -0.1312
  522MOL0     C70340   5.571   5.306   9.243 -0.4781 -0.2222  0.4794
  522MOL0     C70341   5.440   5.345   9.215  0.1855 -0.1521  0.0534
  522MOL0     C70342   5.423   5.443   9.119 -0.1172  0.0383  0.3180
  522MOL0     O70343   5.290   5.460   9.083  0.2877 -0.2375  0.4150
  522MOL0     C70344   5.260   5.542   8.963 -0.1737  0.0424 -1.1137
  522MOL0     C70345   5.122   5.504   8.912 -0.3122  0.4770  0.0086
  522MOL0     C70346   5.120   5.363   8.841  1.0932 -0.2698 -0.0071
  522MOL0     C70347   5.099   5.249   8.930  0.8661 -0.4214  0.6579
  522MOL0     C70348   5.110   5.108   8.869 -0.6241  0.3743 -0.3548
  522MOL0     C70349   5.015   5.077   8.756  0.2434  0.9556 -0.6909
  522MOL0     C70350   4.870   5.062   8.795  0.7832  0.9767  0.8106
  522MOL0     C70351   4.786   4.997   8.680 -0.0464  0.2128 -0.0833
  522MOL0     N70352   4.667   4.938   8.730 -0.4716  0.4206  0.2843
  522MOL0     C70353   4.542   4.990   8.713  0.1900  0.2811 -0.0916
  522MOL0     C70354   4.467   4.916   8.795 -0.0374  0.2469 -0.1516
  522MOL0     C70355   4.313   4.902   8.797 -0.4714  0.1654  0.1616
  522MOL0     C70356   4.234   4.996   8.878  0.1701 -0.2269 -0.2942
  522MOL0     C70357   4.257   5.149   8.845 -0.0643 -0.8652  0.0410
  522MOL0     C70358   4.213   5.194   8.701  0.3377  0.0182  0.3622
  522MOL0     O70359   4.151   5.321   8.699 -0.2176 -1.0580 -0.9872
  522MOL0     C70360   4.015   5.318   8.694  0.4059  0.6260  0.4385
  522MOL0     C70361   3.944   5.328   8.578 -1.3181 -1.1812 -0.1378
  522MOL0     C70362   3.806   5.319   8.575 -0.0321 -0.4836  0.5021
  522MOL0     C70363   3.743   5.348   8.440 -0.3065  0.6309  1.2518
  522MOL0     C70364   3.730   5.291   8.698 -0.2776 -0.1898 -0.0007
  522MOL0     C70365   3.592   5.248   8.702  1.0475  0.4943 -0.0402
  522MOL0     O70366   3.545   5.196   8.820 -0.3432  0.6378  0.5211
  522MOL0     C70367   3.416   5.164   8.847 -0.3723  0.7616 -0.4331
  522MOL0     C70368   3.388   5.036   8.904  0.3946 -0.5679  0.3885
  522MOL0     C70369   3.252   5.001   8.939 -0.2472  0.1591  0.0051
  522MOL0     C70370   3.152   5.090   8.916  1.1087 -0.0557 -0.2561
  522MOL0     O70371   3.019   5.069   8.940  0.3683 -0.6540  0.0901
  522MOL0     C70372   2.956   4.945   8.970 -0.5562  0.3082 -0.2593
  522MOL0     C70373   2.823   4.956   9.044 -0.4597 -0.9225  0.1333
  522MOL0     C70374   2.726   5.061   8.979  0.1578  0.3239 -0.4320
  522MOL0     C70375   2.584   5.063   9.032 -0.3588 -0.0911 -0.0072
  522MOL0     C70376   2.507   5.173   8.957  0.4223  0.1368  0.0695
  522MOL0     C70377   2.358   5.168   8.995 -0.5306 -1.0633  0.6298
  522MOL0     C70378   2.320   5.181   9.147  0.1426 -0.4792  0.5030
  522MOL0     C70379   2.178   5.239   9.180 -0.1370  0.3913 -0.4881
  522MOL0    Cl70380   2.146   5.248   9.361  0.0145  0.3007 -0.3393
  522MOL0     C70381   3.177   5.214   8.851 -0.1137  0.4881 -0.7631
  522MOL0     C70382   3.308   5.251   8.819  0.0166  0.2709  0.4703
  522MOL0     O70383   3.520   5.260   8.603 -0.1664  0.2424  0.2156
  522MOL0     C70384   3.797   5.289   8.819 -0.3591 -0.4294  0.3853
  522MOL0     C70385   3.940   5.304   8.812 -0.5552 -0.1060 -0.7340
  522MOL0     N70386   4.547   4.815   8.852  0.2693 -0.4125 -0.2250
  522MOL0     N70387   4.671   4.825   8.813 -0.3796  0.1547  0.0364
  522MOL0     C70388   5.528   5.503   9.055  0.9285  0.0180 -0.1482
  522MOL0     C70389   5.658   5.454   9.069  0.3812  0.3373 -0.5951
  522MOL0     C70390   6.002   5.197   9.116  1.0554 -0.1592  0.6819
  522MOL0     C70391   6.066   5.139   9.006 -0.1572 -0.0409  0.4735
  522MOL0     C70392   6.207   5.131   9.007  0.2483  0.3451  0.3685
  522MOL0     C70393   6.280   5.157   9.121 -0.4063  0.2141 -0.6205
  522MOL0     O70394   6.408   5.113   9.132  0.1833 -0.6092  0.1989
  522MOL0     C70395   6.507   5.186   9.204 -1.2811  0.3218  0.0472
  522MOL0     C70396   6.651   5.178   9.143  0.2079  0.3892  1.2153
  522MOL0     C70397   6.692   5.035   9.132  0.4303  0.6597 -0.5604
  522MOL0     C70398   6.848   5.016   9.149  1.1867 -0.1951  0.0898
  522MOL0     C70399   6.929   5.069   9.037  0.0337 -0.9431  1.0921
  522MOL0     C70400   6.988   5.108   8.941  1.1210  0.3241 -0.7983
  522MOL0     C70401   6.218   5.200   9.233  0.2205  0.9189  0.2877
  522MOL0     C70402   6.085   5.236   9.226 -0.1351  1.4538 -1.7534
  522MOL0     H70403   5.616   5.240   9.317 -0.7451  1.1997  1.9759
  522MOL0     H70404   5.360   5.292   9.266  1.7544 -0.9280  1.8504
  522MOL0     H70405   5.257   5.650   8.983 -0.8212 -0.1751  0.0856
  522MOL0     H70406   5.331   5.522   8.883  1.6313  1.9813 -0.0988
  522MOL0     H70407   5.039   5.507   8.983 -0.4037  0.9052 -0.1133
  522MOL0     H70408   5.102   5.575   8.831  0.2373  1.6252  0.8439
  522MOL0     H70409   5.038   5.359   8.768 -0.4249  1.0974  1.5225
  522MOL0     H70410   5.208   5.357   8.777  1.4973 -0.5714  0.5646
  522MOL0     H70411   5.181   5.244   9.002  1.8519  0.2559 -0.3937
  522MOL0     H70412   5.007   5.260   8.988  1.5953 -0.5969  1.8986
  522MOL0     H70413   5.209   5.100   8.822 -0.6013  2.0407 -0.6824
  522MOL0     H70414   5.100   5.037   8.951  1.4593 -1.1386 -1.3284
  522MOL0     H70415   5.025   5.146   8.672  0.2141  0.9640 -0.6877
  522MOL0     H70416   5.057   4.986   8.712  2.7058  2.6308 -2.0688
  522MOL0     H70417   4.868   5.004   8.887  1.2503 -1.1265 -0.4456
  522MOL0     H70418   4.835   5.164   8.817  1.4433  1.2056  0.8405
  522MOL0     H70419   4.845   4.913   8.641 -3.0355 -1.4799 -1.2969
  522MOL0     H70420   4.756   5.062   8.597 -1.2454 -0.7936 -0.4620
  522MOL0     H70421   4.506   5.063   8.642 -1.1091  0.6410  0.8959
  522MOL0     H70422   4.273   4.897   8.695  0.2983  3.6480 -0.4211
  522MOL0     H70423   4.284   4.810   8.850 -2.2446  1.4716  1.5962
  522MOL0     H70424   4.265   4.972   8.980 -0.1953 -0.7383 -0.2962
  522MOL0     H70425   4.126   4.979   8.880 -0.1474  1.4212  3.0192
  522MOL0     H70426   4.361   5.181   8.847 -1.1355  3.1639  0.8341
  522MOL0     H70427   4.210   5.215   8.918  2.7193  1.6171 -0.1974
  522MOL0     H70428   4.151   5.117   8.654  0.5292  0.0852 -0.0022
  522MOL0     H70429   4.302   5.195   8.638  0.3977  3.1803  0.3556
  522MOL0     H70430   3.998   5.355   8.488  0.1183  1.6691  1.4486
  522MOL0     H70431   3.667   5.277   8.407 -0.2187  0.5565  1.2075
  522MOL0     H70432   3.672   5.429   8.461 -2.4661 -1.2516  1.7080
  522MOL0     H70433   3.817   5.348   8.360 -0.8261 -1.7519  0.6710
  522MOL0     H70434   3.466   4.962   8.919 -0.3143 -1.0262  2.1810
  522MOL0     H70435   3.240   4.903   8.984 -0.0322  0.7025  1.3065
  522MOL0     H70436   2.944   4.884   8.880 -0.4280 -2.1972  1.3148
  522MOL0     H70437   3.024   4.887   9.034  3.1340  2.5035 -1.8757
  522MOL0     H70438   2.781   4.855   9.051 -0.8864 -1.0738 -3.0439
  522MOL0     H70439   2.838   4.990   9.146  0.5623  0.4739 -0.4518
  522MOL0     H70440   2.733   5.058   8.870  1.6841 -2.9194 -0.3602
  522MOL0     H70441   2.774   5.156   9.003 -0.5320  0.7237 -0.6088
  522MOL0     H70442   2.541   4.964   9.013  2.5164 -0.7783 -4.4276
  522MOL0     H70443   2.602   5.088   9.137  1.4204  1.2675 -0.6016
  522MOL0     H70444   2.523   5.157   8.850  2.3719 -1.4723  0.5564
  522MOL0     H70445   2.546   5.273   8.978 -0.4909  0.1217  2.1103
  522MOL0     H70446   2.325   5.258   8.941  1.6947 -0.6545 -0.1523
  522MOL0     H70447   2.323   5.077   8.946  0.4159 -0.7865 -0.5880
  522MOL0     H70448   2.399   5.247   9.186  0.4251  0.0175 -0.8470
  522MOL0     H70449   2.319   5.078   9.184  3.5762 -1.3248 -1.2664
  522MOL0     H70450   2.103   5.181   9.124 -0.0820  1.1003 -1.3179
  522MOL0     H70451   2.173   5.341   9.142 -1.3343  0.8466  0.8282
  522MOL0     H70452   3.095   5.280   8.823 -1.4574 -0.6417  0.3068
  522MOL0     H70453   3.338   5.345   8.773  2.0970 -0.2183  0.6949
  522MOL0     H70454   3.755   5.281   8.919  1.3159  0.6104  1.2223
  522MOL0     H70455   4.000   5.295   8.902  0.7777 -0.9522 -1.6709
  522MOL0     H70456   5.500   5.588   8.995 -1.7278  0.9304  2.1513
  522MOL0     H70457   5.742   5.507   9.026  0.0263  3.0371  1.7631
  522MOL0     H70458   6.005   5.116   8.920 -2.4417  2.0434  1.4224
  522MOL0     H70459   6.252   5.080   8.923  2.1036 -0.4352  1.7616
  522MOL0     H70460   6.483   5.292   9.223 -2.7698 -0.2302  1.5502
  522MOL0     H70461   6.512   5.137   9.302 -2.5065 -0.4540 -0.2630
  522MOL0     H70462   6.722   5.229   9.209  0.4684  0.7770  0.6479
  522MOL0     H70463   6.654   5.230   9.047  0.7069 -0.0556  0.9883
  522MOL0     H70464   6.651   4.994   9.040  1.4222  2.2609 -1.7841
  522MOL0     H70465   6.650   4.976   9.214 -2.2655  0.8027 -1.7475
  522MOL0     H70466   6.862   4.908   9.148 -0.6706 -0.4772  0.6259
  522MOL0     H70467   6.883   5.066   9.239 -0.9258  4.8508 -1.4840
  522MOL0     H70468   7.032   5.153   8.855  2.6698  0.7268  0.1530
  522MOL0     H70469   6.285   5.215   9.316 -1.1052 -0.0397  1.5756
  522MOL0     H70470   6.044   5.284   9.314  0.0460 -1.9263  0.3542
  523MOL0     O70471   3.353  11.138   7.077 -0.6412 -0.3987 -0.3611
  523MOL0     C70472   3.350  11.144   7.197 -0.2199 -0.1404 -0.1284
  523MOL0     O70473   3.253  11.184   7.272  0.7082 -0.2087 -0.3896
  523MOL0     C70474   3.124  11.201   7.223 -0.2042  0.0915 -0.0903
  523MOL0     C70475   3.062  11.138   7.111  0.6269 -0.9325 -0.6728
  523MOL0     C70476   2.929  11.157   7.073 -1.0417 -0.4628 -0.7208
  523MOL0     C70477   2.855  11.258   7.134 -0.9223  0.1004 -0.3045
  523MOL0     O70478   2.730  11.303   7.096 -0.4264 -0.0425 -0.7365
  523MOL0     C70479   2.660  11.233   6.989  0.2151  0.2188  0.6105
  523MOL0     C70480   2.513  11.278   6.982 -0.0819  0.1441 -0.5834
  523MOL0     C70481   2.430  11.250   7.107  0.1199 -0.0490  0.0591
  523MOL0     C70482   2.425  11.099   7.139  0.5632 -1.0202  0.2706
  523MOL0     C70483   2.289  11.055   7.191  0.4454 -0.3903  0.2169
  523MOL0     C70484   2.186  11.029   7.081  0.1533  0.2246 -0.6456
  523MOL0     C70485   2.054  10.971   7.136 -0.5000  0.1292  0.7639
  523MOL0     C70486   1.947  10.955   7.024  0.1575  0.2122 -0.0767
  523MOL0     N70487   1.807  10.914   7.067 -0.0260 -0.1434 -0.0735
  523MOL0     C70488   1.733  10.974   7.167 -0.0361 -0.8153 -0.6430
  523MOL0     C70489   1.604  10.956   7.136  0.1499 -0.7380 -0.2848
  523MOL0     C70490   1.478  11.006   7.205 -0.0838  0.0194  0.0100
  523MOL0     C70491   1.348  10.930   7.174 -0.6246 -0.0089 -0.0793
  523MOL0     C70492   1.239  10.997   7.257 -0.1138 -0.3942 -0.0839
  523MOL0     C70493   1.101  10.932   7.232  0.2869 -0.4059  0.4983
  523MOL0     O70494   1.011  10.991   7.330 -0.4328  0.2482 -0.2867
  523MOL0     C70495   0.885  11.017   7.299  0.3892  0.2536  0.8755
  523MOL0     C70496   0.818  10.969   7.176 -0.1177 -0.3501  0.6515
  523MOL0     C70497   0.684  10.991   7.151  0.6849 -0.5507 -1.0259
  523MOL0     C70498   0.623  10.907   7.044  0.4314  0.0679  0.6708
  523MOL0     C70499   0.600  11.060   7.241 -0.3084  0.2571  0.4189
  523MOL0     C70500   0.453  11.080   7.239  0.0360  0.0838 -0.3982
  523MOL0     O70501   0.407  11.191   7.314 -0.4321  0.0193  0.5593
  523MOL0     C70502   0.273  11.225   7.319 -0.0823  0.2359  0.7182
  523MOL0     C70503   0.197  11.235   7.197 -0.4804  1.3616 -0.3845
  523MOL0     C70504   0.062  11.276   7.207 -0.5460  0.1619  0.5284
  523MOL0     C70505  -0.001  11.313   7.330  0.3485 -0.2158 -0.6383
  523MOL0     O70506  -0.135  11.364   7.318  0.0338  0.8096  0.2205
  523MOL0     C70507  -0.213  11.329   7.428  0.4957 -0.0367 -0.2300
  523MOL0     C70508  -0.347  11.286   7.388  0.2863  1.0794 -0.7044
  523MOL0     C70509  -0.419  11.396   7.312  0.1342  0.4888 -0.5929
  523MOL0     C70510  -0.574  11.359   7.303 -0.1567 -0.6026 -0.3377
  523MOL0     C70511  -0.654  11.481   7.248 -0.1309  0.5835 -0.0624
  523MOL0     C70512  -0.807  11.445   7.249 -0.7646 -0.0526  0.1190
  523MOL0     C70513  -0.885  11.576   7.255 -0.1109  0.1667  0.7294
  523MOL0     C70514  -1.035  11.561   7.232  0.3182 -0.0434  0.2889
  523MOL0    Cl70515  -1.100  11.731   7.242  0.1100 -0.1601  0.0020
  523MOL0     C70516   0.078  11.310   7.449  0.3183  0.5367  0.2749
  523MOL0     C70517   0.213  11.259   7.446 -1.0979 -0.3470  0.9540
  523MOL0     O70518   0.379  11.009   7.169  0.2526 -0.5610  0.1564
  523MOL0     C70519   0.667  11.105   7.351 -0.6096  0.5332 -0.3114
  523MOL0     C70520   0.808  11.090   7.384  0.1237 -0.4970  0.6631
  523MOL0     N70521   1.609  10.915   7.007 -0.2872  0.4422 -1.0156
  523MOL0     N70522   1.725  10.876   6.964 -0.1315 -0.3008 -1.3151
  523MOL0     C70523   2.913  11.311   7.243 -1.1399 -0.4414 -0.5038
  523MOL0     C70524   3.042  11.288   7.280  0.3957  0.4380 -0.3521
  523MOL0     C70525   3.481  11.117   7.267  0.2110  0.2185  0.0235
  523MOL0     C70526   3.606  11.120   7.195 -0.2964  0.0521  0.3213
  523MOL0     C70527   3.728  11.105   7.255  0.1226 -0.7209  0.4274
  523MOL0     C70528   3.730  11.077   7.393 -1.0827  0.3098  0.6427
  523MOL0     O70529   3.852  11.049   7.444 -0.4845 -0.1309  0.5872
  523MOL0     C70530   3.847  10.943   7.537 -0.0724  0.4325  0.2877
  523MOL0     C70531   3.991  10.897   7.548 -0.2624  0.0431 -0.1030
  523MOL0     C70532   4.001  10.782   7.651 -0.3517  1.0047 -0.1212
  523MOL0     C70533   4.150  10.745   7.685 -0.2748  0.2459  0.1935
  523MOL0     C70534   4.151  10.616   7.756  0.9610 -0.6711 -0.3192
  523MOL0     C70535   4.163  10.515   7.816 -0.6319  1.0150  0.2446
  523MOL0     C70536   3.614  11.075   7.461  0.3034 -0.2450  0.1198
  523MOL0     C70537   3.486  11.093   7.407 -0.2654 -0.1070  0.0423
  523MOL0     H70538   3.127  11.079   7.047  2.9608 -0.2387  0.9323
  523MOL0     H70539   2.893  11.122   6.977 -1.1470  2.3591 -1.8160
  523MOL0     H70540   2.706  11.276   6.899 -1.1045  1.4987  0.4956
  523MOL0     H70541   2.678  11.125   6.985 -0.5741  0.0652  1.0131
  523MOL0     H70542   2.507  11.387   6.971 -0.4275 -0.0475 -2.7954
  523MOL0     H70543   2.461  11.232   6.898 -1.6705  0.6074  0.1220
  523MOL0     H70544   2.468  11.299   7.197 -0.1632  0.4587 -0.0910
  523MOL0     H70545   2.328  11.283   7.084  0.7489  1.9230 -0.0795
  523MOL0     H70546   2.444  11.031   7.056 -1.1964 -1.4035  0.1398
  523MOL0     H70547   2.500  11.084   7.217 -0.3799 -0.7512  1.2632
  523MOL0     H70548   2.311  10.970   7.257  0.6523  1.6257  2.9556
  523MOL0     H70549   2.245  11.131   7.257 -0.2786 -1.2371  0.7444
  523MOL0     H70550   2.172  11.119   7.021  1.6453  2.2048  1.7304
  523MOL0     H70551   2.220  10.953   7.011 -1.7640  2.4125 -4.2144
  523MOL0     H70552   2.084  10.878   7.185  4.9423  0.9753 -0.3605
  523MOL0     H70553   2.011  11.034   7.215  3.7215  0.3563  3.2031
  523MOL0     H70554   1.981  10.870   6.965 -1.5740 -0.1454 -0.6082
  523MOL0     H70555   1.940  11.049   6.969 -1.4946 -0.2256 -0.6745
  523MOL0     H70556   1.770  11.012   7.262 -1.1103 -3.8127  1.1080
  523MOL0     H70557   1.491  11.008   7.314 -0.3371  0.6853  0.0286
  523MOL0     H70558   1.476  11.109   7.170  0.8691  0.0223 -0.0636
  523MOL0     H70559   1.370  10.827   7.202  0.3974 -0.0843 -1.0803
  523MOL0     H70560   1.338  10.943   7.066  0.1905  0.4515 -0.1084
  523MOL0     H70561   1.223  11.103   7.235  0.9601 -0.1813  0.1095
  523MOL0     H70562   1.267  10.993   7.363  2.6472  0.0733 -0.7341
  523MOL0     H70563   1.105  10.824   7.243  1.7094 -0.5693 -1.2269
  523MOL0     H70564   1.077  10.948   7.126 -0.2416 -0.7095  0.5691
  523MOL0     H70565   0.870  10.920   7.094 -2.1444  0.5147 -1.2641
  523MOL0     H70566   0.577  10.975   6.972  0.7891  2.3529  2.4488
  523MOL0     H70567   0.698  10.848   6.990  0.7670  1.4122 -0.4127
  523MOL0     H70568   0.545  10.846   7.089 -2.8899  1.5632 -2.5253
  523MOL0     H70569   0.233  11.207   7.099 -1.3668 -4.4849  0.5952
  523MOL0     H70570   0.003  11.282   7.116  1.2926  0.1149 -0.7219
  523MOL0     H70571  -0.168  11.244   7.481 -1.8320  0.2735  2.5307
  523MOL0     H70572  -0.230  11.414   7.494 -1.7699 -0.4967 -0.1370
  523MOL0     H70573  -0.334  11.198   7.325  3.9579 -1.2525  2.8586
  523MOL0     H70574  -0.396  11.259   7.483  3.5385  0.8102  1.0422
  523MOL0     H70575  -0.376  11.401   7.212  0.7612 -1.9367 -0.5228
  523MOL0     H70576  -0.409  11.491   7.365  0.9014  0.4655 -0.6839
  523MOL0     H70577  -0.593  11.272   7.239 -0.2474 -1.8533  1.3288
  523MOL0     H70578  -0.606  11.343   7.406 -1.2042  1.6283 -0.2585
  523MOL0     H70579  -0.617  11.494   7.146  0.9114 -1.8644 -0.0472
  523MOL0     H70580  -0.651  11.574   7.305 -1.8418 -1.1279  3.1247
  523MOL0     H70581  -0.842  11.372   7.175 -1.6904 -0.8785  1.3362
  523MOL0     H70582  -0.839  11.391   7.339 -2.6807  0.8703  0.0426
  523MOL0     H70583  -0.848  11.653   7.187  0.1262 -0.2603  0.3699
  523MOL0     H70584  -0.871  11.622   7.354 -2.4967  3.0299 -0.1262
  523MOL0     H70585  -1.070  11.492   7.309  2.4897  0.0033  1.3925
  523MOL0     H70586  -1.053  11.519   7.133 -1.0550 -1.2071  0.9931
  523MOL0     H70587   0.030  11.345   7.540 -2.3411 -0.5127 -0.6468
  523MOL0     H70588   0.271  11.257   7.537 -0.8898  2.8825  1.0227
  523MOL0     H70589   0.612  11.161   7.426 -1.8239 -1.1164  0.1132
  523MOL0     H70590   0.862  11.120   7.473  1.5168  0.6074 -0.4996
  523MOL0     H70591   2.851  11.377   7.303 -1.4071 -2.1214  1.1737
  523MOL0     H70592   3.084  11.341   7.365  0.9223 -1.2630  0.4753
  523MOL0     H70593   3.614  11.116   7.086 -2.7102 -0.2501  0.1020
  523MOL0     H70594   3.828  11.099   7.212  2.6460  0.9801  5.2629
  523MOL0     H70595   3.806  10.987   7.628  2.6920  2.5426  0.6477
  523MOL0     H70596   3.778  10.870   7.495 -0.8658  0.4616  1.5088
  523MOL0     H70597   4.062  10.976   7.574 -0.3480  0.5740 -1.3947
  523MOL0     H70598   4.027  10.859   7.452  0.1489  2.2856 -0.8889
  523MOL0     H70599   3.951  10.695   7.608  1.0761  0.3696 -0.5138
  523MOL0     H70600   3.955  10.822   7.742  0.2978 -0.4524  0.8895
  523MOL0     H70601   4.193  10.821   7.751  2.4587  0.2495 -1.4496
  523MOL0     H70602   4.217  10.743   7.599 -1.8373  3.1273 -1.2211
  523MOL0     H70603   4.190  10.423   7.864  4.9848  1.4103 -1.4828
  523MOL0     H70604   3.616  11.080   7.569  2.1055  0.4124  0.0960
  523MOL0     H70605   3.399  11.102   7.472  0.5031  1.4345  0.9128
  524MOL0     O70606   2.188   2.569   9.713  0.0149 -0.0188  0.2286
  524MOL0     C70607   2.237   2.658   9.645 -1.1258 -1.0197 -0.0747
  524MOL0     O70608   2.181   2.776   9.618  0.7287 -0.1167  0.2794
  524MOL0     C70609   2.054   2.819   9.643  0.5454 -1.5299  0.1883
  524MOL0     C70610   1.999   2.927   9.581 -0.3304  0.4583  0.4825
  524MOL0     C70611   1.863   2.961   9.609 -0.1759 -0.4171 -0.2915
  524MOL0     C70612   1.790   2.897   9.709 -0.2999  0.6231 -0.7016
  524MOL0     O70613   1.660   2.944   9.729  0.2122 -0.4375 -0.4669
  524MOL0     C70614   1.570   2.847   9.789 -0.2863 -0.8473  0.3734
  524MOL0     C70615   1.430   2.909   9.795  0.8464  0.1513 -0.2185
  524MOL0     C70616   1.319   2.811   9.841 -0.4208 -0.5777 -0.0897
  524MOL0     C70617   1.172   2.843   9.800 -0.4665 -0.4526 -0.7683
  524MOL0     C70618   1.095   2.907   9.911  0.5499 -0.4306 -0.5710
  524MOL0     C70619   0.959   2.958   9.855 -0.9365 -0.1957  0.4186
  524MOL0     C70620   0.843   2.864   9.869  0.8182  0.1003  0.4040
  524MOL0     C70621   0.793   2.862  10.012 -0.2550  0.3215 -0.0401
  524MOL0     N70622   0.652   2.819  10.019 -0.1848  0.3612  0.4043
  524MOL0     C70623   0.534   2.884  10.002 -0.1961  0.1404 -0.1591
  524MOL0     C70624   0.449   2.774  10.005  0.2289 -0.2681 -0.1955
  524MOL0     C70625   0.300   2.775   9.997  0.4598  0.8715 -1.1296
  524MOL0     C70626   0.252   2.907  10.069  0.8793  0.5715 -0.0105
  524MOL0     C70627   0.102   2.917  10.072 -0.5785  0.1584  1.3927
  524MOL0     C70628   0.020   2.849  10.176  0.0159  0.3016  0.7133
  524MOL0     O70629  -0.109   2.840  10.127 -0.2994  0.3837 -0.0355
  524MOL0     C70630  -0.216   2.924  10.158  0.0274 -0.2894  0.0563
  524MOL0     C70631  -0.196   3.051  10.209  0.6062  0.3397 -0.7230
  524MOL0     C70632  -0.298   3.125  10.257  0.2139  0.0062  0.1341
  524MOL0     C70633  -0.256   3.254  10.325 -0.2743 -0.4824  0.2095
  524MOL0     C70634  -0.431   3.090  10.220 -0.0201 -0.4812  0.0283
  524MOL0     C70635  -0.548   3.178  10.236 -0.0468 -0.0537 -0.4562
  524MOL0     O70636  -0.554   3.250  10.347 -0.1080  0.7915  0.5251
  524MOL0     C70637  -0.679   3.299  10.377 -0.6242  0.2919 -0.7437
  524MOL0     C70638  -0.791   3.222  10.373  0.2428  0.7146 -0.0614
  524MOL0     C70639  -0.922   3.271  10.394  1.0401  0.0089  0.8782
  524MOL0     C70640  -0.929   3.408  10.419 -0.7916  1.0132 -0.0749
  524MOL0     O70641  -1.042   3.472  10.446 -0.2435  1.2821  0.0907
  524MOL0     C70642  -1.136   3.495  10.339  0.4446  0.4478 -0.1578
  524MOL0     C70643  -1.227   3.615  10.384 -0.5265 -1.0642 -0.2006
  524MOL0     C70644  -1.343   3.644  10.296  0.3562  0.0965  1.4576
  524MOL0     C70645  -1.305   3.676  10.151 -0.3344  0.5421 -0.3515
  524MOL0     C70646  -1.408   3.765  10.075  0.0283  0.0510  0.2694
  524MOL0     C70647  -1.357   3.827   9.942  0.0240  0.0147  0.1430
  524MOL0     C70648  -1.281   3.955   9.972 -0.4052  0.0222  0.4154
  524MOL0     C70649  -1.179   3.993   9.866  0.3312 -0.0567  0.1576
  524MOL0    Cl70650  -1.262   4.017   9.708  0.0637  0.0821  0.0360
  524MOL0     C70651  -0.808   3.489  10.429 -0.4768 -0.1307  0.2817
  524MOL0     C70652  -0.682   3.426  10.419  0.7351  0.0098 -0.1316
  524MOL0     O70653  -0.631   3.175  10.148 -1.1809 -0.4300  0.7539
  524MOL0     C70654  -0.456   2.969  10.160 -0.4905 -0.3206 -0.0574
  524MOL0     C70655  -0.347   2.880  10.134 -0.1440 -0.3565  0.2919
  524MOL0     N70656   0.513   2.658  10.031 -0.1152  0.0177  0.0805
  524MOL0     N70657   0.638   2.685  10.040 -0.9340  0.0841  0.6071
  524MOL0     C70658   1.850   2.797   9.781 -0.1591 -0.5414 -0.1325
  524MOL0     C70659   1.980   2.761   9.747  0.3429  0.6625 -0.6185
  524MOL0     C70660   2.378   2.638   9.596  0.2435  0.2056 -1.3015
  524MOL0     C70661   2.449   2.525   9.636  0.1407 -0.3298  0.2746
  524MOL0     C70662   2.581   2.509   9.595  0.4057 -0.2770 -0.9611
  524MOL0     C70663   2.643   2.600   9.512 -0.2958  0.1813  0.9077
  524MOL0     O70664   2.765   2.576   9.452 -0.1371 -0.1480 -0.1811
  524MOL0     C70665   2.791   2.441   9.401  0.5380  0.3572  0.0791
  524MOL0     C70666   2.934   2.410   9.376 -0.1840 -0.2405  0.2077
  524MOL0     C70667   3.026   2.382   9.495 -0.0424  0.7070  0.3400
  524MOL0     C70668   3.150   2.303   9.469  0.2938 -0.2228 -0.5743
  524MOL0     C70669   3.213   2.279   9.599  0.3452 -0.0545  0.0407
  524MOL0     C70670   3.279   2.252   9.701 -0.4716  1.0292 -0.0211
  524MOL0     C70671   2.576   2.720   9.484 -0.0255  0.5972  0.8063
  524MOL0     C70672   2.445   2.735   9.524 -1.0427 -0.2311  0.7449
  524MOL0     H70673   2.048   2.991   9.509  0.1567  0.2487  0.6205
  524MOL0     H70674   1.802   3.042   9.570 -1.2422 -0.4212  1.2766
  524MOL0     H70675   1.581   2.756   9.728 -2.0547 -1.4328  0.8629
  524MOL0     H70676   1.604   2.822   9.890  1.3688  1.7504  0.5533
  524MOL0     H70677   1.421   2.999   9.856 -3.2394  0.3205 -0.7868
  524MOL0     H70678   1.413   2.942   9.692 -0.8943  0.1493  0.0260
  524MOL0     H70679   1.352   2.716   9.799 -1.1265 -0.6269 -0.5537
  524MOL0     H70680   1.328   2.804   9.950 -1.2757  0.5956  0.0794
  524MOL0     H70681   1.189   2.916   9.721  2.1002 -2.5475 -2.3146
  524MOL0     H70682   1.124   2.752   9.762 -3.1329  0.4171  0.3085
  524MOL0     H70683   1.066   2.840   9.992  0.9415 -0.7502 -0.6959
  524MOL0     H70684   1.134   2.994   9.965 -2.3561  0.4305  0.3102
  524MOL0     H70685   0.932   3.052   9.905 -1.6657  1.3379 -2.6406
  524MOL0     H70686   0.979   2.993   9.753  0.0571  1.9372  1.2780
  524MOL0     H70687   0.762   2.898   9.804  1.7708  0.5954 -0.5445
  524MOL0     H70688   0.867   2.761   9.840 -1.1663 -0.1560 -0.5140
  524MOL0     H70689   0.810   2.958  10.062 -0.0338  0.6733 -0.7770
  524MOL0     H70690   0.853   2.788  10.066 -0.7348  2.0340  3.1075
  524MOL0     H70691   0.523   2.990   9.982  0.6902  0.1304 -0.7552
  524MOL0     H70692   0.263   2.774   9.894  1.7654  0.8707 -1.6102
  524MOL0     H70693   0.266   2.688  10.053  1.3135  1.6339  0.6557
  524MOL0     H70694   0.289   2.983  10.000  1.0815  0.0288 -0.5106
  524MOL0     H70695   0.296   2.927  10.167  1.4150  0.4898 -0.2305
  524MOL0     H70696   0.079   2.875   9.974  1.6385  1.7225  0.0997
  524MOL0     H70697   0.068   3.021  10.063 -0.8573 -0.1153 -1.3172
  524MOL0     H70698   0.020   2.905  10.270  0.4139 -0.9710  1.4969
  524MOL0     H70699   0.071   2.753  10.188 -0.5765 -0.4593 -1.9942
  524MOL0     H70700  -0.092   3.083  10.212  0.9259 -0.5442 -1.7918
  524MOL0     H70701  -0.147   3.251  10.318 -0.2402 -2.8261  0.6580
  524MOL0     H70702  -0.295   3.344  10.277 -2.0335 -1.1847  0.2415
  524MOL0     H70703  -0.292   3.247  10.428  0.5730 -2.3272  0.4267
  524MOL0     H70704  -0.778   3.117  10.348 -1.4774  0.4722 -0.0717
  524MOL0     H70705  -1.011   3.213  10.377  0.8875  0.1313  1.2471
  524MOL0     H70706  -1.083   3.526  10.249  0.6186 -0.7125 -0.4723
  524MOL0     H70707  -1.187   3.402  10.314  0.6261  0.4652 -0.5918
  524MOL0     H70708  -1.265   3.592  10.484 -0.1772  1.7688  0.6686
  524MOL0     H70709  -1.158   3.699  10.398  3.3056 -4.1817  1.8782
  524MOL0     H70710  -1.401   3.726  10.340 -2.0551 -0.1782 -0.9426
  524MOL0     H70711  -1.411   3.559  10.287 -1.6072  1.8139 -2.8661
  524MOL0     H70712  -1.210   3.730  10.140 -0.3238  0.6549  0.2601
  524MOL0     H70713  -1.302   3.580  10.099 -0.6712  1.1184 -1.4774
  524MOL0     H70714  -1.436   3.850  10.139 -0.4014  1.3393 -1.5715
  524MOL0     H70715  -1.504   3.718  10.053 -0.8903  0.7923  2.4159
  524MOL0     H70716  -1.293   3.752   9.893  2.0813  0.3319  2.1711
  524MOL0     H70717  -1.442   3.845   9.876 -0.2387  0.9261  0.7195
  524MOL0     H70718  -1.225   3.950  10.066  1.1838  2.9648 -0.2589
  524MOL0     H70719  -1.353   4.036   9.984  1.3222  1.5043  1.2327
  524MOL0     H70720  -1.109   3.909   9.860 -0.9887 -1.3452  1.8677
  524MOL0     H70721  -1.121   4.082   9.891  2.6204 -0.2434 -3.6194
  524MOL0     H70722  -0.833   3.591  10.454 -0.2135 -0.5611  2.4742
  524MOL0     H70723  -0.590   3.482  10.421  0.1205  1.1273 -1.6653
  524MOL0     H70724  -0.561   2.944  10.147 -1.1105  2.1649 -0.4570
  524MOL0     H70725  -0.364   2.786  10.083 -1.6861  1.0670 -2.0078
  524MOL0     H70726   1.803   2.734   9.855 -1.5034 -1.3706 -1.6472
  524MOL0     H70727   2.022   2.681   9.807  1.8872  2.2468  0.5080
  524MOL0     H70728   2.405   2.451   9.701  0.6147 -0.7317  0.1534
  524MOL0     H70729   2.629   2.414   9.618  0.0296 -0.1745  0.3127
  524MOL0     H70730   2.757   2.363   9.469  1.8922  0.0858  0.4676
  524MOL0     H70731   2.729   2.424   9.312  0.7526  0.2865 -0.0555
  524MOL0     H70732   2.976   2.493   9.319 -0.5040 -1.6713 -2.2182
  524MOL0     H70733   2.926   2.316   9.321 -0.1390 -0.0957 -0.0458
  524MOL0     H70734   2.967   2.322   9.565  0.0017 -0.2976 -0.4592
  524MOL0     H70735   3.052   2.478   9.540 -3.1601  1.0418  1.6986
  524MOL0     H70736   3.197   2.370   9.396 -2.6725  3.1710  0.3533
  524MOL0     H70737   3.133   2.204   9.425  0.1724  0.7124 -2.7365
  524MOL0     H70738   3.324   2.225   9.795 -0.6888  2.2364  0.4513
  524MOL0     H70739   2.633   2.796   9.431  0.9704 -1.0342 -0.5683
  524MOL0     H70740   2.390   2.825   9.497  1.1375  0.9263 -0.1059
  525MOL0     O70741   5.884   4.911   2.908  1.3140 -0.0618 -0.3316
  525MOL0     C70742   5.921   4.937   2.789 -0.2646 -0.3579 -0.0420
  525MOL0     O70743   5.870   4.891   2.671  0.6554 -0.3035 -0.5380
  525MOL0     C70744   5.762   4.806   2.683 -0.0248  0.4625  0.2565
  525MOL0     C70745   5.639   4.847   2.641 -0.2335 -0.6851  0.3678
  525MOL0     C70746   5.528   4.761   2.647 -0.0549 -0.7982  0.2244
  525MOL0     C70747   5.545   4.629   2.695 -0.8629 -0.1178 -0.8604
  525MOL0     O70748   5.449   4.532   2.702 -0.2073 -0.2151 -0.3316
  525MOL0     C70749   5.313   4.583   2.724  0.2525 -0.1751 -0.3373
  525MOL0     C70750   5.257   4.471   2.808  0.3856  0.1675 -0.2446
  525MOL0     C70751   5.113   4.490   2.859 -0.2055 -0.0540  0.5092
  525MOL0     C70752   5.012   4.510   2.748 -0.0252  0.5646  0.1381
  525MOL0     C70753   4.869   4.455   2.768 -0.3910  0.0117  0.2344
  525MOL0     C70754   4.798   4.545   2.870  0.2315 -0.6156  0.2057
  525MOL0     C70755   4.650   4.488   2.880 -0.1958 -0.5416  0.3133
  525MOL0     C70756   4.642   4.380   2.980  0.7831  0.0558  0.8148
  525MOL0     N70757   4.512   4.308   2.977  0.0220  0.7680  0.6835
  525MOL0     C70758   4.472   4.204   3.050 -0.4794 -0.2099 -0.3684
  525MOL0     C70759   4.343   4.172   3.015 -0.4843 -0.0632 -0.3760
  525MOL0     C70760   4.270   4.053   3.082 -1.3806 -0.7304  0.6712
  525MOL0     C70761   4.198   4.109   3.203 -0.2369 -0.3116 -0.3665
  525MOL0     C70762   4.062   4.161   3.155  0.6272 -0.9987  0.3414
  525MOL0     C70763   4.021   4.285   3.243 -1.2519  1.6654  0.6755
  525MOL0     O70764   3.885   4.293   3.205  0.1206 -0.0617 -0.5159
  525MOL0     C70765   3.788   4.279   3.304  0.5148  0.7525  0.2453
  525MOL0     C70766   3.666   4.228   3.263 -0.1066  0.6312 -0.0083
  525MOL0     C70767   3.566   4.191   3.360 -0.4269 -0.0287  0.3806
  525MOL0     C70768   3.444   4.116   3.304 -0.5410 -0.1081 -0.5880
  525MOL0     C70769   3.581   4.227   3.503  0.7019  0.4501  0.4022
  525MOL0     C70770   3.481   4.210   3.616 -0.2769 -0.0975  0.5332
  525MOL0     O70771   3.372   4.139   3.580 -0.0159  0.4395 -0.2068
  525MOL0     C70772   3.263   4.152   3.658  0.6644 -0.3575  0.2750
  525MOL0     C70773   3.160   4.234   3.614 -0.2699 -0.8728 -0.2263
  525MOL0     C70774   3.045   4.239   3.692  0.5720  0.4911 -1.0954
  525MOL0     C70775   3.032   4.166   3.805  0.5863  0.4412  0.3001
  525MOL0     O70776   2.922   4.195   3.877 -0.3672 -0.7418  0.3675
  525MOL0     C70777   2.867   4.092   3.959  0.4361  0.1194  0.0821
  525MOL0     C70778   2.711   4.102   3.960  0.3142  0.5653 -0.0102
  525MOL0     C70779   2.658   4.241   4.000 -0.2110 -1.1372  0.7793
  525MOL0     C70780   2.504   4.259   3.983 -0.4196  0.0401 -0.1676
  525MOL0     C70781   2.470   4.387   4.065  0.1520  0.2985  0.3197
  525MOL0     C70782   2.325   4.427   4.069  1.3203 -0.2341  0.6014
  525MOL0     C70783   2.306   4.551   4.153  0.1773  0.0823  0.5255
  525MOL0     C70784   2.157   4.554   4.200  0.5247 -0.1449  0.1446
  525MOL0    Cl70785   2.139   4.450   4.339  0.3320 -0.2230  0.1447
  525MOL0     C70786   3.134   4.078   3.849  0.5113  0.2704 -0.3190
  525MOL0     C70787   3.254   4.071   3.777 -0.3529 -1.2677  0.0528
  525MOL0     O70788   3.502   4.274   3.717  0.1080 -0.4466 -0.3908
  525MOL0     C70789   3.707   4.283   3.537  0.1871  0.1476 -0.6818
  525MOL0     C70790   3.803   4.311   3.441 -0.2465  0.6982 -0.3832
  525MOL0     N70791   4.292   4.267   2.929 -0.8033 -0.9201  0.5642
  525MOL0     N70792   4.398   4.349   2.908  0.5024 -0.1252 -0.1455
  525MOL0     C70793   5.667   4.590   2.736  0.7001  0.2406 -0.1008
  525MOL0     C70794   5.779   4.677   2.736 -0.9808 -0.5357  0.6749
  525MOL0     C70795   6.025   5.046   2.782  1.0920 -0.4274 -0.1413
  525MOL0     C70796   6.115   5.073   2.890  0.6522  0.1071 -0.0348
  525MOL0     C70797   6.201   5.186   2.881  0.5895 -0.1261 -0.3494
  525MOL0     C70798   6.217   5.269   2.761  0.0195 -1.0198 -0.4205
  525MOL0     O70799   6.299   5.380   2.759 -0.1159  0.0514  0.0141
  525MOL0     C70800   6.403   5.415   2.851 -0.0628 -0.2679 -0.1262
  525MOL0     C70801   6.339   5.497   2.969 -0.5135  0.2263 -0.0300
  525MOL0     C70802   6.444   5.550   3.058 -0.1059 -0.0934 -0.2174
  525MOL0     C70803   6.541   5.654   2.989 -0.7140 -0.8841 -0.8300
  525MOL0     C70804   6.639   5.700   3.089  1.2280  0.0827  0.0949
  525MOL0     C70805   6.724   5.744   3.168 -0.6953 -0.4172 -0.0419
  525MOL0     C70806   6.138   5.231   2.650  0.3088 -0.7105 -0.6746
  525MOL0     C70807   6.040   5.121   2.660  0.0638 -0.0838 -0.2873
  525MOL0     H70808   5.634   4.938   2.582  0.0867 -0.4420  0.7134
  525MOL0     H70809   5.432   4.785   2.602 -0.2704 -2.7867 -0.4754
  525MOL0     H70810   5.317   4.676   2.782 -2.8674 -0.7717  1.0556
  525MOL0     H70811   5.258   4.593   2.630 -1.0674  1.8034  0.5816
  525MOL0     H70812   5.269   4.372   2.763 -1.1572  0.2089 -0.8365
  525MOL0     H70813   5.325   4.460   2.893  4.5259 -2.5528 -3.5561
  525MOL0     H70814   5.078   4.404   2.917  0.7079 -1.5390 -1.0567
  525MOL0     H70815   5.111   4.562   2.942 -0.6582  1.9188 -1.1379
  525MOL0     H70816   5.013   4.616   2.721  2.0447  0.0138 -2.3736
  525MOL0     H70817   5.053   4.463   2.658  0.1122 -0.3414  0.6598
  525MOL0     H70818   4.829   4.462   2.666  0.9521  0.5648 -0.2727
  525MOL0     H70819   4.875   4.354   2.808 -1.8025  0.3765  1.4951
  525MOL0     H70820   4.843   4.548   2.970  2.5458  1.4870 -0.7938
  525MOL0     H70821   4.800   4.647   2.831  0.0440  0.2924  2.4166
  525MOL0     H70822   4.576   4.564   2.906  0.4128 -0.2714  1.2933
  525MOL0     H70823   4.622   4.463   2.777  0.0708 -1.2193  0.4041
  525MOL0     H70824   4.661   4.427   3.077 -1.5287  1.8083  0.4905
  525MOL0     H70825   4.713   4.298   2.966 -1.6016 -1.7716 -1.6345
  525MOL0     H70826   4.531   4.155   3.127 -1.0799  1.3426  1.1578
  525MOL0     H70827   4.203   4.012   3.007  0.6634  0.7723 -2.2019
  525MOL0     H70828   4.357   3.989   3.101  0.2866  0.3782 -2.4793
  525MOL0     H70829   4.250   4.189   3.257 -1.1827 -0.3010  0.5633
  525MOL0     H70830   4.179   4.023   3.268  1.4607  1.0478  2.1002
  525MOL0     H70831   3.993   4.081   3.182  1.2930 -1.4382  0.7624
  525MOL0     H70832   4.060   4.190   3.050 -0.2686 -1.4724  0.2152
  525MOL0     H70833   4.074   4.374   3.206  1.4754 -0.0389  0.1502
  525MOL0     H70834   4.041   4.270   3.349  2.3539  1.4104  0.0956
  525MOL0     H70835   3.653   4.200   3.159 -0.4949  0.2551  0.1373
  525MOL0     H70836   3.422   4.024   3.358  0.8119 -0.3216 -0.3591
  525MOL0     H70837   3.358   4.183   3.308 -0.1799  0.4640 -1.8895
  525MOL0     H70838   3.454   4.086   3.199 -1.8527 -0.6868 -0.5671
  525MOL0     H70839   3.167   4.285   3.518 -2.3055  1.6705  0.8515
  525MOL0     H70840   2.964   4.297   3.650  1.4784  1.3365 -1.6958
  525MOL0     H70841   2.885   3.992   3.920  1.4965  0.1775  0.3923
  525MOL0     H70842   2.920   4.092   4.055 -2.8548 -1.7811  2.0714
  525MOL0     H70843   2.676   4.073   3.861  0.4876 -1.2992  0.4475
  525MOL0     H70844   2.665   4.028   4.026 -0.4317  0.6508 -0.4303
  525MOL0     H70845   2.705   4.312   3.931 -3.2894  0.5125  0.2212
  525MOL0     H70846   2.685   4.258   4.105  1.2035  0.3396  0.2240
  525MOL0     H70847   2.486   4.276   3.877  4.0448  1.0454 -0.9635
  525MOL0     H70848   2.442   4.177   4.022 -0.8371  1.1240  1.5605
  525MOL0     H70849   2.529   4.462   4.013  1.0255 -0.7117 -0.1871
  525MOL0     H70850   2.516   4.376   4.164 -1.9366  2.0002  1.5931
  525MOL0     H70851   2.274   4.435   3.972 -0.4355  1.4683  1.5818
  525MOL0     H70852   2.260   4.355   4.120 -1.1411  1.8037  0.5829
  525MOL0     H70853   2.327   4.646   4.103  1.9599  1.1752  3.0845
  525MOL0     H70854   2.388   4.543   4.226  2.4248  0.1685 -1.8602
  525MOL0     H70855   2.093   4.549   4.112  1.8949  3.7321 -1.2654
  525MOL0     H70856   2.138   4.654   4.242  0.2119 -1.2995  3.0103
  525MOL0     H70857   3.125   4.015   3.937 -1.4180  1.2849  0.2783
  525MOL0     H70858   3.338   4.009   3.807  0.5441 -0.4664 -0.7277
  525MOL0     H70859   3.737   4.309   3.638 -2.2777  0.1611  0.1041
  525MOL0     H70860   3.889   4.365   3.479  0.8715 -0.5223 -1.0685
  525MOL0     H70861   5.669   4.493   2.786 -0.2390  0.5223  0.5043
  525MOL0     H70862   5.870   4.636   2.778 -0.7687 -0.2532  0.4888
  525MOL0     H70863   6.117   5.010   2.978  0.7531  1.6646  1.1315
  525MOL0     H70864   6.259   5.190   2.972 -1.8729  0.2778  1.2806
  525MOL0     H70865   6.459   5.330   2.891 -1.3441 -1.0847  0.0198
  525MOL0     H70866   6.483   5.469   2.801 -1.1395  0.2815 -1.3087
  525MOL0     H70867   6.274   5.430   3.026  0.4348  1.2860  2.4431
  525MOL0     H70868   6.275   5.576   2.929  0.4499  0.1744 -1.8070
  525MOL0     H70869   6.495   5.460   3.093 -2.4706 -0.1634  3.5921
  525MOL0     H70870   6.401   5.592   3.149 -0.5265 -2.2423  0.6385
  525MOL0     H70871   6.487   5.747   2.969  1.0172 -0.0965 -2.0343
  525MOL0     H70872   6.594   5.614   2.903  4.2760  1.1091  0.9696
  525MOL0     H70873   6.793   5.799   3.229 -2.1800  1.7088 -0.1685
  525MOL0     H70874   6.153   5.278   2.554 -1.7281  0.3991 -0.5062
  525MOL0     H70875   5.978   5.107   2.572 -0.1356  0.7381 -0.2904
  526MOL0     O70876   8.244   6.039   2.738  0.0366 -0.0284 -0.1801
  526MOL0     C70877   8.318   5.944   2.760  0.0942 -0.8341  0.2926
  526MOL0     O70878   8.281   5.825   2.827  0.0714  0.0972  0.6126
  526MOL0     C70879   8.153   5.814   2.880  0.5625  0.1395 -0.2280
  526MOL0     C70880   8.034   5.870   2.821 -0.1553  1.1190 -0.0882
  526MOL0     C70881   7.911   5.834   2.870  1.0188  0.0826 -0.5589
  526MOL0     C70882   7.899   5.759   2.980  0.7916  0.2858 -0.6434
  526MOL0     O70883   7.765   5.728   3.023 -0.8544  0.3693  0.5915
  526MOL0     C70884   7.736   5.688   3.153 -0.8566 -0.0660 -0.0266
  526MOL0     C70885   7.580   5.700   3.158  0.3130 -0.5457 -0.5354
  526MOL0     C70886   7.504   5.610   3.058  0.5171  0.6262  0.1288
  526MOL0     C70887   7.363   5.653   3.035  0.4651  0.0933 -1.0175
  526MOL0     C70888   7.281   5.562   2.961 -0.1829  0.7709 -0.1071
  526MOL0     C70889   7.132   5.565   3.002 -0.2116 -0.0522 -0.0015
  526MOL0     C70890   7.068   5.462   2.908 -0.2600  0.5130  0.3855
  526MOL0     C70891   6.917   5.461   2.908 -0.3577  0.3061  0.0348
  526MOL0     N70892   6.858   5.359   2.826  0.4586 -0.5753 -0.2835
  526MOL0     C70893   6.812   5.388   2.696 -0.7125 -0.0582 -0.4210
  526MOL0     C70894   6.730   5.290   2.658  0.0610  0.1354  0.4157
  526MOL0     C70895   6.675   5.267   2.525  1.3860 -0.6112  0.2961
  526MOL0     C70896   6.554   5.353   2.499 -0.0107  0.5411 -0.8228
  526MOL0     C70897   6.586   5.508   2.500  0.5286  0.0189 -0.1245
  526MOL0     C70898   6.478   5.589   2.433 -0.5323 -0.0909  0.5651
  526MOL0     O70899   6.351   5.578   2.505 -0.1804  0.4868  0.1810
  526MOL0     C70900   6.236   5.595   2.433 -0.1191 -0.8496 -0.9309
  526MOL0     C70901   6.117   5.552   2.485 -0.2415 -0.6890  0.1520
  526MOL0     C70902   5.997   5.591   2.440  0.5626  0.2295 -0.4204
  526MOL0     C70903   5.882   5.534   2.510 -0.0465  0.1071  0.1174
  526MOL0     C70904   5.995   5.683   2.333 -0.4755  1.0062  0.1903
  526MOL0     C70905   5.870   5.708   2.257  0.3648  0.2705 -0.0754
  526MOL0     O70906   5.771   5.622   2.273 -0.0945 -0.9193  0.0276
  526MOL0     C70907   5.649   5.636   2.221 -0.4573  0.2129  0.2670
  526MOL0     C70908   5.542   5.599   2.303  0.0401 -0.2112  0.2410
  526MOL0     C70909   5.414   5.615   2.243  0.1990 -0.6461 -0.5068
  526MOL0     C70910   5.399   5.647   2.106 -0.2014  0.5244  0.0545
  526MOL0     O70911   5.271   5.677   2.049 -0.4909  0.1731  0.4928
  526MOL0     C70912   5.168   5.707   2.141  0.1109 -0.4057 -0.4698
  526MOL0     C70913   5.024   5.719   2.089 -0.2221 -0.4099  0.2037
  526MOL0     C70914   4.975   5.578   2.035 -0.6810 -0.5063  0.0153
  526MOL0     C70915   4.914   5.588   1.897  0.5749  0.1224 -0.6781
  526MOL0     C70916   4.797   5.693   1.888 -0.9028  0.3701 -0.1262
  526MOL0     C70917   4.674   5.648   1.956  0.3946  0.3578  0.0836
  526MOL0     C70918   4.569   5.761   1.962 -0.6262  0.1800 -0.2683
  526MOL0     C70919   4.430   5.703   2.000  0.7930  0.2375 -0.7702
  526MOL0    Cl70920   4.444   5.642   2.167  0.1422  0.1360  0.2892
  526MOL0     C70921   5.511   5.674   2.030  0.5770  0.3531  0.1344
  526MOL0     C70922   5.638   5.657   2.086  0.8692 -0.3710  0.6186
  526MOL0     O70923   5.868   5.811   2.184 -0.3976  0.7505  0.3429
  526MOL0     C70924   6.110   5.725   2.271 -0.4410  0.3346  0.3813
  526MOL0     C70925   6.231   5.684   2.321 -0.5163 -0.1995 -1.2824
  526MOL0     N70926   6.721   5.199   2.769 -0.0318 -0.4719 -0.2826
  526MOL0     N70927   6.800   5.238   2.864 -0.1673 -0.5841 -0.1652
  526MOL0     C70928   8.009   5.699   3.040  0.4815  0.8372 -0.5963
  526MOL0     C70929   8.140   5.734   2.995  0.0310  0.3947 -0.5907
  526MOL0     C70930   8.458   5.967   2.726 -0.2200  0.5656 -0.4216
  526MOL0     C70931   8.569   5.891   2.780  0.7291  0.5473  0.3433
  526MOL0     C70932   8.701   5.934   2.765  0.2552  0.3769  0.0929
  526MOL0     C70933   8.726   6.035   2.672 -0.0812  0.1664 -0.4606
  526MOL0     O70934   8.860   6.074   2.657 -0.4285  0.2294  0.7711
  526MOL0     C70935   8.909   6.151   2.541  0.3016 -0.5707  0.2728
  526MOL0     C70936   8.886   6.298   2.563 -0.2567 -0.2137  0.1929
  526MOL0     C70937   8.967   6.362   2.685  0.0162  0.7222  0.4054
  526MOL0     C70938   9.116   6.333   2.670  0.7390  0.5327  0.1770
  526MOL0     C70939   9.162   6.348   2.528  0.3151 -0.4552  0.2114
  526MOL0     C70940   9.200   6.377   2.411  0.6134  0.2629 -0.8613
  526MOL0     C70941   8.616   6.091   2.605 -0.2253  0.1800 -0.1278
  526MOL0     C70942   8.479   6.080   2.643  0.9895  0.5771  0.0012
  526MOL0     H70943   8.034   5.926   2.728 -0.8176 -3.3118 -3.0978
  526MOL0     H70944   7.823   5.882   2.828 -0.5828  0.0735  2.5481
  526MOL0     H70945   7.770   5.586   3.170 -0.0281  0.0115 -1.1007
  526MOL0     H70946   7.785   5.761   3.219  1.1469  0.7044 -2.2352
  526MOL0     H70947   7.551   5.665   3.257  0.6774  0.1298 -0.1867
  526MOL0     H70948   7.545   5.801   3.138  1.1100 -0.4711 -1.6708
  526MOL0     H70949   7.550   5.610   2.959 -2.0093  1.1256 -1.1268
  526MOL0     H70950   7.501   5.506   3.093 -1.1721  0.2467 -1.0011
  526MOL0     H70951   7.316   5.664   3.133  1.7318  0.2157 -0.4089
  526MOL0     H70952   7.365   5.749   2.984 -3.0744  1.5218  1.1457
  526MOL0     H70953   7.300   5.571   2.854  1.6096  1.4034  0.2188
  526MOL0     H70954   7.320   5.462   2.981  3.9945  1.9808 -1.1661
  526MOL0     H70955   7.123   5.535   3.107  0.3505  2.4104  0.8328
  526MOL0     H70956   7.086   5.663   2.985 -1.5012 -1.1241 -3.5287
  526MOL0     H70957   7.083   5.480   2.801 -4.9226 -0.9782 -0.7459
  526MOL0     H70958   7.113   5.365   2.930 -0.8298  0.4637  1.3694
  526MOL0     H70959   6.897   5.560   2.866  2.3031  0.1458 -1.8008
  526MOL0     H70960   6.875   5.450   3.009  1.3425 -1.3761  0.6217
  526MOL0     H70961   6.836   5.474   2.634  1.7077 -0.1534  0.2552
  526MOL0     H70962   6.755   5.281   2.452  1.0853  0.0055  0.0705
  526MOL0     H70963   6.642   5.163   2.520  1.7373 -0.7202  0.1987
  526MOL0     H70964   6.489   5.326   2.583  0.8065 -1.8285 -0.8962
  526MOL0     H70965   6.499   5.320   2.411 -2.5277  0.8839  0.5339
  526MOL0     H70966   6.677   5.527   2.442  2.0981  0.3908  2.3035
  526MOL0     H70967   6.602   5.538   2.604 -1.8153 -0.9351  0.5788
  526MOL0     H70968   6.468   5.549   2.332  0.2091 -1.5995  1.0578
  526MOL0     H70969   6.507   5.693   2.420  1.2045 -0.7750 -1.7690
  526MOL0     H70970   6.125   5.499   2.580 -0.2824 -2.7703 -0.9478
  526MOL0     H70971   5.905   5.493   2.608  0.0395 -0.4750 -0.1409
  526MOL0     H70972   5.794   5.596   2.531 -1.7369 -3.2328  4.1826
  526MOL0     H70973   5.847   5.443   2.462  1.4952 -3.0825  4.4344
  526MOL0     H70974   5.554   5.581   2.409  1.9432  1.0369  0.2798
  526MOL0     H70975   5.328   5.603   2.308  2.3739  0.1414  2.7122
  526MOL0     H70976   5.162   5.617   2.203 -0.1436 -0.3273 -0.3820
  526MOL0     H70977   5.197   5.801   2.189 -1.4519 -0.9090  1.5730
  526MOL0     H70978   4.960   5.756   2.169 -0.0080  2.6602 -0.9030
  526MOL0     H70979   5.022   5.797   2.011 -0.8182 -1.6387 -1.0502
  526MOL0     H70980   4.909   5.517   2.097 -1.6894 -0.5771 -1.0914
  526MOL0     H70981   5.058   5.508   2.032 -1.9511 -2.3392  2.8383
  526MOL0     H70982   4.992   5.608   1.823  0.9573 -0.3592 -0.4072
  526MOL0     H70983   4.880   5.486   1.874  3.8138 -0.8882 -1.4853
  526MOL0     H70984   4.787   5.702   1.779  1.6794  3.3543 -0.2520
  526MOL0     H70985   4.828   5.794   1.914  2.5772 -0.8156  0.9179
  526MOL0     H70986   4.637   5.558   1.908 -2.8822  0.6770  1.7299
  526MOL0     H70987   4.709   5.624   2.057  2.7262  0.8313 -0.5678
  526MOL0     H70988   4.556   5.811   1.865  2.2528  0.4576 -0.5833
  526MOL0     H70989   4.608   5.839   2.028  1.0944 -0.1567 -0.8351
  526MOL0     H70990   4.401   5.628   1.926  1.6491  1.9862 -3.0278
  526MOL0     H70991   4.355   5.782   2.008  0.3600 -0.1813 -0.6902
  526MOL0     H70992   5.489   5.693   1.925 -1.5969  0.2435  0.5154
  526MOL0     H70993   5.726   5.680   2.028  0.3597 -0.6204 -0.2763
  526MOL0     H70994   6.112   5.802   2.196  0.6005 -0.8339 -0.8395
  526MOL0     H70995   6.323   5.728   2.282  0.9126 -0.0945  1.8910
  526MOL0     H70996   8.007   5.633   3.127  0.1673  0.6927 -0.7096
  526MOL0     H70997   8.239   5.702   3.028  0.9614  2.2486 -1.4516
  526MOL0     H70998   8.553   5.798   2.834 -0.0897  0.5962  0.1910
  526MOL0     H70999   8.784   5.882   2.812  0.8055  1.9858  0.9788
  526MOL0     H71000   9.015   6.129   2.527  0.1205 -0.6765 -1.0993
  526MOL0     H71001   8.854   6.120   2.451  0.2009  1.5563 -0.4766
  526MOL0     H71002   8.780   6.313   2.585 -0.1876 -2.8315  3.0058
  526MOL0     H71003   8.910   6.354   2.473 -2.0744 -0.0965 -0.2674
  526MOL0     H71004   8.941   6.323   2.784  1.5691 -2.2035 -0.2110
  526MOL0     H71005   8.959   6.471   2.689 -2.4541  0.6133  0.1506
  526MOL0     H71006   9.141   6.238   2.718  0.7294  0.7542  0.6316
  526MOL0     H71007   9.164   6.416   2.722  1.0793  2.8652 -3.5064
  526MOL0     H71008   9.216   6.417   2.313  5.6487 -0.3234 -0.5175
  526MOL0     H71009   8.638   6.170   2.535  0.2189  1.1622  1.0834
  526MOL0     H71010   8.398   6.146   2.610  1.7435  0.7191 -1.6817
  527MOL0     O71011   7.104   9.411   7.160  0.2982  0.3220  0.4884
  527MOL0     C71012   7.191   9.457   7.091 -1.0406 -0.8887  0.3177
  527MOL0     O71013   7.164   9.512   6.972 -0.3567  0.5469  0.9304
  527MOL0     C71014   7.042   9.578   6.956 -0.0790 -0.0818 -0.3160
  527MOL0     C71015   6.960   9.543   6.848  0.2705 -0.8315  0.7602
  527MOL0     C71016   6.831   9.599   6.843  0.0100 -0.7438  0.5305
  527MOL0     C71017   6.780   9.691   6.944 -0.6464 -0.6288 -0.2752
  527MOL0     O71018   6.650   9.733   6.938 -0.3281 -0.3891  0.0244
  527MOL0     C71019   6.605   9.847   7.008 -0.0125  0.3500 -0.0715
  527MOL0     C71020   6.446   9.835   7.006  0.0466 -0.3397  0.7327
  527MOL0     C71021   6.372   9.888   6.883 -0.3052 -1.2803 -0.6228
  527MOL0     C71022   6.216   9.899   6.926  0.0170  0.6106 -0.0313
  527MOL0     C71023   6.111   9.934   6.812 -0.7387  0.7297 -0.0035
  527MOL0     C71024   6.123   9.833   6.702  0.1722 -0.9345  0.5441
  527MOL0     C71025   6.089   9.685   6.740  0.0044 -1.0596  0.1955
  527MOL0     C71026   6.092   9.582   6.631 -0.8224 -0.0909 -0.5384
  527MOL0     N71027   6.000   9.619   6.523 -0.1642  0.6060  0.6416
  527MOL0     C71028   5.864   9.622   6.537 -1.3052  0.2598 -0.6580
  527MOL0     C71029   5.816   9.676   6.424  0.0802 -0.3778  0.3808
  527MOL0     C71030   5.670   9.704   6.403  0.2874 -0.1225 -0.5323
  527MOL0     C71031   5.610   9.581   6.327  0.0807 -0.3251  0.3099
  527MOL0     C71032   5.543   9.609   6.191 -0.2620 -0.8387  0.4930
  527MOL0     C71033   5.474   9.486   6.125 -0.0299 -0.0995  0.2350
  527MOL0     O71034   5.366   9.432   6.200 -0.1982  0.0429 -0.0818
  527MOL0     C71035   5.247   9.491   6.198  0.9825  0.0213 -0.1222
  527MOL0     C71036   5.211   9.603   6.118  0.0908  0.1023 -0.3391
  527MOL0     C71037   5.077   9.650   6.105  0.1120  0.2146  0.0087
  527MOL0     C71038   5.059   9.781   6.030  0.4791  0.1933  0.1985
  527MOL0     C71039   4.974   9.582   6.179  0.2770  0.1475  0.2141
  527MOL0     C71040   4.834   9.614   6.160 -0.7747 -0.0470  1.2129
  527MOL0     O71041   4.744   9.569   6.246 -0.3431  0.3731  0.4199
  527MOL0     C71042   4.614   9.600   6.225  0.7596  0.2407  0.3055
  527MOL0     C71043   4.523   9.528   6.143  0.1261 -0.0680 -0.3414
  527MOL0     C71044   4.389   9.577   6.136 -0.2759  0.4238 -0.2259
  527MOL0     C71045   4.348   9.694   6.204  0.2161  0.1324 -0.3512
  527MOL0     O71046   4.223   9.740   6.193  0.4541 -0.0667  0.3039
  527MOL0     C71047   4.161   9.830   6.284 -0.1368 -0.1917 -0.3974
  527MOL0     C71048   4.015   9.841   6.251 -0.2595  0.0290  0.5042
  527MOL0     C71049   3.942   9.935   6.358  0.1496 -0.2238  0.3292
  527MOL0     C71050   3.818   9.979   6.281 -0.5550  0.5160 -0.5158
  527MOL0     C71051   3.702  10.027   6.376  0.1805  0.2356  0.0906
  527MOL0     C71052   3.722  10.156   6.443 -0.1864  0.4815  0.1941
  527MOL0     C71053   3.623  10.173   6.563  0.6888 -0.4904 -0.0735
  527MOL0     C71054   3.472  10.167   6.532 -0.4727 -0.3799  0.1127
  527MOL0    Cl71055   3.371  10.194   6.675 -0.1673  0.3192 -0.1735
  527MOL0     C71056   4.441   9.756   6.287  0.5621  0.6116  0.2433
  527MOL0     C71057   4.572   9.707   6.299  0.2425 -0.4791 -0.5388
  527MOL0     O71058   4.805   9.677   6.058 -0.4541 -0.3231 -0.1760
  527MOL0     C71059   5.013   9.479   6.266 -0.7232  1.4286  0.5079
  527MOL0     C71060   5.152   9.433   6.281 -0.1990 -0.3193 -0.3892
  527MOL0     N71061   5.927   9.705   6.348 -0.1032  0.7633 -0.3094
  527MOL0     N71062   6.039   9.668   6.405  0.1295 -0.3506  0.0596
  527MOL0     C71063   6.875   9.728   7.042 -0.1583 -0.0137  0.0480
  527MOL0     C71064   7.006   9.676   7.045  0.0006 -0.0333 -0.1066
  527MOL0     C71065   7.333   9.466   7.143 -0.3516  0.8798 -0.9582
  527MOL0     C71066   7.437   9.531   7.072 -0.4712 -0.2503  0.1436
  527MOL0     C71067   7.563   9.505   7.104  0.4872  0.6201  0.8188
  527MOL0     C71068   7.600   9.425   7.213  0.3377 -0.5012  0.3723
  527MOL0     O71069   7.734   9.405   7.256  0.9586  0.5474 -0.0282
  527MOL0     C71070   7.837   9.398   7.151 -0.6826 -0.9258  0.6300
  527MOL0     C71071   7.966   9.341   7.194 -0.2942 -0.0084  0.0138
  527MOL0     C71072   8.025   9.432   7.293 -0.1827  0.0168 -0.2200
  527MOL0     C71073   8.155   9.379   7.336 -0.2169  0.8995 -1.0229
  527MOL0     C71074   8.142   9.250   7.414  0.3004 -0.5699  0.5742
  527MOL0     C71075   8.142   9.145   7.472  0.2485  0.7273 -0.0641
  527MOL0     C71076   7.502   9.363   7.293  0.0772  0.3771 -0.7313
  527MOL0     C71077   7.369   9.393   7.259  0.1006 -0.1539 -0.3437
  527MOL0     H71078   7.000   9.477   6.772  0.8656  1.7701 -1.3713
  527MOL0     H71079   6.764   9.580   6.760  2.2594  2.2318 -2.2243
  527MOL0     H71080   6.641   9.849   7.111  0.9588 -1.9773 -0.2931
  527MOL0     H71081   6.632   9.934   6.948 -0.1329 -0.1772 -0.9072
  527MOL0     H71082   6.415   9.731   7.023 -3.3413  0.6624  1.2813
  527MOL0     H71083   6.416   9.895   7.092 -1.6894 -2.7356  1.8942
  527MOL0     H71084   6.406   9.990   6.861 -1.0714 -0.8071  0.3220
  527MOL0     H71085   6.386   9.831   6.790 -0.2285  0.1933 -1.5474
  527MOL0     H71086   6.173   9.808   6.970  0.0135  0.4525 -0.3617
  527MOL0     H71087   6.213   9.982   6.997  0.1694  2.6772 -2.3104
  527MOL0     H71088   6.008   9.930   6.851 -0.9053  0.8409 -0.4287
  527MOL0     H71089   6.133  10.035   6.777 -0.0530  0.7013  0.3380
  527MOL0     H71090   6.053   9.867   6.625  1.9603  1.5551 -0.1204
  527MOL0     H71091   6.221   9.837   6.652 -0.2999  0.6920 -0.3368
  527MOL0     H71092   6.160   9.654   6.818 -0.4212 -0.3336  0.8865
  527MOL0     H71093   5.991   9.673   6.787  0.4237  1.1184  1.8277
  527MOL0     H71094   6.062   9.485   6.671 -1.1530 -0.3482 -1.3847
  527MOL0     H71095   6.189   9.571   6.582 -0.0842 -2.1925  1.2415
  527MOL0     H71096   5.816   9.567   6.617 -2.1026 -2.3934 -2.7753
  527MOL0     H71097   5.619   9.709   6.499  1.0650 -2.5902  0.0721
  527MOL0     H71098   5.663   9.791   6.337  1.2382 -3.2470 -5.2753
  527MOL0     H71099   5.537   9.530   6.391  2.2912 -1.8104  1.7628
  527MOL0     H71100   5.688   9.510   6.300  0.1834  0.6638 -2.3702
  527MOL0     H71101   5.613   9.649   6.118  0.4995  0.7801  2.0302
  527MOL0     H71102   5.475   9.695   6.187  3.7237  2.6745 -4.0342
  527MOL0     H71103   5.550   9.408   6.114  1.4645  1.0696  1.7423
  527MOL0     H71104   5.446   9.518   6.024 -1.3811 -0.4162  0.4872
  527MOL0     H71105   5.297   9.656   6.077  1.0133  0.1754  1.5860
  527MOL0     H71106   4.982   9.844   6.077  0.5072 -0.7721  1.6164
  527MOL0     H71107   5.144   9.848   6.017  0.4284  0.0658 -0.8313
  527MOL0     H71108   5.026   9.757   5.929 -0.3931  0.9288  0.2892
  527MOL0     H71109   4.577   9.453   6.086  1.3333  1.7459 -1.6783
  527MOL0     H71110   4.316   9.531   6.070  2.5863 -2.9204 -1.4386
  527MOL0     H71111   4.176   9.814   6.391  1.1775 -0.2052 -0.5668
  527MOL0     H71112   4.204   9.928   6.261  0.7969 -0.8606 -1.6126
  527MOL0     H71113   4.001   9.860   6.144 -0.1062 -2.6262 -0.0477
  527MOL0     H71114   3.981   9.739   6.270  2.1576 -0.8452  0.4643
  527MOL0     H71115   4.000  10.023   6.390  0.4999 -0.0376 -0.7751
  527MOL0     H71116   3.914   9.871   6.442 -1.4882  0.5235  0.3812
  527MOL0     H71117   3.844  10.059   6.211 -2.2941  1.3560 -0.2712
  527MOL0     H71118   3.773   9.896   6.226 -0.6523  1.4464 -1.8735
  527MOL0     H71119   3.699   9.946   6.450  1.0059 -1.1403 -1.3192
  527MOL0     H71120   3.603  10.026   6.328  0.5135 -0.6742 -0.6183
  527MOL0     H71121   3.825  10.157   6.481  0.8294 -1.4749 -2.1995
  527MOL0     H71122   3.736  10.240   6.374  3.3545 -1.9182 -2.3841
  527MOL0     H71123   3.639  10.271   6.610  1.9594 -0.2183 -1.0051
  527MOL0     H71124   3.653  10.105   6.643 -0.4982 -2.2988 -1.0904
  527MOL0     H71125   3.446  10.071   6.486 -1.2060 -0.8243  1.3989
  527MOL0     H71126   3.447  10.247   6.461  1.7653  0.7714  0.5220
  527MOL0     H71127   4.409   9.839   6.350 -0.3482 -1.6077  2.8927
  527MOL0     H71128   4.634   9.755   6.374 -2.1167  1.8370  0.0778
  527MOL0     H71129   4.945   9.420   6.327  1.8538 -1.5614  0.7391
  527MOL0     H71130   5.194   9.357   6.345  2.5977  0.4481 -1.1880
  527MOL0     H71131   6.851   9.810   7.110 -1.7360  0.2380 -0.7549
  527MOL0     H71132   7.074   9.710   7.122  1.9481 -2.3254 -0.7007
  527MOL0     H71133   7.420   9.586   6.980 -1.6707 -2.5847 -1.1079
  527MOL0     H71134   7.644   9.522   7.034 -0.1677 -2.3973 -0.8936
  527MOL0     H71135   7.800   9.332   7.072  0.7778 -2.7801  1.4114
  527MOL0     H71136   7.845   9.503   7.120 -0.1975 -1.2215 -0.3070
  527MOL0     H71137   8.044   9.337   7.118  2.2422 -0.4546  2.5008
  527MOL0     H71138   7.949   9.242   7.238  1.3943 -0.1358  0.4101
  527MOL0     H71139   7.960   9.448   7.379  1.3221 -1.5384  1.3085
  527MOL0     H71140   8.044   9.526   7.240  2.8022 -0.2074  0.2871
  527MOL0     H71141   8.200   9.453   7.403 -1.8507 -0.5623  1.9467
  527MOL0     H71142   8.216   9.358   7.249  0.4765 -1.9069  0.0154
  527MOL0     H71143   8.148   9.053   7.526 -0.5854 -1.3032 -3.1847
  527MOL0     H71144   7.532   9.302   7.378 -0.2660 -0.8973 -1.5031
  527MOL0     H71145   7.284   9.346   7.307  0.4647 -1.7190 -1.1903
  528MOL0     O71146   1.784   8.461   3.075 -0.1270 -0.3327  0.3001
  528MOL0     C71147   1.818   8.408   3.178 -0.1562  0.5454 -0.2920
  528MOL0     O71148   1.953   8.409   3.229  0.4857  0.5259 -0.0432
  528MOL0     C71149   2.050   8.464   3.147  0.7835  0.4388  0.4330
  528MOL0     C71150   2.034   8.599   3.115 -0.1606 -0.6654 -0.1614
  528MOL0     C71151   2.132   8.666   3.044  0.5111  0.3154 -0.0158
  528MOL0     C71152   2.251   8.600   3.010  0.4522  0.7588 -0.6400
  528MOL0     O71153   2.342   8.671   2.941 -0.1787 -0.3634 -0.6139
  528MOL0     C71154   2.392   8.606   2.819 -0.1608 -0.2222 -0.6633
  528MOL0     C71155   2.459   8.712   2.731 -0.6823  0.1601 -0.6269
  528MOL0     C71156   2.611   8.735   2.773 -0.0230 -0.4699  0.2839
  528MOL0     C71157   2.622   8.827   2.897  0.8220 -0.4065  0.3541
  528MOL0     C71158   2.768   8.866   2.913 -0.2211 -0.3130 -0.1282
  528MOL0     C71159   2.794   8.959   3.030 -0.1799  0.1320  0.0619
  528MOL0     C71160   2.722   9.095   3.031 -0.2152 -0.3548  0.3167
  528MOL0     C71161   2.760   9.168   3.165  0.7250  0.9852  0.2370
  528MOL0     N71162   2.675   9.285   3.189 -0.4829  0.6320 -0.4430
  528MOL0     C71163   2.696   9.414   3.141 -0.5985  0.5501  0.4875
  528MOL0     C71164   2.595   9.487   3.192 -0.8589  0.0003  0.4099
  528MOL0     C71165   2.582   9.636   3.163  0.4884 -0.5461  0.3834
  528MOL0     C71166   2.476   9.662   3.058 -0.2318 -0.2492 -0.5378
  528MOL0     C71167   2.445   9.811   3.075 -0.6070  0.4296 -0.6559
  528MOL0     C71168   2.331   9.857   2.989 -0.7098 -0.4037  1.4150
  528MOL0     O71169   2.205   9.813   3.027  0.0185 -0.2218  0.5311
  528MOL0     C71170   2.123   9.738   2.946  0.3422 -1.1587  0.2698
  528MOL0     C71171   2.155   9.676   2.826  0.5259  0.8822  0.1799
  528MOL0     C71172   2.064   9.610   2.739 -0.8895  1.1707 -0.4628
  528MOL0     C71173   2.122   9.542   2.617 -0.0443 -0.5755  0.4304
  528MOL0     C71174   1.932   9.609   2.778  0.6243  0.2451  1.0423
  528MOL0     C71175   1.820   9.560   2.700 -0.0299  0.4821  0.4198
  528MOL0     O71176   1.707   9.564   2.757  0.5951 -0.1086  0.1141
  528MOL0     C71177   1.581   9.559   2.702 -0.0822  1.5287  0.4508
  528MOL0     C71178   1.557   9.510   2.567 -0.5249 -0.5651 -0.8758
  528MOL0     C71179   1.428   9.524   2.513  0.5154 -0.2097  0.4848
  528MOL0     C71180   1.320   9.581   2.580 -0.7655 -0.6197 -0.4889
  528MOL0     O71181   1.199   9.591   2.518  0.2508  0.0287  0.8205
  528MOL0     C71182   1.072   9.579   2.599  0.2342 -0.2117  0.3714
  528MOL0     C71183   1.020   9.711   2.646 -0.1190  0.5625 -1.0223
  528MOL0     C71184   0.955   9.688   2.793 -0.3360  0.0436  0.9054
  528MOL0     C71185   0.885   9.817   2.831 -0.2237 -0.3249 -0.1537
  528MOL0     C71186   0.808   9.805   2.963  0.5327  0.7502  0.1053
  528MOL0     C71187   0.711   9.934   2.972 -0.3980  0.1727 -0.0709
  528MOL0     C71188   0.565   9.921   2.950  0.1411  0.4988 -1.0316
  528MOL0     C71189   0.494  10.058   2.943  0.4951 -0.4067 -0.4712
  528MOL0    Cl71190   0.319  10.037   2.978  0.3693  0.1209  0.1764
  528MOL0     C71191   1.343   9.617   2.714 -0.2513  0.5154 -0.7870
  528MOL0     C71192   1.470   9.594   2.771  0.0287 -0.8959  0.5695
  528MOL0     O71193   1.840   9.522   2.582  0.2510 -0.6627 -0.8126
  528MOL0     C71194   1.901   9.661   2.910 -0.2068  0.8493  0.6529
  528MOL0     C71195   1.990   9.728   2.992  0.5743 -0.3806  0.3961
  528MOL0     N71196   2.512   9.399   3.264  0.1674  0.5886 -0.5159
  528MOL0     N71197   2.554   9.282   3.249 -0.1749  0.7646 -0.1276
  528MOL0     C71198   2.273   8.468   3.050  0.1330  0.1906  0.4037
  528MOL0     C71199   2.170   8.394   3.122 -0.7341  0.4845 -0.3031
  528MOL0     C71200   1.711   8.364   3.278 -0.4502 -0.6111  0.7099
  528MOL0     C71201   1.753   8.306   3.407 -0.0551 -0.3071  0.6354
  528MOL0     C71202   1.662   8.250   3.496  0.0962 -0.0789  0.6384
  528MOL0     C71203   1.528   8.224   3.462  0.5728 -0.1072 -0.4110
  528MOL0     O71204   1.433   8.156   3.537  0.4654 -0.2345  0.4767
  528MOL0     C71205   1.481   8.067   3.637 -0.1066 -0.5747 -0.0860
  528MOL0     C71206   1.378   7.962   3.681  0.3309  0.4269  0.2539
  528MOL0     C71207   1.276   8.017   3.781  1.8842 -0.6460  0.2298
  528MOL0     C71208   1.173   7.904   3.815  0.7810  0.1457  0.4545
  528MOL0     C71209   1.130   7.915   3.956 -0.5806 -0.1961 -0.0716
  528MOL0     C71210   1.095   7.935   4.072  0.1202  0.4485  0.2538
  528MOL0     C71211   1.489   8.278   3.340  0.8480  0.5873 -0.2749
  528MOL0     C71212   1.572   8.350   3.244  0.6968 -0.9918 -0.0133
  528MOL0     H71213   1.944   8.649   3.149  0.6089  0.9397 -0.3605
  528MOL0     H71214   2.121   8.772   3.024  0.6080  0.0979 -1.2916
  528MOL0     H71215   2.469   8.535   2.852  0.6784  1.0991  0.3128
  528MOL0     H71216   2.300   8.572   2.771 -1.0732 -1.4447  1.8075
  528MOL0     H71217   2.456   8.671   2.630 -3.1393 -1.0323 -0.1367
  528MOL0     H71218   2.397   8.803   2.727  1.0901  1.3550 -2.4060
  528MOL0     H71219   2.664   8.641   2.788 -0.2790 -0.3493  2.1570
  528MOL0     H71220   2.660   8.785   2.689  3.0559 -0.9831  1.6442
  528MOL0     H71221   2.555   8.912   2.882 -1.0839 -1.9415 -0.3118
  528MOL0     H71222   2.597   8.775   2.990 -1.6322 -2.1165 -1.1454
  528MOL0     H71223   2.813   8.768   2.931 -2.6319 -1.3803  0.4273
  528MOL0     H71224   2.812   8.913   2.824 -1.2556  2.0253  0.5233
  528MOL0     H71225   2.774   8.903   3.121 -0.5415 -1.8848 -1.1935
  528MOL0     H71226   2.901   8.980   3.038 -0.1554  0.3227 -0.7028
  528MOL0     H71227   2.750   9.151   2.942 -3.7770  2.0702  0.5435
  528MOL0     H71228   2.614   9.083   3.029 -0.1564 -0.7968 -0.4547
  528MOL0     H71229   2.865   9.198   3.170 -0.0527  3.8415  1.6053
  528MOL0     H71230   2.758   9.117   3.261 -3.3702 -0.1750 -0.2736
  528MOL0     H71231   2.772   9.446   3.070  1.1736 -2.4145  0.8692
  528MOL0     H71232   2.550   9.692   3.251 -2.6711  1.2708 -1.7298
  528MOL0     H71233   2.668   9.691   3.123 -0.5308 -0.2050 -1.4431
  528MOL0     H71234   2.380   9.612   3.075 -0.6325 -0.9364 -4.0965
  528MOL0     H71235   2.516   9.642   2.959 -2.6018 -0.3053 -1.5539
  528MOL0     H71236   2.532   9.870   3.044 -0.0772 -0.2046 -0.3790
  528MOL0     H71237   2.420   9.840   3.178 -1.9321 -0.6209 -0.6591
  528MOL0     H71238   2.358   9.818   2.890  2.1854  2.0473  1.0892
  528MOL0     H71239   2.334   9.965   2.972  0.9204 -0.8431 -1.9933
  528MOL0     H71240   2.257   9.678   2.790  1.5169 -1.3077  2.5930
  528MOL0     H71241   2.085   9.592   2.527  0.9418 -1.0299 -0.2428
  528MOL0     H71242   2.230   9.549   2.601  0.1715 -2.9376  0.5676
  528MOL0     H71243   2.100   9.436   2.606 -0.2799 -0.4257 -0.7254
  528MOL0     H71244   1.630   9.462   2.502  1.4650  0.4462  0.5312
  528MOL0     H71245   1.400   9.494   2.413  0.4532  0.2170  0.3734
  528MOL0     H71246   0.998   9.523   2.542 -2.1025  2.3510  0.6877
  528MOL0     H71247   1.093   9.522   2.690 -0.5678 -0.5243  0.3714
  528MOL0     H71248   1.100   9.786   2.648 -0.8153  1.3183 -0.6121
  528MOL0     H71249   0.946   9.751   2.576  0.6175 -0.2956 -2.3296
  528MOL0     H71250   1.032   9.667   2.869  1.6392  4.1834  0.3020
  528MOL0     H71251   0.881   9.608   2.796 -2.5031  1.9754  1.9014
  528MOL0     H71252   0.958   9.897   2.847 -2.9288  2.4595 -0.7343
  528MOL0     H71253   0.816   9.852   2.753 -3.3346  0.9481  2.8729
  528MOL0     H71254   0.874   9.794   3.050 -0.5272 -1.5042  0.7034
  528MOL0     H71255   0.748   9.714   2.971 -1.5168  2.1821  3.7900
  528MOL0     H71256   0.727   9.989   3.065 -0.4241 -1.5567  1.0028
  528MOL0     H71257   0.737  10.005   2.893 -0.8816  0.4755  0.0422
  528MOL0     H71258   0.521   9.870   3.036  1.8494  0.5732 -0.0768
  528MOL0     H71259   0.549   9.865   2.857 -0.6422  1.5201 -1.5451
  528MOL0     H71260   0.518  10.102   2.846 -2.0760  0.5352 -0.7664
  528MOL0     H71261   0.533  10.126   3.019 -3.5459  1.9314 -0.1675
  528MOL0     H71262   1.261   9.652   2.776 -1.1225 -1.7500 -0.5647
  528MOL0     H71263   1.481   9.625   2.875  2.1092  2.2535 -0.4227
  528MOL0     H71264   1.800   9.650   2.948  0.7561 -2.5613  2.6571
  528MOL0     H71265   1.954   9.770   3.085  2.0482 -0.8221  1.1982
  528MOL0     H71266   2.372   8.426   3.031 -0.7699 -0.9476 -2.2708
  528MOL0     H71267   2.176   8.290   3.151  0.9892  0.5811 -0.1986
  528MOL0     H71268   1.857   8.311   3.437  0.2936  1.5133 -0.6908
  528MOL0     H71269   1.699   8.214   3.592 -0.6055 -0.5538  0.7432
  528MOL0     H71270   1.576   8.022   3.606  1.4029  0.4055  2.7142
  528MOL0     H71271   1.507   8.141   3.714  1.0048  2.8722 -3.4994
  528MOL0     H71272   1.428   7.876   3.725 -2.1890 -0.5811  1.2927
  528MOL0     H71273   1.334   7.921   3.589  0.8980 -1.8093  0.9437
  528MOL0     H71274   1.232   8.102   3.728  1.8233 -1.8334 -1.7170
  528MOL0     H71275   1.334   8.042   3.870  0.2483  1.6723  0.7259
  528MOL0     H71276   1.221   7.806   3.801  0.2778  0.1432 -1.4812
  528MOL0     H71277   1.088   7.903   3.746  1.2877 -0.7902 -0.1928
  528MOL0     H71278   1.064   7.959   4.172 -1.0092  0.9062 -0.1808
  528MOL0     H71279   1.386   8.255   3.313  1.5832 -1.0574 -1.9793
  528MOL0     H71280   1.540   8.385   3.147  1.2544 -0.5296 -0.0417
  529MOL0     O71281   9.129   6.418   1.652  0.2604 -0.4411 -0.7091
  529MOL0     C71282   9.022   6.405   1.593 -0.2408 -0.7197 -0.9963
  529MOL0     O71283   8.970   6.481   1.489  0.6859  0.1708  0.5537
  529MOL0     C71284   9.027   6.595   1.442 -0.0216  0.1687  0.5792
  529MOL0     C71285   9.163   6.600   1.397  0.4490 -0.3242  0.6673
  529MOL0     C71286   9.219   6.713   1.352 -0.3181  0.0001 -0.5936
  529MOL0     C71287   9.144   6.831   1.362 -0.3760 -0.2191  0.2885
  529MOL0     O71288   9.195   6.947   1.310  0.3053 -0.0553 -0.4136
  529MOL0     C71289   9.134   7.079   1.319 -0.0893  0.3525  0.2571
  529MOL0     C71290   9.226   7.193   1.291  0.7560  0.1956  0.3677
  529MOL0     C71291   9.321   7.202   1.419 -0.4732 -0.4643  0.3723
  529MOL0     C71292   9.424   7.314   1.415  0.5158 -0.4981 -0.4004
  529MOL0     C71293   9.528   7.298   1.536 -0.0659  0.2547 -0.1980
  529MOL0     C71294   9.641   7.394   1.530  0.0145 -0.7453 -0.6653
  529MOL0     C71295   9.628   7.509   1.628 -0.6098 -0.5877  0.3200
  529MOL0     C71296   9.743   7.609   1.594 -0.3602  0.4003 -0.1145
  529MOL0     N71297   9.749   7.725   1.688  0.8709  0.6700  0.4742
  529MOL0     C71298   9.661   7.829   1.667  0.1398 -0.2428 -0.5577
  529MOL0     C71299   9.681   7.905   1.779 -0.5314 -0.9639  0.3209
  529MOL0     C71300   9.624   8.038   1.799 -0.3031 -0.4030  0.7357
  529MOL0     C71301   9.519   8.038   1.911  0.0356  0.9722  0.0772
  529MOL0     C71302   9.428   8.154   1.900 -0.4820 -0.0790  0.6164
  529MOL0     C71303   9.300   8.148   1.993 -0.0840  0.4318 -0.2007
  529MOL0     O71304   9.252   8.285   1.989 -0.7060  0.5223 -0.4489
  529MOL0     C71305   9.134   8.305   2.058  0.5065  0.4062 -0.0706
  529MOL0     C71306   9.084   8.221   2.155 -0.7815 -0.5550  0.7542
  529MOL0     C71307   8.961   8.243   2.219  0.9161 -0.0506 -0.0944
  529MOL0     C71308   8.916   8.145   2.321 -0.2047 -0.7196 -0.0708
  529MOL0     C71309   8.880   8.356   2.181  0.3633 -0.4492  0.2502
  529MOL0     C71310   8.743   8.387   2.230 -0.0368 -0.3173 -0.6139
  529MOL0     O71311   8.655   8.290   2.215  0.1590  0.5663  0.2560
  529MOL0     C71312   8.523   8.323   2.241 -0.5863 -1.1276 -0.7093
  529MOL0     C71313   8.458   8.406   2.153 -1.3997  1.0346 -0.2185
  529MOL0     C71314   8.324   8.436   2.179  0.0687  0.8803 -0.3246
  529MOL0     C71315   8.250   8.393   2.289 -0.0601  0.2827  0.0170
  529MOL0     O71316   8.118   8.434   2.294  0.0812 -0.3421  0.3508
  529MOL0     C71317   8.028   8.366   2.383  0.0372  0.8555 -0.0854
  529MOL0     C71318   8.001   8.220   2.321 -0.4519 -0.6013  0.0255
  529MOL0     C71319   7.885   8.140   2.396 -0.4704  1.2933  0.3976
  529MOL0     C71320   7.746   8.175   2.342 -0.5507 -0.6594  0.4977
  529MOL0     C71321   7.637   8.117   2.430 -0.5494 -0.1764 -0.1620
  529MOL0     C71322   7.501   8.184   2.396  0.4606 -0.4591  0.3842
  529MOL0     C71323   7.388   8.103   2.461 -0.4626 -0.2638  0.6387
  529MOL0     C71324   7.255   8.125   2.397  0.4858  0.5606 -0.1057
  529MOL0    Cl71325   7.195   8.285   2.451 -0.2327  0.2176 -0.2164
  529MOL0     C71326   8.313   8.306   2.380 -0.0261  0.4693  0.3501
  529MOL0     C71327   8.451   8.280   2.355  0.4656  0.4685  0.4460
  529MOL0     O71328   8.715   8.501   2.263  0.4446 -0.0323 -0.0879
  529MOL0     C71329   8.934   8.450   2.090 -0.9523 -0.0539  0.2364
  529MOL0     C71330   9.053   8.424   2.036  0.2937  0.8071 -0.4499
  529MOL0     N71331   9.786   7.861   1.858  0.2977 -0.4840  0.7894
  529MOL0     N71332   9.821   7.743   1.803 -0.2502 -0.0582 -0.1455
  529MOL0     C71333   9.014   6.840   1.418 -0.6043 -1.1510 -0.7989
  529MOL0     C71334   8.956   6.712   1.453 -0.1333 -0.7976  0.2274
  529MOL0     C71335   8.956   6.283   1.620  0.3503  0.4899 -0.1501
  529MOL0     C71336   9.023   6.164   1.670 -0.1877  0.1342 -0.5082
  529MOL0     C71337   8.946   6.047   1.695  0.8356  0.0230 -0.3995
  529MOL0     C71338   8.806   6.039   1.673 -1.5559 -0.5765  1.2875
  529MOL0     O71339   8.728   5.935   1.685 -0.2279  0.0377  0.0976
  529MOL0     C71340   8.757   5.857   1.808 -0.0621  0.4484  0.4852
  529MOL0     C71341   8.628   5.779   1.849  0.5409 -0.4094  0.0287
  529MOL0     C71342   8.527   5.878   1.909  0.7091  0.1502  0.3672
  529MOL0     C71343   8.391   5.813   1.919  0.4001 -0.2225 -0.4747
  529MOL0     C71344   8.293   5.907   1.968 -0.0083 -0.0493  0.6073
  529MOL0     C71345   8.214   5.984   2.005  0.1891  0.5460 -0.0164
  529MOL0     C71346   8.745   6.161   1.633 -0.3937  0.4181  0.4400
  529MOL0     C71347   8.817   6.275   1.601 -0.4702  0.2385 -0.6361
  529MOL0     H71348   9.210   6.502   1.383 -1.1681 -0.8463 -1.8685
  529MOL0     H71349   9.317   6.729   1.308 -0.3745  0.2092 -0.6482
  529MOL0     H71350   9.041   7.080   1.262 -1.5453 -0.1965  2.4820
  529MOL0     H71351   9.090   7.100   1.417 -1.3732  1.8190 -0.5920
  529MOL0     H71352   9.287   7.171   1.203 -0.1282 -3.7800  0.5603
  529MOL0     H71353   9.165   7.281   1.265 -0.7078 -1.2062 -1.1733
  529MOL0     H71354   9.276   7.207   1.518  1.1297 -1.3943  1.1994
  529MOL0     H71355   9.373   7.106   1.424 -0.4733 -0.4856  0.0116
  529MOL0     H71356   9.482   7.311   1.322  2.7897  0.0708  0.9287
  529MOL0     H71357   9.363   7.405   1.421 -1.3373 -1.6918 -0.4930
  529MOL0     H71358   9.466   7.300   1.626 -2.6443  2.5011 -1.8381
  529MOL0     H71359   9.578   7.201   1.527 -0.3356  0.2735 -2.9347
  529MOL0     H71360   9.734   7.339   1.545  0.7641  0.6308 -0.0854
  529MOL0     H71361   9.652   7.418   1.424  0.1724  0.6746 -0.3502
  529MOL0     H71362   9.529   7.554   1.617 -0.8442 -1.3346 -0.7691
  529MOL0     H71363   9.638   7.463   1.727 -0.3893 -4.6380 -1.3740
  529MOL0     H71364   9.726   7.649   1.494  0.0556  0.7033 -0.0648
  529MOL0     H71365   9.828   7.542   1.607 -1.0211 -1.1058 -2.7698
  529MOL0     H71366   9.583   7.836   1.592  0.2054 -0.5193 -0.6503
  529MOL0     H71367   9.706   8.105   1.824 -0.9042  0.2089  1.1178
  529MOL0     H71368   9.592   8.079   1.702  2.7553 -0.2276 -0.2872
  529MOL0     H71369   9.567   8.030   2.009  1.4430 -2.2120 -0.7444
  529MOL0     H71370   9.473   7.940   1.897  2.7715 -0.2091 -1.4686
  529MOL0     H71371   9.385   8.173   1.801  1.3463 -0.4966 -0.2927
  529MOL0     H71372   9.486   8.239   1.937  3.7532 -2.0141 -0.9741
  529MOL0     H71373   9.331   8.113   2.092 -1.8770  0.5364  0.4229
  529MOL0     H71374   9.233   8.068   1.960  0.9169 -0.3162 -0.4578
  529MOL0     H71375   9.150   8.142   2.191 -0.3057 -0.9532 -0.9013
  529MOL0     H71376   8.889   8.053   2.268 -0.7814 -0.2750 -0.5724
  529MOL0     H71377   9.001   8.118   2.384  0.4678 -3.2994 -1.9370
  529MOL0     H71378   8.830   8.173   2.382 -0.7066 -2.5857  0.1451
  529MOL0     H71379   8.509   8.433   2.061  3.0357 -4.3909  0.0860
  529MOL0     H71380   8.275   8.505   2.111 -0.4433  2.4393  1.5327
  529MOL0     H71381   8.061   8.365   2.487 -2.0723  0.7922  0.6334
  529MOL0     H71382   7.931   8.418   2.389 -0.0810  0.8840 -1.6632
  529MOL0     H71383   7.976   8.228   2.214  2.4042 -0.5774 -0.7003
  529MOL0     H71384   8.088   8.155   2.326 -1.2337 -1.5800  3.3756
  529MOL0     H71385   7.899   8.161   2.502  2.0860  0.9100  0.1927
  529MOL0     H71386   7.888   8.032   2.379  0.6027  1.1861  1.1940
  529MOL0     H71387   7.733   8.284   2.347 -4.5466 -0.9102 -0.5331
  529MOL0     H71388   7.737   8.161   2.234 -0.3822 -1.5361  0.5890
  529MOL0     H71389   7.666   8.147   2.531  1.7450 -0.6239 -0.6237
  529MOL0     H71390   7.629   8.008   2.421 -1.4648 -0.2095  0.8639
  529MOL0     H71391   7.501   8.288   2.429  1.3876 -0.0516 -0.8045
  529MOL0     H71392   7.485   8.194   2.288 -1.3495  1.7489  0.7760
  529MOL0     H71393   7.386   8.135   2.566  1.3944  2.8716 -0.1174
  529MOL0     H71394   7.405   7.995   2.464  1.1091 -0.4007 -4.2105
  529MOL0     H71395   7.187   8.051   2.441 -3.8107  3.4593 -1.2998
  529MOL0     H71396   7.255   8.107   2.289  4.1143 -6.6764  0.4888
  529MOL0     H71397   8.259   8.272   2.468  0.3839 -1.0102  0.0604
  529MOL0     H71398   8.497   8.219   2.432  0.1289 -0.3682 -0.0020
  529MOL0     H71399   8.875   8.531   2.049  2.6567  1.3049 -2.7875
  529MOL0     H71400   9.089   8.485   1.954  0.8071  0.9074 -0.1570
  529MOL0     H71401   8.971   6.937   1.439  0.0993 -0.7423 -1.1905
  529MOL0     H71402   8.852   6.707   1.485 -1.5095  3.0723 -2.8064
  529MOL0     H71403   9.124   6.154   1.708 -1.5559  0.2555  3.6260
  529MOL0     H71404   8.989   5.950   1.719 -1.0700 -0.7610  0.0753
  529MOL0     H71405   8.831   5.778   1.790 -1.2907 -1.8903  4.4251
  529MOL0     H71406   8.787   5.925   1.889  1.4137 -1.1780  1.3996
  529MOL0     H71407   8.659   5.715   1.932 -0.0456  0.6122  1.0703
  529MOL0     H71408   8.591   5.708   1.775  1.1761 -0.4886 -0.2168
  529MOL0     H71409   8.508   5.956   1.835 -2.4179 -3.5306 -3.2074
  529MOL0     H71410   8.556   5.902   2.012 -1.9332  1.1988  0.9393
  529MOL0     H71411   8.381   5.736   1.995  0.5258  0.0629 -0.1631
  529MOL0     H71412   8.365   5.773   1.820  0.9250 -1.7287 -0.0170
  529MOL0     H71413   8.126   6.033   2.040 -0.7266  0.2024 -1.7418
  529MOL0     H71414   8.642   6.162   1.598  0.2918  1.5768 -1.6695
  529MOL0     H71415   8.758   6.364   1.579  0.7063  1.2462  0.1307
  530MOL0     O71416   1.601   7.460   2.314 -0.5094 -0.3949  0.2895
  530MOL0     C71417   1.659   7.395   2.221  0.0887 -0.7163  0.0117
  530MOL0     O71418   1.786   7.357   2.229 -0.5034  0.6173  0.3591
  530MOL0     C71419   1.872   7.418   2.314  0.2917  0.4594  0.6316
  530MOL0     C71420   1.962   7.340   2.384  0.0049  0.0855  0.8178
  530MOL0     C71421   2.046   7.410   2.474 -0.0986 -0.1003 -0.5148
  530MOL0     C71422   2.034   7.550   2.503 -1.0075  0.0290  0.2744
  530MOL0     O71423   2.103   7.597   2.610 -1.1164  0.1156 -0.2555
  530MOL0     C71424   2.096   7.739   2.652 -0.6943  0.7436  0.7828
  530MOL0     C71425   2.001   7.755   2.760  0.2169 -0.3822 -0.5129
  530MOL0     C71426   2.014   7.635   2.858 -0.2072 -0.1041  0.3669
  530MOL0     C71427   1.953   7.664   2.995 -0.2148 -0.0052  0.2028
  530MOL0     C71428   1.971   7.548   3.090  0.7840  0.1013  0.4997
  530MOL0     C71429   1.895   7.585   3.219  0.2077 -0.8005  0.6823
  530MOL0     C71430   1.902   7.483   3.330  0.9829 -0.5631 -0.0875
  530MOL0     C71431   1.852   7.342   3.300 -0.4225  0.4463  0.5388
  530MOL0     N71432   1.711   7.345   3.254  0.3561  0.7917 -0.0173
  530MOL0     C71433   1.601   7.385   3.330  0.0795 -0.1120 -1.1300
  530MOL0     C71434   1.497   7.340   3.267  0.4268 -0.1005 -0.4395
  530MOL0     C71435   1.349   7.337   3.314 -0.3461  0.3528  0.3963
  530MOL0     C71436   1.320   7.198   3.366  0.3863 -0.1395  0.3339
  530MOL0     C71437   1.177   7.188   3.404  0.8038  0.3842  0.3680
  530MOL0     C71438   1.158   7.218   3.554 -0.7154 -0.7323 -0.5735
  530MOL0     O71439   1.177   7.358   3.585 -0.1260 -0.3619 -0.7158
  530MOL0     C71440   1.070   7.433   3.622  0.4880 -0.5577  0.4644
  530MOL0     C71441   0.967   7.389   3.710 -0.1770 -0.2858  0.6523
  530MOL0     C71442   0.856   7.475   3.738 -0.0155  0.3119  0.4701
  530MOL0     C71443   0.738   7.415   3.802 -0.2924 -0.0386 -0.9117
  530MOL0     C71444   0.862   7.612   3.700  0.3413 -0.8976  0.2386
  530MOL0     C71445   0.761   7.716   3.753 -0.6677 -0.1892  0.1874
  530MOL0     O71446   0.776   7.842   3.707  0.0024  0.0819 -0.2319
  530MOL0     C71447   0.704   7.953   3.762 -1.2752  0.2837  0.0587
  530MOL0     C71448   0.586   7.995   3.709 -1.0417  1.3630 -0.1833
  530MOL0     C71449   0.515   8.097   3.769 -0.2450  0.0766  0.3281
  530MOL0     C71450   0.565   8.164   3.885 -0.4818 -0.5275  0.6166
  530MOL0     O71451   0.476   8.250   3.946  0.3910  0.0882  0.1479
  530MOL0     C71452   0.481   8.258   4.085 -0.2026 -0.3340 -0.0511
  530MOL0     C71453   0.398   8.379   4.136 -0.0057  0.0748 -0.1919
  530MOL0     C71454   0.396   8.400   4.289 -0.5309  0.1509  0.0638
  530MOL0     C71455   0.335   8.536   4.312 -0.1087  0.0046 -0.7231
  530MOL0     C71456   0.322   8.577   4.463 -0.2414 -0.6077 -1.5774
  530MOL0     C71457   0.258   8.711   4.483  0.2930  0.1159 -0.0340
  530MOL0     C71458   0.111   8.721   4.443  0.0367  0.8863  0.4226
  530MOL0     C71459   0.013   8.793   4.544  0.3834 -1.2766 -0.7702
  530MOL0    Cl71460  -0.039   8.692   4.678 -0.2114 -0.1705  0.1620
  530MOL0     C71461   0.691   8.128   3.933  0.2750  0.6302 -0.0242
  530MOL0     C71462   0.763   8.026   3.873  0.2362  0.2580  0.1819
  530MOL0     O71463   0.663   7.682   3.816  0.2645  0.0460 -0.7523
  530MOL0     C71464   0.962   7.653   3.618  0.1607  0.1608  0.3435
  530MOL0     C71465   1.059   7.562   3.572  0.3023  0.5960  0.9591
  530MOL0     N71466   1.536   7.286   3.143 -0.1932  0.4563 -0.5149
  530MOL0     N71467   1.665   7.299   3.139 -0.2640  0.1646  0.3041
  530MOL0     C71468   1.936   7.611   2.426  0.4761 -0.0212 -0.3076
  530MOL0     C71469   1.863   7.548   2.335  0.0956  0.3263  0.2588
  530MOL0     C71470   1.588   7.358   2.094 -0.2814 -0.1512  0.5318
  530MOL0     C71471   1.458   7.400   2.076  0.9969  0.5922  0.2624
  530MOL0     C71472   1.386   7.367   1.963 -0.2412 -0.0814 -0.1200
  530MOL0     C71473   1.446   7.272   1.871  0.1341 -0.2248 -0.4513
  530MOL0     O71474   1.363   7.227   1.768  0.0749  0.5588 -0.9232
  530MOL0     C71475   1.374   7.097   1.704 -0.0015  0.8375  0.4236
  530MOL0     C71476   1.350   6.984   1.801  0.4422  0.8006 -0.2157
  530MOL0     C71477   1.376   6.841   1.731 -0.1136 -0.1892  0.5983
  530MOL0     C71478   1.336   6.725   1.826  0.1745 -0.1361 -0.7544
  530MOL0     C71479   1.427   6.713   1.942  0.2939 -0.2644  0.8714
  530MOL0     C71480   1.500   6.717   2.037  0.0941 -0.0569  0.1367
  530MOL0     C71481   1.570   7.217   1.898 -0.4936  0.2622  0.7178
  530MOL0     C71482   1.648   7.261   2.004  0.0651  0.1590 -0.2197
  530MOL0     H71483   1.956   7.234   2.361 -1.0168  0.3851 -0.4189
  530MOL0     H71484   2.115   7.356   2.538 -2.1465  0.2632  2.1445
  530MOL0     H71485   2.198   7.766   2.683 -0.7367 -1.5778  3.3506
  530MOL0     H71486   2.068   7.797   2.564  1.2155 -0.2414 -0.5450
  530MOL0     H71487   2.036   7.847   2.808 -2.5289  1.9215 -2.4879
  530MOL0     H71488   1.898   7.761   2.723 -0.0557 -1.5692  0.0208
  530MOL0     H71489   1.982   7.539   2.816 -0.6397  1.3182 -2.8015
  530MOL0     H71490   2.119   7.618   2.880  0.2724 -0.9428 -2.2641
  530MOL0     H71491   1.997   7.756   3.036  1.4275 -0.1683 -1.1105
  530MOL0     H71492   1.849   7.691   2.973  0.2101  0.3441 -1.5246
  530MOL0     H71493   1.935   7.459   3.036 -0.4282 -0.0056  1.4348
  530MOL0     H71494   2.076   7.527   3.112  0.6671  0.0110  0.9744
  530MOL0     H71495   1.927   7.681   3.261 -0.9425 -0.8071  1.6154
  530MOL0     H71496   1.792   7.602   3.187  0.7705 -1.9220 -1.9767
  530MOL0     H71497   2.003   7.476   3.373 -0.0483  0.3719  2.6681
  530MOL0     H71498   1.839   7.533   3.404  1.5845  2.2608 -1.3589
  530MOL0     H71499   1.858   7.283   3.392 -1.8078  1.5003  1.3523
  530MOL0     H71500   1.916   7.288   3.230  0.9345 -1.0270  2.7944
  530MOL0     H71501   1.601   7.427   3.430  0.1516  2.1391 -2.0069
  530MOL0     H71502   1.340   7.413   3.393 -3.3435 -2.3178  2.9176
  530MOL0     H71503   1.286   7.366   3.229  0.8234  0.8718 -0.3202
  530MOL0     H71504   1.386   7.167   3.447  3.1716  3.3716 -0.3132
  530MOL0     H71505   1.340   7.138   3.276  0.0664 -5.8007  3.5690
  530MOL0     H71506   1.135   7.091   3.376  1.0800  0.2899  0.2755
  530MOL0     H71507   1.119   7.261   3.347 -2.1711 -1.7078  0.4946
  530MOL0     H71508   1.223   7.157   3.617 -1.8789  0.2645  1.7212
  530MOL0     H71509   1.059   7.182   3.584 -0.7446 -0.1077  0.0991
  530MOL0     H71510   0.978   7.290   3.754 -0.6565 -0.2049  0.9610
  530MOL0     H71511   0.741   7.305   3.798  1.6475  0.0144 -2.9739
  530MOL0     H71512   0.719   7.451   3.904 -3.4380  1.0805 -1.8123
  530MOL0     H71513   0.651   7.455   3.750  0.3718  3.6805  0.5158
  530MOL0     H71514   0.529   7.945   3.631 -1.2486  3.0877 -1.1891
  530MOL0     H71515   0.416   8.125   3.732  0.8023  0.0010 -2.8250
  530MOL0     H71516   0.436   8.166   4.122  3.0628 -1.3335  1.8421
  530MOL0     H71517   0.582   8.266   4.126 -1.0962 -0.5700  2.3392
  530MOL0     H71518   0.430   8.473   4.089 -0.0769 -0.6380 -1.7089
  530MOL0     H71519   0.293   8.357   4.120 -0.0395 -3.5209  3.3275
  530MOL0     H71520   0.500   8.405   4.324  0.5587  0.2299 -2.8471
  530MOL0     H71521   0.345   8.316   4.336 -1.7584  0.0187 -1.4031
  530MOL0     H71522   0.395   8.614   4.264 -0.9080 -0.5965 -2.7693
  530MOL0     H71523   0.236   8.541   4.265 -1.1837  1.0490  1.4727
  530MOL0     H71524   0.420   8.577   4.511 -1.0019 -1.1802  0.0507
  530MOL0     H71525   0.270   8.494   4.513  0.3000 -1.0708 -1.7665
  530MOL0     H71526   0.268   8.730   4.590 -0.1259  0.6963 -0.0945
  530MOL0     H71527   0.305   8.785   4.417 -2.2167  0.3351 -1.7276
  530MOL0     H71528   0.074   8.620   4.461  2.1332  0.1172  0.6403
  530MOL0     H71529   0.093   8.747   4.338 -4.3772 -2.5616 -0.0075
  530MOL0     H71530  -0.076   8.821   4.487 -1.9525 -2.1834  2.1486
  530MOL0     H71531   0.062   8.880   4.589 -0.8984 -0.4374 -0.9374
  530MOL0     H71532   0.746   8.169   4.017  0.6252 -0.9493  0.5425
  530MOL0     H71533   0.859   7.991   3.909 -0.5929 -0.6410  1.6608
  530MOL0     H71534   0.976   7.749   3.570  1.6081 -0.6637 -0.9911
  530MOL0     H71535   1.112   7.603   3.486  1.5579 -2.0069  0.3670
  530MOL0     H71536   1.895   7.707   2.457 -2.4246 -1.2919  0.0897
  530MOL0     H71537   1.784   7.606   2.289  0.3890  0.6133  0.1161
  530MOL0     H71538   1.412   7.453   2.158  0.1048  0.0030  0.1578
  530MOL0     H71539   1.281   7.394   1.949 -0.1983  0.0279 -0.2444
  530MOL0     H71540   1.308   7.084   1.618 -1.0250  1.8534  1.0199
  530MOL0     H71541   1.473   7.083   1.660 -0.2751 -1.9076  0.5574
  530MOL0     H71542   1.243   6.991   1.823  0.4670  0.3802  0.0456
  530MOL0     H71543   1.401   6.998   1.897  0.1908  0.6719 -0.0624
  530MOL0     H71544   1.479   6.833   1.696 -0.0668  2.6467 -0.2222
  530MOL0     H71545   1.313   6.841   1.641 -0.5682  2.6169  0.8322
  530MOL0     H71546   1.332   6.625   1.781 -0.9591 -0.1065 -0.7640
  530MOL0     H71547   1.232   6.743   1.854  0.3163 -0.9486  0.3596
  530MOL0     H71548   1.571   6.716   2.118  0.5019 -1.6112 -0.2037
  530MOL0     H71549   1.618   7.151   1.828 -2.0653  0.5814 -0.7254
  530MOL0     H71550   1.746   7.218   2.026  0.2736  0.5416 -0.3921
  531MOL0     O71551   9.795   8.531   6.274 -0.2002  0.1280  0.5510
  531MOL0     C71552   9.819   8.408   6.283  0.0723 -0.1066  1.0217
  531MOL0     O71553   9.728   8.306   6.284 -0.0022  0.3887 -0.1112
  531MOL0     C71554   9.592   8.329   6.259 -0.8880  0.2041  0.4043
  531MOL0     C71555   9.510   8.243   6.333  0.8847  0.6317  0.4356
  531MOL0     C71556   9.376   8.238   6.301  1.1470 -0.2668  1.1839
  531MOL0     C71557   9.317   8.331   6.219  0.5582 -0.7830  0.8541
  531MOL0     O71558   9.181   8.339   6.228 -0.5554  0.3181  0.0752
  531MOL0     C71559   9.126   8.356   6.102  1.1652 -0.2598  1.0711
  531MOL0     C71560   9.047   8.482   6.107  0.5057 -0.1658  0.2607
  531MOL0     C71561   8.944   8.493   5.994  0.2716 -0.1189 -0.3352
  531MOL0     C71562   8.842   8.613   6.028  0.6261  0.0878  0.0582
  531MOL0     C71563   8.712   8.619   5.939  0.2402 -0.1461 -0.5260
  531MOL0     C71564   8.731   8.641   5.788 -0.8666  0.1369 -0.0009
  531MOL0     C71565   8.596   8.640   5.709  0.2462 -0.2227 -0.3141
  531MOL0     C71566   8.611   8.662   5.555 -0.3408  0.0268  0.0072
  531MOL0     N71567   8.509   8.725   5.487 -1.0678  0.8212 -0.1389
  531MOL0     C71568   8.510   8.767   5.363  0.0377  0.3431  0.8592
  531MOL0     C71569   8.379   8.785   5.323  0.4326 -0.6829 -0.6597
  531MOL0     C71570   8.337   8.851   5.189 -0.3314 -0.5811 -0.0231
  531MOL0     C71571   8.208   8.809   5.137 -0.4030 -1.1169  0.9492
  531MOL0     C71572   8.076   8.839   5.223  1.2466 -0.1530  0.0091
  531MOL0     C71573   8.028   8.975   5.188  0.8101  0.3980  0.0447
  531MOL0     O71574   7.899   9.001   5.246  0.0927  0.3800  0.2185
  531MOL0     C71575   7.783   8.958   5.184  0.3721  0.4655  0.3379
  531MOL0     C71576   7.667   9.020   5.226  1.3170  0.0639  0.2229
  531MOL0     C71577   7.544   8.986   5.179  0.3423  0.3251  0.2265
  531MOL0     C71578   7.430   9.088   5.227 -0.2592  0.3438 -0.1738
  531MOL0     C71579   7.522   8.877   5.096  0.3155 -0.1055  0.2496
  531MOL0     C71580   7.390   8.847   5.024  0.2411  0.2354 -0.8803
  531MOL0     O71581   7.387   8.736   4.941  0.6260  0.3423 -0.5668
  531MOL0     C71582   7.275   8.695   4.874  0.4078 -0.5272 -0.0235
  531MOL0     C71583   7.295   8.593   4.772 -0.3888 -0.2266  0.3365
  531MOL0     C71584   7.187   8.537   4.696  0.5319  0.4255  0.0013
  531MOL0     C71585   7.060   8.585   4.711  0.0587 -0.0021 -0.4436
  531MOL0     O71586   6.970   8.539   4.620  0.5126 -0.2751 -0.5195
  531MOL0     C71587   6.859   8.633   4.589 -0.3268 -0.3276 -0.5872
  531MOL0     C71588   6.753   8.569   4.503 -0.5178 -0.1528  0.7650
  531MOL0     C71589   6.630   8.662   4.480 -0.8418 -0.7730 -1.0371
  531MOL0     C71590   6.499   8.603   4.538 -0.0879 -0.7795 -0.0222
  531MOL0     C71591   6.451   8.490   4.439  0.0359  0.5466  0.6347
  531MOL0     C71592   6.340   8.417   4.504 -0.0354  0.5901  0.3611
  531MOL0     C71593   6.316   8.282   4.439  0.4406 -0.3304 -0.0642
  531MOL0     C71594   6.196   8.213   4.503  0.5028 -0.2659 -0.1697
  531MOL0    Cl71595   6.178   8.049   4.435  0.3530 -0.0412  0.0201
  531MOL0     C71596   7.031   8.673   4.818 -0.6073  0.2399 -0.6312
  531MOL0     C71597   7.139   8.731   4.891 -0.5652  0.4243 -0.9814
  531MOL0     O71598   7.298   8.930   5.039  0.9401  0.2628 -0.4880
  531MOL0     C71599   7.637   8.817   5.053 -0.1906 -0.2172  0.1592
  531MOL0     C71600   7.764   8.842   5.107  0.1457 -0.5589 -0.0088
  531MOL0     N71601   8.296   8.740   5.428 -0.3823 -0.1129 -0.3735
  531MOL0     N71602   8.375   8.697   5.521 -0.0528  0.6760  0.8515
  531MOL0     C71603   9.404   8.430   6.155 -0.2033 -0.1303 -0.7776
  531MOL0     C71604   9.541   8.422   6.175 -0.0964  0.2889  0.0252
  531MOL0     C71605   9.951   8.363   6.301 -0.3003  1.0252 -0.6883
  531MOL0     C71606   9.985   8.226   6.280 -0.7368  0.1102 -0.2455
  531MOL0     C71607  10.124   8.185   6.293  0.0260 -1.2658  0.7228
  531MOL0     C71608  10.220   8.280   6.327 -0.8669 -1.3827 -0.6084
  531MOL0     O71609  10.351   8.259   6.332 -0.7966 -0.2708 -0.9489
  531MOL0     C71610  10.420   8.221   6.217 -1.2104  0.2190  0.0029
  531MOL0     C71611  10.561   8.277   6.208 -0.0377 -0.9699  0.3688
  531MOL0     C71612  10.622   8.227   6.074 -0.2074  0.2761  0.8043
  531MOL0     C71613  10.756   8.293   6.043  0.5419  0.4238  0.6124
  531MOL0     C71614  10.816   8.246   5.917  0.6854 -0.9856 -0.1969
  531MOL0     C71615  10.855   8.205   5.804 -0.4838 -0.7667 -0.3598
  531MOL0     C71616  10.183   8.414   6.352  0.1253  0.6310 -0.3952
  531MOL0     C71617  10.053   8.448   6.345  0.3111  0.0098 -0.2564
  531MOL0     H71618   9.550   8.183   6.415  2.6236  0.8903 -0.1856
  531MOL0     H71619   9.311   8.180   6.365 -1.1823  1.6030  0.6430
  531MOL0     H71620   9.200   8.369   6.022 -0.4922 -2.6594 -1.0502
  531MOL0     H71621   9.059   8.274   6.073 -0.5512  1.8427 -1.4077
  531MOL0     H71622   8.995   8.481   6.203  1.9316 -0.6790  1.0471
  531MOL0     H71623   9.118   8.565   6.104 -0.8942  1.3265  3.6600
  531MOL0     H71624   8.998   8.514   5.901  1.3907 -0.9593  0.1031
  531MOL0     H71625   8.892   8.398   5.986 -1.3914  0.8444 -1.8766
  531MOL0     H71626   8.825   8.609   6.136  1.4841 -0.6715  0.1732
  531MOL0     H71627   8.885   8.710   6.002 -0.1787  0.0361 -1.6264
  531MOL0     H71628   8.657   8.525   5.940 -1.5038  0.8367  0.2712
  531MOL0     H71629   8.646   8.699   5.974 -0.4111 -2.0534  3.2167
  531MOL0     H71630   8.781   8.736   5.765  0.8283 -0.7269 -0.0425
  531MOL0     H71631   8.791   8.560   5.745 -2.2836 -0.7972 -0.2651
  531MOL0     H71632   8.549   8.547   5.742 -2.2540  1.7109  1.9959
  531MOL0     H71633   8.535   8.727   5.735 -0.7602 -1.3478  1.3231
  531MOL0     H71634   8.629   8.564   5.509 -1.4756  0.4186 -1.3572
  531MOL0     H71635   8.698   8.723   5.528  0.0332 -1.3843 -2.2555
  531MOL0     H71636   8.596   8.784   5.298 -1.5147 -1.8006 -1.9757
  531MOL0     H71637   8.324   8.958   5.210 -2.1767 -0.9649  1.0243
  531MOL0     H71638   8.416   8.849   5.114  1.8654  0.6786  2.1105
  531MOL0     H71639   8.208   8.701   5.157  1.3032 -1.2957  0.1250
  531MOL0     H71640   8.193   8.829   5.031  1.6804 -2.1817  0.3947
  531MOL0     H71641   8.098   8.828   5.329 -1.1484 -0.1655  0.5678
  531MOL0     H71642   8.001   8.762   5.205 -0.3535  1.0284  1.2893
  531MOL0     H71643   8.035   9.003   5.083  2.7615  1.7159  0.4710
  531MOL0     H71644   8.089   9.049   5.241 -0.8311  0.6723  1.6603
  531MOL0     H71645   7.680   9.107   5.290  3.0297  0.1445 -0.1926
  531MOL0     H71646   7.379   9.032   5.306 -0.1528  2.1352  1.2496
  531MOL0     H71647   7.469   9.174   5.282 -3.1938  2.3200 -0.9714
  531MOL0     H71648   7.361   9.134   5.156 -1.4015 -0.9312  0.0771
  531MOL0     H71649   7.399   8.565   4.754  0.2444  3.3335 -2.9376
  531MOL0     H71650   7.204   8.452   4.631 -3.1310 -0.2360 -0.3219
  531MOL0     H71651   6.812   8.675   4.679  1.5069  0.1849  0.1871
  531MOL0     H71652   6.910   8.712   4.534 -1.1228  0.0272 -0.8346
  531MOL0     H71653   6.785   8.554   4.400 -1.8772 -1.9982  0.5643
  531MOL0     H71654   6.731   8.476   4.556  1.8440 -0.9693  0.4361
  531MOL0     H71655   6.615   8.687   4.374  0.8805 -1.1146 -1.3881
  531MOL0     H71656   6.641   8.755   4.535 -2.4020  0.2142 -2.3107
  531MOL0     H71657   6.525   8.554   4.632  0.4140 -0.1694  0.1652
  531MOL0     H71658   6.419   8.677   4.533  0.4314 -0.0720  1.3225
  531MOL0     H71659   6.536   8.423   4.426  0.3704  0.8627  1.1276
  531MOL0     H71660   6.430   8.525   4.338 -0.2226  0.7174  0.7474
  531MOL0     H71661   6.362   8.404   4.610  2.1143  6.6450  1.0268
  531MOL0     H71662   6.251   8.478   4.488  1.2059  2.2379 -0.6235
  531MOL0     H71663   6.404   8.218   4.447  2.3630  1.8546 -2.1911
  531MOL0     H71664   6.282   8.291   4.336 -0.8249  0.2443  0.3786
  531MOL0     H71665   6.110   8.281   4.493  2.0144  1.6480 -0.6499
  531MOL0     H71666   6.206   8.202   4.612  0.4480 -0.6948 -0.2069
  531MOL0     H71667   6.928   8.693   4.845 -1.2814 -3.3849 -0.0515
  531MOL0     H71668   7.119   8.812   4.961 -0.7862 -0.8903  0.5348
  531MOL0     H71669   7.631   8.763   4.959  0.7440  0.5342 -0.3434
  531MOL0     H71670   7.846   8.780   5.072  1.5279 -0.0022  2.0977
  531MOL0     H71671   9.366   8.514   6.097  0.3442 -1.2856 -2.9052
  531MOL0     H71672   9.605   8.489   6.118  1.4930 -0.9880  0.2233
  531MOL0     H71673   9.914   8.152   6.243  0.3830 -2.0731  1.7529
  531MOL0     H71674  10.150   8.081   6.278 -4.3885 -2.5489  0.5908
  531MOL0     H71675  10.429   8.112   6.224 -0.4206  0.1426 -1.6353
  531MOL0     H71676  10.369   8.273   6.136 -0.6921  0.9756  0.1503
  531MOL0     H71677  10.625   8.247   6.291  2.1960 -0.0031 -0.9009
  531MOL0     H71678  10.559   8.386   6.210  0.1227 -0.9719  0.6741
  531MOL0     H71679  10.565   8.244   5.982  3.4786  0.5951 -1.6556
  531MOL0     H71680  10.629   8.118   6.071  1.3253  0.3610 -1.3117
  531MOL0     H71681  10.823   8.269   6.126 -0.9719 -0.6626  1.5733
  531MOL0     H71682  10.755   8.402   6.046  1.8483  0.4395  0.9113
  531MOL0     H71683  10.891   8.170   5.709  2.5174 -2.2925  1.1727
  531MOL0     H71684  10.259   8.482   6.390  0.7840 -1.1907  1.8141
  531MOL0     H71685  10.026   8.552   6.362 -0.1618 -0.5579  3.1520
  532MOL0     O71686   4.424   8.442   3.380 -0.3669  0.5632 -0.0927
  532MOL0     C71687   4.521   8.407   3.450  0.0787  0.2351  1.0608
  532MOL0     O71688   4.521   8.400   3.586  0.1434  0.0995 -0.9460
  532MOL0     C71689   4.414   8.455   3.656  1.0193 -0.0773 -0.0189
  532MOL0     C71690   4.277   8.429   3.627 -0.6125 -0.1730  0.6407
  532MOL0     C71691   4.182   8.500   3.687  0.0698  0.3110  0.6506
  532MOL0     C71692   4.207   8.577   3.793  1.1433 -1.0746  0.5259
  532MOL0     O71693   4.094   8.650   3.838  0.1185 -0.2657 -0.0607
  532MOL0     C71694   4.125   8.772   3.906  0.5376 -0.0232  0.2390
  532MOL0     C71695   3.978   8.815   3.955 -0.2143 -0.4143  0.0745
  532MOL0     C71696   3.890   8.870   3.840  0.4654  0.1383  0.1831
  532MOL0     C71697   3.736   8.854   3.873 -0.5252 -0.1490  0.0959
  532MOL0     C71698   3.626   8.907   3.772 -0.3673 -0.0843  0.0701
  532MOL0     C71699   3.492   8.866   3.813 -0.3891 -0.4313  0.7871
  532MOL0     C71700   3.404   8.935   3.705  0.1457  0.4004 -0.0003
  532MOL0     C71701   3.258   8.891   3.709 -0.0314 -0.6830 -0.0697
  532MOL0     N71702   3.180   8.945   3.821 -1.3382  0.5281 -0.0069
  532MOL0     C71703   3.146   9.074   3.832  0.9435 -0.4851 -0.5193
  532MOL0     C71704   3.063   9.087   3.941  0.1956 -0.4753 -0.0077
  532MOL0     C71705   2.989   9.205   3.989 -0.0516 -0.3775 -0.1700
  532MOL0     C71706   2.836   9.173   3.983 -0.9222  0.0722  0.8436
  532MOL0     C71707   2.790   9.083   4.101  0.2498  0.5499  0.2321
  532MOL0     C71708   2.638   9.076   4.110  1.0390 -0.5972  0.2816
  532MOL0     O71709   2.561   9.191   4.056 -0.1186  0.4056  0.3340
  532MOL0     C71710   2.427   9.204   4.094 -0.8002 -0.5503 -0.2428
  532MOL0     C71711   2.381   9.327   4.035  0.8822  0.3024 -0.1389
  532MOL0     C71712   2.242   9.351   4.035  0.4460 -0.3247 -0.8328
  532MOL0     C71713   2.203   9.479   3.971 -0.8558 -0.0918  0.1829
  532MOL0     C71714   2.155   9.267   4.113 -0.6076  0.2364 -0.1003
  532MOL0     C71715   2.011   9.280   4.136  0.5009 -0.0651  0.2891
  532MOL0     O71716   1.941   9.178   4.186  0.4165  0.2584  0.5025
  532MOL0     C71717   1.806   9.194   4.214 -0.5771  0.1921  1.0028
  532MOL0     C71718   1.709   9.195   4.117  0.1803 -0.0945 -0.0297
  532MOL0     C71719   1.580   9.207   4.148  0.4488 -0.4417 -1.1119
  532MOL0     C71720   1.533   9.204   4.289 -0.0532 -0.1649  0.9910
  532MOL0     O71721   1.403   9.192   4.311  0.6079 -0.3376 -0.3514
  532MOL0     C71722   1.354   9.232   4.438  0.3140  0.7728  0.0912
  532MOL0     C71723   1.210   9.189   4.449 -0.0628  0.4436  0.1680
  532MOL0     C71724   1.144   9.252   4.574  0.3875 -1.0678 -0.2127
  532MOL0     C71725   0.994   9.244   4.578  0.6843  0.0041 -0.7977
  532MOL0     C71726   0.937   9.311   4.704  0.5452  0.4522  0.3111
  532MOL0     C71727   0.789   9.287   4.727 -0.2152  0.0093  0.1317
  532MOL0     C71728   0.727   9.374   4.841 -0.7554  0.1095 -0.3923
  532MOL0     C71729   0.810   9.365   4.976 -0.1448 -0.1999  1.1913
  532MOL0    Cl71730   0.710   9.452   5.092 -0.0437 -0.4255 -0.1701
  532MOL0     C71731   1.629   9.182   4.380 -0.4577  0.2975 -0.4514
  532MOL0     C71732   1.765   9.177   4.344 -0.6911 -0.4203  0.1323
  532MOL0     O71733   1.961   9.393   4.097 -0.3269  0.6486 -0.3788
  532MOL0     C71734   2.206   9.150   4.161  0.4006  0.1268 -0.6658
  532MOL0     C71735   2.340   9.119   4.156  0.3549 -0.6972  0.0282
  532MOL0     N71736   3.065   8.963   3.998 -0.1313  0.6553 -0.9095
  532MOL0     N71737   3.124   8.878   3.922 -0.8192 -0.2787  0.1615
  532MOL0     C71738   4.337   8.581   3.846 -0.3895  0.6389  0.4362
  532MOL0     C71739   4.444   8.526   3.775 -0.6936  0.1344  0.4140
  532MOL0     C71740   4.630   8.356   3.362 -0.3905 -0.5792 -0.3349
  532MOL0     C71741   4.756   8.329   3.418  0.4365 -0.2616  0.9739
  532MOL0     C71742   4.858   8.287   3.338  0.6693  0.7052 -0.5228
  532MOL0     C71743   4.835   8.278   3.198  0.5102 -0.8788  0.4408
  532MOL0     O71744   4.944   8.240   3.125  0.2112  0.4510  0.1913
  532MOL0     C71745   4.926   8.170   2.995  0.9466  0.1014  0.0495
  532MOL0     C71746   4.831   8.047   3.007  0.1857 -0.1837  0.8966
  532MOL0     C71747   4.915   7.942   3.081  0.0602  1.1986 -0.2283
  532MOL0     C71748   4.849   7.806   3.066  0.8986 -0.3735  1.1325
  532MOL0     C71749   4.922   7.703   3.139 -0.3692 -1.2182  0.7956
  532MOL0     C71750   4.980   7.619   3.200  0.3492  0.3074  0.2239
  532MOL0     C71751   4.715   8.315   3.142  0.1494 -0.2581 -0.0664
  532MOL0     C71752   4.610   8.349   3.222 -0.1476 -0.4838 -0.7912
  532MOL0     H71753   4.248   8.379   3.535 -0.2091  2.7235 -1.1998
  532MOL0     H71754   4.082   8.506   3.646  0.2139  0.9045  0.3880
  532MOL0     H71755   4.174   8.746   4.000 -0.6451 -0.8442  0.6576
  532MOL0     H71756   4.186   8.834   3.840 -1.4153  1.2503 -0.4864
  532MOL0     H71757   3.934   8.726   4.000 -0.6767 -0.3607 -0.2720
  532MOL0     H71758   3.984   8.894   4.032  0.6476 -0.0900 -0.3103
  532MOL0     H71759   3.915   8.975   3.822  3.1952 -0.7937 -2.3900
  532MOL0     H71760   3.910   8.815   3.747 -2.3761  1.6282 -1.4550
  532MOL0     H71761   3.708   8.749   3.887 -0.0862 -0.0691  1.8683
  532MOL0     H71762   3.702   8.905   3.964 -1.1366  2.8443 -1.6552
  532MOL0     H71763   3.629   9.016   3.771  0.5616 -0.0592  2.1237
  532MOL0     H71764   3.636   8.865   3.671 -1.8312 -1.0568  0.3089
  532MOL0     H71765   3.487   8.757   3.822  5.4208 -1.1106 -0.2050
  532MOL0     H71766   3.480   8.915   3.910 -0.6487  2.3143 -0.5206
  532MOL0     H71767   3.419   9.043   3.708  1.2925  0.4899 -3.6404
  532MOL0     H71768   3.444   8.915   3.605  0.1432  1.9650 -0.3399
  532MOL0     H71769   3.257   8.782   3.721  0.9234 -0.5880  1.0983
  532MOL0     H71770   3.209   8.923   3.617 -0.8963 -2.1619 -0.1535
  532MOL0     H71771   3.162   9.149   3.756 -1.4379  2.3872  1.5735
  532MOL0     H71772   3.020   9.225   4.092 -1.5405  0.3355  0.1773
  532MOL0     H71773   3.017   9.288   3.922  1.2933 -0.3185  0.4295
  532MOL0     H71774   2.803   9.139   3.884 -0.1907  3.1428 -0.5959
  532MOL0     H71775   2.786   9.266   4.009 -0.5974  0.2691  0.7816
  532MOL0     H71776   2.828   9.127   4.194 -1.0528  0.3061  0.9064
  532MOL0     H71777   2.834   8.983   4.094 -1.3522 -0.5136  3.3556
  532MOL0     H71778   2.611   9.058   4.215 -0.7311 -2.5754 -0.4552
  532MOL0     H71779   2.606   8.986   4.056 -0.0959 -1.3909  2.1656
  532MOL0     H71780   2.450   9.402   3.996 -1.6333  4.4757  2.6481
  532MOL0     H71781   2.246   9.546   4.046  0.9728 -0.5291 -0.4019
  532MOL0     H71782   2.266   9.486   3.882 -1.2338  1.7765  0.0207
  532MOL0     H71783   2.101   9.495   3.936 -1.0392  2.5657  1.6274
  532MOL0     H71784   1.737   9.193   4.012 -3.5084  1.3885 -1.1901
  532MOL0     H71785   1.509   9.214   4.066  1.6984  2.1537 -2.0672
  532MOL0     H71786   1.393   9.196   4.534  0.3921 -0.8917 -0.5324
  532MOL0     H71787   1.381   9.337   4.426  2.1084  0.1651 -1.5894
  532MOL0     H71788   1.158   9.219   4.358  1.4337 -1.2135 -1.3063
  532MOL0     H71789   1.202   9.080   4.455  0.7208  0.3204 -0.7945
  532MOL0     H71790   1.166   9.359   4.569 -1.2305 -0.6379  1.0849
  532MOL0     H71791   1.186   9.222   4.671 -2.3038  1.1960  1.8333
  532MOL0     H71792   0.958   9.297   4.490  0.8225  2.5300  0.5586
  532MOL0     H71793   0.956   9.142   4.586  3.0362 -0.8441  0.7243
  532MOL0     H71794   0.951   9.420   4.697 -0.6213  0.6304  0.5429
  532MOL0     H71795   0.984   9.268   4.792 -2.1156 -2.4090  0.5267
  532MOL0     H71796   0.732   9.301   4.635  1.3027 -2.3890 -1.2682
  532MOL0     H71797   0.769   9.181   4.742 -0.3460 -0.6388 -3.7264
  532MOL0     H71798   0.624   9.349   4.865 -0.2104  0.1777  2.3806
  532MOL0     H71799   0.725   9.478   4.808  2.0343 -0.1587 -1.7271
  532MOL0     H71800   0.914   9.397   4.976 -0.2712  1.3419 -4.7223
  532MOL0     H71801   0.805   9.260   5.007 -1.1003  0.0498  1.9523
  532MOL0     H71802   1.612   9.182   4.487  0.5728  0.4620 -0.2760
  532MOL0     H71803   1.828   9.175   4.432  0.3165 -0.4408 -0.5651
  532MOL0     H71804   2.139   9.077   4.205  1.4770  0.3235  1.4326
  532MOL0     H71805   2.377   9.024   4.193 -0.5924 -1.2993 -0.5252
  532MOL0     H71806   4.355   8.644   3.932  1.6500  0.7214  0.0004
  532MOL0     H71807   4.547   8.529   3.811 -0.1737 -0.3049 -0.9862
  532MOL0     H71808   4.781   8.331   3.523  0.1390 -0.1815  1.0434
  532MOL0     H71809   4.952   8.247   3.375  0.5708  1.1884  0.2618
  532MOL0     H71810   4.891   8.236   2.915 -0.7379 -2.8503 -1.8150
  532MOL0     H71811   5.031   8.152   2.969  1.4387  1.0657  1.2591
  532MOL0     H71812   4.813   8.021   2.903 -0.4108  4.6610 -0.4598
  532MOL0     H71813   4.738   8.075   3.057 -0.9803 -0.2786 -1.1459
  532MOL0     H71814   4.929   7.976   3.184 -0.6999 -1.1121  0.6929
  532MOL0     H71815   5.017   7.939   3.040  0.4535  1.1314  0.7234
  532MOL0     H71816   4.847   7.786   2.959 -1.0186  2.6116  0.4763
  532MOL0     H71817   4.745   7.806   3.100  0.7058 -3.4305  0.7690
  532MOL0     H71818   5.034   7.544   3.254 -0.0123 -0.5441 -0.5716
  532MOL0     H71819   4.708   8.328   3.034 -0.8079 -0.4852 -0.0350
  532MOL0     H71820   4.514   8.366   3.175  0.2837  3.1498 -0.6981
  533MOL0     O71821   6.262   1.997   4.353  0.1901 -0.3819  0.0826
  533MOL0     C71822   6.208   1.946   4.448  0.0974  0.3030  0.5978
  533MOL0     O71823   6.263   1.917   4.561 -0.0505  0.8009  0.1289
  533MOL0     C71824   6.395   1.934   4.582 -0.6690  0.3954  0.7702
  533MOL0     C71825   6.432   1.998   4.708  0.2225  0.9690  0.3265
  533MOL0     C71826   6.565   1.997   4.749 -0.4348  0.7422  0.5463
  533MOL0     C71827   6.662   1.930   4.671 -0.4014  0.4097 -0.4302
  533MOL0     O71828   6.794   1.924   4.690 -0.3900 -0.1599 -0.2951
  533MOL0     C71829   6.844   1.958   4.821  0.2153 -0.2385  0.4088
  533MOL0     C71830   6.995   1.942   4.838 -0.3553 -0.6339  0.1221
  533MOL0     C71831   7.094   2.018   4.732 -0.4138  0.7133  0.3205
  533MOL0     C71832   7.243   1.972   4.758 -0.3744 -0.1586 -0.3347
  533MOL0     C71833   7.338   2.046   4.647 -0.4108  0.4504 -1.0475
  533MOL0     C71834   7.480   1.988   4.684 -0.1933 -0.1146  0.5327
  533MOL0     C71835   7.509   1.856   4.619 -0.0070 -0.1279 -0.8372
  533MOL0     C71836   7.647   1.795   4.647 -0.3082 -0.7109  0.4864
  533MOL0     N71837   7.652   1.757   4.795 -0.9223 -0.2144  0.1430
  533MOL0     C71838   7.770   1.786   4.873  1.0255 -0.2730 -0.4112
  533MOL0     C71839   7.746   1.723   4.992  0.0578  0.9535  1.8030
  533MOL0     C71840   7.822   1.720   5.116 -0.7185 -0.3107  0.9708
  533MOL0     C71841   7.915   1.604   5.148 -0.5517 -0.0330 -0.4594
  533MOL0     C71842   7.871   1.515   5.266 -0.8254 -0.4233 -0.2180
  533MOL0     C71843   7.734   1.450   5.245  0.8001  0.3474  0.0519
  533MOL0     O71844   7.713   1.356   5.344 -0.0258 -0.0990 -0.1011
  533MOL0     C71845   7.595   1.353   5.413 -0.6326  0.5067 -0.1050
  533MOL0     C71846   7.478   1.411   5.370 -0.1765  0.6861  0.3901
  533MOL0     C71847   7.354   1.400   5.434 -1.0074  0.0842  0.3091
  533MOL0     C71848   7.237   1.472   5.374 -0.5489  0.6127  0.2553
  533MOL0     C71849   7.345   1.315   5.542 -0.2373  0.3181  0.4274
  533MOL0     C71850   7.218   1.292   5.625  0.9407 -0.7402  0.7388
  533MOL0     O71851   7.229   1.209   5.733 -0.0084  0.3567  0.7934
  533MOL0     C71852   7.133   1.117   5.760  1.1249  0.2595  0.4541
  533MOL0     C71853   7.116   1.073   5.890  0.0613 -0.1181 -0.3916
  533MOL0     C71854   7.017   0.974   5.925  0.0858 -0.8433 -0.3174
  533MOL0     C71855   6.925   0.927   5.828  0.0399 -0.4788 -0.1807
  533MOL0     O71856   6.816   0.841   5.846 -0.0248 -0.3363 -0.2007
  533MOL0     C71857   6.785   0.807   5.987 -0.1632 -0.4136  0.5130
  533MOL0     C71858   6.679   0.705   5.999  0.2004 -0.8135 -0.2522
  533MOL0     C71859   6.562   0.716   5.902  0.1964  1.3235  0.0823
  533MOL0     C71860   6.448   0.628   5.939  0.1130  0.5090 -0.5212
  533MOL0     C71861   6.312   0.661   5.874 -0.1910  0.2227  0.1821
  533MOL0     C71862   6.197   0.563   5.901  0.3637 -0.8176  0.5053
  533MOL0     C71863   6.146   0.556   6.045  0.6599 -0.2451 -0.0777
  533MOL0     C71864   6.021   0.456   6.055  0.5267 -0.1728  0.5339
  533MOL0    Cl71865   6.074   0.288   6.041  0.0826 -0.2646  0.0533
  533MOL0     C71866   6.952   0.960   5.690 -0.0898 -0.3197 -0.7883
  533MOL0     C71867   7.044   1.056   5.659  0.0334 -0.4803  0.8809
  533MOL0     O71868   7.110   1.344   5.594  0.2463 -0.1562  0.7692
  533MOL0     C71869   7.467   1.248   5.580 -0.9517 -0.5479 -0.2253
  533MOL0     C71870   7.593   1.270   5.521  0.2445  0.4272 -0.6382
  533MOL0     N71871   7.613   1.671   4.980  0.0155 -0.6314 -0.3591
  533MOL0     N71872   7.567   1.692   4.868  0.8832 -0.0554 -0.0536
  533MOL0     C71873   6.632   1.879   4.549 -0.6358 -0.2342  0.1506
  533MOL0     C71874   6.494   1.872   4.513 -0.5769  0.2262 -0.3225
  533MOL0     C71875   6.057   1.940   4.450  0.9897  0.0913 -0.5089
  533MOL0     C71876   5.977   1.957   4.331 -1.2207 -0.5772 -0.5870
  533MOL0     C71877   5.839   1.978   4.332  0.5261  0.4917  0.3015
  533MOL0     C71878   5.764   1.962   4.454  0.3958 -0.1498  0.1843
  533MOL0     O71879   5.634   1.988   4.465 -0.7870  0.1586 -0.3291
  533MOL0     C71880   5.553   2.014   4.346  0.3364  0.2745  0.3208
  533MOL0     C71881   5.570   2.158   4.281  1.1462  0.9369 -0.0353
  533MOL0     C71882   5.429   2.199   4.228 -0.4913  0.4671  0.0557
  533MOL0     C71883   5.349   2.095   4.147  0.1412 -0.6520 -0.2480
  533MOL0     C71884   5.218   2.153   4.097 -0.3031 -0.3209  0.4562
  533MOL0     C71885   5.121   2.210   4.052 -0.3703 -0.0886  0.1125
  533MOL0     C71886   5.834   1.940   4.575  0.3308 -1.0920  0.3094
  533MOL0     C71887   5.973   1.929   4.570 -0.3169  0.0528  0.4042
  533MOL0     H71888   6.353   2.046   4.765 -0.1563  0.0443  0.6095
  533MOL0     H71889   6.586   2.045   4.844 -0.9718 -0.8478  1.5037
  533MOL0     H71890   6.813   2.061   4.842  1.8332  0.4537 -0.4050
  533MOL0     H71891   6.791   1.897   4.894  0.6868 -0.0056  0.9498
  533MOL0     H71892   7.021   1.984   4.936 -3.1265  1.2417  0.1818
  533MOL0     H71893   7.015   1.835   4.823 -0.2193 -0.4406 -1.1269
  533MOL0     H71894   7.067   1.993   4.628 -0.9788  0.1836  0.5856
  533MOL0     H71895   7.083   2.125   4.748  1.2509  0.8224  0.8853
  533MOL0     H71896   7.279   2.010   4.854  2.9443 -0.2444 -1.4009
  533MOL0     H71897   7.260   1.864   4.746  2.6082  0.4001 -2.1211
  533MOL0     H71898   7.313   2.005   4.548  1.3880 -3.7465 -0.0011
  533MOL0     H71899   7.326   2.154   4.654 -4.0265  0.1561 -0.3079
  533MOL0     H71900   7.558   2.056   4.648 -0.1399  1.4916  3.3672
  533MOL0     H71901   7.505   1.990   4.791 -0.5039 -1.7629  0.6647
  533MOL0     H71902   7.440   1.784   4.663 -0.6933  0.9298 -0.1270
  533MOL0     H71903   7.491   1.855   4.512  0.2631  0.7209 -0.9003
  533MOL0     H71904   7.729   1.866   4.627  0.0700 -1.4800 -0.7931
  533MOL0     H71905   7.655   1.710   4.579  0.8336  0.9234 -1.5636
  533MOL0     H71906   7.857   1.832   4.829  1.0217 -0.0694 -0.2064
  533MOL0     H71907   7.891   1.805   5.123  0.5751 -1.3883  1.8187
  533MOL0     H71908   7.756   1.745   5.200 -0.7040  2.5420  0.2508
  533MOL0     H71909   8.008   1.649   5.184 -2.2778  3.2011  0.3425
  533MOL0     H71910   7.939   1.546   5.058  0.3173  1.1602 -1.0214
  533MOL0     H71911   7.862   1.574   5.358  0.5405  0.3747 -0.5795
  533MOL0     H71912   7.956   1.447   5.278  1.3667  2.1674 -0.2074
  533MOL0     H71913   7.733   1.395   5.150  2.3150  0.9143 -0.3241
  533MOL0     H71914   7.662   1.531   5.234  0.6367  0.1494 -0.3729
  533MOL0     H71915   7.473   1.450   5.269 -2.1999  0.9925  0.5785
  533MOL0     H71916   7.184   1.393   5.320  2.4041  0.9343 -3.6215
  533MOL0     H71917   7.184   1.531   5.449  1.9271  2.0581  0.9768
  533MOL0     H71918   7.265   1.536   5.289  2.5036 -0.5895  0.2282
  533MOL0     H71919   7.168   1.114   5.976  0.3591  2.0230 -1.5067
  533MOL0     H71920   6.988   0.953   6.028  1.6101  0.9335  0.5498
  533MOL0     H71921   6.873   0.768   6.040 -1.7447 -3.0744  1.3351
  533MOL0     H71922   6.742   0.897   6.032  0.5152  1.3080 -2.0307
  533MOL0     H71923   6.722   0.608   5.973 -1.3894 -1.2334 -1.4495
  533MOL0     H71924   6.642   0.705   6.102  2.6176  1.3493  0.7496
  533MOL0     H71925   6.590   0.684   5.801 -4.3279 -1.3006 -0.6352
  533MOL0     H71926   6.527   0.819   5.900 -2.3591  0.5404 -0.3649
  533MOL0     H71927   6.471   0.522   5.927 -2.1815  0.0624 -1.5598
  533MOL0     H71928   6.436   0.637   6.047  0.4136  1.1244 -0.5326
  533MOL0     H71929   6.331   0.658   5.766 -0.9141 -0.5382  0.0687
  533MOL0     H71930   6.279   0.763   5.899  0.4475  0.6592 -0.6954
  533MOL0     H71931   6.108   0.582   5.840 -1.2104  1.0030  3.1468
  533MOL0     H71932   6.229   0.464   5.869  1.0850 -0.9601  1.5999
  533MOL0     H71933   6.111   0.654   6.078 -0.5124  0.0622 -2.0897
  533MOL0     H71934   6.225   0.520   6.111  0.7411  1.0822  0.5731
  533MOL0     H71935   5.946   0.495   5.986 -0.3050  1.8422  2.4363
  533MOL0     H71936   5.973   0.462   6.154 -1.7021 -3.3657 -0.1978
  533MOL0     H71937   6.889   0.925   5.608  1.3070 -1.8979 -1.2467
  533MOL0     H71938   7.061   1.083   5.555  0.7122 -2.1125  0.5199
  533MOL0     H71939   7.462   1.189   5.671 -2.3219  1.2448  0.9372
  533MOL0     H71940   7.682   1.222   5.560 -1.1613 -1.5829  0.3104
  533MOL0     H71941   6.708   1.824   4.494 -0.0030 -0.3077  1.0787
  533MOL0     H71942   6.463   1.811   4.429 -0.6885 -1.4179  0.8559
  533MOL0     H71943   6.023   1.955   4.233 -1.6820 -0.6080 -0.8071
  533MOL0     H71944   5.789   1.996   4.238 -3.3755  0.8428  2.2479
  533MOL0     H71945   5.584   1.938   4.274 -3.0086 -0.2358 -0.7237
  533MOL0     H71946   5.450   1.986   4.368  0.8916 -1.1845  1.2869
  533MOL0     H71947   5.632   2.148   4.192  0.1123  0.4260 -0.7252
  533MOL0     H71948   5.613   2.235   4.345  0.4692  1.7033 -0.4760
  533MOL0     H71949   5.449   2.289   4.168 -0.6256 -0.0247 -0.7481
  533MOL0     H71950   5.366   2.240   4.307  1.0924  1.3615  0.9111
  533MOL0     H71951   5.325   2.001   4.197  0.8970 -0.5751  0.2683
  533MOL0     H71952   5.410   2.074   4.059  0.6496 -1.2321  0.2437
  533MOL0     H71953   5.042   2.256   3.996  0.4945  0.4515 -0.6829
  533MOL0     H71954   5.767   1.935   4.660  2.3808 -1.4985  1.9874
  533MOL0     H71955   6.029   1.917   4.662  0.7675  2.5160  0.1356
  534MOL0     O71956   6.970   6.017   4.491  0.1820 -0.4868  0.4318
  534MOL0     C71957   6.867   6.035   4.549  0.6127  0.1377  0.2663
  534MOL0     O71958   6.843   6.115   4.653 -0.2930 -0.7231  0.1967
  534MOL0     C71959   6.941   6.177   4.720 -1.4090 -0.1413  0.6338
  534MOL0     C71960   7.078   6.133   4.732  0.0115  0.3680 -0.0117
  534MOL0     C71961   7.167   6.198   4.817 -0.4115 -0.0401  0.4736
  534MOL0     C71962   7.131   6.318   4.885 -0.0013  0.4957  0.2347
  534MOL0     O71963   7.222   6.375   4.968  0.6192 -0.0634  0.6568
  534MOL0     C71964   7.310   6.308   5.050  0.0037  0.1914 -0.1127
  534MOL0     C71965   7.452   6.299   4.987  0.2529 -0.2272 -0.8670
  534MOL0     C71966   7.527   6.192   5.068  0.1466  0.4381 -0.8740
  534MOL0     C71967   7.611   6.256   5.189 -0.4939 -0.6345 -0.6691
  534MOL0     C71968   7.716   6.354   5.152 -0.0013 -0.6065 -0.3239
  534MOL0     C71969   7.835   6.297   5.081 -0.1548  0.0961  0.5875
  534MOL0     C71970   7.932   6.219   5.167  0.4900 -1.1672 -0.1877
  534MOL0     C71971   8.060   6.181   5.086  1.0876 -0.0388  0.0283
  534MOL0     N71972   8.024   6.065   5.000 -0.0264 -0.4537  0.5545
  534MOL0     C71973   8.079   6.042   4.872 -0.1224  0.6625 -0.7206
  534MOL0     C71974   8.038   5.916   4.837 -0.0233  0.4555  0.6034
  534MOL0     C71975   8.092   5.841   4.717 -0.0810 -0.4522  0.4369
  534MOL0     C71976   8.003   5.847   4.594  1.0926 -0.5210 -1.1180
  534MOL0     C71977   7.863   5.782   4.626  0.7211 -1.0666 -0.0348
  534MOL0     C71978   7.774   5.736   4.507  0.5713 -0.3801  0.4408
  534MOL0     O71979   7.851   5.649   4.423 -0.3338 -0.2189 -1.1355
  534MOL0     C71980   7.785   5.579   4.326 -0.9645 -0.3015  0.8170
  534MOL0     C71981   7.861   5.478   4.264  0.1460  0.1515  0.5795
  534MOL0     C71982   7.811   5.395   4.168  0.3304 -0.1916 -0.3470
  534MOL0     C71983   7.906   5.299   4.102 -0.2586  0.7396  0.7524
  534MOL0     C71984   7.669   5.410   4.137 -0.4645 -0.8235 -0.1412
  534MOL0     C71985   7.600   5.329   4.029 -0.0296 -0.5589  0.4091
  534MOL0     O71986   7.462   5.333   4.019  1.0160  1.0317  0.5396
  534MOL0     C71987   7.399   5.243   3.933  0.1002  0.2790 -0.4920
  534MOL0     C71988   7.424   5.241   3.795  0.0995  0.0763 -0.2977
  534MOL0     C71989   7.319   5.198   3.701 -1.0217  0.7263 -0.2249
  534MOL0     C71990   7.202   5.140   3.752  0.5780  1.0109 -0.1412
  534MOL0     O71991   7.097   5.109   3.669  0.3509 -0.0211 -0.2285
  534MOL0     C71992   7.102   4.996   3.575  0.2180  0.5535  0.5193
  534MOL0     C71993   6.955   4.934   3.538 -1.0168 -0.1142 -0.2448
  534MOL0     C71994   6.887   4.870   3.655 -0.1581  0.2273 -0.1689
  534MOL0     C71995   6.731   4.884   3.625 -0.1951 -0.1568  0.1188
  534MOL0     C71996   6.695   4.804   3.498 -0.6536 -0.0895 -0.5397
  534MOL0     C71997   6.734   4.653   3.500 -0.7109 -0.3241 -0.3926
  534MOL0     C71998   6.667   4.571   3.387  1.0182 -0.7944 -0.2243
  534MOL0     C71999   6.708   4.417   3.389 -0.1491 -0.2012  0.9249
  534MOL0    Cl72000   6.653   4.337   3.543 -0.4588  0.6991 -0.1935
  534MOL0     C72001   7.183   5.134   3.895 -0.5270  0.5870  0.0288
  534MOL0     C72002   7.280   5.183   3.983  0.6806 -0.8693 -0.8179
  534MOL0     O72003   7.678   5.284   3.941 -0.6717  0.1742  0.0727
  534MOL0     C72004   7.592   5.515   4.198  0.1560  0.9217  0.5697
  534MOL0     C72005   7.653   5.602   4.290 -0.0344 -0.3678 -0.0086
  534MOL0     N72006   7.953   5.872   4.937  0.1570 -0.1300  0.8388
  534MOL0     N72007   7.952   5.955   5.038 -0.9300 -0.5938 -0.1111
  534MOL0     C72008   7.003   6.357   4.867 -0.8640  1.0987 -0.7708
  534MOL0     C72009   6.910   6.297   4.777 -1.4316 -0.9845 -0.5859
  534MOL0     C72010   6.759   5.943   4.515 -0.3169 -0.4206  1.1431
  534MOL0     C72011   6.768   5.848   4.405 -0.6693 -0.2932 -1.2336
  534MOL0     C72012   6.662   5.758   4.381 -0.0924 -0.6873 -0.7559
  534MOL0     C72013   6.542   5.776   4.448  0.6396  0.6541  0.3471
  534MOL0     O72014   6.438   5.689   4.421  0.1369  0.2356 -0.5439
  534MOL0     C72015   6.315   5.700   4.489  0.2310  0.2534  1.0848
  534MOL0     C72016   6.220   5.596   4.436  0.0793  0.1309 -0.8770
  534MOL0     C72017   6.076   5.658   4.405  1.0505  0.2106  0.1698
  534MOL0     C72018   5.975   5.560   4.352  0.7666 -0.7920 -0.3307
  534MOL0     C72019   5.949   5.444   4.439 -0.1138  0.0545  0.5485
  534MOL0     C72020   5.917   5.355   4.513  0.4121 -0.8220 -0.0913
  534MOL0     C72021   6.532   5.869   4.555  0.4504  0.3527  0.3990
  534MOL0     C72022   6.640   5.945   4.584  0.3410  0.3791  0.3892
  534MOL0     H72023   7.107   6.039   4.686 -0.0659 -0.4005  1.4519
  534MOL0     H72024   7.266   6.159   4.837 -0.0127  0.3076 -0.7593
  534MOL0     H72025   7.317   6.350   5.151  3.6968 -1.2652  0.3947
  534MOL0     H72026   7.275   6.204   5.061  0.6765  0.0652  0.9832
  534MOL0     H72027   7.446   6.269   4.882  1.6987  0.5248 -1.2070
  534MOL0     H72028   7.503   6.396   4.989 -2.1047  1.1431 -2.6018
  534MOL0     H72029   7.459   6.117   5.110  3.5380 -1.4265  1.8227
  534MOL0     H72030   7.602   6.143   5.006 -0.4258 -0.5457 -0.8087
  534MOL0     H72031   7.553   6.318   5.257  2.5909 -1.1193  2.7616
  534MOL0     H72032   7.653   6.182   5.258  2.2380  1.2022 -0.1835
  534MOL0     H72033   7.680   6.435   5.088  2.7621 -0.0599 -1.3446
  534MOL0     H72034   7.753   6.398   5.245  1.1701  0.1350 -1.1105
  534MOL0     H72035   7.810   6.220   5.007  1.3580 -0.0731  0.2156
  534MOL0     H72036   7.888   6.377   5.029  0.4216  0.1486  1.2469
  534MOL0     H72037   7.969   6.287   5.245  1.2127 -2.3995  0.5750
  534MOL0     H72038   7.892   6.137   5.228 -0.1939 -0.0551  0.9174
  534MOL0     H72039   8.131   6.152   5.164  0.1988  0.1436  0.9193
  534MOL0     H72040   8.087   6.264   5.020 -0.7885  0.7968  0.2426
  534MOL0     H72041   8.140   6.108   4.811  0.9359  0.9600  0.6078
  534MOL0     H72042   8.186   5.882   4.680 -0.8948 -0.0810 -1.3200
  534MOL0     H72043   8.112   5.737   4.746 -1.7063 -0.3664  2.0675
  534MOL0     H72044   8.044   5.788   4.512 -0.5407 -0.3946 -2.0731
  534MOL0     H72045   7.992   5.953   4.571  1.9233  0.3698  2.0611
  534MOL0     H72046   7.808   5.849   4.692  1.4237  0.4305 -0.9176
  534MOL0     H72047   7.872   5.686   4.678 -2.8814 -1.4804  0.0731
  534MOL0     H72048   7.743   5.821   4.445  0.4861 -1.2852 -0.7858
  534MOL0     H72049   7.682   5.688   4.542  1.4242 -2.8803 -0.4954
  534MOL0     H72050   7.962   5.460   4.298  0.7041 -1.1724 -1.5821
  534MOL0     H72051   7.881   5.305   3.995 -3.4331 -2.3477  1.1090
  534MOL0     H72052   8.014   5.310   4.113 -0.3445  1.5888  0.8143
  534MOL0     H72053   7.889   5.193   4.125  3.9760 -0.8034 -2.0439
  534MOL0     H72054   7.516   5.286   3.760  1.1745 -0.5973  1.4990
  534MOL0     H72055   7.334   5.219   3.595 -1.9527 -2.3701 -1.0788
  534MOL0     H72056   7.156   5.009   3.481  0.8007 -1.0605  0.5977
  534MOL0     H72057   7.151   4.909   3.620 -1.0592 -2.0929 -2.7839
  534MOL0     H72058   6.891   5.016   3.504 -1.4456 -0.4926 -0.3555
  534MOL0     H72059   6.958   4.854   3.464 -0.7925  0.3045 -0.6982
  534MOL0     H72060   6.903   4.920   3.751 -0.3088  0.5867 -0.3273
  534MOL0     H72061   6.916   4.767   3.677  1.2461  0.6532  0.0676
  534MOL0     H72062   6.687   4.834   3.711 -0.5782  1.7575  1.0918
  534MOL0     H72063   6.702   4.989   3.617 -1.9312 -0.6663 -0.8082
  534MOL0     H72064   6.747   4.844   3.411  0.4602  0.2255  0.2437
  534MOL0     H72065   6.589   4.819   3.475 -0.5253  0.0740 -1.0367
  534MOL0     H72066   6.840   4.661   3.474 -0.7391  1.7931 -0.0977
  534MOL0     H72067   6.742   4.605   3.598  1.5179  2.4190  0.9111
  534MOL0     H72068   6.709   4.620   3.299  2.3547 -2.5436 -0.6146
  534MOL0     H72069   6.559   4.582   3.397  1.0377 -0.9558  0.1729
  534MOL0     H72070   6.817   4.419   3.377  0.3183  0.7474  4.3122
  534MOL0     H72071   6.674   4.367   3.298 -1.6484  0.7618  0.9181
  534MOL0     H72072   7.092   5.101   3.943 -0.1491 -0.5405  0.0076
  534MOL0     H72073   7.256   5.188   4.089 -1.9087 -3.1751 -1.1888
  534MOL0     H72074   7.490   5.540   4.168  0.6394  2.5382  0.1686
  534MOL0     H72075   7.594   5.688   4.320 -2.4821 -2.3254  1.1372
  534MOL0     H72076   6.980   6.442   4.930 -2.5223  0.2750 -0.2083
  534MOL0     H72077   6.815   6.349   4.773 -0.4828  0.9952  0.7908
  534MOL0     H72078   6.855   5.848   4.341  0.4037  3.7498 -0.1058
  534MOL0     H72079   6.662   5.677   4.308 -0.4380  0.8373 -2.5399
  534MOL0     H72080   6.337   5.692   4.596 -1.2597  2.5981  1.6668
  534MOL0     H72081   6.273   5.800   4.470  0.6610  0.4696  1.2643
  534MOL0     H72082   6.223   5.506   4.498 -0.0931 -0.1181 -1.2285
  534MOL0     H72083   6.259   5.567   4.339  0.8337 -0.1302 -0.4998
  534MOL0     H72084   6.095   5.734   4.328  0.6949  1.2114  1.0528
  534MOL0     H72085   6.036   5.712   4.492 -1.2956  0.3155 -0.8926
  534MOL0     H72086   6.013   5.521   4.258 -0.0102  3.3753 -2.6252
  534MOL0     H72087   5.879   5.607   4.328 -0.7366 -3.2862  0.4595
  534MOL0     H72088   5.882   5.276   4.576 -1.6580 -0.4904 -0.7477
  534MOL0     H72089   6.445   5.889   4.616 -0.4780  0.1845 -0.8200
  534MOL0     H72090   6.630   6.017   4.665  1.5163  0.7204  0.2533
  535MOL0     O72091   0.900   7.406   7.980 -0.2202 -0.2071  0.0576
  535MOL0     C72092   0.960   7.514   7.987  0.3964  0.9722  0.0561
  535MOL0     O72093   0.896   7.643   8.024 -0.1611 -0.2127 -0.2292
  535MOL0     C72094   0.757   7.648   8.044  0.4065  0.4636  0.5997
  535MOL0     C72095   0.668   7.598   7.941  0.2861 -0.0509 -1.2077
  535MOL0     C72096   0.530   7.583   7.978 -0.3077 -0.6225 -0.1572
  535MOL0     C72097   0.484   7.623   8.103  0.0181  0.3877 -0.0425
  535MOL0     O72098   0.357   7.579   8.132  0.0246 -0.3159 -0.0088
  535MOL0     C72099   0.297   7.601   8.259 -0.0320  0.0427 -0.2191
  535MOL0     C72100   0.173   7.514   8.256  0.4698  0.3943 -1.0359
  535MOL0     C72101   0.206   7.365   8.284 -0.1327  0.6691 -0.5582
  535MOL0     C72102   0.085   7.275   8.245  0.0393 -0.1113  0.0411
  535MOL0     C72103   0.106   7.137   8.294  0.0306 -0.3624  0.0105
  535MOL0     C72104  -0.030   7.074   8.338  0.4929  0.1031 -0.5004
  535MOL0     C72105  -0.016   6.931   8.397 -0.1798 -0.7089  0.4428
  535MOL0     C72106  -0.125   6.884   8.506  0.4506 -0.9504 -0.5194
  535MOL0     N72107  -0.254   6.904   8.439 -0.9769 -0.4132  0.8352
  535MOL0     C72108  -0.297   6.819   8.340 -0.1117 -0.1814  0.2822
  535MOL0     C72109  -0.426   6.850   8.318  0.5459 -0.6846 -0.1359
  535MOL0     C72110  -0.541   6.784   8.253  0.6667  0.4857  0.0835
  535MOL0     C72111  -0.649   6.737   8.351 -0.2072  1.0961  0.2778
  535MOL0     C72112  -0.788   6.775   8.297  0.6676 -0.1971 -0.1889
  535MOL0     C72113  -0.897   6.708   8.374 -0.3249 -0.0944 -0.0487
  535MOL0     O72114  -1.013   6.733   8.296 -0.1459  0.3505  0.2483
  535MOL0     C72115  -1.129   6.662   8.323  0.4629  0.4357  0.5240
  535MOL0     C72116  -1.224   6.667   8.223 -0.6489  0.1159 -0.9288
  535MOL0     C72117  -1.349   6.617   8.244  0.9182  0.4409  0.4869
  535MOL0     C72118  -1.454   6.649   8.131 -0.0587 -0.0646 -0.5450
  535MOL0     C72119  -1.390   6.562   8.369 -0.1424 -0.0486  0.0666
  535MOL0     C72120  -1.516   6.498   8.406  0.0440 -0.1717  0.0358
  535MOL0     O72121  -1.583   6.416   8.315 -0.0578 -0.7079  0.2760
  535MOL0     C72122  -1.696   6.349   8.352 -0.2636 -1.1910  0.7447
  535MOL0     C72123  -1.829   6.389   8.329 -0.0924 -0.4064 -0.3228
  535MOL0     C72124  -1.942   6.310   8.361 -0.0495 -0.6392 -0.2690
  535MOL0     C72125  -1.923   6.191   8.427 -0.2493  0.8369 -0.4367
  535MOL0     O72126  -2.034   6.124   8.471 -0.1982  0.2712  0.0984
  535MOL0     C72127  -2.016   6.019   8.568  0.0250 -0.4368 -0.4784
  535MOL0     C72128  -2.154   5.950   8.599  0.8946 -0.0533 -0.0809
  535MOL0     C72129  -2.267   6.051   8.615 -0.0240  0.6164  0.2468
  535MOL0     C72130  -2.395   5.986   8.666  1.1360 -0.2149 -0.0401
  535MOL0     C72131  -2.493   6.085   8.721 -0.3254  0.3300  0.6228
  535MOL0     C72132  -2.629   6.028   8.780 -0.4588 -0.2424  0.2187
  535MOL0     C72133  -2.720   6.148   8.831 -0.4756  0.1006 -0.1100
  535MOL0     C72134  -2.841   6.177   8.740  0.3932  1.1216  0.2153
  535MOL0    Cl72135  -2.965   6.245   8.849  0.0994 -0.1289 -0.0253
  535MOL0     C72136  -1.796   6.152   8.456  0.5232 -0.3292  0.5660
  535MOL0     C72137  -1.680   6.221   8.412 -0.4961 -0.1633  1.0095
  535MOL0     O72138  -1.551   6.512   8.524  0.7059 -0.2684 -0.7253
  535MOL0     C72139  -1.290   6.539   8.459 -0.7090 -0.4111  0.3748
  535MOL0     C72140  -1.160   6.597   8.444 -0.2100  0.3628 -0.1116
  535MOL0     N72141  -0.445   6.971   8.383 -0.4792  0.6110  0.4576
  535MOL0     N72142  -0.341   7.003   8.449  0.9814 -0.6096  0.0813
  535MOL0     C72143   0.562   7.697   8.191  0.9103  0.3495  0.1415
  535MOL0     C72144   0.702   7.703   8.162 -0.0046  0.0304 -0.6924
  535MOL0     C72145   1.101   7.512   7.958  0.1929  1.0040  0.2426
  535MOL0     C72146   1.171   7.625   7.908  0.5134 -0.7290  0.3854
  535MOL0     C72147   1.306   7.620   7.887 -0.1072 -0.7739  1.2453
  535MOL0     C72148   1.377   7.501   7.910 -0.7296 -0.5292 -0.6725
  535MOL0     O72149   1.517   7.505   7.881  0.5311 -0.0155  0.6228
  535MOL0     C72150   1.588   7.386   7.853 -0.6979 -0.5666 -0.0505
  535MOL0     C72151   1.739   7.417   7.830 -0.0703 -0.2062  0.0556
  535MOL0     C72152   1.745   7.534   7.723  0.0950  0.2016 -0.4893
  535MOL0     C72153   1.866   7.515   7.621 -0.5794  0.1852  0.4521
  535MOL0     C72154   1.988   7.509   7.701  0.5724  0.4186 -0.3247
  535MOL0     C72155   2.082   7.478   7.783  0.0307 -0.3295 -0.3408
  535MOL0     C72156   1.315   7.392   7.962  0.0096  0.3424 -0.2002
  535MOL0     C72157   1.173   7.397   7.981  0.4430  0.3475 -0.3590
  535MOL0     H72158   0.704   7.561   7.845  2.2009 -1.1548 -0.1261
  535MOL0     H72159   0.457   7.540   7.910 -0.0696  0.6451 -1.2371
  535MOL0     H72160   0.370   7.570   8.335 -1.6574 -0.1360  1.3235
  535MOL0     H72161   0.274   7.707   8.272  1.0072 -0.1046  5.6956
  535MOL0     H72162   0.100   7.560   8.324  0.5747 -0.7197 -0.1434
  535MOL0     H72163   0.130   7.506   8.155  0.7068 -1.9015 -0.9854
  535MOL0     H72164   0.295   7.339   8.226  0.1346  1.5654 -0.5742
  535MOL0     H72165   0.233   7.361   8.390  3.6221 -2.3269 -1.4071
  535MOL0     H72166  -0.002   7.311   8.301  1.2896 -1.6139  3.1979
  535MOL0     H72167   0.049   7.294   8.144 -1.1407  1.7353  0.7517
  535MOL0     H72168   0.148   7.087   8.206 -0.3325  2.0500 -1.6227
  535MOL0     H72169   0.178   7.135   8.377 -0.0190  2.2277  0.1800
  535MOL0     H72170  -0.081   7.126   8.420 -3.6607 -0.4356 -2.4681
  535MOL0     H72171  -0.098   7.067   8.253  0.0063  3.2710 -0.4645
  535MOL0     H72172  -0.014   6.855   8.318  2.3464  1.4229 -1.7371
  535MOL0     H72173   0.084   6.926   8.442 -0.6550  0.7085  1.7599
  535MOL0     H72174  -0.128   6.943   8.599 -1.1300 -3.8783  1.4542
  535MOL0     H72175  -0.110   6.780   8.534 -0.2646 -1.5816 -2.3619
  535MOL0     H72176  -0.230   6.738   8.311  2.9915  1.3626  2.4827
  535MOL0     H72177  -0.598   6.848   8.185 -1.1601  0.0480  1.1203
  535MOL0     H72178  -0.512   6.697   8.193 -1.3401  0.6770 -1.2962
  535MOL0     H72179  -0.625   6.794   8.442  1.6954  3.0347 -1.3079
  535MOL0     H72180  -0.627   6.631   8.362 -1.3850  0.3698 -3.2722
  535MOL0     H72181  -0.799   6.757   8.190  0.6030 -0.6697 -0.1059
  535MOL0     H72182  -0.803   6.883   8.310 -1.0740 -0.5597  1.1951
  535MOL0     H72183  -0.909   6.743   8.477 -3.0761 -3.3784  0.9520
  535MOL0     H72184  -0.883   6.599   8.380 -0.7202 -0.0904  1.2012
  535MOL0     H72185  -1.197   6.704   8.125 -2.2706 -3.1378 -2.7914
  535MOL0     H72186  -1.529   6.570   8.120 -0.8213  0.8250 -2.0930
  535MOL0     H72187  -1.511   6.737   8.163  1.4598  0.8267 -0.1876
  535MOL0     H72188  -1.397   6.665   8.039 -0.5221 -0.3578 -0.8884
  535MOL0     H72189  -1.828   6.492   8.294  1.5205 -1.8122 -5.2300
  535MOL0     H72190  -2.043   6.346   8.348 -0.7477 -3.0109 -2.1644
  535MOL0     H72191  -1.960   5.944   8.511 -2.5914 -0.6759 -2.9294
  535MOL0     H72192  -1.966   6.055   8.659  1.0501 -0.6492 -0.9351
  535MOL0     H72193  -2.179   5.891   8.511 -0.2956  1.6767 -0.9556
  535MOL0     H72194  -2.138   5.890   8.690 -0.8274  0.8132  0.8328
  535MOL0     H72195  -2.296   6.112   8.529 -0.8241  1.1263  0.8594
  535MOL0     H72196  -2.235   6.119   8.694  0.8784  1.6714 -0.9791
  535MOL0     H72197  -2.443   5.931   8.584  0.0874  2.8001 -1.5857
  535MOL0     H72198  -2.375   5.913   8.745 -1.7320  0.8607  1.8348
  535MOL0     H72199  -2.511   6.147   8.633 -0.8680 -0.0521  0.4613
  535MOL0     H72200  -2.432   6.154   8.779  0.1566  0.9609 -0.5988
  535MOL0     H72201  -2.680   5.969   8.703 -0.4937  1.4773 -1.1265
  535MOL0     H72202  -2.603   5.970   8.870  1.5703  3.0624  1.9449
  535MOL0     H72203  -2.653   6.234   8.821  1.1859 -1.3461 -2.5783
  535MOL0     H72204  -2.751   6.135   8.935 -0.3494 -0.7720 -0.1708
  535MOL0     H72205  -2.864   6.090   8.678 -0.8287  1.7827 -0.2824
  535MOL0     H72206  -2.809   6.256   8.670  2.4437  3.3550  3.3762
  535MOL0     H72207  -1.772   6.064   8.515 -0.2173 -0.5405  0.5590
  535MOL0     H72208  -1.580   6.189   8.439 -0.1599  0.9531  1.1483
  535MOL0     H72209  -1.312   6.483   8.550 -0.2956 -1.2556 -0.0364
  535MOL0     H72210  -1.083   6.586   8.520  1.3408 -0.5386 -1.7177
  535MOL0     H72211   0.520   7.734   8.284 -0.8283 -0.2712 -0.3693
  535MOL0     H72212   0.771   7.740   8.237 -0.8994  0.4886 -0.0777
  535MOL0     H72213   1.127   7.721   7.881  0.0477 -1.1933 -0.5644
  535MOL0     H72214   1.359   7.709   7.855 -0.7509 -0.3384  1.3881
  535MOL0     H72215   1.590   7.309   7.931 -1.5154 -1.8376 -1.2416
  535MOL0     H72216   1.539   7.338   7.767 -2.1992  2.2546 -0.8949
  535MOL0     H72217   1.791   7.328   7.792  0.8625  0.2053  0.3365
  535MOL0     H72218   1.776   7.446   7.929 -1.3886  0.0274  0.4948
  535MOL0     H72219   1.751   7.637   7.761  2.0457  0.1688 -0.6104
  535MOL0     H72220   1.653   7.533   7.663 -1.4641  2.2829  1.6623
  535MOL0     H72221   1.879   7.599   7.552  1.1478  0.7477  1.4048
  535MOL0     H72222   1.852   7.417   7.573  0.0558 -1.1294  2.8132
  535MOL0     H72223   2.160   7.453   7.852  2.4145 -1.0540 -3.0970
  535MOL0     H72224   1.362   7.307   8.011  0.3281 -0.6089 -2.0806
  535MOL0     H72225   1.129   7.304   8.016 -0.9051  1.2873  0.5788
  536MOL0     O72226   2.044   7.190   9.981  0.4549 -0.4761  0.4110
  536MOL0     C72227   2.075   7.092  10.045  0.2066  0.2227 -0.3801
  536MOL0     O72228   1.995   7.002  10.116  0.3503  0.4976  0.4881
  536MOL0     C72229   1.862   7.025  10.129 -0.4043 -0.4330 -0.5334
  536MOL0     C72230   1.796   7.144  10.134 -1.4950  0.5395  0.7888
  536MOL0     C72231   1.659   7.143  10.135 -0.1259  0.1863 -0.8948
  536MOL0     C72232   1.581   7.030  10.153 -0.6205 -0.5127  0.1868
  536MOL0     O72233   1.445   7.056  10.149 -0.0254 -0.0025 -0.3651
  536MOL0     C72234   1.377   7.053  10.278  0.1215 -0.3833  0.5273
  536MOL0     C72235   1.238   7.124  10.275 -0.1999 -0.3611 -0.5274
  536MOL0     C72236   1.140   7.036  10.188 -0.0978  0.3105  0.1868
  536MOL0     C72237   1.005   7.111  10.175 -0.9134 -0.6378 -0.7636
  536MOL0     C72238   0.901   7.028  10.098  0.1787 -0.1968 -0.3871
  536MOL0     C72239   0.934   7.013   9.953  0.2185 -0.5178  0.4072
  536MOL0     C72240   0.864   6.893   9.876 -0.1698  0.2482 -0.3857
  536MOL0     C72241   0.877   6.930   9.725 -1.0128  0.7165 -0.5658
  536MOL0     N72242   0.811   6.823   9.644  0.4142 -0.9014 -0.8247
  536MOL0     C72243   0.674   6.841   9.624 -0.6936 -1.2242 -0.3424
  536MOL0     C72244   0.639   6.719   9.583 -0.5076 -0.1716 -0.7708
  536MOL0     C72245   0.497   6.688   9.555 -0.1409  0.4507 -1.1147
  536MOL0     C72246   0.433   6.758   9.433  0.0664  0.0269 -0.0799
  536MOL0     C72247   0.312   6.672   9.379 -0.4315  0.0338 -0.3142
  536MOL0     C72248   0.226   6.767   9.291  0.4859 -0.4434 -0.0006
  536MOL0     O72249   0.225   6.742   9.148  0.0999 -0.0345  0.0692
  536MOL0     C72250   0.140   6.652   9.098 -0.5143 -0.2103  0.4225
  536MOL0     C72251   0.004   6.679   9.104 -1.3280  0.9291  0.6139
  536MOL0     C72252  -0.089   6.582   9.057  0.7014 -0.2710 -0.0896
  536MOL0     C72253  -0.233   6.617   9.090  0.5700 -1.0435  1.3060
  536MOL0     C72254  -0.038   6.461   8.997  0.4634  0.4676 -0.2348
  536MOL0     C72255  -0.118   6.340   8.958 -0.2561  0.5244  0.1435
  536MOL0     O72256  -0.251   6.340   8.961  0.3564  0.4424 -0.2140
  536MOL0     C72257  -0.331   6.242   8.905 -0.2831 -0.3964  0.1995
  536MOL0     C72258  -0.336   6.220   8.767  0.5266  0.7785  1.0273
  536MOL0     C72259  -0.441   6.127   8.724 -1.1975 -0.2695 -0.9678
  536MOL0     C72260  -0.527   6.060   8.812 -0.1934 -1.2386 -0.5498
  536MOL0     O72261  -0.628   5.973   8.774 -0.2710 -0.5601 -0.4970
  536MOL0     C72262  -0.595   5.886   8.667 -0.3739 -0.6238  0.0694
  536MOL0     C72263  -0.680   5.758   8.696 -0.3558  0.6815  0.2697
  536MOL0     C72264  -0.694   5.663   8.572  0.2783 -0.3216 -0.0928
  536MOL0     C72265  -0.592   5.547   8.564 -0.0129 -0.3834  1.5130
  536MOL0     C72266  -0.630   5.440   8.457  0.4876  0.2245 -0.2059
  536MOL0     C72267  -0.640   5.497   8.313 -0.3639  0.2766 -0.1368
  536MOL0     C72268  -0.488   5.506   8.258  0.4858 -0.0578 -0.6138
  536MOL0     C72269  -0.419   5.379   8.211  0.0715  0.3073  0.0708
  536MOL0    Cl72270  -0.254   5.429   8.164 -0.1206  0.1713  0.1976
  536MOL0     C72271  -0.511   6.085   8.945 -0.5325 -0.3425  0.1278
  536MOL0     C72272  -0.414   6.178   8.993 -0.1688 -0.3916 -0.1698
  536MOL0     O72273  -0.054   6.243   8.926 -0.1178 -0.3858  0.5416
  536MOL0     C72274   0.103   6.441   9.005 -0.7800  0.7588  0.5681
  536MOL0     C72275   0.187   6.545   9.054 -0.0264  0.1162  0.1771
  536MOL0     N72276   0.743   6.637   9.587 -0.0501  0.3717  0.5735
  536MOL0     N72277   0.848   6.695   9.621 -0.1028  0.4085 -1.6262
  536MOL0     C72278   1.650   6.911  10.160  0.2374 -0.2408 -0.6359
  536MOL0     C72279   1.787   6.908  10.148  0.9921 -0.9384 -0.3091
  536MOL0     C72280   2.214   7.041  10.027 -0.0450 -0.8297  0.2407
  536MOL0     C72281   2.302   7.103   9.938  0.1737  1.0339  0.3687
  536MOL0     C72282   2.427   7.044   9.909  0.5969 -0.3397  0.7104
  536MOL0     C72283   2.473   6.936   9.981 -0.1675  0.0450  0.5463
  536MOL0     O72284   2.597   6.869   9.964  0.2692  0.2672 -0.1446
  536MOL0     C72285   2.710   6.941  10.030 -0.1325 -0.6480 -0.0948
  536MOL0     C72286   2.838   6.885   9.987  0.4842 -0.2614  0.9111
  536MOL0     C72287   2.852   6.744  10.050 -0.9688  0.9112  0.2166
  536MOL0     C72288   3.005   6.713  10.040  0.4404  0.3628 -0.2040
  536MOL0     C72289   3.061   6.714   9.901  0.3760 -0.6041  0.2492
  536MOL0     C72290   3.102   6.717   9.785 -0.5209 -0.1743 -0.4986
  536MOL0     C72291   2.384   6.869  10.066 -0.2122 -0.0285  0.1719
  536MOL0     C72292   2.257   6.925  10.104 -0.6857  0.0756  0.6849
  536MOL0     H72293   1.848   7.236  10.110  2.0301 -2.0984 -3.0928
  536MOL0     H72294   1.604   7.237  10.132 -0.8136 -0.1380  0.4545
  536MOL0     H72295   1.361   6.945  10.289 -3.1647 -0.1399 -0.5898
  536MOL0     H72296   1.444   7.081  10.359  1.7624  1.4359 -1.3613
  536MOL0     H72297   1.189   7.139  10.371 -1.1822 -1.1437 -0.8905
  536MOL0     H72298   1.257   7.220  10.226  0.8185 -0.4199 -0.2782
  536MOL0     H72299   1.179   7.024  10.086 -2.6533 -2.0501 -0.6392
  536MOL0     H72300   1.118   6.942  10.239 -0.1837 -0.5521 -1.3721
  536MOL0     H72301   0.978   7.134  10.279 -0.5715  0.6498 -0.9476
  536MOL0     H72302   1.015   7.204  10.119 -1.5521  0.6478  1.1592
  536MOL0     H72303   0.906   6.928  10.141  0.0645 -0.0434 -0.0182
  536MOL0     H72304   0.798   7.061  10.112  0.2742  0.4278 -1.0650
  536MOL0     H72305   0.915   7.108   9.901  2.9745 -0.2075 -0.2069
  536MOL0     H72306   1.042   6.997   9.947  0.1638 -1.7632  2.1962
  536MOL0     H72307   0.924   6.808   9.909 -0.0619  1.1512  1.9309
  536MOL0     H72308   0.761   6.875   9.908 -0.8844  2.4048 -1.3047
  536MOL0     H72309   0.985   6.937   9.709 -1.0705  2.1874 -0.4228
  536MOL0     H72310   0.837   7.031   9.712 -0.7622  0.7664 -0.9366
  536MOL0     H72311   0.608   6.921   9.655 -0.1754 -0.1691 -1.8678
  536MOL0     H72312   0.484   6.580   9.547 -2.1977  0.3603  1.6989
  536MOL0     H72313   0.439   6.724   9.640  0.9750  1.4490 -0.7371
  536MOL0     H72314   0.496   6.777   9.346 -0.2454  1.4197 -0.0163
  536MOL0     H72315   0.411   6.858   9.471  1.3851 -0.7062  2.9434
  536MOL0     H72316   0.253   6.635   9.463  1.3755 -1.3433  0.4119
  536MOL0     H72317   0.358   6.595   9.316 -0.9976  1.0185 -2.0027
  536MOL0     H72318   0.244   6.873   9.311 -0.8171 -0.1570 -0.2511
  536MOL0     H72319   0.122   6.764   9.326 -0.2389  1.0129 -1.8339
  536MOL0     H72320  -0.022   6.782   9.125 -0.7580  1.2926 -0.3936
  536MOL0     H72321  -0.263   6.580   9.189 -0.8702  1.6211  1.9455
  536MOL0     H72322  -0.257   6.723   9.088  3.3667 -0.3393 -0.7781
  536MOL0     H72323  -0.299   6.576   9.012 -3.2780  1.1983  3.0938
  536MOL0     H72324  -0.283   6.278   8.692 -1.6725 -0.5209 -1.6542
  536MOL0     H72325  -0.471   6.124   8.620 -0.3152  1.2871 -1.3150
  536MOL0     H72326  -0.613   5.921   8.565  3.3546 -0.4477 -0.6830
  536MOL0     H72327  -0.491   5.853   8.658 -0.3775 -0.4118 -0.9366
  536MOL0     H72328  -0.639   5.710   8.785 -1.3840  0.0306  0.4063
  536MOL0     H72329  -0.778   5.797   8.724 -0.7257  1.6296 -2.1010
  536MOL0     H72330  -0.678   5.722   8.481  0.8435 -0.2868  0.0269
  536MOL0     H72331  -0.798   5.631   8.566  0.5868 -1.8303  1.6382
  536MOL0     H72332  -0.488   5.577   8.547 -0.3404 -0.7179 -1.6007
  536MOL0     H72333  -0.597   5.499   8.663 -2.9398 -1.2270  1.0421
  536MOL0     H72334  -0.729   5.406   8.490  0.1424 -1.7856 -2.9680
  536MOL0     H72335  -0.562   5.356   8.472  0.0733 -0.0316  0.2481
  536MOL0     H72336  -0.694   5.436   8.239 -0.8723  2.4429 -1.6425
  536MOL0     H72337  -0.689   5.594   8.303 -0.9580  0.0891  0.8625
  536MOL0     H72338  -0.431   5.551   8.339  0.1422  2.6934 -1.7964
  536MOL0     H72339  -0.501   5.584   8.183 -1.9725 -0.7516 -1.0013
  536MOL0     H72340  -0.476   5.341   8.126 -1.1890  1.7820  0.2086
  536MOL0     H72341  -0.409   5.307   8.293 -0.5510 -0.0681 -0.1808
  536MOL0     H72342  -0.568   6.025   9.016  1.7638 -1.3480  1.2380
  536MOL0     H72343  -0.411   6.200   9.100  1.3705  0.1683 -0.3098
  536MOL0     H72344   0.151   6.362   8.948  1.3906  3.4844 -1.6537
  536MOL0     H72345   0.292   6.522   9.038  0.2361  1.3185  0.0525
  536MOL0     H72346   1.581   6.830  10.182 -2.2807  1.7092 -0.8240
  536MOL0     H72347   1.843   6.816  10.162  0.0720 -1.5357 -0.4886
  536MOL0     H72348   2.268   7.190   9.884 -3.0676 -0.5081 -0.2861
  536MOL0     H72349   2.477   7.089   9.824  0.9058 -0.9376  0.5715
  536MOL0     H72350   2.705   7.046  10.000 -1.4493 -0.4174  0.8355
  536MOL0     H72351   2.696   6.937  10.139  2.6391 -0.5213  0.3592
  536MOL0     H72352   2.921   6.950  10.017  1.5490  0.2900 -2.7547
  536MOL0     H72353   2.844   6.889   9.878 -0.8347  1.8906  0.8578
  536MOL0     H72354   2.795   6.682   9.980 -0.5026 -0.5766  1.1166
  536MOL0     H72355   2.812   6.735  10.151 -1.9992 -0.0179 -0.2473
  536MOL0     H72356   3.018   6.617  10.090 -1.4808  0.0291 -0.2814
  536MOL0     H72357   3.062   6.787  10.098 -1.4861  1.7326  0.0335
  536MOL0     H72358   3.143   6.720   9.687  0.5855 -0.5551 -0.0618
  536MOL0     H72359   2.421   6.793  10.133 -1.7020  1.6401  3.0992
  536MOL0     H72360   2.202   6.871  10.180 -0.8007 -1.9190 -0.7280
  537MOL0     O72361   0.581   3.640   3.874 -0.3441  0.0407  0.1716
  537MOL0     C72362   0.584   3.717   3.973 -1.0962  0.1559 -0.0070
  537MOL0     O72363   0.705   3.762   4.033 -0.4747 -0.5777  0.5209
  537MOL0     C72364   0.826   3.744   3.972 -0.3621  1.2358 -0.3725
  537MOL0     C72365   0.863   3.817   3.858 -0.6020  0.5542  0.3671
  537MOL0     C72366   0.982   3.803   3.790 -0.7745 -0.0571  0.3292
  537MOL0     C72367   1.067   3.706   3.836 -0.3572 -0.0916  0.5827
  537MOL0     O72368   1.199   3.684   3.784  0.7421 -0.2020 -0.2797
  537MOL0     C72369   1.225   3.760   3.662  0.0222  0.0308 -0.9993
  537MOL0     C72370   1.361   3.724   3.597  0.3326 -0.1945  0.2187
  537MOL0     C72371   1.475   3.728   3.697 -0.7181  0.3782  0.0714
  537MOL0     C72372   1.598   3.675   3.623 -0.1242  0.3657  0.3990
  537MOL0     C72373   1.719   3.671   3.715  0.5756  0.3268  0.5703
  537MOL0     C72374   1.853   3.608   3.661  0.3063  0.3946  0.0144
  537MOL0     C72375   1.956   3.595   3.778  0.8330 -0.3014  0.1944
  537MOL0     C72376   2.099   3.576   3.722  0.7864  0.7400 -0.6785
  537MOL0     N72377   2.123   3.475   3.615 -0.6548 -0.4972 -0.0521
  537MOL0     C72378   2.199   3.494   3.501  0.9678  0.5115  0.9373
  537MOL0     C72379   2.188   3.380   3.432  0.5710 -0.1448 -0.1707
  537MOL0     C72380   2.266   3.345   3.312  0.7531  0.9046 -0.3803
  537MOL0     C72381   2.183   3.381   3.182 -0.4582 -0.0004  0.8529
  537MOL0     C72382   2.195   3.532   3.142  0.6296  0.5376 -0.1965
  537MOL0     C72383   2.347   3.574   3.130  0.7526  0.0230 -0.3735
  537MOL0     O72384   2.425   3.474   3.063 -0.0983 -0.2015 -0.3659
  537MOL0     C72385   2.549   3.503   3.007 -0.4913  0.1291 -0.0568
  537MOL0     C72386   2.614   3.410   2.930  0.3444 -0.3164 -0.2171
  537MOL0     C72387   2.740   3.428   2.870  0.1137  0.6101  0.6171
  537MOL0     C72388   2.780   3.309   2.783 -0.3112 -0.4702  0.6257
  537MOL0     C72389   2.807   3.548   2.893 -0.0007  0.5854 -0.4299
  537MOL0     C72390   2.941   3.582   2.836  0.4048 -0.0733  0.7837
  537MOL0     O72391   3.012   3.493   2.749  0.3762  0.4414  0.5058
  537MOL0     C72392   3.124   3.561   2.705 -0.5540 -0.0134  0.6393
  537MOL0     C72393   3.242   3.544   2.778 -0.0765  0.3768  0.0321
  537MOL0     C72394   3.352   3.614   2.743  0.5538 -0.2166 -0.5737
  537MOL0     C72395   3.352   3.703   2.636 -0.5667  0.1612  0.3462
  537MOL0     O72396   3.471   3.776   2.619 -1.1031 -1.8335  0.9820
  537MOL0     C72397   3.520   3.781   2.486  0.1804 -0.6046 -0.0954
  537MOL0     C72398   3.608   3.909   2.475 -0.2506  0.1430 -0.3210
  537MOL0     C72399   3.702   3.889   2.352  0.7619  0.1848 -0.5091
  537MOL0     C72400   3.797   3.998   2.336  0.2095 -0.0464  0.3801
  537MOL0     C72401   3.857   4.021   2.195 -0.5031 -0.1046 -1.2146
  537MOL0     C72402   3.952   4.145   2.185  0.2930 -0.4849 -0.9678
  537MOL0     C72403   3.991   4.164   2.038  0.3019 -0.7602  0.8039
  537MOL0     C72404   4.126   4.236   2.009  0.0962  0.2835 -0.5746
  537MOL0    Cl72405   4.140   4.392   2.096 -0.0846 -0.1952  0.4167
  537MOL0     C72406   3.229   3.711   2.572  0.0844 -0.3385 -1.0955
  537MOL0     C72407   3.115   3.651   2.602  0.8811  0.3103 -0.3375
  537MOL0     O72408   2.983   3.697   2.866 -0.6391 -0.1665 -0.2923
  537MOL0     C72409   2.734   3.649   2.967 -0.1004  0.6158 -0.4183
  537MOL0     C72410   2.614   3.624   3.029  0.7900  0.7794 -0.3696
  537MOL0     N72411   2.114   3.290   3.506  0.3045 -0.2863  0.2354
  537MOL0     N72412   2.073   3.346   3.613  0.0397 -0.4075 -0.1177
  537MOL0     C72413   1.039   3.626   3.944 -0.2696 -0.3720 -0.6284
  537MOL0     C72414   0.915   3.653   4.019 -1.2705 -1.6378  0.5618
  537MOL0     C72415   0.450   3.740   4.044 -0.1632  0.3295  0.5948
  537MOL0     C72416   0.327   3.715   3.984  0.1887  0.5503 -0.3814
  537MOL0     C72417   0.204   3.744   4.062 -0.6002 -0.0176 -0.4986
  537MOL0     C72418   0.211   3.799   4.194  0.0618 -0.6641  0.8167
  537MOL0     O72419   0.101   3.822   4.279 -0.2882  0.5206  0.3550
  537MOL0     C72420  -0.031   3.822   4.237  1.0357  0.1536 -0.2163
  537MOL0     C72421  -0.109   3.718   4.319  0.0959  0.3026  0.1948
  537MOL0     C72422  -0.065   3.583   4.255  0.5249  0.6194 -0.3749
  537MOL0     C72423  -0.149   3.475   4.320  1.0476 -1.2474 -0.3621
  537MOL0     C72424  -0.105   3.452   4.459  1.0022 -0.2151  0.2445
  537MOL0     C72425  -0.080   3.435   4.569  0.2035 -0.4522  0.9039
  537MOL0     C72426   0.340   3.801   4.251 -0.0798 -0.1287  0.4544
  537MOL0     C72427   0.457   3.782   4.177  0.6135 -0.4110  0.4540
  537MOL0     H72428   0.786   3.884   3.822 -2.5221 -1.6100  0.2389
  537MOL0     H72429   1.004   3.856   3.698 -0.4843 -0.3471  0.2310
  537MOL0     H72430   1.143   3.746   3.591  0.7296  1.2434 -2.1195
  537MOL0     H72431   1.232   3.865   3.693 -0.1884 -0.3475  0.3789
  537MOL0     H72432   1.353   3.628   3.545 -2.0998  0.2893 -0.4512
  537MOL0     H72433   1.376   3.803   3.524 -3.3376  3.0736  2.5818
  537MOL0     H72434   1.501   3.828   3.731  0.7674  0.1978 -0.4754
  537MOL0     H72435   1.444   3.663   3.780 -1.5027  0.0349 -0.4767
  537MOL0     H72436   1.590   3.574   3.582  0.7950  0.5084 -0.1607
  537MOL0     H72437   1.620   3.743   3.540  1.1878  1.8081  1.8484
  537MOL0     H72438   1.751   3.766   3.758 -0.4776  0.4231  1.1843
  537MOL0     H72439   1.683   3.608   3.797 -5.5702 -0.9485 -2.5381
  537MOL0     H72440   1.843   3.506   3.622 -2.7256  0.4297  0.4597
  537MOL0     H72441   1.885   3.674   3.580 -0.0282  0.2125 -0.2734
  537MOL0     H72442   1.964   3.691   3.831  0.1720  1.5494 -2.8153
  537MOL0     H72443   1.919   3.523   3.852 -2.8081  1.5498  0.3894
  537MOL0     H72444   2.166   3.549   3.805 -2.2494 -1.9870  1.1157
  537MOL0     H72445   2.124   3.674   3.680 -0.7958  0.8364 -1.4479
  537MOL0     H72446   2.254   3.582   3.470  0.1028  0.4952 -0.7938
  537MOL0     H72447   2.368   3.386   3.318  1.4823 -0.9299  0.7263
  537MOL0     H72448   2.275   3.236   3.318  0.2393  0.9179  1.0284
  537MOL0     H72449   2.081   3.345   3.196 -0.3785 -1.3612 -1.5943
  537MOL0     H72450   2.216   3.317   3.100 -0.5265 -1.7010  2.1123
  537MOL0     H72451   2.148   3.587   3.225 -0.8786 -3.1171  1.5891
  537MOL0     H72452   2.134   3.551   3.053  1.2542 -1.7401 -1.1638
  537MOL0     H72453   2.387   3.594   3.230 -0.1820  0.5406 -0.0983
  537MOL0     H72454   2.362   3.671   3.081 -0.7873  2.1084  2.9709
  537MOL0     H72455   2.562   3.315   2.919 -0.0213 -0.0410 -1.0023
  537MOL0     H72456   2.783   3.348   2.681  0.6082 -1.8927  0.0781
  537MOL0     H72457   2.883   3.279   2.802 -0.0726  0.8620  1.6110
  537MOL0     H72458   2.720   3.218   2.785  1.0940 -1.4496 -0.3101
  537MOL0     H72459   3.241   3.488   2.871 -0.7456  2.0731  1.0951
  537MOL0     H72460   3.427   3.591   2.817 -0.4149  1.3284  0.9678
  537MOL0     H72461   3.581   3.694   2.461  0.2792 -0.1528 -1.5309
  537MOL0     H72462   3.431   3.784   2.422 -1.0516 -3.3460  1.3371
  537MOL0     H72463   3.561   4.006   2.457  1.0092  0.5807 -1.4355
  537MOL0     H72464   3.670   3.911   2.566 -0.6203 -0.1837 -0.0592
  537MOL0     H72465   3.637   3.867   2.267 -0.7193 -1.1593  0.9007
  537MOL0     H72466   3.751   3.792   2.361 -0.4049 -0.3905 -0.0000
  537MOL0     H72467   3.748   4.090   2.368 -0.9138 -1.4201  2.8417
  537MOL0     H72468   3.875   3.991   2.412 -0.1547 -2.7510  0.5883
  537MOL0     H72469   3.772   4.034   2.128 -2.6211 -2.9762  0.6529
  537MOL0     H72470   3.907   3.933   2.153  2.0982  1.5790 -1.9100
  537MOL0     H72471   3.922   4.245   2.220  0.0544 -0.5551 -0.9656
  537MOL0     H72472   4.036   4.110   2.245 -0.7317 -1.7231 -0.2118
  537MOL0     H72473   3.915   4.223   1.985  3.0265  3.0424  0.6992
  537MOL0     H72474   4.000   4.067   1.988  1.0702  0.8640 -2.5117
  537MOL0     H72475   4.123   4.259   1.902 -1.5115 -0.7359 -0.7792
  537MOL0     H72476   4.212   4.176   2.041 -0.1402  0.0706 -0.3408
  537MOL0     H72477   3.223   3.780   2.489  1.3068  1.6127  0.3645
  537MOL0     H72478   3.021   3.664   2.549 -0.0402  1.0366  1.3737
  537MOL0     H72479   2.774   3.740   3.010 -1.1943 -0.2570  2.7835
  537MOL0     H72480   2.570   3.706   3.086 -1.4089  0.9885 -2.2176
  537MOL0     H72481   1.109   3.548   3.972  0.8704  1.1313  0.9633
  537MOL0     H72482   0.879   3.587   4.098 -1.8262  0.5526  2.2291
  537MOL0     H72483   0.304   3.695   3.880 -1.8198  0.4933  0.0371
  537MOL0     H72484   0.108   3.730   4.013 -2.2868  1.5199  2.1150
  537MOL0     H72485  -0.082   3.917   4.256  1.9231  1.0510 -2.0339
  537MOL0     H72486  -0.041   3.809   4.128  0.2690 -0.3660 -0.0965
  537MOL0     H72487  -0.213   3.747   4.306  0.2185  0.3332 -0.8414
  537MOL0     H72488  -0.078   3.722   4.424  0.1130 -0.6142  0.2332
  537MOL0     H72489   0.039   3.561   4.281  0.0385  0.4871  1.6146
  537MOL0     H72490  -0.073   3.577   4.146  2.6100 -2.7173 -0.4919
  537MOL0     H72491  -0.157   3.384   4.260 -1.5453 -1.1229 -0.3388
  537MOL0     H72492  -0.254   3.505   4.313  1.3046 -0.5094 -1.2248
  537MOL0     H72493  -0.056   3.426   4.673  3.2130  1.4680  0.4887
  537MOL0     H72494   0.349   3.842   4.350  1.2117  1.0629 -0.1297
  537MOL0     H72495   0.551   3.810   4.224 -0.0330 -0.3457  1.7460
  538MOL0     O72496   3.592   5.778  10.793  0.4470  0.1161 -0.0682
  538MOL0     C72497   3.644   5.889  10.808  0.4782  0.5044 -0.6993
  538MOL0     O72498   3.576   6.000  10.843  0.3540  0.5454 -0.1209
  538MOL0     C72499   3.445   6.005  10.885  0.1775 -0.5303  0.0108
  538MOL0     C72500   3.400   6.137  10.899  0.1070 -0.5776 -0.1210
  538MOL0     C72501   3.265   6.166  10.932  0.7020  0.2149  0.5370
  538MOL0     C72502   3.178   6.065  10.965  0.2007 -0.3141 -0.0455
  538MOL0     O72503   3.048   6.101  10.999 -0.1316 -0.7186 -0.0271
  538MOL0     C72504   2.990   6.009  11.087 -0.4067  0.6055  0.5219
  538MOL0     C72505   2.869   6.070  11.157 -0.2454 -0.2470  0.8870
  538MOL0     C72506   2.752   6.083  11.057 -0.3070 -0.2525 -0.0063
  538MOL0     C72507   2.623   6.131  11.127  0.0825  0.1621  0.0598
  538MOL0     C72508   2.512   6.105  11.015  0.3331  0.0712  0.4836
  538MOL0     C72509   2.380   6.169  11.043  0.2793 -0.3482 -0.1407
  538MOL0     C72510   2.294   6.177  10.915  0.2009  0.1357  0.0823
  538MOL0     C72511   2.151   6.232  10.929  0.4059 -0.2806  0.0172
  538MOL0     N72512   2.074   6.181  11.045  0.1492 -0.4110  0.8281
  538MOL0     C72513   2.026   6.238  11.166 -0.2091 -0.4272 -0.6180
  538MOL0     C72514   1.927   6.159  11.209  0.1779 -1.1141  0.7879
  538MOL0     C72515   1.853   6.163  11.338  0.3825  0.5639 -0.6702
  538MOL0     C72516   1.744   6.266  11.365  0.6896 -0.1248  0.8839
  538MOL0     C72517   1.639   6.247  11.254 -0.4378 -0.0876  0.2921
  538MOL0     C72518   1.539   6.356  11.265  0.6623 -0.5730 -0.6276
  538MOL0     O72519   1.409   6.304  11.224  0.1483  0.5299 -0.2182
  538MOL0     C72520   1.302   6.381  11.192 -0.0891  0.3258 -0.1277
  538MOL0     C72521   1.312   6.512  11.154  0.5793  0.4127 -0.0218
  538MOL0     C72522   1.203   6.592  11.131 -0.6723  0.1072  0.4135
  538MOL0     C72523   1.239   6.739  11.113  0.6812 -0.3360 -0.1853
  538MOL0     C72524   1.072   6.539  11.138  0.4246 -0.6706 -0.2724
  538MOL0     C72525   0.939   6.621  11.130  0.0572 -0.3322 -0.3017
  538MOL0     O72526   0.822   6.569  11.182  0.0975  0.5718  0.0067
  538MOL0     C72527   0.704   6.628  11.148  0.2901 -0.0664 -0.5099
  538MOL0     C72528   0.671   6.764  11.155 -0.0812  0.7233  0.6369
  538MOL0     C72529   0.548   6.816  11.121 -0.2972  0.3510 -0.8472
  538MOL0     C72530   0.440   6.735  11.075  0.0127 -0.5723  0.7543
  538MOL0     O72531   0.322   6.796  11.037 -0.9207  0.2286 -0.2107
  538MOL0     C72532   0.201   6.719  11.058  0.1553 -0.0779  0.5994
  538MOL0     C72533   0.077   6.804  11.033  1.0798  0.4548  0.0705
  538MOL0     C72534   0.083   6.889  10.913  0.1395  0.8586  0.6635
  538MOL0     C72535  -0.055   6.949  10.896  1.0554  0.7632 -0.7438
  538MOL0     C72536  -0.063   7.049  10.783  0.2582  0.4655 -0.2558
  538MOL0     C72537   0.057   7.133  10.789 -0.3472  0.1081  0.4581
  538MOL0     C72538   0.035   7.270  10.728 -0.2899 -0.6610  0.5861
  538MOL0     C72539   0.167   7.359  10.733  0.0626 -0.4940  0.6178
  538MOL0    Cl72540   0.120   7.529  10.723  0.1635 -0.2065  0.0935
  538MOL0     C72541   0.473   6.592  11.060 -0.1993 -0.7539 -0.5105
  538MOL0     C72542   0.603   6.541  11.099  0.1405  0.3964 -0.5315
  538MOL0     O72543   0.955   6.736  11.088  0.7048  0.1050 -0.3301
  538MOL0     C72544   1.059   6.406  11.181 -0.0642 -0.7638 -0.0968
  538MOL0     C72545   1.177   6.335  11.202 -0.3756  1.0854  0.6631
  538MOL0     N72546   1.933   6.050  11.132  0.6876  1.0738  0.0594
  538MOL0     N72547   2.005   6.066  11.032 -0.7394  0.5482 -0.7551
  538MOL0     C72548   3.225   5.935  10.972  0.2972 -0.0798 -0.3780
  538MOL0     C72549   3.353   5.908  10.931 -0.3825 -0.2197  1.4494
  538MOL0     C72550   3.794   5.893  10.797  0.3444  0.4202 -0.2609
  538MOL0     C72551   3.845   6.022  10.806 -0.7446 -0.3404  0.6505
  538MOL0     C72552   3.982   6.038  10.775  0.6540 -0.1498 -1.3476
  538MOL0     C72553   4.070   5.927  10.741 -0.3159  0.9935  0.2672
  538MOL0     O72554   4.209   5.945  10.722 -0.2537 -0.4404 -0.6701
  538MOL0     C72555   4.228   6.043  10.614 -0.5806 -0.2903 -0.3961
  538MOL0     C72556   4.368   6.101  10.599 -0.2167 -0.2872 -0.5192
  538MOL0     C72557   4.480   5.995  10.623  0.3540 -0.4306 -0.1660
  538MOL0     C72558   4.521   5.971  10.770 -0.6118  0.6175  0.9715
  538MOL0     C72559   4.654   5.894  10.769  1.4045  0.5285  0.9480
  538MOL0     C72560   4.753   5.831  10.782  0.0385  0.4769  0.1405
  538MOL0     C72561   4.020   5.800  10.732  0.0437 -0.2947  0.2073
  538MOL0     C72562   3.878   5.788  10.750  0.1270  0.4747 -0.8170
  538MOL0     H72563   3.467   6.222  10.890  1.4077 -1.6896 -1.4019
  538MOL0     H72564   3.239   6.272  10.927 -0.9338 -0.1896 -0.4628
  538MOL0     H72565   2.954   5.921  11.033 -1.1612  2.3070 -1.8767
  538MOL0     H72566   3.066   5.970  11.157 -0.3109 -3.8633 -1.7241
  538MOL0     H72567   2.835   6.000  11.234 -4.4779 -0.9982 -1.3650
  538MOL0     H72568   2.887   6.167  11.205 -0.3903  0.6254 -0.7609
  538MOL0     H72569   2.777   6.163  10.986 -2.0176 -0.5003 -0.9314
  538MOL0     H72570   2.736   5.990  11.002 -2.4299  0.4338 -0.6413
  538MOL0     H72571   2.603   6.071  11.216  0.5821  0.6968  0.5389
  538MOL0     H72572   2.636   6.228  11.176  0.5053 -1.0497  2.5105
  538MOL0     H72573   2.555   6.153  10.928 -1.9075  2.6051  0.6526
  538MOL0     H72574   2.498   5.997  10.999  1.0016 -0.0951  0.9514
  538MOL0     H72575   2.321   6.112  11.116 -2.1459 -1.3854 -2.6811
  538MOL0     H72576   2.399   6.269  11.083 -1.2940  1.3690 -3.2798
  538MOL0     H72577   2.353   6.234  10.842 -2.5664  0.3911 -2.1475
  538MOL0     H72578   2.282   6.081  10.865 -0.3717 -0.9101  2.1230
  538MOL0     H72579   2.100   6.207  10.835  0.7845 -0.5826 -0.1100
  538MOL0     H72580   2.155   6.341  10.939 -0.7906 -0.4425  2.9313
  538MOL0     H72581   2.046   6.333  11.215  3.8553 -1.4167  0.0258
  538MOL0     H72582   1.808   6.066  11.359  1.4617  0.3014  0.5608
  538MOL0     H72583   1.929   6.191  11.411  0.9487  0.0074 -1.0319
  538MOL0     H72584   1.778   6.367  11.342  1.8043 -1.1841 -2.8928
  538MOL0     H72585   1.700   6.252  11.464 -0.2398 -1.0957  0.3618
  538MOL0     H72586   1.584   6.155  11.275  0.3302 -0.6233 -0.0025
  538MOL0     H72587   1.679   6.250  11.152  0.3948 -0.8650  0.5792
  538MOL0     H72588   1.580   6.431  11.198  2.8371 -2.7277 -1.8618
  538MOL0     H72589   1.529   6.398  11.366  0.6804 -1.2143 -0.3536
  538MOL0     H72590   1.414   6.550  11.145  1.0217 -1.1842 -3.8754
  538MOL0     H72591   1.204   6.762  11.012  1.9327  1.5036 -0.2416
  538MOL0     H72592   1.193   6.802  11.189 -2.3760 -0.5797 -1.6538
  538MOL0     H72593   1.347   6.757  11.111  0.6555 -0.2349 -1.2680
  538MOL0     H72594   0.749   6.828  11.193  0.2058  1.1789 -0.6729
  538MOL0     H72595   0.531   6.921  11.141  1.2740  0.9526 -2.3879
  538MOL0     H72596   0.211   6.651  10.973  1.6865 -0.0404  0.7102
  538MOL0     H72597   0.189   6.686  11.162 -1.3034  4.1962  2.0042
  538MOL0     H72598  -0.008   6.735  11.037 -0.0825  1.8951  2.7925
  538MOL0     H72599   0.063   6.871  11.118 -2.0182  1.6103 -1.1867
  538MOL0     H72600   0.101   6.831  10.821  1.3767  0.3347  1.2165
  538MOL0     H72601   0.170   6.956  10.921  1.9142 -0.6267 -3.2279
  538MOL0     H72602  -0.137   6.879  10.879  0.5727  1.1715 -0.1338
  538MOL0     H72603  -0.079   7.009  10.984 -1.6917 -0.6864 -0.3779
  538MOL0     H72604  -0.154   7.107  10.799  0.0317  0.1008 -0.2098
  538MOL0     H72605  -0.072   6.992  10.689  1.0653 -0.3499  0.1516
  538MOL0     H72606   0.085   7.145  10.894 -1.4419  1.2380  0.6493
  538MOL0     H72607   0.141   7.078  10.746 -0.3752 -2.0483  2.9158
  538MOL0     H72608  -0.050   7.320  10.776 -0.7142  0.3522 -1.1107
  538MOL0     H72609   0.022   7.267  10.619  0.7312  3.6807  0.1435
  538MOL0     H72610   0.230   7.348  10.644 -0.7242 -0.6551  0.0617
  538MOL0     H72611   0.224   7.330  10.821 -0.7773 -0.7358  1.0959
  538MOL0     H72612   0.402   6.517  11.028 -0.8183 -0.6152  0.5068
  538MOL0     H72613   0.607   6.433  11.102  1.9046  0.4182 -0.8725
  538MOL0     H72614   0.960   6.371  11.207 -1.0798  1.0506 -1.3215
  538MOL0     H72615   1.165   6.230  11.225 -1.2089  0.7511 -1.1578
  538MOL0     H72616   3.163   5.851  11.003 -2.6698  2.4991  1.3455
  538MOL0     H72617   3.388   5.805  10.939  3.7217  0.6883 -1.4346
  538MOL0     H72618   3.780   6.107  10.826 -2.2640 -1.3308  0.0622
  538MOL0     H72619   4.013   6.141  10.768 -2.0750  0.7811 -1.0873
  538MOL0     H72620   4.199   5.989  10.523 -2.1729  0.0110 -0.0802
  538MOL0     H72621   4.161   6.127  10.630  0.6501  0.6165  0.1531
  538MOL0     H72622   4.374   6.180  10.674  0.2183 -3.0288  2.5424
  538MOL0     H72623   4.379   6.143  10.499 -2.3602 -2.1844 -1.6511
  538MOL0     H72624   4.567   6.041  10.575 -1.0077  3.0672  0.4330
  538MOL0     H72625   4.454   5.897  10.581 -2.6376 -0.8910  2.3877
  538MOL0     H72626   4.441   5.917  10.821 -2.7487  2.1624 -0.5682
  538MOL0     H72627   4.524   6.064  10.828  0.2680 -0.2802  2.4422
  538MOL0     H72628   4.846   5.780  10.791  0.0444 -0.4687 -3.7389
  538MOL0     H72629   4.092   5.721  10.710  1.1238  0.9165 -0.7407
  538MOL0     H72630   3.842   5.686  10.737  0.8985  0.2290 -1.0509
  539MOL0     O72631   5.270   0.662   3.075  0.2113  0.0577  0.4450
  539MOL0     C72632   5.311   0.563   3.009 -0.2572  0.4724  0.2320
  539MOL0     O72633   5.253   0.443   2.996  0.1484  0.3538  0.5010
  539MOL0     C72634   5.118   0.428   3.017  0.7520 -0.0097 -0.4538
  539MOL0     C72635   5.026   0.528   3.026  0.4083  0.0072  0.3115
  539MOL0     C72636   4.894   0.491   3.044  0.5219 -0.0073 -0.2138
  539MOL0     C72637   4.850   0.360   3.070  0.6326 -0.3442 -0.0905
  539MOL0     O72638   4.719   0.330   3.097  0.1220  0.4286 -0.5593
  539MOL0     C72639   4.611   0.405   3.033 -0.0159  0.1051 -0.2132
  539MOL0     C72640   4.530   0.483   3.136 -0.3783  0.3525 -0.9197
  539MOL0     C72641   4.398   0.539   3.096  0.2487 -0.2632 -0.0088
  539MOL0     C72642   4.288   0.429   3.103 -0.3730  0.7468 -0.2670
  539MOL0     C72643   4.148   0.466   3.040 -0.0777  0.4360 -0.1851
  539MOL0     C72644   4.061   0.543   3.136  0.4922  0.9377 -0.1464
  539MOL0     C72645   3.904   0.531   3.102  0.1658 -1.1114  0.0252
  539MOL0     C72646   3.812   0.591   3.212 -0.0708  0.1497 -0.6675
  539MOL0     N72647   3.670   0.596   3.170  0.8340 -0.1584  0.6625
  539MOL0     C72648   3.584   0.495   3.127 -0.6726  0.0610 -0.2189
  539MOL0     C72649   3.473   0.554   3.076  0.0352 -0.5349  0.6904
  539MOL0     C72650   3.354   0.487   3.019 -0.0370 -0.0390 -0.7359
  539MOL0     C72651   3.255   0.476   3.141 -0.3916 -0.5672  0.0208
  539MOL0     C72652   3.114   0.445   3.083  0.1335 -0.0369  0.2435
  539MOL0     C72653   3.019   0.435   3.213 -0.3074  0.1162  0.6881
  539MOL0     O72654   2.904   0.356   3.171  0.5931 -0.4113  0.0932
  539MOL0     C72655   2.809   0.409   3.084 -0.3054  0.0975  0.2128
  539MOL0     C72656   2.732   0.314   3.013 -0.2012  0.5609 -0.1803
  539MOL0     C72657   2.630   0.359   2.930  0.1242 -0.0775 -0.1518
  539MOL0     C72658   2.547   0.244   2.875  0.9221  0.3628  0.0513
  539MOL0     C72659   2.600   0.499   2.914 -0.6567  1.0319 -0.1990
  539MOL0     C72660   2.478   0.546   2.832 -1.2983 -0.9052  0.5601
  539MOL0     O72661   2.444   0.680   2.843 -0.5740 -0.1061  0.3093
  539MOL0     C72662   2.332   0.728   2.778 -0.3018  0.4879  0.7991
  539MOL0     C72663   2.338   0.769   2.644  1.0623 -0.2000  0.0851
  539MOL0     C72664   2.230   0.824   2.572  0.0091  0.7662  0.3814
  539MOL0     C72665   2.100   0.832   2.636 -0.4575  0.5644 -0.9528
  539MOL0     O72666   1.998   0.880   2.567  0.7004 -0.3106 -0.3345
  539MOL0     C72667   1.870   0.919   2.632 -0.3952  0.0021  0.7744
  539MOL0     C72668   1.755   0.809   2.616 -0.7322 -0.7199 -0.0393
  539MOL0     C72669   1.631   0.858   2.692  0.5891  0.5841 -0.6656
  539MOL0     C72670   1.519   0.753   2.703 -0.3594 -0.6184 -0.0718
  539MOL0     C72671   1.413   0.765   2.584  0.4424  1.0981 -0.0348
  539MOL0     C72672   1.300   0.658   2.601 -0.6047  0.5187 -0.4275
  539MOL0     C72673   1.195   0.665   2.484 -0.0408 -0.2764 -0.4278
  539MOL0     C72674   1.124   0.801   2.478  0.7418  0.6128 -0.0769
  539MOL0    Cl72675   0.970   0.789   2.372 -0.5165  0.2715  0.4310
  539MOL0     C72676   2.099   0.782   2.762  0.3186 -0.1313 -0.2398
  539MOL0     C72677   2.210   0.728   2.832  0.0628  0.1078 -0.4987
  539MOL0     O72678   2.412   0.464   2.770  0.0133  0.1621  0.4869
  539MOL0     C72679   2.679   0.590   2.982  0.1272 -0.3819 -0.2501
  539MOL0     C72680   2.778   0.548   3.070  1.1141 -0.8928  0.3710
  539MOL0     N72681   3.489   0.691   3.094 -0.7822  0.1319 -0.3180
  539MOL0     N72682   3.604   0.712   3.145  0.3897  0.5042 -0.2876
  539MOL0     C72683   4.942   0.257   3.055  0.2405 -0.0107 -0.5784
  539MOL0     C72684   5.074   0.291   3.030  0.4439 -1.5813 -0.7002
  539MOL0     C72685   5.443   0.569   2.958 -0.4622 -0.5491  0.3806
  539MOL0     C72686   5.511   0.453   2.921  0.5209  0.3603 -0.4549
  539MOL0     C72687   5.640   0.464   2.864 -0.8261 -0.6744 -1.1908
  539MOL0     C72688   5.708   0.586   2.871 -0.4704  0.3380  0.2811
  539MOL0     O72689   5.843   0.592   2.837  0.6064  0.1020 -0.5389
  539MOL0     C72690   5.919   0.704   2.874  0.4066 -0.3293 -0.1127
  539MOL0     C72691   6.060   0.667   2.841  0.9350 -0.0027 -0.4610
  539MOL0     C72692   6.156   0.758   2.924 -0.3120 -0.5672  1.3579
  539MOL0     C72693   6.197   0.890   2.845  0.0933  0.2135 -1.1444
  539MOL0     C72694   6.263   0.988   2.931 -0.6557  0.3594 -1.1284
  539MOL0     C72695   6.317   1.066   3.004 -0.0389 -0.4482 -0.4843
  539MOL0     C72696   5.636   0.702   2.911  0.2406 -0.0999  1.3278
  539MOL0     C72697   5.505   0.686   2.950  0.3206 -0.1189 -0.6071
  539MOL0     H72698   5.043   0.635   3.016 -1.4293  0.3299  0.2502
  539MOL0     H72699   4.825   0.573   3.065 -1.2476 -1.6228  0.5842
  539MOL0     H72700   4.638   0.472   2.951 -1.0964  0.9477  0.0960
  539MOL0     H72701   4.541   0.337   2.982  0.9922  0.6302 -2.4407
  539MOL0     H72702   4.521   0.413   3.219 -2.0923  1.0853 -0.4342
  539MOL0     H72703   4.590   0.570   3.165 -0.6826  0.0853  0.5775
  539MOL0     H72704   4.367   0.618   3.165 -1.1642  1.8938 -2.9512
  539MOL0     H72705   4.412   0.587   2.999  0.2642  0.4608  0.3464
  539MOL0     H72706   4.337   0.348   3.049 -1.6917 -0.9688  0.9645
  539MOL0     H72707   4.289   0.387   3.204  2.0376  1.0831 -0.0843
  539MOL0     H72708   4.166   0.539   2.961  0.2021  2.9726  2.0655
  539MOL0     H72709   4.088   0.384   2.998  0.1777  0.6754 -1.0289
  539MOL0     H72710   4.087   0.513   3.238 -2.1031  4.1916  1.6566
  539MOL0     H72711   4.092   0.648   3.143 -0.3089  1.0879  2.0012
  539MOL0     H72712   3.882   0.584   3.009 -0.2167 -1.1697  0.0814
  539MOL0     H72713   3.867   0.430   3.083 -4.1636  0.4772 -1.1195
  539MOL0     H72714   3.843   0.691   3.242 -0.6075 -0.2500  1.4356
  539MOL0     H72715   3.799   0.521   3.296 -1.6460  0.7238 -0.3928
  539MOL0     H72716   3.599   0.388   3.133  0.0876  0.1944  0.5509
  539MOL0     H72717   3.316   0.543   2.933  1.9459  0.1060 -1.5644
  539MOL0     H72718   3.376   0.388   2.975 -1.4391 -0.2288 -1.0727
  539MOL0     H72719   3.244   0.573   3.189 -3.7558 -0.7740 -0.1115
  539MOL0     H72720   3.281   0.409   3.223 -0.1025 -3.3604 -2.1612
  539MOL0     H72721   3.124   0.353   3.025  2.5225  0.0479  0.4348
  539MOL0     H72722   3.085   0.516   3.006  0.2890  0.5157  0.6889
  539MOL0     H72723   2.987   0.534   3.246  3.7601  1.4088  1.1971
  539MOL0     H72724   3.077   0.389   3.293  0.6157  0.9119  0.4880
  539MOL0     H72725   2.746   0.208   3.030  0.0593  0.6128 -0.0602
  539MOL0     H72726   2.524   0.250   2.768 -1.9578  0.0489  0.5506
  539MOL0     H72727   2.598   0.147   2.881  1.2084  0.3916 -1.5199
  539MOL0     H72728   2.443   0.240   2.911 -0.2382 -0.5889 -3.0788
  539MOL0     H72729   2.435   0.768   2.595  1.4568  0.1892  0.8439
  539MOL0     H72730   2.235   0.854   2.468  0.7999 -2.4278 -0.5932
  539MOL0     H72731   1.898   0.949   2.734  3.2126  3.3124 -0.9103
  539MOL0     H72732   1.826   1.010   2.590  2.0962  1.6708  1.4814
  539MOL0     H72733   1.726   0.795   2.512  1.5790  1.0570 -1.0381
  539MOL0     H72734   1.797   0.722   2.668  3.8744  2.8372  3.0956
  539MOL0     H72735   1.587   0.945   2.641 -0.9701 -0.0265 -0.4065
  539MOL0     H72736   1.658   0.873   2.797 -2.6121 -1.9650  0.6577
  539MOL0     H72737   1.545   0.648   2.721  1.2430  0.0351  1.7894
  539MOL0     H72738   1.455   0.772   2.790 -0.7462 -0.2905 -0.4264
  539MOL0     H72739   1.452   0.760   2.482 -1.2233  0.6698 -0.6865
  539MOL0     H72740   1.380   0.867   2.605  0.4417  0.7814  1.6872
  539MOL0     H72741   1.343   0.561   2.626 -1.1625  0.1049 -1.0229
  539MOL0     H72742   1.244   0.684   2.691 -4.1610 -3.6766 -1.1182
  539MOL0     H72743   1.126   0.585   2.514 -0.3499 -1.0299 -2.9615
  539MOL0     H72744   1.237   0.639   2.387  0.0119 -1.7495 -0.0355
  539MOL0     H72745   1.198   0.876   2.448  1.1732  0.7565  1.2852
  539MOL0     H72746   1.090   0.809   2.582 -1.3458  1.9541 -0.8011
  539MOL0     H72747   2.002   0.782   2.810  0.3985  2.4261  0.0364
  539MOL0     H72748   2.196   0.693   2.933  0.9137  1.9669  0.3121
  539MOL0     H72749   2.666   0.698   2.985  0.0217 -0.2341  5.7855
  539MOL0     H72750   2.837   0.612   3.135 -0.8887 -1.7663  3.1927
  539MOL0     H72751   4.920   0.151   3.067  2.8896 -0.6409 -0.7505
  539MOL0     H72752   5.148   0.211   3.034  2.4130  0.2250  1.7631
  539MOL0     H72753   5.459   0.357   2.926  1.7875 -0.3572 -0.5390
  539MOL0     H72754   5.684   0.367   2.846 -0.4318 -1.2228  2.0862
  539MOL0     H72755   5.888   0.794   2.819 -0.5857  1.4092  3.0471
  539MOL0     H72756   5.899   0.733   2.977 -0.9331 -0.7670 -0.2270
  539MOL0     H72757   6.076   0.681   2.734 -0.3083 -4.0642 -1.3691
  539MOL0     H72758   6.081   0.562   2.865  3.6025  0.2663 -1.2902
  539MOL0     H72759   6.254   0.712   2.939  0.7365 -0.8127 -4.2004
  539MOL0     H72760   6.110   0.779   3.021 -0.1571 -0.9559  1.5188
  539MOL0     H72761   6.107   0.933   2.800  0.4277  1.6576 -0.4971
  539MOL0     H72762   6.267   0.860   2.767  1.0628  0.7622 -0.5005
  539MOL0     H72763   6.371   1.117   3.081 -1.8711  0.7615  0.0594
  539MOL0     H72764   5.677   0.802   2.896  0.4331 -0.7087 -4.1525
  539MOL0     H72765   5.450   0.773   2.984 -0.3277 -0.9315  0.4878
  540MOL0     O72766   0.635   3.843   8.667 -0.5110 -0.1613  0.0127
  540MOL0     C72767   0.631   3.791   8.774  0.1702  0.5702 -0.2424
  540MOL0     O72768   0.543   3.696   8.806  0.0042  0.0026  0.2818
  540MOL0     C72769   0.475   3.653   8.702  0.6408 -0.0410  0.0328
  540MOL0     C72770   0.525   3.559   8.609  0.3974 -0.6484  0.2447
  540MOL0     C72771   0.452   3.516   8.503 -0.8271 -0.4054  0.5055
  540MOL0     C72772   0.334   3.562   8.473  0.9090  0.2073 -0.1055
  540MOL0     O72773   0.271   3.503   8.363 -0.7112 -0.2105  0.2590
  540MOL0     C72774   0.138   3.541   8.343 -0.3720 -0.5637  0.0292
  540MOL0     C72775   0.072   3.460   8.236 -0.3496 -0.2077 -0.4563
  540MOL0     C72776  -0.060   3.533   8.196 -0.2695 -0.0969 -0.2236
  540MOL0     C72777  -0.034   3.636   8.085 -1.0169  0.1486 -0.3129
  540MOL0     C72778  -0.166   3.683   8.019 -0.4271 -1.3228  0.7687
  540MOL0     C72779  -0.274   3.762   8.101 -0.0358  0.2482  0.2340
  540MOL0     C72780  -0.418   3.768   8.034  0.5551 -0.1190  0.2543
  540MOL0     C72781  -0.417   3.878   7.923 -0.1935  0.3024 -0.1090
  540MOL0     N72782  -0.538   3.887   7.845  0.3391  0.4748  0.5909
  540MOL0     C72783  -0.566   3.807   7.736 -0.0534 -1.1466 -0.1484
  540MOL0     C72784  -0.683   3.849   7.696  0.7067 -0.6847 -0.5494
  540MOL0     C72785  -0.773   3.782   7.589 -0.7010  0.7703 -1.4003
  540MOL0     C72786  -0.782   3.882   7.474 -0.4630  0.0620  0.1275
  540MOL0     C72787  -0.849   3.810   7.360 -0.0606 -0.3099  0.0333
  540MOL0     C72788  -0.891   3.932   7.269  0.4210 -0.7818  0.0941
  540MOL0     O72789  -0.913   3.899   7.136  0.0292 -0.6114 -0.3041
  540MOL0     C72790  -1.041   3.871   7.093  0.5463  0.3423  0.6977
  540MOL0     C72791  -1.065   3.869   6.959 -0.8609 -0.1316 -0.3363
  540MOL0     C72792  -1.193   3.858   6.899  0.0594 -0.8795  0.3003
  540MOL0     C72793  -1.192   3.849   6.744  0.5965  0.0426 -0.5244
  540MOL0     C72794  -1.307   3.834   6.979 -0.1566  0.2824  0.5355
  540MOL0     C72795  -1.442   3.811   6.923 -0.3284  0.1536 -0.3298
  540MOL0     O72796  -1.474   3.869   6.800 -0.5230 -0.0149  0.6072
  540MOL0     C72797  -1.605   3.891   6.758 -0.7186  0.3087  0.2976
  540MOL0     C72798  -1.653   3.847   6.635  0.0804 -0.2156  0.7480
  540MOL0     C72799  -1.770   3.881   6.579 -0.1163 -0.3473  0.2370
  540MOL0     C72800  -1.857   3.959   6.645  0.4751 -0.4744 -0.0037
  540MOL0     O72801  -1.986   3.986   6.600 -0.0920 -0.5025  0.0581
  540MOL0     C72802  -2.055   3.878   6.551 -0.3497 -0.1984 -1.0908
  540MOL0     C72803  -2.182   3.946   6.507  0.3027 -0.3462  0.4047
  540MOL0     C72804  -2.141   4.069   6.415  0.4697  0.5509 -0.3214
  540MOL0     C72805  -2.258   4.105   6.318 -0.0186  0.4321  0.2061
  540MOL0     C72806  -2.360   4.182   6.397  0.2484 -0.2280  0.3358
  540MOL0     C72807  -2.475   4.217   6.296 -0.3070  0.1513 -0.1189
  540MOL0     C72808  -2.563   4.331   6.356  0.0023  0.1459 -0.5742
  540MOL0     C72809  -2.677   4.369   6.267 -0.4676  0.2448  0.0692
  540MOL0    Cl72810  -2.745   4.520   6.306  0.0020 -0.2030  0.0572
  540MOL0     C72811  -1.813   4.017   6.765 -0.2478  0.0310  0.6304
  540MOL0     C72812  -1.693   3.977   6.821 -0.8104 -0.2908 -0.3907
  540MOL0     O72813  -1.514   3.738   6.984 -0.0076  0.3206 -0.0403
  540MOL0     C72814  -1.287   3.816   7.118 -0.9453 -0.2612  0.1363
  540MOL0     C72815  -1.157   3.851   7.176  0.2317 -0.1164 -0.1604
  540MOL0     N72816  -0.724   3.958   7.782  0.4753  0.6209  0.4884
  540MOL0     N72817  -0.634   3.972   7.870  0.6611 -0.1162 -0.6551
  540MOL0     C72818   0.275   3.662   8.552  0.5062 -1.1423  0.4030
  540MOL0     C72819   0.355   3.711   8.656 -0.7175  0.1557 -0.6528
  540MOL0     C72820   0.738   3.813   8.865 -0.0369 -0.7536  0.4811
  540MOL0     C72821   0.747   3.755   8.987  0.0756  0.2711  0.6558
  540MOL0     C72822   0.849   3.800   9.072 -0.3685  0.5791  0.1236
  540MOL0     C72823   0.945   3.884   9.034  0.3388  0.4654 -0.6919
  540MOL0     O72824   1.043   3.903   9.130 -0.6952  0.7778  0.0764
  540MOL0     C72825   1.116   4.028   9.142  0.2648 -0.2714  0.1873
  540MOL0     C72826   1.222   4.025   9.241 -0.0840 -0.4802  0.1437
  540MOL0     C72827   1.154   3.985   9.370  0.6851  0.6102  0.5368
  540MOL0     C72828   1.244   3.960   9.489  0.2105  0.0089 -0.0503
  540MOL0     C72829   1.201   3.865   9.598 -0.0904 -0.2902 -0.3483
  540MOL0     C72830   1.172   3.791   9.690 -0.1012  0.1107 -0.1172
  540MOL0     C72831   0.949   3.937   8.903 -0.9106  0.0482  0.6646
  540MOL0     C72832   0.843   3.908   8.824 -0.3577  0.0519  1.2848
  540MOL0     H72833   0.625   3.521   8.630  1.3067  1.5735  0.1486
  540MOL0     H72834   0.496   3.448   8.431  0.4326  1.4260 -0.5417
  540MOL0     H72835   0.075   3.507   8.426  1.2018 -2.6964  0.4567
  540MOL0     H72836   0.125   3.647   8.319  0.6673 -0.6402 -0.9386
  540MOL0     H72837   0.142   3.460   8.152 -0.6556 -0.9169 -0.7111
  540MOL0     H72838   0.055   3.354   8.255  0.6477 -0.2511  0.2869
  540MOL0     H72839  -0.128   3.459   8.154 -0.9203 -0.1942  0.9521
  540MOL0     H72840  -0.112   3.578   8.281  1.8322  2.3864 -0.1259
  540MOL0     H72841   0.017   3.723   8.126 -1.0917  0.0170  0.0636
  540MOL0     H72842   0.020   3.584   8.006 -0.4657  1.3717 -0.7578
  540MOL0     H72843  -0.130   3.755   7.945 -2.1298 -0.7832  0.4126
  540MOL0     H72844  -0.203   3.597   7.964  0.0767 -2.2872  1.8875
  540MOL0     H72845  -0.294   3.701   8.190 -1.7032  1.4319  0.7140
  540MOL0     H72846  -0.229   3.855   8.138  1.7313  0.4482 -2.1395
  540MOL0     H72847  -0.434   3.676   7.979  2.4084  0.6461 -1.7196
  540MOL0     H72848  -0.491   3.793   8.111  1.1317  2.1356  0.1481
  540MOL0     H72849  -0.332   3.867   7.856 -0.5159 -0.3980 -0.4184
  540MOL0     H72850  -0.396   3.972   7.973  1.7539  0.3492 -0.9463
  540MOL0     H72851  -0.499   3.729   7.702  0.5762  0.2704 -2.3906
  540MOL0     H72852  -0.729   3.688   7.553 -0.5004  0.2297  0.1922
  540MOL0     H72853  -0.876   3.765   7.623 -0.0976 -0.7994 -0.2486
  540MOL0     H72854  -0.687   3.910   7.428  0.3511 -3.1566 -0.4496
  540MOL0     H72855  -0.842   3.968   7.504 -1.6589  0.1558 -2.2642
  540MOL0     H72856  -0.933   3.750   7.398 -1.3978  1.0818 -0.6217
  540MOL0     H72857  -0.763   3.755   7.321  0.6546  1.3346 -0.7921
  540MOL0     H72858  -0.807   4.001   7.277 -0.3013  0.2364 -0.8066
  540MOL0     H72859  -0.975   3.981   7.319 -0.5317 -0.3797 -1.8044
  540MOL0     H72860  -0.986   3.894   6.889  0.8065  1.5752  1.9711
  540MOL0     H72861  -1.244   3.934   6.699 -0.0326 -1.6119 -3.2132
  540MOL0     H72862  -1.090   3.860   6.705  0.7910  0.9701  0.2255
  540MOL0     H72863  -1.241   3.759   6.706 -1.7730  2.0046 -2.4635
  540MOL0     H72864  -1.605   3.777   6.567 -1.2003  0.9641 -1.5054
  540MOL0     H72865  -1.791   3.821   6.490 -0.7620 -0.4333  0.4430
  540MOL0     H72866  -2.008   3.822   6.470 -0.9037  1.2618 -2.4786
  540MOL0     H72867  -2.074   3.812   6.636  1.6603  1.1612  0.5244
  540MOL0     H72868  -2.242   3.869   6.459 -2.8451  1.3705  1.3006
  540MOL0     H72869  -2.234   3.979   6.598  1.5673 -1.4440  1.5796
  540MOL0     H72870  -2.053   4.033   6.361 -0.2308  0.3942 -1.3886
  540MOL0     H72871  -2.106   4.153   6.476  1.1364 -2.7671  4.4985
  540MOL0     H72872  -2.217   4.165   6.237  1.4041 -0.5797  0.1385
  540MOL0     H72873  -2.294   4.013   6.271  1.9073  1.3025 -3.3437
  540MOL0     H72874  -2.325   4.279   6.432 -0.3323  0.1938 -0.2209
  540MOL0     H72875  -2.394   4.132   6.488  0.4117  1.3808  1.3204
  540MOL0     H72876  -2.419   4.255   6.210  1.3612  0.9707  1.2625
  540MOL0     H72877  -2.522   4.121   6.272  2.6951 -1.6838  0.7748
  540MOL0     H72878  -2.499   4.417   6.377 -1.1161  0.5953  1.2120
  540MOL0     H72879  -2.604   4.294   6.450 -2.7485  1.4156 -1.1656
  540MOL0     H72880  -2.758   4.296   6.254  0.1665 -1.0388  2.7277
  540MOL0     H72881  -2.633   4.390   6.169  1.0225  0.5301  0.7865
  540MOL0     H72882  -1.865   4.100   6.813  1.4869  0.7513  1.3448
  540MOL0     H72883  -1.640   4.019   6.905 -0.5415 -1.1276 -0.1332
  540MOL0     H72884  -1.375   3.799   7.180 -0.3372  2.0303  1.7875
  540MOL0     H72885  -1.163   3.863   7.284  1.2304 -1.0589  0.0224
  540MOL0     H72886   0.176   3.703   8.534 -0.0372 -2.3369  0.5505
  540MOL0     H72887   0.318   3.797   8.712 -1.6896  0.0981 -1.1918
  540MOL0     H72888   0.669   3.692   9.028 -0.6700  0.2474 -0.7547
  540MOL0     H72889   0.861   3.760   9.172  0.0886 -1.9186 -0.8704
  540MOL0     H72890   1.163   4.042   9.044 -1.0928 -1.7315 -0.7312
  540MOL0     H72891   1.045   4.110   9.154  1.5669  0.9610 -0.2484
  540MOL0     H72892   1.257   4.129   9.236  0.3015 -0.6267 -0.2579
  540MOL0     H72893   1.298   3.947   9.226 -0.7212 -1.4201  1.5441
  540MOL0     H72894   1.094   3.894   9.357 -0.1864  1.2521 -0.0685
  540MOL0     H72895   1.077   4.061   9.383 -3.7529 -3.3651  0.3557
  540MOL0     H72896   1.280   4.052   9.536  0.3619  0.1376 -0.4110
  540MOL0     H72897   1.333   3.912   9.447  0.0755  0.7410 -1.2324
  540MOL0     H72898   1.145   3.730   9.774  0.4561  0.9380  0.6763
  540MOL0     H72899   1.032   4.003   8.879  2.1857 -2.6440  2.9710
  540MOL0     H72900   0.824   3.959   8.730 -0.8350 -1.8074  0.3200
  541MOL0     O72901   6.871   5.892   8.051 -0.3425  1.3768 -0.6569
  541MOL0     C72902   6.829   6.008   8.068  0.3314  0.5233  0.2545
  541MOL0     O72903   6.709   6.053   8.022  0.1219  0.4911 -0.2240
  541MOL0     C72904   6.617   5.957   7.986  0.6806  0.9138 -0.3278
  541MOL0     C72905   6.557   5.866   8.083 -0.1041  0.3570 -0.6002
  541MOL0     C72906   6.458   5.777   8.052 -0.0540 -0.2702 -0.1132
  541MOL0     C72907   6.425   5.747   7.918 -0.7128  0.6437 -0.7384
  541MOL0     O72908   6.336   5.642   7.911  0.2804 -0.0855  0.0552
  541MOL0     C72909   6.275   5.628   7.787  0.3039 -0.0256  0.7959
  541MOL0     C72910   6.159   5.521   7.792  0.1074 -1.0572  0.9921
  541MOL0     C72911   6.080   5.509   7.924 -1.1391  0.1573 -0.2665
  541MOL0     C72912   5.941   5.456   7.881  0.7957  0.1491  0.5759
  541MOL0     C72913   5.856   5.571   7.817 -0.0051  0.3095  0.1710
  541MOL0     C72914   5.750   5.507   7.733 -0.0080 -0.3863  0.2495
  541MOL0     C72915   5.656   5.609   7.662  0.6641 -0.1822 -0.1418
  541MOL0     C72916   5.580   5.545   7.551 -0.3299  0.0747 -0.1593
  541MOL0     N72917   5.470   5.473   7.606  0.8113 -0.3079  0.4373
  541MOL0     C72918   5.372   5.508   7.688 -0.3240  0.2182  0.3082
  541MOL0     C72919   5.282   5.409   7.694 -0.0898  0.5761 -0.7939
  541MOL0     C72920   5.152   5.407   7.778 -0.0240 -0.0139  0.2920
  541MOL0     C72921   5.044   5.329   7.701  0.5802 -0.0007  0.2579
  541MOL0     C72922   4.929   5.328   7.809  0.2081  0.2847  0.5309
  541MOL0     C72923   4.809   5.242   7.768  0.0305  0.0518  0.2531
  541MOL0     O72924   4.834   5.098   7.787  0.1041 -0.0611  0.2328
  541MOL0     C72925   4.723   5.016   7.793  0.0152 -0.2434  0.4265
  541MOL0     C72926   4.751   4.885   7.837  0.3628 -0.2068 -0.9213
  541MOL0     C72927   4.650   4.792   7.881  0.9646 -0.2441  0.3954
  541MOL0     C72928   4.707   4.659   7.918  0.0845  0.3822 -0.4953
  541MOL0     C72929   4.517   4.830   7.865 -0.6464  0.8177 -0.1994
  541MOL0     C72930   4.408   4.737   7.898  0.9730 -0.9128 -0.3812
  541MOL0     O72931   4.277   4.790   7.889 -0.2616 -0.0583  0.5156
  541MOL0     C72932   4.190   4.727   7.985 -0.1108 -0.0307  0.1902
  541MOL0     C72933   4.219   4.632   8.081 -0.9701  0.2639 -0.0448
  541MOL0     C72934   4.116   4.576   8.158  0.2940  0.4386 -0.0063
  541MOL0     C72935   3.983   4.627   8.145  0.0479 -1.0224 -0.4756
  541MOL0     O72936   3.883   4.587   8.233 -0.1450  0.0339 -0.4715
  541MOL0     C72937   3.912   4.474   8.320 -0.4459  0.9545  0.0639
  541MOL0     C72938   3.797   4.442   8.411 -0.1906 -0.0667 -0.7924
  541MOL0     C72939   3.825   4.312   8.493  0.1876 -0.5729  0.3550
  541MOL0     C72940   3.709   4.263   8.590 -0.4139 -0.3964  0.6149
  541MOL0     C72941   3.593   4.207   8.518 -0.2537 -0.6012 -0.1923
  541MOL0     C72942   3.488   4.156   8.612  0.3272  0.3487 -0.1617
  541MOL0     C72943   3.542   4.057   8.720  0.1007 -0.1319 -0.0901
  541MOL0     C72944   3.430   4.000   8.821 -0.3806 -0.0254  0.4386
  541MOL0    Cl72945   3.396   4.120   8.941 -0.1218  0.1104 -0.1716
  541MOL0     C72946   3.959   4.730   8.056  0.5955 -0.3024  1.0569
  541MOL0     C72947   4.060   4.779   7.982  0.5852  0.2234  0.4468
  541MOL0     O72948   4.431   4.617   7.904 -0.8072  0.2602  0.9057
  541MOL0     C72949   4.489   4.959   7.802 -0.9180  0.6777  0.2202
  541MOL0     C72950   4.589   5.056   7.777  0.5526 -0.7228 -0.0857
  541MOL0     N72951   5.332   5.307   7.613 -0.4804 -0.6501  0.2224
  541MOL0     N72952   5.439   5.346   7.559 -0.0973 -1.0791 -0.4358
  541MOL0     C72953   6.473   5.844   7.830  0.1781  0.2325  0.5120
  541MOL0     C72954   6.567   5.937   7.861  0.1303 -0.2898 -0.5944
  541MOL0     C72955   6.901   6.105   8.166 -0.2297  0.6253 -0.3161
  541MOL0     C72956   7.026   6.076   8.225  0.1967  0.1434  0.6653
  541MOL0     C72957   7.099   6.174   8.308 -0.3603  0.5029  0.6857
  541MOL0     C72958   7.034   6.296   8.339 -0.0507 -1.0988  1.0999
  541MOL0     O72959   7.112   6.384   8.408 -0.7313  0.0017  0.0061
  541MOL0     C72960   7.060   6.513   8.445  0.2020  0.1611 -0.1809
  541MOL0     C72961   7.131   6.589   8.553 -0.7604 -0.5408 -0.4262
  541MOL0     C72962   7.088   6.737   8.572 -0.2918 -0.0296 -0.1774
  541MOL0     C72963   6.936   6.768   8.547 -0.5919  0.8027 -1.2767
  541MOL0     C72964   6.905   6.902   8.604 -0.1594  0.4750 -0.0223
  541MOL0     C72965   6.884   7.011   8.652 -0.0395  0.2616  0.7965
  541MOL0     C72966   6.896   6.311   8.293 -0.4679 -1.0028  0.9100
  541MOL0     C72967   6.832   6.219   8.213  0.7174 -1.5272  0.6692
  541MOL0     H72968   6.582   5.867   8.189  0.8926 -1.4191 -0.7698
  541MOL0     H72969   6.422   5.726   8.141 -2.9795  1.0463 -0.4327
  541MOL0     H72970   6.243   5.725   7.747 -1.0798 -0.5196  0.6559
  541MOL0     H72971   6.359   5.602   7.722  1.2116  0.8856  1.5638
  541MOL0     H72972   6.093   5.538   7.706  0.0614 -1.5605  0.9267
  541MOL0     H72973   6.204   5.423   7.775  1.8318  0.2228 -3.3780
  541MOL0     H72974   6.129   5.430   7.983  0.7102 -1.4065 -3.6431
  541MOL0     H72975   6.079   5.605   7.977 -0.9785  0.5611 -0.9927
  541MOL0     H72976   5.963   5.371   7.816 -2.6616 -0.3434 -0.1518
  541MOL0     H72977   5.887   5.408   7.963 -0.3391  0.0046 -0.2332
  541MOL0     H72978   5.807   5.628   7.897  0.9460  2.2315 -0.5698
  541MOL0     H72979   5.910   5.646   7.759 -1.5809 -0.4656 -2.4697
  541MOL0     H72980   5.798   5.436   7.666  1.6799  1.1321 -0.2229
  541MOL0     H72981   5.685   5.450   7.800 -3.0096  1.3397 -0.9593
  541MOL0     H72982   5.585   5.661   7.727  0.2242  0.5753 -1.1951
  541MOL0     H72983   5.725   5.675   7.609  0.9441 -0.6143 -0.3187
  541MOL0     H72984   5.647   5.485   7.489  2.1921  3.2714 -0.7864
  541MOL0     H72985   5.549   5.628   7.487 -3.8542 -0.0330  1.1808
  541MOL0     H72986   5.356   5.601   7.740  0.5662 -0.1162  1.2203
  541MOL0     H72987   5.179   5.371   7.878 -1.3708 -1.6918  0.1151
  541MOL0     H72988   5.114   5.507   7.802  0.7030 -0.2188  2.4679
  541MOL0     H72989   5.078   5.226   7.688 -1.6615 -0.7306 -0.2310
  541MOL0     H72990   5.012   5.384   7.613  1.4733 -0.1019 -0.1396
  541MOL0     H72991   4.891   5.430   7.817  1.7511  1.3055 -3.0379
  541MOL0     H72992   4.968   5.287   7.902  0.5103  0.4792  0.4889
  541MOL0     H72993   4.771   5.272   7.669 -1.9766  0.5125  1.1175
  541MOL0     H72994   4.732   5.265   7.842 -0.1948 -1.9986  0.7237
  541MOL0     H72995   4.855   4.856   7.851 -0.5519 -2.5961  2.0876
  541MOL0     H72996   4.664   4.588   7.847 -1.9840 -0.4806  1.4836
  541MOL0     H72997   4.815   4.644   7.922 -0.1318 -1.4532 -0.6260
  541MOL0     H72998   4.681   4.637   8.022 -0.3114 -0.9854 -0.8591
  541MOL0     H72999   4.316   4.585   8.095 -1.8845 -0.8409  3.5168
  541MOL0     H73000   4.160   4.501   8.224  2.2369  0.4903 -1.1553
  541MOL0     H73001   3.930   4.388   8.254 -1.3748  2.0870 -1.7550
  541MOL0     H73002   4.006   4.499   8.370 -1.3812  0.6957  2.0301
  541MOL0     H73003   3.779   4.524   8.481 -0.4510 -0.2147 -0.6867
  541MOL0     H73004   3.710   4.432   8.346 -0.0228  1.4634 -1.3013
  541MOL0     H73005   3.913   4.347   8.547  0.1513  1.4044 -0.7640
  541MOL0     H73006   3.858   4.224   8.437  0.5488 -2.1477  2.8965
  541MOL0     H73007   3.755   4.198   8.665  1.2564 -1.3849 -1.1878
  541MOL0     H73008   3.673   4.352   8.643 -0.8762  0.9025 -1.7450
  541MOL0     H73009   3.619   4.135   8.441 -1.0872  0.8420 -1.9121
  541MOL0     H73010   3.556   4.298   8.469  1.3100  0.0312 -0.2480
  541MOL0     H73011   3.442   4.236   8.671 -1.2414  0.1731 -1.1009
  541MOL0     H73012   3.412   4.102   8.554  1.2488 -1.4700  0.2394
  541MOL0     H73013   3.623   4.109   8.772  0.1027  0.3947 -0.6145
  541MOL0     H73014   3.586   3.977   8.660 -0.2770 -1.7867  1.7134
  541MOL0     H73015   3.465   3.906   8.864  0.1071 -1.5100 -2.8851
  541MOL0     H73016   3.337   3.986   8.766 -0.4097  0.0770  0.4627
  541MOL0     H73017   3.863   4.778   8.045  1.7997  2.7353  2.6484
  541MOL0     H73018   4.044   4.854   7.905  1.2667 -0.1151 -0.0360
  541MOL0     H73019   4.384   4.983   7.786 -0.8611  0.8790  0.1506
  541MOL0     H73020   4.557   5.158   7.758 -2.3078 -1.0878  1.9700
  541MOL0     H73021   6.423   5.854   7.734 -1.1559  0.8000  1.2303
  541MOL0     H73022   6.605   6.014   7.794 -1.2754 -0.7063 -1.9183
  541MOL0     H73023   7.078   5.984   8.202 -0.7460 -0.5707  1.3283
  541MOL0     H73024   7.199   6.156   8.347 -0.0912 -2.7984 -1.1994
  541MOL0     H73025   7.052   6.569   8.352  0.0840 -1.6353 -1.3096
  541MOL0     H73026   6.966   6.495   8.497 -0.8047  3.9931 -0.4115
  541MOL0     H73027   7.234   6.593   8.517 -0.9410  1.1719 -0.8497
  541MOL0     H73028   7.127   6.527   8.643  0.4705 -2.3972 -1.5782
  541MOL0     H73029   7.144   6.797   8.500 -0.6390  0.2262 -0.2362
  541MOL0     H73030   7.115   6.774   8.671 -0.1533  2.6738 -1.1431
  541MOL0     H73031   6.877   6.697   8.605  1.5431 -0.1501 -0.1632
  541MOL0     H73032   6.906   6.776   8.442 -0.3988  2.1660 -1.2512
  541MOL0     H73033   6.865   7.106   8.698 -1.5986 -0.6189  2.0857
  541MOL0     H73034   6.842   6.401   8.319 -0.8855 -0.6648 -0.9562
  541MOL0     H73035   6.730   6.223   8.174  1.7862  0.3580 -2.2685
  542MOL0     O73036   2.779  10.666   1.645  0.3260  1.2247  0.6208
  542MOL0     C73037   2.872  10.743   1.648 -0.8157  0.4713  0.1922
  542MOL0     O73038   2.895  10.842   1.562  0.0465 -1.0722 -0.1424
  542MOL0     C73039   2.806  10.889   1.458  0.8410 -0.0796  1.1347
  542MOL0     C73040   2.701  10.807   1.406  0.5469 -0.5843 -0.4500
  542MOL0     C73041   2.616  10.864   1.316 -0.6430  0.0759  0.2170
  542MOL0     C73042   2.627  10.995   1.265  0.0319  0.3848 -0.1290
  542MOL0     O73043   2.541  11.025   1.163 -0.1447 -0.3646 -0.5708
  542MOL0     C73044   2.512  11.161   1.126 -0.1579  0.1003 -0.0763
  542MOL0     C73045   2.390  11.163   1.026  0.0380 -0.4757 -0.0400
  542MOL0     C73046   2.264  11.106   1.100  0.6530  0.4987  0.2244
  542MOL0     C73047   2.135  11.122   1.031 -0.3668 -0.4062 -0.6267
  542MOL0     C73048   2.012  11.128   1.118  0.1718 -0.2612 -0.1392
  542MOL0     C73049   1.879  11.137   1.031  0.4132  0.3123  0.9369
  542MOL0     C73050   1.772  11.172   1.133 -0.3503  0.8643  0.8110
  542MOL0     C73051   1.638  11.179   1.052 -0.6675  0.2234  0.0220
  542MOL0     N73052   1.525  11.219   1.134 -0.1349  0.0739 -0.4722
  542MOL0     C73053   1.493  11.160   1.252 -0.2821  0.2665  1.0374
  542MOL0     C73054   1.402  11.243   1.309  0.8044  0.0779 -0.3125
  542MOL0     C73055   1.333  11.216   1.439 -0.7143 -0.2489  0.4487
  542MOL0     C73056   1.418  11.292   1.549  0.0624  0.0662 -0.2843
  542MOL0     C73057   1.357  11.297   1.686 -0.2005  0.0138  0.2099
  542MOL0     C73058   1.455  11.348   1.799  1.0069 -0.1091  0.8396
  542MOL0     O73059   1.570  11.260   1.802 -0.0602 -0.5882 -0.1331
  542MOL0     C73060   1.664  11.275   1.904 -0.6939 -0.2843  0.1145
  542MOL0     C73061   1.797  11.248   1.871 -0.9765  0.3419  0.2199
  542MOL0     C73062   1.901  11.268   1.963 -0.0162 -0.3900  0.3181
  542MOL0     C73063   2.040  11.242   1.902  0.1664  0.4555 -0.2756
  542MOL0     C73064   1.867  11.302   2.097 -0.2607  0.2362 -0.6021
  542MOL0     C73065   1.973  11.309   2.207 -0.4743  0.0784  0.2333
  542MOL0     O73066   2.101  11.346   2.172 -0.0753 -0.8569 -0.0359
  542MOL0     C73067   2.198  11.370   2.262  0.7945  0.4096 -0.2177
  542MOL0     C73068   2.298  11.271   2.279  0.0646 -0.1403 -0.0831
  542MOL0     C73069   2.389  11.291   2.377 -0.4935  0.2142 -0.0252
  542MOL0     C73070   2.384  11.409   2.461 -0.6728 -0.5171  0.3966
  542MOL0     O73071   2.475  11.444   2.557 -0.4122 -0.2810  0.5062
  542MOL0     C73072   2.611  11.423   2.531 -0.3599 -0.8917 -0.1299
  542MOL0     C73073   2.670  11.302   2.605 -0.0831  0.0013  0.4213
  542MOL0     C73074   2.822  11.322   2.636 -0.8770 -0.5458  0.7104
  542MOL0     C73075   2.858  11.389   2.767 -0.2410 -0.2267  0.4798
  542MOL0     C73076   3.009  11.401   2.794 -0.2262 -0.3836 -0.0237
  542MOL0     C73077   3.042  11.488   2.918 -0.7530  0.7156 -0.3016
  542MOL0     C73078   3.034  11.412   3.053 -0.3289 -0.0932  0.1163
  542MOL0     C73079   3.171  11.345   3.087  0.5185 -0.6024  0.2609
  542MOL0    Cl73080   3.301  11.460   3.102  0.1500  0.2216 -0.5841
  542MOL0     C73081   2.281  11.494   2.447 -0.6105  0.1771 -0.0809
  542MOL0     C73082   2.191  11.477   2.344 -0.7050 -0.7775  0.7832
  542MOL0     O73083   1.933  11.279   2.326 -0.4387 -0.6158  0.6369
  542MOL0     C73084   1.731  11.335   2.126 -0.4579 -0.0953 -0.4561
  542MOL0     C73085   1.634  11.332   2.028  0.9321 -0.0736  0.3375
  542MOL0     N73086   1.389  11.357   1.225  0.8461 -0.5322 -0.6860
  542MOL0     N73087   1.464  11.338   1.121 -0.2293  0.5782  0.1854
  542MOL0     C73088   2.735  11.065   1.303 -0.4842 -0.0905 -0.0719
  542MOL0     C73089   2.830  11.018   1.401 -0.5954 -0.3110  1.1538
  542MOL0     C73090   2.974  10.716   1.753  0.8829 -0.5949 -0.0570
  542MOL0     C73091   2.957  10.637   1.870  0.8314 -0.3097  0.1070
  542MOL0     C73092   3.062  10.617   1.959 -0.2755 -0.1932 -0.1211
  542MOL0     C73093   3.195  10.663   1.936 -0.2008  0.1573  0.5593
  542MOL0     O73094   3.315  10.624   1.995  0.0903 -0.7256 -0.1329
  542MOL0     C73095   3.300  10.553   2.111  0.1598  1.0791 -0.6085
  542MOL0     C73096   3.435  10.545   2.175  0.0366 -0.9636  0.1544
  542MOL0     C73097   3.537  10.464   2.086 -0.7289  0.0009 -0.3577
  542MOL0     C73098   3.669  10.537   2.075 -0.7335  0.5029 -0.6290
  542MOL0     C73099   3.754  10.503   2.189 -0.2545  0.1977  0.4215
  542MOL0     C73100   3.822  10.455   2.277  0.1513  0.5990 -0.1018
  542MOL0     C73101   3.210  10.728   1.809 -0.1739  0.2335 -0.0905
  542MOL0     C73102   3.100  10.760   1.721 -0.3518  0.0203 -0.1862
  542MOL0     H73103   2.687  10.704   1.436  1.8256 -1.0280 -1.2744
  542MOL0     H73104   2.530  10.802   1.292  0.4717 -2.1102  1.5968
  542MOL0     H73105   2.495  11.223   1.215 -0.4934 -0.5230  0.2936
  542MOL0     H73106   2.603  11.194   1.074 -1.5510  1.2739 -1.9175
  542MOL0     H73107   2.379  11.269   0.999 -2.3338 -0.7916 -0.6099
  542MOL0     H73108   2.421  11.110   0.935  0.4802  3.7169 -2.6184
  542MOL0     H73109   2.271  10.998   1.117  0.3753 -0.1294 -2.9231
  542MOL0     H73110   2.255  11.157   1.196  2.0700  0.6386  0.3085
  542MOL0     H73111   2.151  11.220   0.986  1.1688  0.5259  1.7621
  542MOL0     H73112   2.132  11.040   0.958  0.7794 -2.7705  1.8079
  542MOL0     H73113   2.008  11.048   1.193  1.8062  1.8219  2.3604
  542MOL0     H73114   2.021  11.224   1.170  2.7988 -1.2631  1.4549
  542MOL0     H73115   1.896  11.201   0.944 -0.8272 -1.0150 -0.3448
  542MOL0     H73116   1.857  11.033   1.002 -2.0464  0.8075  0.8074
  542MOL0     H73117   1.758  11.099   1.213  0.4952 -0.2154  0.0035
  542MOL0     H73118   1.786  11.274   1.170  1.1925  1.6813 -1.7704
  542MOL0     H73119   1.614  11.081   1.010 -1.4051  0.4315 -0.0491
  542MOL0     H73120   1.645  11.253   0.971 -0.5027  0.0446 -0.1300
  542MOL0     H73121   1.542  11.074   1.297  0.1888 -0.2491 -0.4138
  542MOL0     H73122   1.230  11.253   1.441 -0.5540  0.4898 -1.8621
  542MOL0     H73123   1.326  11.109   1.456 -1.8852 -0.2674 -0.0266
  542MOL0     H73124   1.414  11.395   1.514 -3.0389  0.1385  0.0174
  542MOL0     H73125   1.516  11.243   1.549  0.1172  0.1738 -0.1848
  542MOL0     H73126   1.325  11.193   1.697 -0.0327 -0.2411 -1.4145
  542MOL0     H73127   1.264  11.355   1.687 -0.9428 -0.9822 -2.5090
  542MOL0     H73128   1.395  11.345   1.890  0.4536 -0.5604  0.4668
  542MOL0     H73129   1.472  11.452   1.769 -0.9981  0.0999  0.2830
  542MOL0     H73130   1.834  11.218   1.773  2.7423  1.0887  1.2092
  542MOL0     H73131   2.127  11.244   1.968 -0.2815  3.1934  0.3481
  542MOL0     H73132   2.026  11.144   1.857 -0.1756  0.5889 -0.4590
  542MOL0     H73133   2.054  11.310   1.818 -1.0920 -0.0986 -0.9576
  542MOL0     H73134   2.293  11.177   2.224 -0.4221  0.0403 -0.3507
  542MOL0     H73135   2.470  11.222   2.393 -0.4862  0.4761  1.1389
  542MOL0     H73136   2.629  11.415   2.423  0.4213 -2.5236  0.0910
  542MOL0     H73137   2.660  11.513   2.568 -0.1178 -0.7142 -0.8736
  542MOL0     H73138   2.612  11.274   2.693  0.0306 -1.3193  0.0917
  542MOL0     H73139   2.659  11.213   2.542  1.0029 -0.1809  0.4769
  542MOL0     H73140   2.877  11.375   2.559 -0.6255 -0.4484  0.9535
  542MOL0     H73141   2.864  11.221   2.645 -1.9271 -0.9057  2.1860
  542MOL0     H73142   2.818  11.490   2.760 -1.2663 -0.7220 -1.7211
  542MOL0     H73143   2.809  11.333   2.847 -0.4436 -1.7851 -0.6843
  542MOL0     H73144   3.045  11.459   2.709  0.3289  0.9661  1.0889
  542MOL0     H73145   3.058  11.303   2.802  0.6196 -0.0333 -0.7623
  542MOL0     H73146   3.139  11.537   2.902 -1.6423  2.0640 -1.8539
  542MOL0     H73147   2.958  11.558   2.929 -1.1494  0.3181 -0.7921
  542MOL0     H73148   2.956  11.335   3.052  1.5286 -2.1651  2.3394
  542MOL0     H73149   3.013  11.474   3.140  3.2146  2.1106 -0.4234
  542MOL0     H73150   3.196  11.271   3.011 -1.1317 -0.6981 -0.2363
  542MOL0     H73151   3.154  11.288   3.179 -3.6861  0.9988  0.7330
  542MOL0     H73152   2.274  11.585   2.506  2.4198  0.8630 -0.6491
  542MOL0     H73153   2.111  11.544   2.314 -0.3608  0.6528  2.8556
  542MOL0     H73154   1.698  11.369   2.224 -0.8894 -1.3644 -0.1438
  542MOL0     H73155   1.535  11.364   2.059  2.4321  1.8347  3.7445
  542MOL0     H73156   2.755  11.159   1.252 -1.3217 -0.4087 -1.0357
  542MOL0     H73157   2.915  11.083   1.420 -1.6063  2.7410 -3.0697
  542MOL0     H73158   2.867  10.599   1.918  1.2514 -1.4936 -0.0151
  542MOL0     H73159   3.039  10.576   2.057 -0.7461 -1.5964 -0.7837
  542MOL0     H73160   3.238  10.609   2.180  0.9765  1.9604 -0.5753
  542MOL0     H73161   3.260  10.451   2.101 -4.4531  2.7823 -2.4293
  542MOL0     H73162   3.428  10.499   2.274  1.0354 -0.0224  0.6882
  542MOL0     H73163   3.471  10.648   2.185 -0.9553 -0.5482 -0.3830
  542MOL0     H73164   3.511  10.456   1.980  0.1428  0.2174 -0.6007
  542MOL0     H73165   3.550  10.366   2.133 -0.0397  0.5797  0.7069
  542MOL0     H73166   3.654  10.645   2.064 -2.2486  0.4589  0.6164
  542MOL0     H73167   3.716  10.498   1.984 -1.2798 -2.8557  0.3939
  542MOL0     H73168   3.892  10.416   2.348  0.3388  2.7116  0.9283
  542MOL0     H73169   3.310  10.750   1.773  1.2586 -3.0493  1.4572
  542MOL0     H73170   3.125  10.792   1.620  0.6143  2.6493  0.7903
  543MOL0     O73171   0.434   4.021   9.003 -0.2051 -0.4492  0.5412
  543MOL0     C73172   0.487   4.131   9.011  0.1354 -0.6269 -0.0250
  543MOL0     O73173   0.464   4.243   8.939  0.7211 -0.5505  0.1231
  543MOL0     C73174   0.386   4.228   8.829  0.0613 -0.2335 -0.2303
  543MOL0     C73175   0.271   4.300   8.835  0.8730  0.5156  0.3185
  543MOL0     C73176   0.171   4.283   8.729  0.4296  0.1843  0.0910
  543MOL0     C73177   0.194   4.189   8.622  0.8518 -0.4665  0.0099
  543MOL0     O73178   0.105   4.158   8.518 -0.1798 -0.3737 -0.4635
  543MOL0     C73179  -0.031   4.184   8.542  0.1668 -0.3642  0.1543
  543MOL0     C73180  -0.105   4.169   8.412 -0.0735  0.2209  0.2248
  543MOL0     C73181  -0.258   4.201   8.420  0.0035  1.2242  0.5941
  543MOL0     C73182  -0.340   4.153   8.308  0.2847 -0.6773 -0.2206
  543MOL0     C73183  -0.474   4.220   8.292 -0.0902  0.6857  0.2452
  543MOL0     C73184  -0.556   4.177   8.175 -0.2408  0.3900 -0.3395
  543MOL0     C73185  -0.674   4.274   8.177 -0.0105 -0.1777 -1.1379
  543MOL0     C73186  -0.761   4.251   8.049 -0.4345 -0.5099 -0.4072
  543MOL0     N73187  -0.871   4.334   8.033 -0.0382 -0.0022  0.7326
  543MOL0     C73188  -0.856   4.463   7.986 -0.8406  0.5076  0.0491
  543MOL0     C73189  -0.986   4.494   7.942 -0.3823  0.0818  0.6920
  543MOL0     C73190  -1.032   4.633   7.895 -0.2940  0.2871 -0.5268
  543MOL0     C73191  -0.948   4.694   7.789  0.2860 -0.2734 -0.1252
  543MOL0     C73192  -0.962   4.620   7.659  0.1700 -0.1764 -0.1580
  543MOL0     C73193  -1.100   4.628   7.596 -1.0757  0.9057 -0.2678
  543MOL0     O73194  -1.155   4.758   7.591 -0.1005 -1.0851 -0.2633
  543MOL0     C73195  -1.270   4.793   7.529  0.1744  0.7491 -0.6202
  543MOL0     C73196  -1.356   4.706   7.480  0.3614  0.4123 -0.4785
  543MOL0     C73197  -1.484   4.746   7.434 -1.0612 -0.2369  0.6671
  543MOL0     C73198  -1.579   4.640   7.380  0.1553 -0.8617 -0.3407
  543MOL0     C73199  -1.522   4.885   7.441 -0.2415 -0.5698  0.4509
  543MOL0     C73200  -1.652   4.948   7.393 -0.6149 -0.1250 -0.1717
  543MOL0     O73201  -1.653   5.078   7.346  0.7278  0.0853 -0.0118
  543MOL0     C73202  -1.775   5.134   7.300 -0.2271 -1.0564  0.9447
  543MOL0     C73203  -1.794   5.270   7.336 -0.5465  0.0320 -0.3047
  543MOL0     C73204  -1.909   5.338   7.297  0.8364 -0.0048  0.4326
  543MOL0     C73205  -2.007   5.275   7.217 -0.7433 -0.4122 -0.2363
  543MOL0     O73206  -2.115   5.345   7.178  0.2370  0.0245 -0.0215
  543MOL0     C73207  -2.246   5.286   7.199 -0.6639 -0.4523  0.7162
  543MOL0     C73208  -2.314   5.284   7.066 -0.5050  0.0182  0.7412
  543MOL0     C73209  -2.464   5.241   7.085  0.7627  1.5798 -0.6310
  543MOL0     C73210  -2.555   5.225   6.961  0.1018  0.6477  0.1102
  543MOL0     C73211  -2.701   5.212   7.003 -0.1664  0.3872  0.8335
  543MOL0     C73212  -2.796   5.220   6.885  0.6742  0.2808  0.2468
  543MOL0     C73213  -2.942   5.205   6.931 -0.2254  0.3697 -0.7742
  543MOL0     C73214  -2.967   5.288   7.054 -0.0171  0.2656 -0.1208
  543MOL0    Cl73215  -3.144   5.314   7.053 -0.0643 -0.4586 -0.5785
  543MOL0     C73216  -1.984   5.143   7.177 -0.7775 -0.1680 -0.1887
  543MOL0     C73217  -1.864   5.072   7.213  0.6468 -0.8982 -1.1032
  543MOL0     O73218  -1.745   4.867   7.388  0.3215 -0.6917 -0.4332
  543MOL0     C73219  -1.427   4.975   7.500 -0.2561 -0.4755  0.3008
  543MOL0     C73220  -1.301   4.922   7.543 -0.2700 -0.1599  0.5978
  543MOL0     N73221  -1.066   4.389   7.955  0.6240  0.0701 -0.1413
  543MOL0     N73222  -0.997   4.295   8.020 -0.1354 -0.0100  0.3492
  543MOL0     C73223   0.319   4.121   8.626 -0.2529  0.2925 -0.3812
  543MOL0     C73224   0.417   4.148   8.723  0.6896 -0.0165  0.1476
  543MOL0     C73225   0.566   4.153   9.137  0.3172 -0.5448 -0.6225
  543MOL0     C73226   0.639   4.049   9.196  0.5154 -0.3006 -0.0078
  543MOL0     C73227   0.711   4.081   9.312 -0.3592  0.7986 -0.1731
  543MOL0     C73228   0.709   4.198   9.379 -0.5933  0.0521  0.7500
  543MOL0     O73229   0.772   4.228   9.505  0.6852 -0.6685  0.0863
  543MOL0     C73230   0.832   4.122   9.592  0.4273  0.2335 -0.3758
  543MOL0     C73231   0.766   4.096   9.732  0.6515  0.0099  0.4238
  543MOL0     C73232   0.862   4.037   9.827 -0.9293  0.0180 -0.0389
  543MOL0     C73233   0.811   3.914   9.916 -0.6598 -0.4635  0.0991
  543MOL0     C73234   0.711   3.940  10.009  0.2517  0.0826  0.1774
  543MOL0     C73235   0.626   3.969  10.085 -0.4529  0.0655  0.3093
  543MOL0     C73236   0.640   4.305   9.318 -0.3092  0.5169  0.1840
  543MOL0     C73237   0.563   4.282   9.202 -0.4046 -0.6980  0.5146
  543MOL0     H73238   0.252   4.363   8.921  2.8467  1.2733  0.2523
  543MOL0     H73239   0.080   4.340   8.738 -0.0024 -0.3385 -0.7509
  543MOL0     H73240  -0.075   4.127   8.624  0.5521  0.8376  1.2345
  543MOL0     H73241  -0.040   4.289   8.573  1.8726  0.2654 -1.3535
  543MOL0     H73242  -0.056   4.235   8.340 -0.1979 -1.6300 -1.6642
  543MOL0     H73243  -0.100   4.072   8.361  0.4554 -1.6227  3.5308
  543MOL0     H73244  -0.289   4.144   8.507 -0.9411  1.8554  0.6941
  543MOL0     H73245  -0.273   4.309   8.433 -0.5377  1.5913 -2.3446
  543MOL0     H73246  -0.287   4.167   8.213  0.5433  0.2708  0.0450
  543MOL0     H73247  -0.349   4.045   8.319 -4.1895 -0.3582  1.1765
  543MOL0     H73248  -0.531   4.192   8.381 -0.2347 -3.3688 -0.9521
  543MOL0     H73249  -0.460   4.329   8.293  0.6503  0.6183 -1.1738
  543MOL0     H73250  -0.499   4.195   8.084 -1.3999 -0.8603 -1.3565
  543MOL0     H73251  -0.577   4.070   8.181  1.8762  0.0056  1.5354
  543MOL0     H73252  -0.740   4.260   8.263  0.9476 -0.1785 -0.3989
  543MOL0     H73253  -0.650   4.380   8.174  1.5212 -0.4883 -0.4329
  543MOL0     H73254  -0.803   4.150   8.048 -1.9221  0.0250 -3.1726
  543MOL0     H73255  -0.699   4.265   7.960 -0.3580  4.2546  0.1266
  543MOL0     H73256  -0.771   4.530   7.984 -1.7263  1.7833  1.8693
  543MOL0     H73257  -1.134   4.641   7.857 -0.6721 -1.4716  0.0255
  543MOL0     H73258  -1.025   4.692   7.987  0.2649  2.1100 -1.6864
  543MOL0     H73259  -0.841   4.698   7.813  0.4499 -1.5239 -0.5629
  543MOL0     H73260  -0.979   4.799   7.779 -0.6112 -0.0774  3.3734
  543MOL0     H73261  -0.929   4.516   7.665 -1.4075 -0.7452 -0.9874
  543MOL0     H73262  -0.896   4.675   7.592  0.8768  0.9164  1.3726
  543MOL0     H73263  -1.159   4.544   7.633 -2.2181  1.3300 -1.0613
  543MOL0     H73264  -1.087   4.604   7.490 -1.8154  1.7070 -0.5510
  543MOL0     H73265  -1.326   4.602   7.480  2.3319  0.7824  3.7729
  543MOL0     H73266  -1.668   4.624   7.442 -0.1238  3.0920  0.5070
  543MOL0     H73267  -1.622   4.676   7.286  0.6146 -2.2642 -1.1239
  543MOL0     H73268  -1.521   4.551   7.354  1.5253  0.8028 -3.6160
  543MOL0     H73269  -1.724   5.318   7.403  0.3335 -1.6695  0.0469
  543MOL0     H73270  -1.937   5.432   7.343 -3.4716 -0.9121  0.0540
  543MOL0     H73271  -2.244   5.184   7.238 -2.3260  0.3416  3.0869
  543MOL0     H73272  -2.295   5.350   7.273  0.4012 -0.2463  1.2599
  543MOL0     H73273  -2.289   5.379   7.019  2.2759 -0.1863  1.5948
  543MOL0     H73274  -2.261   5.213   7.002 -1.3701 -0.1267  0.1753
  543MOL0     H73275  -2.519   5.306   7.153  0.6037  0.9137 -0.1147
  543MOL0     H73276  -2.458   5.138   7.122  0.6198  0.1603 -4.1167
  543MOL0     H73277  -2.536   5.321   6.913 -1.1072  2.0144  2.1934
  543MOL0     H73278  -2.528   5.151   6.885  0.9387  1.5064 -0.4405
  543MOL0     H73279  -2.726   5.282   7.083  0.0876  0.9401  0.4374
  543MOL0     H73280  -2.706   5.120   7.062  1.2000 -0.4886 -0.3374
  543MOL0     H73281  -2.799   5.318   6.838 -0.2512  1.0090  1.7388
  543MOL0     H73282  -2.774   5.137   6.817  0.4303  0.7953 -0.4699
  543MOL0     H73283  -2.973   5.103   6.953 -1.7601  1.2404  1.5197
  543MOL0     H73284  -3.015   5.245   6.860 -1.0067  1.1238  0.3974
  543MOL0     H73285  -2.924   5.387   7.041 -1.4249  0.7511 -1.3996
  543MOL0     H73286  -2.929   5.237   7.143 -0.2356  0.1646 -0.0839
  543MOL0     H73287  -2.058   5.086   7.122 -2.4777 -0.8484  2.6003
  543MOL0     H73288  -1.856   4.970   7.177 -1.0028 -1.7308  0.6632
  543MOL0     H73289  -1.447   5.076   7.533 -2.2285 -0.4728 -0.7574
  543MOL0     H73290  -1.243   4.987   7.608 -1.2113  0.8334  0.4728
  543MOL0     H73291   0.355   4.061   8.543  1.6757 -1.7109  1.7459
  543MOL0     H73292   0.507   4.090   8.704  0.6781 -0.0937  0.3277
  543MOL0     H73293   0.635   3.949   9.155  1.5794 -0.2744 -0.2042
  543MOL0     H73294   0.776   4.004   9.352  2.4037  0.8008 -4.0733
  543MOL0     H73295   0.834   4.023   9.545 -0.6869  0.5153 -1.0448
  543MOL0     H73296   0.935   4.153   9.612 -0.2509  2.6074 -0.2789
  543MOL0     H73297   0.685   4.022   9.725  0.1056  0.6033  0.4083
  543MOL0     H73298   0.717   4.187   9.767 -0.7317  0.0742 -1.4900
  543MOL0     H73299   0.897   4.115   9.896 -2.4268 -0.3927  1.2759
  543MOL0     H73300   0.953   4.007   9.776  1.2541  1.6800  2.6066
  543MOL0     H73301   0.898   3.866   9.963 -1.7255 -0.1757  2.4926
  543MOL0     H73302   0.778   3.845   9.837  0.6984 -0.5999 -0.3911
  543MOL0     H73303   0.549   3.987  10.158 -0.5858 -5.4004  1.9428
  543MOL0     H73304   0.637   4.410   9.347 -2.1906  0.3987  0.5396
  543MOL0     H73305   0.497   4.363   9.172 -1.1225 -0.6626  2.0969
  544MOL0     O73306   3.310   5.918   7.299 -0.4778  0.5126 -0.2226
  544MOL0     C73307   3.351   5.817   7.354  0.1382 -0.1383  0.3579
  544MOL0     O73308   3.290   5.702   7.370  0.1975  0.3075 -0.3327
  544MOL0     C73309   3.173   5.664   7.305  0.1758 -0.3756 -0.7446
  544MOL0     C73310   3.147   5.712   7.173  0.6614 -0.4273  1.2644
  544MOL0     C73311   3.019   5.684   7.120 -0.0804 -0.2357  0.6820
  544MOL0     C73312   2.924   5.602   7.181 -0.6114  0.1118  0.6572
  544MOL0     O73313   2.803   5.590   7.114 -0.3326 -0.3955 -0.1236
  544MOL0     C73314   2.693   5.514   7.167  0.4080 -0.5788 -0.3517
  544MOL0     C73315   2.590   5.511   7.063 -0.6418 -0.4576  0.2021
  544MOL0     C73316   2.643   5.447   6.931 -0.8371  0.3388  0.1630
  544MOL0     C73317   2.545   5.463   6.811 -0.6385  0.2857 -0.4064
  544MOL0     C73318   2.405   5.418   6.862 -0.0658 -0.3832  0.4493
  544MOL0     C73319   2.317   5.430   6.743  0.2469  0.4343  0.0110
  544MOL0     C73320   2.170   5.420   6.767  0.1360 -0.2188 -0.2499
  544MOL0     C73321   2.099   5.477   6.642 -0.0902  0.3498  0.1641
  544MOL0     N73322   1.958   5.443   6.627 -0.2308 -0.9024 -0.2729
  544MOL0     C73323   1.851   5.471   6.715  0.2876  0.8431 -0.3543
  544MOL0     C73324   1.743   5.415   6.661  0.2989  0.6631  0.0669
  544MOL0     C73325   1.602   5.426   6.727 -0.8548 -0.5116 -0.4501
  544MOL0     C73326   1.500   5.508   6.644  0.3957  0.3411  0.2978
  544MOL0     C73327   1.375   5.540   6.720  0.4459 -0.2901 -0.1101
  544MOL0     C73328   1.272   5.623   6.643  0.5359 -0.0750 -0.7064
  544MOL0     O73329   1.190   5.533   6.558  0.7004 -0.3687 -0.6783
  544MOL0     C73330   1.061   5.580   6.518 -0.5986  0.2367 -0.0741
  544MOL0     C73331   0.974   5.483   6.449  0.7052 -0.8798 -0.1651
  544MOL0     C73332   0.847   5.524   6.406  0.2364  0.3019 -1.4663
  544MOL0     C73333   0.759   5.405   6.355 -0.1165 -0.6741 -0.4523
  544MOL0     C73334   0.805   5.656   6.431 -0.0505 -0.0622  0.2467
  544MOL0     C73335   0.665   5.699   6.408 -0.1006  0.1407  0.2253
  544MOL0     O73336   0.590   5.669   6.296 -0.1587 -0.4306 -0.6724
  544MOL0     C73337   0.458   5.721   6.292 -0.4142  0.1158  0.8314
  544MOL0     C73338   0.351   5.634   6.307  0.1182 -0.1164 -0.8372
  544MOL0     C73339   0.223   5.683   6.309  0.3375  0.1358  0.7464
  544MOL0     C73340   0.199   5.823   6.300  0.7146 -0.0288  0.2576
  544MOL0     O73341   0.075   5.880   6.316 -0.3202  0.0893  0.1299
  544MOL0     C73342  -0.046   5.804   6.317  0.0006 -0.9353  0.2042
  544MOL0     C73343  -0.065   5.745   6.454  0.0832 -0.5048  0.6204
  544MOL0     C73344  -0.217   5.749   6.480  0.4398 -0.0879  0.2091
  544MOL0     C73345  -0.262   5.675   6.598  0.1082  0.9128 -0.2681
  544MOL0     C73346  -0.199   5.714   6.730 -0.3410  0.1490 -0.6983
  544MOL0     C73347  -0.214   5.866   6.760 -0.1147 -0.5362  0.3746
  544MOL0     C73348  -0.170   5.910   6.897 -0.2299 -0.0996 -0.0583
  544MOL0     C73349  -0.185   6.058   6.920 -0.1730 -0.4322  0.0744
  544MOL0    Cl73350  -0.097   6.085   7.083 -0.3127 -0.1933  0.0631
  544MOL0     C73351   0.301   5.905   6.275  0.4026  0.0998  0.2723
  544MOL0     C73352   0.431   5.855   6.274  0.1572 -0.1383  1.0469
  544MOL0     O73353   0.627   5.776   6.494  0.5097  0.2480 -0.4041
  544MOL0     C73354   0.886   5.744   6.504  0.3882 -0.1744 -0.1031
  544MOL0     C73355   1.012   5.707   6.535 -0.7003 -0.4699 -0.3465
  544MOL0     N73356   1.786   5.352   6.544  0.2192 -0.8451 -0.5978
  544MOL0     N73357   1.912   5.350   6.536  0.4535 -0.4695 -0.2954
  544MOL0     C73358   2.954   5.553   7.310 -1.0912 -0.2158  0.5735
  544MOL0     C73359   3.082   5.581   7.369  0.4925  1.0327  0.1121
  544MOL0     C73360   3.490   5.826   7.416 -0.3910  0.8112  0.8317
  544MOL0     C73361   3.569   5.716   7.456  0.0013  0.3317  0.0242
  544MOL0     C73362   3.695   5.733   7.519  0.7798 -0.5503 -0.2349
  544MOL0     C73363   3.744   5.866   7.542  0.2919  0.3205  0.6674
  544MOL0     O73364   3.867   5.892   7.598 -0.2907  0.2413 -0.4718
  544MOL0     C73365   3.943   6.000   7.543 -0.5154  0.4209  0.0483
  544MOL0     C73366   4.091   5.967   7.533  0.3904 -0.2712  0.0586
  544MOL0     C73367   4.157   6.088   7.454  0.2539  0.2191 -0.0945
  544MOL0     C73368   4.309   6.074   7.426  0.7562  0.2515 -0.4548
  544MOL0     C73369   4.395   6.085   7.548 -0.6424 -0.0370  1.0593
  544MOL0     C73370   4.458   6.107   7.652 -0.4866  0.3561  0.1194
  544MOL0     C73371   3.664   5.974   7.506 -0.4307  0.0245 -0.0771
  544MOL0     C73372   3.551   5.959   7.433 -0.0415 -1.4065 -0.6251
  544MOL0     H73373   3.221   5.765   7.115 -1.3152 -0.7795 -1.8058
  544MOL0     H73374   2.997   5.723   7.021  1.3709 -2.1960 -0.4849
  544MOL0     H73375   2.741   5.417   7.184  2.2764  0.4843  0.8668
  544MOL0     H73376   2.644   5.550   7.258 -0.5851  0.6468 -1.3274
  544MOL0     H73377   2.514   5.442   7.099  0.9859 -1.1545  2.5734
  544MOL0     H73378   2.555   5.612   7.039  0.2932  0.0469  0.8762
  544MOL0     H73379   2.730   5.507   6.902 -2.1112  3.2681  2.0076
  544MOL0     H73380   2.667   5.342   6.950  1.5485  1.1821  2.4581
  544MOL0     H73381   2.539   5.566   6.776  0.1716  0.1893 -0.8429
  544MOL0     H73382   2.586   5.398   6.733  1.2752  3.4291 -2.2167
  544MOL0     H73383   2.412   5.318   6.904  2.5114 -0.8859 -0.9725
  544MOL0     H73384   2.356   5.477   6.940 -2.4915  0.1842 -1.3661
  544MOL0     H73385   2.328   5.518   6.678 -0.7137 -1.2441 -2.5885
  544MOL0     H73386   2.349   5.354   6.671  0.2820 -0.7193  1.2036
  544MOL0     H73387   2.146   5.316   6.787  0.7521 -0.8924 -2.6602
  544MOL0     H73388   2.129   5.484   6.846 -1.0386 -1.6456  0.3438
  544MOL0     H73389   2.146   5.425   6.558 -0.7013 -3.7299  2.0752
  544MOL0     H73390   2.114   5.585   6.640  0.4777  0.2626 -1.5748
  544MOL0     H73391   1.859   5.538   6.800 -1.8684  1.3527 -0.4822
  544MOL0     H73392   1.567   5.328   6.760 -3.2714  0.0258 -1.2374
  544MOL0     H73393   1.624   5.487   6.815 -0.3414  2.3925 -2.4562
  544MOL0     H73394   1.464   5.466   6.550  1.4674  0.5363 -0.2142
  544MOL0     H73395   1.543   5.605   6.617  4.1339 -1.7626 -2.2410
  544MOL0     H73396   1.404   5.600   6.807 -0.6087 -1.5721  1.1896
  544MOL0     H73397   1.324   5.450   6.758  0.4875 -0.9569 -1.5804
  544MOL0     H73398   1.319   5.698   6.579  0.7931  0.2258 -0.1694
  544MOL0     H73399   1.208   5.677   6.713  1.3063 -1.7121  1.3569
  544MOL0     H73400   0.995   5.377   6.442 -0.5311 -1.1355 -0.3830
  544MOL0     H73401   0.672   5.435   6.296  0.0716  0.5691 -0.1280
  544MOL0     H73402   0.816   5.323   6.310  0.8962  0.0566 -0.5344
  544MOL0     H73403   0.720   5.364   6.449 -1.6175  0.5469 -0.5222
  544MOL0     H73404   0.369   5.527   6.305 -1.2217 -0.4135 -4.4203
  544MOL0     H73405   0.134   5.620   6.320 -0.6060  1.0925 -1.0177
  544MOL0     H73406  -0.127   5.873   6.291 -1.1547 -1.4965  2.1636
  544MOL0     H73407  -0.034   5.728   6.240  0.2558 -1.1647  0.4662
  544MOL0     H73408  -0.026   5.643   6.453 -4.5223 -2.5505  0.9624
  544MOL0     H73409  -0.018   5.810   6.528  0.2167  0.7936 -0.5615
  544MOL0     H73410  -0.263   5.704   6.392  3.5384 -2.8233 -0.1856
  544MOL0     H73411  -0.253   5.852   6.491  3.2714  0.8988  1.3500
  544MOL0     H73412  -0.370   5.677   6.615  0.1438 -0.5681  0.3172
  544MOL0     H73413  -0.238   5.568   6.591  0.3958  0.6960  2.6995
  544MOL0     H73414  -0.092   5.691   6.721  0.0865  0.9190  1.7751
  544MOL0     H73415  -0.251   5.662   6.810 -1.6978  0.5997 -1.2660
  544MOL0     H73416  -0.149   5.923   6.692 -1.1865  0.6991  0.3418
  544MOL0     H73417  -0.314   5.907   6.745  1.4658  3.1575 -1.3463
  544MOL0     H73418  -0.063   5.888   6.906  0.2004  2.3887  2.3117
  544MOL0     H73419  -0.241   5.863   6.966  0.9602 -1.5544  0.2338
  544MOL0     H73420  -0.292   6.084   6.916  0.5737  2.8621 -1.7991
  544MOL0     H73421  -0.124   6.114   6.849  1.9338  0.7172  2.6511
  544MOL0     H73422   0.261   6.006   6.281  0.6060  0.1875  0.1380
  544MOL0     H73423   0.517   5.921   6.270  0.1239 -0.0996  0.9681
  544MOL0     H73424   0.847   5.841   6.531  0.1856  0.0136 -1.0110
  544MOL0     H73425   1.074   5.784   6.580  2.3857 -2.0128 -1.6792
  544MOL0     H73426   2.888   5.478   7.354  0.4295 -0.3872  2.7596
  544MOL0     H73427   3.106   5.542   7.467 -0.1970  0.9115  0.2410
  544MOL0     H73428   3.530   5.619   7.425  1.0426 -0.1132  0.0531
  544MOL0     H73429   3.754   5.648   7.551  0.6876  0.6079  3.4497
  544MOL0     H73430   3.900   6.017   7.444  2.3075  0.3410 -1.2794
  544MOL0     H73431   3.929   6.092   7.601  3.8165 -0.5507  3.1194
  544MOL0     H73432   4.096   5.875   7.474 -0.7828  0.1972 -0.7974
  544MOL0     H73433   4.138   5.952   7.631  1.6034  1.7254 -0.1607
  544MOL0     H73434   4.126   6.173   7.515  1.6420 -1.6533  3.5317
  544MOL0     H73435   4.100   6.096   7.361  0.4003 -1.9952 -0.4388
  544MOL0     H73436   4.348   6.151   7.360  0.0651  1.5030  0.5599
  544MOL0     H73437   4.335   5.974   7.389  2.7444 -0.4878  2.4936
  544MOL0     H73438   4.515   6.108   7.742  0.2046 -3.1999 -0.1188
  544MOL0     H73439   3.703   6.073   7.528 -0.3463 -0.0192 -0.0312
  544MOL0     H73440   3.489   6.046   7.411  0.6385 -1.1546 -1.5861
  545MOL0     O73441   4.770   6.700   9.118 -0.0654 -0.6104 -0.0582
  545MOL0     C73442   4.779   6.826   9.134 -0.3934  0.3888  0.3169
  545MOL0     O73443   4.684   6.915   9.159 -0.1332 -0.3279 -0.8047
  545MOL0     C73444   4.548   6.881   9.180 -0.4301 -0.3008 -0.8397
  545MOL0     C73445   4.503   6.759   9.218 -0.3104 -0.6811 -0.6596
  545MOL0     C73446   4.372   6.733   9.243  0.1444  0.7786 -0.1306
  545MOL0     C73447   4.278   6.830   9.217  0.1857  0.0485 -1.2873
  545MOL0     O73448   4.146   6.798   9.252  0.2968 -0.8561  0.2016
  545MOL0     C73449   4.041   6.835   9.165  0.3990 -0.1649 -0.5490
  545MOL0     C73450   3.941   6.893   9.262 -0.7010 -0.2815  0.0122
  545MOL0     C73451   3.824   6.971   9.203 -0.6996  0.2104  0.0034
  545MOL0     C73452   3.722   7.003   9.304  0.3595 -0.4487  0.1037
  545MOL0     C73453   3.613   6.888   9.320  0.0716 -0.2156 -0.3395
  545MOL0     C73454   3.497   6.921   9.402 -0.4291  0.0997 -0.9096
  545MOL0     C73455   3.521   6.944   9.555  0.2081 -0.0784 -0.1520
  545MOL0     C73456   3.377   6.965   9.625 -0.3360  0.2326  0.3463
  545MOL0     N73457   3.390   7.015   9.760 -0.1472 -1.0616 -0.2011
  545MOL0     C73458   3.286   7.036   9.842 -0.1704 -0.0187 -0.5997
  545MOL0     C73459   3.335   7.069   9.966  0.3441 -0.6291  1.1880
  545MOL0     C73460   3.267   7.060  10.107  0.2229 -0.0066  0.9498
  545MOL0     C73461   3.145   7.148  10.145  0.2957 -0.8179 -0.0259
  545MOL0     C73462   3.114   7.274  10.060 -0.3463  0.9994 -0.7210
  545MOL0     C73463   2.959   7.292  10.050  0.5158 -0.0994  0.7959
  545MOL0     O73464   2.903   7.256  10.172  0.4893  0.9281 -0.4496
  545MOL0     C73465   2.776   7.290  10.199 -0.6712 -0.3364 -0.1792
  545MOL0     C73466   2.732   7.267  10.336  0.0511 -0.0894  0.7491
  545MOL0     C73467   2.598   7.305  10.372  0.0346  0.7181 -0.2413
  545MOL0     C73468   2.570   7.274  10.517 -0.8941  0.3488  0.9066
  545MOL0     C73469   2.504   7.348  10.274  0.4701  0.0167 -0.5172
  545MOL0     C73470   2.356   7.366  10.313 -1.5108  0.7660  0.2943
  545MOL0     O73471   2.255   7.353  10.213  0.2050  0.5084  0.3746
  545MOL0     C73472   2.129   7.382  10.246  0.5016  0.3513  0.3775
  545MOL0     C73473   2.048   7.301  10.320  0.5485 -0.4335  0.1458
  545MOL0     C73474   1.919   7.341  10.365 -0.2864 -0.1136  0.0961
  545MOL0     C73475   1.869   7.455  10.320  0.8406  0.1452 -0.2599
  545MOL0     O73476   1.748   7.482  10.383 -0.5695 -0.1415  0.1792
  545MOL0     C73477   1.700   7.623  10.363 -0.0110  0.6786 -0.1088
  545MOL0     C73478   1.785   7.723  10.445 -0.4526  0.1682  0.3463
  545MOL0     C73479   1.736   7.865  10.450  0.1301  1.1766 -1.1399
  545MOL0     C73480   1.817   7.946  10.553 -0.3048 -0.0349 -0.0811
  545MOL0     C73481   1.764   8.090  10.561 -0.8026  0.2337  1.1613
  545MOL0     C73482   1.832   8.175  10.669  0.5461 -0.0326  0.7800
  545MOL0     C73483   1.765   8.308  10.693 -0.1093 -0.3716  0.1433
  545MOL0     C73484   1.798   8.408  10.588 -0.3843 -0.1156  0.7922
  545MOL0    Cl73485   1.712   8.567  10.622  0.3941 -0.2357  0.6271
  545MOL0     C73486   1.936   7.532  10.224  0.1888 -0.8939 -0.2735
  545MOL0     C73487   2.065   7.497  10.192 -0.6701 -0.6989  0.1057
  545MOL0     O73488   2.345   7.402  10.425 -0.4528 -0.2467  0.2602
  545MOL0     C73489   2.545   7.374  10.151 -1.1947  0.3191 -0.1501
  545MOL0     C73490   2.680   7.343  10.107 -0.7616 -0.3395  0.3090
  545MOL0     N73491   3.464   7.040   9.957  0.5673 -0.8213 -0.8760
  545MOL0     N73492   3.503   7.008   9.842 -0.1535  0.2810  0.0056
  545MOL0     C73493   4.322   6.948   9.174 -0.8562 -0.5328 -0.3118
  545MOL0     C73494   4.453   6.977   9.152 -0.0392  0.3856 -0.5311
  545MOL0     C73495   4.915   6.871   9.161  0.2479 -0.2291 -0.3765
  545MOL0     C73496   4.932   7.000   9.190  0.0486  0.3433 -0.3357
  545MOL0     C73497   5.044   7.048   9.241 -0.3795 -0.5767 -0.0380
  545MOL0     C73498   5.159   6.970   9.265  0.9930  0.0762 -0.3699
  545MOL0     O73499   5.263   7.039   9.320  0.4969 -0.0799  0.2566
  545MOL0     C73500   5.386   6.971   9.342 -0.6183 -1.3431 -0.1027
  545MOL0     C73501   5.492   7.086   9.364 -0.4767  0.0644  0.0829
  545MOL0     C73502   5.636   7.033   9.376 -0.3508 -0.4450 -1.0368
  545MOL0     C73503   5.690   6.970   9.252  0.0058  0.0141  0.1945
  545MOL0     C73504   5.705   7.062   9.140  0.0659 -0.3246 -0.0628
  545MOL0     C73505   5.712   7.132   9.043  0.6294 -0.4414  0.0156
  545MOL0     C73506   5.155   6.836   9.226 -0.8819  0.2216  0.3195
  545MOL0     C73507   5.035   6.781   9.177  0.4899 -0.2249 -0.1395
  545MOL0     H73508   4.568   6.676   9.245  2.0544  1.3243  0.2801
  545MOL0     H73509   4.351   6.632   9.277  1.9799  0.6279  0.6630
  545MOL0     H73510   4.065   6.921   9.103  1.5177  0.5131  0.7700
  545MOL0     H73511   3.997   6.750   9.111  1.4249 -0.5683 -0.7721
  545MOL0     H73512   3.899   6.815   9.327 -1.3461  0.1212  0.0866
  545MOL0     H73513   3.998   6.958   9.329 -1.0112 -1.7189  1.7446
  545MOL0     H73514   3.861   7.066   9.161 -0.7989  1.5694  2.7715
  545MOL0     H73515   3.779   6.917   9.119 -1.2926  0.9017 -0.1345
  545MOL0     H73516   3.777   7.022   9.396 -0.0126 -2.0457  0.7047
  545MOL0     H73517   3.668   7.092   9.270  1.1520  1.0155  2.4721
  545MOL0     H73518   3.561   6.873   9.225 -4.3723  4.8237  0.8258
  545MOL0     H73519   3.656   6.796   9.363 -1.0331  0.5391  2.6269
  545MOL0     H73520   3.469   7.022   9.368 -0.3446  0.7222  0.7777
  545MOL0     H73521   3.414   6.854   9.377  0.2298 -1.2594  0.4572
  545MOL0     H73522   3.557   6.852   9.603  2.9684  1.9840  2.1424
  545MOL0     H73523   3.591   7.026   9.576 -0.6857  0.4625  0.8080
  545MOL0     H73524   3.317   6.873   9.621 -0.0694  0.1060 -2.0296
  545MOL0     H73525   3.329   7.037   9.559 -0.1152  1.6819  1.7083
  545MOL0     H73526   3.179   7.024   9.829 -0.1878 -3.0236  1.3593
  545MOL0     H73527   3.251   6.953  10.122 -0.2327 -0.4401 -1.9625
  545MOL0     H73528   3.348   7.106  10.164  1.4165  0.4266 -1.0053
  545MOL0     H73529   3.162   7.183  10.248  2.4827 -2.5145  0.2590
  545MOL0     H73530   3.064   7.075  10.136  1.2479 -1.7306 -1.7640
  545MOL0     H73531   3.168   7.259   9.966  0.4753 -0.4017 -0.0692
  545MOL0     H73532   3.152   7.363  10.110 -2.6487  2.2338 -1.0524
  545MOL0     H73533   2.911   7.239   9.968 -0.9959  1.0163  0.9185
  545MOL0     H73534   2.943   7.397  10.025 -0.1156 -0.5807 -0.9180
  545MOL0     H73535   2.793   7.212  10.408  2.6285  2.4872  0.7183
  545MOL0     H73536   2.652   7.211  10.553  0.4954  1.3123 -0.4706
  545MOL0     H73537   2.568   7.366  10.575  1.3699 -0.8958  3.1693
  545MOL0     H73538   2.475   7.222  10.534 -0.7750 -0.6347 -1.0788
  545MOL0     H73539   2.087   7.210  10.363 -0.5266  0.1223  2.4796
  545MOL0     H73540   1.866   7.276  10.434 -0.7138 -1.7363 -1.6714
  545MOL0     H73541   1.709   7.662  10.261  0.0597  2.5894  0.5916
  545MOL0     H73542   1.595   7.623  10.396 -0.3782  1.4030 -1.2303
  545MOL0     H73543   1.798   7.678  10.544 -2.5116  0.1743  0.6618
  545MOL0     H73544   1.887   7.728  10.406  0.4701 -2.9294  2.0028
  545MOL0     H73545   1.633   7.886  10.481  0.1539  3.4992 -2.4070
  545MOL0     H73546   1.744   7.910  10.350 -0.3235  2.3717 -0.6544
  545MOL0     H73547   1.807   7.899  10.652 -0.5213 -1.8449 -0.9093
  545MOL0     H73548   1.926   7.947  10.542 -0.2016 -2.9777 -0.1721
  545MOL0     H73549   1.657   8.089  10.585 -1.2269  3.9841  0.1186
  545MOL0     H73550   1.786   8.125  10.459 -0.1977 -2.8188  0.1584
  545MOL0     H73551   1.841   8.120  10.763  2.6947  0.8139  1.1297
  545MOL0     H73552   1.938   8.187  10.649  0.5208 -0.6417  0.2536
  545MOL0     H73553   1.792   8.336  10.795 -1.6596  0.3474  0.3765
  545MOL0     H73554   1.656   8.299  10.691 -0.3783  2.2636 -0.0637
  545MOL0     H73555   1.752   8.367  10.497  0.6814 -0.2644  0.3007
  545MOL0     H73556   1.905   8.419  10.567 -0.0876 -2.3096  0.9252
  545MOL0     H73557   1.885   7.618  10.182 -0.6828 -0.3992  1.7040
  545MOL0     H73558   2.108   7.554  10.111 -0.1697 -1.3316 -0.0862
  545MOL0     H73559   2.464   7.407  10.086 -0.7565  1.8157  0.0139
  545MOL0     H73560   2.717   7.358  10.006 -0.8665  1.6257  0.5068
  545MOL0     H73561   4.260   7.036   9.158  0.8337  0.4656 -1.7117
  545MOL0     H73562   4.483   7.079   9.127  0.9218  0.0455 -0.8134
  545MOL0     H73563   4.842   7.061   9.199 -2.5143 -3.4367  4.2599
  545MOL0     H73564   5.048   7.152   9.273  1.1338 -0.4267 -0.6245
  545MOL0     H73565   5.383   6.916   9.436 -2.0184  3.5973  3.1851
  545MOL0     H73566   5.417   6.910   9.257  0.0288 -1.4491  0.2026
  545MOL0     H73567   5.469   7.146   9.453 -4.6132 -0.3882 -0.4809
  545MOL0     H73568   5.492   7.161   9.284 -1.1207 -0.3761 -0.3423
  545MOL0     H73569   5.643   6.955   9.453 -1.3562  1.3615  0.9672
  545MOL0     H73570   5.705   7.107   9.417 -0.8312 -0.5543  0.0114
  545MOL0     H73571   5.629   6.888   9.214  0.3632  0.0654 -0.4985
  545MOL0     H73572   5.788   6.922   9.262 -0.5534 -0.8120  2.5699
  545MOL0     H73573   5.729   7.191   8.954 -2.3387 -0.8485 -0.9171
  545MOL0     H73574   5.243   6.774   9.238 -0.3489  0.7604 -0.7081
  545MOL0     H73575   5.016   6.676   9.156 -0.5457 -0.3319  1.2314
  546MOL0     O73576   2.553   7.796   7.084  0.4500 -0.1519  0.1225
  546MOL0     C73577   2.574   7.703   7.168 -0.2289 -0.9171  0.8474
  546MOL0     O73578   2.477   7.634   7.236 -0.2205 -0.0074  0.0158
  546MOL0     C73579   2.349   7.677   7.237  0.3233  0.2104 -0.2303
  546MOL0     C73580   2.282   7.713   7.118 -0.4203 -0.1676  0.6588
  546MOL0     C73581   2.145   7.740   7.126 -0.4961  0.6816  0.9207
  546MOL0     C73582   2.069   7.737   7.245 -1.2664 -0.2522  0.7981
  546MOL0     O73583   1.940   7.783   7.255  0.2583  0.4630 -0.6965
  546MOL0     C73584   1.864   7.801   7.137 -0.4481 -0.0218  0.2489
  546MOL0     C73585   1.725   7.855   7.168  0.0707 -1.2871 -0.5788
  546MOL0     C73586   1.641   7.746   7.232 -0.1964 -0.2686 -0.0363
  546MOL0     C73587   1.513   7.816   7.279  0.5367  0.8753 -0.8698
  546MOL0     C73588   1.411   7.721   7.338 -0.4486 -0.4145  0.8822
  546MOL0     C73589   1.268   7.782   7.347 -0.3043  0.1481 -0.7958
  546MOL0     C73590   1.164   7.683   7.406  0.6441 -0.0922  0.3996
  546MOL0     C73591   1.038   7.752   7.455 -0.0505 -0.5707  0.0275
  546MOL0     N73592   0.920   7.679   7.422 -0.0851  0.8076  0.2001
  546MOL0     C73593   0.865   7.593   7.516 -1.1530 -0.2679  0.6582
  546MOL0     C73594   0.768   7.532   7.448 -0.2675 -0.3308 -0.0460
  546MOL0     C73595   0.697   7.418   7.514 -0.1240  0.3527  0.6415
  546MOL0     C73596   0.548   7.447   7.547  0.6324 -0.0919  0.2890
  546MOL0     C73597   0.472   7.446   7.408  0.5192  0.3410 -0.1658
  546MOL0     C73598   0.324   7.493   7.400 -0.0214 -0.0209 -0.5492
  546MOL0     O73599   0.294   7.578   7.514  0.2778 -1.1631  0.7466
  546MOL0     C73600   0.175   7.552   7.578 -0.4495 -0.4733 -0.5458
  546MOL0     C73601   0.175   7.478   7.691 -0.6427 -0.3650 -0.3780
  546MOL0     C73602   0.053   7.447   7.756 -0.4037  0.2108  0.1901
  546MOL0     C73603   0.053   7.353   7.869 -0.0642 -0.1383  0.1443
  546MOL0     C73604  -0.056   7.522   7.725  0.4827 -0.0074 -0.6221
  546MOL0     C73605  -0.180   7.529   7.809 -0.7280  0.6095  0.4600
  546MOL0     O73606  -0.290   7.577   7.751  0.6150 -0.4509 -0.5032
  546MOL0     C73607  -0.407   7.573   7.820 -0.1572  0.4741 -0.5111
  546MOL0     C73608  -0.475   7.693   7.847 -0.6708 -0.0550 -0.2645
  546MOL0     C73609  -0.589   7.689   7.926  0.7046  0.3034 -0.8099
  546MOL0     C73610  -0.643   7.574   7.982  0.3862 -0.0178 -0.1292
  546MOL0     O73611  -0.750   7.571   8.071  0.5477 -0.2951  0.6253
  546MOL0     C73612  -0.845   7.678   8.077  0.2335 -0.1817 -0.2982
  546MOL0     C73613  -0.802   7.778   8.185 -0.4294 -0.4344  0.3864
  546MOL0     C73614  -0.831   7.932   8.159 -0.1183  1.1611  0.9573
  546MOL0     C73615  -0.912   7.996   8.266  0.4175  0.4353 -0.2905
  546MOL0     C73616  -1.046   7.923   8.286 -1.0446  0.0243  1.0431
  546MOL0     C73617  -1.145   7.998   8.367  0.2623 -0.4358  0.2835
  546MOL0     C73618  -1.266   7.910   8.415  0.3482  1.0940 -0.0864
  546MOL0     C73619  -1.217   7.817   8.528  0.6293  0.4028  0.1327
  546MOL0    Cl73620  -1.177   7.919   8.673  0.0583  0.2919 -0.4594
  546MOL0     C73621  -0.576   7.453   7.958 -0.6792  0.6226  0.5985
  546MOL0     C73622  -0.461   7.452   7.880  0.3106 -0.2081  1.2021
  546MOL0     O73623  -0.169   7.503   7.934 -0.0183 -0.1487  0.7600
  546MOL0     C73624  -0.063   7.599   7.609 -0.1950  0.5342  0.0783
  546MOL0     C73625   0.060   7.612   7.539  0.8846 -0.0346  0.3225
  546MOL0     N73626   0.753   7.589   7.325  0.4741  0.1092  1.2405
  546MOL0     N73627   0.849   7.670   7.305 -0.4220  0.6838 -0.2986
  546MOL0     C73628   2.134   7.693   7.363 -0.4705  0.3116  0.3376
  546MOL0     C73629   2.269   7.660   7.356  0.7448 -0.1063 -0.6635
  546MOL0     C73630   2.720   7.671   7.183 -0.5541 -0.2557  0.0389
  546MOL0     C73631   2.816   7.697   7.077  0.6099  0.4069 -0.0915
  546MOL0     C73632   2.933   7.628   7.086  0.4395  0.7154 -0.4284
  546MOL0     C73633   2.982   7.558   7.199  0.1635  1.5030 -0.8325
  546MOL0     O73634   3.106   7.493   7.214  0.9064 -0.4572  0.2667
  546MOL0     C73635   3.206   7.547   7.133 -0.0852  0.1832 -0.3150
  546MOL0     C73636   3.333   7.526   7.215  0.1057 -0.1091 -0.9017
  546MOL0     C73637   3.464   7.522   7.124  0.9094  0.0701 -0.6159
  546MOL0     C73638   3.464   7.629   7.024  0.0568  0.1920  0.5635
  546MOL0     C73639   3.598   7.624   6.962  0.9894  0.7491  0.6100
  546MOL0     C73640   3.703   7.619   6.903 -0.3891  0.4868 -0.0507
  546MOL0     C73641   2.899   7.546   7.300 -0.6371 -0.7988 -0.5858
  546MOL0     C73642   2.771   7.585   7.290  0.2277 -0.2320 -0.8889
  546MOL0     H73643   2.344   7.707   7.029  2.0142 -1.9890  2.3265
  546MOL0     H73644   2.106   7.769   7.029  2.1629 -0.0898 -0.4649
  546MOL0     H73645   1.903   7.882   7.074 -1.3133 -0.2428 -0.6025
  546MOL0     H73646   1.860   7.707   7.082  0.2502 -0.3032  0.6583
  546MOL0     H73647   1.739   7.939   7.236  4.1344 -0.1324 -2.5776
  546MOL0     H73648   1.693   7.896   7.072  2.6790 -0.5866 -1.2281
  546MOL0     H73649   1.621   7.665   7.162  1.7402 -1.2150  0.4497
  546MOL0     H73650   1.681   7.702   7.323 -1.0054 -0.7311  0.0993
  546MOL0     H73651   1.536   7.904   7.340 -0.5408  1.9396 -1.9308
  546MOL0     H73652   1.453   7.855   7.196  1.3660  1.2781 -1.2881
  546MOL0     H73653   1.398   7.637   7.269 -0.4670  2.2607 -2.6492
  546MOL0     H73654   1.453   7.700   7.437 -0.0495  1.5138  1.1474
  546MOL0     H73655   1.281   7.861   7.421 -1.7026 -0.6819  0.4012
  546MOL0     H73656   1.225   7.825   7.257  0.2642 -0.2248 -1.2595
  546MOL0     H73657   1.131   7.621   7.323 -0.7518  2.4373 -1.0544
  546MOL0     H73658   1.206   7.612   7.478  0.0536 -1.6551 -0.7355
  546MOL0     H73659   1.028   7.840   7.390  1.5179 -1.5426 -1.6117
  546MOL0     H73660   1.051   7.772   7.562 -0.1568 -2.9997  0.5531
  546MOL0     H73661   0.894   7.569   7.618  2.2293 -0.6489 -0.2890
  546MOL0     H73662   0.704   7.319   7.468 -0.0761  0.0038  1.3842
  546MOL0     H73663   0.751   7.405   7.608  0.8077  0.3897  0.1203
  546MOL0     H73664   0.531   7.538   7.604 -2.2843 -0.1319 -0.3647
  546MOL0     H73665   0.509   7.374   7.619  0.0027  0.1474  0.1899
  546MOL0     H73666   0.480   7.343   7.374 -1.2997 -0.5075  1.7891
  546MOL0     H73667   0.518   7.508   7.329 -0.8907  0.6226 -0.7967
  546MOL0     H73668   0.265   7.401   7.394 -0.1501  0.1385 -3.0479
  546MOL0     H73669   0.308   7.542   7.304 -0.7891 -1.2459 -1.0736
  546MOL0     H73670   0.267   7.447   7.740  0.4153  2.0128 -0.7194
  546MOL0     H73671  -0.043   7.300   7.873 -0.0264 -0.2318 -0.2318
  546MOL0     H73672   0.131   7.278   7.851  0.3391 -0.4245  2.6935
  546MOL0     H73673   0.081   7.416   7.954  2.2981  2.7200 -2.5326
  546MOL0     H73674  -0.441   7.784   7.797 -0.7750  0.1970  0.1216
  546MOL0     H73675  -0.640   7.783   7.946 -0.1759 -0.2605 -0.3438
  546MOL0     H73676  -0.857   7.724   7.978 -0.2655 -0.4037 -0.3408
  546MOL0     H73677  -0.944   7.637   8.101  0.1977 -1.4127 -2.3595
  546MOL0     H73678  -0.841   7.747   8.282 -0.5480  2.6865  1.4188
  546MOL0     H73679  -0.694   7.770   8.198 -0.4601 -0.6639  0.5000
  546MOL0     H73680  -0.879   7.938   8.061 -2.0156 -2.9805  1.4005
  546MOL0     H73681  -0.730   7.972   8.155  0.6988 -0.8191  0.3791
  546MOL0     H73682  -0.859   7.991   8.361  0.1644  0.2863 -0.1551
  546MOL0     H73683  -0.926   8.098   8.230  0.8309  0.6734  0.2094
  546MOL0     H73684  -1.030   7.821   8.321 -2.7903  0.0670  2.0335
  546MOL0     H73685  -1.094   7.919   8.188  1.0594  2.0958 -0.2026
  546MOL0     H73686  -1.095   8.038   8.455  1.5684  0.1879 -0.7082
  546MOL0     H73687  -1.178   8.082   8.304  0.1352 -0.9365 -0.3280
  546MOL0     H73688  -1.298   7.854   8.327  2.5735 -1.3283  0.4984
  546MOL0     H73689  -1.349   7.970   8.454 -0.4777 -0.8487  1.2355
  546MOL0     H73690  -1.132   7.753   8.503  2.0145  2.0284  0.5079
  546MOL0     H73691  -1.307   7.763   8.556 -0.3373  1.7312 -0.2850
  546MOL0     H73692  -0.599   7.359   8.006 -1.1893 -2.1442 -4.4380
  546MOL0     H73693  -0.410   7.360   7.855  0.2086  0.6744 -3.1564
  546MOL0     H73694  -0.153   7.646   7.570 -1.2282 -3.1500 -2.4963
  546MOL0     H73695   0.059   7.671   7.448  0.1464  1.6645  1.3945
  546MOL0     H73696   2.073   7.665   7.449  1.4094 -0.4849  1.4783
  546MOL0     H73697   2.311   7.600   7.436 -0.3079 -2.2272 -1.6312
  546MOL0     H73698   2.783   7.754   6.991 -1.1165 -1.3250 -0.6394
  546MOL0     H73699   3.001   7.644   7.003 -0.2420  2.0368 -0.7500
  546MOL0     H73700   3.204   7.501   7.034 -1.1927 -1.4733  0.4249
  546MOL0     H73701   3.182   7.653   7.118  0.6238  0.3309 -0.4353
  546MOL0     H73702   3.327   7.439   7.281 -3.5384  0.5397 -0.1861
  546MOL0     H73703   3.339   7.608   7.286  0.0360  2.3387 -3.5333
  546MOL0     H73704   3.480   7.426   7.075 -0.1017 -0.7071  0.5300
  546MOL0     H73705   3.550   7.535   7.191  1.8738 -0.3616 -1.7408
  546MOL0     H73706   3.424   7.720   7.070 -0.5797 -2.3627  5.8904
  546MOL0     H73707   3.390   7.611   6.945  1.2849 -0.8579 -0.3987
  546MOL0     H73708   3.802   7.617   6.862  0.9537 -1.3694  2.9235
  546MOL0     H73709   2.934   7.496   7.389 -1.0017  3.1883  2.0416
  546MOL0     H73710   2.693   7.554   7.359 -1.1446  2.2176 -1.1953
  547MOL0     O73711   5.132   0.983   1.388  0.0915  0.1393 -0.1777
  547MOL0     C73712   5.223   0.944   1.458  0.0856  0.4129 -0.3340
  547MOL0     O73713   5.204   0.876   1.579  0.3825 -0.0398 -0.4191
  547MOL0     C73714   5.069   0.854   1.610  0.7889 -0.3030  0.4707
  547MOL0     C73715   5.007   0.948   1.701  0.7462 -0.6613  0.3993
  547MOL0     C73716   4.876   0.940   1.738  0.0607  1.5078 -0.2371
  547MOL0     C73717   4.808   0.828   1.704  0.2575 -0.1536  0.4221
  547MOL0     O73718   4.681   0.811   1.757 -0.2255 -0.3641  0.2420
  547MOL0     C73719   4.614   0.696   1.721 -0.0337 -0.6337 -0.9949
  547MOL0     C73720   4.495   0.683   1.820  0.0760 -0.3999 -0.5319
  547MOL0     C73721   4.388   0.801   1.806 -1.0341 -0.1404  0.2796
  547MOL0     C73722   4.259   0.736   1.863 -0.1753  1.0464  0.1970
  547MOL0     C73723   4.153   0.847   1.880  0.9830  0.6766 -0.1319
  547MOL0     C73724   4.018   0.773   1.906  0.5991  0.3920  0.3766
  547MOL0     C73725   3.891   0.857   1.926 -0.4805 -0.3120  0.4260
  547MOL0     C73726   3.848   0.935   1.804 -0.2305 -0.4116  0.4885
  547MOL0     N73727   3.758   1.047   1.830  0.5785 -0.3799  0.1765
  547MOL0     C73728   3.624   1.046   1.801  0.5413  0.0638  0.4552
  547MOL0     C73729   3.571   1.173   1.833 -0.5452 -0.1961  0.8123
  547MOL0     C73730   3.434   1.234   1.832  0.6969 -0.2709 -0.5399
  547MOL0     C73731   3.372   1.217   1.981 -0.9597  0.7921  0.6710
  547MOL0     C73732   3.458   1.267   2.103  0.0113  0.2033  1.1391
  547MOL0     C73733   3.490   1.420   2.077  0.0624 -0.3874 -0.2361
  547MOL0     O73734   3.368   1.493   2.050 -0.0090  0.4952  0.3474
  547MOL0     C73735   3.371   1.629   2.024  0.2402 -0.0275 -0.7056
  547MOL0     C73736   3.256   1.699   2.041  0.2290  0.2365 -0.5193
  547MOL0     C73737   3.243   1.835   2.011  0.1863 -0.1518 -0.1035
  547MOL0     C73738   3.110   1.909   2.036 -0.7845 -0.0471 -0.2953
  547MOL0     C73739   3.359   1.903   1.952  0.2075  0.3197 -0.3727
  547MOL0     C73740   3.353   2.045   1.900 -1.1548  0.4982  0.6626
  547MOL0     O73741   3.471   2.081   1.847  0.3447 -0.3777 -0.4018
  547MOL0     C73742   3.512   2.210   1.827  0.1219 -0.1891  0.0169
  547MOL0     C73743   3.639   2.223   1.778  0.6743  0.6774 -0.0161
  547MOL0     C73744   3.702   2.347   1.773 -0.0599 -0.1436  0.4398
  547MOL0     C73745   3.631   2.464   1.789  0.3576 -0.2857 -0.6388
  547MOL0     O73746   3.680   2.590   1.782 -0.2937 -0.8814 -0.0529
  547MOL0     C73747   3.814   2.606   1.832  0.1320 -0.1483  0.1639
  547MOL0     C73748   3.850   2.754   1.831  0.7873  0.0136 -0.4002
  547MOL0     C73749   3.841   2.811   1.689 -0.1141  0.0582 -0.6074
  547MOL0     C73750   3.952   2.912   1.671 -0.1687  0.4140  0.5644
  547MOL0     C73751   3.920   2.998   1.548  0.5662 -0.0099 -0.5589
  547MOL0     C73752   4.023   3.107   1.511  0.7933  0.2167 -1.0345
  547MOL0     C73753   3.980   3.180   1.387 -0.6308 -0.3716  0.6950
  547MOL0     C73754   4.078   3.297   1.358  0.4606  0.1773 -0.5057
  547MOL0    Cl73755   4.007   3.431   1.255  0.0821  0.3835 -0.2148
  547MOL0     C73756   3.493   2.454   1.826 -0.4974 -0.8759 -0.0046
  547MOL0     C73757   3.436   2.328   1.843 -0.4894 -0.4757 -0.1264
  547MOL0     O73758   3.245   2.106   1.895 -0.0644 -0.1519  0.3193
  547MOL0     C73759   3.477   1.827   1.954  0.0993 -0.2626  0.4861
  547MOL0     C73760   3.483   1.694   1.974 -0.1825 -0.0957 -1.3147
  547MOL0     N73761   3.679   1.251   1.863  0.0910  0.5514 -0.3032
  547MOL0     N73762   3.786   1.170   1.874 -0.3841 -0.6998  0.4711
  547MOL0     C73763   4.863   0.730   1.618 -0.4334  0.2299 -0.8939
  547MOL0     C73764   4.989   0.746   1.571 -1.2440 -0.2526 -0.8086
  547MOL0     C73765   5.358   0.936   1.398  1.5346 -0.0137 -0.3457
  547MOL0     C73766   5.375   0.961   1.259 -0.3286  0.1750 -0.0239
  547MOL0     C73767   5.505   0.944   1.202  0.2490 -0.2329  0.1197
  547MOL0     C73768   5.609   0.907   1.282 -0.0829 -0.3038 -0.3184
  547MOL0     O73769   5.738   0.921   1.240 -0.2195 -0.5319  0.1219
  547MOL0     C73770   5.803   1.052   1.243 -0.5808  0.0414  0.1117
  547MOL0     C73771   5.950   1.026   1.262 -0.4386 -0.1048 -0.2885
  547MOL0     C73772   6.040   1.147   1.301  0.5068  0.4236 -0.4726
  547MOL0     C73773   6.058   1.244   1.189 -1.2414 -0.6030  0.0894
  547MOL0     C73774   6.108   1.373   1.240  0.5775  0.4657  0.0332
  547MOL0     C73775   6.158   1.478   1.271 -0.2223  0.2028 -0.0540
  547MOL0     C73776   5.584   0.890   1.421 -0.1804 -0.1741 -0.7676
  547MOL0     C73777   5.459   0.909   1.480 -0.0214 -0.3724  0.1731
  547MOL0     H73778   5.071   1.029   1.737 -0.3411 -0.0330  0.9491
  547MOL0     H73779   4.834   1.011   1.809 -0.6881  0.0458  0.8200
  547MOL0     H73780   4.577   0.702   1.619 -1.1875  2.6381 -0.5295
  547MOL0     H73781   4.669   0.605   1.747  2.7492  1.6148  1.8593
  547MOL0     H73782   4.452   0.583   1.805 -1.0461 -0.4271  2.2298
  547MOL0     H73783   4.524   0.678   1.925 -0.3498 -0.2142 -0.4047
  547MOL0     H73784   4.414   0.893   1.860  0.7357  0.4699 -1.4818
  547MOL0     H73785   4.373   0.834   1.703 -1.2633  1.5870  0.8315
  547MOL0     H73786   4.229   0.660   1.791 -1.0713  0.4469  1.1579
  547MOL0     H73787   4.278   0.678   1.954  0.3451  0.9537  0.0333
  547MOL0     H73788   4.177   0.908   1.968  1.9334 -3.2674  2.5923
  547MOL0     H73789   4.139   0.916   1.797 -1.0429  3.1033  2.0317
  547MOL0     H73790   4.004   0.714   1.815 -0.4558  1.7932 -0.3961
  547MOL0     H73791   4.028   0.699   1.987  0.0266 -0.6634 -0.4883
  547MOL0     H73792   3.805   0.803   1.965 -0.1979 -0.6044  0.6433
  547MOL0     H73793   3.909   0.931   2.005  0.1507 -0.5499  0.5084
  547MOL0     H73794   3.802   0.855   1.745 -1.8656  0.4472  0.5264
  547MOL0     H73795   3.940   0.963   1.753 -0.3134 -2.0523 -0.6346
  547MOL0     H73796   3.565   0.968   1.755 -2.1001  0.7951  2.3316
  547MOL0     H73797   3.439   1.338   1.801  0.1381 -1.0173 -3.4003
  547MOL0     H73798   3.374   1.170   1.767  1.0555 -3.4186  1.9766
  547MOL0     H73799   3.340   1.114   1.998 -0.0439  0.4016  0.0980
  547MOL0     H73800   3.276   1.269   1.982 -0.8291  1.0358  0.5333
  547MOL0     H73801   3.551   1.213   2.122  0.4781  1.5337  2.9224
  547MOL0     H73802   3.404   1.251   2.197 -2.0006  0.6522  0.1266
  547MOL0     H73803   3.567   1.430   2.000  0.7455 -0.1457  0.4596
  547MOL0     H73804   3.530   1.463   2.170  0.7227 -1.1695 -0.1518
  547MOL0     H73805   3.178   1.640   2.087  2.1932 -2.3457 -0.2540
  547MOL0     H73806   3.042   1.856   2.103 -1.5706  1.5856  0.2544
  547MOL0     H73807   3.112   2.010   2.077 -3.3716 -0.0987  0.1263
  547MOL0     H73808   3.058   1.906   1.939 -0.8066 -0.0915 -0.2820
  547MOL0     H73809   3.691   2.134   1.744  1.2107 -0.6132  3.7344
  547MOL0     H73810   3.809   2.341   1.761 -0.2654 -2.0856 -0.8637
  547MOL0     H73811   3.827   2.572   1.935  2.3656 -0.5023 -0.2019
  547MOL0     H73812   3.885   2.553   1.769 -1.6602  0.2179 -2.2925
  547MOL0     H73813   3.778   2.812   1.890 -1.0771 -0.9786 -1.5995
  547MOL0     H73814   3.948   2.767   1.878  0.6156 -1.9030  0.5917
  547MOL0     H73815   3.743   2.858   1.678 -0.3552 -0.5376 -1.0563
  547MOL0     H73816   3.847   2.730   1.616 -2.4048  0.0040 -0.8089
  547MOL0     H73817   3.941   2.987   1.750 -0.7434  1.2064 -0.2411
  547MOL0     H73818   4.053   2.870   1.672  0.1433  0.9448 -1.9428
  547MOL0     H73819   3.817   3.033   1.557  0.8115  0.7454 -0.6811
  547MOL0     H73820   3.927   2.927   1.465  2.4658  2.5989 -2.7784
  547MOL0     H73821   4.041   3.173   1.596  2.3600 -0.3266 -0.9140
  547MOL0     H73822   4.118   3.061   1.481  0.4862 -1.6627  0.6609
  547MOL0     H73823   3.885   3.233   1.391 -1.9432 -1.9597 -3.7270
  547MOL0     H73824   3.963   3.114   1.301  1.6927  2.9097 -2.5901
  547MOL0     H73825   4.161   3.252   1.304  0.0985  2.4275 -3.1607
  547MOL0     H73826   4.115   3.355   1.444 -1.3910  1.5224 -0.5452
  547MOL0     H73827   3.435   2.545   1.825  0.2068 -0.3904  1.1278
  547MOL0     H73828   3.335   2.322   1.881  0.2466 -0.8467  1.8530
  547MOL0     H73829   3.572   1.869   1.923  0.0946  2.0021  3.0860
  547MOL0     H73830   3.577   1.644   1.956  0.2929  0.2002  0.1536
  547MOL0     H73831   4.811   0.639   1.590  0.6727 -0.7310  0.0350
  547MOL0     H73832   5.017   0.680   1.490 -2.8419  0.9640 -2.4050
  547MOL0     H73833   5.290   0.998   1.204 -0.9325  2.4119  2.2308
  547MOL0     H73834   5.519   0.970   1.097 -1.5953 -2.1342 -0.6818
  547MOL0     H73835   5.800   1.109   1.150  1.4280  0.8170  0.4600
  547MOL0     H73836   5.757   1.114   1.321  1.1525  1.1279  0.3096
  547MOL0     H73837   5.995   0.976   1.176 -0.5365  0.0108 -0.4083
  547MOL0     H73838   5.964   0.955   1.344  1.4285  0.2276 -0.2820
  547MOL0     H73839   6.138   1.110   1.334 -0.3729 -1.5511  0.0910
  547MOL0     H73840   5.995   1.205   1.382  0.4221 -0.9134  0.4702
  547MOL0     H73841   5.965   1.271   1.138 -0.6119 -1.6472 -1.7135
  547MOL0     H73842   6.133   1.210   1.117 -0.1634  0.2670  0.7686
  547MOL0     H73843   6.207   1.569   1.298 -0.4716  0.2825  0.1290
  547MOL0     H73844   5.677   0.878   1.475  0.7981  2.0974 -1.8261
  547MOL0     H73845   5.449   0.879   1.584  2.2676 -0.1336  0.4978
  548MOL0     O73846   2.692  11.347   0.142  0.8483  0.2521  0.2912
  548MOL0     C73847   2.712  11.297   0.253  0.5122 -0.0383 -0.0390
  548MOL0     O73848   2.618  11.277   0.351  0.2160  0.3195  0.2494
  548MOL0     C73849   2.486  11.306   0.321 -0.5280 -0.3852 -0.3121
  548MOL0     C73850   2.438  11.435   0.303 -0.4708  1.4792  0.2337
  548MOL0     C73851   2.300  11.459   0.294 -0.0903  0.1782 -0.1201
  548MOL0     C73852   2.212  11.361   0.283  0.2249 -0.0324 -0.4584
  548MOL0     O73853   2.080  11.385   0.277  0.0352 -0.1270  1.0143
  548MOL0     C73854   1.983  11.288   0.325  0.2745 -0.5489 -0.0010
  548MOL0     C73855   1.867  11.366   0.389 -0.1501 -0.1220 -0.3723
  548MOL0     C73856   1.740  11.371   0.297 -0.0753  0.7428 -0.3175
  548MOL0     C73857   1.625  11.476   0.349 -0.0610  0.5216  0.3011
  548MOL0     C73858   1.492  11.457   0.281 -0.1930 -0.0423 -1.5178
  548MOL0     C73859   1.381  11.362   0.350  0.1468  0.3385 -0.1380
  548MOL0     C73860   1.330  11.428   0.477  0.2255 -0.5562 -0.2387
  548MOL0     C73861   1.205  11.362   0.549 -0.1809  0.1194  0.5263
  548MOL0     N73862   1.093  11.343   0.451 -0.2276  0.0793 -0.4799
  548MOL0     C73863   1.022  11.437   0.377 -0.2836 -0.5645  0.1582
  548MOL0     C73864   0.959  11.372   0.284 -0.3205  0.1421  0.5231
  548MOL0     C73865   0.875  11.423   0.173  0.9828 -0.5812 -0.0702
  548MOL0     C73866   0.772  11.327   0.122  0.5182 -0.6947 -0.1157
  548MOL0     C73867   0.660  11.405   0.042 -0.2036  0.9941 -0.1884
  548MOL0     C73868   0.522  11.345   0.066  0.2627 -0.5017 -0.3119
  548MOL0     O73869   0.415  11.410  -0.006 -1.0442 -1.2024  0.0386
  548MOL0     C73870   0.288  11.366   0.000 -0.2582  0.0204 -0.3513
  548MOL0     C73871   0.245  11.239   0.037 -0.2403 -0.1553 -0.6109
  548MOL0     C73872   0.113  11.200   0.052 -0.4866 -0.0899 -0.2231
  548MOL0     C73873   0.101  11.049   0.089  0.1731  0.0073 -0.0104
  548MOL0     C73874   0.011  11.299   0.034  1.1735  0.5787  0.7474
  548MOL0     C73875  -0.137  11.263   0.062 -0.7796 -1.2766  0.3883
  548MOL0     O73876  -0.217  11.379   0.051  0.2619 -0.4099  0.2871
  548MOL0     C73877  -0.352  11.368   0.035 -0.1098 -0.4091  0.1671
  548MOL0     C73878  -0.419  11.481   0.065  0.1351 -0.0574  0.2976
  548MOL0     C73879  -0.564  11.491   0.047  0.1605  0.6271  0.5100
  548MOL0     C73880  -0.634  11.375   0.000 -0.4089 -0.9145  0.7748
  548MOL0     O73881  -0.778  11.394  -0.009 -0.3393 -0.0070 -0.0409
  548MOL0     C73882  -0.849  11.292  -0.079  0.2986 -0.3330 -0.2870
  548MOL0     C73883  -0.989  11.332  -0.073  0.7002 -0.3044 -0.1789
  548MOL0     C73884  -1.074  11.252  -0.174  0.6968  0.1237 -0.1821
  548MOL0     C73885  -1.230  11.261  -0.144  0.5095  0.2774  0.2261
  548MOL0     C73886  -1.304  11.126  -0.190 -0.2221 -0.1699 -0.0198
  548MOL0     C73887  -1.465  11.122  -0.178 -0.7684  0.0912 -0.6402
  548MOL0     C73888  -1.512  11.118  -0.033  0.7036 -0.5922  0.2812
  548MOL0     C73889  -1.649  11.045  -0.034  0.2104  0.1358 -0.4178
  548MOL0    Cl73890  -1.772  11.127  -0.141  0.4902 -0.0277  0.0611
  548MOL0     C73891  -0.565  11.266  -0.041 -0.0560  0.3423 -0.9514
  548MOL0     C73892  -0.426  11.260  -0.020  0.6293  0.1603 -0.3275
  548MOL0     O73893  -0.172  11.148   0.089  0.4408 -0.9719 -0.4675
  548MOL0     C73894   0.051  11.431   0.004 -0.3758 -0.4963 -0.6238
  548MOL0     C73895   0.188  11.463  -0.022 -0.2738  0.4228 -0.1391
  548MOL0     N73896   0.994  11.236   0.296 -0.7729  0.0696 -0.3539
  548MOL0     N73897   1.061  11.228   0.404 -0.0656 -0.2600  0.6773
  548MOL0     C73898   2.260  11.240   0.285 -0.0029  0.4810 -0.9782
  548MOL0     C73899   2.397  11.198   0.294 -0.7667  0.0166 -0.0625
  548MOL0     C73900   2.849  11.279   0.271  0.2277  0.7172 -0.1411
  548MOL0     C73901   2.944  11.311   0.171  1.2020 -0.0539  0.2512
  548MOL0     C73902   3.078  11.282   0.198  0.7248 -0.2231  0.4778
  548MOL0     C73903   3.124  11.234   0.323 -0.3160 -0.1195 -0.1498
  548MOL0     O73904   3.262  11.215   0.334  0.1139  0.6578  0.2629
  548MOL0     C73905   3.313  11.099   0.261 -0.5668  0.0266  0.5442
  548MOL0     C73906   3.292  10.979   0.347 -0.1221 -0.2020 -0.2363
  548MOL0     C73907   3.244  10.856   0.267 -0.1295 -0.2077  0.0659
  548MOL0     C73908   3.249  10.730   0.347  0.2587  1.0012  0.0192
  548MOL0     C73909   3.385  10.682   0.366 -0.0493  0.3703 -0.1360
  548MOL0     C73910   3.504  10.650   0.377  0.0528  0.2931  0.7855
  548MOL0     C73911   3.034  11.207   0.427 -0.0975 -0.0982  0.4766
  548MOL0     C73912   2.895  11.228   0.398  0.5297 -0.5012 -0.0136
  548MOL0     H73913   2.502  11.522   0.315 -0.3959  1.5183 -0.4288
  548MOL0     H73914   2.275  11.565   0.295 -1.4050 -0.1124  1.0607
  548MOL0     H73915   1.943  11.231   0.241 -1.5386 -2.1974  1.8650
  548MOL0     H73916   2.031  11.218   0.394  0.3592 -0.9488 -0.4629
  548MOL0     H73917   1.838  11.310   0.478  0.0167 -1.7993 -1.3268
  548MOL0     H73918   1.894  11.470   0.409  1.9596  0.3023 -4.2981
  548MOL0     H73919   1.775  11.411   0.201  2.0832 -1.2031 -0.4178
  548MOL0     H73920   1.705  11.273   0.265  1.7698  1.1651 -4.2267
  548MOL0     H73921   1.620  11.466   0.458  0.4165 -1.1383  0.2013
  548MOL0     H73922   1.665  11.576   0.332  1.2625  0.8684  4.4423
  548MOL0     H73923   1.457  11.560   0.266  2.4773  0.7449 -2.9767
  548MOL0     H73924   1.506  11.419   0.180 -0.9013  0.9456 -2.0016
  548MOL0     H73925   1.296  11.353   0.282  1.3055  2.2637 -1.9881
  548MOL0     H73926   1.434  11.269   0.374 -0.0316 -0.8088 -3.5409
  548MOL0     H73927   1.411  11.436   0.551  1.1063  2.0914 -1.3499
  548MOL0     H73928   1.303  11.532   0.458  0.6913 -0.3696  0.0980
  548MOL0     H73929   1.168  11.428   0.628 -2.0402  0.7807 -0.8219
  548MOL0     H73930   1.247  11.273   0.596  2.9847  2.2665  2.1529
  548MOL0     H73931   1.032  11.545   0.379 -2.3262 -0.3433  1.5059
  548MOL0     H73932   0.834  11.513   0.220  2.8848  0.2228  0.1717
  548MOL0     H73933   0.940  11.445   0.089  0.3175  0.7426 -0.2547
  548MOL0     H73934   0.717  11.278   0.204  2.0253 -0.5436  1.0339
  548MOL0     H73935   0.814  11.251   0.056  0.5900  1.8260 -3.1397
  548MOL0     H73936   0.675  11.416  -0.066 -0.1728  1.4732 -0.1410
  548MOL0     H73937   0.661  11.500   0.097  1.0493 -1.1187  3.8090
  548MOL0     H73938   0.494  11.354   0.171  4.1349  0.8357  0.7780
  548MOL0     H73939   0.526  11.240   0.036  1.4827 -0.0640 -1.8319
  548MOL0     H73940   0.319  11.164   0.064  0.5146 -0.1354 -2.4845
  548MOL0     H73941   0.201  11.008   0.075  0.7727  1.3191  0.2278
  548MOL0     H73942   0.061  11.034   0.190 -1.7265  3.2200 -0.1344
  548MOL0     H73943   0.033  10.996   0.022  0.0975  1.6395 -1.2919
  548MOL0     H73944  -0.378  11.567   0.117  0.4003 -1.0465  1.7722
  548MOL0     H73945  -0.606  11.586   0.078  3.3703  3.2142 -2.3244
  548MOL0     H73946  -0.825  11.285  -0.185 -1.8934 -4.8384 -0.7351
  548MOL0     H73947  -0.830  11.191  -0.040  2.0043 -0.0570 -0.3581
  548MOL0     H73948  -1.023  11.303   0.027  1.5628 -1.2854 -0.1537
  548MOL0     H73949  -1.003  11.440  -0.090 -0.7674  0.2754  3.6980
  548MOL0     H73950  -1.042  11.149  -0.157 -2.3477 -0.9433 -0.2121
  548MOL0     H73951  -1.062  11.278  -0.280 -0.7349  0.2503 -0.3473
  548MOL0     H73952  -1.257  11.265  -0.038  2.8755  0.8358  0.8598
  548MOL0     H73953  -1.278  11.338  -0.205 -1.3746 -0.9756  0.0472
  548MOL0     H73954  -1.257  11.044  -0.135  3.1418  1.3086 -0.3765
  548MOL0     H73955  -1.283  11.106  -0.295 -3.1410  0.7266 -0.8612
  548MOL0     H73956  -1.500  11.212  -0.231 -1.3857  0.1068 -0.2220
  548MOL0     H73957  -1.505  11.031  -0.223 -2.8004  0.3812  0.4480
  548MOL0     H73958  -1.526  11.221   0.003  2.1627 -0.3181  0.1329
  548MOL0     H73959  -1.435  11.082   0.036  4.0326  4.5370 -0.2243
  548MOL0     H73960  -1.684  11.053   0.069  1.6948 -3.3665  0.4901
  548MOL0     H73961  -1.641  10.940  -0.065 -0.6021 -0.0850  0.0829
  548MOL0     H73962  -0.619  11.181  -0.081 -0.0774 -0.2322  0.2297
  548MOL0     H73963  -0.380  11.164  -0.039 -1.5989 -0.5036 -2.8833
  548MOL0     H73964  -0.026  11.507  -0.008  0.0748  0.1051  0.2236
  548MOL0     H73965   0.216  11.563  -0.055 -2.7397  0.4939 -2.3620
  548MOL0     H73966   2.191  11.156   0.284 -0.1562  0.6100 -1.5189
  548MOL0     H73967   2.420  11.092   0.294 -0.3852  0.0938 -0.9087
  548MOL0     H73968   2.930  11.346   0.070 -0.7173 -0.0945  0.4663
  548MOL0     H73969   3.148  11.308   0.120 -0.4301  0.6052 -0.3282
  548MOL0     H73970   3.264  11.087   0.164 -0.3015  1.9138  0.1396
  548MOL0     H73971   3.418  11.109   0.232 -0.7905  1.2303  0.0994
  548MOL0     H73972   3.215  10.999   0.422  2.7582  0.4135  2.7539
  548MOL0     H73973   3.379  10.953   0.407  0.2935  3.0338  0.7524
  548MOL0     H73974   3.312  10.836   0.184 -2.1142  0.3135 -1.7968
  548MOL0     H73975   3.144  10.881   0.228 -0.1444  1.4374  1.0881
  548MOL0     H73976   3.199  10.649   0.294 -0.0689 -0.5537  2.5391
  548MOL0     H73977   3.218  10.741   0.451  1.3428  2.2471  0.2478
  548MOL0     H73978   3.609  10.641   0.399 -0.2949 -0.6215  2.1610
  548MOL0     H73979   3.076  11.158   0.514 -0.5124 -3.1079 -0.8835
  548MOL0     H73980   2.825  11.213   0.480  1.3688 -2.1095  0.4563
  549MOL0     O73981   0.578   5.178  10.850  0.5894  0.6586  0.5043
  549MOL0     C73982   0.693   5.185  10.876 -0.0825 -0.6916  0.8177
  549MOL0     O73983   0.744   5.202  11.000 -0.1460 -0.1320 -0.0918
  549MOL0     C73984   0.648   5.234  11.096 -0.9551  1.0147  0.0688
  549MOL0     C73985   0.655   5.161  11.211 -0.9780 -0.2657  0.2480
  549MOL0     C73986   0.568   5.162  11.318  0.2240  0.7379 -0.5040
  549MOL0     C73987   0.456   5.251  11.308 -0.2494  0.4994 -0.4267
  549MOL0     O73988   0.374   5.262  11.414  0.0854  0.5936  0.0531
  549MOL0     C73989   0.348   5.397  11.464 -0.3754 -0.3166 -0.7866
  549MOL0     C73990   0.302   5.407  11.605 -0.4787 -0.2575 -0.0773
  549MOL0     C73991   0.309   5.539  11.673 -0.1464  0.4112  0.2843
  549MOL0     C73992   0.215   5.644  11.608  0.2390 -0.0156 -0.5798
  549MOL0     C73993   0.158   5.750  11.710 -0.1749 -0.5855  0.1832
  549MOL0     C73994   0.265   5.811  11.803 -0.2566  0.7161  0.3477
  549MOL0     C73995   0.207   5.950  11.851 -0.1230  0.2559 -0.1500
  549MOL0     C73996   0.299   6.035  11.942  0.4977  0.2827  0.0814
  549MOL0     N73997   0.217   6.135  12.003  0.3896 -1.0757 -0.4134
  549MOL0     C73998   0.141   6.111  12.114 -0.9584 -0.2631  0.4907
  549MOL0     C73999   0.088   6.227  12.153  0.1173  0.0067 -0.2529
  549MOL0     C74000  -0.022   6.240  12.255 -0.2785 -0.5663 -0.2997
  549MOL0     C74001  -0.157   6.239  12.198  0.9339 -0.2640 -0.4284
  549MOL0     C74002  -0.253   6.255  12.318 -0.4913  0.5839 -0.1496
  549MOL0     C74003  -0.400   6.258  12.267 -0.5336 -0.3031  0.2437
  549MOL0     O74004  -0.415   6.393  12.215 -0.5593  0.0457 -0.0682
  549MOL0     C74005  -0.508   6.380  12.117 -0.1372  0.0199  0.0424
  549MOL0     C74006  -0.637   6.351  12.154 -0.6357 -0.0087  0.2526
  549MOL0     C74007  -0.740   6.364  12.062 -0.5061 -0.0373 -0.1015
  549MOL0     C74008  -0.879   6.341  12.122  0.3756  0.0837 -0.0953
  549MOL0     C74009  -0.718   6.422  11.940  0.1634  0.2839 -0.7808
  549MOL0     C74010  -0.827   6.447  11.842 -0.2565 -0.4853 -0.4212
  549MOL0     O74011  -0.784   6.448  11.710  0.6384 -0.2207 -0.9534
  549MOL0     C74012  -0.881   6.455  11.619 -0.1072 -1.5256  0.2580
  549MOL0     C74013  -0.924   6.581  11.581  0.4349  0.2580 -0.2154
  549MOL0     C74014  -1.033   6.592  11.489 -0.9741  0.6905  0.5481
  549MOL0     C74015  -1.098   6.473  11.439 -0.0699  0.0058  1.1033
  549MOL0     O74016  -1.207   6.476  11.356 -0.7900 -0.1883  0.2995
  549MOL0     C74017  -1.246   6.606  11.297 -0.5662  0.4977 -0.3294
  549MOL0     C74018  -1.357   6.593  11.195 -0.2243  0.5606 -0.0075
  549MOL0     C74019  -1.329   6.493  11.085  0.0140  0.7755 -0.8076
  549MOL0     C74020  -1.436   6.490  10.976  0.4251 -0.7302 -0.8579
  549MOL0     C74021  -1.399   6.379  10.879 -0.4892  0.3260  0.3424
  549MOL0     C74022  -1.527   6.322  10.808 -0.1507 -0.1508  0.6158
  549MOL0     C74023  -1.487   6.210  10.702 -0.6808  0.4311 -0.0727
  549MOL0     C74024  -1.614   6.160  10.637  0.6737  0.2292 -0.1718
  549MOL0    Cl74025  -1.729   6.098  10.752 -0.0372 -0.1787  0.0189
  549MOL0     C74026  -1.061   6.353  11.490 -0.0733 -0.5717 -0.2073
  549MOL0     C74027  -0.949   6.346  11.568  0.6312  0.3844  0.1948
  549MOL0     O74028  -0.944   6.457  11.878  0.2784  0.6613  0.3219
  549MOL0     C74029  -0.584   6.450  11.905  0.4937 -0.5661 -0.0422
  549MOL0     C74030  -0.477   6.436  11.992  0.3399 -0.3950  0.3066
  549MOL0     N74031   0.149   6.332  12.081 -0.1643  0.2171  0.6496
  549MOL0     N74032   0.225   6.276  11.996 -0.0391  0.4388 -0.4769
  549MOL0     C74033   0.446   5.327  11.192 -0.4163 -0.8345 -0.4866
  549MOL0     C74034   0.545   5.325  11.088 -0.5072 -0.5734 -0.8580
  549MOL0     C74035   0.779   5.167  10.758  0.8030 -0.7646  0.4079
  549MOL0     C74036   0.885   5.254  10.744 -0.2004  0.2327  0.4812
  549MOL0     C74037   0.957   5.251  10.625  0.5558  0.3744  0.7628
  549MOL0     C74038   0.926   5.163  10.516  0.4845 -0.2087 -0.3117
  549MOL0     O74039   0.989   5.155  10.395 -0.7123 -0.4462  0.8530
  549MOL0     C74040   1.095   5.247  10.373 -0.0241  0.8394 -0.0480
  549MOL0     C74041   1.230   5.205  10.433  0.4370  0.2701 -0.7994
  549MOL0     C74042   1.274   5.069  10.377  0.0110  0.3198  0.3351
  549MOL0     C74043   1.426   5.056  10.364  0.1400 -0.0167  0.0576
  549MOL0     C74044   1.484   5.052  10.498 -0.2429  1.3688  0.0935
  549MOL0     C74045   1.544   5.012  10.596  0.2935 -0.1326 -0.4667
  549MOL0     C74046   0.806   5.085  10.540 -0.1166  0.6482 -0.1448
  549MOL0     C74047   0.738   5.083  10.661 -0.1682  0.2236  0.0639
  549MOL0     H74048   0.735   5.088  11.214  0.2396  1.0140  3.8004
  549MOL0     H74049   0.590   5.099  11.404 -0.2056  0.6975 -0.4241
  549MOL0     H74050   0.450   5.437  11.464 -0.1250 -0.8998  0.2534
  549MOL0     H74051   0.285   5.458  11.399  1.3604  1.2015 -1.1321
  549MOL0     H74052   0.195   5.382  11.600 -0.6276  0.6662 -2.4320
  549MOL0     H74053   0.357   5.338  11.669  0.1313  0.7630  0.5218
  549MOL0     H74054   0.283   5.528  11.779 -1.5085 -1.8685 -0.2367
  549MOL0     H74055   0.410   5.581  11.666 -0.3356  1.2783  2.0103
  549MOL0     H74056   0.261   5.704  11.529  0.9242 -2.3338 -2.0445
  549MOL0     H74057   0.132   5.594  11.557  0.9319 -2.9638  0.9964
  549MOL0     H74058   0.101   5.817  11.646  0.7873 -1.6077 -1.8592
  549MOL0     H74059   0.089   5.690  11.770 -0.0841  1.3217  2.3526
  549MOL0     H74060   0.280   5.753  11.895 -0.7920  0.9712  0.6023
  549MOL0     H74061   0.357   5.828  11.747 -0.0703 -1.8270 -0.2441
  549MOL0     H74062   0.185   6.011  11.763 -1.9660  0.3134  0.3156
  549MOL0     H74063   0.111   5.930  11.898  1.5681 -0.9143  3.1497
  549MOL0     H74064   0.365   6.084  11.870  1.0779 -0.8315 -0.1722
  549MOL0     H74065   0.363   5.978  12.011 -0.0270  1.2366  1.3926
  549MOL0     H74066   0.126   6.008  12.145  2.1326 -0.7601  0.5639
  549MOL0     H74067  -0.016   6.164  12.334 -1.7850 -0.3999  0.0013
  549MOL0     H74068  -0.008   6.340  12.297 -2.7831 -0.1004 -0.4097
  549MOL0     H74069  -0.178   6.138  12.162 -0.4290 -0.4441  0.8012
  549MOL0     H74070  -0.180   6.302  12.111 -2.3859 -0.7197 -0.0183
  549MOL0     H74071  -0.227   6.348  12.370  0.1536  2.2473 -3.1539
  549MOL0     H74072  -0.232   6.168  12.380  1.5782 -2.1270 -4.2037
  549MOL0     H74073  -0.477   6.240  12.342 -1.4271  0.7678 -0.3780
  549MOL0     H74074  -0.409   6.183  12.188 -2.1716 -1.1109  1.1408
  549MOL0     H74075  -0.653   6.321  12.258 -3.1884  0.3829  0.0446
  549MOL0     H74076  -0.936   6.281  12.050 -3.1027  3.4025 -0.4010
  549MOL0     H74077  -0.875   6.299  12.223 -0.1718 -0.1214 -0.1527
  549MOL0     H74078  -0.930   6.437  12.129  0.1381 -0.0973  0.8073
  549MOL0     H74079  -0.876   6.667  11.627 -0.7196  0.6367  0.3414
  549MOL0     H74080  -1.061   6.695  11.468  0.0264  1.5759  3.2219
  549MOL0     H74081  -1.290   6.662  11.380 -1.9715 -1.6248  0.4515
  549MOL0     H74082  -1.159   6.645  11.245 -0.3391 -0.2652 -0.5441
  549MOL0     H74083  -1.450   6.555  11.238  0.5073 -1.7205 -0.2921
  549MOL0     H74084  -1.370   6.690  11.146  1.3439  0.1002 -1.4545
  549MOL0     H74085  -1.335   6.393  11.128  0.7900  0.2527 -1.8844
  549MOL0     H74086  -1.228   6.498  11.042  1.0791 -2.5836  0.9564
  549MOL0     H74087  -1.531   6.463  11.021 -0.1820 -0.0407 -1.6940
  549MOL0     H74088  -1.450   6.589  10.933  0.7124  0.6745  2.0417
  549MOL0     H74089  -1.359   6.292  10.931  0.6241 -0.2479 -1.4277
  549MOL0     H74090  -1.331   6.412  10.801 -1.0946 -1.6613 -1.1007
  549MOL0     H74091  -1.587   6.280  10.889 -1.8500  0.1966 -0.4056
  549MOL0     H74092  -1.587   6.406  10.770 -0.4328 -0.0163  1.3483
  549MOL0     H74093  -1.434   6.128  10.751  0.9622  1.3423 -0.2593
  549MOL0     H74094  -1.422   6.247  10.622  0.0468 -0.4343  0.0938
  549MOL0     H74095  -1.588   6.076  10.573  0.9751 -1.2325  1.7750
  549MOL0     H74096  -1.666   6.236  10.577  0.2607  0.7414  0.8156
  549MOL0     H74097  -1.116   6.262  11.465  2.0490 -1.3624 -2.3515
  549MOL0     H74098  -0.913   6.249  11.598  3.0291  0.3341 -2.4101
  549MOL0     H74099  -0.560   6.514  11.820  1.3916  0.7409  1.1614
  549MOL0     H74100  -0.380   6.479  11.970  0.0687 -0.9645 -2.3628
  549MOL0     H74101   0.359   5.389  11.170 -0.5751 -0.8957 -0.0398
  549MOL0     H74102   0.533   5.383  10.996 -0.1878  0.8018 -0.0659
  549MOL0     H74103   0.922   5.323  10.820 -0.6119  1.1590 -0.1396
  549MOL0     H74104   1.049   5.308  10.619  1.2098 -0.6757  0.6083
  549MOL0     H74105   1.102   5.265  10.265  0.2969 -2.5325 -0.6876
  549MOL0     H74106   1.070   5.347  10.410 -2.8028  0.0192  0.5090
  549MOL0     H74107   1.233   5.192  10.541  3.3989 -1.3226 -0.9618
  549MOL0     H74108   1.303   5.285  10.416  0.1501  1.6775  3.5517
  549MOL0     H74109   1.233   5.065  10.276  0.2501  3.4930  0.0183
  549MOL0     H74110   1.229   4.987  10.433  0.0726 -1.1513 -1.6733
  549MOL0     H74111   1.457   5.124  10.283  0.5098 -0.8563 -0.5192
  549MOL0     H74112   1.454   4.956  10.331  0.1219 -0.8019  2.3065
  549MOL0     H74113   1.581   4.978  10.691  1.9516  0.4314 -0.8836
  549MOL0     H74114   0.777   5.026  10.454 -0.8728  2.0373 -0.8859
  549MOL0     H74115   0.659   5.013  10.689  2.1092 -1.5198  2.6134
  550MOL0     O74116   8.802   5.268   7.732  0.2191 -0.5127  0.8947
  550MOL0     C74117   8.878   5.291   7.643  0.5781 -0.9750  0.7493
  550MOL0     O74118   8.843   5.287   7.512  0.7109  0.4037  0.4157
  550MOL0     C74119   8.712   5.256   7.487  0.5714  0.5616 -0.2195
  550MOL0     C74120   8.688   5.116   7.468 -0.1842  0.4773  0.5215
  550MOL0     C74121   8.565   5.072   7.441 -1.0544  0.5045  1.6847
  550MOL0     C74122   8.462   5.160   7.418 -0.1425  0.5585  0.1082
  550MOL0     O74123   8.336   5.116   7.382 -0.5405  1.0937  0.1789
  550MOL0     C74124   8.311   4.983   7.338 -0.8524 -0.0442 -0.2191
  550MOL0     C74125   8.165   4.957   7.287 -0.1696 -0.0927 -0.0384
  550MOL0     C74126   8.063   4.990   7.389 -0.8346 -0.6173 -0.0838
  550MOL0     C74127   7.934   4.972   7.317  1.0409 -0.9342  0.0533
  550MOL0     C74128   7.813   4.993   7.415 -0.3403 -0.3272  0.4627
  550MOL0     C74129   7.667   4.997   7.352 -0.3617 -0.1854  0.3109
  550MOL0     C74130   7.657   5.094   7.239  0.2986 -0.8226  0.4198
  550MOL0     C74131   7.677   5.238   7.266  0.9007 -0.2254  0.3268
  550MOL0     N74132   7.567   5.285   7.354  0.3559  0.0537  0.1692
  550MOL0     C74133   7.562   5.272   7.493  0.3077  0.5268  0.6052
  550MOL0     C74134   7.431   5.282   7.524 -0.1256 -0.5922 -0.1508
  550MOL0     C74135   7.382   5.278   7.665  0.1550 -0.1594 -0.7279
  550MOL0     C74136   7.244   5.212   7.670 -0.2385 -0.6900  1.1388
  550MOL0     C74137   7.193   5.202   7.819  0.0667 -0.1904 -0.1803
  550MOL0     C74138   7.044   5.192   7.816  0.3329 -0.5264  0.4901
  550MOL0     O74139   7.017   5.089   7.717  1.0517  0.1995 -0.1024
  550MOL0     C74140   6.893   5.034   7.695  0.2594  0.0279 -0.5566
  550MOL0     C74141   6.887   4.954   7.580 -0.0963 -0.7014  0.0280
  550MOL0     C74142   6.766   4.908   7.527  0.1905  0.1047 -0.0609
  550MOL0     C74143   6.798   4.820   7.403  0.3835  0.3050 -0.0236
  550MOL0     C74144   6.649   4.922   7.601  1.1010 -0.1877 -0.2401
  550MOL0     C74145   6.515   4.873   7.558  0.0713 -0.1904 -0.4535
  550MOL0     O74146   6.414   4.894   7.652  0.8509 -0.3580  0.2332
  550MOL0     C74147   6.288   4.856   7.626 -1.1551  0.2871  0.8025
  550MOL0     C74148   6.224   4.900   7.504  0.9038  0.5359 -0.5294
  550MOL0     C74149   6.086   4.868   7.477 -0.1900  0.2046  0.0709
  550MOL0     C74150   6.012   4.794   7.577  0.2247  0.3946 -0.3801
  550MOL0     O74151   5.884   4.759   7.566  0.2791 -0.6921  0.0933
  550MOL0     C74152   5.867   4.617   7.553 -0.1772 -0.0704  0.2181
  550MOL0     C74153   5.732   4.583   7.595  0.8130  0.6680 -0.7916
  550MOL0     C74154   5.626   4.615   7.488 -0.3642 -0.1910  0.7293
  550MOL0     C74155   5.487   4.595   7.545  0.0311 -0.1416 -0.3186
  550MOL0     C74156   5.366   4.656   7.477 -0.7685 -0.2569 -0.0627
  550MOL0     C74157   5.356   4.627   7.327  0.4162  0.3192 -0.3942
  550MOL0     C74158   5.289   4.492   7.302  0.6015 -0.4050 -0.6726
  550MOL0     C74159   5.240   4.480   7.165  1.0586 -0.1535 -0.5542
  550MOL0    Cl74160   5.369   4.484   7.038  0.1807  0.3437 -0.1630
  550MOL0     C74161   6.081   4.751   7.687  0.3242 -0.5212  1.0491
  550MOL0     C74162   6.209   4.783   7.714 -0.2355  0.5471 -1.0416
  550MOL0     O74163   6.499   4.808   7.449 -0.2430 -0.3943  0.6201
  550MOL0     C74164   6.659   5.007   7.712  0.2958 -0.4465 -0.3064
  550MOL0     C74165   6.779   5.068   7.759  0.0683  0.1903 -0.8036
  550MOL0     N74166   7.355   5.324   7.410 -0.4475  0.1991 -0.4444
  550MOL0     N74167   7.443   5.323   7.313 -0.1043  0.1251  0.1761
  550MOL0     C74168   8.478   5.301   7.428 -0.4928  0.6543  0.5151
  550MOL0     C74169   8.606   5.340   7.465 -0.8161 -0.0362  0.1125
  550MOL0     C74170   9.009   5.338   7.680  0.6169 -0.3657 -0.7010
  550MOL0     C74171   9.075   5.421   7.587  0.1444  0.5380 -1.2780
  550MOL0     C74172   9.206   5.456   7.620  0.1238  0.7446  0.4885
  550MOL0     C74173   9.269   5.400   7.734  0.6402 -0.6218 -0.1891
  550MOL0     O74174   9.407   5.421   7.764 -0.0296 -0.8795 -0.2318
  550MOL0     C74175   9.487   5.511   7.680 -0.2414  0.4340  0.6581
  550MOL0     C74176   9.622   5.551   7.734  1.3485  0.3354  0.4001
  550MOL0     C74177   9.595   5.644   7.852  0.3675 -0.5012  0.2649
  550MOL0     C74178   9.716   5.650   7.942 -0.5427  0.0897 -0.1695
  550MOL0     C74179   9.700   5.741   8.055  1.0244  0.6516 -0.7460
  550MOL0     C74180   9.668   5.808   8.150  0.7715 -0.1846  0.5613
  550MOL0     C74181   9.200   5.334   7.830  0.1166  0.2212 -0.2505
  550MOL0     C74182   9.065   5.304   7.805 -0.2057 -0.0399 -0.1626
  550MOL0     H74183   8.763   5.043   7.498  0.2296 -0.7836 -3.1244
  550MOL0     H74184   8.550   4.965   7.437  0.2874  0.2561 -3.2161
  550MOL0     H74185   8.387   4.956   7.264 -0.7512  0.2839 -0.2381
  550MOL0     H74186   8.332   4.927   7.429 -2.7154 -0.3021  0.0931
  550MOL0     H74187   8.154   5.020   7.199  3.0386  1.0192  0.2429
  550MOL0     H74188   8.151   4.851   7.261  2.5243 -0.4609 -0.2347
  550MOL0     H74189   8.082   4.921   7.472  0.1697  0.0110  0.2338
  550MOL0     H74190   8.088   5.086   7.434  4.7235 -2.6479  2.0533
  550MOL0     H74191   7.933   5.051   7.242  0.8199 -2.9201 -2.1528
  550MOL0     H74192   7.938   4.873   7.271  2.6980 -0.2285 -1.4120
  550MOL0     H74193   7.814   4.912   7.489  0.6408 -2.1034 -1.4129
  550MOL0     H74194   7.829   5.091   7.460 -2.8235 -0.1259  1.0625
  550MOL0     H74195   7.654   4.898   7.308  3.0230  0.5953 -3.0607
  550MOL0     H74196   7.589   5.012   7.427  0.0792 -3.0703  1.4790
  550MOL0     H74197   7.718   5.056   7.156 -1.2283 -3.9762  0.5885
  550MOL0     H74198   7.553   5.086   7.203  0.1567 -1.5927  0.9682
  550MOL0     H74199   7.659   5.292   7.173 -1.1952  0.6342  1.1611
  550MOL0     H74200   7.775   5.267   7.303  1.1451 -1.0536  0.3537
  550MOL0     H74201   7.638   5.249   7.567  2.4606  0.4623 -1.4858
  550MOL0     H74202   7.458   5.230   7.727  1.2155 -2.1218 -3.3497
  550MOL0     H74203   7.371   5.384   7.689  0.5644  0.3195 -2.4844
  550MOL0     H74204   7.261   5.110   7.634  0.8470 -0.8621  2.0682
  550MOL0     H74205   7.178   5.266   7.602 -0.1515 -0.2450  1.4020
  550MOL0     H74206   7.215   5.292   7.877 -1.8617  0.3190 -0.1860
  550MOL0     H74207   7.238   5.118   7.873 -2.5453  0.8440  4.0513
  550MOL0     H74208   7.007   5.294   7.800  0.5990 -0.1045  2.3200
  550MOL0     H74209   7.007   5.150   7.910 -2.1493 -1.3654 -0.7966
  550MOL0     H74210   6.985   4.945   7.536  1.9188  1.9401  3.3980
  550MOL0     H74211   6.878   4.856   7.337  0.4431  0.5558  0.1808
  550MOL0     H74212   6.831   4.726   7.448  3.5302  1.6378  0.7443
  550MOL0     H74213   6.714   4.807   7.335  1.2697  0.5211 -1.1845
  550MOL0     H74214   6.278   4.975   7.446 -1.1373  2.2672 -0.3293
  550MOL0     H74215   6.042   4.904   7.385  3.2445  0.3234 -1.6498
  550MOL0     H74216   5.889   4.600   7.447 -2.2867 -0.1581 -0.2492
  550MOL0     H74217   5.944   4.569   7.615  1.6427  0.7036 -1.3180
  550MOL0     H74218   5.721   4.476   7.618  2.5521  0.4350 -0.9605
  550MOL0     H74219   5.704   4.642   7.683 -0.7937 -1.3655  0.1756
  550MOL0     H74220   5.638   4.547   7.403  0.2709  1.0945 -0.2435
  550MOL0     H74221   5.635   4.715   7.444 -2.9635 -1.1314 -2.3624
  550MOL0     H74222   5.475   4.486   7.551  3.6072 -0.6952 -1.1750
  550MOL0     H74223   5.491   4.644   7.643 -0.5632  1.1255 -0.9176
  550MOL0     H74224   5.388   4.760   7.505  1.1682 -1.4603  3.5704
  550MOL0     H74225   5.278   4.621   7.531 -1.2329 -0.6066 -1.0331
  550MOL0     H74226   5.283   4.696   7.284  3.5228  2.8542 -2.0241
  550MOL0     H74227   5.451   4.641   7.275 -0.0545  1.1513 -1.0527
  550MOL0     H74228   5.220   4.461   7.381 -0.3896  1.7055 -0.6503
  550MOL0     H74229   5.360   4.409   7.300 -0.3566 -1.2227 -1.9506
  550MOL0     H74230   5.178   4.566   7.137  0.6285  0.6273  2.4613
  550MOL0     H74231   5.189   4.383   7.169  0.0423  0.4051  0.5899
  550MOL0     H74232   6.031   4.703   7.770  0.6594  0.2073  1.6863
  550MOL0     H74233   6.250   4.756   7.810 -1.0620 -0.8070 -1.0431
  550MOL0     H74234   6.570   5.032   7.769 -0.7521 -0.4131 -1.8962
  550MOL0     H74235   6.763   5.136   7.842 -4.9326 -0.3859 -0.9529
  550MOL0     H74236   8.388   5.361   7.416 -1.4322 -0.8294 -0.1023
  550MOL0     H74237   8.632   5.446   7.468  1.9016 -0.6403  0.4288
  550MOL0     H74238   9.024   5.449   7.495 -0.2743  1.3760 -0.7996
  550MOL0     H74239   9.257   5.515   7.545  0.5358 -0.6277 -0.3545
  550MOL0     H74240   9.501   5.462   7.583 -2.3195 -0.5300  0.8032
  550MOL0     H74241   9.431   5.605   7.671 -0.0614  0.3583 -1.9076
  550MOL0     H74242   9.678   5.602   7.655  1.9805 -1.5173 -0.3892
  550MOL0     H74243   9.655   5.453   7.768 -1.6720 -1.0556 -0.3148
  550MOL0     H74244   9.509   5.607   7.909 -0.7630  2.2061  0.4408
  550MOL0     H74245   9.565   5.744   7.821  1.5440 -0.0150  0.6658
  550MOL0     H74246   9.805   5.678   7.885 -1.1539 -1.8225 -2.2157
  550MOL0     H74247   9.750   5.555   7.984  1.7272  0.7040 -0.5205
  550MOL0     H74248   9.631   5.872   8.228  0.9480  3.6084 -2.1963
  550MOL0     H74249   9.244   5.317   7.927 -1.8209  2.9023  1.2283
  550MOL0     H74250   9.015   5.255   7.888  2.1918 -1.7677  0.3642
  551MOL0     O74251   8.836   3.078   3.014  0.9444 -0.0121  0.9212
  551MOL0     C74252   8.876   3.184   3.053 -0.5984  0.0843  0.1671
  551MOL0     O74253   8.891   3.294   2.977 -0.1269  0.2673 -0.1644
  551MOL0     C74254   8.833   3.301   2.858  0.3729 -0.2001 -0.4656
  551MOL0     C74255   8.692   3.312   2.871  0.3015 -0.0289  0.6540
  551MOL0     C74256   8.616   3.309   2.753 -0.2090  0.9613  0.2502
  551MOL0     C74257   8.683   3.312   2.629 -0.7172 -1.3112 -0.3220
  551MOL0     O74258   8.605   3.319   2.513 -0.6778  0.6165 -0.0869
  551MOL0     C74259   8.621   3.205   2.428  0.2182  0.2327 -0.1800
  551MOL0     C74260   8.501   3.207   2.338 -0.3547  0.0148  0.5947
  551MOL0     C74261   8.517   3.095   2.235  0.2816 -0.2797  0.2715
  551MOL0     C74262   8.385   3.029   2.203  0.5001  1.0976  0.5132
  551MOL0     C74263   8.274   3.123   2.147 -0.7372 -0.8038  0.9937
  551MOL0     C74264   8.162   3.039   2.088  0.0865 -0.6536  0.3569
  551MOL0     C74265   8.042   3.128   2.069  0.0347 -1.0556 -0.3258
  551MOL0     C74266   7.913   3.070   2.005  0.5880  0.2180 -0.5876
  551MOL0     N74267   7.868   2.940   2.045 -0.0080  0.0107  0.8251
  551MOL0     C74268   7.818   2.913   2.174  0.4633 -0.1417 -0.7220
  551MOL0     C74269   7.794   2.779   2.180 -0.1648 -0.1557  0.3799
  551MOL0     C74270   7.735   2.700   2.302 -0.9173 -0.0343  0.9895
  551MOL0     C74271   7.605   2.626   2.265 -0.4026 -0.3680  0.1249
  551MOL0     C74272   7.516   2.720   2.195  0.5946 -0.3649 -0.4954
  551MOL0     C74273   7.374   2.668   2.172 -0.8576 -0.4119 -0.3549
  551MOL0     O74274   7.297   2.782   2.123 -0.1454 -0.1956 -0.4624
  551MOL0     C74275   7.164   2.749   2.096  0.1636 -0.5140  0.0678
  551MOL0     C74276   7.099   2.628   2.121  0.6452  0.6535  0.1922
  551MOL0     C74277   6.960   2.610   2.097 -0.4809 -0.4142  0.1532
  551MOL0     C74278   6.891   2.482   2.123  0.6779  0.7370 -0.5017
  551MOL0     C74279   6.885   2.718   2.046  0.0585  0.2016  0.0630
  551MOL0     C74280   6.741   2.717   2.008  0.5392  0.1564  0.5555
  551MOL0     O74281   6.707   2.790   1.896  0.0832 -0.7862  0.5168
  551MOL0     C74282   6.583   2.771   1.833  0.8602 -1.0950  0.6239
  551MOL0     C74283   6.524   2.881   1.759  0.1382  0.3610 -0.5345
  551MOL0     C74284   6.404   2.853   1.687  0.4109  0.3809  0.8126
  551MOL0     C74285   6.350   2.730   1.678  0.9755  0.0329  0.3842
  551MOL0     O74286   6.247   2.700   1.580 -0.4807 -0.1997  0.0098
  551MOL0     C74287   6.162   2.808   1.535  0.0528  0.2736 -1.0273
  551MOL0     C74288   6.061   2.756   1.438 -0.0040 -0.3724  0.4062
  551MOL0     C74289   5.988   2.632   1.481  0.2591  0.2517  0.4481
  551MOL0     C74290   5.856   2.616   1.397  0.3830  0.1948 -0.4845
  551MOL0     C74291   5.806   2.471   1.420  0.2037 -0.4921 -0.1916
  551MOL0     C74292   5.693   2.438   1.320  0.9546 -0.7870 -0.6706
  551MOL0     C74293   5.644   2.298   1.315  0.7734 -0.2479 -0.4090
  551MOL0     C74294   5.563   2.259   1.437  0.3448  0.4148  0.5904
  551MOL0    Cl74295   5.405   2.333   1.423 -0.3531  0.3757 -0.1912
  551MOL0     C74296   6.405   2.625   1.754  0.1941 -0.5337  0.6343
  551MOL0     C74297   6.524   2.649   1.821  0.0687  0.1810  0.2657
  551MOL0     O74298   6.659   2.662   2.081 -0.4298  0.0846  0.3450
  551MOL0     C74299   6.957   2.844   2.011  0.0320  0.5855  0.6192
  551MOL0     C74300   7.089   2.852   2.043  1.0285 -0.4281 -0.1453
  551MOL0     N74301   7.855   2.724   2.060 -0.3941  0.3091  0.1590
  551MOL0     N74302   7.892   2.822   1.975  0.0722  0.4553  0.1990
  551MOL0     C74303   8.825   3.302   2.622  0.0579  0.2397  0.2020
  551MOL0     C74304   8.902   3.300   2.739  0.3811 -0.2364 -0.6343
  551MOL0     C74305   8.923   3.184   3.197 -0.7967 -0.2102  0.0708
  551MOL0     C74306   8.868   3.085   3.285 -0.3497  0.3963  1.2156
  551MOL0     C74307   8.895   3.099   3.423 -0.3818 -0.8614 -1.0447
  551MOL0     C74308   8.969   3.206   3.470  0.2939  0.0331  0.0287
  551MOL0     O74309   8.961   3.231   3.600 -0.2822 -0.0515 -0.4919
  551MOL0     C74310   9.085   3.285   3.662  0.1564  0.4955  0.3677
  551MOL0     C74311   9.195   3.173   3.678  0.0448  0.2479  0.7486
  551MOL0     C74312   9.274   3.202   3.799  0.8054 -0.1376 -0.0332
  551MOL0     C74313   9.373   3.318   3.787  0.3160  0.6622 -0.1655
  551MOL0     C74314   9.297   3.448   3.812  0.5247 -0.2716 -0.9786
  551MOL0     C74315   9.235   3.550   3.827 -1.1221  0.2021 -0.4392
  551MOL0     C74316   9.035   3.289   3.387 -0.5859 -0.0088  0.7187
  551MOL0     C74317   9.008   3.282   3.242  0.1938  0.7432 -0.9584
  551MOL0     H74318   8.647   3.314   2.970 -1.7574 -0.0010 -0.2347
  551MOL0     H74319   8.508   3.320   2.751 -0.3751  0.4235  2.6729
  551MOL0     H74320   8.717   3.209   2.378  1.2691  1.9794  1.8298
  551MOL0     H74321   8.610   3.117   2.493 -0.3489  0.7308  0.4198
  551MOL0     H74322   8.406   3.209   2.393 -1.9577  1.6555 -1.9818
  551MOL0     H74323   8.502   3.305   2.290 -0.5148 -0.9324 -1.4589
  551MOL0     H74324   8.552   3.128   2.137 -2.2800  1.2648 -0.2269
  551MOL0     H74325   8.582   3.019   2.279  2.4861  0.8242 -0.9454
  551MOL0     H74326   8.406   2.955   2.126 -0.3002  0.6363  0.7191
  551MOL0     H74327   8.337   2.985   2.292 -0.5403 -1.4395 -1.1881
  551MOL0     H74328   8.235   3.190   2.224 -1.2734  1.2043 -0.8938
  551MOL0     H74329   8.320   3.178   2.064 -0.6256 -0.8375  1.0344
  551MOL0     H74330   8.199   3.001   1.993 -0.9995 -0.2231 -0.2522
  551MOL0     H74331   8.130   2.957   2.153  0.2002 -0.9336  0.0614
  551MOL0     H74332   8.020   3.174   2.165  0.6098 -0.7330 -0.3439
  551MOL0     H74333   8.078   3.214   2.012 -0.0065 -0.5655  0.3735
  551MOL0     H74334   7.934   3.066   1.897 -1.7094  1.3561 -1.1489
  551MOL0     H74335   7.826   3.136   2.013  0.9663  0.5722  0.8221
  551MOL0     H74336   7.790   2.981   2.254 -5.1631 -1.4663 -1.1132
  551MOL0     H74337   7.813   2.636   2.343  0.5640  1.0583  0.0111
  551MOL0     H74338   7.722   2.773   2.382  2.4734  1.3910  0.4331
  551MOL0     H74339   7.563   2.599   2.362  3.0230  1.3774  2.3017
  551MOL0     H74340   7.614   2.532   2.210 -3.6997 -1.5242  1.3177
  551MOL0     H74341   7.560   2.753   2.100 -0.2907  0.6178 -0.5885
  551MOL0     H74342   7.506   2.804   2.264 -0.6331 -1.6061  0.8985
  551MOL0     H74343   7.333   2.629   2.265 -2.9822 -1.5259 -1.6797
  551MOL0     H74344   7.370   2.589   2.096 -0.2132 -1.0709  0.2799
  551MOL0     H74345   7.157   2.546   2.161 -0.7478  0.1482  1.2841
  551MOL0     H74346   6.827   2.475   2.211  0.7177 -0.6940 -0.5743
  551MOL0     H74347   6.829   2.452   2.038  2.1751 -1.8670 -0.7697
  551MOL0     H74348   6.967   2.405   2.133 -1.0551 -1.4402 -2.8319
  551MOL0     H74349   6.571   2.979   1.750  0.8865  0.1053  0.4605
  551MOL0     H74350   6.366   2.930   1.621  3.3444 -1.4229 -3.3749
  551MOL0     H74351   6.108   2.856   1.617  0.2099  0.9711 -1.3227
  551MOL0     H74352   6.211   2.886   1.476 -1.1873 -0.6574 -3.4545
  551MOL0     H74353   6.000   2.840   1.402  1.4307  0.0498 -1.1701
  551MOL0     H74354   6.121   2.739   1.348  1.3606  3.7357  0.3150
  551MOL0     H74355   5.963   2.630   1.588  0.5118 -0.5258  0.4998
  551MOL0     H74356   6.051   2.545   1.460  0.5122  0.1493  1.5410
  551MOL0     H74357   5.770   2.682   1.410 -0.2574 -0.3766 -1.6105
  551MOL0     H74358   5.890   2.629   1.293  3.4390  1.4873  0.5589
  551MOL0     H74359   5.779   2.455   1.525  0.9843 -0.5898  0.0019
  551MOL0     H74360   5.882   2.399   1.387  2.0667  1.7157 -0.9863
  551MOL0     H74361   5.606   2.502   1.338  1.9967 -0.1715  3.2084
  551MOL0     H74362   5.738   2.464   1.224  0.7538 -1.5905 -0.9907
  551MOL0     H74363   5.730   2.230   1.317  0.6880 -0.4366 -1.8418
  551MOL0     H74364   5.584   2.274   1.226 -0.7164 -1.9726  0.9616
  551MOL0     H74365   5.612   2.290   1.529  0.3331  0.5102  0.5648
  551MOL0     H74366   5.544   2.152   1.443  0.7447  0.0041 -2.9981
  551MOL0     H74367   6.357   2.528   1.764  0.0128 -0.5308 -0.1085
  551MOL0     H74368   6.560   2.561   1.872 -1.4221 -1.2753 -1.0736
  551MOL0     H74369   6.910   2.934   1.973  1.1214  0.8818 -0.0689
  551MOL0     H74370   7.137   2.944   2.013  0.3850 -0.7574 -2.3600
  551MOL0     H74371   8.875   3.296   2.526 -2.0325 -0.4403 -0.9131
  551MOL0     H74372   9.011   3.301   2.732  0.3181  1.7846 -2.5352
  551MOL0     H74373   8.806   3.001   3.256 -1.5363  0.8375  2.3835
  551MOL0     H74374   8.846   3.027   3.488  2.0469 -1.5991  0.1017
  551MOL0     H74375   9.127   3.372   3.610 -0.1325  1.1986  1.2849
  551MOL0     H74376   9.069   3.309   3.768  1.2097 -2.2133  1.2434
  551MOL0     H74377   9.255   3.154   3.589 -0.5672  0.6094  0.2446
  551MOL0     H74378   9.149   3.077   3.702 -2.4496  1.3043  0.5376
  551MOL0     H74379   9.331   3.114   3.829 -0.8349 -0.5759  2.0727
  551MOL0     H74380   9.211   3.220   3.887  0.7745 -2.7820  0.5531
  551MOL0     H74381   9.433   3.315   3.696  2.8871 -0.2644  1.4319
  551MOL0     H74382   9.444   3.310   3.870 -1.2576 -2.1160  1.0615
  551MOL0     H74383   9.184   3.644   3.827 -0.0446  0.8194  0.5176
  551MOL0     H74384   9.097   3.369   3.428 -1.1864  0.0794  1.4648
  551MOL0     H74385   9.065   3.349   3.179  3.8063 -3.3646 -2.5694
  552MOL0     O74386   1.531   3.007   5.511 -0.1927  0.1466  0.9985
  552MOL0     C74387   1.543   2.926   5.600 -0.5575  0.4664 -0.0521
  552MOL0     O74388   1.446   2.854   5.659  0.2705 -0.0713  0.2538
  552MOL0     C74389   1.307   2.861   5.622 -0.6225 -0.8517 -0.4973
  552MOL0     C74390   1.246   2.877   5.495 -0.4237  0.4191  0.1891
  552MOL0     C74391   1.106   2.881   5.477  0.1412  0.2087 -0.0576
  552MOL0     C74392   1.026   2.856   5.582  0.0219 -0.4248 -0.7055
  552MOL0     O74393   0.884   2.853   5.580  0.1239  0.1846 -0.2124
  552MOL0     C74394   0.820   2.817   5.454 -0.5958 -0.8322  0.7938
  552MOL0     C74395   0.745   2.926   5.394 -0.1234  0.3377  0.5769
  552MOL0     C74396   0.637   2.883   5.303  0.1412 -0.1860  0.7267
  552MOL0     C74397   0.519   2.811   5.374 -1.0675  0.5658  0.0714
  552MOL0     C74398   0.390   2.807   5.283 -0.2387 -0.6988 -0.4449
  552MOL0     C74399   0.276   2.729   5.346 -0.9878  0.0184 -0.2554
  552MOL0     C74400   0.140   2.776   5.282 -0.7400  0.2921 -0.9850
  552MOL0     C74401   0.030   2.694   5.352 -0.0780  0.1328  1.2737
  552MOL0     N74402  -0.101   2.690   5.284  0.2033  0.2336  0.6194
  552MOL0     C74403  -0.137   2.670   5.153  0.5324 -0.0409  1.0194
  552MOL0     C74404  -0.270   2.696   5.149  0.0652 -0.2336 -0.7900
  552MOL0     C74405  -0.340   2.685   5.011 -0.0819  0.5956  0.3630
  552MOL0     C74406  -0.418   2.805   4.962 -0.2881  0.1819  0.4859
  552MOL0     C74407  -0.479   2.800   4.824 -0.1473  0.4402  0.1687
  552MOL0     C74408  -0.561   2.927   4.796  0.1734 -0.4333 -0.4815
  552MOL0     O74409  -0.616   2.930   4.670  0.2299 -0.3954  0.4778
  552MOL0     C74410  -0.728   3.014   4.660  0.0326 -0.2502  0.4600
  552MOL0     C74411  -0.740   3.124   4.741 -0.2997 -0.1791  0.4389
  552MOL0     C74412  -0.838   3.219   4.712  0.6485 -0.0702 -0.0857
  552MOL0     C74413  -0.849   3.345   4.802 -0.2712  0.0699 -0.1275
  552MOL0     C74414  -0.931   3.202   4.601  0.0353  0.3188  0.3651
  552MOL0     C74415  -1.029   3.296   4.552  0.7036  0.3040 -0.2485
  552MOL0     O74416  -1.147   3.253   4.499  0.3369 -0.2416  0.0693
  552MOL0     C74417  -1.223   3.363   4.467 -0.8276  0.1166  0.2227
  552MOL0     C74418  -1.217   3.412   4.339 -0.3268  1.0529  0.1918
  552MOL0     C74419  -1.287   3.533   4.308  0.4190 -0.2661  0.1252
  552MOL0     C74420  -1.369   3.596   4.402 -0.7745  0.4246 -0.9125
  552MOL0     O74421  -1.440   3.705   4.366  0.1283 -0.0009  0.0621
  552MOL0     C74422  -1.351   3.817   4.386 -0.0683  0.8533 -1.3245
  552MOL0     C74423  -1.390   3.920   4.285  0.5020  0.0490 -0.3409
  552MOL0     C74424  -1.531   3.961   4.298  0.5258  0.3270  0.6486
  552MOL0     C74425  -1.554   4.108   4.244 -0.6688  0.8419  0.0100
  552MOL0     C74426  -1.704   4.129   4.228  0.0171 -0.5686  0.0407
  552MOL0     C74427  -1.788   4.161   4.345  0.0690 -0.5335 -0.2321
  552MOL0     C74428  -1.934   4.175   4.309 -0.4315  0.1555  1.1965
  552MOL0     C74429  -2.015   4.220   4.431 -0.2063 -0.0236  0.5386
  552MOL0    Cl74430  -2.181   4.203   4.377  0.3663  0.3754  0.4700
  552MOL0     C74431  -1.370   3.544   4.533  0.3659  0.7082 -0.2418
  552MOL0     C74432  -1.303   3.428   4.561 -0.2955 -0.2387 -0.3031
  552MOL0     O74433  -0.993   3.414   4.561  0.2137  0.0658 -1.0852
  552MOL0     C74434  -0.916   3.083   4.534  0.9131 -0.1175  0.4623
  552MOL0     C74435  -0.813   2.997   4.558 -0.6632  0.2762 -0.5852
  552MOL0     N74436  -0.315   2.739   5.272  0.1409 -0.4639 -0.6794
  552MOL0     N74437  -0.209   2.737   5.345  0.7981 -0.3004  0.6022
  552MOL0     C74438   1.086   2.845   5.711 -0.1154 -0.3253 -0.5743
  552MOL0     C74439   1.221   2.862   5.732 -0.4260  0.2289  0.3867
  552MOL0     C74440   1.686   2.883   5.643 -0.0351  0.2783 -0.4826
  552MOL0     C74441   1.700   2.787   5.747  0.6017  0.1746  0.5679
  552MOL0     C74442   1.823   2.768   5.797  0.2088  0.1688 -0.5643
  552MOL0     C74443   1.943   2.819   5.743 -0.2889 -0.0450 -0.2027
  552MOL0     O74444   2.059   2.789   5.807 -0.2863  0.4228 -0.2208
  552MOL0     C74445   2.126   2.666   5.771  0.4509 -0.5969  0.7075
  552MOL0     C74446   2.256   2.650   5.848 -0.0603 -0.4851 -0.3841
  552MOL0     C74447   2.370   2.721   5.782 -0.1330  0.0415 -0.0531
  552MOL0     C74448   2.361   2.874   5.787  0.5001 -0.0280 -0.1965
  552MOL0     C74449   2.490   2.939   5.739 -0.7365  0.4829  0.1212
  552MOL0     C74450   2.589   2.972   5.686 -0.3628 -0.3029  1.0874
  552MOL0     C74451   1.922   2.931   5.666 -0.3540 -0.3162  0.6355
  552MOL0     C74452   1.799   2.956   5.604  0.5610 -0.3667  0.6212
  552MOL0     H74453   1.314   2.899   5.412 -0.6966 -0.5698 -0.3151
  552MOL0     H74454   1.053   2.905   5.385 -2.6552 -0.5336  1.2616
  552MOL0     H74455   0.891   2.780   5.379  1.2070  1.4222  1.2772
  552MOL0     H74456   0.750   2.735   5.473 -1.0888 -0.3099  1.2936
  552MOL0     H74457   0.688   2.981   5.469  1.9893  2.8448  0.4851
  552MOL0     H74458   0.813   2.994   5.342  0.1967 -0.6393 -0.3438
  552MOL0     H74459   0.602   2.973   5.251  0.4794  0.4060  1.5050
  552MOL0     H74460   0.680   2.817   5.227  1.4747 -0.9305  2.0616
  552MOL0     H74461   0.554   2.710   5.397  0.0957  0.6117 -1.3524
  552MOL0     H74462   0.498   2.865   5.467  1.6388  0.0199  1.0953
  552MOL0     H74463   0.346   2.907   5.282 -2.0961 -1.4847 -0.9047
  552MOL0     H74464   0.413   2.767   5.184 -1.3696  2.0469 -1.9304
  552MOL0     H74465   0.299   2.625   5.325  1.0391  0.7478 -1.9530
  552MOL0     H74466   0.271   2.742   5.455 -1.5385 -0.5351 -0.2132
  552MOL0     H74467   0.120   2.880   5.307 -2.5985 -0.4399  0.8074
  552MOL0     H74468   0.143   2.758   5.174 -2.1479  0.6898 -1.0967
  552MOL0     H74469   0.015   2.729   5.455  2.8260 -0.5493  2.0298
  552MOL0     H74470   0.055   2.587   5.358 -1.6919 -0.4440 -1.1575
  552MOL0     H74471  -0.074   2.641   5.070 -2.2329 -0.1057 -1.2106
  552MOL0     H74472  -0.276   2.646   4.931  1.0967  1.0259  1.0841
  552MOL0     H74473  -0.407   2.603   5.038 -0.1156  0.0851 -1.1621
  552MOL0     H74474  -0.354   2.894   4.969 -0.3394  0.2264  0.3899
  552MOL0     H74475  -0.496   2.826   5.035 -1.5311 -2.5701  0.0612
  552MOL0     H74476  -0.543   2.713   4.807 -2.0204  2.1301 -2.0652
  552MOL0     H74477  -0.415   2.792   4.736 -2.6582 -1.1382 -1.6389
  552MOL0     H74478  -0.491   3.011   4.803  1.9606 -1.9078  0.2609
  552MOL0     H74479  -0.638   2.932   4.873 -1.5655 -2.6850 -1.9343
  552MOL0     H74480  -0.677   3.165   4.818 -0.8760  0.4757  0.5763
  552MOL0     H74481  -0.774   3.335   4.881 -0.3205  2.8984  0.3543
  552MOL0     H74482  -0.827   3.433   4.740  1.4843  0.7017  1.3019
  552MOL0     H74483  -0.949   3.346   4.845 -0.1551 -0.5556  0.1696
  552MOL0     H74484  -1.158   3.361   4.263 -1.7193 -0.1281 -0.1484
  552MOL0     H74485  -1.279   3.568   4.205 -1.0711  1.9753  0.7122
  552MOL0     H74486  -1.359   3.867   4.483 -2.3624  3.0548 -2.5267
  552MOL0     H74487  -1.247   3.788   4.369 -0.2847 -1.5431  0.7947
  552MOL0     H74488  -1.316   4.001   4.294  0.9404 -0.3118 -0.6833
  552MOL0     H74489  -1.377   3.887   4.182 -1.1327 -1.7388 -0.0389
  552MOL0     H74490  -1.570   3.944   4.399  0.3510 -0.6905  0.4184
  552MOL0     H74491  -1.583   3.887   4.236  0.6100  3.1478 -3.1577
  552MOL0     H74492  -1.509   4.182   4.311 -3.5268  1.6871  1.1569
  552MOL0     H74493  -1.488   4.104   4.157 -0.9951 -1.0052 -0.1835
  552MOL0     H74494  -1.746   4.043   4.174 -0.3299 -1.0940  1.1244
  552MOL0     H74495  -1.711   4.210   4.155  0.6177 -2.8665 -2.7932
  552MOL0     H74496  -1.781   4.082   4.420 -0.6314 -0.5226 -0.1442
  552MOL0     H74497  -1.759   4.257   4.388  0.0632  0.3904 -2.1557
  552MOL0     H74498  -1.975   4.091   4.254 -1.8551  0.3615  1.8930
  552MOL0     H74499  -1.964   4.259   4.245 -1.9639  0.9716  2.8871
  552MOL0     H74500  -1.977   4.321   4.450  0.2513  0.2499 -1.5466
  552MOL0     H74501  -2.016   4.160   4.523 -1.2946 -2.3866 -0.9038
  552MOL0     H74502  -1.407   3.605   4.615  2.4452  0.8948  0.6238
  552MOL0     H74503  -1.316   3.390   4.662  1.0746  1.2796  0.4880
  552MOL0     H74504  -0.988   3.054   4.459  1.2261  0.0015  0.1132
  552MOL0     H74505  -0.798   2.907   4.498 -3.2217 -1.1191  0.6690
  552MOL0     H74506   1.030   2.832   5.803 -0.3154  1.9848 -0.3197
  552MOL0     H74507   1.262   2.858   5.832  2.5618  0.4434 -0.7504
  552MOL0     H74508   1.612   2.736   5.786  0.9386 -0.9937 -0.1418
  552MOL0     H74509   1.821   2.703   5.884  0.3449  1.6123  0.5524
  552MOL0     H74510   2.065   2.585   5.811  1.2010 -0.6487  1.8125
  552MOL0     H74511   2.136   2.659   5.663  0.0624  2.4980  0.3761
  552MOL0     H74512   2.285   2.545   5.861  1.8308 -0.0585 -0.9357
  552MOL0     H74513   2.237   2.688   5.949 -0.6785  2.2555 -1.4530
  552MOL0     H74514   2.376   2.700   5.674  2.1254  2.1855 -0.4254
  552MOL0     H74515   2.459   2.681   5.831 -2.0224 -4.5208  0.2041
  552MOL0     H74516   2.336   2.907   5.888  0.8254 -0.6034  0.0769
  552MOL0     H74517   2.277   2.904   5.724 -0.1832  1.9645  1.5544
  552MOL0     H74518   2.682   2.992   5.637 -0.7105  0.3447  0.6732
  552MOL0     H74519   2.011   2.989   5.641 -0.2727 -0.0019  1.6017
  552MOL0     H74520   1.780   3.029   5.526 -0.6466  1.1649  2.2760
  553MOL0     O74521   6.779   4.267   6.040  0.6877  0.2063 -0.0489
  553MOL0     C74522   6.756   4.235   5.921 -0.6404  0.7584 -0.1167
  553MOL0     O74523   6.628   4.218   5.859 -0.6005 -0.2185  0.3555
  553MOL0     C74524   6.506   4.247   5.919  0.0955  1.2574 -1.0842
  553MOL0     C74525   6.494   4.343   6.019  0.4477  0.5565 -0.0556
  553MOL0     C74526   6.364   4.361   6.073 -0.0270 -0.2085 -1.1803
  553MOL0     C74527   6.253   4.280   6.032  0.3387 -0.1873 -0.5640
  553MOL0     O74528   6.134   4.306   6.085  0.8060 -0.3032 -0.4004
  553MOL0     C74529   6.008   4.266   6.027 -0.2735  0.1651 -0.3760
  553MOL0     C74530   5.907   4.323   6.126 -0.0363  0.3702 -0.1548
  553MOL0     C74531   5.770   4.271   6.075  0.3013  0.1100 -0.4703
  553MOL0     C74532   5.664   4.334   6.167  0.2617  1.1113  0.9566
  553MOL0     C74533   5.646   4.273   6.308  0.1690 -0.3496 -0.4172
  553MOL0     C74534   5.522   4.339   6.378  0.6869  0.4202  1.1588
  553MOL0     C74535   5.402   4.254   6.344 -0.0121 -0.0330  0.6887
  553MOL0     C74536   5.293   4.249   6.456  0.9947 -0.2028  0.0659
  553MOL0     N74537   5.253   4.377   6.518 -0.7854 -0.1753  0.6925
  553MOL0     C74538   5.232   4.396   6.652  0.0255  0.0441  0.0633
  553MOL0     C74539   5.156   4.509   6.671  0.3273  0.3048  0.4351
  553MOL0     C74540   5.087   4.567   6.790  1.2351  0.5762  0.6845
  553MOL0     C74541   4.968   4.487   6.838 -0.6387 -0.9478  0.4248
  553MOL0     C74542   4.870   4.462   6.724  0.8885 -0.7821 -0.7587
  553MOL0     C74543   4.778   4.586   6.695 -0.1617  0.2855 -0.5127
  553MOL0     O74544   4.703   4.644   6.805  0.4858 -0.6144  0.5326
  553MOL0     C74545   4.585   4.584   6.841  0.1153 -0.2834  0.4872
  553MOL0     C74546   4.507   4.662   6.932  0.5686 -0.1762  0.0402
  553MOL0     C74547   4.384   4.617   6.978 -0.0094  0.0342 -0.6053
  553MOL0     C74548   4.312   4.715   7.069 -0.3346 -0.2610  0.0994
  553MOL0     C74549   4.326   4.491   6.924  0.1966 -0.5887  0.2163
  553MOL0     C74550   4.189   4.450   6.956 -0.4292 -0.3581  0.7230
  553MOL0     O74551   4.126   4.382   6.863 -0.3469  0.3410 -0.4506
  553MOL0     C74552   3.990   4.358   6.879  0.3302 -0.3703 -0.4355
  553MOL0     C74553   3.946   4.244   6.818  0.3949 -0.3140  0.3125
  553MOL0     C74554   3.816   4.196   6.842 -0.0593 -0.3125 -0.8439
  553MOL0     C74555   3.731   4.279   6.905  0.2634 -0.3460  0.0998
  553MOL0     O74556   3.602   4.241   6.949  0.0095 -0.4563  0.1940
  553MOL0     C74557   3.547   4.114   6.892 -0.7224 -0.4888  0.0474
  553MOL0     C74558   3.420   4.079   6.960  0.4202  0.3188 -0.3315
  553MOL0     C74559   3.305   4.176   6.927 -0.7379 -0.4373 -0.6064
  553MOL0     C74560   3.233   4.227   7.055 -0.1247  0.1469  0.1874
  553MOL0     C74561   3.103   4.310   7.026 -0.4195  0.2738  0.2351
  553MOL0     C74562   2.998   4.229   6.939 -0.3792 -0.3530 -0.7805
  553MOL0     C74563   2.865   4.287   6.951 -0.0400  0.0690  0.3073
  553MOL0     C74564   2.759   4.172   6.917 -0.6229 -0.2154  0.2943
  553MOL0    Cl74565   2.588   4.230   6.940  0.2217 -0.0321  0.1703
  553MOL0     C74566   3.766   4.402   6.947 -0.6045 -0.8233 -0.7141
  553MOL0     C74567   3.895   4.442   6.927 -0.2189 -1.0848 -0.1088
  553MOL0     O74568   4.149   4.478   7.066  0.3717  0.0799  0.5153
  553MOL0     C74569   4.406   4.415   6.835 -0.4331  0.6210 -0.2267
  553MOL0     C74570   4.533   4.459   6.794  0.0799  0.1958 -0.1170
  553MOL0     N74571   5.129   4.547   6.542 -1.2315 -0.1017 -0.0200
  553MOL0     N74572   5.186   4.473   6.453 -0.0738  0.5445  0.6041
  553MOL0     C74573   6.283   4.174   5.942  0.4380  0.1197 -0.1946
  553MOL0     C74574   6.405   4.159   5.879  0.2601 -0.3207 -0.5033
  553MOL0     C74575   6.876   4.182   5.852 -0.0227  0.0502 -0.3131
  553MOL0     C74576   6.881   4.158   5.716  0.2981  0.1029  0.0196
  553MOL0     C74577   6.995   4.120   5.645 -0.2229 -0.2604 -1.0043
  553MOL0     C74578   7.109   4.084   5.712  0.4976 -0.2634 -0.2294
  553MOL0     O74579   7.219   4.029   5.643  0.3822 -0.0644 -0.8358
  553MOL0     C74580   7.343   3.999   5.701  1.2462 -0.4212  0.0391
  553MOL0     C74581   7.450   3.965   5.598  0.0547 -0.0917  0.2087
  553MOL0     C74582   7.435   3.828   5.534  0.1782 -0.1646 -0.2999
  553MOL0     C74583   7.532   3.790   5.428  0.5010  0.5017  0.7039
  553MOL0     C74584   7.493   3.682   5.337 -0.3496 -1.1972  0.0777
  553MOL0     C74585   7.472   3.578   5.280  0.2499  0.2087 -0.2272
  553MOL0     C74586   7.109   4.089   5.852  0.3640 -0.1823  0.0742
  553MOL0     C74587   6.992   4.137   5.923  0.9758 -0.0205 -0.7437
  553MOL0     H74588   6.576   4.411   6.037  1.4094 -0.2853 -1.1436
  553MOL0     H74589   6.358   4.430   6.157 -0.9673 -1.6300 -0.0059
  553MOL0     H74590   6.008   4.310   5.928  2.8469  1.1341 -0.0646
  553MOL0     H74591   6.008   4.156   6.034  3.2236  0.0881  0.7744
  553MOL0     H74592   5.931   4.289   6.227 -2.8998 -2.5901 -0.2850
  553MOL0     H74593   5.913   4.433   6.123  0.4700  0.3873  1.0017
  553MOL0     H74594   5.751   4.300   5.971  1.5220  1.9070 -0.2348
  553MOL0     H74595   5.756   4.164   6.094  2.6100 -0.0594  0.6448
  553MOL0     H74596   5.687   4.441   6.177  0.4634  1.0538  1.0946
  553MOL0     H74597   5.572   4.320   6.110  1.2483  2.8496 -1.1844
  553MOL0     H74598   5.630   4.166   6.292 -1.4586 -0.0873 -0.7498
  553MOL0     H74599   5.729   4.297   6.374  0.4591  1.2150 -1.2994
  553MOL0     H74600   5.535   4.340   6.487  1.8147  2.8395  1.0713
  553MOL0     H74601   5.503   4.443   6.348 -2.1581 -0.6140 -1.0233
  553MOL0     H74602   5.374   4.289   6.244  4.0960  0.5156 -0.4441
  553MOL0     H74603   5.427   4.147   6.344 -2.3605 -0.6732 -1.0802
  553MOL0     H74604   5.337   4.178   6.526 -1.4871 -0.6988  1.2386
  553MOL0     H74605   5.205   4.207   6.406  0.4747  0.1483  0.6826
  553MOL0     H74606   5.247   4.325   6.732  2.6603  2.0426  1.4901
  553MOL0     H74607   5.154   4.576   6.876 -2.2132  0.5822  3.5992
  553MOL0     H74608   5.052   4.670   6.776 -0.2965  0.0876  0.7795
  553MOL0     H74609   4.913   4.537   6.918  0.5860  1.0817  0.0487
  553MOL0     H74610   4.995   4.389   6.879 -3.5530 -0.7512  3.2858
  553MOL0     H74611   4.807   4.376   6.750  0.6562 -0.4898 -0.3556
  553MOL0     H74612   4.916   4.435   6.628 -2.3897  0.8443 -2.9495
  553MOL0     H74613   4.713   4.560   6.611  2.5492  1.3224 -3.1174
  553MOL0     H74614   4.849   4.664   6.665  2.6492 -0.6110  3.1310
  553MOL0     H74615   4.546   4.756   6.970 -1.3055  0.7224 -0.1648
  553MOL0     H74616   4.369   4.803   7.099 -0.0575 -0.7513  1.0658
  553MOL0     H74617   4.223   4.751   7.017 -0.1263  0.2421  0.0817
  553MOL0     H74618   4.262   4.666   7.154  0.0531  0.8727  1.0174
  553MOL0     H74619   4.013   4.175   6.769 -0.6579  0.4812 -2.4544
  553MOL0     H74620   3.788   4.098   6.806  1.0875 -0.2804 -1.8679
  553MOL0     H74621   3.528   4.133   6.786  1.1913  1.4226 -0.0248
  553MOL0     H74622   3.613   4.030   6.914 -0.1997 -0.5515 -1.6486
  553MOL0     H74623   3.392   3.978   6.928 -0.0482  0.3793 -0.1266
  553MOL0     H74624   3.439   4.069   7.067  0.1951 -1.2264 -0.4054
  553MOL0     H74625   3.230   4.129   6.862  0.3914 -3.8150  0.3513
  553MOL0     H74626   3.341   4.268   6.879 -1.6576 -0.1447 -0.7629
  553MOL0     H74627   3.211   4.136   7.113  4.1064 -0.2616  1.4460
  553MOL0     H74628   3.293   4.292   7.118 -0.0452 -0.1843  0.4577
  553MOL0     H74629   3.125   4.410   6.987  0.4109  0.0191  0.0229
  553MOL0     H74630   3.061   4.322   7.126  2.4359  0.7758  1.4713
  553MOL0     H74631   3.029   4.247   6.836  3.1365 -1.6260 -0.0586
  553MOL0     H74632   2.996   4.125   6.972 -0.7248  1.3045  5.8197
  553MOL0     H74633   2.850   4.371   6.882 -4.0005 -1.1683 -0.6315
  553MOL0     H74634   2.847   4.319   7.054  0.4031  1.4409 -0.0119
  553MOL0     H74635   2.776   4.085   6.981 -0.2066 -0.4369 -0.1100
  553MOL0     H74636   2.760   4.138   6.813 -0.5204  2.0539 -0.5186
  553MOL0     H74637   3.697   4.473   6.991 -0.6774  0.3007 -2.5608
  553MOL0     H74638   3.921   4.545   6.952 -2.2815 -0.2913 -1.0029
  553MOL0     H74639   4.373   4.328   6.779 -2.0003  0.2627  1.1873
  553MOL0     H74640   4.589   4.413   6.713  0.0415 -2.0290  1.0238
  553MOL0     H74641   6.201   4.108   5.914  0.3814 -0.1482  0.5724
  553MOL0     H74642   6.419   4.082   5.804 -1.2257  0.9390 -2.1532
  553MOL0     H74643   6.792   4.173   5.656  0.6484  1.3611 -0.2271
  553MOL0     H74644   6.988   4.114   5.537  0.1353 -0.2568 -1.0292
  553MOL0     H74645   7.386   4.073   5.769  1.9273 -1.4833  0.7819
  553MOL0     H74646   7.332   3.912   5.766  2.1202  0.4353  1.3829
  553MOL0     H74647   7.550   3.982   5.640  1.4580  0.4352 -3.0597
  553MOL0     H74648   7.440   4.033   5.514 -0.4294 -2.4438 -1.7442
  553MOL0     H74649   7.336   3.823   5.488 -0.0066  3.5130 -0.6464
  553MOL0     H74650   7.450   3.748   5.606 -1.1763 -0.0177  0.1891
  553MOL0     H74651   7.624   3.748   5.471 -1.0831 -2.6789  1.2698
  553MOL0     H74652   7.555   3.877   5.367  0.3497  1.4611  1.9667
  553MOL0     H74653   7.466   3.485   5.228 -1.1937 -0.6078  1.3055
  553MOL0     H74654   7.195   4.065   5.914 -2.0792 -1.0375  3.4436
  553MOL0     H74655   7.001   4.162   6.028 -0.7891 -0.6382 -0.4214
  554MOL0     O74656   6.945   0.645   2.125 -0.5317 -0.2490  0.2548
  554MOL0     C74657   6.926   0.666   2.243 -0.1781  0.3955 -0.1563
  554MOL0     O74658   6.806   0.640   2.306 -0.4815 -0.2765  0.5760
  554MOL0     C74659   6.711   0.583   2.233  0.3334  0.8786  0.1149
  554MOL0     C74660   6.655   0.634   2.120 -0.9235  0.3676 -0.2233
  554MOL0     C74661   6.553   0.566   2.044  0.0057 -0.0665  0.1321
  554MOL0     C74662   6.488   0.454   2.095  0.2230  0.6123  0.2522
  554MOL0     O74663   6.403   0.383   2.013  0.0636 -0.0001  0.5229
  554MOL0     C74664   6.424   0.243   1.998 -1.4935 -0.2639  0.7707
  554MOL0     C74665   6.289   0.181   2.023 -0.5048  0.4148 -0.7452
  554MOL0     C74666   6.304   0.030   2.035 -0.6871  0.5638 -0.0302
  554MOL0     C74667   6.184  -0.039   2.093  0.2902  0.5676  0.2079
  554MOL0     C74668   6.215  -0.188   2.128  0.0652 -0.3537 -0.1510
  554MOL0     C74669   6.087  -0.267   2.158  0.3403 -0.5753  0.5917
  554MOL0     C74670   6.117  -0.406   2.227  0.3534  0.6378 -0.2079
  554MOL0     C74671   5.993  -0.503   2.222  1.2957  0.4465  0.6126
  554MOL0     N74672   5.980  -0.565   2.084 -0.4395 -0.0969  0.3880
  554MOL0     C74673   5.910  -0.510   1.981  0.3222 -0.3832  1.3795
  554MOL0     C74674   5.907  -0.608   1.884  0.3706  0.1823 -0.2203
  554MOL0     C74675   5.841  -0.605   1.750 -0.2720  0.3183 -0.1694
  554MOL0     C74676   5.694  -0.655   1.736  0.0097  0.6580 -0.1199
  554MOL0     C74677   5.678  -0.806   1.753 -0.3232 -0.3296 -0.1204
  554MOL0     C74678   5.536  -0.857   1.700 -0.0992 -0.2112 -0.5522
  554MOL0     O74679   5.499  -0.965   1.785  0.1072  0.6750 -0.1692
  554MOL0     C74680   5.368  -1.003   1.787  0.1611 -0.3562 -0.5740
  554MOL0     C74681   5.271  -0.959   1.692 -0.4681 -0.2964  0.2618
  554MOL0     C74682   5.135  -0.988   1.706 -0.5633 -1.6075 -0.3890
  554MOL0     C74683   5.052  -0.949   1.591 -0.4124 -0.0783  0.5495
  554MOL0     C74684   5.090  -1.054   1.822  0.0186 -0.0707 -0.2660
  554MOL0     C74685   4.949  -1.075   1.859  0.8814 -0.2855  0.8980
  554MOL0     O74686   4.935  -1.138   1.973  0.1750 -0.0219  0.7418
  554MOL0     C74687   4.816  -1.198   1.997 -0.5870  0.1795  0.2451
  554MOL0     C74688   4.730  -1.156   2.101 -1.1187  0.1645 -1.5934
  554MOL0     C74689   4.610  -1.213   2.118  0.3389  0.6719 -0.3734
  554MOL0     C74690   4.571  -1.332   2.054 -0.5623 -0.0977  0.4844
  554MOL0     O74691   4.453  -1.379   2.095 -0.0507 -0.4814 -0.3653
  554MOL0     C74692   4.417  -1.504   2.037  0.1827  0.4946  0.7704
  554MOL0     C74693   4.270  -1.543   2.070 -0.0300  0.1946 -0.3206
  554MOL0     C74694   4.260  -1.555   2.219  0.0251  0.8722  0.1500
  554MOL0     C74695   4.121  -1.608   2.256 -0.7895 -0.9037 -0.2344
  554MOL0     C74696   4.072  -1.570   2.392 -0.1944 -0.4721 -0.7427
  554MOL0     C74697   4.040  -1.419   2.400  0.9090  0.3425  0.6543
  554MOL0     C74698   4.041  -1.375   2.550 -0.1502  0.2367  0.3995
  554MOL0     C74699   4.003  -1.223   2.572  0.1485  1.4362  0.1093
  554MOL0    Cl74700   3.859  -1.168   2.484 -0.0687 -0.1632  0.5860
  554MOL0     C74701   4.653  -1.377   1.944 -0.3836  0.0872 -1.0050
  554MOL0     C74702   4.775  -1.309   1.926  0.4041 -0.8094 -0.1205
  554MOL0     O74703   4.857  -1.028   1.786 -0.1052  0.1386 -0.6819
  554MOL0     C74704   5.189  -1.081   1.920 -0.1404 -0.3011 -0.4353
  554MOL0     C74705   5.319  -1.058   1.904  0.0715 -0.5545 -0.4401
  554MOL0     N74706   5.977  -0.719   1.935 -0.5914 -0.0305  0.0495
  554MOL0     N74707   6.032  -0.684   2.049  0.6435 -0.2290 -0.1399
  554MOL0     C74708   6.533   0.406   2.216  0.4022  0.3096 -0.9108
  554MOL0     C74709   6.648   0.471   2.278  0.4519  0.2528  0.2063
  554MOL0     C74710   7.030   0.716   2.330  0.4162 -0.4637 -1.0940
  554MOL0     C74711   7.016   0.688   2.465 -0.0255  1.3548 -0.0721
  554MOL0     C74712   7.115   0.711   2.560 -0.9922 -0.0062 -1.2627
  554MOL0     C74713   7.249   0.759   2.520  0.3525  0.1747  0.7509
  554MOL0     O74714   7.349   0.769   2.614  0.0220 -0.2079 -0.1558
  554MOL0     C74715   7.440   0.883   2.615 -0.2315  0.5842  0.3247
  554MOL0     C74716   7.358   1.001   2.668  0.1519 -0.0797 -0.2126
  554MOL0     C74717   7.441   1.129   2.693  0.1008  0.0499 -0.7454
  554MOL0     C74718   7.353   1.255   2.711 -0.9625  0.3234 -0.3588
  554MOL0     C74719   7.255   1.233   2.816  0.4502  0.0512 -0.0050
  554MOL0     C74720   7.148   1.222   2.885  0.1115  0.1022 -0.1652
  554MOL0     C74721   7.264   0.794   2.379  0.8800  0.3484 -0.7303
  554MOL0     C74722   7.156   0.780   2.291  0.7557 -0.1824  0.4323
  554MOL0     H74723   6.699   0.727   2.086 -0.0699 -1.2287 -3.9946
  554MOL0     H74724   6.515   0.607   1.951 -2.7496  1.4043  1.7797
  554MOL0     H74725   6.451   0.217   1.896  0.7610  2.3969  0.5645
  554MOL0     H74726   6.496   0.199   2.068 -0.0293 -0.3605 -0.7464
  554MOL0     H74727   6.238   0.211   2.115  0.5359 -0.6652  0.2181
  554MOL0     H74728   6.219   0.198   1.941 -2.7404 -2.1786  0.4624
  554MOL0     H74729   6.334  -0.024   1.945 -0.2127  1.1590 -0.2364
  554MOL0     H74730   6.379   0.019   2.115 -0.5748  1.3723 -0.0134
  554MOL0     H74731   6.159   0.015   2.186  1.0158  4.5711 -1.6977
  554MOL0     H74732   6.105  -0.025   2.019  2.4790  1.2004 -2.1269
  554MOL0     H74733   6.274  -0.244   2.054 -0.4159 -3.1169  1.3885
  554MOL0     H74734   6.274  -0.186   2.220 -2.9692 -0.9137  1.9616
  554MOL0     H74735   6.018  -0.212   2.223  0.0101 -1.9750  1.4583
  554MOL0     H74736   6.038  -0.281   2.061 -0.8323 -0.6522  1.1740
  554MOL0     H74737   6.199  -0.460   2.179 -0.4520  0.4770 -1.4557
  554MOL0     H74738   6.143  -0.386   2.331  1.4642  2.0516 -0.7132
  554MOL0     H74739   5.904  -0.450   2.256  0.1107 -0.2578 -1.2189
  554MOL0     H74740   6.006  -0.577   2.301 -1.8380  0.6591  1.4735
  554MOL0     H74741   5.872  -0.408   1.974  1.1252 -0.0861  1.2090
  554MOL0     H74742   5.834  -0.496   1.737  1.7494  0.6748  1.3207
  554MOL0     H74743   5.895  -0.660   1.672 -1.8205  1.3776 -2.0953
  554MOL0     H74744   5.664  -0.638   1.632 -1.7745 -1.6311 -0.0716
  554MOL0     H74745   5.641  -0.596   1.811  1.2553  1.0073  0.5026
  554MOL0     H74746   5.690  -0.840   1.856  1.8783 -0.2836 -0.3188
  554MOL0     H74747   5.763  -0.852   1.701  3.5145  3.1668  2.4496
  554MOL0     H74748   5.555  -0.882   1.595  0.6938  3.4449 -1.4289
  554MOL0     H74749   5.467  -0.772   1.701  1.4018  1.1016  1.4440
  554MOL0     H74750   5.306  -0.898   1.610  0.8193  2.0432  2.4112
  554MOL0     H74751   4.991  -1.036   1.565 -0.9974 -0.4513  2.9673
  554MOL0     H74752   4.989  -0.861   1.605  1.8755  1.8952 -0.6387
  554MOL0     H74753   5.112  -0.921   1.503  0.3548  1.8644  1.6249
  554MOL0     H74754   4.757  -1.068   2.158 -0.1714 -0.5373 -0.9161
  554MOL0     H74755   4.547  -1.174   2.198  2.3553 -1.2251  2.2961
  554MOL0     H74756   4.433  -1.502   1.929 -0.6035  1.4436  0.6511
  554MOL0     H74757   4.491  -1.569   2.084  2.4174  2.5104  0.2595
  554MOL0     H74758   4.198  -1.473   2.027  2.4889  2.9611 -0.3139
  554MOL0     H74759   4.243  -1.638   2.023 -0.5764  1.4050 -2.5579
  554MOL0     H74760   4.287  -1.461   2.268 -1.5985  0.0360  2.8797
  554MOL0     H74761   4.328  -1.636   2.249  0.9146  0.6311 -2.3038
  554MOL0     H74762   4.042  -1.576   2.187  2.9887  0.5994 -4.3349
  554MOL0     H74763   4.137  -1.715   2.247  2.8373 -0.7805  2.4340
  554MOL0     H74764   4.156  -1.592   2.459  0.5500  2.1029 -0.7301
  554MOL0     H74765   3.988  -1.620   2.441 -1.8441  0.2418 -2.7152
  554MOL0     H74766   4.108  -1.363   2.335  1.5345 -0.8759  0.2246
  554MOL0     H74767   3.939  -1.409   2.359  1.3967  0.5252 -0.5624
  554MOL0     H74768   4.140  -1.399   2.589 -0.8208  0.7671  2.6091
  554MOL0     H74769   3.972  -1.426   2.618 -1.2830  0.0782 -0.8343
  554MOL0     H74770   4.083  -1.165   2.528 -0.2495 -1.5563 -5.4547
  554MOL0     H74771   3.998  -1.200   2.679  0.5060  2.9415 -0.1805
  554MOL0     H74772   4.633  -1.467   1.887 -1.3530  1.8094 -3.5684
  554MOL0     H74773   4.849  -1.354   1.861  1.1650  0.7766 -0.3740
  554MOL0     H74774   5.165  -1.122   2.017 -1.8245  0.9727 -0.2539
  554MOL0     H74775   5.393  -1.073   1.983 -2.4865  2.0136  2.7603
  554MOL0     H74776   6.489   0.324   2.272  1.3292  0.1586 -0.3716
  554MOL0     H74777   6.686   0.426   2.370  3.5576  0.3509 -0.8899
  554MOL0     H74778   6.927   0.635   2.496  0.9040 -1.0407 -1.2925
  554MOL0     H74779   7.084   0.693   2.662  0.9308  2.8949 -0.0274
  554MOL0     H74780   7.521   0.861   2.686  1.1192 -0.1984 -1.3808
  554MOL0     H74781   7.479   0.889   2.513 -3.8083 -0.0397 -1.2124
  554MOL0     H74782   7.317   0.966   2.763  2.0541  0.5901  0.9319
  554MOL0     H74783   7.264   1.017   2.616 -0.1173 -4.5321 -1.4846
  554MOL0     H74784   7.520   1.150   2.620 -0.5357  1.8400 -0.9528
  554MOL0     H74785   7.499   1.118   2.785  0.6183  0.5964 -0.9980
  554MOL0     H74786   7.306   1.294   2.619  0.4098  2.0544 -0.3807
  554MOL0     H74787   7.418   1.340   2.735  1.3297 -1.3024 -0.5414
  554MOL0     H74788   7.052   1.204   2.928 -0.4282 -0.2291 -1.4835
  554MOL0     H74789   7.358   0.822   2.334  1.7855 -0.0224  0.8712
  554MOL0     H74790   7.171   0.806   2.187 -0.9505  0.0741  0.2094
  555MOL0     O74791   8.741   9.231   1.750 -0.3641  0.5345 -0.7534
  555MOL0     C74792   8.764   9.134   1.676  0.0461 -0.0133  0.3671
  555MOL0     O74793   8.664   9.064   1.614 -0.5330  0.3744 -0.0199
  555MOL0     C74794   8.531   9.103   1.625  0.1472 -0.1641  0.2496
  555MOL0     C74795   8.468   9.198   1.537  0.3395  1.2651 -0.0853
  555MOL0     C74796   8.330   9.221   1.536 -0.5588  0.0104  0.6907
  555MOL0     C74797   8.241   9.154   1.624 -0.0743  0.3957 -0.8299
  555MOL0     O74798   8.105   9.177   1.626  0.5751  0.4440  0.4483
  555MOL0     C74799   8.030   9.066   1.667 -0.1611  0.2071 -0.9737
  555MOL0     C74800   7.881   9.068   1.618 -1.2721  0.8496 -0.2140
  555MOL0     C74801   7.814   8.942   1.661 -1.0883 -0.0611  0.0133
  555MOL0     C74802   7.660   8.960   1.657 -0.3581  0.3501 -1.2291
  555MOL0     C74803   7.618   8.964   1.513 -0.4625  0.0438 -0.1639
  555MOL0     C74804   7.477   8.928   1.486  0.0174 -0.1863  0.0271
  555MOL0     C74805   7.446   8.900   1.340  0.6748 -0.1290 -0.0890
  555MOL0     C74806   7.482   8.746   1.293  0.4689 -0.1424 -0.6657
  555MOL0     N74807   7.439   8.735   1.158  0.2921 -0.6128 -0.1451
  555MOL0     C74808   7.525   8.714   1.052 -0.0004 -0.4502 -0.6129
  555MOL0     C74809   7.445   8.689   0.946  0.2308 -0.2911  0.2362
  555MOL0     C74810   7.483   8.669   0.799  0.4078  0.7603 -0.4866
  555MOL0     C74811   7.426   8.538   0.750 -0.3838 -1.2356  0.2352
  555MOL0     C74812   7.425   8.525   0.596  1.1015  0.1093  0.1616
  555MOL0     C74813   7.567   8.513   0.539  0.3915 -0.2113 -0.7179
  555MOL0     O74814   7.559   8.470   0.406 -0.3522  0.0726 -0.8787
  555MOL0     C74815   7.673   8.444   0.333 -0.4388 -0.4114  0.3011
  555MOL0     C74816   7.668   8.373   0.219  0.3198  0.0867  0.7694
  555MOL0     C74817   7.776   8.319   0.143  0.1288 -0.6176  0.9526
  555MOL0     C74818   7.742   8.223   0.026 -0.0582  0.1218 -0.7692
  555MOL0     C74819   7.912   8.336   0.196  0.2758 -0.9636 -0.1456
  555MOL0     C74820   8.043   8.280   0.137 -0.4886 -0.4264 -1.3865
  555MOL0     O74821   8.156   8.329   0.196  0.0843 -0.0021 -0.4387
  555MOL0     C74822   8.281   8.300   0.142  0.0090 -0.2555  1.3318
  555MOL0     C74823   8.344   8.409   0.087  0.0867  0.2154  0.6062
  555MOL0     C74824   8.479   8.398   0.033  0.8747  0.2636  0.2224
  555MOL0     C74825   8.555   8.281   0.060  0.0263 -0.2296 -0.1134
  555MOL0     O74826   8.691   8.255   0.017 -0.3283  0.3194  0.5284
  555MOL0     C74827   8.724   8.325  -0.100  0.2815 -0.2038 -0.0064
  555MOL0     C74828   8.863   8.263  -0.156 -0.5670 -0.1522 -0.9671
  555MOL0     C74829   8.975   8.302  -0.057 -0.1452  0.0008  0.0958
  555MOL0     C74830   9.110   8.238  -0.104 -0.5866 -0.5630  0.0895
  555MOL0     C74831   9.111   8.092  -0.064  0.4068 -0.5530  0.1748
  555MOL0     C74832   9.250   8.036  -0.085  0.8453 -0.0986  0.3800
  555MOL0     C74833   9.283   7.926   0.014 -0.1362 -0.2881 -0.8432
  555MOL0     C74834   9.409   7.862  -0.030  0.5031  0.1025 -0.2662
  555MOL0    Cl74835   9.546   7.978   0.006  0.4243 -0.4058 -0.2342
  555MOL0     C74836   8.492   8.173   0.116  0.0071  0.2403 -0.0027
  555MOL0     C74837   8.352   8.184   0.155 -0.1192  0.1569 -0.3062
  555MOL0     O74838   8.037   8.192   0.048 -0.3658 -0.2277 -0.8867
  555MOL0     C74839   7.916   8.410   0.314 -0.2635  0.4363 -0.4007
  555MOL0     C74840   7.804   8.471   0.377 -1.0100 -0.7583 -0.3082
  555MOL0     N74841   7.315   8.672   0.993 -0.0760 -0.1654 -0.2458
  555MOL0     N74842   7.311   8.711   1.114  0.7767  0.6350 -0.0964
  555MOL0     C74843   8.304   9.064   1.711 -0.6378 -0.2760  0.2336
  555MOL0     C74844   8.441   9.032   1.703 -0.9928  0.7491  0.2175
  555MOL0     C74845   8.904   9.096   1.652  0.4174 -0.7741 -0.3405
  555MOL0     C74846   8.935   8.975   1.596  0.2316  1.1313 -0.2314
  555MOL0     C74847   9.064   8.945   1.561  0.1453 -0.0607 -0.9998
  555MOL0     C74848   9.168   9.039   1.582  0.3778 -0.0279 -0.3964
  555MOL0     O74849   9.293   8.999   1.543  0.1145  0.3557  0.4904
  555MOL0     C74850   9.401   9.094   1.528 -0.6201 -0.4928  0.0611
  555MOL0     C74851   9.505   9.015   1.439  0.3131  0.3798 -0.3098
  555MOL0     C74852   9.626   9.092   1.395  0.3781  0.1477 -0.1283
  555MOL0     C74853   9.767   9.035   1.399  0.5365 -0.7995 -0.1917
  555MOL0     C74854   9.772   8.908   1.329 -0.0858  1.0422  0.6340
  555MOL0     C74855   9.781   8.803   1.270 -0.1707 -0.7098 -1.0062
  555MOL0     C74856   9.142   9.163   1.639  0.0308 -0.0909 -0.3987
  555MOL0     C74857   9.009   9.182   1.680 -0.1863 -0.1914 -0.3715
  555MOL0     H74858   8.539   9.242   1.467  2.4560  0.3183  1.3614
  555MOL0     H74859   8.281   9.294   1.473 -0.0116 -0.0378  0.1981
  555MOL0     H74860   8.078   8.974   1.633  0.2545  0.7182 -1.7969
  555MOL0     H74861   8.032   9.058   1.776 -0.5606 -2.6277 -1.1075
  555MOL0     H74862   7.835   9.152   1.670  3.5704  4.0916 -0.4785
  555MOL0     H74863   7.885   9.084   1.510 -3.6509  2.5769 -0.1156
  555MOL0     H74864   7.846   8.855   1.604  0.1476 -0.5804  1.4266
  555MOL0     H74865   7.837   8.920   1.766 -0.1742  1.5548  0.1888
  555MOL0     H74866   7.626   8.873   1.714  2.9410 -1.9473 -2.4406
  555MOL0     H74867   7.633   9.055   1.703 -1.5473 -1.5607  2.4835
  555MOL0     H74868   7.642   9.063   1.475  0.9236 -0.4518 -0.6431
  555MOL0     H74869   7.674   8.883   1.465 -1.3540 -1.2149  0.8274
  555MOL0     H74870   7.437   8.847   1.548 -1.8581 -1.5172 -2.7202
  555MOL0     H74871   7.413   9.015   1.505 -3.8512 -3.1813  2.3357
  555MOL0     H74872   7.343   8.932   1.323  0.5883 -1.6930 -3.0538
  555MOL0     H74873   7.504   8.975   1.284  1.4932 -1.3550 -0.9282
  555MOL0     H74874   7.418   8.680   1.351  2.5521 -0.4516  1.3897
  555MOL0     H74875   7.589   8.724   1.302  0.8697  0.7270 -2.6750
  555MOL0     H74876   7.633   8.725   1.054  0.0585 -1.0388 -0.2824
  555MOL0     H74877   7.436   8.750   0.743 -0.6455 -1.8916 -3.8147
  555MOL0     H74878   7.589   8.667   0.774 -0.2378  0.8819 -3.7868
  555MOL0     H74879   7.320   8.524   0.774 -0.0016 -0.8190  2.4502
  555MOL0     H74880   7.478   8.450   0.789  0.7166 -0.4362  0.6604
  555MOL0     H74881   7.380   8.614   0.550  1.4651  0.7966  1.1095
  555MOL0     H74882   7.374   8.434   0.564 -0.9991  1.1495  0.4024
  555MOL0     H74883   7.641   8.456   0.595  0.4641  0.7148  0.1543
  555MOL0     H74884   7.608   8.614   0.534  1.9748 -0.7588  0.4794
  555MOL0     H74885   7.572   8.343   0.179  1.7073 -2.7234 -0.6919
  555MOL0     H74886   7.709   8.124   0.061 -3.7927  1.5092  0.0987
  555MOL0     H74887   7.654   8.259  -0.028 -0.8803  1.6021  1.3844
  555MOL0     H74888   7.827   8.211  -0.041  1.3852 -3.0427  1.3426
  555MOL0     H74889   8.290   8.503   0.089  1.1926  0.8729  0.5461
  555MOL0     H74890   8.531   8.475  -0.024  1.1042 -0.3654 -0.4307
  555MOL0     H74891   8.646   8.322  -0.177 -0.0271 -1.7765  0.3451
  555MOL0     H74892   8.738   8.432  -0.078 -1.4191 -0.2886  1.8249
  555MOL0     H74893   8.861   8.154  -0.165 -0.4356 -0.1399 -1.1394
  555MOL0     H74894   8.892   8.303  -0.253  1.1707  1.9374  0.3324
  555MOL0     H74895   8.946   8.286   0.047 -2.6770  4.0867  0.2620
  555MOL0     H74896   8.981   8.411  -0.057  0.4440 -0.0304 -0.0390
  555MOL0     H74897   9.107   8.242  -0.214 -2.2336 -0.5359  0.1183
  555MOL0     H74898   9.199   8.282  -0.059  0.1722 -2.8244  0.9552
  555MOL0     H74899   9.044   8.036  -0.129  1.3156 -1.9368  0.3957
  555MOL0     H74900   9.069   8.081   0.036  0.3354 -0.6552  0.1338
  555MOL0     H74901   9.255   8.007  -0.190 -0.1423 -2.4692  0.9179
  555MOL0     H74902   9.328   8.112  -0.074  2.1080 -1.0311 -1.6615
  555MOL0     H74903   9.199   7.857   0.008  0.5529 -1.3123  0.5931
  555MOL0     H74904   9.300   7.969   0.113  3.4238 -0.7120 -1.1405
  555MOL0     H74905   9.424   7.842  -0.136  0.8069 -0.4954 -0.1187
  555MOL0     H74906   9.436   7.770   0.023 -1.3712 -0.4482 -0.1883
  555MOL0     H74907   8.551   8.083   0.130 -0.9295 -0.3018  0.5559
  555MOL0     H74908   8.306   8.102   0.210 -3.1377  3.8464  3.2885
  555MOL0     H74909   8.009   8.424   0.368 -0.8218  1.0364  0.4146
  555MOL0     H74910   7.813   8.530   0.467  0.4617 -1.2078 -0.1327
  555MOL0     H74911   8.236   9.000   1.767 -1.0443 -1.4383 -1.5129
  555MOL0     H74912   8.470   8.951   1.769  0.5604  1.1205  0.0339
  555MOL0     H74913   8.854   8.906   1.573 -0.8214  0.8232  3.6459
  555MOL0     H74914   9.102   8.852   1.521  2.2995  1.4338 -2.7149
  555MOL0     H74915   9.354   9.178   1.476 -1.8281  0.2777  2.2902
  555MOL0     H74916   9.454   9.120   1.620 -1.6355  0.9328  0.2622
  555MOL0     H74917   9.452   8.987   1.348 -1.3137  1.2778  0.3143
  555MOL0     H74918   9.522   8.917   1.484 -1.3044 -0.6699 -1.8707
  555MOL0     H74919   9.624   9.185   1.453  0.5385 -0.0899  0.2662
  555MOL0     H74920   9.607   9.130   1.294  3.4221  1.1775 -0.4072
  555MOL0     H74921   9.784   9.023   1.506  1.1903 -3.1023 -0.5083
  555MOL0     H74922   9.837   9.111   1.364 -0.5930 -0.2628 -1.3874
  555MOL0     H74923   9.792   8.703   1.230  0.6034 -0.8259 -0.5147
  555MOL0     H74924   9.216   9.242   1.654 -1.0851  0.9561 -0.2730
  555MOL0     H74925   9.003   9.267   1.747  0.6388 -1.8121  1.8996
  556MOL0     O74926   2.704   0.292   6.991  0.1698 -0.5704 -0.2611
  556MOL0     C74927   2.789   0.349   6.919  0.1764 -0.5258  0.7278
  556MOL0     O74928   2.753   0.421   6.803 -0.5223 -0.0864  0.8249
  556MOL0     C74929   2.621   0.456   6.780  0.4597  0.0062 -0.0004
  556MOL0     C74930   2.566   0.438   6.652 -0.3689 -0.3364  0.3586
  556MOL0     C74931   2.428   0.475   6.622  0.4885 -0.1167 -0.9918
  556MOL0     C74932   2.348   0.519   6.736 -0.4894 -0.5201  0.5172
  556MOL0     O74933   2.226   0.571   6.713 -0.1951  0.3619  0.2736
  556MOL0     C74934   2.146   0.508   6.615 -0.4080 -0.1919  0.3971
  556MOL0     C74935   2.000   0.550   6.636  0.3690 -0.4242 -0.4098
  556MOL0     C74936   1.925   0.466   6.744 -0.7210  0.0734 -0.1291
  556MOL0     C74937   1.782   0.441   6.690 -0.3466  0.0764  0.1060
  556MOL0     C74938   1.695   0.344   6.784 -0.2624 -0.6781  0.1724
  556MOL0     C74939   1.565   0.306   6.720  0.0737 -0.5948 -0.3408
  556MOL0     C74940   1.473   0.233   6.816 -0.7595  0.4814 -0.0819
  556MOL0     C74941   1.332   0.204   6.765  0.6148  0.1011  0.0805
  556MOL0     N74942   1.249   0.321   6.732  0.2630  0.1088 -0.0868
  556MOL0     C74943   1.233   0.430   6.808 -0.2235  0.2059  1.1442
  556MOL0     C74944   1.159   0.514   6.740  0.2875 -0.3119 -0.2075
  556MOL0     C74945   1.129   0.657   6.775  0.4086 -1.5708 -0.5384
  556MOL0     C74946   1.206   0.757   6.688  0.3894  0.0257 -0.7459
  556MOL0     C74947   1.215   0.900   6.734 -0.1555 -0.4556 -0.6030
  556MOL0     C74948   1.317   0.975   6.645 -0.0644  0.4039  0.0598
  556MOL0     O74949   1.357   1.087   6.717 -0.0120 -0.0906 -0.9555
  556MOL0     C74950   1.276   1.197   6.731 -0.8471 -0.0354 -0.2206
  556MOL0     C74951   1.155   1.218   6.657 -0.6703  0.3506  0.4935
  556MOL0     C74952   1.079   1.330   6.683 -0.3848 -0.3766  0.3446
  556MOL0     C74953   0.973   1.352   6.584  0.1093  0.1248  0.0938
  556MOL0     C74954   1.111   1.410   6.795  0.3751 -0.1087 -0.1326
  556MOL0     C74955   1.036   1.535   6.824  0.0613 -0.1185  0.6704
  556MOL0     O74956   0.982   1.599   6.716  0.5603 -0.4984  0.0541
  556MOL0     C74957   0.901   1.704   6.738  0.0300 -0.9771 -0.7406
  556MOL0     C74958   0.940   1.831   6.793 -0.0229  0.4033  0.1912
  556MOL0     C74959   0.838   1.928   6.812 -0.2715 -0.5374 -0.1330
  556MOL0     C74960   0.705   1.907   6.791  0.4654  0.8270 -0.6223
  556MOL0     O74961   0.623   2.009   6.837  0.9755  0.3914 -0.1107
  556MOL0     C74962   0.478   1.969   6.854 -0.3839 -0.3205  0.0744
  556MOL0     C74963   0.450   1.894   6.985  0.3643  0.8972  0.2032
  556MOL0     C74964   0.302   1.848   6.987 -0.5949  0.6537  0.1565
  556MOL0     C74965   0.290   1.760   7.105  0.9211  0.2192  0.5616
  556MOL0     C74966   0.159   1.686   7.102  0.5236  0.6753  0.0221
  556MOL0     C74967   0.136   1.607   7.237 -0.0764  0.3189 -0.1602
  556MOL0     C74968  -0.001   1.550   7.247 -0.0529  0.7250  0.4081
  556MOL0     C74969  -0.025   1.482   7.373  0.2499 -0.0884 -0.0138
  556MOL0    Cl74970  -0.194   1.483   7.429  0.4695  0.0000 -0.5022
  556MOL0     C74971   0.671   1.785   6.726  0.1556 -0.0501 -0.1773
  556MOL0     C74972   0.768   1.695   6.694 -1.4091  0.5089 -0.5321
  556MOL0     O74973   1.022   1.566   6.942 -0.6033 -0.2104 -0.1138
  556MOL0     C74974   1.220   1.383   6.878 -0.1297 -0.2679 -0.2601
  556MOL0     C74975   1.307   1.277   6.837  0.8390  1.0729  0.3083
  556MOL0     N74976   1.127   0.446   6.618 -0.2643  0.7377  0.4761
  556MOL0     N74977   1.186   0.331   6.615  0.2033  0.0674  0.4078
  556MOL0     C74978   2.396   0.525   6.866  0.1623  1.0917  0.0411
  556MOL0     C74979   2.530   0.500   6.881  0.6858 -0.5690 -0.0968
  556MOL0     C74980   2.931   0.313   6.937  0.2489 -0.1710  0.1375
  556MOL0     C74981   2.973   0.225   7.042 -0.1666  0.0469  0.6547
  556MOL0     C74982   3.108   0.188   7.051 -1.1985  0.6109 -0.1039
  556MOL0     C74983   3.201   0.243   6.961  0.4219  0.3022 -0.6955
  556MOL0     O74984   3.336   0.209   6.962 -0.3653 -0.3141 -0.9501
  556MOL0     C74985   3.398   0.143   7.071  0.4305 -0.0951 -0.2839
  556MOL0     C74986   3.544   0.199   7.069 -0.0188  0.2144 -0.7979
  556MOL0     C74987   3.569   0.335   7.139  0.3522 -0.4154 -0.2956
  556MOL0     C74988   3.714   0.394   7.160  0.6791  0.2184 -0.6335
  556MOL0     C74989   3.819   0.377   7.062 -0.0827 -0.0063  0.3674
  556MOL0     C74990   3.915   0.381   6.982  0.1292  0.7705  0.2184
  556MOL0     C74991   3.160   0.330   6.861  0.6619  0.1754  0.2432
  556MOL0     C74992   3.024   0.351   6.844  0.0206  0.0462  0.9834
  556MOL0     H74993   2.635   0.407   6.575  0.9892 -2.2774  2.2281
  556MOL0     H74994   2.384   0.467   6.523  2.0504 -1.0848 -1.6527
  556MOL0     H74995   2.178   0.558   6.523 -2.2942 -1.6443 -1.1284
  556MOL0     H74996   2.161   0.400   6.622 -1.2922 -0.4818 -1.5221
  556MOL0     H74997   1.986   0.655   6.665 -0.6207 -0.7411  0.2791
  556MOL0     H74998   1.957   0.548   6.536  0.0470  3.6545 -0.5595
  556MOL0     H74999   1.989   0.380   6.764  0.2886  0.7644 -0.3357
  556MOL0     H75000   1.902   0.527   6.832 -3.4132  2.7131 -2.4665
  556MOL0     H75001   1.732   0.536   6.667 -0.4027  0.2091  0.7558
  556MOL0     H75002   1.786   0.382   6.598 -3.5578  0.4374 -0.3778
  556MOL0     H75003   1.756   0.253   6.792  1.8941  0.5117 -1.5642
  556MOL0     H75004   1.685   0.387   6.885  3.6163 -0.7440  0.7589
  556MOL0     H75005   1.520   0.398   6.680  2.5648  0.7763 -0.1947
  556MOL0     H75006   1.592   0.235   6.641  1.1238 -1.3444  0.6504
  556MOL0     H75007   1.518   0.136   6.842  0.4411  0.7293 -1.1451
  556MOL0     H75008   1.478   0.287   6.911 -0.8657 -1.5064  1.1360
  556MOL0     H75009   1.273   0.149   6.838 -0.9031  0.8678 -0.5240
  556MOL0     H75010   1.340   0.142   6.675 -1.7178  1.0060 -0.8400
  556MOL0     H75011   1.287   0.452   6.900 -1.2117  1.0680  1.5431
  556MOL0     H75012   1.021   0.676   6.774  0.9697  3.0206  0.7365
  556MOL0     H75013   1.159   0.674   6.879 -0.9259  0.0891 -0.3689
  556MOL0     H75014   1.179   0.740   6.583  0.2088 -3.1183 -0.2874
  556MOL0     H75015   1.309   0.720   6.687 -0.3941 -2.3046 -1.0667
  556MOL0     H75016   1.242   0.903   6.840  0.9287  0.9822 -0.8907
  556MOL0     H75017   1.117   0.949   6.730  0.3981  0.6417 -4.3757
  556MOL0     H75018   1.269   1.011   6.553  1.5381  2.2764 -0.0940
  556MOL0     H75019   1.408   0.921   6.617  0.8990  2.5278 -1.0790
  556MOL0     H75020   1.135   1.152   6.573  1.0478 -1.0754  1.1385
  556MOL0     H75021   0.886   1.379   6.644  0.8156  1.1040  0.6991
  556MOL0     H75022   1.004   1.430   6.514 -0.0237 -0.0859 -0.2047
  556MOL0     H75023   0.951   1.263   6.524 -1.9960  0.6019  0.0601
  556MOL0     H75024   1.044   1.839   6.821  0.0760 -1.8636  0.6789
  556MOL0     H75025   0.862   2.022   6.860 -1.9586  0.1920 -0.6642
  556MOL0     H75026   0.414   2.058   6.851 -1.7008 -1.2633 -0.4961
  556MOL0     H75027   0.454   1.913   6.763  0.8753  2.3350 -2.0399
  556MOL0     H75028   0.513   1.805   6.997 -1.6804 -0.9431 -1.8086
  556MOL0     H75029   0.475   1.967   7.063  2.5210 -1.5841  1.9827
  556MOL0     H75030   0.282   1.792   6.895 -4.6338 -0.5556  1.5589
  556MOL0     H75031   0.238   1.936   6.990  0.9942  2.0908 -3.2926
  556MOL0     H75032   0.367   1.682   7.096  2.3423  1.6831 -0.6947
  556MOL0     H75033   0.291   1.811   7.202 -2.3512 -0.3280  0.9986
  556MOL0     H75034   0.159   1.613   7.020 -0.9746  1.0559 -0.3394
  556MOL0     H75035   0.078   1.753   7.074 -1.3083 -1.7732 -0.9278
  556MOL0     H75036   0.211   1.528   7.228  0.9135  1.3428 -1.2223
  556MOL0     H75037   0.158   1.666   7.326  1.0038  1.5231 -1.1941
  556MOL0     H75038  -0.017   1.481   7.164 -0.0946  2.1307 -0.7938
  556MOL0     H75039  -0.072   1.633   7.239  0.5484  1.4137  1.8489
  556MOL0     H75040   0.035   1.525   7.453 -0.3497 -0.9976  0.9610
  556MOL0     H75041   0.011   1.379   7.364 -0.4819 -0.3810  0.2382
  556MOL0     H75042   0.568   1.761   6.701 -0.2460  1.0568  0.3667
  556MOL0     H75043   0.735   1.603   6.648 -0.2877  0.2055 -0.7504
  556MOL0     H75044   1.254   1.441   6.963  2.3720  1.0870 -2.0339
  556MOL0     H75045   1.396   1.252   6.895 -0.0636 -0.0677  1.2372
  556MOL0     H75046   2.329   0.555   6.945  0.1638 -3.1545  1.8937
  556MOL0     H75047   2.571   0.503   6.982 -0.0681 -1.5364  0.2569
  556MOL0     H75048   2.901   0.190   7.115 -0.6426 -1.0751 -0.3320
  556MOL0     H75049   3.148   0.113   7.119 -0.5495  1.0934  0.0598
  556MOL0     H75050   3.360   0.176   7.168  1.8644  2.6709 -0.5666
  556MOL0     H75051   3.408   0.035   7.056 -0.6290  0.0580 -2.4818
  556MOL0     H75052   3.575   0.206   6.964 -0.9794  1.2114 -1.0378
  556MOL0     H75053   3.605   0.135   7.133  1.2164  3.0087  1.0096
  556MOL0     H75054   3.510   0.348   7.231  0.1394  1.0998 -0.6212
  556MOL0     H75055   3.518   0.407   7.074 -1.0996 -1.1718 -0.0318
  556MOL0     H75056   3.744   0.358   7.259  0.1868  0.7588 -0.2837
  556MOL0     H75057   3.702   0.502   7.173 -0.8223 -0.1995  2.3478
  556MOL0     H75058   3.985   0.395   6.901 -0.0286 -0.3871 -0.1373
  556MOL0     H75059   3.234   0.374   6.795  1.2542 -0.2375  0.6264
  556MOL0     H75060   2.993   0.416   6.763  0.3127  0.1392  0.9424
  557MOL0     O75061   3.083   7.646  10.093 -0.2755 -0.0091  0.5225
  557MOL0     C75062   3.063   7.633  10.219  0.0226 -0.5038  0.3885
  557MOL0     O75063   2.964   7.701  10.291  0.4058  0.1109 -0.3513
  557MOL0     C75064   2.854   7.747  10.223 -0.0231 -0.1620  0.0289
  557MOL0     C75065   2.847   7.879  10.174 -0.4199  0.1933  0.4199
  557MOL0     C75066   2.727   7.928  10.113 -0.2402 -0.1544  0.5748
  557MOL0     C75067   2.614   7.849  10.093  0.2157 -0.0399 -0.3385
  557MOL0     O75068   2.499   7.887  10.040 -0.0704  0.2065 -0.9194
  557MOL0     C75069   2.507   7.958   9.915  1.0055  0.5794  0.8727
  557MOL0     C75070   2.371   8.016   9.874  0.4791 -1.1772 -0.0346
  557MOL0     C75071   2.342   8.143   9.953  0.2780  0.7603 -0.1610
  557MOL0     C75072   2.197   8.192   9.915 -0.3933  0.9377 -0.2443
  557MOL0     C75073   2.198   8.241   9.769 -0.6245  0.3838 -0.1779
  557MOL0     C75074   2.051   8.307   9.730 -0.4336 -0.4447  0.2680
  557MOL0     C75075   2.053   8.364   9.582  0.0200  0.3447 -0.0972
  557MOL0     C75076   1.934   8.453   9.553 -1.5703  1.0918 -0.8027
  557MOL0     N75077   1.798   8.399   9.598 -1.1413  0.7119 -0.5162
  557MOL0     C75078   1.735   8.422   9.718 -0.4006 -0.3098  0.3648
  557MOL0     C75079   1.613   8.368   9.713  0.2947  0.0238  0.3832
  557MOL0     C75080   1.522   8.362   9.837  0.0960  0.2794  0.4526
  557MOL0     C75081   1.366   8.362   9.804  0.2111 -0.1701 -0.4549
  557MOL0     C75082   1.295   8.350   9.946  0.6053 -0.1856  0.5585
  557MOL0     C75083   1.144   8.350   9.922 -0.1113  0.3135  0.1701
  557MOL0     O75084   1.080   8.311  10.045  0.5303 -0.3111 -0.4878
  557MOL0     C75085   0.947   8.273  10.043  0.8500  0.2169  0.1520
  557MOL0     C75086   0.861   8.273   9.935 -0.3982  0.1711 -0.0062
  557MOL0     C75087   0.722   8.258   9.946 -1.4557  0.0374 -0.2854
  557MOL0     C75088   0.653   8.245   9.815  0.5167 -0.0632 -1.2462
  557MOL0     C75089   0.663   8.238  10.071 -0.0429 -0.5140  0.1264
  557MOL0     C75090   0.518   8.216  10.094 -0.2902  0.5381  0.3211
  557MOL0     O75091   0.434   8.257  10.001 -0.0660  0.1699 -0.9936
  557MOL0     C75092   0.298   8.232  10.023  0.2463  0.1113  0.1981
  557MOL0     C75093   0.214   8.340  10.072  0.0851 -0.3229  0.8596
  557MOL0     C75094   0.082   8.331  10.097 -0.8482  0.8200 -0.4881
  557MOL0     C75095   0.020   8.204  10.087 -0.0728 -0.1604 -0.4215
  557MOL0     O75096  -0.109   8.177  10.121 -0.3426  1.0573  0.3459
  557MOL0     C75097  -0.200   8.291  10.130 -0.8672 -0.0266 -0.2300
  557MOL0     C75098  -0.338   8.236  10.138  0.4488 -0.4210 -0.3796
  557MOL0     C75099  -0.434   8.335  10.189 -0.5470  0.4712 -0.2104
  557MOL0     C75100  -0.579   8.289  10.207  0.1314 -0.0306 -0.1227
  557MOL0     C75101  -0.660   8.410  10.246  0.8360  0.3446 -0.0225
  557MOL0     C75102  -0.807   8.382  10.289 -0.5259  0.7290  0.1447
  557MOL0     C75103  -0.876   8.489  10.376 -0.7632  0.2067  0.3004
  557MOL0     C75104  -1.015   8.465  10.437  0.4081 -0.2836 -0.3131
  557MOL0    Cl75105  -1.136   8.428  10.307  0.0404  0.1779 -0.2356
  557MOL0     C75106   0.095   8.096  10.050  0.1224  0.4306  0.4590
  557MOL0     C75107   0.232   8.110  10.013 -0.5819  0.2472 -0.1970
  557MOL0     O75108   0.482   8.164  10.202  0.3141  0.0728 -0.1983
  557MOL0     C75109   0.760   8.239  10.177  0.6855  0.4549 -0.0228
  557MOL0     C75110   0.894   8.255  10.169 -0.0659  0.1201 -0.0393
  557MOL0     N75111   1.603   8.309   9.592 -0.6955  0.5781 -0.8696
  557MOL0     N75112   1.709   8.329   9.522  0.2853 -0.2045 -0.0686
  557MOL0     C75113   2.620   7.720  10.156  0.2395  0.1669 -0.8495
  557MOL0     C75114   2.735   7.673  10.214 -0.9344  0.5736  0.1029
  557MOL0     C75115   3.139   7.531  10.302  0.0839  0.7879  0.3385
  557MOL0     C75116   3.084   7.479  10.420 -0.0257  0.3619 -0.1292
  557MOL0     C75117   3.159   7.400  10.513  0.3916 -0.6461 -0.6370
  557MOL0     C75118   3.294   7.374  10.481  0.7432 -0.3261 -0.5690
  557MOL0     O75119   3.378   7.289  10.556 -0.4898 -0.0851  0.3940
  557MOL0     C75120   3.323   7.188  10.640  0.1211 -0.0039 -0.1992
  557MOL0     C75121   3.444   7.107  10.687  0.7595  0.1194 -0.2407
  557MOL0     C75122   3.513   7.039  10.573  0.8152 -0.2359  0.3519
  557MOL0     C75123   3.421   6.959  10.477 -0.2666 -0.1152  0.3852
  557MOL0     C75124   3.349   6.865  10.557 -0.6743 -0.4638  0.4756
  557MOL0     C75125   3.278   6.796  10.626  0.4860 -0.3922  0.0594
  557MOL0     C75126   3.340   7.419  10.358 -0.2500  0.3261 -0.3317
  557MOL0     C75127   3.266   7.502  10.273 -0.1917  0.3099  0.1000
  557MOL0     H75128   2.925   7.954  10.181 -0.6964  0.3410  3.0334
  557MOL0     H75129   2.729   8.025  10.064 -1.9651 -1.7607 -3.0991
  557MOL0     H75130   2.588   8.031   9.917  3.3929 -1.8722  0.0989
  557MOL0     H75131   2.530   7.876   9.847  0.6372 -0.8662  2.4032
  557MOL0     H75132   2.381   8.042   9.768 -0.0355 -2.7039 -0.4787
  557MOL0     H75133   2.299   7.935   9.886  0.6777 -1.1610  1.4956
  557MOL0     H75134   2.347   8.115  10.058  0.0417 -0.3192 -0.4247
  557MOL0     H75135   2.410   8.223   9.921  0.4489  0.2403 -1.1293
  557MOL0     H75136   2.110   8.132   9.947 -0.1759 -0.0783 -1.4515
  557MOL0     H75137   2.189   8.292   9.959 -1.6156  2.3270 -3.3161
  557MOL0     H75138   2.271   8.321   9.756 -0.3457  0.0412 -0.8052
  557MOL0     H75139   2.222   8.166   9.693 -1.1294  2.5949 -2.6933
  557MOL0     H75140   1.977   8.227   9.736  0.6967 -1.5440  0.0282
  557MOL0     H75141   2.018   8.389   9.795 -0.6121  1.9078 -2.5953
  557MOL0     H75142   2.149   8.414   9.568 -0.8006  1.4869 -1.9916
  557MOL0     H75143   2.047   8.286   9.506  0.4192 -0.3784  0.5947
  557MOL0     H75144   1.928   8.459   9.444 -0.9396  2.2377 -0.7864
  557MOL0     H75145   1.954   8.554   9.590  0.4676 -0.3950  2.7559
  557MOL0     H75146   1.781   8.475   9.800 -2.4257  0.8431  0.7966
  557MOL0     H75147   1.551   8.268   9.884  0.9465 -0.2651 -1.1058
  557MOL0     H75148   1.542   8.441   9.911 -1.4343  0.5717  0.5883
  557MOL0     H75149   1.343   8.276   9.740  1.3241 -0.3610 -0.6264
  557MOL0     H75150   1.346   8.453   9.747 -1.0075  0.7507  1.3449
  557MOL0     H75151   1.318   8.436  10.010 -1.8904  2.1628 -1.4669
  557MOL0     H75152   1.326   8.254   9.987  3.7173 -0.7424 -2.6458
  557MOL0     H75153   1.109   8.286   9.840 -4.2482  1.0396  1.1356
  557MOL0     H75154   1.113   8.452   9.898 -0.3151  1.0917  3.2555
  557MOL0     H75155   0.904   8.293   9.838  3.1792  0.8234  1.5754
  557MOL0     H75156   0.724   8.250   9.732 -1.1562  1.6397 -2.6561
  557MOL0     H75157   0.585   8.159   9.814  0.1346  0.1671  0.7784
  557MOL0     H75158   0.596   8.334   9.788  2.6172  1.0678 -2.1598
  557MOL0     H75159   0.254   8.440  10.070  0.5979 -0.5108 -1.5871
  557MOL0     H75160   0.014   8.410  10.129 -1.3268  0.7708 -1.3597
  557MOL0     H75161  -0.179   8.350  10.220 -0.0258  2.1378 -1.7497
  557MOL0     H75162  -0.202   8.357  10.043 -1.3584 -2.6777 -2.3651
  557MOL0     H75163  -0.366   8.200  10.038  2.3488 -2.4633 -0.2554
  557MOL0     H75164  -0.336   8.154  10.211  1.6403 -1.2357 -1.2818
  557MOL0     H75165  -0.438   8.423  10.125  0.2791 -0.1789 -1.1831
  557MOL0     H75166  -0.396   8.372  10.284  0.6832  1.2997 -1.0079
  557MOL0     H75167  -0.612   8.239  10.116  1.9251  1.2592 -1.5585
  557MOL0     H75168  -0.590   8.219  10.291 -2.6178 -0.4950 -0.7764
  557MOL0     H75169  -0.661   8.483  10.164  0.7983 -0.2798 -0.5860
  557MOL0     H75170  -0.606   8.464  10.324  0.7116  1.0144 -0.3845
  557MOL0     H75171  -0.855   8.374  10.191  1.6002  0.2367 -0.9205
  557MOL0     H75172  -0.824   8.284  10.335 -0.0201 -0.8250 -2.7059
  557MOL0     H75173  -0.878   8.578  10.313 -0.6736  0.4989  0.7039
  557MOL0     H75174  -0.804   8.505  10.458  0.6489  0.1969 -0.9016
  557MOL0     H75175  -1.053   8.555  10.485 -2.7698 -0.9566 -1.3122
  557MOL0     H75176  -1.006   8.393  10.519  0.5614  0.3189  0.1993
  557MOL0     H75177   0.047   7.999  10.051  0.0653  0.2407 -3.5703
  557MOL0     H75178   0.289   8.023   9.981 -1.1702 -0.5964  0.9488
  557MOL0     H75179   0.730   8.226  10.280  1.5666  1.6888  0.4214
  557MOL0     H75180   0.964   8.261  10.251  3.1919 -0.3065 -2.5578
  557MOL0     H75181   2.537   7.650  10.165  1.7262 -1.5228  0.4803
  557MOL0     H75182   2.744   7.578  10.267  2.5453 -0.7972 -2.5653
  557MOL0     H75183   2.986   7.507  10.456  0.4445  2.3084 -0.2480
  557MOL0     H75184   3.124   7.370  10.611  2.1376 -0.5338  0.0629
  557MOL0     H75185   3.255   7.223  10.719 -0.3335 -2.5011  0.6073
  557MOL0     H75186   3.261   7.135  10.567  2.7146  2.0135 -4.1807
  557MOL0     H75187   3.413   7.026  10.753  0.3254  0.8985  0.5413
  557MOL0     H75188   3.516   7.167  10.745  2.3881 -0.6559 -1.3995
  557MOL0     H75189   3.590   6.971  10.609  1.0994  0.3183  0.7924
  557MOL0     H75190   3.565   7.111  10.509 -0.9632  0.0961 -0.8078
  557MOL0     H75191   3.484   6.907  10.405 -2.7850 -2.5000 -0.2750
  557MOL0     H75192   3.358   7.034  10.426  0.1123  0.8890  1.3646
  557MOL0     H75193   3.212   6.741  10.690 -0.5409 -1.4718 -1.8589
  557MOL0     H75194   3.441   7.389  10.331  0.5441  1.0319  1.7179
  557MOL0     H75195   3.294   7.547  10.179  0.5027  1.3216  0.7793
  558MOL0     O75196   3.611   2.139   0.928 -0.3039  0.7174 -0.2132
  558MOL0     C75197   3.546   2.087   0.840  0.1039 -0.3732  0.5988
  558MOL0     O75198   3.589   2.043   0.720  0.2788  0.1330 -0.2550
  558MOL0     C75199   3.720   2.079   0.695  0.1731  0.3853  0.2797
  558MOL0     C75200   3.822   1.986   0.738 -0.1281 -0.0265  0.1684
  558MOL0     C75201   3.953   2.002   0.693  0.2456  0.2765 -0.2127
  558MOL0     C75202   3.987   2.119   0.628 -0.7134  0.0748 -0.7420
  558MOL0     O75203   4.111   2.143   0.580  0.7819  0.3359 -0.3018
  558MOL0     C75204   4.205   2.191   0.673  0.1615  0.2173 -0.1804
  558MOL0     C75205   4.144   2.308   0.745  0.5935 -1.1980  0.2459
  558MOL0     C75206   4.255   2.398   0.812  0.3861  0.0521  0.7306
  558MOL0     C75207   4.343   2.322   0.915  0.0638 -0.2238  0.4163
  558MOL0     C75208   4.433   2.423   0.987  0.7183  0.1311 -0.5967
  558MOL0     C75209   4.520   2.346   1.090 -0.3191 -0.4613 -0.5367
  558MOL0     C75210   4.602   2.429   1.179 -0.1828  0.3812 -0.9166
  558MOL0     C75211   4.702   2.527   1.105 -0.2239 -0.1132 -0.1800
  558MOL0     N75212   4.800   2.446   1.027 -0.3185  0.2484 -0.2755
  558MOL0     C75213   4.895   2.353   1.069  0.1909  0.1317  0.0339
  558MOL0     C75214   4.956   2.335   0.950 -0.2356 -0.2218  0.1124
  558MOL0     C75215   5.071   2.250   0.922 -0.3844 -0.8620  0.4237
  558MOL0     C75216   5.032   2.104   0.924 -0.0255 -0.4372 -0.2251
  558MOL0     C75217   4.939   2.055   1.044 -0.5599  0.0404  0.4654
  558MOL0     C75218   4.794   2.037   0.998  0.6031  0.1647 -0.3707
  558MOL0     O75219   4.719   2.031   1.126 -0.2412  0.4798  1.2424
  558MOL0     C75220   4.587   1.999   1.108  0.0033 -0.2605  0.0346
  558MOL0     C75221   4.510   2.015   1.215  0.8415  0.6185 -0.9461
  558MOL0     C75222   4.368   2.011   1.215  0.3218  1.0898  0.4622
  558MOL0     C75223   4.304   2.036   1.346  0.3350 -0.6498 -0.0538
  558MOL0     C75224   4.306   1.971   1.098  0.7247  0.0495 -0.4428
  558MOL0     C75225   4.162   1.955   1.082  0.2854 -0.4483  0.0230
  558MOL0     O75226   4.103   1.848   1.140  0.1794  0.0149 -0.2334
  558MOL0     C75227   3.964   1.833   1.128  0.9508  0.7123 -0.8291
  558MOL0     C75228   3.855   1.921   1.079 -0.4142 -0.9230  0.2045
  558MOL0     C75229   3.720   1.882   1.082 -0.5580  0.1690 -0.1429
  558MOL0     C75230   3.689   1.756   1.139  0.6602 -0.1140  0.5256
  558MOL0     O75231   3.562   1.706   1.126 -0.1701  0.0958 -0.1579
  558MOL0     C75232   3.447   1.785   1.089 -0.4118  1.1015  0.1052
  558MOL0     C75233   3.328   1.706   1.139  0.5172  0.6205 -0.3922
  558MOL0     C75234   3.198   1.713   1.058 -1.1914  0.0897  0.5280
  558MOL0     C75235   3.077   1.644   1.130 -0.0301 -0.8205  0.2350
  558MOL0     C75236   3.041   1.723   1.253 -0.6651  0.1126  0.2215
  558MOL0     C75237   2.938   1.659   1.339 -0.6865 -0.0478 -0.3846
  558MOL0     C75238   2.818   1.628   1.257  0.1499 -0.4290 -0.4950
  558MOL0     C75239   2.699   1.597   1.345  0.8464  0.2840 -0.1807
  558MOL0    Cl75240   2.573   1.525   1.238  0.2125 -0.8214  0.1586
  558MOL0     C75241   3.790   1.679   1.195 -0.7827 -0.7550 -0.6960
  558MOL0     C75242   3.924   1.714   1.187 -0.7133 -0.4143  0.5077
  558MOL0     O75243   4.113   2.031   0.995 -0.4492 -0.8719  0.6711
  558MOL0     C75244   4.388   1.941   0.988  0.0519  0.2806 -0.2131
  558MOL0     C75245   4.526   1.963   0.995  0.2109  0.9304  0.8680
  558MOL0     N75246   4.903   2.410   0.847 -0.0311  0.5704 -0.0545
  558MOL0     N75247   4.794   2.465   0.889 -0.6402 -0.7828 -0.7243
  558MOL0     C75248   3.893   2.214   0.591 -0.6109  0.2455 -0.2302
  558MOL0     C75249   3.761   2.191   0.618  0.0932  0.9201  0.0873
  558MOL0     C75250   3.394   2.079   0.864 -0.9077 -0.6434 -0.2550
  558MOL0     C75251   3.339   2.147   0.979 -1.1124  0.2435  0.3189
  558MOL0     C75252   3.203   2.130   1.005  0.1547 -0.5303  0.3500
  558MOL0     C75253   3.112   2.053   0.921 -0.2075 -0.0809 -0.1580
  558MOL0     O75254   2.984   2.025   0.958  0.4467 -0.2380 -0.3331
  558MOL0     C75255   2.896   1.926   0.906  0.5834 -0.5874 -0.8807
  558MOL0     C75256   2.743   1.961   0.919 -0.3251  0.0041  0.1166
  558MOL0     C75257   2.670   1.884   0.813  0.3168 -0.4283 -0.4328
  558MOL0     C75258   2.526   1.923   0.805 -0.2803 -0.0632  0.6345
  558MOL0     C75259   2.487   1.878   0.665 -0.5874 -1.3252 -0.3514
  558MOL0     C75260   2.465   1.840   0.549 -0.1374 -0.9083 -1.1007
  558MOL0     C75261   3.168   2.005   0.805 -0.4420 -0.9475  0.0596
  558MOL0     C75262   3.302   2.018   0.782 -0.5034  0.5136 -0.8987
  558MOL0     H75263   3.807   1.897   0.797 -0.5362 -0.2929 -0.3217
  558MOL0     H75264   4.031   1.932   0.724 -0.8891  0.7147  4.3620
  558MOL0     H75265   4.232   2.102   0.730  1.2582  0.4488 -0.3332
  558MOL0     H75266   4.299   2.231   0.634 -1.3606  2.7836 -1.5162
  558MOL0     H75267   4.104   2.368   0.663  2.3456 -1.8858 -1.1740
  558MOL0     H75268   4.065   2.281   0.815  1.4143 -2.6325  0.6579
  558MOL0     H75269   4.326   2.434   0.738  0.3127 -0.7009  0.2914
  558MOL0     H75270   4.202   2.483   0.859  0.3689  1.5310 -1.7814
  558MOL0     H75271   4.265   2.278   0.978  0.1220 -0.2451  0.4738
  558MOL0     H75272   4.396   2.240   0.863  0.9698  1.3333 -1.2389
  558MOL0     H75273   4.485   2.482   0.910  0.0865  1.8656  0.2536
  558MOL0     H75274   4.375   2.504   1.031  2.1479  1.0598 -0.3334
  558MOL0     H75275   4.446   2.288   1.145  0.2933 -0.5220  0.2368
  558MOL0     H75276   4.594   2.277   1.049  0.7497 -0.5319  1.3839
  558MOL0     H75277   4.540   2.485   1.250  1.7512  0.1082  1.0866
  558MOL0     H75278   4.663   2.365   1.243  0.6660  1.3640 -0.7234
  558MOL0     H75279   4.756   2.569   1.191  2.0712 -3.7516  0.3773
  558MOL0     H75280   4.658   2.612   1.052  0.4016 -1.2898 -2.6814
  558MOL0     H75281   4.911   2.310   1.167  2.3115  0.9089  0.0787
  558MOL0     H75282   5.107   2.261   0.819 -0.2478  3.1506  0.7682
  558MOL0     H75283   5.160   2.279   0.979  2.2920  2.8303 -4.7743
  558MOL0     H75284   5.127   2.051   0.938  0.6631  0.6159 -0.8013
  558MOL0     H75285   4.974   2.076   0.836  0.9441  0.7125 -1.2614
  558MOL0     H75286   4.949   2.115   1.134 -0.3331  0.5561  0.1006
  558MOL0     H75287   4.971   1.957   1.080  0.7889  0.8787  1.6465
  558MOL0     H75288   4.781   1.946   0.940 -1.0584  0.2401 -0.1834
  558MOL0     H75289   4.756   2.116   0.933  0.8196 -0.3374 -1.1161
  558MOL0     H75290   4.563   2.033   1.308 -0.3982  0.5315 -0.1959
  558MOL0     H75291   4.241   1.954   1.382  1.5476 -1.1614  0.9444
  558MOL0     H75292   4.386   2.024   1.417 -0.1394 -0.5830  0.5120
  558MOL0     H75293   4.255   2.132   1.362 -0.8072 -1.2514  0.1859
  558MOL0     H75294   3.879   2.016   1.031 -0.3620 -0.8374  0.3986
  558MOL0     H75295   3.645   1.948   1.041 -1.7030 -1.3499 -0.5951
  558MOL0     H75296   3.451   1.881   1.141 -0.6693  0.3327  1.6049
  558MOL0     H75297   3.443   1.792   0.980 -0.0800  0.3174  0.0350
  558MOL0     H75298   3.351   1.599   1.146 -0.1189  0.5114  0.2169
  558MOL0     H75299   3.319   1.743   1.242  0.0499 -1.9392  0.5625
  558MOL0     H75300   3.226   1.661   0.966 -1.9844  1.3436 -0.4490
  558MOL0     H75301   3.173   1.813   1.022  0.6251  1.0782  1.8122
  558MOL0     H75302   2.991   1.639   1.061  0.2926  0.2766 -0.2614
  558MOL0     H75303   3.104   1.542   1.161  1.4817 -0.8206 -0.9532
  558MOL0     H75304   3.006   1.819   1.213 -2.7193 -0.7220 -0.1107
  558MOL0     H75305   3.122   1.736   1.325 -0.2373  1.9724 -0.5310
  558MOL0     H75306   2.982   1.564   1.372 -0.4000 -1.0736 -3.3558
  558MOL0     H75307   2.905   1.715   1.426  0.2286 -0.4606  0.2502
  558MOL0     H75308   2.837   1.550   1.182 -2.1093 -0.3746 -1.1826
  558MOL0     H75309   2.786   1.715   1.200 -0.1839  0.6669  1.2866
  558MOL0     H75310   2.662   1.683   1.402 -1.6306 -1.9421  1.8282
  558MOL0     H75311   2.723   1.518   1.417  1.2314  0.6187  0.0603
  558MOL0     H75312   3.775   1.584   1.246  3.3822 -0.1375  2.1960
  558MOL0     H75313   4.001   1.647   1.224  1.0924 -0.1596 -2.5051
  558MOL0     H75314   4.351   1.901   0.894  1.3497 -2.0110  0.1800
  558MOL0     H75315   4.577   1.935   0.904 -0.0228  0.9202  0.7404
  558MOL0     H75316   3.925   2.310   0.552 -3.3472  1.7868  1.0246
  558MOL0     H75317   3.686   2.261   0.580 -0.3324 -0.4004 -1.6307
  558MOL0     H75318   3.408   2.212   1.032  2.9312 -1.7873 -1.9287
  558MOL0     H75319   3.163   2.182   1.091  2.0571  1.3404  0.1923
  558MOL0     H75320   2.930   1.914   0.803  0.4455  0.6945 -1.0856
  558MOL0     H75321   2.919   1.826   0.945  2.0572  0.4111  0.9406
  558MOL0     H75322   2.727   2.066   0.894 -2.0428 -0.9430 -3.3890
  558MOL0     H75323   2.701   1.932   1.016 -1.2393  0.5259 -0.1167
  558MOL0     H75324   2.673   1.778   0.841 -0.4400 -0.8902 -1.9820
  558MOL0     H75325   2.706   1.906   0.712 -0.4217  4.6945  0.1570
  558MOL0     H75326   2.504   2.030   0.802  1.4529  0.3388  1.4818
  558MOL0     H75327   2.470   1.860   0.875  0.1180 -1.2600 -0.0926
  558MOL0     H75328   2.464   1.804   0.448  1.6671 -5.2429  0.1573
  558MOL0     H75329   3.110   1.953   0.729 -0.8370 -0.3980 -0.0216
  558MOL0     H75330   3.350   1.992   0.688  0.8521  2.4181 -0.7824
  559MOL0     O75331   1.842  11.001   3.981 -0.1320 -0.4194 -0.1582
  559MOL0     C75332   1.957  10.979   4.015  0.1322  1.0007 -0.8006
  559MOL0     O75333   1.996  10.871   4.087 -0.4798  0.1846  0.2068
  559MOL0     C75334   1.903  10.778   4.107 -0.0855  0.1064  0.0366
  559MOL0     C75335   1.878  10.734   4.241  0.5515 -0.5513  0.5216
  559MOL0     C75336   1.780  10.640   4.274 -0.2840  0.6790  0.5369
  559MOL0     C75337   1.705  10.591   4.170  0.8463  0.0817  0.0601
  559MOL0     O75338   1.608  10.500   4.210 -0.2740  0.1942  0.5276
  559MOL0     C75339   1.485  10.517   4.134 -0.0303 -0.9031  0.2306
  559MOL0     C75340   1.356  10.502   4.213 -0.6034  0.6575  0.2745
  559MOL0     C75341   1.331  10.588   4.338 -0.6278 -0.4494  0.3968
  559MOL0     C75342   1.383  10.736   4.306  1.2293 -0.5560  0.0662
  559MOL0     C75343   1.347  10.846   4.414  0.1257  0.5683  0.5769
  559MOL0     C75344   1.447  10.961   4.405  0.0136  0.5912 -0.3294
  559MOL0     C75345   1.591  10.921   4.454  0.7378  0.0299 -0.6338
  559MOL0     C75346   1.632  11.011   4.576 -0.6238 -0.5600 -0.2428
  559MOL0     N75347   1.764  10.981   4.635 -0.3668 -0.9358 -0.5234
  559MOL0     C75348   1.796  11.019   4.762  0.1610  0.2969 -0.7241
  559MOL0     C75349   1.931  11.024   4.769  0.1427 -0.4256 -0.3008
  559MOL0     C75350   1.999  11.067   4.895  0.3792  0.3039 -0.3040
  559MOL0     C75351   1.978  10.969   5.018  1.0400 -0.1822 -0.0380
  559MOL0     C75352   2.033  11.024   5.155  0.5652 -0.1741  0.2118
  559MOL0     C75353   2.179  11.043   5.154  0.1615  0.0650 -0.4204
  559MOL0     O75354   2.219  11.101   5.282 -0.4473  0.2376 -0.1777
  559MOL0     C75355   2.354  11.137   5.297 -0.5101 -0.2238 -0.0628
  559MOL0     C75356   2.444  11.166   5.195  0.0117 -0.2723  0.9660
  559MOL0     C75357   2.576  11.208   5.212  0.0932 -0.1564 -0.0120
  559MOL0     C75358   2.656  11.237   5.097 -0.0207 -0.6065  1.0328
  559MOL0     C75359   2.624  11.223   5.346  0.3894  0.2466  0.4151
  559MOL0     C75360   2.765  11.253   5.382  0.0867 -0.2035  0.4551
  559MOL0     O75361   2.786  11.243   5.515 -0.7115  0.1957 -0.3867
  559MOL0     C75362   2.920  11.226   5.552 -0.3888  0.4055  1.1379
  559MOL0     C75363   3.024  11.317   5.528  0.6015  0.0935  0.3404
  559MOL0     C75364   3.153  11.298   5.585 -0.0722  0.2037  0.2247
  559MOL0     C75365   3.182  11.198   5.681  1.1456  0.6541  0.0706
  559MOL0     O75366   3.310  11.174   5.724  0.4571  0.1701 -0.0295
  559MOL0     C75367   3.382  11.285   5.780 -0.3622 -0.2606 -0.1950
  559MOL0     C75368   3.492  11.246   5.882 -0.7601  0.2359 -0.7347
  559MOL0     C75369   3.603  11.152   5.813  0.1957 -0.2865  0.2017
  559MOL0     C75370   3.740  11.172   5.875  0.1953 -0.0064  0.1749
  559MOL0     C75371   3.838  11.083   5.808  0.3901  0.4625 -0.2139
  559MOL0     C75372   3.982  11.089   5.856  0.3303  0.3305  0.0362
  559MOL0     C75373   4.018  11.026   5.988  0.4168 -0.3614  0.2475
  559MOL0     C75374   4.155  11.065   6.048  0.9162 -0.0095 -0.7834
  559MOL0    Cl75375   4.148  11.234   6.086  0.2916  0.1059 -0.3481
  559MOL0     C75376   3.084  11.095   5.697 -0.2652 -1.1898 -0.1525
  559MOL0     C75377   2.960  11.120   5.645  0.1417  0.7882  0.9099
  559MOL0     O75378   2.847  11.271   5.297  0.2126 -1.1072 -0.1766
  559MOL0     C75379   2.523  11.207   5.450  0.8983  0.6015 -0.4857
  559MOL0     C75380   2.387  11.167   5.429 -0.7851  0.0343 -1.1539
  559MOL0     N75381   1.984  10.978   4.654 -0.7323 -0.5763  0.6301
  559MOL0     N75382   1.886  10.957   4.571  0.4299  0.6456  0.0823
  559MOL0     C75383   1.726  10.628   4.042 -0.1604 -0.7781 -0.3029
  559MOL0     C75384   1.829  10.712   4.003  1.0306  0.3481 -0.7416
  559MOL0     C75385   2.069  11.076   3.979  0.2574 -0.0348  0.1727
  559MOL0     C75386   2.054  11.167   3.871  0.0024 -0.9441 -0.5064
  559MOL0     C75387   2.148  11.263   3.845  1.0579 -0.2978  0.0300
  559MOL0     C75388   2.268  11.269   3.913  0.4316  0.1437 -0.9473
  559MOL0     O75389   2.369  11.355   3.889  0.0934  0.0046  0.3849
  559MOL0     C75390   2.417  11.350   3.752  0.3370 -0.5799 -0.3668
  559MOL0     C75391   2.558  11.418   3.723 -0.4694  0.2476 -0.2803
  559MOL0     C75392   2.681  11.320   3.749 -0.2614  1.1870 -0.0760
  559MOL0     C75393   2.692  11.289   3.904 -0.3729 -0.8332  0.4475
  559MOL0     C75394   2.823  11.244   3.955  0.2457  0.2539  0.3707
  559MOL0     C75395   2.930  11.201   3.989  0.1049  0.8737 -0.7625
  559MOL0     C75396   2.298  11.168   4.004  0.6880  0.6089 -0.8798
  559MOL0     C75397   2.200  11.075   4.040  0.5332  0.0701  0.0621
  559MOL0     H75398   1.930  10.779   4.325 -0.3482 -0.4058  1.0131
  559MOL0     H75399   1.766  10.592   4.370  0.9658  0.1282  0.4584
  559MOL0     H75400   1.486  10.621   4.100  0.4996 -0.5501  1.2797
  559MOL0     H75401   1.476  10.447   4.050 -1.2834  0.0392 -0.4582
  559MOL0     H75402   1.269  10.511   4.147  0.0475 -1.0149 -0.8486
  559MOL0     H75403   1.358  10.395   4.232 -0.7002  0.2013 -2.0343
  559MOL0     H75404   1.225  10.575   4.359 -0.7686 -2.4807 -1.2409
  559MOL0     H75405   1.382  10.554   4.428 -2.2614 -0.2923  1.4331
  559MOL0     H75406   1.492  10.734   4.297  1.7188  3.0881  2.7261
  559MOL0     H75407   1.330  10.766   4.215 -0.8587 -0.4348  1.2663
  559MOL0     H75408   1.244  10.875   4.393  0.1075  0.0031 -0.1200
  559MOL0     H75409   1.345  10.806   4.516 -4.2434 -0.0246  0.4530
  559MOL0     H75410   1.451  10.998   4.302 -3.4083  0.5809 -0.5725
  559MOL0     H75411   1.416  11.038   4.476  1.1194 -0.7625  1.7159
  559MOL0     H75412   1.600  10.817   4.486  2.0217 -0.7156 -3.1569
  559MOL0     H75413   1.656  10.939   4.368 -1.8390 -0.1041 -2.7359
  559MOL0     H75414   1.561  11.009   4.659  1.5276  1.3185  1.8223
  559MOL0     H75415   1.635  11.114   4.540  0.7075  0.4230  2.3852
  559MOL0     H75416   1.726  11.036   4.844 -1.0342 -1.2200 -1.3670
  559MOL0     H75417   2.105  11.079   4.870  0.3294  0.5716 -0.3823
  559MOL0     H75418   1.961  11.169   4.909 -1.6317 -0.4044 -0.3059
  559MOL0     H75419   2.016  10.872   4.983 -1.1755 -1.8464  1.8850
  559MOL0     H75420   1.876  10.940   5.046  1.3997  0.5984  2.2211
  559MOL0     H75421   2.014  10.959   5.241  2.2653 -0.5252  0.3462
  559MOL0     H75422   1.987  11.120   5.181 -1.5211 -1.2503  0.7416
  559MOL0     H75423   2.202  11.103   5.066 -2.0751  0.0778 -1.0308
  559MOL0     H75424   2.227  10.945   5.145  1.5562  0.8770 -2.5987
  559MOL0     H75425   2.416  11.152   5.092  2.0350 -2.6535  0.6409
  559MOL0     H75426   2.695  11.338   5.087 -4.4517  1.3202  1.1266
  559MOL0     H75427   2.743  11.170   5.098 -0.4791 -1.3140 -1.1641
  559MOL0     H75428   2.593  11.223   5.009  2.1474  0.1960 -0.7378
  559MOL0     H75429   3.013  11.405   5.466 -0.0236  0.1905  0.5770
  559MOL0     H75430   3.235  11.367   5.567  0.3481 -0.1380  0.7987
  559MOL0     H75431   3.420  11.350   5.700  1.0070 -1.4145 -0.5046
  559MOL0     H75432   3.308  11.356   5.819  0.4143  0.8463 -0.6653
  559MOL0     H75433   3.554  11.326   5.922  2.0386 -1.8457 -0.5675
  559MOL0     H75434   3.445  11.201   5.970 -0.6905  0.4352 -0.5949
  559MOL0     H75435   3.609  11.161   5.704  2.3560 -2.6428  0.0580
  559MOL0     H75436   3.573  11.048   5.826 -0.3869 -0.3334 -1.3298
  559MOL0     H75437   3.758  11.279   5.862 -0.6997  0.6672  3.5321
  559MOL0     H75438   3.739  11.155   5.983 -0.6808 -0.3678  0.1209
  559MOL0     H75439   3.822  11.109   5.703  0.0024  1.4827  0.0833
  559MOL0     H75440   3.799  10.982   5.821 -1.9038  1.3134  0.0777
  559MOL0     H75441   4.040  11.036   5.780 -0.1848 -0.2614  0.0544
  559MOL0     H75442   4.016  11.193   5.854  1.7446 -0.1206 -0.6314
  559MOL0     H75443   4.023  10.918   5.970 -0.9908 -0.4736  0.4854
  559MOL0     H75444   3.954  11.041   6.075  1.9099 -1.6526  1.6364
  559MOL0     H75445   4.241  11.058   5.981 -0.2738 -0.0928 -2.3558
  559MOL0     H75446   4.179  11.006   6.137  0.7658 -0.3473 -0.9635
  559MOL0     H75447   3.099  11.003   5.752 -1.1074 -2.6030 -2.1734
  559MOL0     H75448   2.883  11.049   5.676 -0.3964  1.1144  0.3516
  559MOL0     H75449   2.543  11.219   5.556  3.9933 -0.3412 -0.8634
  559MOL0     H75450   2.320  11.157   5.514  2.7322  1.3132  2.0661
  559MOL0     H75451   1.668  10.579   3.965 -1.2344  0.1659 -0.1281
  559MOL0     H75452   1.846  10.731   3.897  0.3268  1.3603 -0.6889
  559MOL0     H75453   1.963  11.168   3.811  0.5525 -0.8533 -1.3590
  559MOL0     H75454   2.126  11.342   3.773  0.8422 -1.3504 -1.0813
  559MOL0     H75455   2.425  11.243   3.733 -0.6036 -0.4895 -1.4141
  559MOL0     H75456   2.346  11.384   3.676  1.3041  1.9625 -0.2292
  559MOL0     H75457   2.584  11.514   3.769  0.2438 -0.2426  0.3507
  559MOL0     H75458   2.564  11.429   3.614  0.0133  1.4258 -0.1550
  559MOL0     H75459   2.775  11.369   3.717 -0.3860  0.3506 -1.8556
  559MOL0     H75460   2.674  11.227   3.692  2.0545  0.7583  0.2436
  559MOL0     H75461   2.608  11.225   3.931 -1.2778  0.1233 -0.0163
  559MOL0     H75462   2.685  11.390   3.947 -0.0050 -1.6561  2.5664
  559MOL0     H75463   3.020  11.169   4.037 -0.8165  0.8700  1.0814
  559MOL0     H75464   2.395  11.174   4.054 -0.5738 -0.0378  1.8315
  559MOL0     H75465   2.221  10.997   4.112 -1.6346 -1.7507 -1.1309
  560MOL0     O75466   2.654   4.676   8.057  0.7362  0.1584 -0.0552
  560MOL0     C75467   2.689   4.700   8.173 -0.6419  0.8518 -0.7219
  560MOL0     O75468   2.631   4.794   8.265  0.6403 -0.1534 -0.3224
  560MOL0     C75469   2.531   4.866   8.218  0.7775 -0.6791  0.7626
  560MOL0     C75470   2.412   4.810   8.176 -0.5461  0.7270 -0.4075
  560MOL0     C75471   2.306   4.886   8.130  0.7471  0.1259  0.7389
  560MOL0     C75472   2.315   5.025   8.126 -0.6559 -0.0100 -0.8711
  560MOL0     O75473   2.204   5.095   8.095 -0.2942 -0.3257 -0.4324
  560MOL0     C75474   2.215   5.201   8.004  0.2592 -0.6421  0.2762
  560MOL0     C75475   2.193   5.331   8.078  0.1350 -0.6216 -0.3370
  560MOL0     C75476   2.044   5.351   8.110  0.1751  0.4663 -0.4554
  560MOL0     C75477   2.006   5.497   8.128  0.4887  0.3151 -0.8437
  560MOL0     C75478   1.857   5.512   8.173  0.0533  0.0290  0.2894
  560MOL0     C75479   1.801   5.647   8.147 -0.8275 -0.6570  1.1590
  560MOL0     C75480   1.670   5.676   8.215  0.1935 -0.3222 -0.5185
  560MOL0     C75481   1.565   5.590   8.142  0.7359 -0.0573  0.1058
  560MOL0     N75482   1.424   5.606   8.187 -0.2779  0.1179  1.1762
  560MOL0     C75483   1.304   5.583   8.108 -0.3803  0.6803 -0.0820
  560MOL0     C75484   1.201   5.573   8.193  0.5748 -0.3882  0.3648
  560MOL0     C75485   1.052   5.548   8.159 -0.2125 -0.4645  0.1371
  560MOL0     C75486   0.959   5.665   8.185  0.5427  0.1695  0.0310
  560MOL0     C75487   0.994   5.782   8.095 -0.7877 -0.8088  0.2190
  560MOL0     C75488   0.902   5.916   8.113  0.3742  0.1835 -0.3703
  560MOL0     O75489   0.956   6.015   8.031 -0.6480 -0.1982  0.4714
  560MOL0     C75490   1.038   6.104   8.097  0.2191  0.4256 -0.1770
  560MOL0     C75491   1.175   6.084   8.087 -0.9105 -0.3424  0.5797
  560MOL0     C75492   1.264   6.169   8.159  0.8395  0.1831  0.1021
  560MOL0     C75493   1.408   6.151   8.143  0.6210 -0.0261  0.1710
  560MOL0     C75494   1.211   6.263   8.249 -0.1245  0.3198 -1.1269
  560MOL0     C75495   1.291   6.353   8.337  0.1921  0.0784 -0.3513
  560MOL0     O75496   1.255   6.475   8.339 -0.0536  1.0115  0.3674
  560MOL0     C75497   1.346   6.567   8.367 -0.0084 -0.1289 -0.1423
  560MOL0     C75498   1.457   6.598   8.277 -0.1448  0.3402 -0.0113
  560MOL0     C75499   1.529   6.717   8.305 -0.6254  0.7363  0.3251
  560MOL0     C75500   1.520   6.793   8.429 -0.1023  0.9118  0.5698
  560MOL0     O75501   1.607   6.893   8.459 -0.3073 -0.6168  0.1809
  560MOL0     C75502   1.745   6.858   8.488  0.6455  0.0922 -0.4089
  560MOL0     C75503   1.767   6.877   8.638 -0.1839 -0.1641 -0.5010
  560MOL0     C75504   1.913   6.860   8.680  0.2297  0.2544  0.8338
  560MOL0     C75505   2.006   6.951   8.600  0.6106 -0.7519  0.3769
  560MOL0     C75506   2.148   6.918   8.626  0.3288  0.5514  0.2390
  560MOL0     C75507   2.250   6.999   8.543  0.1549 -0.3246 -0.8603
  560MOL0     C75508   2.391   6.957   8.569  0.6247  0.3398 -0.8652
  560MOL0     C75509   2.501   7.031   8.490  0.3129  0.0458  0.4727
  560MOL0    Cl75510   2.645   6.930   8.509 -0.3231 -0.1921  0.2527
  560MOL0     C75511   1.417   6.756   8.500  1.0961 -0.5812 -0.5354
  560MOL0     C75512   1.321   6.649   8.473 -0.5592 -0.2684 -0.2637
  560MOL0     O75513   1.384   6.301   8.406  0.6555  0.5846  0.1129
  560MOL0     C75514   1.074   6.282   8.252 -0.3897 -0.0523  0.5521
  560MOL0     C75515   0.987   6.199   8.176 -0.0257  0.1873  0.3920
  560MOL0     N75516   1.256   5.602   8.318  0.6786 -0.4787  0.6599
  560MOL0     N75517   1.386   5.610   8.314 -0.2849  0.7271 -0.7216
  560MOL0     C75518   2.433   5.084   8.171  0.1766 -0.4146  0.2771
  560MOL0     C75519   2.544   5.006   8.211 -0.5151 -0.5691  0.3186
  560MOL0     C75520   2.815   4.631   8.205 -0.6245  0.0474 -0.7451
  560MOL0     C75521   2.850   4.631   8.341 -0.3960  0.1975 -0.1057
  560MOL0     C75522   2.972   4.574   8.377 -0.6751  0.3040 -0.6307
  560MOL0     C75523   3.052   4.515   8.282  0.4569 -0.0712  0.4012
  560MOL0     O75524   3.177   4.466   8.311 -0.0328  0.1138 -0.3030
  560MOL0     C75525   3.258   4.541   8.397  0.0962 -0.2891  0.2438
  560MOL0     C75526   3.391   4.574   8.348 -0.0075 -0.5944 -0.0539
  560MOL0     C75527   3.388   4.684   8.238  0.0079 -0.1789 -0.4980
  560MOL0     C75528   3.528   4.701   8.189 -0.9879  0.2336 -0.0260
  560MOL0     C75529   3.541   4.823   8.112 -0.0973 -0.2672  0.2282
  560MOL0     C75530   3.562   4.913   8.032 -0.4578  0.2229  0.6305
  560MOL0     C75531   3.019   4.511   8.150  0.7766  0.3791 -0.5424
  560MOL0     C75532   2.900   4.566   8.109 -0.4182  0.1618  0.0338
  560MOL0     H75533   2.403   4.702   8.165 -1.5705  0.9498 -2.4346
  560MOL0     H75534   2.227   4.815   8.110 -0.2287  1.5346 -0.5539
  560MOL0     H75535   2.312   5.199   7.953 -0.7777  0.1564 -1.8186
  560MOL0     H75536   2.139   5.189   7.927 -0.0130  1.7206  0.1062
  560MOL0     H75537   2.256   5.329   8.167  0.6159  0.8101 -0.6094
  560MOL0     H75538   2.223   5.420   8.021  1.5007 -0.7764  0.1237
  560MOL0     H75539   1.977   5.303   8.038 -2.3607 -0.4960  2.3395
  560MOL0     H75540   2.024   5.288   8.198  0.3250 -0.4780 -1.0794
  560MOL0     H75541   2.065   5.562   8.193 -0.5877 -1.5260  2.1762
  560MOL0     H75542   2.023   5.550   8.034  2.1586  2.7858  0.7519
  560MOL0     H75543   1.791   5.443   8.119 -3.1297  3.4536 -0.6132
  560MOL0     H75544   1.851   5.479   8.277 -0.1404 -3.0327 -0.5832
  560MOL0     H75545   1.879   5.716   8.180  0.3330 -3.0035  3.7217
  560MOL0     H75546   1.793   5.669   8.040  2.8296  0.3443  0.9551
  560MOL0     H75547   1.670   5.644   8.319  0.9298 -0.6780 -0.6256
  560MOL0     H75548   1.654   5.785   8.217  0.8478 -0.2233 -0.4632
  560MOL0     H75549   1.579   5.481   8.142 -2.9771 -0.6652  0.4674
  560MOL0     H75550   1.570   5.628   8.039  0.3222  0.8335  0.4099
  560MOL0     H75551   1.304   5.581   8.000 -1.4727  2.8808 -0.1664
  560MOL0     H75552   1.038   5.513   8.056 -1.2375 -1.1364  0.4947
  560MOL0     H75553   1.021   5.465   8.223  2.4473 -3.8911 -2.5644
  560MOL0     H75554   0.975   5.693   8.290 -2.7870 -0.8119  0.9394
  560MOL0     H75555   0.856   5.635   8.162  1.1937 -0.9371 -1.5938
  560MOL0     H75556   0.995   5.760   7.988 -0.8227 -0.1460  0.0746
  560MOL0     H75557   1.098   5.810   8.111 -0.8771 -0.2936 -0.0467
  560MOL0     H75558   0.906   5.942   8.219  2.6834 -1.4660  0.0299
  560MOL0     H75559   0.801   5.906   8.073  0.1875  1.0660 -0.1274
  560MOL0     H75560   1.216   6.006   8.024 -0.7885 -1.5593  2.0980
  560MOL0     H75561   1.448   6.252   8.135  0.9306  0.0216  1.8518
  560MOL0     H75562   1.441   6.087   8.226 -2.2048 -1.0239  0.6738
  560MOL0     H75563   1.418   6.101   8.047  0.8382 -1.6951  1.0238
  560MOL0     H75564   1.471   6.539   8.187  1.1729 -1.0025  1.0251
  560MOL0     H75565   1.604   6.745   8.232 -0.6383 -2.5680 -1.1558
  560MOL0     H75566   1.775   6.756   8.460  0.0061  0.2018 -1.5416
  560MOL0     H75567   1.799   6.921   8.417  0.6542 -3.0188 -3.3789
  560MOL0     H75568   1.724   6.971   8.673 -2.8677 -1.9346  1.2681
  560MOL0     H75569   1.706   6.803   8.690  3.0687 -2.2568  0.6722
  560MOL0     H75570   1.929   6.754   8.659 -2.6941 -0.2836  0.9396
  560MOL0     H75571   1.914   6.877   8.788 -1.3986 -1.1125  1.1068
  560MOL0     H75572   1.995   6.954   8.491  2.1269  1.8226  0.2194
  560MOL0     H75573   1.978   7.051   8.632 -1.0039 -1.4391  1.2226
  560MOL0     H75574   2.163   6.812   8.602 -2.7640  0.1731 -0.4426
  560MOL0     H75575   2.166   6.930   8.733  0.3827 -0.0825  0.3027
  560MOL0     H75576   2.229   6.983   8.437  1.1185 -1.3113 -0.9149
  560MOL0     H75577   2.241   7.105   8.568  0.3898 -0.5926  0.4057
  560MOL0     H75578   2.404   6.853   8.537 -2.9584 -0.5559  0.1311
  560MOL0     H75579   2.400   6.961   8.677 -4.6149  0.2167 -0.1948
  560MOL0     H75580   2.510   7.128   8.540  1.4460  0.7773 -1.0610
  560MOL0     H75581   2.470   7.033   8.385 -0.6327 -4.0369  0.5035
  560MOL0     H75582   1.400   6.818   8.588 -0.2034  2.9322 -3.0316
  560MOL0     H75583   1.227   6.647   8.528  1.4838 -0.3481  3.5195
  560MOL0     H75584   1.025   6.360   8.310 -1.8008  1.1932 -2.1036
  560MOL0     H75585   0.881   6.211   8.193 -0.2441  0.4140 -1.0054
  560MOL0     H75586   2.438   5.192   8.169  1.3680 -0.4654 -0.6360
  560MOL0     H75587   2.637   5.045   8.250  0.0880 -1.0447 -0.6159
  560MOL0     H75588   2.795   4.689   8.414  0.9549  0.4636  0.7414
  560MOL0     H75589   2.993   4.581   8.483  0.7586  0.5634 -0.9165
  560MOL0     H75590   3.208   4.636   8.419 -1.8281 -0.7141 -2.0232
  560MOL0     H75591   3.257   4.497   8.497  0.3419  1.2717  0.9713
  560MOL0     H75592   3.446   4.479   8.338 -1.3606 -1.6690  1.8838
  560MOL0     H75593   3.444   4.629   8.426 -1.5863  1.3168 -0.2572
  560MOL0     H75594   3.338   4.777   8.265 -2.0118 -0.5237 -2.7506
  560MOL0     H75595   3.322   4.648   8.158  0.9930 -5.2158  0.5694
  560MOL0     H75596   3.556   4.626   8.114 -0.3078  1.0987 -0.6719
  560MOL0     H75597   3.602   4.712   8.268 -0.0790  1.4090 -0.9881
  560MOL0     H75598   3.586   4.994   7.965 -2.5923  0.0505 -0.4309
  560MOL0     H75599   3.090   4.475   8.076  1.1540  1.3674 -0.6800
  560MOL0     H75600   2.878   4.562   8.003  1.4288  0.4735 -0.4049
  561MOL0     O75601   4.605   2.773   4.206 -0.2665 -0.6979 -0.4041
  561MOL0     C75602   4.564   2.866   4.279 -0.5331  0.2204  0.4691
  561MOL0     O75603   4.444   2.864   4.337  0.0066  0.0794 -0.2166
  561MOL0     C75604   4.360   2.756   4.320  0.3480  0.4957 -0.6034
  561MOL0     C75605   4.391   2.620   4.309 -0.5064  0.0516  0.0479
  561MOL0     C75606   4.297   2.520   4.279  0.3533 -0.3310 -0.3330
  561MOL0     C75607   4.158   2.559   4.286  0.4217 -0.7146  1.1145
  561MOL0     O75608   4.052   2.473   4.269 -0.1675 -0.6712 -0.5645
  561MOL0     C75609   4.076   2.343   4.237 -0.1878 -0.1890  0.0721
  561MOL0     C75610   3.944   2.261   4.232  0.0584  0.8950 -0.4997
  561MOL0     C75611   3.858   2.274   4.361 -0.6997  0.0473 -0.1219
  561MOL0     C75612   3.880   2.163   4.461 -0.9283  0.5894  0.2894
  561MOL0     C75613   3.792   2.166   4.589 -0.0042 -0.8355 -0.0328
  561MOL0     C75614   3.832   2.060   4.697  0.6137 -0.5138 -0.4011
  561MOL0     C75615   3.737   2.067   4.814 -0.3206  0.4985  0.3298
  561MOL0     C75616   3.790   2.002   4.945  0.7818  0.0655 -0.2713
  561MOL0     N75617   3.792   1.860   4.921  0.3252 -0.0179  0.0542
  561MOL0     C75618   3.708   1.793   4.829  0.4161 -0.1058 -1.1597
  561MOL0     C75619   3.735   1.662   4.855 -0.5574  0.1267  0.0144
  561MOL0     C75620   3.661   1.547   4.793 -0.1255 -0.1247  0.2576
  561MOL0     C75621   3.502   1.554   4.823 -1.2224 -0.3414 -0.7250
  561MOL0     C75622   3.431   1.421   4.782 -0.8824  0.5593 -0.3734
  561MOL0     C75623   3.280   1.435   4.814  0.8673 -0.2250  0.2628
  561MOL0     O75624   3.269   1.409   4.950 -1.0862  0.3096 -0.1477
  561MOL0     C75625   3.149   1.408   5.013 -0.2502  0.5194 -0.3091
  561MOL0     C75626   3.156   1.352   5.140  0.1934 -0.0271 -0.1811
  561MOL0     C75627   3.042   1.314   5.214  0.3162  0.3924  0.5250
  561MOL0     C75628   3.058   1.229   5.340 -0.2022 -0.1935 -0.3718
  561MOL0     C75629   2.912   1.359   5.161  0.2012  0.4449 -0.1715
  561MOL0     C75630   2.777   1.314   5.212 -0.2698  1.0998 -1.1905
  561MOL0     O75631   2.675   1.364   5.139 -0.0313  0.5498 -0.2643
  561MOL0     C75632   2.547   1.327   5.177  0.5015 -0.2906  0.6939
  561MOL0     C75633   2.463   1.274   5.077  0.8774  0.1682  0.2047
  561MOL0     C75634   2.333   1.247   5.099  0.6434 -0.6979  0.6004
  561MOL0     C75635   2.282   1.235   5.233 -0.1032  0.2969 -0.5868
  561MOL0     O75636   2.158   1.187   5.272  0.2627  0.0445 -0.6464
  561MOL0     C75637   2.044   1.192   5.189  1.0409  0.5477  0.0754
  561MOL0     C75638   1.998   1.338   5.168 -0.7667 -0.1245 -1.8685
  561MOL0     C75639   1.860   1.360   5.109  0.5435  1.0345 -0.4903
  561MOL0     C75640   1.821   1.510   5.107 -0.7199  1.4225  0.4717
  561MOL0     C75641   1.697   1.547   5.032  0.3624  0.3756  0.1233
  561MOL0     C75642   1.581   1.453   5.038  0.4993  0.0405 -0.0697
  561MOL0     C75643   1.510   1.451   5.178 -0.8372 -0.0177 -0.0938
  561MOL0     C75644   1.399   1.349   5.174 -0.1494 -1.2954 -0.2865
  561MOL0    Cl75645   1.461   1.179   5.194 -0.1494  0.1420  0.1849
  561MOL0     C75646   2.369   1.277   5.335  0.3349 -0.6039  0.4005
  561MOL0     C75647   2.498   1.316   5.305 -0.2842 -0.1180 -0.2099
  561MOL0     O75648   2.771   1.215   5.282  0.2149 -0.9640 -0.2529
  561MOL0     C75649   2.910   1.432   5.038  0.4291  0.2619  0.4161
  561MOL0     C75650   3.027   1.450   4.962  0.5183 -1.1808 -0.6181
  561MOL0     N75651   3.829   1.661   4.955 -0.1601 -0.1134 -0.3982
  561MOL0     N75652   3.864   1.773   4.997 -0.2052  0.0355  0.9800
  561MOL0     C75653   4.126   2.692   4.327  0.5620  0.2078  0.2735
  561MOL0     C75654   4.226   2.788   4.338 -0.2013  0.2424 -0.0126
  561MOL0     C75655   4.669   2.974   4.314  0.7247  1.7030 -0.2050
  561MOL0     C75656   4.620   3.097   4.353  1.0231 -0.8361  1.0232
  561MOL0     C75657   4.708   3.203   4.382 -1.0676  0.5208 -0.7927
  561MOL0     C75658   4.851   3.186   4.377  0.0738  0.8908  0.0432
  561MOL0     O75659   4.922   3.293   4.404 -0.1349 -0.1905  0.4903
  561MOL0     C75660   5.069   3.287   4.418 -0.6667 -0.1783  0.5781
  561MOL0     C75661   5.133   3.414   4.379 -0.4859 -0.8330  0.3129
  561MOL0     C75662   5.285   3.391   4.394 -0.2632  0.0697  0.4199
  561MOL0     C75663   5.367   3.519   4.360  0.0139  0.4665  0.2851
  561MOL0     C75664   5.512   3.514   4.394  1.0177 -1.0587  0.4935
  561MOL0     C75665   5.631   3.511   4.403  0.1755 -0.1300 -0.4100
  561MOL0     C75666   4.896   3.060   4.341 -0.2497 -0.2917 -0.0339
  561MOL0     C75667   4.810   2.950   4.316 -0.3131 -0.2896 -0.5374
  561MOL0     H75668   4.493   2.583   4.311 -1.7934 -4.5406 -3.5052
  561MOL0     H75669   4.327   2.416   4.271 -0.2169 -0.4440 -1.0742
  561MOL0     H75670   4.112   2.346   4.134 -1.3068 -1.4203 -0.3834
  561MOL0     H75671   4.150   2.303   4.307  3.4747 -1.0500 -3.9203
  561MOL0     H75672   3.881   2.311   4.158  0.6061  0.3593 -1.3400
  561MOL0     H75673   3.970   2.159   4.202 -1.2408  0.6515 -0.8702
  561MOL0     H75674   3.885   2.365   4.417 -1.3364 -0.6133  1.3256
  561MOL0     H75675   3.753   2.288   4.334 -1.4723 -1.1486  1.9949
  561MOL0     H75676   3.883   2.063   4.418 -2.5492  1.3249 -1.7037
  561MOL0     H75677   3.986   2.165   4.486 -1.1975 -2.5853  2.1322
  561MOL0     H75678   3.785   2.262   4.641 -1.3361 -0.5742 -0.6564
  561MOL0     H75679   3.687   2.146   4.564 -1.2359  1.5022  2.6485
  561MOL0     H75680   3.815   1.960   4.656 -3.7386  0.1891 -0.8751
  561MOL0     H75681   3.935   2.081   4.727  0.1302  2.6193 -0.5488
  561MOL0     H75682   3.700   2.168   4.835  0.7645  0.6953  1.4115
  561MOL0     H75683   3.637   2.031   4.788 -0.6107  0.4425  1.4802
  561MOL0     H75684   3.717   2.026   5.023 -1.3262 -0.9017 -1.8386
  561MOL0     H75685   3.893   2.036   4.960  2.0170 -1.8722 -3.3843
  561MOL0     H75686   3.630   1.835   4.767 -2.2087  0.3724  2.1503
  561MOL0     H75687   3.680   1.568   4.687  0.7673  0.8189  0.5898
  561MOL0     H75688   3.697   1.448   4.822 -0.4323 -0.2098  0.3469
  561MOL0     H75689   3.469   1.640   4.764  0.6786  0.4050 -0.7572
  561MOL0     H75690   3.490   1.581   4.928  1.2738 -1.3562 -0.1004
  561MOL0     H75691   3.471   1.329   4.824  2.8636  1.5579 -1.4185
  561MOL0     H75692   3.432   1.394   4.676  2.6725 -2.7677  0.3186
  561MOL0     H75693   3.224   1.361   4.756 -3.3204  2.5036  0.3959
  561MOL0     H75694   3.255   1.540   4.792 -3.6634 -1.1547 -0.0494
  561MOL0     H75695   3.255   1.321   5.173  0.1849  1.2263  1.1548
  561MOL0     H75696   2.990   1.265   5.418  1.2009 -0.4468  1.0404
  561MOL0     H75697   3.029   1.125   5.325 -1.4043  0.2988 -1.6513
  561MOL0     H75698   3.160   1.233   5.379 -0.3211  2.2797 -0.1526
  561MOL0     H75699   2.508   1.277   4.978  3.4529 -0.5808  1.2464
  561MOL0     H75700   2.267   1.219   5.017  1.2729 -0.6080  0.0602
  561MOL0     H75701   2.058   1.141   5.093  0.8410  2.3722 -0.9889
  561MOL0     H75702   1.962   1.144   5.242  1.5601 -0.6417 -0.1740
  561MOL0     H75703   1.995   1.381   5.268  1.4856 -4.3316  0.2770
  561MOL0     H75704   2.080   1.380   5.108 -0.3243 -0.3175 -1.4110
  561MOL0     H75705   1.788   1.296   5.160 -1.0265  0.4190 -3.2728
  561MOL0     H75706   1.871   1.330   5.004  0.9760 -0.5161 -0.0255
  561MOL0     H75707   1.804   1.529   5.214  1.8416  1.7936  0.8655
  561MOL0     H75708   1.905   1.573   5.078 -1.8687  2.6648 -0.2613
  561MOL0     H75709   1.733   1.566   4.931  1.2691  2.4618  0.7863
  561MOL0     H75710   1.659   1.640   5.076 -1.6995 -1.4693  2.5988
  561MOL0     H75711   1.503   1.490   4.971  2.2879 -2.2943 -3.7689
  561MOL0     H75712   1.606   1.356   4.993 -2.0070  0.4920 -2.7159
  561MOL0     H75713   1.462   1.548   5.193  0.0400  0.0560  2.7447
  561MOL0     H75714   1.572   1.426   5.265 -0.4282 -2.0443 -0.9073
  561MOL0     H75715   1.342   1.352   5.080 -1.7465  0.6763  0.6631
  561MOL0     H75716   1.322   1.371   5.250 -0.0889 -0.2245 -0.5178
  561MOL0     H75717   2.326   1.283   5.434  0.1395  1.3519  0.2446
  561MOL0     H75718   2.556   1.354   5.388  2.9480  0.5703 -2.5784
  561MOL0     H75719   2.821   1.459   4.983  1.0217 -1.9933 -1.8379
  561MOL0     H75720   3.033   1.481   4.858  0.8446 -0.3662 -0.3591
  561MOL0     H75721   4.026   2.732   4.339  0.1290 -0.6353 -0.4440
  561MOL0     H75722   4.196   2.890   4.357 -1.4392 -0.6511  3.5240
  561MOL0     H75723   4.511   3.105   4.355  0.5221 -4.9049 -0.1682
  561MOL0     H75724   4.664   3.301   4.399 -1.9928 -0.3551  2.6285
  561MOL0     H75725   5.094   3.273   4.524 -1.5056  3.0448  1.3145
  561MOL0     H75726   5.109   3.210   4.352  1.6463  0.0231  1.6655
  561MOL0     H75727   5.089   3.494   4.439  0.7686  0.1027  0.0260
  561MOL0     H75728   5.120   3.445   4.275  2.4737  0.8920  0.3561
  561MOL0     H75729   5.318   3.313   4.325  1.5982 -1.4922  2.9165
  561MOL0     H75730   5.308   3.351   4.493  0.6342 -1.4676 -0.3676
  561MOL0     H75731   5.333   3.595   4.431 -0.1487  0.6229  0.0425
  561MOL0     H75732   5.353   3.561   4.260  2.7989  1.4102  0.2227
  561MOL0     H75733   5.738   3.507   4.405  0.1638 -0.3619 -0.0713
  561MOL0     H75734   5.004   3.046   4.338 -0.3249 -0.8640 -3.0033
  561MOL0     H75735   4.853   2.852   4.298 -0.1482 -0.0902 -1.2491
  562MOL0     O75736   2.119   8.952   3.609  0.0816 -0.4887 -0.1727
  562MOL0     C75737   2.202   9.018   3.544  0.4965 -0.3913  0.1295
  562MOL0     O75738   2.187   9.149   3.511 -0.4027  0.9773  0.4209
  562MOL0     C75739   2.086   9.224   3.568 -0.4438 -0.0628 -0.1915
  562MOL0     C75740   1.992   9.297   3.485  1.1415  0.2081  0.1377
  562MOL0     C75741   1.873   9.371   3.532 -0.1750 -0.3261 -0.3844
  562MOL0     C75742   1.868   9.381   3.670  0.3173  0.1272 -0.5126
  562MOL0     O75743   1.759   9.442   3.725 -0.1084 -0.1943  0.8068
  562MOL0     C75744   1.779   9.529   3.844 -0.7929 -0.2652 -0.8761
  562MOL0     C75745   1.657   9.625   3.858  0.5147  0.2391  0.6700
  562MOL0     C75746   1.536   9.537   3.902 -0.0291  0.0814 -0.5070
  562MOL0     C75747   1.407   9.597   3.956 -0.2877 -0.8619 -0.3573
  562MOL0     C75748   1.298   9.503   3.992 -0.3550 -0.6203  1.0224
  562MOL0     C75749   1.235   9.429   3.870 -0.1432 -1.0930 -0.4495
  562MOL0     C75750   1.084   9.400   3.902 -0.8708  0.4255 -1.0925
  562MOL0     C75751   1.069   9.286   4.006 -0.0445 -0.6542  1.5156
  562MOL0     N75752   0.927   9.274   4.045 -0.3878  0.3005  0.3560
  562MOL0     C75753   0.818   9.193   3.991 -0.8623  0.0334 -0.4833
  562MOL0     C75754   0.714   9.229   4.073 -0.2350 -0.0860  0.1974
  562MOL0     C75755   0.570   9.189   4.056 -0.1717 -0.8089 -0.4473
  562MOL0     C75756   0.534   9.223   3.908  0.0729 -0.0683  0.0474
  562MOL0     C75757   0.391   9.190   3.872 -0.2999  0.4967  0.1838
  562MOL0     C75758   0.294   9.261   3.967  0.2049 -0.3333  0.0719
  562MOL0     O75759   0.160   9.248   3.902  0.3535  0.4252  0.5092
  562MOL0     C75760   0.055   9.316   3.944 -0.3365  0.1830 -0.3746
  562MOL0     C75761   0.064   9.385   4.063 -0.9000 -0.3688 -0.8135
  562MOL0     C75762  -0.049   9.448   4.124 -0.9292  1.3054 -1.0065
  562MOL0     C75763  -0.044   9.511   4.261 -0.2527 -0.7241 -0.0372
  562MOL0     C75764  -0.172   9.447   4.053  0.5287  0.8416  0.2339
  562MOL0     C75765  -0.296   9.506   4.107 -0.1359 -0.2399  0.4125
  562MOL0     O75766  -0.297   9.630   4.169 -0.3880 -0.1052 -0.1085
  562MOL0     C75767  -0.411   9.674   4.225 -0.0695 -0.0011  0.3651
  562MOL0     C75768  -0.473   9.778   4.164 -0.0846  0.3121  0.3881
  562MOL0     C75769  -0.598   9.829   4.212  0.1609  0.2022 -0.0355
  562MOL0     C75770  -0.664   9.766   4.319 -0.6299 -0.9342 -0.1061
  562MOL0     O75771  -0.780   9.813   4.378  0.5892 -0.5057  0.1384
  562MOL0     C75772  -0.755   9.923   4.465  0.1764  0.1903  0.7194
  562MOL0     C75773  -0.885   9.966   4.530  0.6768  0.3975 -0.3440
  562MOL0     C75774  -1.006   9.987   4.433 -0.3698  0.3112 -0.1820
  562MOL0     C75775  -0.988  10.109   4.341  0.3968 -0.6815  1.2797
  562MOL0     C75776  -0.967  10.240   4.418  0.6479 -0.0094  0.3888
  562MOL0     C75777  -1.092  10.277   4.500  0.2873  0.2528  0.4023
  562MOL0     C75778  -1.093  10.417   4.551  0.8844  0.0729 -0.9031
  562MOL0     C75779  -1.178  10.434   4.675 -0.7264 -0.0219 -0.3906
  562MOL0    Cl75780  -1.357  10.393   4.649  0.2903 -0.0400 -0.2744
  562MOL0     C75781  -0.603   9.644   4.369 -0.5406 -0.2274 -0.6261
  562MOL0     C75782  -0.475   9.605   4.328 -0.5243 -0.2506  0.0491
  562MOL0     O75783  -0.394   9.446   4.072 -0.1598  0.8318  0.2858
  562MOL0     C75784  -0.181   9.364   3.935  0.2738  0.7982  0.1489
  562MOL0     C75785  -0.065   9.303   3.878 -0.0266 -0.5659 -0.3187
  562MOL0     N75786   0.758   9.326   4.157  0.1111  0.0929 -0.6566
  562MOL0     N75787   0.879   9.350   4.144 -0.0846 -0.5444 -0.5296
  562MOL0     C75788   1.960   9.320   3.755 -0.0401  0.3486 -0.2130
  562MOL0     C75789   2.062   9.242   3.706 -0.1543  0.5222 -0.4953
  562MOL0     C75790   2.312   8.940   3.486 -0.4573  0.2818 -0.0721
  562MOL0     C75791   2.333   8.805   3.518 -0.4135  0.0344 -0.5416
  562MOL0     C75792   2.418   8.731   3.440 -0.8728  0.8259 -0.6128
  562MOL0     C75793   2.498   8.776   3.338  0.0533  0.2359 -0.0381
  562MOL0     O75794   2.584   8.701   3.257 -0.0411  0.4462  0.2525
  562MOL0     C75795   2.605   8.567   3.297 -0.2094 -1.5048 -0.6316
  562MOL0     C75796   2.717   8.507   3.213 -0.7374  0.2485  0.4890
  562MOL0     C75797   2.667   8.493   3.068 -0.2932  0.5016  0.4816
  562MOL0     C75798   2.745   8.391   2.974 -0.2718 -0.3656  0.0970
  562MOL0     C75799   2.885   8.434   2.946 -0.2888 -0.2795  0.2428
  562MOL0     C75800   2.995   8.472   2.913 -0.2823  0.0097  0.3466
  562MOL0     C75801   2.482   8.912   3.307 -0.5191 -0.4565 -0.4672
  562MOL0     C75802   2.389   8.991   3.377 -0.1911 -0.5667 -1.0197
  562MOL0     H75803   2.000   9.305   3.377  1.5484  0.3365  0.1732
  562MOL0     H75804   1.814   9.427   3.460 -2.8707 -2.5793 -0.1190
  562MOL0     H75805   1.780   9.462   3.930  0.6647  1.0237  0.1518
  562MOL0     H75806   1.870   9.590   3.847 -1.0400  0.0771 -0.1972
  562MOL0     H75807   1.673   9.709   3.925 -0.8442  0.0804  1.2314
  562MOL0     H75808   1.625   9.663   3.760 -0.0626 -4.5030 -1.2829
  562MOL0     H75809   1.503   9.481   3.814  0.0012 -2.4173  0.9843
  562MOL0     H75810   1.565   9.469   3.982  3.1142  0.1591 -1.4389
  562MOL0     H75811   1.441   9.638   4.051  2.7771  0.2272 -1.7805
  562MOL0     H75812   1.365   9.673   3.889 -3.0357 -2.6606 -0.8555
  562MOL0     H75813   1.326   9.435   4.073  3.5921 -0.6217 -0.1066
  562MOL0     H75814   1.216   9.563   4.032 -0.5116 -0.5145  0.5543
  562MOL0     H75815   1.246   9.482   3.775  0.5347 -2.6219 -1.2686
  562MOL0     H75816   1.284   9.332   3.853 -1.8641 -1.8224 -1.6006
  562MOL0     H75817   1.025   9.483   3.940 -0.2230  0.5368 -0.2969
  562MOL0     H75818   1.046   9.373   3.803 -1.4451 -0.4687 -0.6388
  562MOL0     H75819   1.121   9.325   4.095 -3.4712  2.3693  2.4459
  562MOL0     H75820   1.113   9.189   3.982 -2.8852 -1.4292 -1.1104
  562MOL0     H75821   0.804   9.123   3.909 -2.1476  0.7016 -0.8587
  562MOL0     H75822   0.562   9.081   4.073  3.3848 -1.6985 -3.3819
  562MOL0     H75823   0.500   9.243   4.122  0.8182  1.3113 -1.0503
  562MOL0     H75824   0.597   9.167   3.838  0.1089 -2.6507  1.9875
  562MOL0     H75825   0.549   9.331   3.901  1.6362 -0.2522  0.2950
  562MOL0     H75826   0.378   9.084   3.898  2.8897  0.5361  2.6942
  562MOL0     H75827   0.362   9.216   3.770  0.6133  2.4893  0.3788
  562MOL0     H75828   0.316   9.368   3.961  0.6678 -0.3926  0.6266
  562MOL0     H75829   0.290   9.223   4.069 -1.6850 -3.0075 -0.8615
  562MOL0     H75830   0.157   9.395   4.118 -0.3368  0.7161 -1.9243
  562MOL0     H75831   0.042   9.480   4.320 -1.3144 -0.8397  1.5248
  562MOL0     H75832  -0.049   9.620   4.258  0.9067 -0.6776 -1.1056
  562MOL0     H75833  -0.129   9.468   4.315 -0.1412 -2.1619 -0.9567
  562MOL0     H75834  -0.439   9.825   4.073  1.1655 -0.9824  0.1476
  562MOL0     H75835  -0.615   9.924   4.164  1.9231 -0.4354 -2.0658
  562MOL0     H75836  -0.692   9.898   4.551 -0.8284 -2.8952  0.6594
  562MOL0     H75837  -0.713  10.007   4.408 -1.2336 -1.6703 -3.4225
  562MOL0     H75838  -0.923   9.879   4.584 -1.0797  0.7249 -0.9545
  562MOL0     H75839  -0.872  10.048   4.601  0.9262  0.2382 -0.2043
  562MOL0     H75840  -1.101   9.995   4.486  1.0200  1.9904  2.2062
  562MOL0     H75841  -1.012   9.894   4.375 -1.8385 -1.3974  2.5249
  562MOL0     H75842  -0.908  10.097   4.267 -0.1536  3.0403 -0.1211
  562MOL0     H75843  -1.078  10.118   4.281  2.4251  0.9687 -1.7667
  562MOL0     H75844  -0.955  10.318   4.341  0.5208  1.7735  2.0802
  562MOL0     H75845  -0.873  10.227   4.471  0.7013  0.4150  0.4058
  562MOL0     H75846  -1.187  10.250   4.455  0.8730 -1.3290  0.0671
  562MOL0     H75847  -1.088  10.215   4.590 -1.2814 -1.3077 -0.5584
  562MOL0     H75848  -1.122  10.493   4.478  2.9753  0.5685 -1.2961
  562MOL0     H75849  -0.995  10.451   4.587 -1.1040  1.6975  3.5967
  562MOL0     H75850  -1.165  10.534   4.718  0.0191 -0.8151  1.3317
  562MOL0     H75851  -1.132  10.362   4.745  1.0573  0.0349 -1.4350
  562MOL0     H75852  -0.653   9.586   4.446  0.4944 -0.2412  0.0712
  562MOL0     H75853  -0.431   9.514   4.367 -3.3289 -1.2212  1.1601
  562MOL0     H75854  -0.273   9.350   3.878  0.1874  4.6320 -0.9509
  562MOL0     H75855  -0.076   9.233   3.795 -4.7462  2.2176 -2.4504
  562MOL0     H75856   1.951   9.327   3.863 -4.0077 -0.4524 -0.3534
  562MOL0     H75857   2.133   9.197   3.776 -1.2859  3.0170  2.5122
  562MOL0     H75858   2.276   8.772   3.604 -1.1860  0.4858 -0.8692
  562MOL0     H75859   2.430   8.627   3.471  0.3451 -0.5808 -5.0374
  562MOL0     H75860   2.634   8.569   3.403  3.4134  0.4819 -1.5009
  562MOL0     H75861   2.510   8.513   3.296 -3.0372  2.9180 -0.0869
  562MOL0     H75862   2.736   8.404   3.247  0.1907 -0.0519 -0.8731
  562MOL0     H75863   2.804   8.574   3.218 -0.5848  0.0670  0.2843
  562MOL0     H75864   2.672   8.591   3.019  0.9592  0.7458  1.0548
  562MOL0     H75865   2.569   8.446   3.081  0.1416 -0.0586  1.9393
  562MOL0     H75866   2.690   8.395   2.880  1.4454  0.6142 -0.9234
  562MOL0     H75867   2.752   8.288   3.010 -1.3499 -0.0845  1.2053
  562MOL0     H75868   3.089   8.516   2.886 -0.5296 -0.2877 -1.0955
  562MOL0     H75869   2.540   8.951   3.224  0.1076 -1.1098 -0.3443
  562MOL0     H75870   2.379   9.090   3.335 -0.2152 -0.2115 -0.1924
  563MOL0     O75871   8.138  10.401   4.135 -0.4324 -0.2949 -0.9673
  563MOL0     C75872   8.256  10.402   4.188  0.6559 -0.3608  1.8028
  563MOL0     O75873   8.357  10.329   4.137 -0.3990  0.0141  0.3670
  563MOL0     C75874   8.333  10.209   4.081  0.0674  1.1276  0.5949
  563MOL0     C75875   8.442  10.157   3.999  0.0108  0.0506  0.3457
  563MOL0     C75876   8.432  10.031   3.939  1.0125  0.6379  0.4604
  563MOL0     C75877   8.316   9.952   3.952  0.7827 -0.2187 -0.2116
  563MOL0     O75878   8.306   9.827   3.893  0.4881  0.3543 -0.6849
  563MOL0     C75879   8.411   9.758   3.824  0.3243  0.8672  0.7425
  563MOL0     C75880   8.355   9.627   3.761 -0.5549 -0.1453 -0.2843
  563MOL0     C75881   8.302   9.542   3.882  0.1808  0.0853 -0.1831
  563MOL0     C75882   8.215   9.423   3.843 -0.0294  0.7331  0.1745
  563MOL0     C75883   8.173   9.341   3.966 -0.6682  0.4203 -0.0132
  563MOL0     C75884   8.107   9.203   3.926  0.5322  0.3923 -0.9211
  563MOL0     C75885   7.948   9.199   3.930 -0.6179 -0.9726 -0.0850
  563MOL0     C75886   7.888   9.307   3.829 -0.4099 -0.8069  0.5909
  563MOL0     N75887   7.745   9.279   3.798 -0.5094  0.6951  0.0853
  563MOL0     C75888   7.693   9.228   3.683 -0.4910 -0.3208  0.6092
  563MOL0     C75889   7.560   9.246   3.685 -0.1061 -0.2878  1.2042
  563MOL0     C75890   7.462   9.208   3.581 -0.5562  0.0041  0.6111
  563MOL0     C75891   7.426   9.054   3.563  0.0925  0.0649 -0.2227
  563MOL0     C75892   7.312   8.999   3.650  0.2777  0.0761  0.9664
  563MOL0     C75893   7.280   8.850   3.627 -0.2728 -0.2303  0.7182
  563MOL0     O75894   7.257   8.807   3.485 -0.2525  0.2567 -0.7697
  563MOL0     C75895   7.128   8.815   3.433  0.0690  0.3294  0.3296
  563MOL0     C75896   7.126   8.782   3.301  0.4480  0.4230  0.5821
  563MOL0     C75897   7.015   8.776   3.228  0.6882  0.1683  0.2139
  563MOL0     C75898   7.042   8.733   3.083  0.1100 -0.2207 -0.7121
  563MOL0     C75899   6.888   8.802   3.291  0.4790  0.9984  0.0986
  563MOL0     C75900   6.747   8.777   3.221 -0.0991 -0.3926  0.0392
  563MOL0     O75901   6.638   8.796   3.303 -0.2244  0.7565  0.1687
  563MOL0     C75902   6.511   8.792   3.245 -0.5905  0.9103  0.3960
  563MOL0     C75903   6.403   8.865   3.306  0.0019 -0.7747  0.1320
  563MOL0     C75904   6.274   8.856   3.252  0.2608 -0.6953 -0.9027
  563MOL0     C75905   6.253   8.786   3.137 -0.2440 -0.0223  0.2501
  563MOL0     O75906   6.127   8.797   3.080  0.6126 -0.6323  0.0382
  563MOL0     C75907   6.107   8.749   2.947 -0.3203  0.6277  0.3821
  563MOL0     C75908   5.974   8.787   2.887  0.4917 -0.6535 -0.7800
  563MOL0     C75909   5.852   8.720   2.965  0.6367 -0.0950  0.8651
  563MOL0     C75910   5.713   8.733   2.906  0.0675  0.2223 -0.9812
  563MOL0     C75911   5.610   8.744   3.010  0.1171 -0.8829 -0.6973
  563MOL0     C75912   5.463   8.748   2.961 -0.0781  0.8197  0.1500
  563MOL0     C75913   5.407   8.835   2.848  0.3735 -0.1796 -0.1314
  563MOL0     C75914   5.257   8.816   2.835  0.0036  0.4869 -0.8753
  563MOL0    Cl75915   5.192   8.950   2.729 -0.3674  0.0206 -0.3276
  563MOL0     C75916   6.355   8.715   3.077  0.4201 -0.3764  0.3656
  563MOL0     C75917   6.485   8.712   3.132  0.3677  0.5314 -0.6617
  563MOL0     O75918   6.749   8.763   3.095  0.8548  0.3734  0.1521
  563MOL0     C75919   6.889   8.847   3.428 -0.1337 -0.9617  0.6132
  563MOL0     C75920   7.010   8.846   3.501 -0.2582  1.3265  0.4607
  563MOL0     N75921   7.527   9.291   3.808 -0.2539 -0.8587  0.4215
  563MOL0     N75922   7.636   9.314   3.881 -0.2222  1.0747 -0.1021
  563MOL0     C75923   8.215  10.004   4.034  0.0639 -0.2512 -0.2498
  563MOL0     C75924   8.218  10.127   4.098 -0.2711  0.5246  0.3975
  563MOL0     C75925   8.277  10.493   4.298 -0.2861  0.5885 -0.1589
  563MOL0     C75926   8.183  10.573   4.366  1.1053 -0.7970  0.3866
  563MOL0     C75927   8.214  10.649   4.477 -0.6766  0.3298 -0.9707
  563MOL0     C75928   8.341  10.637   4.538 -0.1539  1.0762  0.2036
  563MOL0     O75929   8.389  10.696   4.652  0.4906 -0.0806  0.5524
  563MOL0     C75930   8.301  10.773   4.743  0.2091  0.1266  0.9796
  563MOL0     C75931   8.371  10.890   4.806 -0.2011 -0.3961 -0.0688
  563MOL0     C75932   8.494  10.853   4.893 -0.3207  0.1562 -0.9614
  563MOL0     C75933   8.628  10.923   4.859 -0.0771 -0.4530  0.2688
  563MOL0     C75934   8.727  10.820   4.812  0.4964 -0.1656  0.4171
  563MOL0     C75935   8.823  10.759   4.773  0.1550 -0.0319 -0.3130
  563MOL0     C75936   8.439  10.568   4.463 -0.2214  0.4196 -0.3516
  563MOL0     C75937   8.406  10.496   4.351  0.7797  0.1198 -0.3412
  563MOL0     H75938   8.536  10.208   3.985  0.4680 -1.4147 -2.7221
  563MOL0     H75939   8.520   9.999   3.884  0.9980  0.5830  0.4697
  563MOL0     H75940   8.456   9.809   3.738 -0.9680 -2.1943 -2.0004
  563MOL0     H75941   8.487   9.736   3.899  0.6182 -2.4839 -0.3521
  563MOL0     H75942   8.282   9.648   3.683 -0.2675 -0.0349 -0.5263
  563MOL0     H75943   8.438   9.579   3.708 -0.6610  0.6512 -1.1944
  563MOL0     H75944   8.389   9.507   3.939 -0.1849 -1.7879 -0.7116
  563MOL0     H75945   8.243   9.598   3.956  0.8403  0.0558  0.3716
  563MOL0     H75946   8.123   9.463   3.801 -0.1385 -0.1012 -0.4177
  563MOL0     H75947   8.270   9.366   3.767  1.7510  0.6397  1.4805
  563MOL0     H75948   8.261   9.303   4.019 -2.2780 -3.3597  0.3033
  563MOL0     H75949   8.109   9.392   4.038  0.3178  0.4957  0.8271
  563MOL0     H75950   8.131   9.164   3.826 -1.2082  0.7881 -1.5325
  563MOL0     H75951   8.143   9.122   3.990  2.1520  0.4277 -1.7421
  563MOL0     H75952   7.902   9.102   3.910  1.0647 -1.6692 -0.7963
  563MOL0     H75953   7.914   9.234   4.028 -0.5903 -0.0658 -0.3893
  563MOL0     H75954   7.954   9.302   3.742  0.8529  0.6809  1.4220
  563MOL0     H75955   7.899   9.409   3.867  3.0575  1.5721 -5.3213
  563MOL0     H75956   7.738   9.202   3.588  0.9119  0.6588  0.9811
  563MOL0     H75957   7.367   9.250   3.614 -0.9758  0.0084 -0.5676
  563MOL0     H75958   7.495   9.253   3.487 -0.0729  1.5310  1.4853
  563MOL0     H75959   7.511   8.986   3.578 -0.1456 -0.3417 -0.6879
  563MOL0     H75960   7.392   9.036   3.461 -2.0720 -3.2363  0.9124
  563MOL0     H75961   7.226   9.058   3.620  0.3759  0.6241  1.7197
  563MOL0     H75962   7.315   9.013   3.759 -2.0997  2.1545  0.8594
  563MOL0     H75963   7.192   8.826   3.688 -0.9834  1.7319  0.5635
  563MOL0     H75964   7.360   8.793   3.674  1.7763  1.7963 -0.1304
  563MOL0     H75965   7.223   8.772   3.254 -0.6036  2.3534 -2.2211
  563MOL0     H75966   6.961   8.665   3.057 -0.9472  0.8566 -0.3449
  563MOL0     H75967   7.044   8.825   3.023 -0.5077  1.1026  1.2203
  563MOL0     H75968   7.135   8.676   3.075 -0.3565 -1.3052  1.0517
  563MOL0     H75969   6.423   8.928   3.392 -0.2176  0.0885 -0.4374
  563MOL0     H75970   6.197   8.927   3.283  0.4439 -0.0810 -1.7860
  563MOL0     H75971   6.178   8.796   2.878 -2.9203  3.6562 -0.4388
  563MOL0     H75972   6.118   8.642   2.929 -2.5334  0.6100 -1.3063
  563MOL0     H75973   5.968   8.896   2.883  0.7925 -0.6680 -2.5753
  563MOL0     H75974   5.983   8.743   2.787 -1.0880 -1.6212 -0.5280
  563MOL0     H75975   5.854   8.757   3.068  1.3917 -1.4998  1.3905
  563MOL0     H75976   5.874   8.615   2.983 -0.0863 -0.3772  0.1627
  563MOL0     H75977   5.715   8.820   2.841  4.7846  1.5769  0.5629
  563MOL0     H75978   5.707   8.636   2.855  0.1863 -1.5901  2.1181
  563MOL0     H75979   5.627   8.838   3.064  0.6872 -1.6727  0.5387
  563MOL0     H75980   5.624   8.670   3.089  1.2344  1.7644  1.7764
  563MOL0     H75981   5.443   8.646   2.928  0.5703  1.5246 -2.7070
  563MOL0     H75982   5.405   8.756   3.054 -1.7731  2.6222 -0.9823
  563MOL0     H75983   5.468   8.818   2.759 -1.4705  1.7308 -1.8525
  563MOL0     H75984   5.411   8.941   2.875 -1.9633 -0.5841  2.2534
  563MOL0     H75985   5.194   8.792   2.921  0.5305  0.1680 -0.5721
  563MOL0     H75986   5.245   8.720   2.783  0.0198  0.1203 -0.2003
  563MOL0     H75987   6.337   8.664   2.983 -4.2405  2.0211 -0.3263
  563MOL0     H75988   6.557   8.646   3.085  1.1505 -0.6171  1.9830
  563MOL0     H75989   6.789   8.860   3.468 -0.7186 -3.9544  0.3749
  563MOL0     H75990   7.016   8.879   3.604  1.1744 -1.2271  1.2697
  563MOL0     H75991   8.125   9.945   4.045  0.4999 -0.6462  1.4175
  563MOL0     H75992   8.131  10.158   4.156 -0.2144  0.7322  0.3744
  563MOL0     H75993   8.081  10.575   4.328  0.6833  1.9684  1.4346
  563MOL0     H75994   8.143  10.714   4.527  1.8379  3.4428 -1.0663
  563MOL0     H75995   8.221  10.813   4.680  1.2501  0.4422 -0.1775
  563MOL0     H75996   8.257  10.698   4.810  1.0653 -0.9954  0.3131
  563MOL0     H75997   8.295  10.940   4.868 -3.0670 -3.0805 -1.1475
  563MOL0     H75998   8.400  10.970   4.738  1.3496  1.2986  2.3902
  563MOL0     H75999   8.513  10.745   4.893  4.4828  0.6972 -3.1959
  563MOL0     H76000   8.468  10.896   4.990 -0.8917  0.1463 -1.1076
  563MOL0     H76001   8.671  10.956   4.953 -0.8950 -2.7510  1.5255
  563MOL0     H76002   8.619  11.008   4.790  0.5045  2.7061  3.7708
  563MOL0     H76003   8.910  10.712   4.731  1.2392  1.3276  0.3454
  563MOL0     H76004   8.536  10.552   4.510 -1.0150 -4.4302  0.1987
  563MOL0     H76005   8.488  10.435   4.313  4.2847  3.4956  1.1114
  564MOL0     O76006   4.025   6.111   2.696  0.4533 -0.4697  0.5279
  564MOL0     C76007   4.017   6.226   2.655 -0.2239  0.2047 -0.3914
  564MOL0     O76008   3.916   6.312   2.694 -0.2747  0.2122  0.3740
  564MOL0     C76009   3.796   6.267   2.738  0.9836  0.1906  0.0937
  564MOL0     C76010   3.721   6.162   2.679  0.2138 -0.6928  0.2327
  564MOL0     C76011   3.598   6.130   2.740  0.3057  1.3615 -1.0675
  564MOL0     C76012   3.552   6.207   2.849  0.7648  0.0653 -0.7489
  564MOL0     O76013   3.436   6.169   2.902 -0.1607  0.1242 -0.3652
  564MOL0     C76014   3.435   6.124   3.041 -1.0591 -0.0915 -0.4935
  564MOL0     C76015   3.287   6.098   3.074 -0.2052  0.5828  0.0863
  564MOL0     C76016   3.194   6.223   3.086 -0.7607  0.7747  0.0261
  564MOL0     C76017   3.108   6.236   2.954  0.0379  0.0700  0.3156
  564MOL0     C76018   2.994   6.342   2.977 -0.4480 -0.9750  0.1953
  564MOL0     C76019   2.878   6.271   3.056 -0.2199 -0.4088 -0.7514
  564MOL0     C76020   2.779   6.369   3.123  0.3728 -1.1503  0.3922
  564MOL0     C76021   2.680   6.434   3.023 -0.6175 -0.2654 -0.7077
  564MOL0     N76022   2.581   6.507   3.089 -0.1538 -0.2902 -0.9783
  564MOL0     C76023   2.518   6.473   3.205 -0.6533 -0.1215 -0.4830
  564MOL0     C76024   2.439   6.578   3.237  0.6438 -0.2130  0.2631
  564MOL0     C76025   2.346   6.604   3.348 -0.3107 -0.4445  0.2972
  564MOL0     C76026   2.191   6.613   3.302 -0.5697  0.7767 -0.9401
  564MOL0     C76027   2.116   6.676   3.420  0.5826  0.1574  0.9416
  564MOL0     C76028   1.973   6.686   3.372  0.0371  0.0615 -0.3255
  564MOL0     O76029   1.983   6.773   3.258  0.5990  0.4567 -0.0212
  564MOL0     C76030   1.864   6.805   3.190 -0.7972  0.7158 -0.4350
  564MOL0     C76031   1.764   6.714   3.177  0.0002  0.1816  1.3324
  564MOL0     C76032   1.633   6.749   3.131 -0.0740 -0.3214 -0.0309
  564MOL0     C76033   1.524   6.636   3.127  0.3332 -0.2582  0.3816
  564MOL0     C76034   1.608   6.888   3.097  0.5875 -0.6514 -0.1879
  564MOL0     C76035   1.476   6.934   3.060 -0.5812 -0.1085 -0.3681
  564MOL0     O76036   1.467   6.998   2.938  0.5480  0.0341  0.2246
  564MOL0     C76037   1.349   7.050   2.891  0.2379  0.8193 -0.2550
  564MOL0     C76038   1.318   7.190   2.877 -0.0559  0.2991  0.3989
  564MOL0     C76039   1.199   7.238   2.815 -0.0110  0.4552  0.0154
  564MOL0     C76040   1.112   7.147   2.754  0.2788 -0.3817 -0.5179
  564MOL0     O76041   1.016   7.206   2.682  0.3930 -0.0544  0.5139
  564MOL0     C76042   0.907   7.129   2.631  0.4710 -0.3082  0.3361
  564MOL0     C76043   0.788   7.166   2.710  0.5521  0.5041  0.2624
  564MOL0     C76044   0.659   7.095   2.665 -0.0904  0.5142 -0.0108
  564MOL0     C76045   0.538   7.128   2.749 -0.0299 -0.6051  0.0097
  564MOL0     C76046   0.434   7.022   2.714  0.5663 -1.1051 -0.0158
  564MOL0     C76047   0.296   7.078   2.781  0.2945 -0.5502 -0.0050
  564MOL0     C76048   0.241   7.189   2.696  0.8968 -0.6562 -0.6432
  564MOL0     C76049   0.119   7.260   2.757 -0.0477  0.9021 -0.1049
  564MOL0    Cl76050   0.188   7.358   2.896  0.3802  0.5474 -0.0550
  564MOL0     C76051   1.142   7.010   2.774  0.1288 -0.1606 -0.4373
  564MOL0     C76052   1.259   6.959   2.837  0.5497 -0.3802  0.7470
  564MOL0     O76053   1.376   6.918   3.135  0.0853  0.3626 -0.3569
  564MOL0     C76054   1.723   6.974   3.099 -0.4004  0.1435 -0.3228
  564MOL0     C76055   1.847   6.925   3.143  0.3513 -1.3248 -0.2050
  564MOL0     N76056   2.445   6.670   3.138 -0.2658 -0.0678 -0.1031
  564MOL0     N76057   2.528   6.628   3.050 -0.1245  0.5468  0.0354
  564MOL0     C76058   3.621   6.314   2.893 -0.0452  0.2452  0.8478
  564MOL0     C76059   3.746   6.349   2.833  0.5530 -0.6027 -0.5346
  564MOL0     C76060   4.110   6.280   2.562 -0.2652  0.3971  0.4181
  564MOL0     C76061   4.234   6.227   2.526 -0.2170  0.6390  0.1215
  564MOL0     C76062   4.327   6.292   2.451 -0.0255 -0.1893  0.1899
  564MOL0     C76063   4.295   6.417   2.396  0.1296 -0.3646  0.3268
  564MOL0     O76064   4.393   6.478   2.331  0.2287 -0.1268  0.4568
  564MOL0     C76065   4.370   6.594   2.258 -0.4701  0.7760 -0.4634
  564MOL0     C76066   4.487   6.647   2.170  0.6850  0.1236  0.6925
  564MOL0     C76067   4.593   6.725   2.255 -0.1195 -0.1754 -0.2692
  564MOL0     C76068   4.737   6.728   2.206 -0.7498  1.0600 -0.8198
  564MOL0     C76069   4.738   6.805   2.083  0.3000 -0.7305  0.6252
  564MOL0     C76070   4.717   6.875   1.989  0.5753 -0.4115  0.2239
  564MOL0     C76071   4.169   6.467   2.412  0.4261  0.8421 -0.2991
  564MOL0     C76072   4.078   6.391   2.488 -0.1068  0.0473  0.0278
  564MOL0     H76073   3.766   6.107   2.596  0.2072 -2.1412  1.1636
  564MOL0     H76074   3.540   6.049   2.698  2.1046 -1.9927  2.2818
  564MOL0     H76075   3.491   6.031   3.044 -0.7964 -0.0192 -2.0846
  564MOL0     H76076   3.484   6.192   3.111 -0.7090 -0.4238 -0.4173
  564MOL0     H76077   3.245   6.036   2.995 -1.0810  0.1728  0.8505
  564MOL0     H76078   3.278   6.043   3.168  0.7690 -0.4756 -0.4217
  564MOL0     H76079   3.127   6.219   3.172 -0.2749  2.5561  0.5469
  564MOL0     H76080   3.267   6.305   3.087 -1.6683  1.5952  0.4757
  564MOL0     H76081   3.183   6.255   2.878 -0.2760 -2.1041 -0.6248
  564MOL0     H76082   3.059   6.141   2.930  1.4222 -0.7999  0.8299
  564MOL0     H76083   3.036   6.434   3.019 -0.6804 -0.5055 -0.5839
  564MOL0     H76084   2.954   6.372   2.880  1.0995  0.8503  0.0583
  564MOL0     H76085   2.833   6.188   3.000 -0.6327  0.8446 -2.3319
  564MOL0     H76086   2.922   6.219   3.142  1.3826 -0.7265 -1.7148
  564MOL0     H76087   2.729   6.322   3.209  1.6246 -0.6608  1.4158
  564MOL0     H76088   2.836   6.446   3.176 -2.2032 -1.7033  4.3973
  564MOL0     H76089   2.638   6.356   2.958  0.3883 -2.3289  0.9920
  564MOL0     H76090   2.741   6.504   2.964 -1.1586  2.0577  1.3320
  564MOL0     H76091   2.538   6.388   3.269  0.4818 -1.4151 -2.4824
  564MOL0     H76092   2.353   6.526   3.425 -0.8202 -1.4353 -0.6375
  564MOL0     H76093   2.377   6.698   3.396  4.7314 -0.9126 -1.3884
  564MOL0     H76094   2.147   6.514   3.293 -0.6793  0.5549  1.3176
  564MOL0     H76095   2.188   6.668   3.208 -1.6025 -0.1252 -1.4447
  564MOL0     H76096   2.143   6.777   3.450 -1.0635 -0.0562  3.4219
  564MOL0     H76097   2.135   6.613   3.507  3.0020 -1.0802 -0.3690
  564MOL0     H76098   1.919   6.735   3.453  1.7823  0.1286  0.8573
  564MOL0     H76099   1.932   6.588   3.345 -1.1105  0.1447  1.0243
  564MOL0     H76100   1.782   6.610   3.201 -1.7277  0.1959  3.0566
  564MOL0     H76101   1.547   6.562   3.204  1.2902  1.8351  2.2292
  564MOL0     H76102   1.425   6.671   3.158 -0.5561 -3.1948  1.1918
  564MOL0     H76103   1.511   6.593   3.028  0.5805 -0.2880  0.3620
  564MOL0     H76104   1.388   7.262   2.917  0.5885 -0.3145  0.3950
  564MOL0     H76105   1.174   7.344   2.812  0.4632  0.5659 -0.1065
  564MOL0     H76106   0.898   7.148   2.524 -1.0076  0.1967  0.5251
  564MOL0     H76107   0.921   7.021   2.637 -1.7771 -0.5602  2.5054
  564MOL0     H76108   0.811   7.152   2.816  0.0230  0.3730  0.3629
  564MOL0     H76109   0.783   7.273   2.687  2.1718  0.5337 -0.0759
  564MOL0     H76110   0.683   6.989   2.661  1.6022  0.8572 -3.6172
  564MOL0     H76111   0.638   7.107   2.558  2.7567  6.2193 -0.3337
  564MOL0     H76112   0.562   7.131   2.856 -0.6985  1.0993  0.1375
  564MOL0     H76113   0.510   7.230   2.723 -2.1341 -0.4036  2.6081
  564MOL0     H76114   0.437   6.925   2.765 -1.5092 -0.5080  1.3862
  564MOL0     H76115   0.423   7.002   2.607 -1.3056 -0.3767 -0.0038
  564MOL0     H76116   0.221   6.998   2.777  0.2344 -0.6546  2.1189
  564MOL0     H76117   0.300   7.111   2.885 -0.7162 -3.8393  1.2223
  564MOL0     H76118   0.210   7.144   2.602  2.3182 -0.8634 -1.0338
  564MOL0     H76119   0.318   7.266   2.681 -0.8583  1.1291 -0.9201
  564MOL0     H76120   0.039   7.190   2.782  0.2443  0.5764 -0.0780
  564MOL0     H76121   0.069   7.333   2.692 -2.2667  0.4109  0.9785
  564MOL0     H76122   1.070   6.938   2.736  0.5859 -1.5832  1.2327
  564MOL0     H76123   1.280   6.852   2.832 -0.2509 -0.5180  0.1550
  564MOL0     H76124   1.716   7.075   3.060  1.5314 -0.2705 -1.8690
  564MOL0     H76125   1.935   6.985   3.125  0.3649 -1.1807  0.3083
  564MOL0     H76126   3.593   6.375   2.978  1.2620 -1.4379  2.5844
  564MOL0     H76127   3.804   6.438   2.855  0.5608 -0.7120 -0.1152
  564MOL0     H76128   4.251   6.141   2.591 -0.8880  1.3009  1.1958
  564MOL0     H76129   4.431   6.268   2.428 -0.3293 -1.2355 -0.1125
  564MOL0     H76130   4.277   6.592   2.201 -0.4859  2.2306 -0.5294
  564MOL0     H76131   4.348   6.660   2.342  1.5481 -1.4416  1.9562
  564MOL0     H76132   4.452   6.722   2.099 -1.7360 -1.6788 -0.1365
  564MOL0     H76133   4.532   6.563   2.117 -0.2285 -1.3749  2.1801
  564MOL0     H76134   4.597   6.682   2.356 -0.9138 -4.5533 -1.8975
  564MOL0     H76135   4.559   6.828   2.268  0.6973  0.0411  0.2294
  564MOL0     H76136   4.768   6.625   2.186 -1.1176  0.6032  0.8476
  564MOL0     H76137   4.804   6.769   2.282 -0.5941  0.6054 -0.7120
  564MOL0     H76138   4.689   6.940   1.909 -0.4176 -0.8147  0.2336
  564MOL0     H76139   4.130   6.556   2.363 -1.0117  2.8778  4.0494
  564MOL0     H76140   3.972   6.416   2.491 -0.3674 -1.0894  1.2302
  565MOL0     O76141   3.016   3.364   8.332 -0.4903  0.8054  0.6570
  565MOL0     C76142   3.078   3.367   8.437 -0.3652 -0.6541 -0.9142
  565MOL0     O76143   3.027   3.378   8.564 -0.1766 -0.0048  0.2282
  565MOL0     C76144   2.906   3.433   8.585  0.4994 -0.1963  0.5505
  565MOL0     C76145   2.842   3.523   8.496 -0.0795  0.5609 -0.0340
  565MOL0     C76146   2.712   3.568   8.513  0.3739 -0.7869 -0.4601
  565MOL0     C76147   2.630   3.532   8.624  0.0507 -0.9871  0.4535
  565MOL0     O76148   2.501   3.582   8.617 -0.1881  0.1081  0.2372
  565MOL0     C76149   2.427   3.606   8.742 -0.7433 -0.4167 -0.2531
  565MOL0     C76150   2.289   3.638   8.699  0.1408  0.1803 -0.4666
  565MOL0     C76151   2.217   3.737   8.793  0.0005 -0.6810 -0.8717
  565MOL0     C76152   2.149   3.682   8.924  0.0402  0.4479  0.3633
  565MOL0     C76153   2.053   3.780   9.004  0.2490 -0.4433  0.6225
  565MOL0     C76154   2.001   3.717   9.137 -0.2776 -0.3949  0.0114
  565MOL0     C76155   1.893   3.793   9.215  0.7588 -0.0502 -0.0153
  565MOL0     C76156   1.885   3.754   9.369 -0.5720 -0.2563 -0.0449
  565MOL0     N76157   1.775   3.816   9.446 -0.1862  0.0612 -0.4169
  565MOL0     C76158   1.777   3.834   9.588 -0.6071 -0.4546  0.2225
  565MOL0     C76159   1.678   3.913   9.621  0.7806 -0.1970  0.1969
  565MOL0     C76160   1.633   3.971   9.753  0.2087  0.2222  0.7979
  565MOL0     C76161   1.615   3.871   9.868 -0.3041 -0.2346  0.0054
  565MOL0     C76162   1.588   3.931  10.010  0.1032  0.5211 -0.2270
  565MOL0     C76163   1.459   4.000  10.018 -1.3444 -0.2509 -0.0318
  565MOL0     O76164   1.394   3.959  10.144 -0.1992  0.0881 -0.4193
  565MOL0     C76165   1.289   4.015  10.195  0.0428 -0.0828  0.8565
  565MOL0     C76166   1.277   3.998  10.333 -0.1264 -0.1653  0.3805
  565MOL0     C76167   1.174   4.052  10.407 -1.0639 -0.2839 -0.2352
  565MOL0     C76168   1.182   4.025  10.561  0.1642  0.0484  0.4099
  565MOL0     C76169   1.080   4.137  10.336  0.3363  0.2933 -0.8529
  565MOL0     C76170   0.975   4.209  10.407 -0.7514 -1.2320 -0.4017
  565MOL0     O76171   0.861   4.239  10.331 -0.3698  1.7671  0.3057
  565MOL0     C76172   0.752   4.297  10.394 -0.4789 -0.3124  0.0210
  565MOL0     C76173   0.738   4.365  10.520 -0.3709  0.7538  0.2426
  565MOL0     C76174   0.619   4.417  10.560 -0.5674 -0.6976 -0.8343
  565MOL0     C76175   0.502   4.399  10.486  1.3142 -0.4581  0.4909
  565MOL0     O76176   0.382   4.454  10.517 -0.0042  0.2196  0.4470
  565MOL0     C76177   0.361   4.554  10.623 -0.0155 -0.2254 -0.5604
  565MOL0     C76178   0.215   4.603  10.626  0.1487  0.1637  0.4452
  565MOL0     C76179   0.171   4.664  10.492 -0.5880 -0.0921  0.4892
  565MOL0     C76180   0.018   4.700  10.481  0.1447  0.2062 -0.4195
  565MOL0     C76181  -0.041   4.783  10.586  0.8868  0.1675 -0.3863
  565MOL0     C76182  -0.188   4.800  10.591 -0.0599  0.6698  0.3266
  565MOL0     C76183  -0.264   4.797  10.722  0.7544  0.1202 -0.5312
  565MOL0     C76184  -0.254   4.921  10.808  0.4559 -0.0654 -0.4578
  565MOL0    Cl76185  -0.354   5.050  10.728  0.1955 -0.1816  0.5340
  565MOL0     C76186   0.515   4.345  10.361  0.8126  0.5204 -0.0485
  565MOL0     C76187   0.639   4.296  10.317  0.0324  0.1103  0.0395
  565MOL0     O76188   1.009   4.245  10.519 -0.0477  0.1016 -0.0425
  565MOL0     C76189   1.088   4.146  10.197  0.9739 -0.0409 -0.2578
  565MOL0     C76190   1.199   4.100  10.127 -0.2643  0.5173  0.0304
  565MOL0     N76191   1.616   3.941   9.502 -0.7911  0.1460  0.2850
  565MOL0     N76192   1.670   3.876   9.402 -0.1670 -0.3331  0.2206
  565MOL0     C76193   2.690   3.443   8.717 -0.3579  0.3784 -0.5468
  565MOL0     C76194   2.824   3.388   8.695 -0.4617 -0.6574  0.1466
  565MOL0     C76195   3.224   3.332   8.432  0.4461 -0.3110  0.7810
  565MOL0     C76196   3.292   3.294   8.550 -0.1614  0.1391 -0.0905
  565MOL0     C76197   3.430   3.275   8.551  0.1076 -0.2573  0.3816
  565MOL0     C76198   3.495   3.270   8.420  0.9930  0.8441  0.1465
  565MOL0     O76199   3.632   3.249   8.409 -0.3485 -0.1967  0.0758
  565MOL0     C76200   3.709   3.273   8.526 -0.1103  0.0544  0.0549
  565MOL0     C76201   3.862   3.268   8.510  0.0048  0.1834  0.7766
  565MOL0     C76202   3.899   3.385   8.406 -0.2858  0.1898 -0.1544
  565MOL0     C76203   4.064   3.380   8.381  0.1601  0.4581  0.8988
  565MOL0     C76204   4.105   3.518   8.389 -0.5452 -0.5352  0.1310
  565MOL0     C76205   4.139   3.634   8.385 -0.5180 -0.3541  0.6010
  565MOL0     C76206   3.422   3.293   8.304  0.0509 -0.3000  1.1553
  565MOL0     C76207   3.286   3.319   8.306  0.5870 -0.6234 -0.2373
  565MOL0     H76208   2.898   3.548   8.406  0.7351  1.5190  0.7133
  565MOL0     H76209   2.668   3.633   8.437 -0.9400 -1.8934 -0.6853
  565MOL0     H76210   2.434   3.520   8.809 -0.4965  0.6385  1.1113
  565MOL0     H76211   2.480   3.689   8.790  0.5766  0.5142 -3.0901
  565MOL0     H76212   2.299   3.691   8.604  1.1452  1.5776  0.3695
  565MOL0     H76213   2.230   3.546   8.703 -0.6367  0.4503 -3.3438
  565MOL0     H76214   2.288   3.817   8.816  2.2591 -3.1361  1.4291
  565MOL0     H76215   2.140   3.780   8.729  0.4759 -0.8446 -1.5667
  565MOL0     H76216   2.081   3.602   8.894  1.8881 -0.6347 -1.2059
  565MOL0     H76217   2.221   3.630   8.987  0.0460 -1.4684 -1.1271
  565MOL0     H76218   2.102   3.874   9.030 -2.3747  1.3624 -0.4845
  565MOL0     H76219   1.960   3.792   8.947  0.5523 -0.2054  0.1751
  565MOL0     H76220   1.962   3.617   9.113  1.5848 -1.2824  0.4289
  565MOL0     H76221   2.083   3.702   9.208 -1.0277 -2.3462  0.5524
  565MOL0     H76222   1.920   3.899   9.215  0.6347 -0.0113  0.8731
  565MOL0     H76223   1.793   3.772   9.177 -0.1461 -0.4756  2.4137
  565MOL0     H76224   1.983   3.764   9.417 -0.5748  0.3289 -0.1560
  565MOL0     H76225   1.873   3.645   9.367  0.7296 -0.4249  0.5469
  565MOL0     H76226   1.852   3.805   9.661 -0.1785 -1.5785 -0.6201
  565MOL0     H76227   1.692   4.062   9.768  0.4919  0.2601 -0.4814
  565MOL0     H76228   1.529   4.004   9.741  0.5169  1.8643  2.1739
  565MOL0     H76229   1.707   3.813   9.877 -0.9173 -0.8750  3.6240
  565MOL0     H76230   1.540   3.801   9.831 -2.1495  1.7128 -0.1295
  565MOL0     H76231   1.667   3.999  10.045 -1.4022  0.9822  2.5930
  565MOL0     H76232   1.581   3.852  10.086 -1.8420 -1.3437 -2.2315
  565MOL0     H76233   1.401   3.975   9.929  4.1488 -2.6409 -3.3882
  565MOL0     H76234   1.478   4.106  10.034 -0.7753 -0.5849  1.7605
  565MOL0     H76235   1.358   3.952  10.389  4.1601  3.7967 -1.9746
  565MOL0     H76236   1.085   3.995  10.602  1.1181 -0.1353  2.6912
  565MOL0     H76237   1.253   3.955  10.607 -0.8289  1.3724  4.3948
  565MOL0     H76238   1.189   4.122  10.611 -0.5593  0.7951 -0.8830
  565MOL0     H76239   0.827   4.372  10.582  1.4974 -1.7437 -1.9524
  565MOL0     H76240   0.626   4.452  10.663  2.0978 -2.8013 -0.1854
  565MOL0     H76241   0.386   4.516  10.723 -1.1098  3.1050  1.1449
  565MOL0     H76242   0.423   4.642  10.604 -0.6144  0.7185  1.5042
  565MOL0     H76243   0.149   4.521  10.653  0.5084 -0.3017 -0.0754
  565MOL0     H76244   0.211   4.687  10.696 -4.0249  0.7886 -0.2928
  565MOL0     H76245   0.187   4.595  10.408  1.0215  2.0377 -1.0911
  565MOL0     H76246   0.238   4.745  10.462  2.3747 -2.4253  0.4090
  565MOL0     H76247  -0.004   4.744  10.384 -1.0230 -2.2870 -1.3665
  565MOL0     H76248  -0.042   4.608  10.481  0.1925 -0.0204 -4.9108
  565MOL0     H76249   0.004   4.881  10.570  0.3627  0.1995 -1.7419
  565MOL0     H76250  -0.012   4.747  10.685 -1.7901 -2.0233 -0.2781
  565MOL0     H76251  -0.204   4.900  10.552 -0.0247  0.2982 -0.6649
  565MOL0     H76252  -0.230   4.729  10.519  1.0326 -0.1849  0.5022
  565MOL0     H76253  -0.233   4.708  10.777  0.5516 -0.2500 -1.0076
  565MOL0     H76254  -0.369   4.796  10.691  0.9795  2.5811 -1.5904
  565MOL0     H76255  -0.154   4.964  10.820  0.8586  0.2712 -3.9726
  565MOL0     H76256  -0.291   4.889  10.905 -0.5171 -0.2328 -0.8703
  565MOL0     H76257   0.429   4.347  10.295 -0.0663 -1.4074  0.9693
  565MOL0     H76258   0.650   4.270  10.212 -2.0371  3.4007 -1.1146
  565MOL0     H76259   1.016   4.193  10.130  0.4945 -1.0370 -0.4500
  565MOL0     H76260   1.197   4.108  10.019  1.9956  1.0905 -0.0150
  565MOL0     H76261   2.644   3.402   8.806 -1.6665  0.3132 -1.2340
  565MOL0     H76262   2.870   3.320   8.766 -0.1855 -0.7301 -0.1051
  565MOL0     H76263   3.239   3.284   8.645  0.1130  2.2974  0.3363
  565MOL0     H76264   3.489   3.249   8.638  0.7361 -2.1163 -0.5542
  565MOL0     H76265   3.690   3.376   8.557  0.0620 -0.1276  0.7890
  565MOL0     H76266   3.684   3.206   8.608 -0.0120  2.0876  1.8323
  565MOL0     H76267   3.897   3.174   8.467 -0.9186  0.8018 -1.4560
  565MOL0     H76268   3.913   3.292   8.604  3.5956  0.0197 -0.9746
  565MOL0     H76269   3.864   3.476   8.455 -0.5328  0.1465 -0.2485
  565MOL0     H76270   3.850   3.375   8.308  3.1736  2.7156 -2.4132
  565MOL0     H76271   4.085   3.341   8.281  0.3783 -1.0402  1.5094
  565MOL0     H76272   4.121   3.329   8.458  1.5206 -0.8811 -0.8940
  565MOL0     H76273   4.190   3.729   8.379 -1.0431 -0.0578  0.8186
  565MOL0     H76274   3.479   3.302   8.212 -3.0710  1.1858 -0.8258
  565MOL0     H76275   3.229   3.352   8.220  0.1787  0.1002  0.3049
  566MOL0     O76276   7.522  11.092   3.302 -0.2190  0.9615 -0.2563
  566MOL0     C76277   7.423  11.161   3.286  0.7865 -0.3647  0.1490
  566MOL0     O76278   7.400  11.269   3.194  0.3133 -0.3882 -0.0858
  566MOL0     C76279   7.506  11.330   3.135 -0.0575 -1.1405  0.4363
  566MOL0     C76280   7.646  11.338   3.175  0.7372 -0.6155 -0.6731
  566MOL0     C76281   7.745  11.391   3.088 -0.3063  0.9372  0.5126
  566MOL0     C76282   7.697  11.466   2.980 -0.9190 -0.4909 -0.3812
  566MOL0     O76283   7.780  11.532   2.896 -0.5535 -0.1027  0.3975
  566MOL0     C76284   7.919  11.534   2.932 -1.2611  1.3025  0.5958
  566MOL0     C76285   8.029  11.570   2.821  0.2991  0.9028 -0.1149
  566MOL0     C76286   8.162  11.622   2.885 -0.0769 -0.9523  0.3429
  566MOL0     C76287   8.262  11.640   2.766 -0.4897 -0.3209  0.3950
  566MOL0     C76288   8.397  11.705   2.806 -0.1078 -0.5387  0.4285
  566MOL0     C76289   8.503  11.714   2.689 -0.1405  0.0104  0.0319
  566MOL0     C76290   8.643  11.747   2.735 -1.2994 -0.3253 -0.3291
  566MOL0     C76291   8.756  11.696   2.641 -0.1452 -0.6934 -0.1442
  566MOL0     N76292   8.781  11.770   2.516  0.4310  1.0109  0.9387
  566MOL0     C76293   8.765  11.903   2.508 -0.6311 -0.1415 -0.0445
  566MOL0     C76294   8.764  11.928   2.375  0.9873  0.2799 -0.0707
  566MOL0     C76295   8.739  12.062   2.323  0.3827  0.4332 -0.1351
  566MOL0     C76296   8.604  12.057   2.267 -0.2209  0.3498  0.2137
  566MOL0     C76297   8.492  12.044   2.367  0.0734 -0.2001 -0.4431
  566MOL0     C76298   8.361  12.031   2.293 -0.2585 -0.1834 -0.3146
  566MOL0     O76299   8.261  12.088   2.381 -0.0280 -0.3059 -0.3950
  566MOL0     C76300   8.128  12.081   2.350  0.3399  0.2979  0.6204
  566MOL0     C76301   8.044  12.138   2.442  0.6031  0.2636 -0.6164
  566MOL0     C76302   7.906  12.158   2.416 -0.2409  0.4317  0.4728
  566MOL0     C76303   7.835  12.201   2.532 -0.2655 -0.6490 -0.5136
  566MOL0     C76304   7.847  12.096   2.298  0.0174 -0.2743 -0.1282
  566MOL0     C76305   7.699  12.094   2.271  0.6138 -0.0315 -0.0854
  566MOL0     O76306   7.657  12.028   2.156  0.2760 -0.3450  0.6598
  566MOL0     C76307   7.531  12.062   2.110  0.1784 -0.6205  0.2428
  566MOL0     C76308   7.429  11.967   2.125  1.1052  0.5584  0.4259
  566MOL0     C76309   7.308  11.984   2.055 -0.0990  0.1708 -0.4608
  566MOL0     C76310   7.287  12.093   1.966 -1.1362  0.4198 -0.1029
  566MOL0     O76311   7.169  12.101   1.904  0.3947 -0.1570 -0.6755
  566MOL0     C76312   7.121  12.226   1.858  0.8384 -0.3489 -0.3806
  566MOL0     C76313   6.968  12.239   1.846  0.6183 -0.7225  0.4813
  566MOL0     C76314   6.924  12.392   1.835  0.0505 -1.2941 -0.7908
  566MOL0     C76315   6.804  12.408   1.725 -0.3741  0.2146 -0.3340
  566MOL0     C76316   6.747  12.546   1.710  0.3854  0.5359 -0.5146
  566MOL0     C76317   6.664  12.547   1.586 -0.2478  0.3059  0.2666
  566MOL0     C76318   6.641  12.690   1.549 -0.5795  0.5582  0.6373
  566MOL0     C76319   6.541  12.708   1.433  0.2184  0.4464  0.0225
  566MOL0    Cl76320   6.382  12.640   1.487  0.2314 -0.4620 -0.1447
  566MOL0     C76321   7.394  12.184   1.946  0.7576 -0.2136  0.0979
  566MOL0     C76322   7.513  12.169   2.017 -0.2491 -0.7292  0.5060
  566MOL0     O76323   7.632  12.162   2.347 -0.3495 -0.2252 -0.8441
  566MOL0     C76324   7.936  12.032   2.209  0.5232  0.3339 -0.1803
  566MOL0     C76325   8.074  12.036   2.229 -0.2500 -0.1675 -0.2358
  566MOL0     N76326   8.790  11.811   2.308  0.4976 -0.3918 -0.2223
  566MOL0     N76327   8.811  11.718   2.392  0.4131  0.4733 -0.5606
  566MOL0     C76328   7.562  11.466   2.939 -0.4475 -0.9006 -1.3051
  566MOL0     C76329   7.465  11.394   3.019 -0.4605 -0.0842 -0.1754
  566MOL0     C76330   7.304  11.136   3.380  0.0875  0.0083  0.2843
  566MOL0     C76331   7.170  11.157   3.339 -0.3785 -0.1260 -1.2455
  566MOL0     C76332   7.053  11.139   3.423 -0.2336 -0.9810  0.4722
  566MOL0     C76333   7.072  11.092   3.548 -0.2328 -0.3785 -0.9965
  566MOL0     O76334   6.977  11.082   3.654 -0.0537  0.2754 -0.4856
  566MOL0     C76335   6.839  11.090   3.610 -0.4159 -0.2226  1.2136
  566MOL0     C76336   6.728  11.085   3.716  0.6000 -0.0604 -0.5450
  566MOL0     C76337   6.588  11.079   3.646  0.6973 -0.1328 -0.4197
  566MOL0     C76338   6.478  11.090   3.751 -0.3047 -0.1462  0.7545
  566MOL0     C76339   6.433  11.233   3.764 -0.6173  0.2305 -0.5969
  566MOL0     C76340   6.409  11.351   3.781  1.1460 -0.1313 -0.9736
  566MOL0     C76341   7.201  11.053   3.585 -0.7229 -0.0694 -0.5930
  566MOL0     C76342   7.314  11.076   3.506 -0.2827 -0.4484 -0.5402
  566MOL0     H76343   7.676  11.309   3.275  0.6763  0.7317 -0.2350
  566MOL0     H76344   7.848  11.368   3.111 -1.3319 -1.3717  3.5827
  566MOL0     H76345   7.949  11.595   3.017  5.0863 -2.6388  1.8758
  566MOL0     H76346   7.943  11.429   2.950 -1.2230  0.7476 -2.1712
  566MOL0     H76347   8.050  11.486   2.753  3.3796  0.5569  1.0661
  566MOL0     H76348   7.971  11.637   2.757 -0.1317  0.5406 -0.1114
  566MOL0     H76349   8.145  11.724   2.922  1.9557 -1.1586  2.0516
  566MOL0     H76350   8.206  11.560   2.964 -0.0922  0.4904  1.5338
  566MOL0     H76351   8.279  11.544   2.717 -2.1676  0.9100 -2.8308
  566MOL0     H76352   8.219  11.711   2.696 -0.7852  0.4719  1.3536
  566MOL0     H76353   8.379  11.809   2.836 -0.6185 -0.0223 -1.5275
  566MOL0     H76354   8.439  11.649   2.890  2.1516 -0.7204 -0.7422
  566MOL0     H76355   8.495  11.613   2.648 -2.1643  0.0347  0.2554
  566MOL0     H76356   8.477  11.794   2.618 -0.4359  1.1461  1.3933
  566MOL0     H76357   8.648  11.851   2.770 -1.8644 -0.6377  0.7122
  566MOL0     H76358   8.654  11.697   2.831  1.3632  2.6941  1.1612
  566MOL0     H76359   8.732  11.589   2.631 -1.3134 -0.3950 -0.7684
  566MOL0     H76360   8.848  11.711   2.698 -0.5999  1.9412  0.0169
  566MOL0     H76361   8.742  11.974   2.587  1.4477 -0.3692  0.8050
  566MOL0     H76362   8.740  12.133   2.406 -1.6733 -0.1281  0.4385
  566MOL0     H76363   8.813  12.083   2.245 -0.2741  1.9010 -0.4027
  566MOL0     H76364   8.604  11.973   2.197  0.4633  2.2336 -2.1661
  566MOL0     H76365   8.584  12.144   2.204 -0.5645  0.5412  0.5779
  566MOL0     H76366   8.492  12.144   2.412 -0.2349  1.0847 -3.0864
  566MOL0     H76367   8.503  11.964   2.441  1.8810 -0.2220 -0.6840
  566MOL0     H76368   8.350  11.928   2.257  3.4679 -0.7136 -0.3721
  566MOL0     H76369   8.360  12.101   2.208  1.9942  0.0521 -0.2204
  566MOL0     H76370   8.079  12.189   2.531 -0.0635 -0.0675 -0.1506
  566MOL0     H76371   7.896  12.250   2.609 -1.4923 -1.4694  1.0375
  566MOL0     H76372   7.756  12.271   2.504 -3.7644 -2.1614  4.2399
  566MOL0     H76373   7.770  12.125   2.575 -2.6015 -0.3096 -3.1373
  566MOL0     H76374   7.442  11.877   2.186 -0.7812  0.1106  0.2298
  566MOL0     H76375   7.225  11.915   2.071  1.4320 -0.9147  4.3810
  566MOL0     H76376   7.164  12.306   1.920 -0.3843 -0.3297  0.4752
  566MOL0     H76377   7.161  12.232   1.757  1.1059  1.0262 -0.2080
  566MOL0     H76378   6.936  12.186   1.757  1.2623 -0.7554  0.2605
  566MOL0     H76379   6.915  12.201   1.934  3.0840  0.1383  2.4806
  566MOL0     H76380   7.010  12.458   1.819 -2.2730  1.9300 -1.0923
  566MOL0     H76381   6.885  12.425   1.932 -0.6381 -3.4197 -0.2871
  566MOL0     H76382   6.849  12.365   1.635  0.3831 -1.3024  0.7309
  566MOL0     H76383   6.718  12.343   1.745 -2.0742  2.3480 -0.3662
  566MOL0     H76384   6.823  12.625   1.710  2.7509 -1.5437  1.7838
  566MOL0     H76385   6.685  12.584   1.793 -0.7082 -2.2682  0.0479
  566MOL0     H76386   6.711  12.490   1.505  0.0280 -0.2712  0.8230
  566MOL0     H76387   6.575  12.488   1.610  0.4067 -0.4225  1.0069
  566MOL0     H76388   6.736  12.721   1.506 -1.1002 -1.1232 -1.9341
  566MOL0     H76389   6.618  12.743   1.642  2.1475 -1.4326  2.6174
  566MOL0     H76390   6.571  12.664   1.338 -1.5517 -2.0389  0.5150
  566MOL0     H76391   6.526  12.815   1.416 -2.7915  0.1337  0.1231
  566MOL0     H76392   7.384  12.260   1.869 -0.9066 -2.0371 -1.6138
  566MOL0     H76393   7.593  12.242   2.002  1.4747 -2.6395 -0.0556
  566MOL0     H76394   7.895  11.977   2.125 -2.4417 -1.8009  2.4404
  566MOL0     H76395   8.151  12.011   2.157  1.1723 -1.3851  1.5997
  566MOL0     H76396   7.532  11.520   2.849  1.0473  0.0885 -1.2381
  566MOL0     H76397   7.361  11.390   2.989  0.0522  0.2319 -2.1725
  566MOL0     H76398   7.157  11.197   3.239  0.2675 -1.4208 -1.8687
  566MOL0     H76399   6.970  11.205   3.396  1.2937  1.0022  0.3856
  566MOL0     H76400   6.831  11.190   3.566  0.9801 -0.4002  0.5163
  566MOL0     H76401   6.815  11.021   3.529 -0.6217  1.1593  0.0571
  566MOL0     H76402   6.743  11.177   3.773  1.7753 -1.7191  2.0349
  566MOL0     H76403   6.739  10.997   3.781  3.8890  0.8861  0.4052
  566MOL0     H76404   6.577  10.985   3.592 -2.1026  0.5153 -1.1196
  566MOL0     H76405   6.565  11.148   3.564 -3.2634 -3.9341 -2.8967
  566MOL0     H76406   6.511  11.050   3.848  0.1868 -2.8225 -0.4268
  566MOL0     H76407   6.387  11.038   3.720 -1.7655  0.7652  3.2127
  566MOL0     H76408   6.391  11.456   3.783  0.9574 -0.1713  0.5338
  566MOL0     H76409   7.221  11.008   3.682  1.0229  1.7833 -0.0196
  566MOL0     H76410   7.416  11.057   3.539  0.3179 -0.5601 -2.3343
  567MOL0     O76411   8.785   6.161   2.125 -0.1756  1.1480  0.4488
  567MOL0     C76412   8.759   6.276   2.153  0.5412  0.4278 -0.0661
  567MOL0     O76413   8.641   6.323   2.204  0.1399  0.3858  0.4208
  567MOL0     C76414   8.541   6.238   2.236 -0.0750 -0.5514  0.0021
  567MOL0     C76415   8.545   6.111   2.281  0.9413  0.9355 -0.3243
  567MOL0     C76416   8.431   6.038   2.313  0.3595 -0.1970  0.5152
  567MOL0     C76417   8.306   6.098   2.308  0.4209 -0.4369  0.7469
  567MOL0     O76418   8.188   6.035   2.335  0.4727  0.2648 -0.0128
  567MOL0     C76419   8.185   5.892   2.367  0.4733 -0.1897  0.9044
  567MOL0     C76420   8.055   5.834   2.296 -0.1373  0.9429 -0.3541
  567MOL0     C76421   8.021   5.690   2.324 -0.0016  0.8539 -0.5508
  567MOL0     C76422   7.966   5.660   2.465 -0.7386  0.0940 -0.7307
  567MOL0     C76423   7.967   5.519   2.502  0.0748  0.6156 -0.2465
  567MOL0     C76424   8.113   5.470   2.543 -0.1223 -0.1841 -0.5251
  567MOL0     C76425   8.110   5.320   2.567  0.2302 -0.0354 -0.9401
  567MOL0     C76426   8.166   5.243   2.434 -0.3696  0.2853  0.2575
  567MOL0     N76427   8.060   5.239   2.339 -0.1944  0.2082  0.8863
  567MOL0     C76428   8.045   5.324   2.238  0.5546 -0.5094  0.4050
  567MOL0     C76429   7.940   5.275   2.169 -0.4744  0.2810 -0.5525
  567MOL0     C76430   7.880   5.336   2.042 -0.2464 -0.7308  1.1601
  567MOL0     C76431   7.752   5.260   1.979 -0.5887  0.2331  0.5254
  567MOL0     C76432   7.798   5.138   1.899 -0.6365 -0.0992  0.0736
  567MOL0     C76433   7.684   5.045   1.880 -0.5083  0.3042  0.8975
  567MOL0     O76434   7.568   5.124   1.830 -0.2052 -0.4064  0.2047
  567MOL0     C76435   7.494   5.067   1.727  0.2107  0.2839  0.6551
  567MOL0     C76436   7.482   4.928   1.699  1.3510  0.2112 -0.8489
  567MOL0     C76437   7.388   4.881   1.605 -0.6783  0.3672  0.3689
  567MOL0     C76438   7.381   4.731   1.588 -0.4756 -0.3010 -0.2907
  567MOL0     C76439   7.321   4.969   1.516  0.6432  0.8807  0.1781
  567MOL0     C76440   7.217   4.935   1.419 -0.1920  0.8027 -0.4230
  567MOL0     O76441   7.110   5.028   1.390 -0.8245 -0.0339  0.4576
  567MOL0     C76442   7.007   5.006   1.296 -0.2689 -0.7178  0.2072
  567MOL0     C76443   6.875   5.036   1.319 -0.4278  1.5290  1.0807
  567MOL0     C76444   6.766   5.019   1.227 -0.1811 -0.2531  0.2012
  567MOL0     C76445   6.789   4.958   1.105  0.2798  0.1170 -0.4414
  567MOL0     O76446   6.683   4.937   1.027 -0.2486  0.1356 -0.1565
  567MOL0     C76447   6.703   4.930   0.888  0.2305  0.3325 -0.2034
  567MOL0     C76448   6.583   4.873   0.820 -0.4234  0.2348  0.1992
  567MOL0     C76449   6.456   4.950   0.874  0.6392  0.4220 -0.6589
  567MOL0     C76450   6.342   4.927   0.778  0.0095  0.3200  0.5110
  567MOL0     C76451   6.348   5.019   0.657  1.7193 -0.2147  0.5392
  567MOL0     C76452   6.207   5.022   0.594  1.4270  0.3714  0.2755
  567MOL0     C76453   6.194   5.113   0.473 -0.2464 -0.3398 -0.1090
  567MOL0     C76454   6.071   5.090   0.390  0.8143  0.2147  0.0614
  567MOL0    Cl76455   5.917   5.082   0.484  0.0507  0.2491  0.4596
  567MOL0     C76456   6.922   4.924   1.073 -1.0363 -0.0519 -0.2703
  567MOL0     C76457   7.028   4.947   1.169 -0.3147  0.5394 -0.3072
  567MOL0     O76458   7.231   4.827   1.365 -0.2968 -0.1189 -0.4838
  567MOL0     C76459   7.349   5.104   1.534  0.7160  0.1388  0.0074
  567MOL0     C76460   7.430   5.150   1.634  0.7687 -0.9629  0.1906
  567MOL0     N76461   7.899   5.149   2.226  0.4623 -0.2155  1.0282
  567MOL0     N76462   7.972   5.132   2.326 -0.1913  0.4437 -0.4520
  567MOL0     C76463   8.302   6.229   2.262 -0.0598 -0.6091 -0.3794
  567MOL0     C76464   8.414   6.295   2.222 -0.2355  0.4547  1.1203
  567MOL0     C76465   8.864   6.376   2.119  0.0882  1.0326  0.5668
  567MOL0     C76466   8.857   6.510   2.161 -0.0559  0.4217 -0.2335
  567MOL0     C76467   8.953   6.598   2.131  0.6376  0.2156 -0.2580
  567MOL0     C76468   9.062   6.564   2.052  0.2426  0.5877  0.7628
  567MOL0     O76469   9.153   6.661   2.006  0.1070 -0.0479 -0.3387
  567MOL0     C76470   9.244   6.634   1.905  0.6179 -0.1772 -0.2384
  567MOL0     C76471   9.353   6.733   1.888  0.8901 -0.5485 -0.1688
  567MOL0     C76472   9.319   6.848   1.787 -0.4544  0.1848 -0.4780
  567MOL0     C76473   9.445   6.905   1.733  0.8482 -0.5341  1.0506
  567MOL0     C76474   9.521   6.975   1.835  0.2872 -0.1236 -0.0337
  567MOL0     C76475   9.593   7.030   1.914  0.2743 -0.5742  0.9600
  567MOL0     C76476   9.067   6.430   2.005  0.0417 -0.3341 -0.2556
  567MOL0     C76477   8.967   6.342   2.029 -0.0797 -0.5473 -0.6537
  567MOL0     H76478   8.642   6.062   2.289  0.5663  0.3134  0.5578
  567MOL0     H76479   8.436   5.937   2.351  1.6825 -0.7265 -0.9535
  567MOL0     H76480   8.267   5.836   2.322  1.0561 -1.1465  3.0629
  567MOL0     H76481   8.184   5.888   2.476 -0.6702  0.7425  0.9510
  567MOL0     H76482   7.975   5.897   2.336 -1.5810 -0.9627 -0.1016
  567MOL0     H76483   8.060   5.844   2.187  0.8984  3.4752 -0.1435
  567MOL0     H76484   7.937   5.657   2.263  1.2207 -0.8739 -1.3813
  567MOL0     H76485   8.113   5.636   2.300  1.7322  2.6457  1.6275
  567MOL0     H76486   8.025   5.710   2.543  1.7337 -0.5264 -2.0936
  567MOL0     H76487   7.861   5.686   2.480 -0.7948 -0.9541  0.9811
  567MOL0     H76488   7.902   5.502   2.588  2.6502  2.6567  2.3294
  567MOL0     H76489   7.936   5.465   2.412  0.3413 -0.7149  0.4359
  567MOL0     H76490   8.184   5.506   2.468 -0.8713  0.8456 -0.7762
  567MOL0     H76491   8.136   5.516   2.639 -4.2615 -1.8452  1.5009
  567MOL0     H76492   8.179   5.304   2.650 -0.9564  1.3550  0.3620
  567MOL0     H76493   8.017   5.280   2.607 -0.2056  0.3173 -1.5927
  567MOL0     H76494   8.211   5.143   2.440  1.9397  1.3333  1.7478
  567MOL0     H76495   8.245   5.309   2.395  0.4856 -1.1655 -0.5491
  567MOL0     H76496   8.095   5.418   2.216 -0.1002 -0.8028 -2.7813
  567MOL0     H76497   7.853   5.441   2.060  0.1822 -0.6438  1.3015
  567MOL0     H76498   7.961   5.341   1.969  2.2121 -1.8688  3.6672
  567MOL0     H76499   7.692   5.329   1.918  1.2142  1.8095  0.4318
  567MOL0     H76500   7.699   5.215   2.064 -0.6241 -0.0278  0.3662
  567MOL0     H76501   7.886   5.088   1.941  1.2093  0.2199 -3.1071
  567MOL0     H76502   7.838   5.181   1.807 -2.9511  0.2828 -0.8083
  567MOL0     H76503   7.652   4.995   1.972 -0.2314 -1.8176 -0.0937
  567MOL0     H76504   7.712   4.961   1.815 -1.6118 -0.1258  0.9507
  567MOL0     H76505   7.538   4.861   1.763 -0.4501  0.7973  1.5052
  567MOL0     H76506   7.444   4.688   1.667  2.1214  2.0081 -0.9654
  567MOL0     H76507   7.290   4.671   1.581  1.3282 -3.4173  1.0032
  567MOL0     H76508   7.433   4.713   1.494 -0.1040 -0.2640 -0.0949
  567MOL0     H76509   6.861   5.078   1.418 -1.1185  3.9678  0.0264
  567MOL0     H76510   6.667   5.059   1.246 -1.5567 -2.0938 -2.4577
  567MOL0     H76511   6.718   5.027   0.839 -2.1112  1.3778  1.0033
  567MOL0     H76512   6.787   4.865   0.860  1.2210  0.1323  2.8849
  567MOL0     H76513   6.580   4.871   0.711 -0.1465 -5.1701 -0.0010
  567MOL0     H76514   6.582   4.767   0.847  1.3429 -0.1475 -1.0768
  567MOL0     H76515   6.481   5.056   0.885 -1.2770  0.9281 -0.7585
  567MOL0     H76516   6.429   4.905   0.970  0.0255 -2.0737 -1.9121
  567MOL0     H76517   6.342   4.824   0.743 -2.1223 -0.5142  2.7191
  567MOL0     H76518   6.252   4.944   0.837  0.1709  0.5681  0.6901
  567MOL0     H76519   6.421   4.993   0.581 -1.1426 -0.3701 -2.3557
  567MOL0     H76520   6.365   5.123   0.687  2.1385  0.5285 -2.0598
  567MOL0     H76521   6.183   4.920   0.563 -0.1352  1.2025 -1.4916
  567MOL0     H76522   6.143   5.054   0.677  0.6675 -1.8822  0.6385
  567MOL0     H76523   6.281   5.101   0.408 -1.0448 -1.3187 -1.0312
  567MOL0     H76524   6.188   5.217   0.506  4.9134  0.5319 -0.9672
  567MOL0     H76525   6.075   4.990   0.346 -0.2186 -0.2159  0.8927
  567MOL0     H76526   6.064   5.164   0.310  0.7781  0.4152  0.2489
  567MOL0     H76527   6.941   4.880   0.976  0.5880 -1.8224  0.7824
  567MOL0     H76528   7.124   4.912   1.131 -2.1116 -0.9765 -3.9109
  567MOL0     H76529   7.304   5.181   1.473  2.0869  1.9263  1.1320
  567MOL0     H76530   7.452   5.252   1.662 -0.5099 -0.2625 -1.2075
  567MOL0     H76531   8.210   6.284   2.248  1.3970  1.8216 -0.9870
  567MOL0     H76532   8.405   6.400   2.199  2.3806  0.8233  1.5008
  567MOL0     H76533   8.772   6.554   2.212  1.1203  2.0784  0.3381
  567MOL0     H76534   8.942   6.702   2.159 -0.2903 -0.1975  0.9920
  567MOL0     H76535   9.292   6.536   1.894  0.6487  0.1077 -3.7188
  567MOL0     H76536   9.176   6.646   1.820  0.5477  1.3722  0.0232
  567MOL0     H76537   9.443   6.681   1.853  0.8052 -1.3506  0.7908
  567MOL0     H76538   9.384   6.774   1.985 -2.2183  0.6506  0.4223
  567MOL0     H76539   9.266   6.931   1.833  2.7188  1.4375  1.2214
  567MOL0     H76540   9.258   6.825   1.699  1.4367  0.9576 -2.0702
  567MOL0     H76541   9.422   6.981   1.657  1.6215 -3.0987 -1.9936
  567MOL0     H76542   9.504   6.820   1.696 -0.8960 -2.3530  2.2407
  567MOL0     H76543   9.680   7.061   1.970  0.9756 -2.6850  1.1303
  567MOL0     H76544   9.146   6.386   1.945 -0.0155 -1.9052  0.7519
  567MOL0     H76545   8.974   6.249   1.973  0.5415  0.5005 -2.3885
  568MOL0     O76546   1.476  11.032   4.912 -0.0391 -0.3426 -0.3326
  568MOL0     C76547   1.396  11.056   5.008 -0.2429 -0.4717  0.0595
  568MOL0     O76548   1.260  11.043   5.006  0.0911 -0.2038 -0.0770
  568MOL0     C76549   1.190  10.994   4.903  0.0558  0.9912  0.9623
  568MOL0     C76550   1.138  10.871   4.911  0.3676 -0.2044  0.4386
  568MOL0     C76551   1.062  10.822   4.797 -0.9404  0.3459  0.2530
  568MOL0     C76552   1.037  10.899   4.683 -0.8696 -0.4999 -0.0961
  568MOL0     O76553   0.946  10.867   4.580  0.0458 -0.1007  0.0436
  568MOL0     C76554   0.818  10.843   4.628  0.2753 -0.5902 -0.1203
  568MOL0     C76555   0.712  10.816   4.523  0.1415 -0.4479 -0.6564
  568MOL0     C76556   0.759  10.705   4.442 -0.8294 -0.2840 -0.4483
  568MOL0     C76557   0.647  10.648   4.365 -0.5960 -0.3968 -0.4223
  568MOL0     C76558   0.686  10.515   4.307 -1.0514  0.2249  0.3281
  568MOL0     C76559   0.565  10.470   4.212 -0.5285 -1.0291 -0.4668
  568MOL0     C76560   0.461  10.390   4.289 -0.3141  0.3719  0.1879
  568MOL0     C76561   0.330  10.383   4.204 -0.7206 -0.3079 -0.7554
  568MOL0     N76562   0.233  10.311   4.286  0.2424 -0.9054  0.4046
  568MOL0     C76563   0.171  10.366   4.398  0.2432  0.6041  0.2671
  568MOL0     C76564   0.087  10.267   4.435 -0.4554 -0.1418  0.1911
  568MOL0     C76565   0.007  10.263   4.554 -0.3337  0.0895  0.2440
  568MOL0     C76566  -0.111  10.360   4.559 -0.4338  0.7512 -0.1963
  568MOL0     C76567  -0.229  10.281   4.507 -0.4732 -0.4771 -0.1132
  568MOL0     C76568  -0.361  10.361   4.509  0.6567 -0.0719 -0.6455
  568MOL0     O76569  -0.470  10.272   4.474 -0.0665 -0.0125 -0.8284
  568MOL0     C76570  -0.556  10.306   4.374  0.1169 -1.0100 -0.6204
  568MOL0     C76571  -0.611  10.424   4.375  0.1490 -0.2329  0.8103
  568MOL0     C76572  -0.700  10.466   4.271 -0.0927  0.7317 -0.0072
  568MOL0     C76573  -0.781  10.600   4.300 -0.0349  0.0630 -0.8420
  568MOL0     C76574  -0.729  10.376   4.165  0.5490 -0.1836  0.3931
  568MOL0     C76575  -0.831  10.405   4.053 -0.3087  0.0262 -0.5876
  568MOL0     O76576  -0.935  10.493   4.086  0.1527 -0.3468 -0.4855
  568MOL0     C76577  -1.039  10.502   4.006 -0.2082  0.6907  0.2570
  568MOL0     C76578  -1.037  10.609   3.908  0.1966  0.2288  0.3743
  568MOL0     C76579  -1.144  10.634   3.822  0.1322 -0.9743  0.0858
  568MOL0     C76580  -1.261  10.564   3.837  0.0923  0.2207  0.4194
  568MOL0     O76581  -1.361  10.601   3.748  0.3487  0.3286 -0.3224
  568MOL0     C76582  -1.493  10.547   3.778  0.9541  0.2434 -0.6508
  568MOL0     C76583  -1.573  10.587   3.654  0.8280  0.3791  0.2909
  568MOL0     C76584  -1.649  10.721   3.662 -0.3732 -0.3369  0.2653
  568MOL0     C76585  -1.766  10.709   3.762  0.2832  0.1474 -0.4289
  568MOL0     C76586  -1.881  10.796   3.726  0.6396 -0.0503  0.2229
  568MOL0     C76587  -1.838  10.942   3.749  0.7591  0.0872  0.7118
  568MOL0     C76588  -1.862  10.985   3.892 -0.0346 -0.2395 -0.0741
  568MOL0     C76589  -2.009  11.023   3.929 -0.9806 -0.6547  0.9542
  568MOL0    Cl76590  -2.044  11.155   3.829 -0.0007  0.1006  0.1379
  568MOL0     C76591  -1.263  10.452   3.930 -0.2545 -0.2441  0.2167
  568MOL0     C76592  -1.150  10.424   4.013  0.6709  0.1477  1.0895
  568MOL0     O76593  -0.817  10.337   3.949 -0.7440  0.5561  0.3155
  568MOL0     C76594  -0.660  10.256   4.168 -0.3665  0.5489  0.5733
  568MOL0     C76595  -0.573  10.210   4.266 -0.4633 -1.0932 -0.7305
  568MOL0     N76596   0.085  10.177   4.332  0.3391 -0.1230 -0.5097
  568MOL0     N76597   0.176  10.198   4.245 -0.3130  0.2737 -0.1291
  568MOL0     C76598   1.101  11.024   4.675 -0.3322 -0.1033 -0.2203
  568MOL0     C76599   1.177  11.073   4.785  0.1063  0.3895  0.3327
  568MOL0     C76600   1.449  11.135   5.121 -0.2917  0.1259  0.8159
  568MOL0     C76601   1.362  11.199   5.211  0.0356 -0.4889  0.7513
  568MOL0     C76602   1.407  11.282   5.312  0.6678 -0.6576 -0.1839
  568MOL0     C76603   1.543  11.316   5.323  0.3557 -0.9356 -0.9168
  568MOL0     O76604   1.575  11.388   5.432  0.0094 -0.4944 -0.5207
  568MOL0     C76605   1.696  11.462   5.428  0.5007  0.3755  0.0108
  568MOL0     C76606   1.810  11.385   5.486 -0.9495 -0.1432  0.0929
  568MOL0     C76607   1.923  11.482   5.515 -0.0187 -0.3255  0.2852
  568MOL0     C76608   2.046  11.400   5.546 -0.1101  0.2821  0.0558
  568MOL0     C76609   2.173  11.472   5.557 -0.0107 -0.2003 -0.7494
  568MOL0     C76610   2.280  11.530   5.560  0.3871 -0.4498 -0.8497
  568MOL0     C76611   1.629  11.258   5.226 -0.4536  0.2812  0.0148
  568MOL0     C76612   1.585  11.164   5.131  0.3074 -0.1420  0.0356
  568MOL0     H76613   1.149  10.813   5.002  4.1430 -2.7830 -1.4032
  568MOL0     H76614   1.012  10.728   4.817 -0.0535  0.0200  1.0022
  568MOL0     H76615   0.823  10.756   4.694  3.5624  0.1506  0.7645
  568MOL0     H76616   0.797  10.933   4.686  2.9097  0.4001 -0.5759
  568MOL0     H76617   0.616  10.789   4.568 -0.2458 -1.6021 -2.1122
  568MOL0     H76618   0.686  10.897   4.455  1.4201  0.4449 -0.1236
  568MOL0     H76619   0.827  10.748   4.369 -0.9338  1.0464  0.2157
  568MOL0     H76620   0.819  10.630   4.495  1.1869  0.0352 -2.1666
  568MOL0     H76621   0.566  10.630   4.436  0.2510 -2.1814  0.1730
  568MOL0     H76622   0.600  10.714   4.292  1.0700  1.2160 -0.1109
  568MOL0     H76623   0.777  10.528   4.247 -1.3166 -2.5796 -0.7868
  568MOL0     H76624   0.704  10.437   4.382 -1.2601  1.7571  2.0632
  568MOL0     H76625   0.516  10.560   4.176 -0.6984  0.8997  3.9412
  568MOL0     H76626   0.599  10.423   4.119  2.7961  2.7465 -1.4896
  568MOL0     H76627   0.495  10.290   4.317 -1.4474 -0.2006 -0.4138
  568MOL0     H76628   0.438  10.441   4.384 -0.7852 -0.4037  0.4991
  568MOL0     H76629   0.347  10.326   4.113  2.3894 -1.5387  0.4718
  568MOL0     H76630   0.300  10.485   4.175 -0.5054 -0.5452 -1.8488
  568MOL0     H76631   0.192  10.462   4.444 -1.0596  0.5166  1.1059
  568MOL0     H76632  -0.016  10.160   4.580 -2.1504  0.2336 -0.6080
  568MOL0     H76633   0.076  10.303   4.629  0.9747  1.2661 -1.4950
  568MOL0     H76634  -0.086  10.446   4.495 -0.5502  0.1205 -1.1074
  568MOL0     H76635  -0.130  10.392   4.662 -1.2682  3.1407 -1.0356
  568MOL0     H76636  -0.238  10.180   4.548 -0.5037  1.2143  4.5181
  568MOL0     H76637  -0.208  10.247   4.405  0.1626 -1.7629  0.4243
  568MOL0     H76638  -0.361  10.454   4.452 -2.0177  2.5591  3.1109
  568MOL0     H76639  -0.379  10.398   4.611  1.3176 -3.9061  1.0742
  568MOL0     H76640  -0.587  10.484   4.462 -1.0469 -0.0509  1.0203
  568MOL0     H76641  -0.731  10.656   4.379 -3.1624  1.4845  0.3332
  568MOL0     H76642  -0.813  10.659   4.213 -3.0059 -2.3793 -1.5920
  568MOL0     H76643  -0.880  10.572   4.339  0.6476 -0.5423  0.4981
  568MOL0     H76644  -0.954  10.676   3.889 -0.5578  1.0146 -0.2302
  568MOL0     H76645  -1.129  10.711   3.747  0.4871 -0.5540  0.5862
  568MOL0     H76646  -1.485  10.440   3.797 -2.3966  0.0963  0.6197
  568MOL0     H76647  -1.534  10.593   3.868 -3.3257 -3.8327 -0.1449
  568MOL0     H76648  -1.508  10.600   3.567 -0.1676  0.6336 -0.4273
  568MOL0     H76649  -1.637  10.499   3.646  1.9644 -0.4333 -0.1300
  568MOL0     H76650  -1.694  10.740   3.564  1.3250  0.0641 -0.4596
  568MOL0     H76651  -1.580  10.797   3.700 -0.8147 -0.1413  0.7048
  568MOL0     H76652  -1.813  10.610   3.761  0.2094  0.0611  2.4055
  568MOL0     H76653  -1.743  10.722   3.868  0.7912  1.7611 -0.7163
  568MOL0     H76654  -1.967  10.773   3.790 -1.7209  0.6421 -2.4747
  568MOL0     H76655  -1.906  10.783   3.620 -0.4142  1.9854  0.1593
  568MOL0     H76656  -1.733  10.958   3.724  0.9183  0.4896  1.6168
  568MOL0     H76657  -1.887  11.013   3.681  0.4465  3.3974  4.0507
  568MOL0     H76658  -1.786  11.060   3.915  0.6292 -0.5482 -1.2037
  568MOL0     H76659  -1.842  10.895   3.951  0.1835 -0.6775 -0.8059
  568MOL0     H76660  -2.028  11.047   4.034 -2.1996  3.1973 -0.0013
  568MOL0     H76661  -2.074  10.942   3.892 -1.0191  0.1579 -0.8560
  568MOL0     H76662  -1.349  10.388   3.946  1.7512 -2.6969  2.0795
  568MOL0     H76663  -1.177  10.342   4.079  1.7356 -1.7416 -0.7093
  568MOL0     H76664  -0.675  10.192   4.082 -0.1046  0.2604  0.7437
  568MOL0     H76665  -0.515  10.118   4.264  2.1824  0.4597 -0.8481
  568MOL0     H76666   1.073  11.078   4.585 -1.4764 -0.0860  0.1335
  568MOL0     H76667   1.225  11.170   4.794 -2.4774  2.1602 -2.8775
  568MOL0     H76668   1.256  11.190   5.192 -0.6951  2.4865  2.7964
  568MOL0     H76669   1.335  11.328   5.379 -0.8219 -0.1272 -2.0699
  568MOL0     H76670   1.717  11.493   5.325 -2.0764 -1.1926 -1.0671
  568MOL0     H76671   1.669  11.552   5.484  2.2518 -0.2207  1.9344
  568MOL0     H76672   1.847  11.307   5.419  0.4624  0.9747 -0.4820
  568MOL0     H76673   1.764  11.338   5.574  1.5105 -0.4839  1.2850
  568MOL0     H76674   1.904  11.542   5.604  3.4757  0.6143  0.5498
  568MOL0     H76675   1.933  11.551   5.431  1.2007 -0.6748  0.1084
  568MOL0     H76676   2.055  11.317   5.475  1.9236  0.8189 -0.3961
  568MOL0     H76677   2.035  11.357   5.646 -0.0100 -0.0658 -0.0823
  568MOL0     H76678   2.371  11.585   5.559 -0.8111  1.6258 -0.4310
  568MOL0     H76679   1.734  11.284   5.226 -0.5061  0.4951 -0.5384
  568MOL0     H76680   1.651  11.116   5.060  1.4519 -0.5935  1.3445
  569MOL0     O76681   0.992   1.061   4.816 -0.2766 -0.1760 -0.5034
  569MOL0     C76682   1.077   1.010   4.747  0.4151 -0.3105 -0.5231
  569MOL0     O76683   1.065   0.888   4.677  0.1354  0.6940  0.0538
  569MOL0     C76684   0.939   0.829   4.695 -0.2572 -0.4200  0.0974
  569MOL0     C76685   0.830   0.881   4.626 -0.4373  0.2909 -0.1838
  569MOL0     C76686   0.705   0.826   4.628 -0.1269 -0.1620 -0.0363
  569MOL0     C76687   0.684   0.711   4.703  0.0138 -0.7513 -0.6228
  569MOL0     O76688   0.563   0.645   4.710 -0.5228  1.1068  0.1819
  569MOL0     C76689   0.449   0.668   4.623 -0.0255 -0.8736  0.1112
  569MOL0     C76690   0.314   0.618   4.686 -0.1758  0.8469 -0.3056
  569MOL0     C76691   0.208   0.599   4.573 -0.9833  0.2464 -0.3466
  569MOL0     C76692   0.079   0.575   4.644 -0.4264 -0.5930  0.7256
  569MOL0     C76693  -0.039   0.585   4.553  0.4637  0.6263 -0.6218
  569MOL0     C76694  -0.021   0.502   4.423 -0.0256 -0.3994 -0.8309
  569MOL0     C76695  -0.140   0.499   4.328 -0.7802 -0.1569 -0.1386
  569MOL0     C76696  -0.265   0.444   4.400 -0.4395 -0.4031 -0.0210
  569MOL0     N76697  -0.399   0.493   4.359 -0.4577 -0.5787 -0.1359
  569MOL0     C76698  -0.510   0.441   4.410  0.0407  0.2647 -0.4927
  569MOL0     C76699  -0.613   0.526   4.403  0.3106 -0.5404  0.2558
  569MOL0     C76700  -0.750   0.493   4.450  0.0881 -0.1272 -0.4168
  569MOL0     C76701  -0.825   0.405   4.354  0.2670 -0.0359 -2.0670
  569MOL0     C76702  -0.949   0.328   4.416  0.3692  0.9618  0.2967
  569MOL0     C76703  -1.072   0.423   4.406 -0.2532  0.2341 -0.1004
  569MOL0     O76704  -1.184   0.337   4.402 -0.4986  0.3105  0.5197
  569MOL0     C76705  -1.318   0.375   4.405  0.1361  0.1377  0.1958
  569MOL0     C76706  -1.414   0.286   4.451  0.2026  0.1892  0.5772
  569MOL0     C76707  -1.548   0.327   4.478 -0.3550  0.5707  0.8783
  569MOL0     C76708  -1.618   0.222   4.551  1.3139  0.4124  0.8951
  569MOL0     C76709  -1.593   0.449   4.433  0.4596  0.8051 -0.3576
  569MOL0     C76710  -1.729   0.494   4.464  1.1213 -0.0387  0.2238
  569MOL0     O76711  -1.744   0.630   4.460 -0.2356 -0.0193 -0.6858
  569MOL0     C76712  -1.873   0.676   4.492 -1.2099  0.0936  0.5753
  569MOL0     C76713  -1.899   0.693   4.630  0.3516  0.0268  0.1111
  569MOL0     C76714  -2.009   0.777   4.663 -0.7668 -0.5195 -0.8199
  569MOL0     C76715  -2.098   0.817   4.562 -0.3849  0.1674  0.4601
  569MOL0     O76716  -2.207   0.891   4.593  0.4145 -0.3534  0.1777
  569MOL0     C76717  -2.330   0.865   4.529  0.7214 -0.1601  0.2993
  569MOL0     C76718  -2.449   0.912   4.606 -0.6734 -0.6817 -1.1678
  569MOL0     C76719  -2.582   0.920   4.520  0.0452  0.1337  0.1032
  569MOL0     C76720  -2.695   0.998   4.595 -0.4133 -0.8906  0.0722
  569MOL0     C76721  -2.697   1.146   4.561  0.1195 -0.1398 -0.1411
  569MOL0     C76722  -2.743   1.176   4.417 -0.3739 -0.4211 -0.1148
  569MOL0     C76723  -2.804   1.313   4.376 -0.4843 -0.4858 -0.7816
  569MOL0     C76724  -2.958   1.335   4.404  0.0895 -0.5029 -0.2370
  569MOL0    Cl76725  -3.015   1.496   4.361  0.2632 -0.5089 -0.5389
  569MOL0     C76726  -2.072   0.781   4.434  1.2315  0.3976  0.4462
  569MOL0     C76727  -1.955   0.719   4.386 -0.1845  0.7198 -0.3222
  569MOL0     O76728  -1.823   0.417   4.493 -0.4184 -0.5684  0.0689
  569MOL0     C76729  -1.498   0.538   4.380  0.6751 -0.0829 -0.0438
  569MOL0     C76730  -1.359   0.502   4.359 -0.5992  0.2392 -0.8295
  569MOL0     N76731  -0.567   0.639   4.331 -0.6620 -0.2800  0.1823
  569MOL0     N76732  -0.432   0.618   4.318  0.5040  0.1230  0.5714
  569MOL0     C76733   0.789   0.658   4.781  0.2174  0.2597  0.2992
  569MOL0     C76734   0.914   0.717   4.771 -0.1372  0.2203 -0.3289
  569MOL0     C76735   1.203   1.083   4.708 -0.9151 -0.0754 -0.4318
  569MOL0     C76736   1.240   1.190   4.792 -0.4615 -1.4509  0.1961
  569MOL0     C76737   1.366   1.257   4.759 -0.0981  0.2779  0.6043
  569MOL0     C76738   1.446   1.218   4.654 -0.7997 -0.0037 -0.2640
  569MOL0     O76739   1.562   1.273   4.618  0.2515  0.8921 -0.2235
  569MOL0     C76740   1.638   1.352   4.719  0.7001  1.4294  0.7000
  569MOL0     C76741   1.779   1.388   4.676  0.9803 -0.9543 -0.6914
  569MOL0     C76742   1.763   1.465   4.551  0.4098  0.0367  0.6141
  569MOL0     C76743   1.894   1.524   4.503  0.1281  0.3702 -0.2666
  569MOL0     C76744   1.960   1.614   4.603  0.1481 -0.5935  0.6430
  569MOL0     C76745   2.019   1.690   4.679 -0.8253  0.4140 -1.0105
  569MOL0     C76746   1.407   1.109   4.576 -0.1965  0.1020  0.4385
  569MOL0     C76747   1.290   1.041   4.601  0.0263 -0.3652  0.2016
  569MOL0     H76748   0.859   0.954   4.551  1.8014  0.7474  1.0547
  569MOL0     H76749   0.630   0.871   4.564 -0.0832 -0.4960 -0.3283
  569MOL0     H76750   0.446   0.774   4.595  0.2049 -1.0272 -0.4964
  569MOL0     H76751   0.453   0.620   4.525 -1.7661  0.7572 -0.8184
  569MOL0     H76752   0.334   0.522   4.734  0.3762  1.7542  1.3761
  569MOL0     H76753   0.280   0.687   4.764  1.7408 -1.3202  2.6782
  569MOL0     H76754   0.202   0.691   4.515  1.7990  0.1960 -0.8365
  569MOL0     H76755   0.230   0.516   4.505 -3.2152 -1.8599  1.3291
  569MOL0     H76756   0.076   0.470   4.673 -1.1319 -1.5837 -2.5845
  569MOL0     H76757   0.074   0.652   4.723  2.5810  0.6767 -0.1969
  569MOL0     H76758  -0.133   0.576   4.608 -0.1492  0.6178 -1.6423
  569MOL0     H76759  -0.046   0.688   4.516  3.4720  1.2275  0.2233
  569MOL0     H76760   0.065   0.539   4.368  2.8210 -1.3160  2.6015
  569MOL0     H76761   0.008   0.404   4.464 -0.2478  0.3579  1.2700
  569MOL0     H76762  -0.152   0.604   4.299 -0.6544  1.1301  3.9099
  569MOL0     H76763  -0.124   0.436   4.240 -0.6690  3.0435 -2.5925
  569MOL0     H76764  -0.261   0.448   4.509  0.0430  1.2238 -0.0739
  569MOL0     H76765  -0.274   0.337   4.378  1.1311 -0.8532  1.3106
  569MOL0     H76766  -0.521   0.350   4.469  2.1786  1.2771  1.6403
  569MOL0     H76767  -0.745   0.451   4.551  2.5853  3.1023  1.0036
  569MOL0     H76768  -0.794   0.593   4.456  0.9731  0.2307  0.3534
  569MOL0     H76769  -0.752   0.328   4.328 -0.2580 -0.5878 -1.9389
  569MOL0     H76770  -0.848   0.457   4.261 -1.2318  0.5266 -1.4108
  569MOL0     H76771  -0.933   0.296   4.520  0.4233 -0.3925 -0.1068
  569MOL0     H76772  -0.969   0.243   4.350  2.4562  1.9733 -1.7606
  569MOL0     H76773  -1.081   0.488   4.319 -1.6629 -0.7813 -0.7653
  569MOL0     H76774  -1.083   0.490   4.491 -0.4248  0.6417 -0.4389
  569MOL0     H76775  -1.374   0.187   4.468 -1.2838 -1.0186 -2.2547
  569MOL0     H76776  -1.563   0.128   4.562  3.8941  1.7717  0.2206
  569MOL0     H76777  -1.643   0.259   4.650 -0.6630 -0.4818  0.7850
  569MOL0     H76778  -1.713   0.199   4.500  1.5012 -1.6192  1.3822
  569MOL0     H76779  -1.821   0.668   4.701 -2.5124 -0.0622  3.4494
  569MOL0     H76780  -2.027   0.792   4.769  2.5686 -0.7595 -0.1099
  569MOL0     H76781  -2.339   0.926   4.439 -1.8831 -0.9323 -0.0732
  569MOL0     H76782  -2.337   0.760   4.498  2.1068 -0.2769  0.3167
  569MOL0     H76783  -2.455   0.845   4.692  1.5313 -3.1731 -2.8017
  569MOL0     H76784  -2.431   1.011   4.649 -1.5162 -0.2067 -1.8531
  569MOL0     H76785  -2.616   0.817   4.507 -2.7076  0.8760  0.8269
  569MOL0     H76786  -2.558   0.957   4.420 -0.6939 -2.6274 -1.1735
  569MOL0     H76787  -2.787   0.944   4.570  1.0436 -2.8821 -1.2440
  569MOL0     H76788  -2.674   0.995   4.702 -2.7562 -2.6501  0.5683
  569MOL0     H76789  -2.607   1.201   4.589  0.2810 -1.6433  2.6209
  569MOL0     H76790  -2.772   1.187   4.629 -1.0919 -0.4652 -1.2482
  569MOL0     H76791  -2.660   1.154   4.348  0.3809 -2.0577  1.2460
  569MOL0     H76792  -2.828   1.111   4.395 -0.3713 -0.4686  0.0182
  569MOL0     H76793  -2.776   1.322   4.270 -0.5491  0.1927 -0.7472
  569MOL0     H76794  -2.752   1.391   4.433 -0.8787 -1.8652  1.6060
  569MOL0     H76795  -2.974   1.317   4.510 -1.7271  2.5637  0.1273
  569MOL0     H76796  -3.019   1.260   4.352  0.3079 -2.4051  2.1207
  569MOL0     H76797  -2.143   0.804   4.355 -0.0615 -1.0945  1.1202
  569MOL0     H76798  -1.950   0.697   4.280 -0.5503  0.0160 -0.2015
  569MOL0     H76799  -1.525   0.639   4.354 -0.2860 -0.3706 -0.2041
  569MOL0     H76800  -1.285   0.564   4.309  0.4413 -1.3725 -1.3642
  569MOL0     H76801   0.774   0.573   4.848  0.2985 -0.1036 -0.1395
  569MOL0     H76802   0.993   0.669   4.830  0.7666  0.0968 -1.5982
  569MOL0     H76803   1.179   1.229   4.873  0.0163  1.6955 -0.8197
  569MOL0     H76804   1.406   1.334   4.824  2.5353 -0.8774  0.4702
  569MOL0     H76805   1.576   1.435   4.754 -0.3380  0.6403  0.7829
  569MOL0     H76806   1.656   1.282   4.802 -1.2607  2.5593  2.1617
  569MOL0     H76807   1.836   1.294   4.671 -2.5312 -3.3786  1.0907
  569MOL0     H76808   1.822   1.449   4.755  0.2197  0.3370 -1.2462
  569MOL0     H76809   1.694   1.549   4.562  0.6250  0.7934 -2.6397
  569MOL0     H76810   1.710   1.404   4.476  0.3890 -1.4038  1.7511
  569MOL0     H76811   1.879   1.574   4.407 -0.9875  1.2254  0.3332
  569MOL0     H76812   1.968   1.447   4.478  1.2928  1.1835  0.5715
  569MOL0     H76813   2.058   1.764   4.746  0.3503 -1.7913  0.9251
  569MOL0     H76814   1.467   1.077   4.491 -2.2140 -0.6935 -0.7769
  569MOL0     H76815   1.256   0.956   4.543 -0.6840 -1.5838  2.2795
  570MOL0     O76816   1.855   0.791   7.546 -0.2633 -0.6138  0.2939
  570MOL0     C76817   1.872   0.797   7.663  0.1023 -0.2353 -0.4942
  570MOL0     O76818   1.781   0.795   7.760  0.4577 -0.0337  0.2100
  570MOL0     C76819   1.646   0.839   7.734 -0.4893  0.2724  0.3037
  570MOL0     C76820   1.610   0.942   7.639  0.0521  1.1318  0.6173
  570MOL0     C76821   1.476   0.968   7.613  0.4448  0.6203  0.1238
  570MOL0     C76822   1.376   0.904   7.688  0.9252  0.4827  0.2614
  570MOL0     O76823   1.251   0.926   7.639 -0.0214 -0.2393 -0.9692
  570MOL0     C76824   1.139   0.924   7.733  0.6928  0.3860  0.5842
  570MOL0     C76825   1.007   0.953   7.664  0.4558  0.3850  0.2384
  570MOL0     C76826   0.908   1.026   7.748  0.5177  0.2841  0.5281
  570MOL0     C76827   0.766   1.039   7.691  0.4453  0.3211  1.0811
  570MOL0     C76828   0.711   1.186   7.718 -0.3792  0.5344 -0.2133
  570MOL0     C76829   0.583   1.224   7.641  0.3121  0.3482 -0.2268
  570MOL0     C76830   0.568   1.381   7.615  0.2672 -0.2008 -0.2009
  570MOL0     C76831   0.518   1.448   7.748 -0.1677 -0.1786 -0.1492
  570MOL0     N76832   0.522   1.594   7.760 -0.2602 -0.0017 -0.3341
  570MOL0     C76833   0.594   1.680   7.682  0.2348 -0.7112  0.4755
  570MOL0     C76834   0.560   1.804   7.720 -0.5937 -0.1370  0.2768
  570MOL0     C76835   0.624   1.923   7.651 -0.0728  0.4874 -0.2184
  570MOL0     C76836   0.757   1.970   7.722  0.4156  0.0936  0.1047
  570MOL0     C76837   0.871   1.871   7.700 -0.2565  0.4379 -0.4061
  570MOL0     C76838   0.897   1.775   7.821  0.3738 -0.7949 -0.1985
  570MOL0     O76839   0.940   1.642   7.766  0.0489  0.2120 -0.1844
  570MOL0     C76840   1.072   1.608   7.746  0.1934 -0.4689 -0.6338
  570MOL0     C76841   1.097   1.480   7.722  0.2298  0.4605  0.0322
  570MOL0     C76842   1.227   1.430   7.686 -0.1599 -0.5713  0.4598
  570MOL0     C76843   1.250   1.285   7.651  0.1383  0.6829 -0.1353
  570MOL0     C76844   1.336   1.524   7.681  0.0341  1.1219  0.0558
  570MOL0     C76845   1.478   1.490   7.648  0.6814 -0.5492  1.1536
  570MOL0     O76846   1.508   1.377   7.593 -0.4580 -0.1489 -0.3294
  570MOL0     C76847   1.642   1.354   7.576 -0.4786  0.6400 -0.9543
  570MOL0     C76848   1.726   1.425   7.494 -0.1113  0.4952  0.4605
  570MOL0     C76849   1.862   1.384   7.489  0.0171 -0.6850 -0.1097
  570MOL0     C76850   1.924   1.280   7.570 -0.8237 -0.2597  0.7478
  570MOL0     O76851   2.067   1.266   7.565 -0.2465 -0.4462  0.0665
  570MOL0     C76852   2.104   1.120   7.579  0.5405  0.4272 -0.2873
  570MOL0     C76853   2.259   1.101   7.558 -0.4720  0.7110  0.3807
  570MOL0     C76854   2.308   1.163   7.424  0.0893  0.4015 -0.4007
  570MOL0     C76855   2.456   1.134   7.410  0.9190 -0.2409  0.0568
  570MOL0     C76856   2.497   1.212   7.291  1.1290  0.0771  0.2043
  570MOL0     C76857   2.645   1.182   7.270  0.2012 -0.1870 -0.6284
  570MOL0     C76858   2.718   1.289   7.346 -0.0201 -0.4679  0.0725
  570MOL0     C76859   2.863   1.280   7.308  0.2708  0.6074  0.7235
  570MOL0    Cl76860   2.947   1.373   7.424 -0.4271  0.2633  0.1090
  570MOL0     C76861   1.833   1.201   7.643  0.6016 -0.7357 -0.0466
  570MOL0     C76862   1.698   1.241   7.638  0.0936  0.2507  0.5304
  570MOL0     O76863   1.558   1.583   7.671 -0.1395 -0.8645 -0.4123
  570MOL0     C76864   1.303   1.659   7.709 -0.3607 -0.3436 -0.2529
  570MOL0     C76865   1.175   1.699   7.749 -0.9513 -0.8739 -0.7200
  570MOL0     N76866   0.469   1.800   7.822 -0.2637 -0.1508 -0.1369
  570MOL0     N76867   0.459   1.670   7.848 -0.2647  0.0276 -0.1836
  570MOL0     C76868   1.405   0.805   7.780 -1.2812  0.9103 -0.3941
  570MOL0     C76869   1.542   0.778   7.801 -0.6817 -0.3704  0.1976
  570MOL0     C76870   2.015   0.782   7.699 -0.3806 -0.1699 -0.3241
  570MOL0     C76871   2.119   0.754   7.616 -0.0257  0.0377 -0.3619
  570MOL0     C76872   2.249   0.744   7.649 -0.0355 -0.6287  0.1828
  570MOL0     C76873   2.278   0.760   7.786  0.1151  0.1252  0.5167
  570MOL0     O76874   2.405   0.747   7.829 -0.7248  0.0612 -0.5819
  570MOL0     C76875   2.433   0.707   7.964 -0.6308 -0.1595 -0.3282
  570MOL0     C76876   2.567   0.651   7.983  0.2769 -0.0290  0.5229
  570MOL0     C76877   2.681   0.750   7.961  0.5188  0.5286 -0.7834
  570MOL0     C76878   2.813   0.678   8.010  0.0201  0.1226 -0.4053
  570MOL0     C76879   2.872   0.570   7.935 -0.4475  0.2115 -0.2135
  570MOL0     C76880   2.922   0.474   7.873  0.1526 -0.9915  0.0336
  570MOL0     C76881   2.176   0.798   7.875 -0.4021 -0.5138 -0.0638
  570MOL0     C76882   2.042   0.793   7.833 -0.8144  0.3300 -0.0977
  570MOL0     H76883   1.679   0.992   7.572 -4.6194  1.8462 -4.3048
  570MOL0     H76884   1.440   1.039   7.539 -1.0953 -1.9539 -1.7755
  570MOL0     H76885   1.128   0.828   7.784  2.1233 -2.0513 -3.3151
  570MOL0     H76886   1.156   1.000   7.811 -2.0399  0.9403  0.7625
  570MOL0     H76887   1.041   1.004   7.573  3.4103 -2.8911 -0.7168
  570MOL0     H76888   0.969   0.859   7.624  1.0805  0.1725  0.1373
  570MOL0     H76889   0.902   0.973   7.844 -2.3743 -2.1239 -0.8106
  570MOL0     H76890   0.951   1.121   7.781  1.6843  0.0123 -0.1468
  570MOL0     H76891   0.784   1.020   7.585  3.2339  2.1552  1.1372
  570MOL0     H76892   0.704   0.960   7.735  1.5175 -0.8309  0.5955
  570MOL0     H76893   0.704   1.197   7.826  0.8476 -3.2057  0.3686
  570MOL0     H76894   0.798   1.246   7.690 -0.6964  0.0809 -2.3401
  570MOL0     H76895   0.573   1.157   7.555  2.3391 -0.3626  0.0283
  570MOL0     H76896   0.506   1.198   7.713  0.0238 -1.4689 -1.1402
  570MOL0     H76897   0.668   1.419   7.589 -0.2174 -0.7651 -3.2684
  570MOL0     H76898   0.498   1.401   7.533  1.6154 -0.5140 -1.4810
  570MOL0     H76899   0.578   1.407   7.831  0.3975 -1.3543 -1.1087
  570MOL0     H76900   0.415   1.411   7.759  0.6948 -2.7709  0.0404
  570MOL0     H76901   0.672   1.661   7.609  1.3962 -0.7928  1.6999
  570MOL0     H76902   0.635   1.896   7.546 -0.4797 -0.9996  0.0992
  570MOL0     H76903   0.552   2.006   7.653 -0.7177 -0.0339  2.1024
  570MOL0     H76904   0.733   1.987   7.828 -2.2551  2.2604 -0.7204
  570MOL0     H76905   0.784   2.069   7.684 -0.2020  0.3979  0.4447
  570MOL0     H76906   0.969   1.914   7.679  0.4779 -0.6690  0.6688
  570MOL0     H76907   0.847   1.809   7.613  2.6024 -0.2490 -0.7883
  570MOL0     H76908   0.805   1.772   7.881  0.3715  1.1690 -0.0476
  570MOL0     H76909   0.965   1.826   7.890 -1.9367  0.6223  1.1681
  570MOL0     H76910   1.007   1.422   7.737 -0.5314  1.5967 -0.0486
  570MOL0     H76911   1.177   1.225   7.707  0.5168  0.9314  0.6369
  570MOL0     H76912   1.242   1.266   7.544  0.4797  0.4418 -0.1173
  570MOL0     H76913   1.347   1.246   7.682  0.7794 -0.2657 -3.0116
  570MOL0     H76914   1.687   1.514   7.445 -1.1317 -0.5549 -0.7272
  570MOL0     H76915   1.931   1.438   7.425 -1.3314  1.2468 -0.0143
  570MOL0     H76916   2.073   1.079   7.676  1.4900  0.4680  0.0452
  570MOL0     H76917   2.056   1.071   7.494  2.2431 -0.5384 -0.7369
  570MOL0     H76918   2.320   1.147   7.637  0.8004  0.4241 -0.3922
  570MOL0     H76919   2.297   0.998   7.558  2.8120  1.7996 -0.6301
  570MOL0     H76920   2.288   1.270   7.425 -2.3499  0.0299  1.7540
  570MOL0     H76921   2.248   1.122   7.342 -0.5309 -0.6570  0.5418
  570MOL0     H76922   2.512   1.172   7.496 -3.6325  1.0200  2.8113
  570MOL0     H76923   2.460   1.025   7.399 -1.7325 -0.3214 -0.7307
  570MOL0     H76924   2.473   1.318   7.297 -3.7700 -0.7972  0.2839
  570MOL0     H76925   2.449   1.161   7.207 -1.7396  2.2189  0.4093
  570MOL0     H76926   2.676   1.080   7.296  2.3089  1.0626  2.4463
  570MOL0     H76927   2.673   1.192   7.165  2.1922  0.2698 -0.1053
  570MOL0     H76928   2.714   1.272   7.454  1.6498  1.4482  0.4993
  570MOL0     H76929   2.681   1.390   7.328 -2.0240 -0.9821  0.9560
  570MOL0     H76930   2.885   1.311   7.206  0.5477 -2.8841 -0.4242
  570MOL0     H76931   2.904   1.178   7.310  3.3918  1.4946 -3.5556
  570MOL0     H76932   1.868   1.120   7.705 -0.0690 -1.6347 -0.8089
  570MOL0     H76933   1.628   1.186   7.699  0.1529 -2.4584 -1.6251
  570MOL0     H76934   1.374   1.741   7.714  0.2133 -0.8886  1.2270
  570MOL0     H76935   1.172   1.806   7.766 -2.8558 -0.6801 -2.0136
  570MOL0     H76936   1.336   0.730   7.817 -0.8227 -0.9967 -3.0686
  570MOL0     H76937   1.582   0.702   7.867 -2.6646 -1.9995 -0.3790
  570MOL0     H76938   2.091   0.752   7.511  1.1524  1.2688 -0.7324
  570MOL0     H76939   2.329   0.713   7.583  1.2742  0.6548  1.0864
  570MOL0     H76940   2.415   0.797   8.023 -0.5549  0.0222 -0.5820
  570MOL0     H76941   2.366   0.623   7.986 -1.7967  0.1069 -2.5481
  570MOL0     H76942   2.578   0.575   7.905 -2.1619 -0.3167  0.3963
  570MOL0     H76943   2.574   0.600   8.079 -1.1599 -1.2439  0.0165
  570MOL0     H76944   2.652   0.845   8.007 -2.0819  0.0038 -1.1451
  570MOL0     H76945   2.698   0.765   7.855  2.2840 -0.3654 -0.6549
  570MOL0     H76946   2.788   0.648   8.112  2.1327  0.6502  0.3209
  570MOL0     H76947   2.899   0.746   8.004 -0.0566  0.2009 -0.6056
  570MOL0     H76948   2.976   0.391   7.832  1.9262 -0.0054  0.2876
  570MOL0     H76949   2.204   0.838   7.971  2.8329 -1.5895 -0.4519
  570MOL0     H76950   1.967   0.800   7.912  1.7958 -0.9838  2.7183
  571MOL0     O76951   4.426   8.851   6.220  0.3961  0.5742 -0.6447
  571MOL0     C76952   4.481   8.951   6.271 -0.6010  0.1826  0.0856
  571MOL0     O76953   4.463   8.989   6.402 -0.2329 -0.0361 -0.1263
  571MOL0     C76954   4.424   8.900   6.494  0.6688 -0.5712  0.4795
  571MOL0     C76955   4.515   8.842   6.574  1.1317  0.3244 -0.2022
  571MOL0     C76956   4.478   8.740   6.667 -0.5657 -0.6612  0.0484
  571MOL0     C76957   4.342   8.711   6.697 -0.1403 -0.1633  0.3373
  571MOL0     O76958   4.320   8.603   6.782  0.7666  0.0389  0.4149
  571MOL0     C76959   4.186   8.543   6.797  0.2796 -0.9643 -0.0271
  571MOL0     C76960   4.184   8.428   6.896  0.1576 -0.6005 -0.3292
  571MOL0     C76961   4.042   8.371   6.899 -0.6124  0.4112 -0.2163
  571MOL0     C76962   4.022   8.270   7.006 -0.4285  0.4062  0.2913
  571MOL0     C76963   3.876   8.227   6.996 -0.5442  0.4049  0.3277
  571MOL0     C76964   3.870   8.103   6.911 -0.0549  0.0800  0.1745
  571MOL0     C76965   3.719   8.074   6.878  0.5723  0.1563 -1.1718
  571MOL0     C76966   3.648   8.022   7.010  0.1857  0.1752  0.8081
  571MOL0     N76967   3.505   8.009   6.991  0.1778  0.2766 -0.0848
  571MOL0     C76968   3.431   7.970   6.877 -0.6720  0.5840  0.1696
  571MOL0     C76969   3.296   7.975   6.916  0.4503  0.1390  0.3899
  571MOL0     C76970   3.194   7.886   6.846 -0.6277  0.4675 -0.2920
  571MOL0     C76971   3.081   7.968   6.778  0.2566  0.5438  0.4222
  571MOL0     C76972   2.969   7.985   6.878 -0.6730  0.1264 -0.2948
  571MOL0     C76973   2.827   8.021   6.838  1.3552 -0.3520  0.3839
  571MOL0     O76974   2.752   7.910   6.789  0.5624 -0.4353 -0.0341
  571MOL0     C76975   2.615   7.913   6.773  0.6164  0.2033  0.1476
  571MOL0     C76976   2.547   7.787   6.761 -0.0357 -0.5503  0.1806
  571MOL0     C76977   2.411   7.788   6.761  0.4639 -0.1103  0.2356
  571MOL0     C76978   2.349   7.655   6.750 -0.6417 -0.5078  0.3802
  571MOL0     C76979   2.330   7.908   6.761 -0.0832  0.5414 -0.5856
  571MOL0     C76980   2.188   7.921   6.764 -0.2235  0.1950  0.6368
  571MOL0     O76981   2.111   7.826   6.695  0.0412  0.2202 -0.3287
  571MOL0     C76982   1.977   7.833   6.716  0.1628  0.0733  0.8428
  571MOL0     C76983   1.906   7.940   6.673 -0.4307  0.3911 -0.2454
  571MOL0     C76984   1.764   7.941   6.700 -0.4962 -0.5278  0.1772
  571MOL0     C76985   1.696   7.842   6.768  0.0337  0.6470  0.0917
  571MOL0     O76986   1.560   7.853   6.778 -0.5411  0.1042  0.3280
  571MOL0     C76987   1.490   7.751   6.855 -0.0233 -0.3413  0.7055
  571MOL0     C76988   1.355   7.803   6.897 -0.6029  0.3081  0.6775
  571MOL0     C76989   1.278   7.704   6.983  1.2754 -0.5487  1.0442
  571MOL0     C76990   1.218   7.576   6.911 -0.0011  0.2202  0.1514
  571MOL0     C76991   1.143   7.479   6.999 -0.0787 -0.1075  0.2843
  571MOL0     C76992   0.996   7.523   7.026 -0.4903  0.2792  0.0810
  571MOL0     C76993   0.906   7.405   7.058 -0.6037 -0.0959 -0.8006
  571MOL0     C76994   0.951   7.316   7.174  0.1875 -0.2028  0.3088
  571MOL0    Cl76995   0.829   7.174   7.191 -0.2673 -0.0720  0.4889
  571MOL0     C76996   1.770   7.730   6.797 -0.1288 -0.5636 -0.2620
  571MOL0     C76997   1.909   7.723   6.777 -0.3429 -0.4603 -0.3489
  571MOL0     O76998   2.147   8.021   6.822  0.1165 -0.1209 -0.3175
  571MOL0     C76999   2.399   8.031   6.770  0.9513 -0.4749 -0.4095
  571MOL0     C77000   2.541   8.027   6.772 -0.3300  0.5875 -0.3784
  571MOL0     N77001   3.289   8.024   7.040  1.9024 -0.4567 -0.2068
  571MOL0     N77002   3.402   8.050   7.085 -0.5962 -0.4307  0.2729
  571MOL0     C77003   4.249   8.782   6.623 -0.5394 -1.2980  0.5296
  571MOL0     C77004   4.292   8.879   6.527  0.2055 -0.0572 -0.2095
  571MOL0     C77005   4.556   9.047   6.185  0.7827 -0.1534 -0.5223
  571MOL0     C77006   4.648   9.134   6.235  0.0413  0.6858  0.3941
  571MOL0     C77007   4.729   9.210   6.150  0.5296 -0.4394 -0.1957
  571MOL0     C77008   4.713   9.203   6.007 -0.1464 -0.1781 -0.2906
  571MOL0     O77009   4.798   9.280   5.925  0.5892  0.8364  0.6571
  571MOL0     C77010   4.769   9.293   5.782  0.6495  0.0766 -0.6868
  571MOL0     C77011   4.891   9.342   5.705 -0.8571 -0.1739 -0.1040
  571MOL0     C77012   4.917   9.495   5.737 -0.6091 -1.0333 -0.4579
  571MOL0     C77013   5.038   9.558   5.663  0.8415 -0.1716  0.2681
  571MOL0     C77014   5.165   9.504   5.706  0.6630  0.4797  0.5449
  571MOL0     C77015   5.274   9.447   5.718  0.1566  0.0718 -0.1226
  571MOL0     C77016   4.618   9.111   5.963 -0.1977  0.2635 -0.5273
  571MOL0     C77017   4.536   9.035   6.052 -0.1578 -0.1089 -0.1942
  571MOL0     H77018   4.618   8.875   6.562  0.3551  4.1967  1.9931
  571MOL0     H77019   4.558   8.692   6.722  0.5767 -0.4669 -1.3915
  571MOL0     H77020   4.121   8.625   6.831  1.0778 -0.1775 -0.3760
  571MOL0     H77021   4.144   8.510   6.701 -1.7582 -0.7679  0.7331
  571MOL0     H77022   4.262   8.357   6.865 -0.0403  0.1426 -2.7228
  571MOL0     H77023   4.212   8.463   6.996  3.7701  0.3706 -1.5107
  571MOL0     H77024   3.972   8.454   6.910  0.6676  1.2522  2.6226
  571MOL0     H77025   4.025   8.327   6.800  0.5844  0.7962 -0.6177
  571MOL0     H77026   4.095   8.190   6.991  0.2703  1.5376 -3.4578
  571MOL0     H77027   4.035   8.310   7.106 -2.0402 -1.1580  1.1925
  571MOL0     H77028   3.838   8.198   7.095 -3.4178  0.5960 -0.6249
  571MOL0     H77029   3.814   8.305   6.952 -2.3405 -1.4122 -0.5621
  571MOL0     H77030   3.936   8.112   6.823  0.7418  2.3433  0.9367
  571MOL0     H77031   3.903   8.025   6.980 -1.8716  1.4402  2.7134
  571MOL0     H77032   3.678   8.170   6.848  1.9784  1.1738  0.0262
  571MOL0     H77033   3.709   8.006   6.793 -1.7150 -1.3530  0.1940
  571MOL0     H77034   3.665   8.097   7.088  1.2885 -0.3504  1.0764
  571MOL0     H77035   3.692   7.929   7.045  0.0390  0.0260  0.6003
  571MOL0     H77036   3.466   7.919   6.788 -0.9167 -2.5569  1.7300
  571MOL0     H77037   3.262   7.833   6.779 -1.1062  0.6155 -0.9018
  571MOL0     H77038   3.169   7.809   6.920  2.0926 -0.4533 -0.1982
  571MOL0     H77039   3.046   7.906   6.695  2.0200 -0.3769  0.3178
  571MOL0     H77040   3.107   8.071   6.754  2.8055  0.2696  1.7002
  571MOL0     H77041   3.003   8.066   6.944 -2.2251  1.9442 -1.6237
  571MOL0     H77042   2.957   7.893   6.936  0.4884  0.3499  0.3441
  571MOL0     H77043   2.820   8.102   6.765 -0.0488 -0.4689  0.3663
  571MOL0     H77044   2.781   8.069   6.925  1.6058  0.0289  0.3096
  571MOL0     H77045   2.606   7.698   6.776  0.8460  0.3790  2.8132
  571MOL0     H77046   2.408   7.565   6.770 -0.3930 -0.2244  0.9902
  571MOL0     H77047   2.265   7.657   6.820 -0.1477  3.2848  1.1021
  571MOL0     H77048   2.312   7.646   6.648  3.6176  1.6370 -1.6148
  571MOL0     H77049   1.945   8.025   6.619  1.0431  0.7508  1.2949
  571MOL0     H77050   1.695   8.016   6.662 -0.3227 -1.0405 -1.2077
  571MOL0     H77051   1.481   7.659   6.797  2.9463  0.4380 -1.2277
  571MOL0     H77052   1.546   7.726   6.946  2.6159 -3.3072 -1.5274
  571MOL0     H77053   1.379   7.884   6.966 -1.3316  2.1052 -1.0631
  571MOL0     H77054   1.302   7.827   6.804  2.3833  2.3857 -0.6461
  571MOL0     H77055   1.196   7.757   7.032  1.3391  0.8916 -0.3685
  571MOL0     H77056   1.338   7.660   7.064 -1.0966 -2.5350  1.8627
  571MOL0     H77057   1.166   7.607   6.820  0.3857 -0.6603 -0.3866
  571MOL0     H77058   1.301   7.516   6.874 -0.6413  0.3252 -1.5512
  571MOL0     H77059   1.199   7.472   7.092  0.8125  0.0109 -0.2272
  571MOL0     H77060   1.158   7.384   6.947  3.4607  0.8756 -0.8374
  571MOL0     H77061   1.001   7.596   7.107 -0.8656  1.1099 -0.6290
  571MOL0     H77062   0.951   7.568   6.937 -2.8088 -1.6376  0.1708
  571MOL0     H77063   0.909   7.335   6.974  1.5183 -0.3667 -0.5492
  571MOL0     H77064   0.808   7.450   7.076 -1.7415 -1.4266 -3.2035
  571MOL0     H77065   0.966   7.373   7.266  1.3205  3.1204 -1.7743
  571MOL0     H77066   1.050   7.276   7.154  0.2976 -0.1713  0.7857
  571MOL0     H77067   1.725   7.647   6.852 -1.8726  1.4035  1.4537
  571MOL0     H77068   1.967   7.648   6.829 -1.7704 -2.0608 -1.0045
  571MOL0     H77069   2.353   8.129   6.768 -0.0197 -0.9255 -0.5737
  571MOL0     H77070   2.611   8.111   6.775  1.1472 -0.6320  1.4691
  571MOL0     H77071   4.142   8.771   6.642 -0.6379  1.2671  1.8981
  571MOL0     H77072   4.214   8.929   6.470 -1.6400 -0.8138  1.5384
  571MOL0     H77073   4.645   9.134   6.343 -0.8471 -0.0584  0.3839
  571MOL0     H77074   4.805   9.278   6.187 -1.2372  3.3832 -2.9714
  571MOL0     H77075   4.748   9.192   5.747  3.0462 -1.0581  0.9012
  571MOL0     H77076   4.684   9.358   5.758  0.5688 -0.4200 -1.8117
  571MOL0     H77077   4.867   9.332   5.598 -0.3525 -1.6969 -0.0934
  571MOL0     H77078   4.979   9.281   5.729 -0.0807  1.2345  0.7847
  571MOL0     H77079   4.934   9.507   5.844 -2.4361  0.6924 -0.3065
  571MOL0     H77080   4.827   9.548   5.705 -0.2662 -0.8958 -1.2211
  571MOL0     H77081   5.044   9.666   5.679 -1.7027  0.1992 -0.7280
  571MOL0     H77082   5.019   9.521   5.562 -0.6536 -0.8362  0.7615
  571MOL0     H77083   5.371   9.405   5.736  0.9879  2.5421  1.7118
  571MOL0     H77084   4.604   9.094   5.857  1.0929 -1.4747 -0.4595
  571MOL0     H77085   4.469   8.955   6.021 -0.2617 -1.1281  2.3862
  572MOL0     O77086   0.836   5.157   4.027  0.5116  0.4831  0.1367
  572MOL0     C77087   0.872   5.067   4.101  0.4371 -1.0281 -0.1242
  572MOL0     O77088   0.788   4.986   4.176 -0.0915  0.0874 -0.0692
  572MOL0     C77089   0.647   5.011   4.180 -0.9721  0.5749 -0.2687
  572MOL0     C77090   0.565   5.054   4.073  0.5706 -0.8237 -0.1267
  572MOL0     C77091   0.427   5.071   4.086  0.0056 -0.0826  0.5464
  572MOL0     C77092   0.367   5.029   4.203 -0.2182 -0.0387 -0.2607
  572MOL0     O77093   0.232   5.039   4.213 -0.0091  0.0889 -0.8609
  572MOL0     C77094   0.169   5.003   4.337 -0.0575  0.4442 -0.2658
  572MOL0     C77095   0.023   5.017   4.323  0.3675  0.2477  0.3454
  572MOL0     C77096  -0.019   5.165   4.305  0.8236 -0.0875  0.8465
  572MOL0     C77097  -0.173   5.172   4.287 -0.0974  0.5082 -0.1891
  572MOL0     C77098  -0.216   5.307   4.250 -0.7641 -0.0708  0.3755
  572MOL0     C77099  -0.190   5.412   4.365 -0.4610 -0.0265 -0.5553
  572MOL0     C77100  -0.239   5.542   4.302  0.2080 -0.3474  0.3234
  572MOL0     C77101  -0.226   5.674   4.392 -0.0241  0.1616  0.0054
  572MOL0     N77102  -0.330   5.672   4.494  0.8254  0.5786 -0.4387
  572MOL0     C77103  -0.455   5.718   4.478  1.0087  0.1368 -0.3876
  572MOL0     C77104  -0.511   5.696   4.604  0.6474 -0.3214  0.4624
  572MOL0     C77105  -0.649   5.719   4.657  0.8874 -0.8181 -0.6267
  572MOL0     C77106  -0.706   5.630   4.772  0.7366  0.4291 -0.2183
  572MOL0     C77107  -0.851   5.655   4.796 -0.1000  0.4643 -0.4336
  572MOL0     C77108  -0.946   5.654   4.674  0.6953 -0.7052  0.4117
  572MOL0     O77109  -0.937   5.529   4.606  0.1077  0.0108  0.4823
  572MOL0     C77110  -1.017   5.509   4.498 -0.2768  0.4986 -0.0365
  572MOL0     C77111  -1.002   5.385   4.442 -0.5518  0.5360  0.1861
  572MOL0     C77112  -1.077   5.338   4.333  0.2343  0.5727 -0.0077
  572MOL0     C77113  -1.054   5.194   4.285 -0.1752  0.1470  0.8254
  572MOL0     C77114  -1.176   5.426   4.277  0.7163  0.4982 -0.7352
  572MOL0     C77115  -1.260   5.400   4.153 -0.4055 -0.6741 -0.0052
  572MOL0     O77116  -1.374   5.474   4.135  0.0349  0.7887  0.6490
  572MOL0     C77117  -1.450   5.476   4.022 -0.3846  0.2871  0.0228
  572MOL0     C77118  -1.391   5.465   3.891  0.4188  0.8816  1.0191
  572MOL0     C77119  -1.472   5.475   3.768  0.6282 -0.4910  0.4511
  572MOL0     C77120  -1.611   5.512   3.782 -0.3440  0.1902 -0.3330
  572MOL0     O77121  -1.687   5.553   3.677  0.1473  1.1229  0.0876
  572MOL0     C77122  -1.662   5.495   3.549  0.5386  0.5778 -0.4083
  572MOL0     C77123  -1.663   5.340   3.559  0.0608  0.6658 -0.5996
  572MOL0     C77124  -1.795   5.270   3.597 -0.3573  0.1963 -0.2859
  572MOL0     C77125  -1.884   5.276   3.472 -0.4635 -0.1301  0.1325
  572MOL0     C77126  -2.008   5.197   3.503  0.0493  0.4216  0.5352
  572MOL0     C77127  -2.092   5.193   3.376  0.2069  0.7595  0.7274
  572MOL0     C77128  -2.209   5.081   3.381 -0.4184 -0.4931  0.0356
  572MOL0     C77129  -2.324   5.105   3.475 -0.1247 -0.0576  0.0009
  572MOL0    Cl77130  -2.411   4.953   3.511 -0.2036 -0.2056 -0.5314
  572MOL0     C77131  -1.667   5.504   3.921 -0.7638  0.5438 -0.1400
  572MOL0     C77132  -1.584   5.486   4.035  0.4412 -0.0900 -0.6143
  572MOL0     O77133  -1.218   5.318   4.081  0.4711  0.2564 -0.0485
  572MOL0     C77134  -1.202   5.547   4.348  0.4615  0.0287  0.2007
  572MOL0     C77135  -1.114   5.592   4.445  0.1329 -0.5170  0.4734
  572MOL0     N77136  -0.416   5.640   4.688  0.3878 -0.5083  0.3271
  572MOL0     N77137  -0.306   5.640   4.623  0.0946  0.6631 -0.7601
  572MOL0     C77138   0.451   4.975   4.303  0.0201  0.3216  0.8564
  572MOL0     C77139   0.590   4.964   4.292  1.1318 -0.2025 -0.1136
  572MOL0     C77140   1.019   5.068   4.117 -0.2061 -0.1007  0.0946
  572MOL0     C77141   1.084   5.011   4.229 -0.3113 -0.2767  0.3294
  572MOL0     C77142   1.221   5.005   4.230  0.0049  0.1047  0.3856
  572MOL0     C77143   1.296   5.036   4.120  0.2331 -1.2234 -0.1821
  572MOL0     O77144   1.434   5.039   4.140  0.6605 -0.1226 -0.1245
  572MOL0     C77145   1.507   4.979   4.037  0.4046  0.3692  0.3829
  572MOL0     C77146   1.640   4.930   4.099 -0.4766  0.3084  0.1348
  572MOL0     C77147   1.735   4.880   3.991  0.4320  0.3514  0.1763
  572MOL0     C77148   1.876   4.856   4.051 -0.8594 -1.1639 -1.0486
  572MOL0     C77149   1.962   4.807   3.953 -1.0317  0.7420 -0.0261
  572MOL0     C77150   2.019   4.742   3.867  0.7981  0.1571 -0.3818
  572MOL0     C77151   1.238   5.090   4.007 -0.5666  0.2082  0.5095
  572MOL0     C77152   1.097   5.094   4.000 -0.1274  0.0544  0.2189
  572MOL0     H77153   0.613   5.085   3.981  0.6024  1.5842  0.6438
  572MOL0     H77154   0.359   5.106   4.009  0.0634 -0.8335  0.1496
  572MOL0     H77155   0.192   4.901   4.368 -1.0237  0.4457  0.5042
  572MOL0     H77156   0.203   5.065   4.420 -0.1877  2.0981 -1.3912
  572MOL0     H77157  -0.012   4.958   4.237 -1.5073 -0.2638  1.4069
  572MOL0     H77158  -0.032   4.981   4.410 -0.7661 -1.1466 -0.8970
  572MOL0     H77159   0.007   5.221   4.395 -1.0658 -0.5372  1.7104
  572MOL0     H77160   0.029   5.205   4.215 -3.0379 -0.6166 -1.6782
  572MOL0     H77161  -0.195   5.099   4.209 -2.0523  1.1141 -0.2545
  572MOL0     H77162  -0.234   5.144   4.373 -2.0976  0.8216 -1.4498
  572MOL0     H77163  -0.163   5.346   4.163 -1.7390 -0.7941 -0.5793
  572MOL0     H77164  -0.325   5.291   4.244 -0.7555 -1.5365  2.6051
  572MOL0     H77165  -0.240   5.376   4.455  3.1284 -1.2562  1.1523
  572MOL0     H77166  -0.082   5.420   4.385 -0.3400  0.0185 -1.1978
  572MOL0     H77167  -0.188   5.563   4.208 -4.5639  3.0151 -1.9185
  572MOL0     H77168  -0.346   5.537   4.279 -0.1003  2.2210  0.8413
  572MOL0     H77169  -0.248   5.760   4.328 -0.4105  1.8607  2.2989
  572MOL0     H77170  -0.130   5.680   4.444 -1.1424 -1.8247  2.5183
  572MOL0     H77171  -0.517   5.752   4.396 -0.9248  0.8967  1.2812
  572MOL0     H77172  -0.660   5.818   4.703  0.6849 -0.2690 -1.8401
  572MOL0     H77173  -0.710   5.720   4.567 -1.7660  0.0721  1.0392
  572MOL0     H77174  -0.644   5.645   4.861  1.0667 -3.9336  0.5283
  572MOL0     H77175  -0.699   5.524   4.743  0.5788  0.4426 -0.3080
  572MOL0     H77176  -0.860   5.750   4.848 -3.0250  0.5697 -0.9715
  572MOL0     H77177  -0.895   5.581   4.865  1.8914 -2.3061 -1.9079
  572MOL0     H77178  -0.908   5.732   4.609  1.1933 -1.1548  0.1558
  572MOL0     H77179  -1.049   5.678   4.703  0.3061  0.7404 -2.0017
  572MOL0     H77180  -0.926   5.328   4.495 -1.0717  1.4029  1.9240
  572MOL0     H77181  -0.991   5.142   4.358  0.0365 -1.3997 -0.4288
  572MOL0     H77182  -1.154   5.152   4.273 -0.0032 -0.5441  1.6590
  572MOL0     H77183  -0.999   5.199   4.191  0.6432 -0.3375  1.2664
  572MOL0     H77184  -1.285   5.452   3.871 -0.0869 -1.2069 -0.6285
  572MOL0     H77185  -1.441   5.468   3.664  0.1343  3.2973 -0.1154
  572MOL0     H77186  -1.751   5.526   3.493 -0.2609 -0.5010  0.2407
  572MOL0     H77187  -1.573   5.523   3.490  0.1877 -1.5167 -2.0855
  572MOL0     H77188  -1.632   5.300   3.462  4.1896 -3.0856  1.8646
  572MOL0     H77189  -1.582   5.301   3.622 -1.7181 -0.4620  1.1092
  572MOL0     H77190  -1.845   5.308   3.686 -0.8454 -0.6981 -0.1603
  572MOL0     H77191  -1.768   5.168   3.628  1.9795  1.5238  2.4815
  572MOL0     H77192  -1.904   5.382   3.455 -1.3946  0.0911  2.3445
  572MOL0     H77193  -1.837   5.246   3.378 -0.6067  1.2216 -0.3964
  572MOL0     H77194  -2.064   5.237   3.587 -0.8683  0.2059  0.0371
  572MOL0     H77195  -1.969   5.098   3.529  0.6470 -0.0472 -1.8320
  572MOL0     H77196  -2.129   5.291   3.344 -1.7298 -1.2112 -4.1664
  572MOL0     H77197  -2.027   5.162   3.294 -1.7327  0.0467 -0.6250
  572MOL0     H77198  -2.154   4.994   3.419  4.6586  2.4266  0.3713
  572MOL0     H77199  -2.246   5.066   3.279  0.2132  2.0427 -0.6500
  572MOL0     H77200  -2.404   5.168   3.435 -0.4656 -0.3362  0.2333
  572MOL0     H77201  -2.291   5.139   3.573  0.0132  0.2134 -0.1371
  572MOL0     H77202  -1.772   5.520   3.943 -1.0110 -1.3123  0.2475
  572MOL0     H77203  -1.629   5.479   4.134  0.3930  0.6506 -0.5785
  572MOL0     H77204  -1.272   5.622   4.315  1.2784  0.5008 -0.5027
  572MOL0     H77205  -1.114   5.693   4.482  0.4050 -0.1425 -0.5093
  572MOL0     H77206   0.411   4.944   4.400  0.0282 -1.2796  0.3741
  572MOL0     H77207   0.636   4.916   4.378  1.4974  1.7855  0.8597
  572MOL0     H77208   1.027   4.963   4.308 -0.2651  0.1999  0.6627
  572MOL0     H77209   1.267   4.969   4.322 -0.9081  0.9204  1.1871
  572MOL0     H77210   1.451   4.893   3.998  0.7553  0.8374 -1.2543
  572MOL0     H77211   1.525   5.052   3.957  1.2244  1.9221  1.9243
  572MOL0     H77212   1.631   4.837   4.157  0.4690  0.2276  0.1781
  572MOL0     H77213   1.689   5.003   4.164  3.6543 -0.8873 -1.2924
  572MOL0     H77214   1.744   4.965   3.924  2.0646  2.4274  2.7994
  572MOL0     H77215   1.694   4.784   3.960 -3.7683  1.3212  2.0806
  572MOL0     H77216   1.861   4.777   4.126 -0.3480 -2.1333 -1.9491
  572MOL0     H77217   1.921   4.947   4.092 -0.7200 -2.4713  1.9947
  572MOL0     H77218   2.066   4.684   3.790 -1.0189 -0.2362 -1.2543
  572MOL0     H77219   1.294   5.130   3.923  1.6201 -1.5551  1.0339
  572MOL0     H77220   1.051   5.127   3.908 -1.2962  3.2357  1.8313
  573MOL0     O77221   1.744   2.770   7.777 -0.7230 -0.3692  0.5343
  573MOL0     C77222   1.749   2.895   7.789 -0.7075  0.7111 -0.4500
  573MOL0     O77223   1.853   2.973   7.756  0.0337  0.1885  0.3560
  573MOL0     C77224   1.983   2.926   7.732  0.2204 -0.7203 -0.3056
  573MOL0     C77225   2.062   2.999   7.638  0.3850 -0.0936  0.2752
  573MOL0     C77226   2.196   2.962   7.622  0.9141 -0.0127  0.2936
  573MOL0     C77227   2.253   2.862   7.706  0.8321  0.3659 -0.2496
  573MOL0     O77228   2.379   2.818   7.682  0.6464  0.0247  0.0983
  573MOL0     C77229   2.478   2.894   7.744  0.2115 -0.3176 -0.6788
  573MOL0     C77230   2.618   2.844   7.687  0.7368 -0.0915  0.0954
  573MOL0     C77231   2.634   2.698   7.697  0.1763  0.0669  0.2114
  573MOL0     C77232   2.567   2.623   7.576  0.0941 -0.4759  1.2052
  573MOL0     C77233   2.591   2.478   7.567 -0.1176  0.0471 -0.3705
  573MOL0     C77234   2.736   2.436   7.545 -0.1279  0.6452 -0.2638
  573MOL0     C77235   2.740   2.277   7.551 -0.2011  0.2100  0.0897
  573MOL0     C77236   2.757   2.215   7.412 -0.2375 -0.7035  0.6293
  573MOL0     N77237   2.779   2.067   7.409  0.0798 -0.4211 -0.0604
  573MOL0     C77238   2.751   1.975   7.506  0.1500 -0.1985 -0.1013
  573MOL0     C77239   2.837   1.870   7.482 -0.5513  0.0135  0.1750
  573MOL0     C77240   2.861   1.749   7.558  0.0790 -0.3103 -0.6083
  573MOL0     C77241   2.750   1.721   7.667 -0.2554 -0.1721 -0.7027
  573MOL0     C77242   2.603   1.692   7.616 -0.4726 -0.4604 -0.0582
  573MOL0     C77243   2.499   1.707   7.718 -0.5998 -0.4845  1.3798
  573MOL0     O77244   2.378   1.686   7.656  0.3941  0.1854  0.6048
  573MOL0     C77245   2.263   1.744   7.706 -0.3288  0.2760  0.5348
  573MOL0     C77246   2.254   1.803   7.830  1.5412 -0.3073 -0.1461
  573MOL0     C77247   2.135   1.858   7.867  0.5596 -0.1341 -0.1966
  573MOL0     C77248   2.128   1.922   8.006 -0.8922 -0.6188  0.2818
  573MOL0     C77249   2.020   1.861   7.781  0.9304  0.5899  0.8485
  573MOL0     C77250   1.884   1.914   7.827 -0.7143  0.6996 -0.2904
  573MOL0     O77251   1.787   1.900   7.738  0.0743  0.2023  0.4545
  573MOL0     C77252   1.672   1.975   7.735 -1.0234 -0.2254 -0.2769
  573MOL0     C77253   1.639   2.099   7.803 -0.2061 -0.1117 -0.8603
  573MOL0     C77254   1.519   2.159   7.778  1.2803 -0.3694 -0.5035
  573MOL0     C77255   1.428   2.111   7.689 -0.6650  1.0394 -0.6111
  573MOL0     O77256   1.298   2.153   7.689 -0.6892 -0.5893 -0.2647
  573MOL0     C77257   1.283   2.294   7.689  0.3396 -0.2295  0.1240
  573MOL0     C77258   1.147   2.333   7.624 -1.1508 -0.2529  0.6794
  573MOL0     C77259   1.032   2.364   7.733  0.9639 -0.9251 -0.2916
  573MOL0     C77260   0.900   2.360   7.655  0.5740 -0.9104  0.0174
  573MOL0     C77261   0.775   2.406   7.727  0.1468 -0.2256  0.2048
  573MOL0     C77262   0.671   2.302   7.779 -0.3389  0.6009  0.1438
  573MOL0     C77263   0.553   2.368   7.855  0.4310  0.0204  0.0751
  573MOL0     C77264   0.429   2.273   7.851 -0.0524 -0.7297  0.1806
  573MOL0    Cl77265   0.373   2.224   7.688 -0.1545  0.2479 -0.7635
  573MOL0     C77266   1.456   1.998   7.618 -0.3388  0.7718  0.6738
  573MOL0     C77267   1.582   1.930   7.643  0.5971  0.1730  0.4040
  573MOL0     O77268   1.864   1.957   7.941 -0.4192 -0.3588  1.0186
  573MOL0     C77269   2.022   1.784   7.664 -1.5410 -0.0940  0.6877
  573MOL0     C77270   2.147   1.722   7.625 -0.5854 -0.1587 -0.4524
  573MOL0     N77271   2.914   1.905   7.372 -0.1479 -1.1745 -0.2035
  573MOL0     N77272   2.876   2.016   7.329 -0.4407 -0.6732 -0.0081
  573MOL0     C77273   2.171   2.796   7.802  0.2800 -0.1628  0.4744
  573MOL0     C77274   2.040   2.833   7.814  0.2480 -0.8094 -0.0117
  573MOL0     C77275   1.645   2.962   7.870 -1.1379 -0.0490 -1.3788
  573MOL0     C77276   1.541   2.886   7.925  0.1623 -1.1389  0.4353
  573MOL0     C77277   1.446   2.953   8.008 -0.6184  0.3477  0.6626
  573MOL0     C77278   1.459   3.089   8.048  0.4300  0.4706  0.3057
  573MOL0     O77279   1.368   3.150   8.139  0.0396  0.0101 -0.5332
  573MOL0     C77280   1.235   3.106   8.177  0.4595  0.6096  0.3907
  573MOL0     C77281   1.238   2.989   8.284 -0.0763 -0.5358 -0.9444
  573MOL0     C77282   1.084   2.967   8.311  0.0763  0.4453 -0.3932
  573MOL0     C77283   1.057   2.925   8.457 -0.5467 -0.6297  0.1436
  573MOL0     C77284   0.921   2.883   8.454 -0.2960  0.0918 -0.0305
  573MOL0     C77285   0.800   2.870   8.440  1.0192  0.2949  0.3165
  573MOL0     C77286   1.575   3.154   8.008  0.3583 -0.4756  0.4160
  573MOL0     C77287   1.662   3.096   7.912 -0.0832 -0.2792  0.1436
  573MOL0     H77288   2.015   3.075   7.576 -0.5554 -2.2375 -1.7890
  573MOL0     H77289   2.256   3.013   7.549 -0.2764  1.4096  0.2665
  573MOL0     H77290   2.452   2.998   7.726 -0.2486  0.1220  2.0751
  573MOL0     H77291   2.482   2.881   7.853  0.5623 -1.2708 -0.7910
  573MOL0     H77292   2.629   2.876   7.583 -2.9419 -0.6612 -0.6198
  573MOL0     H77293   2.705   2.889   7.734  1.9289  0.5138 -2.4963
  573MOL0     H77294   2.743   2.682   7.702  0.4951  1.2255 -1.8485
  573MOL0     H77295   2.592   2.654   7.788 -2.4827 -0.4518 -1.1635
  573MOL0     H77296   2.458   2.624   7.576 -0.0647 -3.7166  2.7856
  573MOL0     H77297   2.606   2.660   7.481 -2.2039 -2.4201 -0.6098
  573MOL0     H77298   2.557   2.443   7.665 -0.3903  2.4946  0.4746
  573MOL0     H77299   2.528   2.440   7.486 -0.0327  0.0419 -0.4349
  573MOL0     H77300   2.774   2.476   7.450 -3.4807  1.3624 -1.4342
  573MOL0     H77301   2.795   2.472   7.630 -2.1363  2.1923  0.5543
  573MOL0     H77302   2.831   2.254   7.608 -0.0437  0.5960 -0.0013
  573MOL0     H77303   2.655   2.233   7.603  1.3568 -1.7943  1.0519
  573MOL0     H77304   2.835   2.271   7.361 -2.0241  0.8875 -0.4871
  573MOL0     H77305   2.668   2.237   7.352  0.2041 -2.6438 -0.8371
  573MOL0     H77306   2.686   1.995   7.591  2.8834  0.3249  2.0015
  573MOL0     H77307   2.852   1.672   7.481 -1.2031 -3.1745  2.1674
  573MOL0     H77308   2.958   1.747   7.609 -0.5605 -0.7264  0.6281
  573MOL0     H77309   2.740   1.806   7.735  1.9056 -0.7534  0.4450
  573MOL0     H77310   2.784   1.634   7.723 -1.9073 -1.3967 -1.5285
  573MOL0     H77311   2.604   1.596   7.564 -0.7411 -0.2874 -0.3835
  573MOL0     H77312   2.584   1.760   7.533 -0.3604  1.1238  1.1567
  573MOL0     H77313   2.502   1.813   7.746  1.6434 -0.9206  3.1528
  573MOL0     H77314   2.525   1.649   7.807  0.8967 -0.6835  0.8426
  573MOL0     H77315   2.330   1.805   7.907 -0.9364 -0.8884  2.4581
  573MOL0     H77316   2.062   1.872   8.079 -1.7782 -2.0161 -1.4116
  573MOL0     H77317   2.228   1.926   8.051 -1.3858  0.4306  1.3700
  573MOL0     H77318   2.087   2.024   8.003 -0.3256 -0.3807  0.5280
  573MOL0     H77319   1.699   2.141   7.883 -2.8152 -1.0989  1.8125
  573MOL0     H77320   1.498   2.246   7.839  3.0750  0.3080 -0.7925
  573MOL0     H77321   1.284   2.345   7.785  1.6305 -0.0064  0.0044
  573MOL0     H77322   1.358   2.333   7.621 -0.1168 -0.2002 -0.3721
  573MOL0     H77323   1.152   2.419   7.556 -1.8024  0.1079  1.0788
  573MOL0     H77324   1.130   2.247   7.559  2.2626 -2.1369  2.0064
  573MOL0     H77325   1.039   2.465   7.775 -0.3384 -1.5866  1.6093
  573MOL0     H77326   1.035   2.303   7.823  0.3483  2.9140  2.5611
  573MOL0     H77327   0.914   2.438   7.579  0.4423 -2.0514 -1.2302
  573MOL0     H77328   0.876   2.263   7.610  0.4079 -1.1652  0.6517
  573MOL0     H77329   0.729   2.468   7.649  1.5473  0.3263 -0.2112
  573MOL0     H77330   0.802   2.475   7.808  2.0901 -0.4218 -0.2254
  573MOL0     H77331   0.625   2.262   7.688 -0.4982  1.0019  0.0488
  573MOL0     H77332   0.714   2.227   7.846  2.2234 -0.8270 -2.8337
  573MOL0     H77333   0.533   2.465   7.809 -2.3263  1.1494  3.2271
  573MOL0     H77334   0.586   2.383   7.958 -0.2589 -2.3958  0.7203
  573MOL0     H77335   0.344   2.321   7.901  0.5522 -0.5838  1.0859
  573MOL0     H77336   0.455   2.186   7.911  1.5175  1.2063  2.5298
  573MOL0     H77337   1.384   1.962   7.546  1.1670  1.3384 -1.1826
  573MOL0     H77338   1.614   1.842   7.589 -1.3673 -0.0256 -0.5204
  573MOL0     H77339   1.930   1.768   7.609 -0.8520 -0.4702 -0.4139
  573MOL0     H77340   2.151   1.660   7.536  0.3939  1.2499 -1.4285
  573MOL0     H77341   2.202   2.716   7.868 -2.6852 -2.3608 -0.5905
  573MOL0     H77342   1.980   2.807   7.900 -0.6456  2.3344  0.4248
  573MOL0     H77343   1.518   2.787   7.886 -0.5595 -1.2479  1.1223
  573MOL0     H77344   1.363   2.900   8.053  0.4237 -0.5201  1.6306
  573MOL0     H77345   1.178   3.195   8.205 -1.5226 -0.8026  1.0229
  573MOL0     H77346   1.196   3.071   8.081 -0.2289 -2.5425  1.6904
  573MOL0     H77347   1.292   3.024   8.372 -2.7286 -0.5185  0.8158
  573MOL0     H77348   1.292   2.898   8.254  0.3058 -0.7582  0.3433
  573MOL0     H77349   1.039   2.892   8.245 -1.2936  2.0045 -1.3112
  573MOL0     H77350   1.032   3.060   8.288 -5.0974 -0.4691  4.8836
  573MOL0     H77351   1.079   3.013   8.519 -2.8708 -0.1820  0.4503
  573MOL0     H77352   1.124   2.844   8.485  0.4303  0.6958  1.8492
  573MOL0     H77353   0.695   2.847   8.434  1.1779 -0.9452  1.7455
  573MOL0     H77354   1.600   3.254   8.043  1.9922 -1.1611  1.3573
  573MOL0     H77355   1.741   3.157   7.867  1.5930 -1.1633  1.7757
  574MOL0     O77356   4.317   8.542   4.728  0.4733  0.0586 -0.1829
  574MOL0     C77357   4.269   8.458   4.649  0.6322 -0.5468  0.6097
  574MOL0     O77358   4.134   8.459   4.609 -0.4759  0.0784  0.1215
  574MOL0     C77359   4.034   8.549   4.656  0.5295  0.2275 -0.3732
  574MOL0     C77360   3.904   8.512   4.619 -0.1062 -0.1480  0.0702
  574MOL0     C77361   3.794   8.582   4.663  0.7151 -0.6895  0.0438
  574MOL0     C77362   3.806   8.700   4.739  0.5966  0.3629 -0.0446
  574MOL0     O77363   3.693   8.766   4.787  0.1269  0.1194 -0.7494
  574MOL0     C77364   3.719   8.894   4.839  0.5573  0.3709  0.1570
  574MOL0     C77365   3.583   8.969   4.827  0.3853 -0.9059  0.6049
  574MOL0     C77366   3.575   9.030   4.682 -0.4087  0.1229 -0.1005
  574MOL0     C77367   3.656   9.160   4.673  0.5007  0.6801  0.5534
  574MOL0     C77368   3.629   9.235   4.535  0.1438 -0.0739  0.5844
  574MOL0     C77369   3.720   9.193   4.425  0.1795 -0.2235 -1.2402
  574MOL0     C77370   3.869   9.196   4.437  0.0376 -0.3434 -0.6077
  574MOL0     C77371   3.931   9.331   4.457 -0.8336  0.5138 -0.4736
  574MOL0     N77372   4.078   9.336   4.433  0.5030  0.1070  1.0108
  574MOL0     C77373   4.173   9.290   4.523  1.0709 -0.5245 -0.6505
  574MOL0     C77374   4.291   9.330   4.480  0.1905  0.8754 -0.5394
  574MOL0     C77375   4.428   9.307   4.537  0.3127 -0.0038 -0.0990
  574MOL0     C77376   4.496   9.181   4.491 -0.2647 -0.3772  0.9295
  574MOL0     C77377   4.627   9.152   4.562 -0.5632 -0.2196  1.1416
  574MOL0     C77378   4.717   9.043   4.486  0.2759  0.9142  0.3776
  574MOL0     O77379   4.843   9.049   4.553 -0.2855  0.1846  0.2039
  574MOL0     C77380   4.948   8.980   4.498  0.2053 -0.4768 -0.0202
  574MOL0     C77381   5.066   9.008   4.554  0.0474 -0.6189 -0.8431
  574MOL0     C77382   5.187   8.953   4.512 -0.3885 -0.6523  0.0955
  574MOL0     C77383   5.313   9.008   4.561 -0.0830  0.9832 -0.9924
  574MOL0     C77384   5.184   8.855   4.407 -0.1751  0.7085 -0.4886
  574MOL0     C77385   5.304   8.776   4.345 -0.7732 -0.1313  0.3593
  574MOL0     O77386   5.274   8.702   4.228  0.3104 -0.8482  0.1708
  574MOL0     C77387   5.372   8.623   4.168 -0.2839  0.8824 -0.1696
  574MOL0     C77388   5.358   8.605   4.035 -0.8971  0.1434  1.2663
  574MOL0     C77389   5.453   8.525   3.963 -0.1333  0.9891 -0.5408
  574MOL0     C77390   5.540   8.439   4.030  1.4677  0.4607  0.2614
  574MOL0     O77391   5.621   8.354   3.953  0.1663 -0.4261 -0.7325
  574MOL0     C77392   5.749   8.318   4.014  0.1865 -0.3472  0.3263
  574MOL0     C77393   5.829   8.273   3.896  0.0467 -0.1442  0.6859
  574MOL0     C77394   5.971   8.209   3.919 -0.3328  0.0493 -0.4289
  574MOL0     C77395   5.956   8.071   3.987  0.6145 -0.1745  0.2387
  574MOL0     C77396   6.084   7.989   3.984  0.3661 -0.4372  0.9400
  574MOL0     C77397   6.050   7.844   4.026 -0.0152  0.1771  0.0782
  574MOL0     C77398   6.159   7.744   3.980 -0.0929 -0.7812 -0.6247
  574MOL0     C77399   6.115   7.646   3.868  0.6547 -1.0992 -0.0699
  574MOL0    Cl77400   6.021   7.741   3.751 -0.1171  0.3736 -0.0980
  574MOL0     C77401   5.551   8.460   4.168 -0.3358  0.5398 -0.0756
  574MOL0     C77402   5.470   8.544   4.236  0.0784  0.5370  0.4788
  574MOL0     O77403   5.417   8.791   4.393 -0.2951 -0.5064  0.4576
  574MOL0     C77404   5.055   8.830   4.356  0.3204  0.2434  0.1637
  574MOL0     C77405   4.936   8.890   4.394  0.6119  0.0466 -0.4179
  574MOL0     N77406   4.273   9.387   4.355 -0.3281 -0.0625 -0.5110
  574MOL0     N77407   4.147   9.385   4.328 -0.0874 -0.2684  0.6765
  574MOL0     C77408   3.941   8.739   4.777 -0.4641  0.1872  1.0831
  574MOL0     C77409   4.051   8.664   4.735 -0.2550  0.0827 -0.0458
  574MOL0     C77410   4.352   8.364   4.575 -0.1910 -0.2099  0.4444
  574MOL0     C77411   4.489   8.360   4.604  0.1975  0.2541  0.0048
  574MOL0     C77412   4.569   8.266   4.527 -0.2271  0.6386 -0.1144
  574MOL0     C77413   4.516   8.188   4.423 -0.8579  0.5448 -1.2037
  574MOL0     O77414   4.593   8.099   4.343  0.8366 -0.0102 -0.4926
  574MOL0     C77415   4.720   8.057   4.398 -0.6302  0.0911  0.7774
  574MOL0     C77416   4.800   7.966   4.303 -1.1825 -0.0291 -0.8601
  574MOL0     C77417   4.934   7.923   4.348  0.0159 -0.2595 -0.4530
  574MOL0     C77418   5.048   8.029   4.309  0.1021  1.0501  0.6833
  574MOL0     C77419   5.180   7.987   4.346  0.8653 -0.4827  0.3997
  574MOL0     C77420   5.294   7.964   4.361 -0.1106  0.4423 -0.6699
  574MOL0     C77421   4.378   8.201   4.399 -0.9837  0.2743  0.5005
  574MOL0     C77422   4.299   8.278   4.478  0.7150 -0.1988 -0.1995
  574MOL0     H77423   3.903   8.429   4.549  0.7735 -0.3295  0.2636
  574MOL0     H77424   3.699   8.547   4.624  0.2421 -0.2737  0.7886
  574MOL0     H77425   3.747   8.892   4.945  0.7425 -0.2170  0.1032
  574MOL0     H77426   3.795   8.950   4.783  0.6331  0.0972 -0.0208
  574MOL0     H77427   3.501   8.910   4.868 -0.5897 -0.0741 -0.0904
  574MOL0     H77428   3.586   9.061   4.885 -1.5490  1.9114 -3.2673
  574MOL0     H77429   3.617   8.956   4.613  2.1089  1.3634 -0.0094
  574MOL0     H77430   3.472   9.027   4.646  0.0648 -0.7372 -1.4775
  574MOL0     H77431   3.622   9.223   4.757 -2.4728 -0.3561  0.2377
  574MOL0     H77432   3.764   9.140   4.680  0.8154  1.3043 -1.7537
  574MOL0     H77433   3.528   9.218   4.498 -0.6005  2.8506  1.0229
  574MOL0     H77434   3.630   9.343   4.556  0.7099  0.0441 -0.0058
  574MOL0     H77435   3.699   9.089   4.395  2.3989 -1.4372  1.0052
  574MOL0     H77436   3.678   9.257   4.348  0.5109  1.6466  0.0587
  574MOL0     H77437   3.910   9.127   4.512  0.3296  0.4398 -0.0227
  574MOL0     H77438   3.904   9.162   4.339 -0.4583  0.6293 -1.1282
  574MOL0     H77439   3.913   9.361   4.561  2.0174 -1.3312  0.6640
  574MOL0     H77440   3.881   9.398   4.387 -3.9256 -1.8112 -0.6922
  574MOL0     H77441   4.154   9.233   4.614 -0.1790 -0.3636 -0.7879
  574MOL0     H77442   4.490   9.395   4.517 -0.8247  0.5639 -1.2751
  574MOL0     H77443   4.418   9.299   4.646 -2.2425 -0.0075 -0.2725
  574MOL0     H77444   4.510   9.187   4.383  0.9288  0.9838  1.1245
  574MOL0     H77445   4.433   9.093   4.505  3.0320 -3.1975 -0.3372
  574MOL0     H77446   4.618   9.125   4.667  3.1399  0.6757  1.8237
  574MOL0     H77447   4.688   9.243   4.560 -0.8123 -0.0063  2.4458
  574MOL0     H77448   4.719   9.065   4.379  0.5579  0.2343  0.2369
  574MOL0     H77449   4.671   8.945   4.499  1.5483  0.1037 -1.0392
  574MOL0     H77450   5.070   9.068   4.644 -0.8239 -2.7958  0.7614
  574MOL0     H77451   5.288   9.108   4.597  1.5634  1.8838 -2.2227
  574MOL0     H77452   5.358   8.939   4.633 -2.7140  0.3697  0.2175
  574MOL0     H77453   5.378   9.026   4.475  0.3944  0.7099 -0.6871
  574MOL0     H77454   5.288   8.657   3.970  3.1495  1.2471 -2.7644
  574MOL0     H77455   5.471   8.509   3.858  2.2682 -0.7436  0.0409
  574MOL0     H77456   5.794   8.407   4.060 -2.3660 -0.1656  2.7598
  574MOL0     H77457   5.752   8.247   4.097 -1.8473  1.4039  2.0276
  574MOL0     H77458   5.774   8.217   3.820 -0.4827  6.3945 -4.6682
  574MOL0     H77459   5.849   8.362   3.836  0.7790  0.1550  1.3474
  574MOL0     H77460   6.021   8.279   3.987 -0.6358 -0.5094  0.3961
  574MOL0     H77461   6.023   8.206   3.823  1.3801  0.2480  0.4565
  574MOL0     H77462   5.928   8.078   4.093 -0.4014  3.0618 -0.1119
  574MOL0     H77463   5.882   8.023   3.922  1.3756  3.0156 -3.3856
  574MOL0     H77464   6.165   8.021   4.051  0.7540 -4.0469  2.4265
  574MOL0     H77465   6.117   7.979   3.880  1.9588 -1.5952  1.5189
  574MOL0     H77466   6.045   7.838   4.135 -1.3683 -2.5186 -0.0440
  574MOL0     H77467   5.957   7.804   3.985  0.9491  0.2480 -2.3563
  574MOL0     H77468   6.193   7.696   4.073 -1.3185  0.4142  0.4896
  574MOL0     H77469   6.240   7.802   3.935 -0.2106 -0.9662 -1.0718
  574MOL0     H77470   6.048   7.570   3.910 -0.3576  0.1738  0.7267
  574MOL0     H77471   6.204   7.596   3.829  0.3036 -0.3562 -1.9001
  574MOL0     H77472   5.618   8.397   4.226 -2.5714 -0.4440  1.5462
  574MOL0     H77473   5.469   8.548   4.345 -2.5643 -2.2915  0.7095
  574MOL0     H77474   5.043   8.756   4.278 -0.6602 -0.5845  1.0745
  574MOL0     H77475   4.841   8.864   4.348 -0.2895  0.3174  1.2400
  574MOL0     H77476   3.962   8.835   4.823 -0.5346  0.6272  0.2176
  574MOL0     H77477   4.147   8.704   4.766 -1.1155  1.7471  0.6137
  574MOL0     H77478   4.529   8.425   4.681 -1.6669  1.5051 -0.0039
  574MOL0     H77479   4.676   8.268   4.541 -0.2809 -1.4517  0.9121
  574MOL0     H77480   4.786   8.142   4.421 -0.3425  0.6175 -1.7630
  574MOL0     H77481   4.705   7.994   4.487 -2.6358 -1.9514 -0.9011
  574MOL0     H77482   4.798   8.012   4.204 -0.8491 -2.3529 -2.0111
  574MOL0     H77483   4.743   7.873   4.300  0.0470 -0.8999  0.9351
  574MOL0     H77484   4.946   7.827   4.297 -0.0341 -1.1300  1.1314
  574MOL0     H77485   4.960   7.903   4.452  0.9259  0.1209 -0.5972
  574MOL0     H77486   5.040   8.127   4.357 -1.8991 -0.1904  3.1258
  574MOL0     H77487   5.035   8.046   4.202 -0.5785  2.0996  0.9219
  574MOL0     H77488   5.396   7.939   4.382 -0.5438 -0.1401  0.7877
  574MOL0     H77489   4.325   8.147   4.322  0.7711 -1.9573  0.7445
  574MOL0     H77490   4.194   8.267   4.451  0.0320  0.1169  2.0624
  575MOL0     O77491   4.513   5.432   6.728  0.1699 -0.0696 -0.9335
  575MOL0     C77492   4.516   5.387   6.615  0.0478 -0.0823 -0.5389
  575MOL0     O77493   4.411   5.370   6.534  0.2008 -0.0352 -0.5012
  575MOL0     C77494   4.282   5.365   6.568 -0.0764 -0.3737  0.1629
  575MOL0     C77495   4.234   5.293   6.676  0.5633 -0.0363  0.2300
  575MOL0     C77496   4.091   5.295   6.697 -0.2896  0.2472 -0.3642
  575MOL0     C77497   4.007   5.373   6.613  0.5803  0.3865 -0.5195
  575MOL0     O77498   3.871   5.386   6.629  0.5892 -0.3593  0.4913
  575MOL0     C77499   3.789   5.280   6.579 -0.2287 -0.2488  0.3940
  575MOL0     C77500   3.641   5.327   6.569 -0.6284  0.4836 -0.8314
  575MOL0     C77501   3.554   5.208   6.529  0.0540  0.3732 -0.6014
  575MOL0     C77502   3.409   5.232   6.590  0.2964  0.7920 -0.0439
  575MOL0     C77503   3.318   5.119   6.527 -0.7825 -0.8473  0.2502
  575MOL0     C77504   3.170   5.150   6.543  0.2339  0.0829  0.1642
  575MOL0     C77505   3.075   5.068   6.458  0.1417  0.5745  0.0263
  575MOL0     C77506   3.106   4.918   6.478  0.1181 -0.0910 -0.8237
  575MOL0     N77507   3.017   4.842   6.396  0.4634  0.4976  0.0972
  575MOL0     C77508   2.886   4.799   6.426 -0.6470 -0.0892  0.2260
  575MOL0     C77509   2.851   4.719   6.324  0.6948 -0.3331 -1.1332
  575MOL0     C77510   2.716   4.652   6.336 -0.0755 -0.1727  0.2668
  575MOL0     C77511   2.602   4.743   6.386  0.5290 -0.4967  0.2733
  575MOL0     C77512   2.464   4.676   6.373 -0.2870 -0.3713  0.4418
  575MOL0     C77513   2.359   4.728   6.470 -0.0313 -0.8936 -0.3808
  575MOL0     O77514   2.231   4.677   6.428 -0.2908 -0.0880  0.1664
  575MOL0     C77515   2.124   4.726   6.506 -0.1475  0.4299 -0.0447
  575MOL0     C77516   2.132   4.801   6.626  0.5575  0.1572 -0.3252
  575MOL0     C77517   2.010   4.859   6.692 -0.4970  0.0946  0.4911
  575MOL0     C77518   2.036   4.954   6.814 -0.7376 -0.0159 -0.2320
  575MOL0     C77519   1.882   4.835   6.630  0.1935 -0.5514 -0.6431
  575MOL0     C77520   1.755   4.886   6.682  0.2696 -1.0388 -0.4459
  575MOL0     O77521   1.654   4.881   6.597  0.2269  0.0097 -0.2586
  575MOL0     C77522   1.527   4.908   6.644 -1.1125  0.0796 -1.3766
  575MOL0     C77523   1.442   4.804   6.669 -0.9522 -0.1294 -0.6602
  575MOL0     C77524   1.302   4.825   6.699  0.0418  0.1772 -0.4322
  575MOL0     C77525   1.255   4.958   6.723  0.2470  0.2876 -0.3361
  575MOL0     O77526   1.118   4.990   6.746 -0.1175  0.0151  0.0709
  575MOL0     C77527   1.033   4.888   6.806  0.2752  0.1621 -0.0920
  575MOL0     C77528   0.877   4.935   6.792  0.7253  0.1263 -0.4784
  575MOL0     C77529   0.817   4.941   6.650  0.0638  0.2019 -0.5036
  575MOL0     C77530   0.677   5.007   6.656  1.6497  0.6326 -0.4795
  575MOL0     C77531   0.691   5.155   6.671  0.7654  0.7286  0.1328
  575MOL0     C77532   0.553   5.218   6.683  0.0677 -0.7106 -0.4202
  575MOL0     C77533   0.484   5.200   6.819 -0.9352 -0.5407 -0.2126
  575MOL0     C77534   0.350   5.267   6.824  0.0174 -0.2953 -0.4254
  575MOL0    Cl77535   0.293   5.345   6.675 -0.0329 -0.6773  0.1008
  575MOL0     C77536   1.348   5.062   6.710 -0.5026 -0.3118 -0.1632
  575MOL0     C77537   1.481   5.036   6.672 -0.1070  0.2663 -0.8243
  575MOL0     O77538   1.739   4.906   6.799  0.3417  0.0681  0.0589
  575MOL0     C77539   1.877   4.745   6.516 -0.3499 -0.0953 -0.6430
  575MOL0     C77540   1.997   4.703   6.454 -0.5798  0.5317  0.1357
  575MOL0     N77541   2.950   4.739   6.229 -0.2606 -0.3416 -0.2148
  575MOL0     N77542   3.053   4.797   6.273  0.6703 -0.5369 -0.3060
  575MOL0     C77543   4.057   5.445   6.504 -0.1064 -0.4699  1.2573
  575MOL0     C77544   4.198   5.434   6.486 -0.0412  0.3606 -0.1057
  575MOL0     C77545   4.643   5.327   6.558  0.6720  0.2777  0.3231
  575MOL0     C77546   4.762   5.337   6.620  0.3214  0.5598 -0.0615
  575MOL0     C77547   4.874   5.284   6.563  0.1280  0.1651  0.3629
  575MOL0     C77548   4.872   5.217   6.442  0.8640 -0.7392  0.2902
  575MOL0     O77549   4.987   5.175   6.387  0.8302 -0.1271  0.1962
  575MOL0     C77550   4.982   5.044   6.334  0.2186 -0.5903  0.1475
  575MOL0     C77551   5.123   4.997   6.316 -0.3465 -0.1864 -0.1633
  575MOL0     C77552   5.147   4.848   6.266 -0.5115 -0.1538  0.3647
  575MOL0     C77553   5.296   4.820   6.284  0.0324  0.3210  0.5405
  575MOL0     C77554   5.311   4.697   6.207 -0.9915 -0.4496  0.7794
  575MOL0     C77555   5.329   4.595   6.143  1.2721 -0.4008  0.7475
  575MOL0     C77556   4.746   5.192   6.380  0.5542  0.2465  0.2494
  575MOL0     C77557   4.626   5.255   6.432 -0.4101  0.2150 -0.0888
  575MOL0     H77558   4.299   5.237   6.742 -0.8063 -3.3113 -0.9914
  575MOL0     H77559   4.068   5.248   6.792  1.4153  1.3308  0.6322
  575MOL0     H77560   3.821   5.255   6.477 -2.7249  1.7692 -1.0036
  575MOL0     H77561   3.806   5.190   6.638 -1.6986 -2.0087 -1.7007
  575MOL0     H77562   3.618   5.369   6.668 -0.5670  1.4009 -1.1947
  575MOL0     H77563   3.628   5.402   6.490 -0.2620  0.4219 -0.9531
  575MOL0     H77564   3.558   5.187   6.422  1.0493 -2.9671 -0.0311
  575MOL0     H77565   3.610   5.122   6.569  0.5966 -0.9993 -4.0113
  575MOL0     H77566   3.410   5.221   6.698  0.0907  1.4204  0.0234
  575MOL0     H77567   3.378   5.328   6.548  2.8371  1.1038 -1.4378
  575MOL0     H77568   3.351   5.108   6.423  1.4033  1.6036  0.5865
  575MOL0     H77569   3.331   5.025   6.581  2.3568  0.7180  2.4959
  575MOL0     H77570   3.152   5.130   6.649  1.1023 -0.1090  0.2865
  575MOL0     H77571   3.158   5.256   6.518  1.2937 -0.2808 -2.1706
  575MOL0     H77572   2.970   5.094   6.477 -0.2627 -2.1739  2.2112
  575MOL0     H77573   3.086   5.096   6.353  1.0034 -3.9132 -1.2721
  575MOL0     H77574   3.078   4.887   6.579 -0.4544 -1.3147 -1.3378
  575MOL0     H77575   3.209   4.883   6.463  1.9361  2.9650  2.6403
  575MOL0     H77576   2.823   4.814   6.512  0.8787 -1.8073  1.7283
  575MOL0     H77577   2.697   4.611   6.236  0.4323  0.4548 -0.0918
  575MOL0     H77578   2.732   4.575   6.412  2.4162  1.0931  1.1109
  575MOL0     H77579   2.592   4.832   6.323 -3.1231 -1.2540 -0.4982
  575MOL0     H77580   2.618   4.779   6.488  3.1518 -3.2198  0.9530
  575MOL0     H77581   2.470   4.568   6.386 -0.4684 -0.5685 -0.9865
  575MOL0     H77582   2.424   4.680   6.271  0.2316 -1.4342  0.1826
  575MOL0     H77583   2.366   4.837   6.476  0.0982 -0.8321 -1.4112
  575MOL0     H77584   2.382   4.686   6.568  1.5407  0.2271 -0.2301
  575MOL0     H77585   2.228   4.801   6.676  0.1951 -2.1213  0.5061
  575MOL0     H77586   2.041   5.057   6.779 -0.1967 -0.4575 -1.5297
  575MOL0     H77587   1.969   4.935   6.898  1.5376  0.8881  1.9212
  575MOL0     H77588   2.137   4.943   6.856 -0.3257  2.2064 -0.5425
  575MOL0     H77589   1.472   4.700   6.661 -1.5341 -0.1442 -3.8607
  575MOL0     H77590   1.241   4.735   6.699  0.2521  0.0338 -0.6276
  575MOL0     H77591   1.049   4.793   6.756  1.0801 -0.4027  1.1788
  575MOL0     H77592   1.057   4.860   6.909 -1.2694 -2.4593 -0.3452
  575MOL0     H77593   0.815   4.866   6.849 -1.5889  1.1274 -1.6386
  575MOL0     H77594   0.857   5.032   6.839  0.3689  0.4293 -1.2242
  575MOL0     H77595   0.800   4.841   6.608  0.3070  0.4485 -1.2110
  575MOL0     H77596   0.885   4.995   6.583 -0.8716  0.6253 -1.1354
  575MOL0     H77597   0.623   4.979   6.564  1.5145 -2.1498  0.3528
  575MOL0     H77598   0.620   4.976   6.744 -0.2673  3.0241 -0.7671
  575MOL0     H77599   0.738   5.205   6.586 -0.0898  1.6740  0.1946
  575MOL0     H77600   0.744   5.186   6.762 -0.4165  0.8566  0.7980
  575MOL0     H77601   0.565   5.325   6.669 -0.4995 -0.5404  0.3166
  575MOL0     H77602   0.483   5.187   6.605 -2.5029  1.1218  0.9964
  575MOL0     H77603   0.545   5.247   6.897  2.4423  0.2518 -3.0671
  575MOL0     H77604   0.477   5.095   6.848  0.4305 -0.7885 -0.7264
  575MOL0     H77605   0.358   5.349   6.896  0.9148 -0.1736 -0.6632
  575MOL0     H77606   0.275   5.199   6.866  0.4154 -0.2989  0.2937
  575MOL0     H77607   1.309   5.162   6.722 -0.6355 -0.6280  2.8968
  575MOL0     H77608   1.540   5.124   6.649  1.2866 -0.8079 -1.5594
  575MOL0     H77609   1.781   4.717   6.473 -1.9873  0.5070  2.3733
  575MOL0     H77610   1.997   4.643   6.364  0.7973  0.5785  0.0884
  575MOL0     H77611   3.992   5.504   6.440  0.3125 -1.8448 -0.5209
  575MOL0     H77612   4.232   5.476   6.392  0.8714 -0.1496 -0.0122
  575MOL0     H77613   4.775   5.385   6.717 -2.2131  0.4188  0.4128
  575MOL0     H77614   4.972   5.284   6.610  0.7747 -0.0736 -0.9332
  575MOL0     H77615   4.941   4.981   6.413 -0.9050  2.5779  2.2690
  575MOL0     H77616   4.929   5.030   6.240  1.5746 -1.3493 -0.5424
  575MOL0     H77617   5.176   5.006   6.411  0.1704  4.0138 -0.6513
  575MOL0     H77618   5.174   5.067   6.249 -0.4294 -0.3554 -0.4039
  575MOL0     H77619   5.110   4.831   6.164  0.6615  2.5342 -0.6108
  575MOL0     H77620   5.097   4.779   6.334  0.3597 -1.8200 -0.6204
  575MOL0     H77621   5.330   4.825   6.387 -1.6978  2.2160  1.0745
  575MOL0     H77622   5.360   4.893   6.234  2.1255 -1.4794  0.4136
  575MOL0     H77623   5.338   4.499   6.095  2.6863 -1.5963  3.2209
  575MOL0     H77624   4.737   5.141   6.285 -0.9558  2.8349 -1.0988
  575MOL0     H77625   4.527   5.234   6.393  0.3035 -2.3120 -0.6937
  576MOL0     O77626  10.549   2.638   4.470  0.0900  0.0947 -0.3117
  576MOL0     C77627  10.595   2.525   4.466 -0.1083  0.6611  0.1217
  576MOL0     O77628  10.522   2.407   4.445 -0.1803 -0.2388  0.2036
  576MOL0     C77629  10.392   2.416   4.470 -1.0307 -0.3964  0.4898
  576MOL0     C77630  10.301   2.437   4.367  0.3700 -0.1717 -0.9156
  576MOL0     C77631  10.169   2.453   4.402  0.7792 -0.1674  0.3068
  576MOL0     C77632  10.115   2.436   4.526 -0.0312  0.0727  0.4042
  576MOL0     O77633   9.977   2.435   4.542 -0.1946 -0.0225  0.9875
  576MOL0     C77634   9.925   2.473   4.670 -0.0710 -0.1518  0.0334
  576MOL0     C77635   9.959   2.622   4.686 -0.5048 -0.9393 -0.7708
  576MOL0     C77636   9.906   2.719   4.580  0.3605  1.2277 -0.3017
  576MOL0     C77637   9.915   2.858   4.639 -0.0872  1.1686 -0.4488
  576MOL0     C77638   9.853   2.962   4.547 -0.0484  0.3130  0.3986
  576MOL0     C77639   9.949   2.986   4.431  0.3743 -0.7782  0.6298
  576MOL0     C77640   9.881   3.065   4.323 -0.6819  0.7704 -0.1201
  576MOL0     C77641   9.981   3.111   4.219 -0.0495  0.9931  0.2964
  576MOL0     N77642   9.916   3.176   4.108 -0.6591 -0.5381 -0.6749
  576MOL0     C77643   9.868   3.301   4.122  0.3458 -0.1405 -0.2046
  576MOL0     C77644   9.818   3.329   4.000 -0.5164 -0.8359  0.3669
  576MOL0     C77645   9.742   3.462   3.953  0.6350  0.9015 -0.1731
  576MOL0     C77646   9.647   3.528   4.048  0.1129 -0.2442  0.5850
  576MOL0     C77647   9.606   3.668   3.992  0.0102 -0.9871 -0.6883
  576MOL0     C77648   9.500   3.744   4.077 -0.1846  0.1657  0.2586
  576MOL0     O77649   9.449   3.845   3.989 -0.0053  0.5113  0.6573
  576MOL0     C77650   9.340   3.914   4.028  1.0376  0.3111 -0.7490
  576MOL0     C77651   9.323   4.032   3.961 -0.1388 -0.0755 -0.1863
  576MOL0     C77652   9.207   4.104   3.972  0.1821 -0.2716  0.4002
  576MOL0     C77653   9.189   4.235   3.887 -0.7049  0.1146 -0.1876
  576MOL0     C77654   9.108   4.064   4.068  0.5094  0.1384 -0.0347
  576MOL0     C77655   8.975   4.128   4.089 -1.1778 -0.0724  0.6712
  576MOL0     O77656   8.914   4.111   4.206 -0.1473 -0.5049  0.1025
  576MOL0     C77657   8.792   4.169   4.233 -0.2637 -0.7264  1.0170
  576MOL0     C77658   8.672   4.094   4.230 -1.4456 -0.0611 -0.0416
  576MOL0     C77659   8.552   4.154   4.256 -0.7849 -0.3381 -1.2088
  576MOL0     C77660   8.543   4.295   4.278 -0.4801 -1.3449 -0.2380
  576MOL0     O77661   8.435   4.371   4.289  0.2470 -0.0784  0.4324
  576MOL0     C77662   8.314   4.339   4.226  0.8271  0.1206 -0.3302
  576MOL0     C77663   8.315   4.334   4.066  0.0029 -0.0424  0.1004
  576MOL0     C77664   8.327   4.467   3.995 -0.3178  0.1817  1.0783
  576MOL0     C77665   8.355   4.437   3.854 -0.1726  0.5700  0.3767
  576MOL0     C77666   8.353   4.576   3.773  0.1955  0.2525 -0.1444
  576MOL0     C77667   8.231   4.660   3.769  0.0917 -0.4936  0.1956
  576MOL0     C77668   8.133   4.619   3.656  0.3143  0.3206 -0.4019
  576MOL0     C77669   7.988   4.645   3.698 -1.3130  0.3807  0.4280
  576MOL0    Cl77670   7.937   4.532   3.822  0.1008 -0.5002 -0.2506
  576MOL0     C77671   8.661   4.370   4.285  0.0129  0.2362  0.1904
  576MOL0     C77672   8.782   4.310   4.263  0.8938 -0.9230 -0.3584
  576MOL0     O77673   8.931   4.185   3.991  0.5914 -0.5153  0.2531
  576MOL0     C77674   9.131   3.947   4.138  0.6546 -0.4643  0.1180
  576MOL0     C77675   9.241   3.870   4.115 -0.7045 -1.0006  0.5847
  576MOL0     N77676   9.823   3.214   3.926 -0.7589 -0.2979 -0.1945
  576MOL0     N77677   9.883   3.121   3.991 -0.0351  0.4210  0.2092
  576MOL0     C77678  10.209   2.389   4.625 -0.4704 -0.0472 -0.4902
  576MOL0     C77679  10.348   2.389   4.602 -0.1928 -0.1510  0.8348
  576MOL0     C77680  10.736   2.501   4.503  0.0142 -0.5548 -0.5739
  576MOL0     C77681  10.789   2.374   4.523 -0.1203  0.1274  0.2658
  576MOL0     C77682  10.926   2.345   4.547  0.3234 -0.0039  1.0334
  576MOL0     C77683  11.015   2.451   4.568 -0.2031 -0.3154 -0.2863
  576MOL0     O77684  11.151   2.425   4.601  0.2611 -0.0005  0.3681
  576MOL0     C77685  11.211   2.491   4.705 -0.6324  0.4233  0.0805
  576MOL0     C77686  11.341   2.418   4.744 -0.4816  0.6210 -0.0349
  576MOL0     C77687  11.458   2.513   4.755  0.9592  0.0030 -0.3456
  576MOL0     C77688  11.567   2.448   4.826  0.1988  0.3903 -0.2163
  576MOL0     C77689  11.548   2.451   4.974  0.3185  0.4543  1.3550
  576MOL0     C77690  11.519   2.447   5.095 -0.3013  0.3061 -0.0907
  576MOL0     C77691  10.960   2.577   4.562 -0.4909 -0.2199  0.0392
  576MOL0     C77692  10.822   2.601   4.534  0.2885  0.7882 -0.7589
  576MOL0     H77693  10.336   2.454   4.266  0.1846  2.2173 -0.6234
  576MOL0     H77694  10.100   2.481   4.323 -0.4622  1.8642  1.9920
  576MOL0     H77695   9.822   2.438   4.661 -1.1641  2.2548  2.0470
  576MOL0     H77696   9.961   2.418   4.758 -1.5201  1.1053  1.4713
  576MOL0     H77697   9.918   2.653   4.782  1.0179 -1.2165  0.0099
  576MOL0     H77698  10.068   2.632   4.690 -0.6329  0.5658 -0.3150
  576MOL0     H77699   9.977   2.718   4.497  2.0752 -0.2602  1.1125
  576MOL0     H77700   9.807   2.687   4.546  0.8089  0.3561 -0.8543
  576MOL0     H77701   9.866   2.869   4.736  1.8137  0.8674  0.5917
  576MOL0     H77702  10.021   2.874   4.664  0.8629 -3.5765 -0.3969
  576MOL0     H77703   9.762   2.922   4.502  1.1991  1.2040 -3.2401
  576MOL0     H77704   9.839   3.057   4.598 -2.1223  1.1105 -1.4636
  576MOL0     H77705  10.040   3.033   4.471 -0.5298  1.2111  0.4589
  576MOL0     H77706   9.970   2.890   4.382  0.1174 -0.7699  0.5041
  576MOL0     H77707   9.808   2.998   4.277 -0.7011 -0.1157  1.1377
  576MOL0     H77708   9.824   3.151   4.360  1.1930  2.3498 -0.7008
  576MOL0     H77709  10.055   3.037   4.189 -1.2607 -0.5049  0.8443
  576MOL0     H77710  10.038   3.185   4.275  0.1435  0.5052  0.7562
  576MOL0     H77711   9.862   3.372   4.205 -2.6964 -0.3047 -0.1879
  576MOL0     H77712   9.820   3.530   3.918  3.0187 -1.1463  0.7763
  576MOL0     H77713   9.683   3.450   3.862 -0.9384  3.2784  0.4575
  576MOL0     H77714   9.695   3.550   4.144  0.3921  1.1486  0.1523
  576MOL0     H77715   9.564   3.461   4.075  1.1083 -1.2440  1.2578
  576MOL0     H77716   9.554   3.661   3.896  0.6364  1.1925 -1.2405
  576MOL0     H77717   9.687   3.740   3.981 -0.5948 -0.3658 -1.1763
  576MOL0     H77718   9.547   3.779   4.170  0.8157 -1.6467  0.4849
  576MOL0     H77719   9.423   3.672   4.105  0.0751 -0.0177  0.5083
  576MOL0     H77720   9.406   4.069   3.902  1.8660 -1.0227  1.8629
  576MOL0     H77721   9.135   4.203   3.798  1.6130 -2.0394 -0.9396
  576MOL0     H77722   9.137   4.311   3.946  1.4027  0.6562  1.0925
  576MOL0     H77723   9.285   4.282   3.866 -0.6945  0.3198  0.2945
  576MOL0     H77724   8.686   3.987   4.244 -0.6044 -0.2976 -2.3203
  576MOL0     H77725   8.464   4.093   4.271  1.8251 -4.0702  0.2929
  576MOL0     H77726   8.286   4.239   4.260 -1.9389  0.9621  0.1285
  576MOL0     H77727   8.229   4.402   4.253 -0.4127 -0.4001 -2.7347
  576MOL0     H77728   8.397   4.272   4.030  0.0768  0.1886 -0.1304
  576MOL0     H77729   8.221   4.285   4.037 -1.0009  1.4736  0.6676
  576MOL0     H77730   8.410   4.523   4.039 -0.4762  0.9157  0.4617
  576MOL0     H77731   8.243   4.537   4.004  1.6367  2.7148  0.8398
  576MOL0     H77732   8.443   4.373   3.847 -0.6321 -0.4776  2.8992
  576MOL0     H77733   8.271   4.374   3.822 -0.7434  0.8755  1.2394
  576MOL0     H77734   8.391   4.560   3.671 -0.0015  2.3635 -0.5840
  576MOL0     H77735   8.431   4.630   3.827  0.2626 -0.8143  0.8685
  576MOL0     H77736   8.182   4.651   3.867  0.5640 -1.1036  0.3808
  576MOL0     H77737   8.252   4.767   3.765 -0.3660 -0.2393  2.9191
  576MOL0     H77738   8.133   4.511   3.643  2.0153  0.2137  0.2432
  576MOL0     H77739   8.152   4.672   3.562 -2.8630  0.8058 -0.8989
  576MOL0     H77740   7.932   4.629   3.605 -0.9587 -0.1335  0.3014
  576MOL0     H77741   7.970   4.751   3.720 -0.0537  1.8067 -4.1765
  576MOL0     H77742   8.664   4.479   4.293  0.1755  0.1497  1.7095
  576MOL0     H77743   8.866   4.378   4.256  0.9350 -0.8589  0.5846
  576MOL0     H77744   9.054   3.919   4.210 -3.5768  5.8064 -1.1982
  576MOL0     H77745   9.261   3.773   4.159  1.9000  0.2716  2.5003
  576MOL0     H77746  10.175   2.358   4.723 -0.6179  0.6924 -0.3006
  576MOL0     H77747  10.420   2.356   4.676  1.6531 -2.3336 -1.7587
  576MOL0     H77748  10.732   2.282   4.514  0.4268 -0.4205  1.8893
  576MOL0     H77749  10.961   2.242   4.556 -2.8290 -1.2111  0.7723
  576MOL0     H77750  11.234   2.595   4.681  0.0248  0.2017 -0.2708
  576MOL0     H77751  11.145   2.490   4.793 -0.7149 -1.9776  0.0694
  576MOL0     H77752  11.372   2.339   4.675 -0.4316 -0.0426  0.7381
  576MOL0     H77753  11.322   2.359   4.834  2.8394 -1.0702 -0.2756
  576MOL0     H77754  11.435   2.606   4.806  1.2443 -1.3744  2.5034
  576MOL0     H77755  11.486   2.538   4.652 -1.5490  0.3648 -1.0092
  576MOL0     H77756  11.658   2.508   4.812 -1.1284  2.4033 -0.6897
  576MOL0     H77757  11.572   2.343   4.795 -0.3490 -0.6597  2.8862
  576MOL0     H77758  11.491   2.448   5.198 -2.4084  1.0873 -0.6155
  576MOL0     H77759  11.023   2.665   4.567 -2.5751  1.5339 -2.0061
  576MOL0     H77760  10.794   2.706   4.538 -1.8750  0.2755  4.3025
  577MOL0     O77761   0.834   6.320   6.416  0.3514  0.1557  0.1707
  577MOL0     C77762   0.936   6.251   6.431  0.7248 -0.8540  0.7447
  577MOL0     O77763   0.976   6.150   6.345  0.2863  0.2810  0.1540
  577MOL0     C77764   0.896   6.114   6.235 -1.0019  0.5260  0.3882
  577MOL0     C77765   0.917   6.188   6.119  0.4485  0.0259  0.1855
  577MOL0     C77766   0.837   6.159   6.006  0.4238 -0.2209  1.2382
  577MOL0     C77767   0.748   6.051   5.992 -0.9964  0.4399 -1.1442
  577MOL0     O77768   0.701   6.024   5.867  0.2890  0.9468  0.4746
  577MOL0     C77769   0.565   5.983   5.865 -1.2621 -0.4005  0.7218
  577MOL0     C77770   0.539   5.922   5.722 -0.3396 -0.2271 -0.3080
  577MOL0     C77771   0.387   5.919   5.688 -0.0288 -0.6174  0.3496
  577MOL0     C77772   0.350   5.855   5.555 -0.2016 -0.0169 -0.5609
  577MOL0     C77773   0.431   5.733   5.517  0.6419  0.1241 -0.1308
  577MOL0     C77774   0.375   5.675   5.385 -0.5490 -0.4707  0.4649
  577MOL0     C77775   0.378   5.521   5.380  0.4861 -0.7641  0.4256
  577MOL0     C77776   0.330   5.471   5.238  0.6744  0.2718  0.5818
  577MOL0     N77777   0.399   5.536   5.124 -0.5057  0.8364 -0.5394
  577MOL0     C77778   0.507   5.482   5.056 -0.3265 -0.2076  0.2128
  577MOL0     C77779   0.509   5.539   4.931  0.4610  0.5353  0.7491
  577MOL0     C77780   0.614   5.508   4.828  0.0109 -0.0320  0.6808
  577MOL0     C77781   0.714   5.628   4.813  0.0729  0.1302 -0.2615
  577MOL0     C77782   0.773   5.660   4.947  0.0746  0.6762 -0.3543
  577MOL0     C77783   0.892   5.761   4.940 -0.6871  0.2320 -0.0153
  577MOL0     O77784   0.851   5.886   4.891 -0.0901 -0.5918 -0.2609
  577MOL0     C77785   0.802   5.974   4.993  0.3244  0.1996  0.0779
  577MOL0     C77786   0.786   6.107   4.961 -0.3727 -0.3300  0.0009
  577MOL0     C77787   0.724   6.202   5.055 -0.6003 -0.4588  0.3973
  577MOL0     C77788   0.703   6.344   5.005  0.2909 -0.1331  0.6294
  577MOL0     C77789   0.672   6.158   5.179 -0.1593  0.7630 -0.6985
  577MOL0     C77790   0.616   6.244   5.289 -0.5417  0.1510 -0.1552
  577MOL0     O77791   0.555   6.175   5.395  0.4433 -0.3687 -0.2917
  577MOL0     C77792   0.502   6.244   5.506  0.4173  0.2940  1.1930
  577MOL0     C77793   0.572   6.264   5.628 -0.1839 -0.3565  0.2791
  577MOL0     C77794   0.507   6.315   5.744 -0.2300  0.3384  0.0519
  577MOL0     C77795   0.371   6.354   5.726 -0.2151 -0.6070  0.2023
  577MOL0     O77796   0.308   6.410   5.831  0.8513 -0.1884 -0.0067
  577MOL0     C77797   0.248   6.542   5.803  0.2488 -0.3855 -0.0830
  577MOL0     C77798   0.155   6.602   5.901 -0.6873 -0.5611 -0.2666
  577MOL0     C77799   0.015   6.547   5.884  0.7771 -0.0321 -1.0070
  577MOL0     C77800  -0.085   6.626   5.958  0.0514  0.2772  0.1853
  577MOL0     C77801  -0.113   6.559   6.094 -0.3594  0.0440 -1.2391
  577MOL0     C77802  -0.189   6.436   6.090  0.6434  0.8650 -0.5201
  577MOL0     C77803  -0.238   6.371   6.223  0.4297  0.5382 -0.4888
  577MOL0     C77804  -0.129   6.297   6.303  0.3013 -0.1177  1.2722
  577MOL0    Cl77805  -0.196   6.234   6.465  0.1795  0.1286  0.5058
  577MOL0     C77806   0.307   6.342   5.605  0.1874 -1.0978 -0.4377
  577MOL0     C77807   0.367   6.276   5.500 -0.2145 -1.5934  0.6197
  577MOL0     O77808   0.608   6.365   5.275 -0.6984  0.1167 -0.5551
  577MOL0     C77809   0.694   6.020   5.211 -0.3763  0.1223 -0.3024
  577MOL0     C77810   0.753   5.931   5.119  0.0828 -0.2472  0.2012
  577MOL0     N77811   0.400   5.632   4.922 -0.3290 -0.0400  0.1205
  577MOL0     N77812   0.340   5.620   5.037  0.2545  0.1112  0.1962
  577MOL0     C77813   0.734   5.974   6.114  0.4037  0.5606  0.4085
  577MOL0     C77814   0.799   6.005   6.226 -0.0746 -0.3390 -0.6390
  577MOL0     C77815   1.028   6.281   6.544  0.3796 -0.9603  0.6361
  577MOL0     C77816   0.989   6.382   6.635  0.5362 -0.9112 -0.1798
  577MOL0     C77817   1.087   6.422   6.726 -0.7282 -0.7379 -1.0621
  577MOL0     C77818   1.210   6.364   6.737  0.1307  0.1686  0.0387
  577MOL0     O77819   1.290   6.402   6.837  1.4931  0.6489 -0.3314
  577MOL0     C77820   1.427   6.366   6.840 -0.3203  0.6252  0.4920
  577MOL0     C77821   1.501   6.453   6.936  0.7220 -0.0104 -0.1404
  577MOL0     C77822   1.652   6.404   6.947 -0.3969 -0.4200 -0.7367
  577MOL0     C77823   1.735   6.484   7.045 -0.1708 -0.0095 -0.5423
  577MOL0     C77824   1.879   6.467   7.045  0.1287 -0.1551 -0.0335
  577MOL0     C77825   1.999   6.446   7.037 -0.5162 -0.1551  0.0753
  577MOL0     C77826   1.236   6.254   6.660 -0.5946  0.3878  0.6129
  577MOL0     C77827   1.156   6.221   6.547  0.1952  0.1532  0.0582
  577MOL0     H77828   0.985   6.273   6.128 -0.0593  0.8765 -2.8396
  577MOL0     H77829   0.847   6.230   5.924 -3.1516 -0.8868  0.0259
  577MOL0     H77830   0.557   5.908   5.945  5.2185  0.6328  3.0055
  577MOL0     H77831   0.505   6.073   5.880 -1.6281 -0.6558  0.8188
  577MOL0     H77832   0.585   5.974   5.637  1.8898  0.6111  1.3209
  577MOL0     H77833   0.586   5.824   5.719  0.6163  0.2172 -0.0729
  577MOL0     H77834   0.339   5.859   5.766  1.5672  0.1759  2.0186
  577MOL0     H77835   0.338   6.016   5.697 -0.2052 -0.7579  0.9257
  577MOL0     H77836   0.244   5.833   5.573  0.5525 -2.6610  1.0671
  577MOL0     H77837   0.362   5.929   5.475  2.5565  0.3904  0.1311
  577MOL0     H77838   0.538   5.757   5.507  1.1643 -1.9786  0.0215
  577MOL0     H77839   0.428   5.669   5.605  1.9751 -0.4453 -0.4699
  577MOL0     H77840   0.272   5.710   5.374 -0.9346 -0.7237  2.9052
  577MOL0     H77841   0.436   5.707   5.300 -1.3307 -2.7867 -1.0712
  577MOL0     H77842   0.474   5.479   5.410  0.8625 -0.2534 -0.0222
  577MOL0     H77843   0.301   5.497   5.454 -0.6003  2.5246  0.5257
  577MOL0     H77844   0.224   5.495   5.228  0.8693  1.1480  0.5905
  577MOL0     H77845   0.352   5.364   5.240  2.3517  0.5997  1.7364
  577MOL0     H77846   0.571   5.402   5.095 -1.1002  0.9953  4.4763
  577MOL0     H77847   0.674   5.422   4.858 -1.9017 -1.3291  0.9050
  577MOL0     H77848   0.566   5.488   4.732  0.3681  1.3332  0.1823
  577MOL0     H77849   0.655   5.709   4.768 -1.3773 -1.4367 -1.2909
  577MOL0     H77850   0.796   5.600   4.747 -2.6405 -3.5286 -2.4018
  577MOL0     H77851   0.805   5.568   4.997  0.2938  1.4835  1.0506
  577MOL0     H77852   0.690   5.694   5.010 -0.5711  1.2311 -1.4869
  577MOL0     H77853   0.968   5.730   4.867 -3.2223 -1.8414 -1.9661
  577MOL0     H77854   0.943   5.775   5.036 -2.3712  0.7971  0.8354
  577MOL0     H77855   0.818   6.152   4.868 -2.6676  1.3058 -0.1005
  577MOL0     H77856   0.595   6.361   5.008  0.2309 -0.0821 -1.2263
  577MOL0     H77857   0.746   6.420   5.072  0.2012  0.1447  0.3739
  577MOL0     H77858   0.753   6.358   4.909 -1.8391  0.1003 -0.5102
  577MOL0     H77859   0.667   6.212   5.634 -1.2985 -2.5723 -0.1945
  577MOL0     H77860   0.558   6.308   5.839 -1.3951 -1.0063  0.6137
  577MOL0     H77861   0.339   6.602   5.806  1.2246 -1.5561 -3.1817
  577MOL0     H77862   0.202   6.564   5.706  1.0414  1.8012 -0.0241
  577MOL0     H77863   0.192   6.580   6.001 -2.4325 -1.3526  0.2408
  577MOL0     H77864   0.154   6.710   5.883 -2.5064 -0.3146  1.0763
  577MOL0     H77865   0.007   6.439   5.904 -1.5419  0.4082  0.8790
  577MOL0     H77866  -0.027   6.550   5.783 -1.4448  1.4053 -0.1063
  577MOL0     H77867  -0.066   6.731   5.978 -0.0873  0.3689 -0.1538
  577MOL0     H77868  -0.178   6.630   5.901  0.2517 -3.4133 -0.6685
  577MOL0     H77869  -0.165   6.635   6.154  3.2095  2.9981 -1.5231
  577MOL0     H77870  -0.016   6.544   6.142  0.5417  1.4709 -2.5148
  577MOL0     H77871  -0.279   6.465   6.034  0.8482  2.1081 -0.2341
  577MOL0     H77872  -0.143   6.360   6.026  0.4437  1.1662 -1.0279
  577MOL0     H77873  -0.320   6.301   6.200  0.7001 -1.3361  3.3893
  577MOL0     H77874  -0.280   6.454   6.281 -1.2491 -2.1732  2.5402
  577MOL0     H77875  -0.045   6.364   6.324  2.2912 -1.3278 -2.0242
  577MOL0     H77876  -0.094   6.208   6.249 -2.8891 -0.7519  0.0069
  577MOL0     H77877   0.203   6.373   5.607  0.5740  0.2437  0.6390
  577MOL0     H77878   0.315   6.254   5.408 -0.4595  0.6945  0.1565
  577MOL0     H77879   0.662   5.982   5.307  2.0711  0.1005  0.5781
  577MOL0     H77880   0.755   5.832   5.164  0.6533  0.5303  1.9901
  577MOL0     H77881   0.665   5.891   6.124 -1.6043  2.0238 -0.7274
  577MOL0     H77882   0.777   5.952   6.318  2.0270 -0.0384  0.0887
  577MOL0     H77883   0.900   6.443   6.627  0.0253 -1.4588  1.0271
  577MOL0     H77884   1.067   6.518   6.772 -2.8858 -2.2633  1.5340
  577MOL0     H77885   1.436   6.260   6.861 -1.6598  0.4772  0.3804
  577MOL0     H77886   1.481   6.386   6.747 -0.9892 -2.2384 -0.6143
  577MOL0     H77887   1.451   6.444   7.033  0.8803 -0.1922 -0.0754
  577MOL0     H77888   1.503   6.554   6.894 -0.0685  1.3100  2.7584
  577MOL0     H77889   1.702   6.420   6.851  1.0353  2.5215  0.3819
  577MOL0     H77890   1.653   6.297   6.969 -0.7258  0.0781  2.0676
  577MOL0     H77891   1.698   6.485   7.148  0.7171  4.2923 -0.0778
  577MOL0     H77892   1.721   6.584   7.002 -1.4081  0.8265  1.6418
  577MOL0     H77893   2.101   6.418   7.016 -0.3995 -0.6724  1.2692
  577MOL0     H77894   1.324   6.192   6.672 -0.8569 -0.5915 -1.9113
  577MOL0     H77895   1.181   6.129   6.495 -1.3090  0.0721 -0.5699
  578MOL0     O77896   2.711  10.892   6.897 -0.0282 -0.5091  0.3635
  578MOL0     C77897   2.748  10.820   6.802 -1.3086 -0.7822 -0.0311
  578MOL0     O77898   2.676  10.783   6.701 -0.1242  0.3181 -0.4961
  578MOL0     C77899   2.541  10.775   6.716  0.0239  0.2879 -0.8070
  578MOL0     C77900   2.464  10.895   6.722  1.1041  0.3557  1.2269
  578MOL0     C77901   2.326  10.872   6.732 -0.6437 -0.8375 -0.0999
  578MOL0     C77902   2.257  10.758   6.734 -0.0996 -0.2601 -0.1954
  578MOL0     O77903   2.116  10.757   6.722  0.0951  0.1943  0.5436
  578MOL0     C77904   2.041  10.631   6.745 -0.4241 -0.7896  0.7844
  578MOL0     C77905   1.894  10.642   6.708 -0.6667 -0.3284 -0.6174
  578MOL0     C77906   1.879  10.580   6.567  0.6851  0.0517 -0.3367
  578MOL0     C77907   1.737  10.623   6.497 -0.7027 -0.4837  0.1023
  578MOL0     C77908   1.600  10.587   6.557  0.1368  0.7901  0.1864
  578MOL0     C77909   1.548  10.715   6.619  0.6310 -0.0434  0.1223
  578MOL0     C77910   1.406  10.703   6.684  0.2394  0.0530  0.7444
  578MOL0     C77911   1.361  10.835   6.754 -0.3264 -0.4072  0.5724
  578MOL0     N77912   1.216  10.831   6.769 -0.1041 -0.8635 -0.3814
  578MOL0     C77913   1.119  10.914   6.716  0.5460 -0.5682 -0.1981
  578MOL0     C77914   0.997  10.882   6.759 -0.5684  0.2426  0.9051
  578MOL0     C77915   0.867  10.959   6.728 -0.7457  0.3423 -0.2171
  578MOL0     C77916   0.810  10.891   6.603  0.4508  0.6409  0.5654
  578MOL0     C77917   0.681  10.959   6.562 -0.1502 -0.5493  0.3525
  578MOL0     C77918   0.655  10.915   6.419 -0.6089 -0.4508  1.2003
  578MOL0     O77919   0.544  10.996   6.361 -0.0237  0.7668 -0.2575
  578MOL0     C77920   0.481  10.939   6.250 -0.1549  0.0755 -0.1492
  578MOL0     C77921   0.533  10.852   6.152 -0.1141  0.5564  0.2404
  578MOL0     C77922   0.458  10.800   6.044 -0.9714  0.4229 -0.2152
  578MOL0     C77923   0.529  10.694   5.962 -0.4377  0.0677  0.9096
  578MOL0     C77924   0.324  10.844   6.025 -0.4791  0.2026  0.1168
  578MOL0     C77925   0.247  10.814   5.902 -0.3411  0.0961 -0.4842
  578MOL0     O77926   0.116  10.781   5.925  0.1975  0.5263  0.2640
  578MOL0     C77927   0.040  10.748   5.822  0.5470 -0.7919  0.2104
  578MOL0     C77928   0.016  10.859   5.735  0.8600  0.1421 -0.8141
  578MOL0     C77929  -0.079  10.850   5.630  0.2462 -0.7482  0.2353
  578MOL0     C77930  -0.149  10.724   5.609  0.5044 -0.9311  0.4552
  578MOL0     O77931  -0.239  10.693   5.519 -0.5459 -0.6544  0.4230
  578MOL0     C77932  -0.288  10.795   5.428  0.6373 -0.0961 -0.2118
  578MOL0     C77933  -0.423  10.760   5.370 -0.0483 -0.1690  0.7680
  578MOL0     C77934  -0.462  10.843   5.244  0.0787 -0.0979 -0.3258
  578MOL0     C77935  -0.570  10.766   5.167 -0.4056 -0.9164  0.5287
  578MOL0     C77936  -0.605  10.852   5.041 -0.4730 -1.1128  0.0519
  578MOL0     C77937  -0.499  10.835   4.927 -0.4299  0.7075 -1.0262
  578MOL0     C77938  -0.561  10.898   4.800 -0.8961  0.7753 -0.0808
  578MOL0     C77939  -0.462  10.879   4.686  0.5530  0.2248 -0.0449
  578MOL0    Cl77940  -0.446  10.698   4.642  0.2350 -0.2217  0.2569
  578MOL0     C77941  -0.121  10.618   5.697 -0.9164  0.3526 -0.3285
  578MOL0     C77942  -0.029  10.628   5.797 -0.2661 -0.0587  0.3848
  578MOL0     O77943   0.309  10.814   5.795 -0.5822 -0.1496  0.3631
  578MOL0     C77944   0.269  10.932   6.118 -0.1939 -0.0073 -1.3097
  578MOL0     C77945   0.344  10.978   6.229 -0.0968  0.7786  0.3421
  578MOL0     N77946   1.019  10.778   6.853  0.3776 -0.0398  0.7470
  578MOL0     N77947   1.145  10.754   6.860 -0.6206 -0.0786 -1.0951
  578MOL0     C77948   2.335  10.637   6.730 -0.0301  0.8266 -0.0703
  578MOL0     C77949   2.475  10.649   6.725 -0.3595  0.5042  0.3673
  578MOL0     C77950   2.890  10.788   6.797 -0.0170  0.7787 -0.3076
  578MOL0     C77951   2.967  10.808   6.916 -0.2011 -0.2735  0.4585
  578MOL0     C77952   3.102  10.768   6.907  0.2612 -0.0085  1.2021
  578MOL0     C77953   3.164  10.719   6.791 -0.1465  0.7091 -0.0407
  578MOL0     O77954   3.301  10.690   6.811 -0.2204  0.0899  0.6622
  578MOL0     C77955   3.377  10.661   6.693  0.6856 -0.5109 -0.5648
  578MOL0     C77956   3.514  10.634   6.742  0.0156  1.0503  0.0349
  578MOL0     C77957   3.519  10.535   6.851  0.3533  0.0405 -0.0280
  578MOL0     C77958   3.649  10.463   6.858 -0.5591  0.5567 -0.1672
  578MOL0     C77959   3.681  10.384   6.982  0.7841 -1.0629 -0.0855
  578MOL0     C77960   3.700  10.335   7.090  0.2186 -0.0715  0.3113
  578MOL0     C77961   3.084  10.715   6.677 -0.5264  0.7781  1.0217
  578MOL0     C77962   2.945  10.739   6.679 -0.2667 -0.2995  0.4768
  578MOL0     H77963   2.494  10.999   6.733 -2.2458  1.5280  0.3054
  578MOL0     H77964   2.267  10.963   6.741 -2.1350 -1.7456 -0.4773
  578MOL0     H77965   2.085  10.562   6.672  1.9043 -0.7866  2.0879
  578MOL0     H77966   2.062  10.585   6.842 -2.2562 -4.0232 -0.1868
  578MOL0     H77967   1.838  10.579   6.778  1.6683 -0.4199  1.2786
  578MOL0     H77968   1.855  10.744   6.718  2.4958  1.0572 -1.3191
  578MOL0     H77969   1.959  10.596   6.494  1.2895  0.3236  0.3739
  578MOL0     H77970   1.873  10.471   6.579  0.6733 -0.0168 -0.9498
  578MOL0     H77971   1.745  10.729   6.475  1.1944  0.3044  3.7177
  578MOL0     H77972   1.751  10.558   6.410  2.7547  0.7362 -0.4213
  578MOL0     H77973   1.532  10.552   6.479 -1.6983 -1.2925  2.5625
  578MOL0     H77974   1.617  10.511   6.633 -0.5543  1.2925  0.8561
  578MOL0     H77975   1.619  10.751   6.694  3.3406 -0.9630 -1.8263
  578MOL0     H77976   1.549  10.793   6.542  0.5123  0.3300  0.4963
  578MOL0     H77977   1.326  10.667   6.619  0.7371 -0.6779  0.5336
  578MOL0     H77978   1.408  10.623   6.758 -0.9674 -0.4911  0.2198
  578MOL0     H77979   1.382  10.918   6.685 -1.6937 -1.2163 -0.8898
  578MOL0     H77980   1.396  10.849   6.857  1.6962 -0.1937 -0.1002
  578MOL0     H77981   1.143  10.989   6.642  2.9274  0.9945  2.0038
  578MOL0     H77982   0.810  10.942   6.820  1.3321  0.4175  1.1745
  578MOL0     H77983   0.902  11.062   6.716  3.2325 -0.6475  1.2671
  578MOL0     H77984   0.787  10.786   6.624  3.0029 -1.0688 -3.8733
  578MOL0     H77985   0.879  10.881   6.519 -1.8082 -2.8444 -1.0750
  578MOL0     H77986   0.681  11.067   6.575  1.1846 -0.5592  0.5453
  578MOL0     H77987   0.601  10.930   6.631  1.8331 -1.2155  2.5258
  578MOL0     H77988   0.648  10.806   6.411 -2.6657 -0.3516  0.9735
  578MOL0     H77989   0.738  10.947   6.355 -0.9630  1.8907  1.7972
  578MOL0     H77990   0.634  10.812   6.156 -0.2924  0.1336  0.6659
  578MOL0     H77991   0.515  10.596   6.008 -0.0304 -0.1952  0.4813
  578MOL0     H77992   0.504  10.694   5.855  2.1083  0.2395  0.2388
  578MOL0     H77993   0.635  10.721   5.956 -0.4686  0.1634  0.7677
  578MOL0     H77994   0.054  10.956   5.766 -0.4411  0.7277 -0.9829
  578MOL0     H77995  -0.099  10.943   5.579 -2.2854 -0.0499  2.3123
  578MOL0     H77996  -0.303  10.888   5.485 -0.1375  0.0990 -0.7192
  578MOL0     H77997  -0.208  10.812   5.355  2.5995  3.6625  2.4069
  578MOL0     H77998  -0.421  10.654   5.343  1.2107  0.4497 -1.8461
  578MOL0     H77999  -0.505  10.778   5.441 -1.3576 -1.7740 -0.2719
  578MOL0     H78000  -0.372  10.838   5.182  0.6952 -0.6143  0.5901
  578MOL0     H78001  -0.500  10.943   5.267  0.9696 -0.3218  2.5222
  578MOL0     H78002  -0.548  10.663   5.137 -1.8413 -1.2969  0.7469
  578MOL0     H78003  -0.661  10.759   5.226 -1.0052 -0.7541 -0.3599
  578MOL0     H78004  -0.609  10.960   5.059  3.1114 -0.8703  0.1155
  578MOL0     H78005  -0.698  10.813   4.996 -0.2316 -2.8650  0.9859
  578MOL0     H78006  -0.404  10.882   4.955 -1.5853  2.5029  0.0943
  578MOL0     H78007  -0.483  10.728   4.910  1.6810  1.1662 -2.3248
  578MOL0     H78008  -0.572  11.005   4.819 -0.8295  0.4926  1.7859
  578MOL0     H78009  -0.659  10.857   4.773 -0.8151 -0.5404  1.4437
  578MOL0     H78010  -0.369  10.920   4.727  0.3291 -0.8003  1.5724
  578MOL0     H78011  -0.480  10.938   4.595 -0.8718 -0.5391 -0.2773
  578MOL0     H78012  -0.168  10.522   5.714  0.1930  0.4379  5.7445
  578MOL0     H78013  -0.009  10.547   5.866  2.6448 -2.1986 -2.6508
  578MOL0     H78014   0.165  10.962   6.106 -0.2909  0.7053  0.8632
  578MOL0     H78015   0.304  11.042   6.306  2.9331  0.5060  2.3149
  578MOL0     H78016   2.287  10.540   6.735 -2.3779  1.9806  1.7193
  578MOL0     H78017   2.541  10.564   6.735  1.2167  1.8552  2.1346
  578MOL0     H78018   2.923  10.860   7.001  0.0474 -0.0923  0.4779
  578MOL0     H78019   3.162  10.785   6.995  0.5292  1.7164  0.7203
  578MOL0     H78020   3.335  10.567   6.653  0.3415 -1.2060  1.3303
  578MOL0     H78021   3.371  10.750   6.630  2.7070  1.1106  1.3882
  578MOL0     H78022   3.557  10.732   6.765 -2.0804  2.4318 -1.5914
  578MOL0     H78023   3.572  10.601   6.655 -0.7521  0.0917 -0.1336
  578MOL0     H78024   3.436  10.463   6.848 -0.1674  0.6823 -1.2466
  578MOL0     H78025   3.500  10.581   6.948  0.0143  1.9467 -0.9572
  578MOL0     H78026   3.731  10.533   6.845 -0.7584  0.5670 -1.6220
  578MOL0     H78027   3.643  10.394   6.773 -3.5744  0.7314 -0.2167
  578MOL0     H78028   3.735  10.296   7.184  1.3466  1.6102  0.6397
  578MOL0     H78029   3.131  10.663   6.594 -0.5539  1.3947  0.6177
  578MOL0     H78030   2.879  10.720   6.595  1.2770  0.0866 -0.8641
  579MOL0     O78031   1.730   9.291   6.042 -0.1379 -0.1595  0.3842
  579MOL0     C78032   1.781   9.188   6.087  1.0617 -0.2870  0.0810
  579MOL0     O78033   1.718   9.075   6.128  0.6420 -0.3084 -0.3776
  579MOL0     C78034   1.588   9.062   6.090 -0.1872 -0.2080  0.3336
  579MOL0     C78035   1.550   8.937   6.029  0.4871 -0.7214 -0.2247
  579MOL0     C78036   1.420   8.925   5.976 -0.2468 -0.3272 -0.2501
  579MOL0     C78037   1.326   9.027   5.982  0.1291  0.0225 -0.3492
  579MOL0     O78038   1.190   9.030   5.949  0.4872  0.2307 -0.3431
  579MOL0     C78039   1.146   8.918   5.875  0.3273 -0.0218 -0.0748
  579MOL0     C78040   0.996   8.930   5.835 -1.3571 -0.4646 -0.5556
  579MOL0     C78041   0.917   8.895   5.954 -0.0765 -1.1435 -0.0778
  579MOL0     C78042   0.936   8.744   6.005  0.3186  0.1233 -0.0099
  579MOL0     C78043   0.809   8.691   6.067  1.1819 -0.1394 -0.6036
  579MOL0     C78044   0.818   8.544   6.114 -0.9668 -0.1115 -0.1989
  579MOL0     C78045   0.702   8.502   6.194  1.3940  0.2053 -0.6322
  579MOL0     C78046   0.562   8.517   6.126 -0.0264 -0.9538  0.4126
  579MOL0     N78047   0.462   8.430   6.185 -0.9986  0.5941 -0.0684
  579MOL0     C78048   0.397   8.465   6.290 -0.2498  0.5242 -0.4085
  579MOL0     C78049   0.293   8.376   6.302  0.2477  0.5686 -0.2172
  579MOL0     C78050   0.198   8.358   6.414 -0.0160  0.2684  0.2894
  579MOL0     C78051   0.274   8.358   6.546  0.0382 -0.3061 -0.3445
  579MOL0     C78052   0.181   8.351   6.668 -0.1405  0.4555 -0.1125
  579MOL0     C78053   0.237   8.325   6.808 -0.5520 -0.2283  0.6788
  579MOL0     O78054   0.333   8.221   6.805  0.2634 -0.1910  0.4258
  579MOL0     C78055   0.278   8.108   6.852 -0.5123  0.7039  0.4545
  579MOL0     C78056   0.226   8.020   6.753 -0.3026  0.2299  0.1456
  579MOL0     C78057   0.151   7.903   6.790 -0.0397  0.0620  0.2828
  579MOL0     C78058   0.117   7.800   6.680 -0.1162 -0.4857 -0.3732
  579MOL0     C78059   0.121   7.888   6.931 -0.5595 -0.1973  0.1724
  579MOL0     C78060   0.018   7.788   6.983  0.0357  0.1194 -0.1255
  579MOL0     O78061   0.010   7.757   7.117 -0.8132  0.3101  0.9901
  579MOL0     C78062  -0.069   7.656   7.166  0.0488  0.7632  0.4983
  579MOL0     C78063  -0.022   7.527   7.186  0.1549 -0.5229 -0.4124
  579MOL0     C78064  -0.095   7.429   7.266  0.4699  0.4337  0.7821
  579MOL0     C78065  -0.219   7.460   7.320  0.8409 -0.1061 -0.1686
  579MOL0     O78066  -0.281   7.362   7.390  0.1435 -1.0270 -0.4843
  579MOL0     C78067  -0.413   7.392   7.439 -0.3324 -0.6216  0.2097
  579MOL0     C78068  -0.464   7.276   7.514 -0.0895 -0.3064  0.1542
  579MOL0     C78069  -0.620   7.288   7.516  0.2584  0.2114 -0.4155
  579MOL0     C78070  -0.673   7.406   7.588 -0.0305 -0.7554 -0.3112
  579MOL0     C78071  -0.829   7.396   7.601  0.0344  0.1857 -0.0070
  579MOL0     C78072  -0.866   7.526   7.674  0.5124 -0.3622  0.6167
  579MOL0     C78073  -1.013   7.516   7.683  0.2650  0.2775 -0.7110
  579MOL0     C78074  -1.062   7.606   7.800 -0.7859  0.1824  1.0890
  579MOL0    Cl78075  -1.228   7.583   7.856 -0.0356 -0.2059 -0.1306
  579MOL0     C78076  -0.260   7.599   7.308 -0.9284  0.4656  0.1953
  579MOL0     C78077  -0.190   7.694   7.231  1.3392  0.1655  0.0406
  579MOL0     O78078  -0.060   7.752   6.892 -0.0281  0.2404 -0.0310
  579MOL0     C78079   0.174   7.972   7.025 -0.3041 -0.0450 -0.1648
  579MOL0     C78080   0.253   8.079   6.988  1.1071  0.1169 -0.2746
  579MOL0     N78081   0.306   8.281   6.195 -0.0796 -0.3218 -0.0388
  579MOL0     N78082   0.412   8.322   6.125  0.6898  0.3915 -0.8215
  579MOL0     C78083   1.366   9.150   6.048  0.0580  0.4936 -0.2491
  579MOL0     C78084   1.491   9.167   6.098 -0.4737  0.8141  0.0651
  579MOL0     C78085   1.923   9.197   6.107 -0.2392 -0.3867  0.0614
  579MOL0     C78086   1.991   9.093   6.169  0.1187  0.0211  0.7260
  579MOL0     C78087   2.125   9.116   6.199 -0.4859  0.0393 -0.0315
  579MOL0     C78088   2.196   9.225   6.186  0.0496 -0.3545  0.0175
  579MOL0     O78089   2.325   9.247   6.222 -0.1473  0.4152 -0.1999
  579MOL0     C78090   2.404   9.136   6.276  0.3463  0.1025 -0.5011
  579MOL0     C78091   2.549   9.163   6.303  0.0080 -0.7969 -0.9574
  579MOL0     C78092   2.617   9.229   6.193 -0.0787 -0.3141 -0.4381
  579MOL0     C78093   2.771   9.219   6.198  0.0653  0.4772 -0.2719
  579MOL0     C78094   2.830   9.111   6.117  0.4122 -0.2545 -0.4587
  579MOL0     C78095   2.875   9.031   6.046 -0.0621  0.4323 -0.1679
  579MOL0     C78096   2.122   9.337   6.140  0.1075 -0.5984  0.2113
  579MOL0     C78097   1.986   9.321   6.099  0.4233 -0.2637  0.6272
  579MOL0     H78098   1.619   8.854   6.024  0.7659 -0.4563 -0.9043
  579MOL0     H78099   1.394   8.829   5.933 -1.3665 -0.8042  1.4065
  579MOL0     H78100   1.196   8.914   5.778  1.2088 -2.1512  0.3923
  579MOL0     H78101   1.169   8.822   5.922 -0.1158  0.6730  1.6298
  579MOL0     H78102   0.981   9.031   5.795 -0.1756  0.8731  2.1620
  579MOL0     H78103   0.980   8.866   5.748  0.8646  1.0875 -2.2304
  579MOL0     H78104   0.960   8.958   6.033  1.3664 -0.7746 -1.1166
  579MOL0     H78105   0.811   8.922   5.949  0.2828  1.7467  3.3711
  579MOL0     H78106   0.968   8.680   5.922  1.9139 -1.5950  1.8241
  579MOL0     H78107   1.020   8.738   6.075  0.7557  2.3906 -0.2633
  579MOL0     H78108   0.789   8.757   6.153  0.5415  1.1019 -1.6636
  579MOL0     H78109   0.724   8.718   6.004  1.8190  2.7929 -0.3912
  579MOL0     H78110   0.817   8.477   6.027 -3.7045 -0.5511  0.0964
  579MOL0     H78111   0.914   8.530   6.164 -0.5209 -0.6321 -1.1580
  579MOL0     H78112   0.718   8.399   6.227  0.7258 -0.2609 -1.6997
  579MOL0     H78113   0.698   8.556   6.289  2.1184 -1.7932  0.5893
  579MOL0     H78114   0.561   8.497   6.019 -1.3076 -2.8014  0.7257
  579MOL0     H78115   0.532   8.620   6.145  0.9890 -0.9594  2.3006
  579MOL0     H78116   0.426   8.542   6.361  1.4062 -1.6922  1.4584
  579MOL0     H78117   0.123   8.438   6.410 -0.8701 -0.5212  0.3844
  579MOL0     H78118   0.154   8.259   6.400  2.4746 -0.5194 -3.2033
  579MOL0     H78119   0.330   8.451   6.554 -0.2390 -0.1941  0.3093
  579MOL0     H78120   0.337   8.268   6.545 -0.5393 -0.7194 -0.0841
  579MOL0     H78121   0.119   8.263   6.651  0.3694 -0.3102  1.7591
  579MOL0     H78122   0.125   8.445   6.669 -1.5314 -0.3351 -0.7686
  579MOL0     H78123   0.157   8.308   6.881 -0.9426 -0.8712  0.1183
  579MOL0     H78124   0.289   8.414   6.844 -0.1854 -0.4279  0.6472
  579MOL0     H78125   0.248   8.052   6.652 -1.5713  0.1492 -0.1677
  579MOL0     H78126   0.180   7.824   6.594 -2.9625  2.0537 -1.9524
  579MOL0     H78127   0.142   7.696   6.704  1.2588 -0.3359 -1.0437
  579MOL0     H78128   0.011   7.786   6.655 -0.1317 -4.5829  1.2027
  579MOL0     H78129   0.070   7.492   7.141 -1.4047 -2.1474 -2.5339
  579MOL0     H78130  -0.067   7.325   7.281 -3.2994 -0.5930  1.6896
  579MOL0     H78131  -0.412   7.475   7.511 -2.5413 -1.1308  0.9014
  579MOL0     H78132  -0.483   7.405   7.356 -0.3167 -1.0206  0.1331
  579MOL0     H78133  -0.428   7.184   7.467 -1.6562 -0.4074 -0.9169
  579MOL0     H78134  -0.426   7.262   7.616  1.9858  1.5707 -0.2850
  579MOL0     H78135  -0.649   7.195   7.566 -1.2332  0.4201 -0.8515
  579MOL0     H78136  -0.660   7.293   7.415  0.0942 -1.4458 -0.4636
  579MOL0     H78137  -0.616   7.404   7.682 -1.2228 -0.9603  0.4212
  579MOL0     H78138  -0.653   7.507   7.550 -0.8955  0.4547  2.2545
  579MOL0     H78139  -0.842   7.308   7.665  1.3194 -0.9689 -1.2522
  579MOL0     H78140  -0.877   7.386   7.503 -0.5069  3.2615 -0.1342
  579MOL0     H78141  -0.820   7.540   7.772  0.0306  2.1333  0.5417
  579MOL0     H78142  -0.841   7.611   7.611 -0.2227  0.3561  1.2665
  579MOL0     H78143  -1.041   7.412   7.700 -0.4919  0.1254 -2.6319
  579MOL0     H78144  -1.059   7.545   7.588 -0.4638 -1.9436 -1.0938
  579MOL0     H78145  -1.050   7.713   7.780  2.5840 -0.3253 -0.4448
  579MOL0     H78146  -0.997   7.587   7.886  0.5446 -2.0478 -0.2991
  579MOL0     H78147  -0.361   7.615   7.343 -2.1352 -1.5874 -2.0291
  579MOL0     H78148  -0.222   7.797   7.229 -1.0422 -0.5261 -0.5311
  579MOL0     H78149   0.156   7.973   7.132 -0.7324 -1.5855 -0.2070
  579MOL0     H78150   0.295   8.145   7.064 -1.1861 -1.4408  2.5639
  579MOL0     H78151   1.296   9.233   6.059  1.3353  1.7158 -1.0534
  579MOL0     H78152   1.522   9.263   6.137  1.8381  0.3552 -0.4580
  579MOL0     H78153   1.942   9.005   6.209  2.8788 -1.0509  2.0071
  579MOL0     H78154   2.173   9.032   6.248  0.7828 -1.2829 -3.2710
  579MOL0     H78155   2.362   9.099   6.369 -0.5979  0.6002 -0.7224
  579MOL0     H78156   2.403   9.046   6.213 -1.2400 -0.5869  0.4746
  579MOL0     H78157   2.604   9.075   6.338  0.9624 -0.1104 -0.7040
  579MOL0     H78158   2.546   9.228   6.391 -0.3665 -2.6775  0.4874
  579MOL0     H78159   2.598   9.335   6.212  2.3467 -0.1052  1.3106
  579MOL0     H78160   2.588   9.207   6.090 -0.7246  2.0651 -0.8228
  579MOL0     H78161   2.812   9.222   6.300  0.3494 -0.1654 -0.3658
  579MOL0     H78162   2.807   9.308   6.146  0.4928  0.5067  0.0723
  579MOL0     H78163   2.916   8.966   5.972  2.1060  0.3099  1.0531
  579MOL0     H78164   2.162   9.436   6.124 -2.4919  0.3519 -0.9772
  579MOL0     H78165   1.940   9.410   6.058  0.5605  0.2449  1.5317
  580MOL0     O78166   3.874   0.284   3.922  0.4112 -0.6306  0.4305
  580MOL0     C78167   3.929   0.175   3.912 -0.3294  0.1370  0.4166
  580MOL0     O78168   3.869   0.055   3.899 -0.4324 -0.2190 -0.9671
  580MOL0     C78169   3.735   0.052   3.881 -0.7362  0.1671 -0.1159
  580MOL0     C78170   3.656  -0.043   3.951  0.6121 -0.3382 -0.4235
  580MOL0     C78171   3.516  -0.052   3.930  0.0858 -0.0679  0.1672
  580MOL0     C78172   3.448   0.049   3.860 -0.6146  0.4581  0.6402
  580MOL0     O78173   3.312   0.060   3.883 -0.1511 -0.4853  0.3158
  580MOL0     C78174   3.268   0.172   3.953 -0.7661  0.0964 -0.1308
  580MOL0     C78175   3.120   0.199   3.930  0.1069 -0.9169 -0.2435
  580MOL0     C78176   3.078   0.326   3.990 -0.7935 -0.1979 -0.2354
  580MOL0     C78177   2.942   0.367   3.948  0.5224  0.0631  0.0569
  580MOL0     C78178   2.953   0.459   3.828  0.4777 -0.2528 -0.1974
  580MOL0     C78179   2.809   0.495   3.771 -0.0363 -0.1199  0.7759
  580MOL0     C78180   2.710   0.564   3.873  0.3183  0.2125 -0.5893
  580MOL0     C78181   2.768   0.685   3.945  0.5741  0.5530 -0.1976
  580MOL0     N78182   2.778   0.800   3.856 -0.0777  0.1804  0.2593
  580MOL0     C78183   2.675   0.865   3.791  0.0503 -0.1458  0.4153
  580MOL0     C78184   2.742   0.957   3.717  0.1786 -0.7626  0.1789
  580MOL0     C78185   2.694   1.059   3.621  0.9213  0.1320 -0.8468
  580MOL0     C78186   2.603   1.160   3.695 -0.3501  0.0367  0.2699
  580MOL0     C78187   2.690   1.270   3.757 -0.2410 -0.3484 -0.3465
  580MOL0     C78188   2.606   1.399   3.789  0.6619 -0.4277 -0.3966
  580MOL0     O78189   2.490   1.372   3.867 -0.6605  0.4851 -0.0769
  580MOL0     C78190   2.429   1.481   3.911 -0.4600 -0.1543  0.0003
  580MOL0     C78191   2.362   1.465   4.026  0.0165 -0.1489 -0.0685
  580MOL0     C78192   2.286   1.570   4.085  1.1012  0.0139  0.5714
  580MOL0     C78193   2.192   1.532   4.196 -0.1326  0.0191 -0.9118
  580MOL0     C78194   2.286   1.699   4.015  0.0004  1.0472  0.4031
  580MOL0     C78195   2.220   1.820   4.077  0.3290 -0.1767  1.0746
  580MOL0     O78196   2.163   1.810   4.201 -0.5946  0.1179  0.4415
  580MOL0     C78197   2.059   1.888   4.239  0.1173 -0.6673 -0.0304
  580MOL0     C78198   2.073   2.027   4.261  0.5378 -0.0928 -0.2133
  580MOL0     C78199   1.965   2.105   4.302  0.4742  0.8219 -0.3351
  580MOL0     C78200   1.842   2.045   4.318 -0.3061 -0.2148  0.1893
  580MOL0     O78201   1.746   2.135   4.365  0.2614  0.0417  0.6507
  580MOL0     C78202   1.614   2.109   4.326 -0.6090  0.1065  0.4227
  580MOL0     C78203   1.506   2.201   4.398  0.5111  0.5103 -0.1208
  580MOL0     C78204   1.498   2.337   4.337  0.1992  0.1516 -0.2740
  580MOL0     C78205   1.409   2.432   4.427  0.6303  0.3861 -1.2651
  580MOL0     C78206   1.335   2.546   4.358 -0.4745 -1.0098  0.5720
  580MOL0     C78207   1.237   2.637   4.437 -0.2778  0.1847 -0.1672
  580MOL0     C78208   1.284   2.704   4.573  0.4128  0.4050  0.1689
  580MOL0     C78209   1.178   2.785   4.637 -0.4865 -1.0553  0.2090
  580MOL0    Cl78210   1.048   2.682   4.693 -0.3901 -0.1897  0.1065
  580MOL0     C78211   1.822   1.913   4.283  0.6784 -0.2393 -0.0390
  580MOL0     C78212   1.931   1.834   4.246 -0.0491 -0.4792 -0.0017
  580MOL0     O78213   2.202   1.915   4.001  0.5626 -0.6722  0.2698
  580MOL0     C78214   2.368   1.719   3.905  0.2831  0.1559  0.4051
  580MOL0     C78215   2.435   1.608   3.855  0.9085  0.2711 -0.3037
  580MOL0     N78216   2.880   0.942   3.730 -0.1307 -0.0039 -0.1063
  580MOL0     N78217   2.902   0.844   3.815  0.3374  0.2466 -0.1243
  580MOL0     C78218   3.528   0.139   3.793 -0.3175 -0.4325 -0.3906
  580MOL0     C78219   3.671   0.136   3.794  0.5984  0.0587  0.4199
  580MOL0     C78220   4.080   0.172   3.920 -0.2344 -0.4902 -0.1137
  580MOL0     C78221   4.159   0.292   3.934 -0.4329  0.2119  0.1762
  580MOL0     C78222   4.293   0.293   3.935 -0.6453  0.6049  0.6571
  580MOL0     C78223   4.363   0.187   3.899 -0.3565 -0.1969  0.1429
  580MOL0     O78224   4.501   0.157   3.901 -0.5614  0.2991  0.1847
  580MOL0     C78225   4.575   0.226   4.002 -0.0493 -0.4589  0.1248
  580MOL0     C78226   4.640   0.364   3.959  0.0608 -0.3225 -0.0867
  580MOL0     C78227   4.740   0.337   3.852 -0.1404  0.3407 -0.6792
  580MOL0     C78228   4.903   0.338   3.896  1.2226 -0.2803 -0.0581
  580MOL0     C78229   4.939   0.228   3.990  0.4108  0.0886  0.4319
  580MOL0     C78230   4.981   0.151   4.077 -0.2078 -0.5736  0.6432
  580MOL0     C78231   4.290   0.076   3.870  0.0742 -0.0330 -0.2351
  580MOL0     C78232   4.154   0.059   3.885 -0.1889  0.6075 -0.2190
  580MOL0     H78233   3.708  -0.105   4.024 -0.1468  0.1340  0.5431
  580MOL0     H78234   3.461  -0.126   3.988 -0.6633 -0.2868 -0.7960
  580MOL0     H78235   3.291   0.163   4.060  2.1341  0.1006 -0.6696
  580MOL0     H78236   3.327   0.261   3.931 -1.5382  0.1158 -2.3599
  580MOL0     H78237   3.100   0.208   3.822  2.0778 -1.9623 -0.7391
  580MOL0     H78238   3.067   0.113   3.971  0.3514 -0.1325  1.8178
  580MOL0     H78239   3.088   0.304   4.097 -2.8230 -0.5702 -0.0767
  580MOL0     H78240   3.154   0.404   3.979 -0.7584  0.0612  1.4939
  580MOL0     H78241   2.881   0.276   3.947  1.2033 -0.3969 -0.3658
  580MOL0     H78242   2.896   0.419   4.033  0.4682 -1.2712  0.8937
  580MOL0     H78243   3.002   0.554   3.852 -0.2723  0.7455 -2.3960
  580MOL0     H78244   3.013   0.410   3.750 -3.4687 -2.8937 -1.8777
  580MOL0     H78245   2.820   0.555   3.680  0.7552 -1.2452  0.1065
  580MOL0     H78246   2.759   0.408   3.728 -0.5317  0.4916  0.0994
  580MOL0     H78247   2.620   0.600   3.823 -0.6274  1.3250  1.7583
  580MOL0     H78248   2.685   0.494   3.954  1.4638 -2.2962 -2.2722
  580MOL0     H78249   2.866   0.656   3.984  0.8603  0.1678 -1.1721
  580MOL0     H78250   2.698   0.724   4.018  0.3713  2.7348 -1.4716
  580MOL0     H78251   2.570   0.846   3.807 -0.4570  1.1740 -1.0355
  580MOL0     H78252   2.770   1.106   3.558 -1.4314  1.2488 -3.0466
  580MOL0     H78253   2.626   1.003   3.556  1.0893  0.0577 -0.9597
  580MOL0     H78254   2.543   1.111   3.773 -0.7278 -0.8341 -0.5505
  580MOL0     H78255   2.527   1.206   3.631 -2.0877  0.5336  2.5646
  580MOL0     H78256   2.777   1.298   3.697  1.3648  0.5222  2.1801
  580MOL0     H78257   2.735   1.230   3.849  0.4813 -1.1840 -1.0533
  580MOL0     H78258   2.570   1.425   3.689  1.3886 -1.0234 -0.8308
  580MOL0     H78259   2.674   1.476   3.828 -0.6547  1.5560 -1.7987
  580MOL0     H78260   2.371   1.369   4.075  0.5484 -0.1395 -0.1409
  580MOL0     H78261   2.244   1.565   4.286  0.5075 -0.4460 -1.1029
  580MOL0     H78262   2.092   1.574   4.181 -0.5315 -1.6124 -3.4355
  580MOL0     H78263   2.182   1.423   4.190  0.9628 -0.1735  0.3472
  580MOL0     H78264   2.170   2.072   4.245  1.2337 -0.6492  2.0762
  580MOL0     H78265   1.979   2.211   4.318 -0.6263  1.1258 -1.2293
  580MOL0     H78266   1.601   2.109   4.218 -0.4594  2.1850  0.3718
  580MOL0     H78267   1.605   2.005   4.358  1.7738 -1.4634 -3.3569
  580MOL0     H78268   1.411   2.147   4.386  0.6106  0.3134 -0.0383
  580MOL0     H78269   1.536   2.221   4.501  1.1812  0.2127 -0.2575
  580MOL0     H78270   1.475   2.325   4.231 -0.5452  1.4681 -0.2860
  580MOL0     H78271   1.601   2.373   4.341  0.8143 -1.5084 -0.2738
  580MOL0     H78272   1.330   2.385   4.488  2.8560  0.7085  2.1706
  580MOL0     H78273   1.472   2.475   4.506  0.0619 -1.5811  0.3241
  580MOL0     H78274   1.277   2.500   4.278 -0.9813  2.9824 -1.6342
  580MOL0     H78275   1.416   2.613   4.329  0.3322  0.0466  4.6079
  580MOL0     H78276   1.199   2.719   4.375 -1.5964 -1.1079 -1.1469
  580MOL0     H78277   1.155   2.571   4.465 -0.6937  0.0325 -1.6632
  580MOL0     H78278   1.382   2.752   4.559  2.2455 -3.0963 -0.1732
  580MOL0     H78279   1.306   2.634   4.654 -0.5087  0.3719  0.4017
  580MOL0     H78280   1.139   2.864   4.571  3.6964  2.8458  1.8516
  580MOL0     H78281   1.207   2.848   4.721 -2.9755  0.9498 -0.3146
  580MOL0     H78282   1.725   1.865   4.293 -0.0294  1.2800  0.6353
  580MOL0     H78283   1.915   1.727   4.234  0.8922 -0.3391 -3.7377
  580MOL0     H78284   2.377   1.811   3.848 -1.6930 -0.5242 -1.1263
  580MOL0     H78285   2.494   1.628   3.766  0.5779 -1.4502 -0.9410
  580MOL0     H78286   3.481   0.226   3.747  2.8449  1.2016 -0.8582
  580MOL0     H78287   3.711   0.215   3.732 -0.9877 -0.5364 -1.4704
  580MOL0     H78288   4.107   0.384   3.955  0.7400  0.4729  2.2026
  580MOL0     H78289   4.345   0.388   3.945 -0.3241  0.6168 -0.8794
  580MOL0     H78290   4.504   0.265   4.075  0.0693 -0.1151  0.0583
  580MOL0     H78291   4.642   0.161   4.060 -1.8428 -2.1471  0.3939
  580MOL0     H78292   4.694   0.407   4.045  1.5702  1.1549 -1.6749
  580MOL0     H78293   4.568   0.438   3.923  0.4560  0.0731 -0.0749
  580MOL0     H78294   4.709   0.406   3.773 -0.6580  0.1682 -0.6328
  580MOL0     H78295   4.721   0.237   3.810  1.1356 -1.1792  2.1391
  580MOL0     H78296   4.939   0.437   3.926  1.3492  0.2540 -1.8854
  580MOL0     H78297   4.953   0.326   3.800 -1.6233 -2.4303 -1.4455
  580MOL0     H78298   5.011   0.094   4.163  0.1990 -0.2824  0.6980
  580MOL0     H78299   4.345  -0.008   3.828 -1.1440 -0.9284 -0.1017
  580MOL0     H78300   4.125  -0.040   3.850  0.2383  0.6145 -0.6026
  581MOL0     O78301   9.493   7.880   8.631  0.2229  0.1173  0.6560
  581MOL0     C78302   9.564   7.868   8.731  0.8298 -0.2315  0.2805
  581MOL0     O78303   9.524   7.803   8.840  1.4806  0.4863 -0.5014
  581MOL0     C78304   9.398   7.754   8.863 -0.3205  0.4225  0.1147
  581MOL0     C78305   9.316   7.818   8.957 -0.0118  0.5834 -0.1268
  581MOL0     C78306   9.190   7.755   8.996  0.1482  0.6635 -0.3053
  581MOL0     C78307   9.156   7.627   8.947 -0.3630 -0.1916 -0.2061
  581MOL0     O78308   9.029   7.576   8.985  0.0375 -0.5561  0.0179
  581MOL0     C78309   8.965   7.484   8.893 -0.5350 -0.8341 -0.2532
  581MOL0     C78310   8.812   7.475   8.918 -0.6305 -0.3449  0.0458
  581MOL0     C78311   8.748   7.612   8.913 -0.5488  0.3697  0.3167
  581MOL0     C78312   8.597   7.598   8.927  0.3625  0.0023  0.2357
  581MOL0     C78313   8.534   7.741   8.923 -0.7074 -0.5274 -0.1768
  581MOL0     C78314   8.391   7.732   8.877  0.0687  0.2532 -0.7335
  581MOL0     C78315   8.310   7.658   8.990 -0.4001  0.8340  0.8415
  581MOL0     C78316   8.283   7.738   9.109 -0.5029  0.1682 -0.5855
  581MOL0     N78317   8.147   7.777   9.121 -0.2845 -0.1657  0.3187
  581MOL0     C78318   8.096   7.896   9.084  0.6865 -0.0565 -0.9466
  581MOL0     C78319   7.967   7.884   9.108 -0.3084 -0.8334 -0.2618
  581MOL0     C78320   7.864   7.986   9.097 -0.1881 -0.0812 -0.2963
  581MOL0     C78321   7.779   7.986   8.971  0.3290 -0.6165  0.4516
  581MOL0     C78322   7.667   7.888   8.968  0.5343 -0.1427  0.5083
  581MOL0     C78323   7.575   7.900   8.848  0.1651 -0.2811 -0.2038
  581MOL0     O78324   7.494   8.030   8.850  0.5648  0.3205 -0.0013
  581MOL0     C78325   7.391   8.055   8.761  1.0261 -0.1820  0.1877
  581MOL0     C78326   7.358   8.189   8.730 -0.2760  0.5980  0.1009
  581MOL0     C78327   7.248   8.224   8.651  0.3847  0.8340 -0.2532
  581MOL0     C78328   7.226   8.368   8.644  0.2868 -0.8433  0.7009
  581MOL0     C78329   7.162   8.126   8.600  0.3733  0.1593  0.6669
  581MOL0     C78330   7.044   8.155   8.513  0.7356  0.1001  0.3976
  581MOL0     O78331   6.960   8.047   8.483 -0.0148 -0.0258 -0.7086
  581MOL0     C78332   6.839   8.075   8.420 -0.8979 -0.2471 -0.4149
  581MOL0     C78333   6.731   8.141   8.485  0.3817  0.2144  0.7613
  581MOL0     C78334   6.610   8.151   8.426 -0.3806 -0.1408  0.2442
  581MOL0     C78335   6.594   8.115   8.287 -0.2498  0.1861  0.9537
  581MOL0     O78336   6.478   8.121   8.219  0.1984  0.1059  0.1097
  581MOL0     C78337   6.355   8.138   8.276  0.2301  0.3926 -0.5382
  581MOL0     C78338   6.232   8.118   8.185 -0.5909  0.0097 -0.5762
  581MOL0     C78339   6.102   8.153   8.239  0.3739 -0.6250  0.6291
  581MOL0     C78340   6.045   8.298   8.223 -0.5211  0.2359 -0.4019
  581MOL0     C78341   5.899   8.320   8.248 -0.5996 -1.0435  0.3965
  581MOL0     C78342   5.820   8.276   8.119 -0.3737 -0.4947  1.0205
  581MOL0     C78343   5.844   8.359   7.990  0.5421  0.2648  0.3333
  581MOL0     C78344   5.766   8.490   7.984  0.1924  0.2893  0.4661
  581MOL0    Cl78345   5.730   8.562   7.812 -0.0941  0.0509 -0.2382
  581MOL0     C78346   6.715   8.073   8.214  0.2972  0.0339 -0.3158
  581MOL0     C78347   6.834   8.055   8.282  0.8557 -1.0434  0.3568
  581MOL0     O78348   7.023   8.267   8.476 -0.1300  0.6136 -0.1405
  581MOL0     C78349   7.198   7.991   8.620  0.3854  0.3317  0.8067
  581MOL0     C78350   7.311   7.958   8.707  0.0220  0.6187  0.6576
  581MOL0     N78351   7.946   7.760   9.156  0.1434  0.3975  0.2518
  581MOL0     N78352   8.052   7.688   9.149  0.1166 -0.9321 -0.3130
  581MOL0     C78353   9.244   7.568   8.851  1.2080 -1.1819 -0.5278
  581MOL0     C78354   9.363   7.630   8.814  0.7974 -0.6169 -0.6051
  581MOL0     C78355   9.688   7.943   8.734  0.5121 -0.3066  0.2697
  581MOL0     C78356   9.718   8.058   8.661 -0.3974 -0.8462  0.0559
  581MOL0     C78357   9.827   8.129   8.668  0.3484  1.5277  0.4457
  581MOL0     C78358   9.928   8.098   8.760  0.0694 -0.8054 -0.4731
  581MOL0     O78359  10.028   8.189   8.776  0.2091 -0.2702  0.0945
  581MOL0     C78360  10.076   8.262   8.660  0.6377  0.0670  0.0846
  581MOL0     C78361  10.220   8.307   8.678  0.2417  0.0407  0.4921
  581MOL0     C78362  10.257   8.368   8.823 -0.3348  0.7906  0.2578
  581MOL0     C78363  10.243   8.515   8.836 -1.3647  0.3753 -0.4549
  581MOL0     C78364  10.110   8.560   8.826 -0.6808 -1.3213  0.3930
  581MOL0     C78365  10.000   8.597   8.820  0.3144  0.1606 -0.5826
  581MOL0     C78366   9.914   7.970   8.827 -0.2473 -1.5725  0.0189
  581MOL0     C78367   9.792   7.899   8.815 -0.4276 -0.1777 -0.3237
  581MOL0     H78368   9.346   7.914   8.999 -1.6454  1.1498 -0.2093
  581MOL0     H78369   9.117   7.814   9.050  0.9537  1.2372  0.1876
  581MOL0     H78370   8.984   7.515   8.790  1.4286  1.0150  0.5977
  581MOL0     H78371   9.002   7.384   8.915 -2.3253 -1.3644  0.5265
  581MOL0     H78372   8.772   7.414   8.836  1.3091  0.0495 -1.2682
  581MOL0     H78373   8.799   7.429   9.016  1.9455  1.8229  1.5539
  581MOL0     H78374   8.786   7.669   8.999  0.4442 -0.9783  0.8041
  581MOL0     H78375   8.776   7.661   8.820 -0.2232 -0.7505 -0.1887
  581MOL0     H78376   8.561   7.533   8.846 -1.5004  0.9018  0.2914
  581MOL0     H78377   8.579   7.533   9.013 -0.5673 -2.1333 -1.4687
  581MOL0     H78378   8.539   7.789   9.021 -0.3187  2.8583 -1.6768
  581MOL0     H78379   8.592   7.804   8.855 -0.0034 -0.4224  0.5063
  581MOL0     H78380   8.351   7.834   8.869  0.8321  0.7850  1.3337
  581MOL0     H78381   8.391   7.676   8.784  0.5514  0.7738 -1.0578
  581MOL0     H78382   8.218   7.615   8.949  0.8855 -0.4665 -0.7920
  581MOL0     H78383   8.358   7.563   9.013 -0.9492  0.9108  2.3877
  581MOL0     H78384   8.348   7.825   9.118  0.0777 -0.1761 -1.3095
  581MOL0     H78385   8.307   7.684   9.201  0.1149  0.4438 -0.5853
  581MOL0     H78386   8.145   7.979   9.035  2.5864 -0.2783  0.4859
  581MOL0     H78387   7.800   7.981   9.186 -1.3008  0.6066 -1.0243
  581MOL0     H78388   7.919   8.080   9.112 -2.2629  1.4705 -1.7490
  581MOL0     H78389   7.834   7.987   8.876 -3.0868  0.7463 -1.7139
  581MOL0     H78390   7.746   8.090   8.963  3.9768  0.7275  0.5977
  581MOL0     H78391   7.597   7.897   9.052 -0.4849 -2.1908 -0.0607
  581MOL0     H78392   7.698   7.783   8.968  0.9418 -0.1197 -2.7705
  581MOL0     H78393   7.509   7.815   8.865  0.4484 -1.0739 -2.7545
  581MOL0     H78394   7.626   7.881   8.753  1.0294 -1.5548  0.4729
  581MOL0     H78395   7.402   8.280   8.771 -0.7574  2.1202 -2.5441
  581MOL0     H78396   7.132   8.397   8.690  0.0773  1.4559 -0.9797
  581MOL0     H78397   7.305   8.431   8.686  0.2930  0.7393 -1.4747
  581MOL0     H78398   7.225   8.400   8.539  1.2857  0.5724  1.0957
  581MOL0     H78399   6.750   8.166   8.589  0.4473  0.3690  0.7124
  581MOL0     H78400   6.532   8.200   8.483  0.1751  2.0012 -0.7647
  581MOL0     H78401   6.362   8.063   8.355  1.4902  0.5113 -0.5179
  581MOL0     H78402   6.347   8.232   8.330  0.4826 -0.3921  0.9242
  581MOL0     H78403   6.244   8.177   8.093  3.5797  1.6061  0.7581
  581MOL0     H78404   6.227   8.013   8.154 -0.3574 -0.3913  0.6933
  581MOL0     H78405   6.098   8.129   8.345 -1.0609  1.9598  1.2577
  581MOL0     H78406   6.035   8.091   8.178 -0.4320 -0.6025  1.4777
  581MOL0     H78407   6.098   8.358   8.298 -0.3338  0.6907 -0.8961
  581MOL0     H78408   6.079   8.339   8.128 -0.0136  2.0320  0.5155
  581MOL0     H78409   5.887   8.426   8.272 -1.1281 -0.7363 -1.1084
  581MOL0     H78410   5.867   8.266   8.338 -2.9220  1.1236  0.9759
  581MOL0     H78411   5.847   8.173   8.093 -1.8840 -0.3838 -1.3429
  581MOL0     H78412   5.713   8.264   8.135 -0.7982 -1.1514 -1.7065
  581MOL0     H78413   5.808   8.296   7.908  0.5966 -1.1934  1.3972
  581MOL0     H78414   5.946   8.387   7.963 -0.2332  1.6395 -1.3979
  581MOL0     H78415   5.809   8.569   8.045 -0.6741  1.4699 -0.4126
  581MOL0     H78416   5.668   8.478   8.032 -0.0824  3.1383  0.7986
  581MOL0     H78417   6.708   8.050   8.108 -1.0603  1.0383 -0.4707
  581MOL0     H78418   6.924   8.020   8.231 -0.1571 -0.6693 -1.8342
  581MOL0     H78419   7.136   7.909   8.587  1.4937 -0.5618  0.8966
  581MOL0     H78420   7.335   7.857   8.740  1.1304  0.7076  0.1728
  581MOL0     H78421   9.216   7.477   8.799 -0.1053 -0.1321 -1.7169
  581MOL0     H78422   9.433   7.583   8.746  2.9260  0.4258  0.7821
  581MOL0     H78423   9.650   8.107   8.592 -2.0960 -0.3245  2.0119
  581MOL0     H78424   9.834   8.227   8.620 -0.0660  1.4152  0.1521
  581MOL0     H78425  10.067   8.214   8.562 -0.2534  3.7278 -1.8236
  581MOL0     H78426  10.007   8.346   8.650  0.2908 -0.3817 -1.6285
  581MOL0     H78427  10.240   8.379   8.598  0.5226 -1.2469 -0.6287
  581MOL0     H78428  10.283   8.220   8.662  0.7659  0.8111 -2.0634
  581MOL0     H78429  10.362   8.343   8.838 -0.0723  0.3273 -2.0233
  581MOL0     H78430  10.195   8.314   8.896 -0.4716  0.4924 -0.0804
  581MOL0     H78431  10.302   8.577   8.768 -0.8142 -1.4321 -1.7248
  581MOL0     H78432  10.272   8.550   8.936 -0.5443  0.6682 -0.7907
  581MOL0     H78433   9.901   8.637   8.823  0.4286  0.4697 -0.9979
  581MOL0     H78434  10.001   7.935   8.882  2.3242  2.6105 -1.0065
  581MOL0     H78435   9.783   7.812   8.878 -2.3420  0.4414  0.3109
  582MOL0     O78436   1.708   0.283   8.120 -0.6286 -0.1973 -0.4967
  582MOL0     C78437   1.717   0.396   8.164 -0.6366 -0.3279  0.0265
  582MOL0     O78438   1.835   0.459   8.184 -0.2470  0.5900  0.1781
  582MOL0     C78439   1.942   0.378   8.195  1.0948 -1.0869 -0.5764
  582MOL0     C78440   1.955   0.274   8.289  0.0127 -0.3785  1.0177
  582MOL0     C78441   2.076   0.206   8.313  0.5780 -0.0076 -0.4379
  582MOL0     C78442   2.197   0.251   8.244 -0.2261 -0.4084 -0.3162
  582MOL0     O78443   2.328   0.211   8.258 -0.4675  0.0722  0.3673
  582MOL0     C78444   2.377   0.114   8.357  1.2292  0.5046 -0.3903
  582MOL0     C78445   2.449   0.174   8.480  0.3050 -0.1338  0.2407
  582MOL0     C78446   2.580   0.239   8.441 -0.4517  0.2593  0.1824
  582MOL0     C78447   2.616   0.360   8.539  1.2250  0.5865  0.1772
  582MOL0     C78448   2.753   0.398   8.504  0.3098  0.0392  0.8612
  582MOL0     C78449   2.793   0.515   8.589 -0.0440 -0.6201 -0.4867
  582MOL0     C78450   2.939   0.547   8.566  1.5414 -0.1552  0.0855
  582MOL0     C78451   2.978   0.699   8.533  0.0139  0.1504 -0.3790
  582MOL0     N78452   2.956   0.779   8.657  0.4607 -0.1557  0.4161
  582MOL0     C78453   2.877   0.897   8.647 -0.0656  0.4590  0.1461
  582MOL0     C78454   2.839   0.923   8.768 -1.1831  0.5116 -0.5238
  582MOL0     C78455   2.771   1.046   8.811 -1.1212 -0.5471  0.0181
  582MOL0     C78456   2.715   1.038   8.958  0.5662 -0.5036 -0.4684
  582MOL0     C78457   2.623   1.158   8.997 -0.1247 -0.2829  0.9066
  582MOL0     C78458   2.479   1.174   8.943  0.3036  0.4690 -0.4055
  582MOL0     O78459   2.460   1.205   8.808  0.3188  0.1746 -1.1093
  582MOL0     C78460   2.334   1.171   8.776  0.7123  0.3092  0.6614
  582MOL0     C78461   2.232   1.262   8.790 -0.2816 -0.0677  0.4116
  582MOL0     C78462   2.100   1.212   8.789 -0.3292  0.6335 -0.3628
  582MOL0     C78463   1.985   1.310   8.785  0.4440  1.0967  0.6972
  582MOL0     C78464   2.080   1.073   8.767 -0.4144  0.4329  0.4017
  582MOL0     C78465   1.949   1.003   8.775  0.3674 -0.3967  0.6007
  582MOL0     O78466   1.864   1.050   8.871  0.2599  0.7912 -0.3782
  582MOL0     C78467   1.750   0.984   8.888  0.5919 -0.4042 -0.3967
  582MOL0     C78468   1.745   0.852   8.948  0.5500  0.4241  0.2539
  582MOL0     C78469   1.616   0.796   8.972  0.1869  0.5446 -0.5479
  582MOL0     C78470   1.500   0.863   8.930 -0.0806  0.2983 -0.9484
  582MOL0     O78471   1.370   0.818   8.958  0.5875 -0.2043 -0.2251
  582MOL0     C78472   1.351   0.688   9.002 -0.2428  0.1028  0.1458
  582MOL0     C78473   1.204   0.640   8.993 -0.6146  0.4842  1.1467
  582MOL0     C78474   1.150   0.629   8.852  0.0067 -0.2323  0.8142
  582MOL0     C78475   1.190   0.488   8.797 -0.3837 -0.2840  0.1288
  582MOL0     C78476   1.128   0.468   8.652  0.1944 -0.0107  0.2992
  582MOL0     C78477   0.980   0.432   8.658  0.2856  0.6223 -0.4240
  582MOL0     C78478   0.913   0.383   8.526 -0.3114 -0.2510  0.2183
  582MOL0     C78479   0.929   0.485   8.408 -0.0855 -0.2252  0.4078
  582MOL0    Cl78480   0.914   0.402   8.248 -0.0028 -0.2312  0.3369
  582MOL0     C78481   1.523   0.984   8.870  0.0418 -0.6293  0.7913
  582MOL0     C78482   1.635   1.049   8.847 -0.5604 -0.5745  0.5266
  582MOL0     O78483   1.921   0.903   8.698 -0.3371 -0.0602  0.5475
  582MOL0     C78484   2.187   0.989   8.727 -0.5864 -0.8348 -0.3790
  582MOL0     C78485   2.312   1.043   8.741 -0.9683  0.6382  0.2428
  582MOL0     N78486   2.878   0.819   8.848  0.6379  0.7091 -0.6421
  582MOL0     N78487   2.956   0.737   8.788 -0.9574  0.5451  0.4587
  582MOL0     C78488   2.182   0.360   8.160 -0.9590  0.0162  0.8421
  582MOL0     C78489   2.063   0.417   8.125  0.3062 -0.0982 -0.1713
  582MOL0     C78490   1.591   0.472   8.161 -0.4078 -0.3220 -0.1837
  582MOL0     C78491   1.597   0.615   8.172 -1.2931 -0.0719 -0.7420
  582MOL0     C78492   1.471   0.679   8.178  0.3952 -0.1827 -0.4988
  582MOL0     C78493   1.345   0.606   8.166  0.3036 -0.1880  0.0825
  582MOL0     O78494   1.212   0.663   8.174 -0.3503 -0.1021 -0.2024
  582MOL0     C78495   1.198   0.801   8.154  0.0665  0.3574  0.6046
  582MOL0     C78496   1.048   0.829   8.140  0.8961  0.3654  0.2660
  582MOL0     C78497   0.969   0.802   8.274  0.0601  0.1186  0.6140
  582MOL0     C78498   0.819   0.801   8.243  0.0068  0.4602 -0.4131
  582MOL0     C78499   0.771   0.914   8.164  0.1256 -0.1568  0.5676
  582MOL0     C78500   0.741   1.016   8.112  0.8764 -0.3564  0.1623
  582MOL0     C78501   1.346   0.465   8.158  0.2803  0.1396  0.3391
  582MOL0     C78502   1.466   0.402   8.165  1.0390 -0.2433  0.3154
  582MOL0     H78503   1.865   0.237   8.338  1.1722 -2.3373  1.8328
  582MOL0     H78504   2.082   0.123   8.383  0.1263  0.8894  0.7083
  582MOL0     H78505   2.294   0.056   8.399  0.5286 -0.0725 -2.4835
  582MOL0     H78506   2.439   0.040   8.306 -2.1311 -2.1761 -0.9797
  582MOL0     H78507   2.389   0.257   8.518 -0.3907  0.1211 -1.3204
  582MOL0     H78508   2.459   0.106   8.565  2.3555  1.1545  1.1139
  582MOL0     H78509   2.664   0.170   8.456 -1.1962 -0.5632  0.6205
  582MOL0     H78510   2.565   0.277   8.339 -4.0197  0.2630  0.5962
  582MOL0     H78511   2.544   0.439   8.517  1.5069  1.1551  1.2784
  582MOL0     H78512   2.594   0.330   8.642 -0.7267  1.6542  0.1138
  582MOL0     H78513   2.817   0.311   8.517  1.2866  0.4952 -0.6494
  582MOL0     H78514   2.769   0.426   8.400 -0.9367  1.0072  0.8932
  582MOL0     H78515   2.732   0.602   8.563  1.7409  0.6125 -0.7476
  582MOL0     H78516   2.777   0.507   8.697 -2.6080  2.2096 -0.5221
  582MOL0     H78517   2.986   0.522   8.661 -1.1628 -0.5031  1.4104
  582MOL0     H78518   2.984   0.482   8.490  3.1769  0.4042  0.5339
  582MOL0     H78519   2.922   0.740   8.449  0.1611 -1.2887 -1.2133
  582MOL0     H78520   3.085   0.694   8.509  0.2271 -2.8166  0.7588
  582MOL0     H78521   2.857   0.955   8.557  0.4301 -1.7270 -1.4676
  582MOL0     H78522   2.836   1.132   8.792  2.1868 -2.9276 -0.3989
  582MOL0     H78523   2.684   1.049   8.745 -1.2959  0.3871  0.2835
  582MOL0     H78524   2.800   1.037   9.028 -0.6273  3.3718  1.2882
  582MOL0     H78525   2.659   0.947   8.982 -0.3099  0.9521  3.9892
  582MOL0     H78526   2.676   1.248   8.965 -1.3034  0.2839  0.4804
  582MOL0     H78527   2.625   1.170   9.106  1.1862 -1.6781  1.0741
  582MOL0     H78528   2.446   1.253   9.011  2.2507  0.8983  0.1026
  582MOL0     H78529   2.427   1.080   8.967  0.4424  0.7764  1.1857
  582MOL0     H78530   2.261   1.367   8.799  0.2698 -0.2042  0.2666
  582MOL0     H78531   1.940   1.321   8.884  0.0822  0.0182  0.6687
  582MOL0     H78532   2.012   1.409   8.746 -0.0445  0.0233 -2.7726
  582MOL0     H78533   1.905   1.267   8.725 -0.0124 -4.1708  4.4064
  582MOL0     H78534   1.836   0.798   8.970 -0.6300 -0.2859  4.1607
  582MOL0     H78535   1.606   0.708   9.034  0.0803  0.2409 -0.9935
  582MOL0     H78536   1.413   0.614   8.949  0.3689 -0.2976  1.3791
  582MOL0     H78537   1.390   0.686   9.104  0.5397  2.6511 -0.0500
  582MOL0     H78538   1.187   0.545   9.045 -2.3790  0.9393  1.4790
  582MOL0     H78539   1.141   0.714   9.044  0.6311  1.8829  0.6998
  582MOL0     H78540   1.207   0.696   8.787  0.0990 -0.5888  0.5191
  582MOL0     H78541   1.045   0.654   8.837 -0.2138 -1.7236 -0.4518
  582MOL0     H78542   1.295   0.482   8.768 -0.8282 -0.6751 -1.5082
  582MOL0     H78543   1.167   0.402   8.861  0.3067 -1.5084 -1.2065
  582MOL0     H78544   1.185   0.393   8.596  0.1963 -1.3344  2.0082
  582MOL0     H78545   1.128   0.561   8.595  1.8723 -1.2267 -1.8315
  582MOL0     H78546   0.969   0.357   8.737  0.6396  2.2998  1.2846
  582MOL0     H78547   0.927   0.520   8.693  0.7511  1.7411 -2.3887
  582MOL0     H78548   0.809   0.353   8.540  0.0780 -2.7739 -1.6359
  582MOL0     H78549   0.961   0.290   8.495  1.5377  0.9465 -0.6534
  582MOL0     H78550   1.024   0.539   8.412 -0.7914  1.0064  1.0310
  582MOL0     H78551   0.842   0.551   8.413 -0.9368 -1.2890  0.0572
  582MOL0     H78552   1.428   1.029   8.841 -0.3871 -1.9275  0.0779
  582MOL0     H78553   1.640   1.146   8.798  1.4392  0.4946  2.6531
  582MOL0     H78554   2.188   0.881   8.718  5.0201 -1.5341  3.2749
  582MOL0     H78555   2.396   0.974   8.729 -1.0778  0.7550 -1.4862
  582MOL0     H78556   2.275   0.390   8.112 -2.1603  0.9638 -0.9919
  582MOL0     H78557   2.061   0.500   8.056  3.1879  0.7563  0.6089
  582MOL0     H78558   1.694   0.662   8.184 -1.3128 -0.2162  0.0221
  582MOL0     H78559   1.472   0.787   8.185 -4.0821 -0.0311  2.2611
  582MOL0     H78560   1.242   0.850   8.241 -0.5309 -0.8077  1.5918
  582MOL0     H78561   1.243   0.826   8.058  1.0533 -4.0871 -0.2889
  582MOL0     H78562   1.002   0.764   8.065 -0.8715  2.4557 -0.5610
  582MOL0     H78563   1.022   0.920   8.086  0.6443 -1.2073 -2.4182
  582MOL0     H78564   0.984   0.889   8.339 -1.9856  0.0293  1.2816
  582MOL0     H78565   0.999   0.710   8.325 -1.4554 -0.8499 -0.1643
  582MOL0     H78566   0.763   0.797   8.337  0.6873  1.3699  0.0433
  582MOL0     H78567   0.793   0.710   8.189 -2.9695  1.9106 -1.6685
  582MOL0     H78568   0.724   1.116   8.078  1.3702 -0.5987 -0.8344
  582MOL0     H78569   1.259   0.403   8.137  0.9712  0.0249 -2.6491
  582MOL0     H78570   1.474   0.294   8.175 -1.6713 -0.6404 -0.7443
  583MOL0     O78571  10.475   1.261   2.305  0.2612  0.0672  0.5083
  583MOL0     C78572  10.531   1.240   2.198 -0.1527 -0.2471  0.7524
  583MOL0     O78573  10.503   1.309   2.083 -0.4848  0.6153  0.3989
  583MOL0     C78574  10.375   1.342   2.049  0.4880 -0.0381  0.8361
  583MOL0     C78575  10.350   1.456   1.980  0.1078  0.4374  0.8890
  583MOL0     C78576  10.214   1.503   1.951  0.7852  0.2301 -0.1052
  583MOL0     C78577  10.100   1.433   1.987  0.4971  0.6143 -0.7253
  583MOL0     O78578   9.972   1.470   1.986  0.2369  0.0200 -0.3536
  583MOL0     C78579   9.920   1.554   1.883  0.1324  0.8801  0.6637
  583MOL0     C78580   9.871   1.474   1.760 -0.2790  0.0431 -0.8452
  583MOL0     C78581   9.744   1.398   1.794 -0.1770 -0.2642  0.8283
  583MOL0     C78582   9.765   1.254   1.841 -0.7034  0.7666 -0.1186
  583MOL0     C78583   9.635   1.178   1.861  0.2579 -0.8059  0.5222
  583MOL0     C78584   9.655   1.067   1.962  0.0474  0.1549 -0.3481
  583MOL0     C78585   9.539   0.958   1.956  0.4344  1.0388 -0.0796
  583MOL0     C78586   9.397   1.020   1.975  0.2070 -0.1579 -0.9567
  583MOL0     N78587   9.376   1.078   2.100  0.4286 -0.7164 -0.3398
  583MOL0     C78588   9.378   1.015   2.220  0.2098  0.3188  0.1868
  583MOL0     C78589   9.383   1.113   2.311  0.0185 -0.5920 -0.2390
  583MOL0     C78590   9.385   1.100   2.458 -0.5449  0.0075 -0.0681
  583MOL0     C78591   9.257   1.018   2.508 -0.2524 -0.1287  0.0932
  583MOL0     C78592   9.136   1.105   2.465 -0.8324 -0.0737 -0.3989
  583MOL0     C78593   8.999   1.045   2.490 -0.0089  1.2524 -0.6323
  583MOL0     O78594   8.968   1.035   2.637  0.5846  0.0582 -1.0405
  583MOL0     C78595   8.850   0.980   2.683 -0.1840 -0.1847 -0.1623
  583MOL0     C78596   8.850   0.933   2.812 -0.2237  0.3033 -0.1619
  583MOL0     C78597   8.731   0.884   2.867 -0.2354  0.4016  0.8860
  583MOL0     C78598   8.745   0.840   3.014  0.1956  0.3263  0.4919
  583MOL0     C78599   8.610   0.876   2.794  0.4484  0.1751 -1.1219
  583MOL0     C78600   8.477   0.818   2.849 -0.0523  0.0896 -0.2544
  583MOL0     O78601   8.368   0.837   2.768 -0.2593  0.5485  0.2008
  583MOL0     C78602   8.257   0.768   2.797 -1.1268 -0.0668 -0.5704
  583MOL0     C78603   8.167   0.826   2.893 -0.3554  0.1431  0.1767
  583MOL0     C78604   8.045   0.765   2.925 -0.4024 -0.1723  0.0888
  583MOL0     C78605   8.017   0.649   2.862  0.7757 -0.4903  0.2846
  583MOL0     O78606   7.895   0.588   2.890 -0.2829  0.5452 -0.9113
  583MOL0     C78607   7.854   0.569   3.030  0.6764 -0.0422  0.7595
  583MOL0     C78608   7.730   0.472   3.032 -0.0887 -0.4994 -0.1927
  583MOL0     C78609   7.604   0.547   2.991  0.8301 -0.4963  0.2525
  583MOL0     C78610   7.491   0.448   2.988  0.0605 -0.2795 -0.3422
  583MOL0     C78611   7.359   0.521   2.969 -0.2902 -0.5102 -0.0923
  583MOL0     C78612   7.236   0.438   2.932 -0.3640 -0.6560  0.1246
  583MOL0     C78613   7.196   0.332   3.040  0.4399 -0.9614  0.1080
  583MOL0     C78614   7.084   0.244   3.002  0.0042 -0.4150 -0.0376
  583MOL0    Cl78615   6.920   0.326   2.977  0.2342  0.0636 -0.2579
  583MOL0     C78616   8.099   0.595   2.765  0.3869  0.1692 -0.1584
  583MOL0     C78617   8.221   0.653   2.728 -0.7219 -0.4593 -0.1805
  583MOL0     O78618   8.474   0.766   2.959 -0.3377  0.5055  0.1503
  583MOL0     C78619   8.614   0.931   2.664  0.6265  0.1615 -0.7811
  583MOL0     C78620   8.735   0.976   2.608  0.7686 -0.0569 -0.1451
  583MOL0     N78621   9.383   1.238   2.250 -0.7074 -0.5284  0.2691
  583MOL0     N78622   9.375   1.211   2.125  0.0540 -0.4485  0.0984
  583MOL0     C78623  10.123   1.309   2.058 -0.0392 -0.2475  0.3414
  583MOL0     C78624  10.257   1.258   2.080  0.2503  0.1391  0.0809
  583MOL0     C78625  10.663   1.173   2.200  0.1524 -0.0576  0.7302
  583MOL0     C78626  10.734   1.169   2.087 -0.6018  0.0252  0.4511
  583MOL0     C78627  10.873   1.149   2.083 -0.3022 -0.0896 -0.0147
  583MOL0     C78628  10.945   1.116   2.209 -0.2833 -0.5621  0.8545
  583MOL0     O78629  11.072   1.075   2.220 -0.8523  0.2971  0.1363
  583MOL0     C78630  11.133   0.997   2.111  0.4628 -0.5032  0.6449
  583MOL0     C78631  11.117   0.844   2.099  0.0347 -0.8645 -0.4639
  583MOL0     C78632  10.975   0.802   2.109  0.2910  0.3664 -0.9017
  583MOL0     C78633  10.956   0.655   2.091  0.4847 -0.2452  0.1780
  583MOL0     C78634  10.968   0.623   1.952  0.6158  0.1250  0.9539
  583MOL0     C78635  10.986   0.588   1.837 -0.1050 -0.0507 -0.3740
  583MOL0     C78636  10.866   1.114   2.322 -0.2392  0.0577 -1.1514
  583MOL0     C78637  10.729   1.145   2.321 -0.7929 -0.2189  1.0146
  583MOL0     H78638  10.426   1.525   1.945 -2.4039  1.7484 -2.5424
  583MOL0     H78639  10.196   1.597   1.900  0.7751  1.2685  1.7285
  583MOL0     H78640   9.833   1.610   1.917 -0.0531  0.5541  0.7277
  583MOL0     H78641   9.992   1.629   1.848  0.2656 -0.6644 -2.7934
  583MOL0     H78642   9.848   1.538   1.674 -4.5534 -2.0158 -1.5103
  583MOL0     H78643   9.955   1.408   1.734  1.7842  2.0228  0.3806
  583MOL0     H78644   9.685   1.444   1.873 -3.6955  2.9559 -3.1834
  583MOL0     H78645   9.683   1.395   1.703 -1.3049 -0.7087  1.5897
  583MOL0     H78646   9.836   1.194   1.783  0.7649  1.6974  0.6471
  583MOL0     H78647   9.803   1.270   1.942  1.0729  3.4357 -1.1098
  583MOL0     H78648   9.551   1.242   1.888 -0.3772  0.3953 -3.6395
  583MOL0     H78649   9.599   1.130   1.770  0.9798 -1.4232  0.5523
  583MOL0     H78650   9.756   1.027   1.954 -0.0434 -0.6036  1.6561
  583MOL0     H78651   9.657   1.099   2.067  1.0211 -1.6808  0.2376
  583MOL0     H78652   9.550   0.926   1.852  0.3528 -2.0657  0.7882
  583MOL0     H78653   9.560   0.880   2.028 -1.0160  1.0442  0.3920
  583MOL0     H78654   9.326   0.937   1.988 -0.8119  0.5236 -1.9963
  583MOL0     H78655   9.376   1.094   1.898 -0.9494  0.4109 -0.1271
  583MOL0     H78656   9.373   0.908   2.238 -0.2952  0.4507  0.8603
  583MOL0     H78657   9.480   1.057   2.491 -0.5853  0.9948  1.4741
  583MOL0     H78658   9.380   1.199   2.504 -1.1430 -0.0248 -0.0487
  583MOL0     H78659   9.266   1.017   2.617  2.0961 -1.4457 -0.0360
  583MOL0     H78660   9.248   0.919   2.464 -1.5742  0.2679 -0.5786
  583MOL0     H78661   9.130   1.130   2.359  2.1260  0.6847 -0.4858
  583MOL0     H78662   9.146   1.200   2.520  2.3104 -0.2186 -0.5479
  583MOL0     H78663   8.991   0.944   2.449  1.6751  0.6721  0.3568
  583MOL0     H78664   8.930   1.111   2.436  1.5011  1.0683 -2.9517
  583MOL0     H78665   8.940   0.937   2.872  0.4412  2.8042 -1.2216
  583MOL0     H78666   8.660   0.872   3.075  1.5217  0.6878  2.1971
  583MOL0     H78667   8.763   0.732   3.009  5.5856  1.0148 -1.4717
  583MOL0     H78668   8.830   0.882   3.066  0.7788  3.0226 -2.3391
  583MOL0     H78669   8.191   0.917   2.947 -2.4384  1.1798 -0.5373
  583MOL0     H78670   7.977   0.813   2.995 -0.0927 -2.0386  1.7560
  583MOL0     H78671   7.931   0.516   3.088 -0.1633  0.1022  2.0588
  583MOL0     H78672   7.843   0.657   3.093  0.8477 -0.3356  1.2076
  583MOL0     H78673   7.757   0.395   2.959  2.0383 -1.1645  1.2120
  583MOL0     H78674   7.715   0.421   3.128  0.2535 -0.1913  0.0264
  583MOL0     H78675   7.617   0.592   2.892  0.4943 -1.6050 -0.2981
  583MOL0     H78676   7.579   0.618   3.071  0.7350 -1.0806  0.7425
  583MOL0     H78677   7.506   0.377   2.906  0.6671 -1.8082  1.0278
  583MOL0     H78678   7.490   0.395   3.084  2.6709  1.8676  0.9936
  583MOL0     H78679   7.371   0.600   2.894  0.6923  0.2743  0.8672
  583MOL0     H78680   7.343   0.565   3.067 -1.3452 -1.0530 -0.0096
  583MOL0     H78681   7.151   0.506   2.921 -2.4014 -3.2712 -1.5499
  583MOL0     H78682   7.248   0.403   2.829  1.6236  1.0804 -0.3004
  583MOL0     H78683   7.172   0.390   3.130  0.3324 -0.2894 -0.3486
  583MOL0     H78684   7.287   0.277   3.064  2.0587  1.5846  0.1221
  583MOL0     H78685   7.065   0.192   3.096  3.2192 -0.5377  0.6600
  583MOL0     H78686   7.107   0.166   2.929 -1.6828 -0.5724 -0.4388
  583MOL0     H78687   8.072   0.498   2.723  2.6184  0.1170 -1.6181
  583MOL0     H78688   8.280   0.597   2.656  1.2622 -2.6386  2.9122
  583MOL0     H78689   8.517   0.929   2.615 -0.2850  1.4237  0.8679
  583MOL0     H78690   8.719   1.017   2.508 -0.5063 -2.1065 -0.8553
  583MOL0     H78691  10.037   1.243   2.064  0.7895 -1.6401 -1.9276
  583MOL0     H78692  10.264   1.163   2.132 -3.5946  1.6744  4.0998
  583MOL0     H78693  10.698   1.190   1.987 -1.9860  0.9806  1.1226
  583MOL0     H78694  10.929   1.147   1.991  0.2044 -1.7618  0.3019
  583MOL0     H78695  11.108   1.037   2.012 -0.8856 -1.1297  0.7031
  583MOL0     H78696  11.236   1.028   2.131 -0.6869  3.2966  1.4213
  583MOL0     H78697  11.176   0.802   2.182 -0.6999  1.9042  1.6017
  583MOL0     H78698  11.158   0.811   2.003 -0.2137 -2.9356  0.0794
  583MOL0     H78699  10.916   0.848   2.029  0.8505  1.0494 -0.9295
  583MOL0     H78700  10.938   0.821   2.210  3.6159 -3.1222  1.2590
  583MOL0     H78701  10.856   0.625   2.122  0.5172  2.0399  2.9276
  583MOL0     H78702  11.030   0.601   2.150  0.2728 -0.9358 -0.1782
  583MOL0     H78703  11.000   0.559   1.735  0.6680  1.6660 -0.7926
  583MOL0     H78704  10.915   1.075   2.410  0.7629  0.2063 -1.6284
  583MOL0     H78705  10.692   1.152   2.423  2.7598  3.1515  2.3151
  584MOL0     O78706  10.622   0.859   6.260  0.5722  0.5786  0.0717
  584MOL0     C78707  10.687   0.765   6.211  0.0944  0.2369  1.0293
  584MOL0     O78708  10.639   0.660   6.138 -0.7513  0.3192  0.0551
  584MOL0     C78709  10.513   0.624   6.115  0.4058 -0.6881  0.6274
  584MOL0     C78710  10.500   0.495   6.051 -1.0604 -0.7298 -0.1354
  584MOL0     C78711  10.372   0.450   6.019  0.2673 -0.1349  0.3190
  584MOL0     C78712  10.265   0.534   6.033  0.6511 -0.6228 -0.2481
  584MOL0     O78713  10.138   0.500   5.980  0.2693  0.0021 -0.0072
  584MOL0     C78714  10.038   0.482   6.079 -0.5497 -0.3765  0.1851
  584MOL0     C78715   9.898   0.455   6.001 -0.2421 -0.7503  0.1838
  584MOL0     C78716   9.787   0.481   6.098  0.5015  0.0423  0.3156
  584MOL0     C78717   9.645   0.425   6.059  0.2350 -0.0197  1.1465
  584MOL0     C78718   9.538   0.423   6.172  0.0937  0.3001  0.5134
  584MOL0     C78719   9.504   0.568   6.216  0.8668 -0.3269  0.3910
  584MOL0     C78720   9.419   0.548   6.340  1.1393 -0.0554 -0.5046
  584MOL0     C78721   9.418   0.684   6.415  0.3931 -0.1919  0.4346
  584MOL0     N78722   9.335   0.682   6.531 -0.1571  0.5661 -0.4204
  584MOL0     C78723   9.350   0.601   6.647 -0.8116  0.1794 -0.1728
  584MOL0     C78724   9.251   0.640   6.733  1.2271  0.3586  0.2633
  584MOL0     C78725   9.221   0.588   6.868 -0.9002 -0.1207 -1.3056
  584MOL0     C78726   9.313   0.666   6.976  0.8605  0.0525 -0.4505
  584MOL0     C78727   9.295   0.604   7.115 -0.1408 -1.1895  0.7691
  584MOL0     C78728   9.405   0.638   7.219 -0.4265  0.0378 -1.1369
  584MOL0     O78729   9.352   0.587   7.340 -0.5085 -0.5020 -0.0405
  584MOL0     C78730   9.253   0.645   7.412 -0.4428 -2.1038 -0.1885
  584MOL0     C78731   9.204   0.575   7.522  0.1937 -0.2858 -0.4614
  584MOL0     C78732   9.120   0.628   7.609  0.8212  1.0513 -0.2362
  584MOL0     C78733   9.084   0.548   7.727  0.1568  0.7628  0.6690
  584MOL0     C78734   9.076   0.765   7.600 -0.0348  0.5273  0.0610
  584MOL0     C78735   8.999   0.844   7.699  0.8137  0.0602 -0.4750
  584MOL0     O78736   8.903   0.785   7.766  0.0879 -0.3504  0.1376
  584MOL0     C78737   8.849   0.829   7.877  0.2042  0.4215 -0.8430
  584MOL0     C78738   8.723   0.773   7.891  0.3230  0.6408 -0.4942
  584MOL0     C78739   8.637   0.801   8.000 -0.0392 -0.1869 -0.7219
  584MOL0     C78740   8.684   0.893   8.098 -1.1403  0.1916 -0.7336
  584MOL0     O78741   8.612   0.903   8.209 -0.0850  0.0738 -0.0418
  584MOL0     C78742   8.488   0.970   8.211  0.2598  0.3237  0.0572
  584MOL0     C78743   8.497   1.108   8.181 -0.6200 -0.2214  0.4191
  584MOL0     C78744   8.558   1.202   8.283 -0.3895  1.1142 -0.4616
  584MOL0     C78745   8.514   1.336   8.248  0.4543 -0.0873  0.0135
  584MOL0     C78746   8.575   1.451   8.332  0.9390  0.6033 -0.5723
  584MOL0     C78747   8.530   1.457   8.482  0.4173  0.5810 -0.2259
  584MOL0     C78748   8.387   1.493   8.504 -0.2334  0.7662 -0.4650
  584MOL0     C78749   8.336   1.486   8.651  0.1343 -0.9775  0.4951
  584MOL0    Cl78750   8.325   1.316   8.697 -0.0552 -0.1487  0.0102
  584MOL0     C78751   8.805   0.948   8.082 -0.1568 -0.2558  0.0281
  584MOL0     C78752   8.894   0.915   7.976 -0.5310 -0.1339 -0.2511
  584MOL0     O78753   9.027   0.958   7.712 -0.2153 -0.0322 -0.6889
  584MOL0     C78754   9.109   0.833   7.480  0.1528 -0.4995 -0.1544
  584MOL0     C78755   9.198   0.776   7.384  1.1071  0.1367  0.8586
  584MOL0     N78756   9.186   0.739   6.664  0.3579 -0.7843  0.1698
  584MOL0     N78757   9.236   0.772   6.552  0.5438 -0.3165 -0.4067
  584MOL0     C78758  10.281   0.657   6.108 -0.3285  0.0926 -0.2273
  584MOL0     C78759  10.402   0.701   6.148  0.2414  0.7049 -0.4813
  584MOL0     C78760  10.834   0.777   6.221 -0.4753 -0.5317  0.0887
  584MOL0     C78761  10.914   0.666   6.177 -0.1017 -0.0563  0.0478
  584MOL0     C78762  11.052   0.684   6.198 -0.0756  0.8351  0.2169
  584MOL0     C78763  11.106   0.796   6.255 -0.0460 -1.3727  0.6377
  584MOL0     O78764  11.238   0.827   6.268 -0.2542 -0.5366 -0.6804
  584MOL0     C78765  11.327   0.777   6.170  0.1360 -1.1946 -0.0644
  584MOL0     C78766  11.450   0.855   6.167 -0.3241 -0.7319  0.7115
  584MOL0     C78767  11.564   0.808   6.270  0.9016  0.0558  0.3531
  584MOL0     C78768  11.692   0.878   6.236  0.2086  0.7330 -0.1989
  584MOL0     C78769  11.753   0.805   6.125  0.2431  0.4505  0.3557
  584MOL0     C78770  11.805   0.763   6.029 -0.4377  1.0260  0.1021
  584MOL0     C78771  11.025   0.898   6.290 -0.7275 -0.7834  0.2412
  584MOL0     C78772  10.889   0.889   6.278 -0.2979 -0.4273 -0.3160
  584MOL0     H78773  10.577   0.420   6.037 -0.5213 -0.1914 -0.1016
  584MOL0     H78774  10.373   0.355   5.967  2.3130 -0.0714  0.1604
  584MOL0     H78775  10.060   0.401   6.150 -0.3473 -1.3800 -0.9968
  584MOL0     H78776  10.040   0.576   6.135 -3.0586  0.0841 -0.3696
  584MOL0     H78777   9.891   0.517   5.911  2.0850 -2.5390 -1.3424
  584MOL0     H78778   9.897   0.355   5.958 -1.2388 -0.3109 -0.8832
  584MOL0     H78779   9.814   0.430   6.191 -3.2794 -2.5222  0.2433
  584MOL0     H78780   9.778   0.587   6.123  0.8675  0.1208  0.1304
  584MOL0     H78781   9.608   0.476   5.969  1.7884 -0.5904  0.1421
  584MOL0     H78782   9.656   0.322   6.026 -2.9502 -1.1041  3.0418
  584MOL0     H78783   9.455   0.362   6.134  1.2220 -0.4831 -0.7898
  584MOL0     H78784   9.584   0.366   6.253 -0.4801  0.6553  1.0994
  584MOL0     H78785   9.587   0.636   6.237  0.7926  0.1747 -0.8527
  584MOL0     H78786   9.448   0.609   6.131 -0.5904 -1.9452  0.5280
  584MOL0     H78787   9.317   0.512   6.322  1.8554 -2.5363  0.0431
  584MOL0     H78788   9.462   0.467   6.400 -1.2484 -1.8204 -1.0063
  584MOL0     H78789   9.393   0.768   6.351 -0.3034 -1.5193 -1.0931
  584MOL0     H78790   9.520   0.705   6.448  0.7849 -1.4846  0.1212
  584MOL0     H78791   9.427   0.527   6.668 -1.8679 -0.9093 -0.0435
  584MOL0     H78792   9.114   0.595   6.886 -1.1854 -2.4697 -1.7723
  584MOL0     H78793   9.243   0.481   6.868 -1.3748 -0.2216 -1.5398
  584MOL0     H78794   9.290   0.772   6.982  0.9277  0.0183  4.8537
  584MOL0     H78795   9.416   0.652   6.944  0.7039 -0.2555 -0.8306
  584MOL0     H78796   9.300   0.495   7.106 -1.8726 -1.6714  4.1466
  584MOL0     H78797   9.191   0.618   7.148 -0.8324 -1.9842 -0.9203
  584MOL0     H78798   9.421   0.746   7.226 -1.4132  0.0997  0.7033
  584MOL0     H78799   9.504   0.600   7.190  0.6822  3.4897 -2.3688
  584MOL0     H78800   9.243   0.475   7.538  0.0791 -0.2010  0.3920
  584MOL0     H78801   9.171   0.485   7.748 -1.2789 -1.0019  1.6053
  584MOL0     H78802   9.062   0.598   7.821  1.1220  0.3843  1.1053
  584MOL0     H78803   9.002   0.481   7.698 -0.6819  1.3639  1.5775
  584MOL0     H78804   8.684   0.703   7.818  2.1467  0.5747 -1.4535
  584MOL0     H78805   8.544   0.746   8.005  0.5071 -1.1017 -0.2252
  584MOL0     H78806   8.417   0.931   8.138  0.1999 -1.1492  0.8665
  584MOL0     H78807   8.442   0.962   8.310 -1.0925  1.3771 -0.4521
  584MOL0     H78808   8.552   1.125   8.088 -1.5786  3.2428  0.3504
  584MOL0     H78809   8.393   1.133   8.157 -0.9647 -0.3022  1.7629
  584MOL0     H78810   8.666   1.186   8.276 -0.6193 -2.9922  2.2239
  584MOL0     H78811   8.523   1.177   8.383 -0.3166 -0.1018 -0.7301
  584MOL0     H78812   8.530   1.348   8.140 -2.2118  1.9998 -0.2312
  584MOL0     H78813   8.406   1.343   8.258  0.4185  0.3146 -0.6100
  584MOL0     H78814   8.557   1.546   8.283  7.1201  2.3194 -0.3902
  584MOL0     H78815   8.684   1.461   8.335  0.8795  0.9729  0.9360
  584MOL0     H78816   8.550   1.356   8.519  0.6646  0.1583 -1.4608
  584MOL0     H78817   8.583   1.539   8.531  1.0395  1.0614 -1.6230
  584MOL0     H78818   8.320   1.437   8.440  0.6521  0.6639 -1.3259
  584MOL0     H78819   8.385   1.600   8.481  3.4554  1.6459  2.1844
  584MOL0     H78820   8.234   1.526   8.657 -0.0867 -1.3432 -0.6530
  584MOL0     H78821   8.397   1.537   8.726 -0.0063 -0.1840  0.0877
  584MOL0     H78822   8.844   1.013   8.160  2.1023 -0.5457 -0.7865
  584MOL0     H78823   8.995   0.952   7.974 -0.8724  0.7871 -1.2371
  584MOL0     H78824   9.071   0.933   7.461 -0.5346 -0.2484  2.2811
  584MOL0     H78825   9.218   0.838   7.298 -0.3782  0.6315  0.8240
  584MOL0     H78826  10.200   0.726   6.126 -0.5655  0.3485 -2.1462
  584MOL0     H78827  10.408   0.795   6.204  1.2679  1.2015 -1.3848
  584MOL0     H78828  10.879   0.578   6.124  0.1163  0.8728 -1.6969
  584MOL0     H78829  11.120   0.606   6.168  1.4921  3.0016 -2.2631
  584MOL0     H78830  11.351   0.671   6.184  2.8339 -0.9463 -2.0609
  584MOL0     H78831  11.288   0.781   6.068  3.1089  0.5293 -1.2570
  584MOL0     H78832  11.425   0.962   6.172 -1.7003 -0.8973 -1.5133
  584MOL0     H78833  11.492   0.844   6.067 -0.3130  3.9459 -0.0360
  584MOL0     H78834  11.577   0.699   6.270  0.5490  0.0051  1.5956
  584MOL0     H78835  11.537   0.841   6.370 -0.1142  0.1488  0.0596
  584MOL0     H78836  11.764   0.872   6.319 -1.2103  0.6533  1.0577
  584MOL0     H78837  11.691   0.986   6.223 -0.3031  1.0955  2.3690
  584MOL0     H78838  11.850   0.722   5.941 -1.5744  0.0037 -0.0221
  584MOL0     H78839  11.065   0.990   6.330  1.5150 -2.0552  1.1627
  584MOL0     H78840  10.831   0.979   6.297 -2.1316 -0.9679 -2.8729
  585MOL0     O78841   6.277   0.769   8.127  0.0298 -0.2540 -0.9219
  585MOL0     C78842   6.319   0.675   8.062  0.0341  0.2615  1.0562
  585MOL0     O78843   6.240   0.602   7.983 -0.0086  0.0202  0.5097
  585MOL0     C78844   6.101   0.603   7.995 -0.1743 -0.2404 -0.2732
  585MOL0     C78845   6.014   0.665   7.906 -0.3586 -0.0768  0.3662
  585MOL0     C78846   5.876   0.662   7.922  0.0822  0.0664  0.2733
  585MOL0     C78847   5.810   0.595   8.025 -0.3009  0.0501 -0.0273
  585MOL0     O78848   5.675   0.599   8.055  0.5215 -0.3199  0.4088
  585MOL0     C78849   5.629   0.723   8.112  0.2414 -0.3492 -0.6559
  585MOL0     C78850   5.484   0.743   8.084 -0.1338 -0.8197 -0.5126
  585MOL0     C78851   5.384   0.628   8.130 -0.2794 -0.7126  0.2350
  585MOL0     C78852   5.245   0.684   8.132 -0.4131  0.1439  0.4041
  585MOL0     C78853   5.147   0.590   8.204  0.2336  1.1275  0.3544
  585MOL0     C78854   5.133   0.455   8.137 -0.6677  0.3886  0.5447
  585MOL0     C78855   5.013   0.378   8.199  0.2788  0.6379 -0.5528
  585MOL0     C78856   4.998   0.229   8.145 -0.1923  0.2171 -0.9386
  585MOL0     N78857   4.904   0.156   8.230  0.2697  0.1244  0.1006
  585MOL0     C78858   4.768   0.146   8.203  0.0774  0.1284  0.3685
  585MOL0     C78859   4.728   0.049   8.285  0.3689  0.5707 -0.3045
  585MOL0     C78860   4.584   0.002   8.304 -0.3928  0.5565 -0.2915
  585MOL0     C78861   4.495   0.093   8.392  0.1092  0.0672  0.1289
  585MOL0     C78862   4.359   0.022   8.425 -0.5613  0.1943 -0.1817
  585MOL0     C78863   4.285   0.109   8.537 -0.3333  1.0198  0.7527
  585MOL0     O78864   4.166   0.033   8.573 -0.1388  0.4827  0.2743
  585MOL0     C78865   4.082   0.084   8.671  1.1180  0.0022 -0.6143
  585MOL0     C78866   4.099   0.199   8.750  0.0283 -0.1543  0.3433
  585MOL0     C78867   3.993   0.238   8.839  0.0986  0.8754 -0.5858
  585MOL0     C78868   4.020   0.366   8.908  0.2308  0.0485 -0.8086
  585MOL0     C78869   3.867   0.169   8.845 -0.6737  0.6012 -0.3119
  585MOL0     C78870   3.759   0.210   8.935  0.3172 -0.8009  0.5550
  585MOL0     O78871   3.785   0.290   9.042 -0.5674  0.7817  0.7931
  585MOL0     C78872   3.713   0.257   9.154 -0.5780  0.5168 -0.0313
  585MOL0     C78873   3.775   0.174   9.256 -0.2510 -0.4968  0.8433
  585MOL0     C78874   3.707   0.146   9.365  0.6801  0.1338 -0.2800
  585MOL0     C78875   3.585   0.203   9.400 -0.2252 -0.7139  1.0267
  585MOL0     O78876   3.525   0.196   9.518  0.1809  1.1152 -0.0204
  585MOL0     C78877   3.585   0.112   9.622  0.6130  0.1935 -0.6086
  585MOL0     C78878   3.512   0.126   9.759 -0.0346 -0.1225 -0.7880
  585MOL0     C78879   3.358   0.103   9.742  0.4928 -0.2924 -0.1258
  585MOL0     C78880   3.286   0.173   9.863  0.3603 -0.0177  0.6961
  585MOL0     C78881   3.136   0.153   9.877 -0.1938 -0.0489 -0.1943
  585MOL0     C78882   3.094   0.002   9.893 -0.1225  0.2921  0.2136
  585MOL0     C78883   2.944  -0.018   9.869 -0.4910 -0.4144  0.6942
  585MOL0     C78884   2.916  -0.173   9.852  0.2981  0.0741 -0.2009
  585MOL0    Cl78885   2.980  -0.243  10.013 -0.5157  0.0379  0.2422
  585MOL0     C78886   3.524   0.290   9.308  0.0241  0.5677 -0.2399
  585MOL0     C78887   3.583   0.302   9.183 -0.4104  0.7546 -0.0350
  585MOL0     O78888   3.646   0.163   8.912  0.8435 -0.0840  0.6678
  585MOL0     C78889   3.866   0.047   8.773 -1.5805 -0.2158  0.1879
  585MOL0     C78890   3.963   0.020   8.679 -0.0202  1.1053  0.1355
  585MOL0     N78891   4.838  -0.012   8.347  0.7910  0.5744  0.2693
  585MOL0     N78892   4.942   0.059   8.318 -0.5346  0.6899  0.4317
  585MOL0     C78893   5.902   0.531   8.120  0.0587 -0.6401  0.0035
  585MOL0     C78894   6.042   0.539   8.098  0.5618  1.0306  0.2453
  585MOL0     C78895   6.460   0.650   8.048  0.2189 -0.7005 -0.2925
  585MOL0     C78896   6.518   0.544   7.988 -1.1333 -0.0686 -0.0316
  585MOL0     C78897   6.654   0.513   7.996  0.6841 -0.1349  0.8355
  585MOL0     C78898   6.747   0.608   8.039 -0.7979 -0.1519  0.0487
  585MOL0     O78899   6.880   0.585   8.034  0.3038  0.4382  0.0580
  585MOL0     C78900   6.969   0.696   8.016  0.2290 -0.8024  0.5344
  585MOL0     C78901   7.103   0.636   7.960 -0.5535  0.2627 -0.4868
  585MOL0     C78902   7.164   0.747   7.880 -0.3922 -0.8527  0.4180
  585MOL0     C78903   7.292   0.707   7.817 -0.3216 -0.3628 -1.2424
  585MOL0     C78904   7.336   0.825   7.736 -0.2769  0.3438 -0.6573
  585MOL0     C78905   7.366   0.932   7.690 -0.4925 -0.4430 -0.4374
  585MOL0     C78906   6.695   0.734   8.090 -0.0743  0.0621  0.9595
  585MOL0     C78907   6.549   0.747   8.104 -0.0607  0.1420  0.3720
  585MOL0     H78908   6.067   0.706   7.821 -1.5479  1.5376  0.3749
  585MOL0     H78909   5.810   0.705   7.847  1.0007  2.0682  0.5488
  585MOL0     H78910   5.648   0.724   8.220  1.5198 -0.0565 -0.8586
  585MOL0     H78911   5.685   0.805   8.067  1.5739 -0.0694  1.3651
  585MOL0     H78912   5.455   0.834   8.137  2.9936 -0.7057  1.2500
  585MOL0     H78913   5.487   0.759   7.976  0.2317 -1.9212 -0.6747
  585MOL0     H78914   5.393   0.546   8.058 -3.1106  0.4340 -1.6304
  585MOL0     H78915   5.405   0.588   8.229 -1.1410 -2.8751 -0.3956
  585MOL0     H78916   5.250   0.779   8.186  0.1085  1.0855 -1.2405
  585MOL0     H78917   5.209   0.687   8.029 -3.9765 -0.9114  1.4718
  585MOL0     H78918   5.169   0.571   8.310 -0.1509 -0.5831  0.1596
  585MOL0     H78919   5.047   0.632   8.202  0.6236  2.2641  2.1593
  585MOL0     H78920   5.112   0.450   8.029 -1.5620 -1.6648  0.7608
  585MOL0     H78921   5.228   0.402   8.150  0.3173  1.3400 -1.9966
  585MOL0     H78922   5.029   0.383   8.307  0.7055  1.0849 -0.6303
  585MOL0     H78923   4.919   0.430   8.181  0.6156  0.5569 -2.8026
  585MOL0     H78924   5.097   0.184   8.144 -0.6919 -0.9219 -0.6703
  585MOL0     H78925   4.954   0.235   8.045 -4.1829  1.1597  0.6763
  585MOL0     H78926   4.717   0.209   8.131  0.1552  0.7470  0.8502
  585MOL0     H78927   4.542  -0.016   8.204 -1.8177  2.2246 -0.0533
  585MOL0     H78928   4.579  -0.095   8.355  0.5298 -0.9602 -2.8602
  585MOL0     H78929   4.478   0.184   8.334  1.6740  0.1155 -0.2734
  585MOL0     H78930   4.556   0.119   8.478  0.4164  0.3412 -0.1698
  585MOL0     H78931   4.386  -0.071   8.476 -1.2141 -0.0004 -0.1775
  585MOL0     H78932   4.308  -0.001   8.331  1.2318  1.7636 -1.6075
  585MOL0     H78933   4.269   0.207   8.490  2.5180 -0.2990 -3.5131
  585MOL0     H78934   4.349   0.124   8.624  0.2231  0.4795  0.4400
  585MOL0     H78935   4.185   0.261   8.731  0.7337 -1.5488 -1.3124
  585MOL0     H78936   4.113   0.409   8.868  0.0839  1.5879  0.4039
  585MOL0     H78937   3.938   0.437   8.898 -2.1882 -2.1301  1.6975
  585MOL0     H78938   4.031   0.343   9.015 -0.8258 -1.0980 -0.9265
  585MOL0     H78939   3.880   0.146   9.260  0.2734  1.4766  3.4355
  585MOL0     H78940   3.762   0.075   9.426 -1.2313 -0.8396  0.3923
  585MOL0     H78941   3.587   0.011   9.582 -0.7529  0.5086 -1.5402
  585MOL0     H78942   3.691   0.139   9.623  1.4831 -2.5560 -3.1864
  585MOL0     H78943   3.556   0.042   9.814  4.4482  2.0459 -0.6490
  585MOL0     H78944   3.523   0.224   9.808 -0.8297 -0.4886  0.1751
  585MOL0     H78945   3.340  -0.002   9.721  0.4036 -0.0242 -1.4639
  585MOL0     H78946   3.342   0.165   9.653  1.7755 -0.1285 -0.2560
  585MOL0     H78947   3.336   0.157   9.959  0.0471 -1.3514  0.6620
  585MOL0     H78948   3.283   0.281   9.846 -1.0153  0.2317  2.2209
  585MOL0     H78949   3.092   0.191   9.784 -0.4527 -0.3432 -0.1942
  585MOL0     H78950   3.093   0.215   9.956  0.0441  3.0602 -2.3142
  585MOL0     H78951   3.153  -0.066   9.831 -0.6039  0.4291 -0.4042
  585MOL0     H78952   3.114  -0.032   9.995  0.6717  0.1112  0.0015
  585MOL0     H78953   2.920   0.029   9.774  0.0347  2.0602  1.6937
  585MOL0     H78954   2.888   0.032   9.949  0.6143  1.0131  0.6125
  585MOL0     H78955   2.972  -0.201   9.763 -0.3513  1.3194 -1.0412
  585MOL0     H78956   2.810  -0.192   9.835  0.0958 -1.2764  2.1431
  585MOL0     H78957   3.430   0.332   9.341  0.3472  0.4894  0.7973
  585MOL0     H78958   3.549   0.373   9.109  2.2206  1.2543 -0.8606
  585MOL0     H78959   3.782  -0.020   8.788 -1.6495 -0.1203  0.2312
  585MOL0     H78960   3.959  -0.059   8.605  1.2214  0.1143  1.1007
  585MOL0     H78961   5.866   0.476   8.206  0.0534 -2.0431 -0.8649
  585MOL0     H78962   6.106   0.497   8.176 -0.4856 -0.9996  0.0766
  585MOL0     H78963   6.457   0.479   7.926  1.8907 -1.2957 -1.9624
  585MOL0     H78964   6.699   0.417   7.973 -1.8929 -2.0519  3.0538
  585MOL0     H78965   6.927   0.768   7.945 -2.1134  0.8332  3.3452
  585MOL0     H78966   6.980   0.756   8.107  3.1588 -0.1027 -0.1806
  585MOL0     H78967   7.077   0.549   7.898 -0.1935 -0.4933  0.4053
  585MOL0     H78968   7.167   0.614   8.046 -1.6935 -0.4013  0.2252
  585MOL0     H78969   7.185   0.837   7.939  1.2515 -0.4769 -0.6825
  585MOL0     H78970   7.092   0.763   7.799 -0.2272 -1.5047  0.1368
  585MOL0     H78971   7.280   0.622   7.749  0.0828 -1.3509 -0.1102
  585MOL0     H78972   7.366   0.685   7.895 -4.3264 -0.1286  3.0614
  585MOL0     H78973   7.406   1.026   7.657 -0.1089  0.3920  2.2042
  585MOL0     H78974   6.757   0.814   8.128 -0.4288  2.3389 -2.7147
  585MOL0     H78975   6.503   0.835   8.146 -3.1063 -0.1275 -2.0702
  586MOL0     O78976   5.097   8.606   6.818  0.7411 -0.0786  0.9421
  586MOL0     C78977   5.129   8.524   6.906  0.5313  1.2453 -0.1265
  586MOL0     O78978   5.041   8.433   6.957 -0.8977 -0.7507 -0.4222
  586MOL0     C78979   4.931   8.395   6.881  0.6118  0.0409 -0.1585
  586MOL0     C78980   4.946   8.338   6.758  0.0281 -0.1370  0.4743
  586MOL0     C78981   4.832   8.298   6.682  0.2166  0.5961 -0.5175
  586MOL0     C78982   4.702   8.295   6.740 -0.5338 -0.4600 -0.5794
  586MOL0     O78983   4.596   8.234   6.663 -0.1296 -0.0101  0.1297
  586MOL0     C78984   4.465   8.272   6.705  0.2050 -0.4945  0.9006
  586MOL0     C78985   4.364   8.203   6.618 -0.6646  0.4954 -0.8673
  586MOL0     C78986   4.329   8.064   6.668  0.0839 -0.2625  1.3187
  586MOL0     C78987   4.195   8.025   6.610  0.0493 -0.1472 -0.0388
  586MOL0     C78988   4.125   7.909   6.687  0.6759  0.7175 -0.3324
  586MOL0     C78989   3.999   7.846   6.630  0.0715  0.1787  0.1454
  586MOL0     C78990   4.034   7.732   6.536 -0.9337 -0.4913 -0.4509
  586MOL0     C78991   3.902   7.661   6.483 -0.2165  0.1885  0.6765
  586MOL0     N78992   3.853   7.735   6.370 -1.1205  0.1402  0.0782
  586MOL0     C78993   3.876   7.859   6.327  0.8631  0.2982  0.0063
  586MOL0     C78994   3.827   7.870   6.202  0.0934 -0.1223 -0.3509
  586MOL0     C78995   3.843   7.986   6.105 -0.7003 -0.0997  0.0156
  586MOL0     C78996   3.711   8.048   6.099  0.7583 -0.0240  0.3728
  586MOL0     C78997   3.711   8.149   5.984  0.3251  0.0451 -0.1945
  586MOL0     C78998   3.566   8.189   5.943 -0.0398 -0.7597 -0.4986
  586MOL0     O78999   3.499   8.253   6.046  0.0806 -0.0365 -0.1639
  586MOL0     C79000   3.372   8.302   6.018  0.5898  0.4313  0.1942
  586MOL0     C79001   3.303   8.298   5.894 -0.2062 -1.0564 -0.1790
  586MOL0     C79002   3.179   8.368   5.869  0.4609  0.1333 -0.1798
  586MOL0     C79003   3.110   8.356   5.737 -0.3138 -0.3827  0.6251
  586MOL0     C79004   3.117   8.425   5.977  0.3283  0.0613  0.5391
  586MOL0     C79005   2.990   8.500   5.974  0.0728 -0.8153 -0.6317
  586MOL0     O79006   2.884   8.457   5.900  0.4729  0.7047 -0.0850
  586MOL0     C79007   2.764   8.518   5.926 -0.1423  0.0129  0.1565
  586MOL0     C79008   2.746   8.644   5.880 -0.1537 -0.1826 -0.0256
  586MOL0     C79009   2.627   8.711   5.883 -0.5767 -0.0956  0.5212
  586MOL0     C79010   2.515   8.647   5.935 -0.1975 -0.1696  0.2732
  586MOL0     O79011   2.391   8.705   5.928  0.0809  0.2024 -0.5524
  586MOL0     C79012   2.377   8.843   5.959  0.2872  0.2732  0.0301
  586MOL0     C79013   2.229   8.884   5.988  0.0433 -0.3768 -0.3103
  586MOL0     C79014   2.141   8.799   5.912 -0.1005  0.3723  0.1002
  586MOL0     C79015   1.997   8.858   5.909  0.4139  0.6702  0.8689
  586MOL0     C79016   1.917   8.793   5.791 -0.3427 -0.5338 -0.1234
  586MOL0     C79017   1.803   8.884   5.752  1.1725  0.0933 -0.5641
  586MOL0     C79018   1.700   8.815   5.655  0.5804 -0.3893  0.1874
  586MOL0     C79019   1.603   8.921   5.589  0.1676 -0.0538 -0.6532
  586MOL0    Cl79020   1.703   9.061   5.531 -0.5288  0.3843 -0.1377
  586MOL0     C79021   2.522   8.514   5.976 -0.0493 -0.7481 -0.4870
  586MOL0     C79022   2.649   8.456   5.983 -0.8634 -0.7474 -0.4543
  586MOL0     O79023   2.979   8.598   6.046  0.5428  0.4483  0.0438
  586MOL0     C79024   3.180   8.438   6.099 -0.2155 -0.0168  0.0958
  586MOL0     C79025   3.308   8.379   6.117  0.1087 -0.2773  0.2959
  586MOL0     N79026   3.756   7.751   6.171 -1.6501  0.0327  0.0175
  586MOL0     N79027   3.783   7.675   6.269  0.4048  0.6210  0.6371
  586MOL0     C79028   4.685   8.350   6.874  0.1047  0.7804  0.2602
  586MOL0     C79029   4.799   8.403   6.937  0.0040  0.7258  0.6078
  586MOL0     C79030   5.269   8.527   6.963 -0.7902 -0.4170  0.1877
  586MOL0     C79031   5.375   8.603   6.897 -0.1358  0.1525 -0.4273
  586MOL0     C79032   5.507   8.605   6.941 -0.1998  0.0105 -0.5625
  586MOL0     C79033   5.543   8.519   7.052 -0.1385 -0.2567  0.2145
  586MOL0     O79034   5.678   8.528   7.087 -0.3128 -0.3291  0.0618
  586MOL0     C79035   5.735   8.446   7.187  0.3362 -0.0797 -0.1329
  586MOL0     C79036   5.750   8.518   7.320 -0.2122 -0.2760 -0.3539
  586MOL0     C79037   5.839   8.650   7.310  0.3304 -1.5279  0.2430
  586MOL0     C79038   5.925   8.683   7.427 -0.0643 -0.0008  0.0777
  586MOL0     C79039   6.024   8.578   7.454  0.4831 -0.3021  0.0427
  586MOL0     C79040   6.106   8.495   7.486  0.3586  0.2466 -0.2709
  586MOL0     C79041   5.447   8.436   7.109  0.7663 -0.5326  0.0015
  586MOL0     C79042   5.309   8.434   7.065  1.2091 -0.2614  0.7814
  586MOL0     H79043   5.042   8.323   6.709  0.5484  2.5308  0.5348
  586MOL0     H79044   4.848   8.256   6.583  1.9168 -0.3077  0.0868
  586MOL0     H79045   4.456   8.229   6.805  0.8445 -2.9636 -0.0198
  586MOL0     H79046   4.457   8.381   6.707 -0.2717 -0.5334  1.8022
  586MOL0     H79047   4.272   8.262   6.614 -1.9628 -1.4185 -1.2029
  586MOL0     H79048   4.412   8.211   6.520  0.8476 -0.6849 -0.2717
  586MOL0     H79049   4.406   7.993   6.636  1.2477  1.5978 -0.2865
  586MOL0     H79050   4.326   8.059   6.777  0.8816 -2.0664  1.2931
  586MOL0     H79051   4.129   8.112   6.611  1.8223  1.2927 -1.0084
  586MOL0     H79052   4.209   7.991   6.507  0.5318 -1.7591  0.5312
  586MOL0     H79053   4.201   7.833   6.708 -1.3175 -1.2437  0.1851
  586MOL0     H79054   4.093   7.965   6.776 -1.8724  4.8567 -3.4565
  586MOL0     H79055   3.948   7.799   6.715  0.1063  1.0304  0.6508
  586MOL0     H79056   3.938   7.924   6.583 -1.5148 -1.7284 -1.1705
  586MOL0     H79057   4.100   7.778   6.462  1.7983 -2.0685  0.8773
  586MOL0     H79058   4.089   7.660   6.597 -2.1379  0.6394  2.1260
  586MOL0     H79059   3.817   7.669   6.552 -1.2898 -3.3118 -0.0827
  586MOL0     H79060   3.913   7.555   6.459 -0.3228  0.0638  1.1699
  586MOL0     H79061   3.939   7.927   6.383 -1.5216  2.1796  0.5697
  586MOL0     H79062   3.938   8.037   6.123  1.1008 -3.3850  0.6144
  586MOL0     H79063   3.872   7.943   6.009 -3.4833 -1.6439 -0.2392
  586MOL0     H79064   3.676   8.099   6.189 -0.4530  1.0900 -0.6672
  586MOL0     H79065   3.631   7.978   6.072 -1.2218  2.3739 -0.3975
  586MOL0     H79066   3.761   8.113   5.894  0.1923 -0.7053  0.0183
  586MOL0     H79067   3.761   8.241   6.014  0.4891 -0.3023  0.6360
  586MOL0     H79068   3.505   8.104   5.909  2.2577 -2.1345 -1.4804
  586MOL0     H79069   3.587   8.259   5.861 -2.1676  0.6507  0.0947
  586MOL0     H79070   3.359   8.257   5.811  0.7115 -0.9109  0.3509
  586MOL0     H79071   3.100   8.461   5.709 -1.2640 -0.3035  1.2121
  586MOL0     H79072   3.177   8.309   5.665  0.6621  0.9555  0.6319
  586MOL0     H79073   3.015   8.303   5.750  0.5064 -1.8960  0.6315
  586MOL0     H79074   2.827   8.700   5.834  0.8661 -1.0060  0.7197
  586MOL0     H79075   2.625   8.816   5.854  1.6898 -0.4456 -1.1907
  586MOL0     H79076   2.450   8.873   6.035 -0.7185  0.2235  1.0360
  586MOL0     H79077   2.394   8.893   5.863  3.3286 -3.4058 -1.5925
  586MOL0     H79078   2.204   8.873   6.095 -1.2364  2.2625 -0.2666
  586MOL0     H79079   2.211   8.987   5.958 -0.0092  0.9817  3.6994
  586MOL0     H79080   2.147   8.696   5.949  1.7382 -0.6544 -2.6858
  586MOL0     H79081   2.169   8.786   5.807  0.9908 -1.6547  0.5884
  586MOL0     H79082   1.942   8.834   6.001 -1.1182 -2.7911 -0.7704
  586MOL0     H79083   1.995   8.967   5.896  0.7769  0.5375 -0.4011
  586MOL0     H79084   1.898   8.691   5.824  2.5409 -1.1739 -0.1967
  586MOL0     H79085   1.973   8.786   5.697 -0.1391 -1.6150  0.0670
  586MOL0     H79086   1.757   8.916   5.846  5.2704 -0.6006  1.9038
  586MOL0     H79087   1.848   8.969   5.700  4.4848 -1.0269  0.2427
  586MOL0     H79088   1.639   8.739   5.705 -0.7240 -0.5415 -1.5522
  586MOL0     H79089   1.760   8.771   5.574  2.9801 -1.1037  2.2147
  586MOL0     H79090   1.537   8.959   5.668  1.8530 -0.7872  1.1895
  586MOL0     H79091   1.542   8.877   5.509 -1.6220  0.2075  0.5002
  586MOL0     H79092   2.426   8.469   6.002 -1.6892  2.9007  0.3524
  586MOL0     H79093   2.674   8.354   6.011  1.1066 -0.7115 -1.9006
  586MOL0     H79094   3.149   8.483   6.192 -1.5821  1.7224 -1.1318
  586MOL0     H79095   3.357   8.373   6.214 -0.5022 -2.1201  0.5465
  586MOL0     H79096   4.590   8.339   6.925  0.1276 -3.0108 -0.2486
  586MOL0     H79097   4.791   8.451   7.034 -0.3977  1.0517  0.4148
  586MOL0     H79098   5.342   8.654   6.808 -3.6285  1.2276  1.2638
  586MOL0     H79099   5.596   8.656   6.907  1.4783 -1.2996  1.5786
  586MOL0     H79100   5.682   8.353   7.208  0.1748  0.4003  1.6875
  586MOL0     H79101   5.835   8.416   7.154  1.0558  1.1966  0.8012
  586MOL0     H79102   5.788   8.455   7.401 -0.3350 -1.3687 -1.1161
  586MOL0     H79103   5.650   8.526   7.364 -0.1241 -0.7719 -0.0553
  586MOL0     H79104   5.756   8.720   7.316 -0.2117 -2.2440  1.8656
  586MOL0     H79105   5.895   8.671   7.219  0.5361  1.8303  1.0053
  586MOL0     H79106   5.866   8.689   7.520  0.0325 -1.0168  0.2126
  586MOL0     H79107   5.984   8.774   7.418 -1.0767  0.7230  0.4912
  586MOL0     H79108   6.166   8.412   7.518 -0.2505  0.2872  1.0519
  586MOL0     H79109   5.478   8.369   7.188  0.0165  0.4181  1.1605
  586MOL0     H79110   5.231   8.373   7.107 -0.8494 -0.2977 -2.6879
  587MOL0     O79111   3.636   4.336   7.838 -0.0480  0.3441  0.1646
  587MOL0     C79112   3.740   4.316   7.899  0.3747  0.0808  0.5690
  587MOL0     O79113   3.750   4.284   8.028 -0.3923 -0.2529 -0.4477
  587MOL0     C79114   3.640   4.221   8.082  0.6022 -0.0238  0.7516
  587MOL0     C79115   3.527   4.288   8.124  1.1613  0.0701 -0.4422
  587MOL0     C79116   3.425   4.220   8.184  0.1752  0.4427  0.8221
  587MOL0     C79117   3.430   4.082   8.210  0.2230  0.5165  0.3602
  587MOL0     O79118   3.325   4.011   8.273 -0.5755 -0.4039  0.0637
  587MOL0     C79119   3.205   4.078   8.322 -0.1762 -0.7003 -1.3412
  587MOL0     C79120   3.097   4.072   8.216 -0.2305  0.6218  0.0110
  587MOL0     C79121   2.952   4.079   8.257 -0.4851  0.3173  0.6441
  587MOL0     C79122   2.848   4.105   8.143 -0.6324  0.1575 -0.1478
  587MOL0     C79123   2.699   4.112   8.190 -0.3695  0.0063  0.0564
  587MOL0     C79124   2.671   4.217   8.295 -0.8416 -0.2027  0.5868
  587MOL0     C79125   2.526   4.254   8.327  0.2205  0.0050  0.7725
  587MOL0     C79126   2.463   4.300   8.192 -0.2923  1.0614 -0.3465
  587MOL0     N79127   2.324   4.339   8.204 -0.6889  0.1091  0.9557
  587MOL0     C79128   2.262   4.406   8.302  0.4937  0.6741  0.5317
  587MOL0     C79129   2.127   4.413   8.258  0.1900  0.6000 -0.0132
  587MOL0     C79130   2.015   4.477   8.336  0.3729  0.2424  0.5761
  587MOL0     C79131   1.880   4.445   8.268 -0.5394 -0.1902 -0.0554
  587MOL0     C79132   1.767   4.475   8.366  0.3163 -0.6287  0.4918
  587MOL0     C79133   1.635   4.488   8.294 -1.0970  0.1551  0.2004
  587MOL0     O79134   1.625   4.608   8.214 -0.2966  0.4143  0.0663
  587MOL0     C79135   1.519   4.624   8.131  0.4567 -0.3961  0.6677
  587MOL0     C79136   1.506   4.747   8.069 -0.2795  0.1787  0.0278
  587MOL0     C79137   1.398   4.771   7.980 -0.2043 -0.1517 -0.2099
  587MOL0     C79138   1.399   4.905   7.924 -0.6658  0.4935  0.8014
  587MOL0     C79139   1.300   4.661   7.956  1.0211  0.0107 -0.2898
  587MOL0     C79140   1.185   4.668   7.860  0.7667  0.3644  0.4095
  587MOL0     O79141   1.121   4.550   7.836 -0.3618  0.3052  0.8606
  587MOL0     C79142   1.005   4.536   7.768  0.6726 -0.0220 -1.7024
  587MOL0     C79143   0.994   4.420   7.681  0.6526  0.1901 -0.3239
  587MOL0     C79144   0.874   4.410   7.606 -0.0113 -0.1731 -0.1424
  587MOL0     C79145   0.781   4.511   7.605 -0.2060 -0.2159 -0.4216
  587MOL0     O79146   0.661   4.514   7.536  0.3604 -0.3601 -0.4251
  587MOL0     C79147   0.647   4.427   7.424 -0.2743  0.2304 -0.0892
  587MOL0     C79148   0.547   4.483   7.324  0.4114  0.0586 -0.2413
  587MOL0     C79149   0.405   4.446   7.380 -0.0613  0.3085 -0.1948
  587MOL0     C79150   0.291   4.516   7.297  0.3052  0.1594  0.2833
  587MOL0     C79151   0.154   4.471   7.351 -0.6510  0.3802 -0.3766
  587MOL0     C79152   0.058   4.515   7.243  0.1811 -0.0538  0.3182
  587MOL0     C79153  -0.094   4.487   7.268  0.0708  0.1939  0.6877
  587MOL0     C79154  -0.172   4.570   7.166 -0.6829  0.1458 -0.4629
  587MOL0    Cl79155  -0.340   4.575   7.215 -0.5369 -0.1756 -0.6025
  587MOL0     C79156   0.806   4.624   7.686  0.5588 -0.5814 -0.3727
  587MOL0     C79157   0.907   4.638   7.773 -0.0939 -0.1452  0.1347
  587MOL0     O79158   1.157   4.781   7.806  0.5627 -0.4426 -0.8049
  587MOL0     C79159   1.323   4.545   8.024 -0.2550  0.0428 -0.4387
  587MOL0     C79160   1.430   4.525   8.108  0.3582 -0.3362  0.4156
  587MOL0     N79161   2.117   4.348   8.131  0.8808 -0.3041 -0.3055
  587MOL0     N79162   2.238   4.296   8.109  0.2490 -0.3841  0.6416
  587MOL0     C79163   3.538   4.007   8.155  0.3543  0.3800 -0.9882
  587MOL0     C79164   3.643   4.084   8.095 -0.0330 -0.1261  0.2983
  587MOL0     C79165   3.859   4.344   7.817 -0.6175 -0.3445  1.2928
  587MOL0     C79166   3.982   4.384   7.875 -0.2735 -0.3149  0.3861
  587MOL0     C79167   4.094   4.418   7.799  0.9704 -0.2549  0.1361
  587MOL0     C79168   4.092   4.405   7.655 -0.1153  0.6144 -0.7832
  587MOL0     O79169   4.212   4.438   7.592  0.2685  0.2314 -0.5134
  587MOL0     C79170   4.209   4.489   7.459 -0.1308 -0.7084  0.0301
  587MOL0     C79171   4.338   4.463   7.392  0.1048 -0.4101  0.0995
  587MOL0     C79172   4.359   4.315   7.355  0.4414 -0.3057  0.0313
  587MOL0     C79173   4.408   4.284   7.213  0.0018  0.4062 -0.1242
  587MOL0     C79174   4.553   4.285   7.195 -0.0171 -1.0266  0.2625
  587MOL0     C79175   4.656   4.267   7.133 -0.6093 -0.3145  0.5924
  587MOL0     C79176   3.975   4.365   7.595  0.3069  0.2076  0.4999
  587MOL0     C79177   3.862   4.334   7.678  0.1615  0.3173  0.3210
  587MOL0     H79178   3.518   4.396   8.128 -1.6279 -0.1134  1.4124
  587MOL0     H79179   3.344   4.279   8.226 -0.6933  1.3184 -1.8741
  587MOL0     H79180   3.177   4.019   8.410  0.9230 -0.8392 -1.0782
  587MOL0     H79181   3.222   4.177   8.366 -0.0739 -1.7627  1.2145
  587MOL0     H79182   3.138   4.142   8.143  2.6746  0.1744  1.0880
  587MOL0     H79183   3.105   3.970   8.175  0.9542  0.0426  1.5831
  587MOL0     H79184   2.931   3.979   8.298  2.1009 -0.0788  1.1654
  587MOL0     H79185   2.936   4.160   8.328 -0.6664  0.1862  0.7545
  587MOL0     H79186   2.874   4.200   8.096 -1.8758 -0.0984 -1.4549
  587MOL0     H79187   2.862   4.029   8.065  1.3725  0.6498 -0.3274
  587MOL0     H79188   2.639   4.130   8.100  0.8987  0.7397 -0.6914
  587MOL0     H79189   2.683   4.018   8.242  3.3039 -0.9097 -0.2050
  587MOL0     H79190   2.728   4.187   8.383  1.2841 -0.1250 -0.6878
  587MOL0     H79191   2.725   4.304   8.257  1.2741 -1.9447 -0.6385
  587MOL0     H79192   2.466   4.168   8.358 -1.7888 -0.0158 -2.6615
  587MOL0     H79193   2.526   4.334   8.402 -0.0686 -2.0359  3.0675
  587MOL0     H79194   2.462   4.217   8.120 -3.0533  0.2945  0.4537
  587MOL0     H79195   2.519   4.380   8.142  2.2734  0.8744  2.0077
  587MOL0     H79196   2.308   4.450   8.391 -0.4068  0.2505  1.2254
  587MOL0     H79197   2.017   4.441   8.439  3.5539 -0.0744  0.4894
  587MOL0     H79198   2.029   4.585   8.337 -1.9939  0.6131  2.2213
  587MOL0     H79199   1.876   4.339   8.239  3.7212 -0.0047 -2.0631
  587MOL0     H79200   1.876   4.503   8.176  3.8243  1.2795  0.4485
  587MOL0     H79201   1.780   4.569   8.421 -1.5091 -2.4059  4.3013
  587MOL0     H79202   1.766   4.390   8.434  0.0804 -1.5107 -0.5776
  587MOL0     H79203   1.552   4.489   8.365 -2.2301 -1.2401 -1.0387
  587MOL0     H79204   1.633   4.399   8.231  1.0211 -0.3988  0.8340
  587MOL0     H79205   1.578   4.826   8.087  0.2010 -0.2810  0.1493
  587MOL0     H79206   1.479   4.964   7.970 -1.1774  1.5111  0.4287
  587MOL0     H79207   1.409   4.908   7.815 -3.6876  0.3979  0.4363
  587MOL0     H79208   1.306   4.959   7.944 -0.5463  0.9899  0.0874
  587MOL0     H79209   1.082   4.357   7.672  0.8619  0.4645 -0.2186
  587MOL0     H79210   0.871   4.329   7.534 -0.9723  0.3597 -0.7287
  587MOL0     H79211   0.742   4.419   7.371  1.5531  1.0488  2.8837
  587MOL0     H79212   0.626   4.326   7.459 -2.1771  0.3499 -0.7065
  587MOL0     H79213   0.555   4.592   7.315 -0.0944  0.0432 -0.8893
  587MOL0     H79214   0.553   4.438   7.225 -0.7718  0.3545 -0.4588
  587MOL0     H79215   0.393   4.465   7.487  0.8736  0.6468 -0.1403
  587MOL0     H79216   0.390   4.338   7.369 -4.7439  0.9792 -2.5836
  587MOL0     H79217   0.302   4.625   7.309 -1.6476  0.6733 -1.8386
  587MOL0     H79218   0.298   4.491   7.191 -4.7376 -0.7683 -0.1009
  587MOL0     H79219   0.121   4.526   7.439  2.5131  3.8598 -1.0909
  587MOL0     H79220   0.155   4.363   7.367 -0.4856  0.6457  1.5830
  587MOL0     H79221   0.077   4.620   7.222 -0.7548  0.0462 -0.0751
  587MOL0     H79222   0.086   4.468   7.148  1.1308  2.6255 -0.8140
  587MOL0     H79223  -0.112   4.523   7.370  0.0411 -0.1375  0.8001
  587MOL0     H79224  -0.106   4.378   7.262 -0.4036  0.0998  2.7063
  587MOL0     H79225  -0.159   4.535   7.063  1.7679 -4.6744  1.2021
  587MOL0     H79226  -0.129   4.671   7.164  2.7971 -1.2341 -0.6766
  587MOL0     H79227   0.726   4.695   7.667  1.0660  0.8123  2.1591
  587MOL0     H79228   0.926   4.728   7.832  1.2059  1.2316 -2.2271
  587MOL0     H79229   1.260   4.459   8.009 -0.9520  0.4083  0.3229
  587MOL0     H79230   1.445   4.426   8.151  0.4392 -0.9138 -0.8817
  587MOL0     H79231   3.532   3.899   8.152 -1.0387  0.3742  0.4954
  587MOL0     H79232   3.733   4.035   8.059  0.6679  0.4362  1.2431
  587MOL0     H79233   3.988   4.387   7.984 -0.3650  0.0029  0.3822
  587MOL0     H79234   4.179   4.452   7.856  0.2860  3.1956 -0.7108
  587MOL0     H79235   4.120   4.458   7.403 -1.1014  2.6678 -0.5142
  587MOL0     H79236   4.204   4.598   7.467  0.9121 -0.4816 -1.7928
  587MOL0     H79237   4.426   4.492   7.450  0.7159 -1.1457 -0.4426
  587MOL0     H79238   4.335   4.521   7.299 -1.0168  0.0899  0.4280
  587MOL0     H79239   4.263   4.263   7.363 -0.8758  2.1687  1.6171
  587MOL0     H79240   4.426   4.253   7.416 -0.1631 -1.4733 -0.4479
  587MOL0     H79241   4.363   4.358   7.146 -0.6502  1.9569  1.9444
  587MOL0     H79242   4.382   4.182   7.182 -1.2667  0.2837  1.2664
  587MOL0     H79243   4.737   4.260   7.063 -0.6499 -3.5434  0.7477
  587MOL0     H79244   3.967   4.352   7.487 -1.1609  2.0385  0.3387
  587MOL0     H79245   3.772   4.305   7.624  0.6609  0.2375 -0.4854
  588MOL0     O79246   3.922   4.250   9.358 -0.2524  0.2822  0.3249
  588MOL0     C79247   3.930   4.157   9.274 -0.0197 -0.5463 -0.4260
  588MOL0     O79248   3.826   4.075   9.220 -0.0430 -0.2793  0.2983
  588MOL0     C79249   3.701   4.101   9.280 -0.2397 -0.3454 -0.6287
  588MOL0     C79250   3.618   4.202   9.228  0.6318  0.8093  0.0494
  588MOL0     C79251   3.500   4.233   9.297 -0.0187  0.2362 -0.5847
  588MOL0     C79252   3.465   4.172   9.422 -0.6953  0.2654  0.0831
  588MOL0     O79253   3.350   4.218   9.484  0.1041 -0.1254  0.0380
  588MOL0     C79254   3.322   4.170   9.616  0.2156 -0.1400 -1.2127
  588MOL0     C79255   3.190   4.224   9.661  0.3043  0.8726  0.0199
  588MOL0     C79256   3.201   4.381   9.687  0.5921 -0.4843 -0.3593
  588MOL0     C79257   3.085   4.449   9.764  0.1223  0.2715 -0.4549
  588MOL0     C79258   3.059   4.379   9.894  0.0771  1.2455 -0.3319
  588MOL0     C79259   2.969   4.460   9.995  0.7859 -0.6006 -0.4099
  588MOL0     C79260   2.819   4.441   9.963  0.2920 -0.0869  0.6564
  588MOL0     C79261   2.726   4.529  10.048  0.2111  0.0333 -0.4253
  588MOL0     N79262   2.594   4.535   9.993  0.1617  0.5202  0.6425
  588MOL0     C79263   2.539   4.642   9.929  0.1132  0.4133 -0.3904
  588MOL0     C79264   2.405   4.625   9.944  0.3273  1.2133 -0.3927
  588MOL0     C79265   2.289   4.715   9.894  0.1047  0.7020  0.4040
  588MOL0     C79266   2.257   4.678   9.753  0.8134  1.2560 -0.1867
  588MOL0     C79267   2.167   4.545   9.748  0.7620  0.7720  0.0507
  588MOL0     C79268   2.073   4.545   9.633 -0.2058  0.5822  1.2978
  588MOL0     O79269   2.153   4.534   9.509  0.2617 -0.1928 -0.1940
  588MOL0     C79270   2.098   4.610   9.412 -0.4595 -0.5939  0.7299
  588MOL0     C79271   2.186   4.648   9.308  0.7042 -0.0448 -0.0243
  588MOL0     C79272   2.144   4.726   9.205  0.9075 -0.3910  0.6576
  588MOL0     C79273   2.256   4.772   9.105 -0.1653  0.2166  0.2530
  588MOL0     C79274   2.006   4.759   9.190 -0.4880 -0.6969 -0.8270
  588MOL0     C79275   1.946   4.842   9.090  0.1421 -0.2462 -0.8327
  588MOL0     O79276   1.811   4.831   9.081 -1.1447  0.5212  0.6548
  588MOL0     C79277   1.748   4.922   9.008 -0.5483 -1.1365  0.3507
  588MOL0     C79278   1.629   4.973   9.072 -0.2584  0.4232 -0.7030
  588MOL0     C79279   1.547   5.067   9.002 -0.3486  1.0912  0.0383
  588MOL0     C79280   1.574   5.111   8.874  0.3257  0.7547  0.0821
  588MOL0     O79281   1.496   5.182   8.788  0.2804  0.3193  0.2484
  588MOL0     C79282   1.378   5.231   8.848  1.0043 -0.0369  0.6874
  588MOL0     C79283   1.295   5.305   8.740  0.1770 -0.2924 -0.4783
  588MOL0     C79284   1.161   5.337   8.795 -0.8692 -0.5183 -0.4962
  588MOL0     C79285   1.092   5.422   8.699 -0.1474  0.0581  0.2541
  588MOL0     C79286   0.946   5.455   8.734  0.1134 -0.0312 -0.6899
  588MOL0     C79287   0.868   5.336   8.786  0.0775  0.3569  0.1239
  588MOL0     C79288   0.718   5.374   8.809 -0.0064 -0.5489 -0.0487
  588MOL0     C79289   0.636   5.248   8.838  0.6495 -0.4884  0.3295
  588MOL0    Cl79290   0.478   5.298   8.915  0.2993  0.4413 -0.2018
  588MOL0     C79291   1.698   5.067   8.815 -0.5452 -0.3467  0.5812
  588MOL0     C79292   1.786   4.967   8.874 -0.0848 -0.1049  0.4014
  588MOL0     O79293   2.008   4.930   9.036  0.3395 -0.3919  0.3135
  588MOL0     C79294   1.918   4.700   9.291  0.5698 -0.4008 -0.0340
  588MOL0     C79295   1.962   4.626   9.392 -0.3250  1.5256  0.0171
  588MOL0     N79296   2.390   4.498  10.011  0.1789  0.4302 -0.2848
  588MOL0     N79297   2.504   4.446  10.048 -0.7018 -0.0809 -0.6713
  588MOL0     C79298   3.551   4.076   9.475  0.0643 -0.3352  0.7491
  588MOL0     C79299   3.670   4.043   9.404 -0.1035  0.0265  0.4779
  588MOL0     C79300   4.064   4.123   9.215 -1.4220 -0.0003  0.4419
  588MOL0     C79301   4.087   4.010   9.121 -0.0816  0.2856 -0.3667
  588MOL0     C79302   4.216   3.989   9.074  0.1025 -0.6753 -0.2304
  588MOL0     C79303   4.316   4.072   9.106  0.0920 -0.3586 -0.5555
  588MOL0     O79304   4.439   4.042   9.044  0.0438 -0.3261  0.3425
  588MOL0     C79305   4.550   4.136   9.086  0.2940 -0.4892 -0.0935
  588MOL0     C79306   4.678   4.081   9.026 -0.4832  0.1830 -0.9829
  588MOL0     C79307   4.799   4.158   9.069  0.1301  0.0877  0.2566
  588MOL0     C79308   4.923   4.072   9.047 -0.0373 -0.6721  0.5846
  588MOL0     C79309   5.001   4.068   9.165 -0.8747 -1.3880  0.0923
  588MOL0     C79310   5.059   4.060   9.272 -0.2386 -0.5685  0.7562
  588MOL0     C79311   4.302   4.174   9.198  0.0179 -0.3463 -0.9638
  588MOL0     C79312   4.178   4.190   9.262  0.1331 -0.5369  1.2403
  588MOL0     H79313   3.630   4.249   9.131 -0.5306  0.8229 -0.0973
  588MOL0     H79314   3.425   4.293   9.247 -1.1477  2.1800  3.0996
  588MOL0     H79315   3.326   4.061   9.621  1.5275 -0.0843 -0.2771
  588MOL0     H79316   3.395   4.206   9.690 -0.5190 -0.1261 -0.4832
  588MOL0     H79317   3.115   4.209   9.583  2.1281 -1.5276 -1.4189
  588MOL0     H79318   3.160   4.174   9.753  1.4826 -0.6978 -0.4035
  588MOL0     H79319   3.286   4.410   9.750  1.6882 -2.5713 -0.7732
  588MOL0     H79320   3.210   4.424   9.587  1.1690  2.3323  0.8182
  588MOL0     H79321   3.099   4.557   9.776 -0.2199  0.2657  0.0536
  588MOL0     H79322   2.989   4.438   9.714 -0.1333 -0.6990  0.1961
  588MOL0     H79323   3.011   4.283   9.874 -1.0641  2.2905 -3.2457
  588MOL0     H79324   3.150   4.363   9.952 -0.6170  1.9420  1.0118
  588MOL0     H79325   2.992   4.417  10.093  0.6086  0.1971 -0.0028
  588MOL0     H79326   2.989   4.568   9.992 -0.7280 -0.2970 -0.5335
  588MOL0     H79327   2.807   4.476   9.861  2.5513 -1.9332 -0.3311
  588MOL0     H79328   2.794   4.334   9.960 -1.1346  0.2204  1.0742
  588MOL0     H79329   2.769   4.629  10.042  0.7657 -0.2687 -1.9466
  588MOL0     H79330   2.716   4.479  10.145 -0.7681  0.8908 -0.0732
  588MOL0     H79331   2.594   4.720   9.877  1.1244 -0.0089  0.0106
  588MOL0     H79332   2.199   4.719   9.956  0.0984  2.7213  0.3224
  588MOL0     H79333   2.336   4.813   9.891  1.3319  0.1343 -2.8669
  588MOL0     H79334   2.345   4.663   9.690 -0.2311 -2.5562 -1.0103
  588MOL0     H79335   2.198   4.756   9.706  0.6471  0.4304 -1.3881
  588MOL0     H79336   2.105   4.541   9.838 -4.3014 -3.3633 -3.0068
  588MOL0     H79337   2.221   4.450   9.756 -0.3194 -0.0316 -1.5314
  588MOL0     H79338   2.024   4.643   9.629  0.8694  1.0709 -1.1040
  588MOL0     H79339   1.999   4.465   9.638  1.5263 -1.0209  2.9657
  588MOL0     H79340   2.291   4.624   9.320  0.9659  0.0640 -1.8906
  588MOL0     H79341   2.326   4.843   9.150  0.4538 -0.4724  0.3913
  588MOL0     H79342   2.304   4.680   9.072  0.7110  0.7569 -0.0211
  588MOL0     H79343   2.223   4.825   9.015 -0.9995  2.6992  1.9197
  588MOL0     H79344   1.598   4.951   9.174  2.6194  1.2889  0.4592
  588MOL0     H79345   1.455   5.101   9.048 -0.9753 -2.8073  2.1160
  588MOL0     H79346   1.318   5.147   8.884  1.1687 -0.9740 -1.1276
  588MOL0     H79347   1.413   5.306   8.920  2.2759  2.2263 -2.0790
  588MOL0     H79348   1.347   5.400   8.720 -1.8966  1.0801  0.2545
  588MOL0     H79349   1.289   5.234   8.657  0.4964 -1.1613  0.2251
  588MOL0     H79350   1.160   5.384   8.894 -0.5605 -2.3615  0.4365
  588MOL0     H79351   1.110   5.243   8.819 -1.5041 -0.3002 -0.9822
  588MOL0     H79352   1.142   5.518   8.680  0.9654  0.3334  3.8473
  588MOL0     H79353   1.089   5.357   8.611 -1.3299 -0.6956  0.8351
  588MOL0     H79354   0.908   5.517   8.653 -2.9318 -1.6698 -0.6424
  588MOL0     H79355   0.949   5.524   8.819 -0.6436  0.7735 -1.3116
  588MOL0     H79356   0.858   5.269   8.701 -1.6099  1.0181 -0.2405
  588MOL0     H79357   0.921   5.289   8.869  1.0252 -1.5185 -1.4776
  588MOL0     H79358   0.670   5.408   8.717  0.9405 -1.5232 -0.9294
  588MOL0     H79359   0.705   5.446   8.891 -1.0237 -0.8753  0.0860
  588MOL0     H79360   0.691   5.184   8.908  2.3906  2.0995  1.4787
  588MOL0     H79361   0.597   5.191   8.753 -1.4933 -1.5748  1.9364
  588MOL0     H79362   1.711   5.117   8.719  0.9892  3.1034  2.3975
  588MOL0     H79363   1.873   4.932   8.819  0.2960  0.7599  0.4325
  588MOL0     H79364   1.810   4.706   9.292  0.6330  2.0810 -1.0239
  588MOL0     H79365   1.889   4.602   9.468 -2.1973 -1.8845 -2.6111
  588MOL0     H79366   3.529   4.020   9.565  0.3303 -1.6319  0.0427
  588MOL0     H79367   3.738   3.973   9.450  0.7831  0.6310  0.1211
  588MOL0     H79368   4.012   3.934   9.104 -1.4937  1.7464 -0.9831
  588MOL0     H79369   4.244   3.902   9.016 -1.3321 -2.4274  1.5549
  588MOL0     H79370   4.534   4.239   9.055  1.8716 -0.3180 -0.4175
  588MOL0     H79371   4.568   4.145   9.193  3.0077  1.1517 -0.5965
  588MOL0     H79372   4.677   4.078   8.916 -1.3406 -1.1704 -0.9515
  588MOL0     H79373   4.682   3.977   9.058  1.2497  0.3082 -0.7031
  588MOL0     H79374   4.780   4.182   9.175 -0.9427  0.1904  0.0551
  588MOL0     H79375   4.813   4.259   9.029 -2.1145  1.4981  2.6873
  588MOL0     H79376   4.993   4.109   8.972 -1.8307  3.7906  0.7806
  588MOL0     H79377   4.907   3.965   9.033  1.3949 -1.0106  1.2780
  588MOL0     H79378   5.114   4.051   9.364 -1.2564  2.0778  1.7050
  588MOL0     H79379   4.377   4.247   9.226 -1.3692  1.9858 -2.8678
  588MOL0     H79380   4.175   4.261   9.345  0.6464  0.8699  0.1084
  589MOL0     O79381   1.555   6.057   3.824 -0.0498 -0.2649 -1.4937
  589MOL0     C79382   1.505   5.959   3.869  0.6198  0.4378 -0.3156
  589MOL0     O79383   1.571   5.837   3.867  0.0529  0.4897 -0.4825
  589MOL0     C79384   1.708   5.831   3.855  1.0351  0.2724  0.8659
  589MOL0     C79385   1.792   5.908   3.936  0.2056  0.5370 -0.8427
  589MOL0     C79386   1.931   5.896   3.927  0.2075 -0.2454  0.0577
  589MOL0     C79387   1.981   5.817   3.828 -0.1259  0.2307  0.7968
  589MOL0     O79388   2.121   5.821   3.811 -0.5095 -0.2212 -0.6377
  589MOL0     C79389   2.188   5.753   3.705  0.2563 -0.4398  0.3632
  589MOL0     C79390   2.335   5.775   3.717  0.2046  0.1918 -0.1762
  589MOL0     C79391   2.377   5.745   3.859 -0.4074 -0.6491  0.4084
  589MOL0     C79392   2.525   5.781   3.878 -0.0611 -0.3908 -0.3362
  589MOL0     C79393   2.586   5.761   4.013  0.3864  0.8047  0.9017
  589MOL0     C79394   2.738   5.759   4.009 -0.0919 -0.6647 -0.3304
  589MOL0     C79395   2.793   5.737   4.148 -0.6348 -0.3577 -0.3888
  589MOL0     C79396   2.939   5.778   4.168  0.5737 -0.7454 -0.3234
  589MOL0     N79397   3.035   5.692   4.097  0.1512  0.0792 -0.2709
  589MOL0     C79398   3.055   5.684   3.964  0.2238  0.8026 -0.4378
  589MOL0     C79399   3.161   5.603   3.959 -0.0504  0.0694  0.4327
  589MOL0     C79400   3.205   5.558   3.823 -0.4807  0.2208  0.9170
  589MOL0     C79401   3.093   5.464   3.757 -0.6789 -0.0088 -0.6235
  589MOL0     C79402   3.099   5.490   3.606 -1.0897  0.5453  0.6465
  589MOL0     C79403   3.024   5.384   3.529  0.9531  0.1379  0.0905
  589MOL0     O79404   2.891   5.372   3.589  0.4893 -0.4314  0.6604
  589MOL0     C79405   2.768   5.423   3.541 -0.7342  0.2120 -0.7551
  589MOL0     C79406   2.745   5.466   3.411 -0.0071  0.8795  0.1196
  589MOL0     C79407   2.615   5.501   3.372  0.7318  0.5476  0.4143
  589MOL0     C79408   2.589   5.519   3.224 -0.3695 -0.3802 -1.2855
  589MOL0     C79409   2.504   5.504   3.466  0.1704  0.0321  0.3980
  589MOL0     C79410   2.364   5.530   3.441  0.0052  0.7328 -0.0858
  589MOL0     O79411   2.282   5.448   3.511 -0.3072 -0.2091 -0.9371
  589MOL0     C79412   2.146   5.437   3.505 -1.0849 -0.7144 -0.7172
  589MOL0     C79413   2.071   5.469   3.395  0.1064  0.7075  0.2234
  589MOL0     C79414   1.926   5.468   3.391 -0.5725  0.1099  0.4482
  589MOL0     C79415   1.866   5.426   3.511 -0.1044  0.4106 -0.5127
  589MOL0     O79416   1.726   5.406   3.520 -0.4838 -0.5147 -0.2463
  589MOL0     C79417   1.643   5.450   3.409  0.6062 -0.1002  0.6562
  589MOL0     C79418   1.505   5.382   3.424  0.8871 -0.4386  0.0057
  589MOL0     C79419   1.429   5.396   3.559  0.3399  0.5905  0.4991
  589MOL0     C79420   1.408   5.539   3.590  0.6871 -0.1171 -0.0849
  589MOL0     C79421   1.349   5.570   3.736  1.0458 -0.4049 -0.0748
  589MOL0     C79422   1.218   5.493   3.771 -0.5310 -0.1827 -0.7777
  589MOL0     C79423   1.101   5.540   3.682 -0.6502 -0.5945 -0.2108
  589MOL0     C79424   0.972   5.458   3.679 -0.7460 -0.3523 -0.3221
  589MOL0    Cl79425   0.886   5.505   3.830 -0.0728 -0.2349 -0.0386
  589MOL0     C79426   1.942   5.395   3.623 -0.1119 -0.5002 -0.4646
  589MOL0     C79427   2.080   5.397   3.618  0.0862 -0.7221  0.1322
  589MOL0     O79428   2.327   5.629   3.380 -0.6371 -0.9426 -0.5658
  589MOL0     C79429   2.536   5.457   3.591  0.5211 -0.6094  0.2146
  589MOL0     C79430   2.663   5.416   3.627  0.4556  0.1877  0.5077
  589MOL0     N79431   3.195   5.551   4.077 -0.1776 -0.2376  0.6300
  589MOL0     N79432   3.120   5.605   4.157 -0.3642 -0.3355  0.1740
  589MOL0     C79433   1.895   5.738   3.753 -0.8504  0.1379 -0.0633
  589MOL0     C79434   1.758   5.749   3.756  0.7255  0.3838 -0.1075
  589MOL0     C79435   1.361   5.961   3.907  0.4806  0.6078 -0.5023
  589MOL0     C79436   1.300   5.850   3.963  0.0875  1.1305 -0.6046
  589MOL0     C79437   1.165   5.849   3.980  0.4605  0.0579  1.1678
  589MOL0     C79438   1.082   5.954   3.943 -0.6386 -0.0870 -0.5669
  589MOL0     O79439   0.946   5.941   3.935  0.4746  0.0602  0.5116
  589MOL0     C79440   0.881   5.810   3.938 -0.7330  0.5747  0.5338
  589MOL0     C79441   0.750   5.820   3.857  0.0622  0.3149 -0.0389
  589MOL0     C79442   0.655   5.932   3.908 -0.2918  0.2026 -0.5297
  589MOL0     C79443   0.588   5.878   4.031  0.3090 -0.4020  0.2512
  589MOL0     C79444   0.478   5.975   4.063 -0.0857  0.0669  1.0810
  589MOL0     C79445   0.384   6.044   4.091  0.1608 -0.7860 -0.3913
  589MOL0     C79446   1.145   6.078   3.896  0.7138 -0.4338 -1.2954
  589MOL0     C79447   1.290   6.084   3.886 -0.2114  1.0543 -0.7132
  589MOL0     H79448   1.736   5.965   4.009 -1.3468 -2.2082  0.2517
  589MOL0     H79449   2.001   5.954   3.986 -0.4953  1.8824 -1.0629
  589MOL0     H79450   2.164   5.647   3.699  0.3807 -0.6046  2.0411
  589MOL0     H79451   2.161   5.800   3.610 -2.3013 -1.2774  0.6022
  589MOL0     H79452   2.398   5.719   3.648 -0.6987  0.1628 -0.9960
  589MOL0     H79453   2.358   5.882   3.707 -1.5585  0.6536  0.3606
  589MOL0     H79454   2.323   5.802   3.935  0.4754 -2.5847  2.5893
  589MOL0     H79455   2.371   5.641   3.890  0.7085 -1.2861 -1.3567
  589MOL0     H79456   2.579   5.727   3.800 -2.2313 -0.2419 -2.0330
  589MOL0     H79457   2.534   5.889   3.863 -1.2555  0.1056  2.0434
  589MOL0     H79458   2.544   5.835   4.082 -3.3181 -1.3304  1.2004
  589MOL0     H79459   2.542   5.665   4.042 -0.6189  1.6023  2.1511
  589MOL0     H79460   2.784   5.692   3.936  1.8723  0.2907 -0.0183
  589MOL0     H79461   2.766   5.855   3.966 -0.3548 -0.9813 -1.2336
  589MOL0     H79462   2.729   5.785   4.223  0.2788  1.4982 -0.7177
  589MOL0     H79463   2.790   5.630   4.168  1.4539 -0.3399  0.3063
  589MOL0     H79464   2.961   5.777   4.275  3.7082  2.0015 -0.7772
  589MOL0     H79465   2.951   5.885   4.147 -1.3481 -0.4146  0.0744
  589MOL0     H79466   2.998   5.738   3.889 -0.3843 -0.7383 -1.1314
  589MOL0     H79467   3.218   5.644   3.757 -1.6218  0.7178  1.2992
  589MOL0     H79468   3.301   5.506   3.823  0.2628  1.3587 -2.2854
  589MOL0     H79469   2.993   5.478   3.798 -1.4737 -1.0332 -2.1105
  589MOL0     H79470   3.116   5.359   3.776  0.0732 -0.7607 -4.7372
  589MOL0     H79471   3.203   5.482   3.571 -0.8979 -1.7620  1.5431
  589MOL0     H79472   3.049   5.586   3.591  0.3385  1.1515 -0.4565
  589MOL0     H79473   3.071   5.286   3.529 -0.8077 -0.7446 -0.8242
  589MOL0     H79474   3.028   5.420   3.426 -0.8446  2.2468  0.6554
  589MOL0     H79475   2.820   5.464   3.332 -0.1947  0.1627 -0.0432
  589MOL0     H79476   2.499   5.577   3.200  0.9159  2.5538  0.3408
  589MOL0     H79477   2.672   5.572   3.177 -0.1928 -0.4980 -1.1045
  589MOL0     H79478   2.588   5.417   3.185  3.7758 -2.1559  2.4359
  589MOL0     H79479   2.135   5.498   3.311  0.5431 -4.3146 -1.5248
  589MOL0     H79480   1.871   5.501   3.303 -1.1282 -1.9272 -0.0192
  589MOL0     H79481   1.620   5.557   3.417 -2.4818 -0.7272  1.5127
  589MOL0     H79482   1.686   5.435   3.309 -0.8820  0.2270 -0.0775
  589MOL0     H79483   1.447   5.414   3.338  1.0277  2.4091  0.8606
  589MOL0     H79484   1.519   5.275   3.407  0.9516 -0.9678  2.7965
  589MOL0     H79485   1.487   5.331   3.626 -3.9998 -1.0479  3.0834
  589MOL0     H79486   1.328   5.354   3.564  0.8595 -0.6214  1.1598
  589MOL0     H79487   1.504   5.590   3.575  0.8863 -0.3044  0.5401
  589MOL0     H79488   1.340   5.570   3.510  2.8691 -0.6389 -2.2452
  589MOL0     H79489   1.325   5.677   3.740 -1.2047 -0.7701 -1.6653
  589MOL0     H79490   1.427   5.539   3.806  1.5593 -0.0361 -0.4736
  589MOL0     H79491   1.221   5.384   3.758 -0.3182 -0.0420 -2.1303
  589MOL0     H79492   1.205   5.515   3.877  4.4678 -1.5878  0.3855
  589MOL0     H79493   1.139   5.542   3.580 -1.6518 -2.1386 -0.6605
  589MOL0     H79494   1.075   5.644   3.704 -1.0800 -0.8814  0.6815
  589MOL0     H79495   0.994   5.351   3.685  1.8120  0.1521  0.3840
  589MOL0     H79496   0.907   5.482   3.594  0.4405 -1.2625 -1.5106
  589MOL0     H79497   1.891   5.366   3.714 -0.3518  0.2158 -0.3710
  589MOL0     H79498   2.143   5.359   3.698  0.1649  0.9071  0.8809
  589MOL0     H79499   2.463   5.453   3.671  0.0622  1.6540 -0.0286
  589MOL0     H79500   2.677   5.392   3.732 -0.7212 -0.4810  0.5263
  589MOL0     H79501   1.939   5.669   3.681  0.0097 -2.4990  2.8011
  589MOL0     H79502   1.689   5.692   3.694 -0.7521  0.5968  1.2828
  589MOL0     H79503   1.355   5.759   3.986 -0.7671 -0.7830 -5.0689
  589MOL0     H79504   1.119   5.762   4.025 -1.8291  0.3866 -0.3472
  589MOL0     H79505   0.947   5.738   3.889 -0.1539  0.6221  1.2350
  589MOL0     H79506   0.862   5.778   4.041  1.2238  1.8934  1.3505
  589MOL0     H79507   0.706   5.722   3.840 -1.2284  1.0697 -1.2261
  589MOL0     H79508   0.786   5.852   3.759 -1.5481  2.1155 -0.1026
  589MOL0     H79509   0.579   5.957   3.833 -0.4531 -1.3534 -0.9083
  589MOL0     H79510   0.721   6.019   3.921  2.1395 -1.4771 -1.0647
  589MOL0     H79511   0.651   5.875   4.120  0.7097  1.4949  0.0835
  589MOL0     H79512   0.543   5.781   4.007 -0.7730  0.8332 -3.5226
  589MOL0     H79513   0.297   6.100   4.119  0.6986  1.2070 -2.3662
  589MOL0     H79514   1.073   6.159   3.888 -1.4018 -2.0941 -0.2758
  589MOL0     H79515   1.348   6.175   3.875 -1.6044  2.2516  1.1840
  590MOL0     O79516  10.769  10.039   9.975  0.1853  0.8766  1.0822
  590MOL0     C79517  10.857  10.007   9.896 -0.4095 -1.2362  0.5366
  590MOL0     O79518  10.841   9.964   9.768 -0.7877 -0.1084 -0.3287
  590MOL0     C79519  10.721   9.942   9.709  0.7828 -0.2203 -0.3092
  590MOL0     C79520  10.595   9.967   9.767  0.1614 -0.2925  1.5955
  590MOL0     C79521  10.479   9.935   9.687  0.0343 -0.4725 -0.3824
  590MOL0     C79522  10.482   9.880   9.554  0.2064  0.3451  0.3733
  590MOL0     O79523  10.369   9.857   9.482  0.7139  0.7649 -0.8938
  590MOL0     C79524  10.355   9.718   9.444 -0.1735  0.0246 -0.1123
  590MOL0     C79525  10.218   9.691   9.382  0.3616 -0.1747  1.2073
  590MOL0     C79526  10.105   9.688   9.488  0.1592 -0.3718  0.1885
  590MOL0     C79527   9.961   9.683   9.424  1.6783 -0.0657 -0.1478
  590MOL0     C79528   9.897   9.817   9.367 -0.6383  0.6931 -0.4891
  590MOL0     C79529   9.786   9.781   9.272 -0.2997 -0.3152  0.4960
  590MOL0     C79530   9.702   9.907   9.217 -1.2125  0.2798  0.1745
  590MOL0     C79531   9.792   9.982   9.124  0.2447 -0.2013  0.4841
  590MOL0     N79532   9.728  10.106   9.094 -0.3749 -0.7485 -0.3807
  590MOL0     C79533   9.759  10.215   9.167 -0.0951 -0.4271  0.5846
  590MOL0     C79534   9.659  10.304   9.144 -0.8891 -0.7065  0.4523
  590MOL0     C79535   9.645  10.444   9.196 -0.3648 -0.0163 -0.3508
  590MOL0     C79536   9.534  10.468   9.293 -0.7373 -0.0418  0.5508
  590MOL0     C79537   9.399  10.483   9.208 -0.2634  0.0331  0.0969
  590MOL0     C79538   9.269  10.530   9.281 -0.5843 -0.5769  0.0218
  590MOL0     O79539   9.258  10.457   9.410  0.2873  0.2704 -0.0596
  590MOL0     C79540   9.137  10.397   9.420  0.2205  0.7130 -0.0463
  590MOL0     C79541   9.017  10.468   9.456  0.3819 -0.2265  0.2252
  590MOL0     C79542   8.896  10.407   9.454 -0.0875 -0.6093 -0.7858
  590MOL0     C79543   8.776  10.493   9.494  0.2717  0.5510 -1.2853
  590MOL0     C79544   8.885  10.273   9.427  0.3078  0.3323 -0.1365
  590MOL0     C79545   8.757  10.193   9.418 -0.3172 -0.0286  0.1766
  590MOL0     O79546   8.640  10.267   9.432 -0.8751 -0.3829 -0.3528
  590MOL0     C79547   8.524  10.209   9.466 -0.0498  0.2599 -0.6202
  590MOL0     C79548   8.439  10.149   9.372 -0.3495 -0.1106 -0.6229
  590MOL0     C79549   8.325  10.082   9.417 -0.1516  0.3857  0.6043
  590MOL0     C79550   8.295  10.073   9.555 -0.5355  1.1517  0.4238
  590MOL0     O79551   8.175  10.009   9.579 -0.0309  0.3143 -0.2334
  590MOL0     C79552   8.093  10.059   9.683  0.4247 -0.2445  0.1559
  590MOL0     C79553   8.020  10.194   9.645 -0.9539 -0.4536 -0.0740
  590MOL0     C79554   7.871  10.198   9.685 -0.1708 -0.0196  0.5278
  590MOL0     C79555   7.852  10.231   9.838  0.4751  0.7054  1.1983
  590MOL0     C79556   7.705  10.238   9.880 -0.6381  0.0765  1.1818
  590MOL0     C79557   7.607  10.293   9.781 -0.8919 -0.2788  0.4531
  590MOL0     C79558   7.469  10.309   9.839  0.4568 -0.2219 -0.0098
  590MOL0     C79559   7.389  10.180   9.872 -0.2711  0.2790  0.7205
  590MOL0    Cl79560   7.237  10.232   9.945 -0.0345 -0.2389 -0.2555
  590MOL0     C79561   8.392  10.119   9.644  0.4859 -0.1389  0.4069
  590MOL0     C79562   8.498  10.201   9.606 -0.8212 -0.3806  0.3006
  590MOL0     O79563   8.762  10.072   9.434 -0.3442  0.3998  0.3594
  590MOL0     C79564   8.999  10.195   9.393 -0.8543  0.5116 -0.0835
  590MOL0     C79565   9.127  10.262   9.395  0.7587 -0.0103 -0.2481
  590MOL0     N79566   9.572  10.242   9.047 -0.1399  0.0765 -0.1574
  590MOL0     N79567   9.627  10.130   9.001  0.0652  0.2749 -0.7527
  590MOL0     C79568  10.609   9.868   9.497  0.0088 -0.7178  0.4991
  590MOL0     C79569  10.731   9.896   9.569  0.0831  0.3288  0.6842
  590MOL0     C79570  10.986   9.999   9.971  0.6110 -0.5524  0.5333
  590MOL0     C79571  11.099   9.933   9.909  0.4277  0.9388 -0.1203
  590MOL0     C79572  11.217   9.928   9.984  0.3411  0.3848 -0.3446
  590MOL0     C79573  11.233   9.992  10.105 -0.0810 -0.1271 -0.2654
  590MOL0     O79574  11.348   9.983  10.175  0.3778 -0.2524  0.2173
  590MOL0     C79575  11.356  10.038  10.306  0.6139 -0.9583  0.2589
  590MOL0     C79576  11.484   9.966  10.362  0.2050  0.0911  0.2737
  590MOL0     C79577  11.540  10.020  10.495 -0.5736  0.2708 -0.2217
  590MOL0     C79578  11.563  10.179  10.498 -0.0902  0.0131  0.3454
  590MOL0     C79579  11.654  10.233  10.401  0.5110 -0.4718 -0.2624
  590MOL0     C79580  11.720  10.280  10.314  0.0814  1.6115  0.4197
  590MOL0     C79581  11.124  10.063  10.161 -0.8724  0.6729  0.1376
  590MOL0     C79582  11.002  10.067  10.099 -0.5706  1.3381  0.4433
  590MOL0     H79583  10.571  10.014   9.862 -1.2774 -2.7091  2.5173
  590MOL0     H79584  10.381   9.945   9.732  1.5719  1.3069  2.9472
  590MOL0     H79585  10.433   9.699   9.369 -0.7135  2.3280 -1.3502
  590MOL0     H79586  10.372   9.652   9.529  0.4569 -0.4543 -0.6052
  590MOL0     H79587  10.202   9.773   9.312 -2.8165 -1.3369  0.4288
  590MOL0     H79588  10.216   9.598   9.324  1.2151  0.8086 -0.4940
  590MOL0     H79589  10.117   9.613   9.567 -0.3699  2.9843  3.7884
  590MOL0     H79590  10.106   9.777   9.551 -1.4505 -1.4939  1.9291
  590MOL0     H79591   9.965   9.621   9.334 -4.8069 -1.7537  0.2752
  590MOL0     H79592   9.894   9.640   9.499 -1.7198  3.2290 -0.9752
  590MOL0     H79593   9.855   9.880   9.446 -1.7351  1.2265 -1.4642
  590MOL0     H79594   9.967   9.867   9.301 -1.2263  0.2760 -1.4516
  590MOL0     H79595   9.825   9.729   9.184 -2.0710  2.8059 -2.3554
  590MOL0     H79596   9.709   9.719   9.321  1.6710 -1.6606  2.0592
  590MOL0     H79597   9.613   9.871   9.166 -1.7907  2.3386 -0.3797
  590MOL0     H79598   9.681   9.976   9.299 -0.6906  0.5679  0.0730
  590MOL0     H79599   9.814   9.922   9.036  1.0882 -0.7167  1.0278
  590MOL0     H79600   9.891  10.001   9.167  0.4838 -0.7606  0.1783
  590MOL0     H79601   9.839  10.231   9.239 -0.0765  1.3514  0.2161
  590MOL0     H79602   9.737  10.456   9.255 -1.2329  1.8053  0.7071
  590MOL0     H79603   9.642  10.521   9.119  1.2111  1.5656  1.0508
  590MOL0     H79604   9.545  10.566   9.339  2.0634  2.1737 -4.1274
  590MOL0     H79605   9.520  10.392   9.370 -2.9484 -1.6667 -1.3197
  590MOL0     H79606   9.380  10.382   9.169 -0.9080 -0.4530  1.6134
  590MOL0     H79607   9.404  10.557   9.128  1.4643  2.0675  1.9716
  590MOL0     H79608   9.179  10.520   9.220 -1.6755  1.5640  1.1731
  590MOL0     H79609   9.286  10.633   9.315 -3.0922 -0.7971  2.2964
  590MOL0     H79610   9.016  10.576   9.464 -0.8581 -0.2146  0.0673
  590MOL0     H79611   8.733  10.446   9.582  1.7683  1.6997  0.1190
  590MOL0     H79612   8.793  10.594   9.532 -1.1792  0.5961 -0.6808
  590MOL0     H79613   8.698  10.518   9.420 -1.0461 -1.7702 -0.7598
  590MOL0     H79614   8.459  10.159   9.266 -0.0281  1.2287 -0.4500
  590MOL0     H79615   8.251  10.042   9.349  1.0421 -2.4913  0.8662
  590MOL0     H79616   8.011   9.991   9.708  0.4208 -0.7721 -1.1647
  590MOL0     H79617   8.156  10.070   9.772 -1.0807 -1.0030  1.3482
  590MOL0     H79618   8.077  10.280   9.683  0.2838 -1.3260  0.1012
  590MOL0     H79619   8.020  10.199   9.536 -4.1513 -0.2219 -0.1596
  590MOL0     H79620   7.828  10.101   9.657  2.0651 -0.8511 -0.3016
  590MOL0     H79621   7.820  10.275   9.626  0.9684 -0.7634 -1.5459
  590MOL0     H79622   7.928  10.178   9.896  0.4030 -1.6524 -0.7331
  590MOL0     H79623   7.877  10.336   9.856  0.0924  1.0457 -0.1262
  590MOL0     H79624   7.693  10.298   9.971  0.3054  2.8803 -0.4187
  590MOL0     H79625   7.677  10.135   9.903  0.6912 -0.7409 -0.6127
  590MOL0     H79626   7.638  10.393   9.748 -0.4421 -1.3542 -2.7393
  590MOL0     H79627   7.614  10.224   9.696  0.7238  1.9624 -1.3925
  590MOL0     H79628   7.401  10.353   9.766 -1.4883 -1.5280  0.9070
  590MOL0     H79629   7.480  10.369   9.929 -1.7799 -0.5272  0.5232
  590MOL0     H79630   7.441  10.124   9.950  0.8446  3.1307  2.2006
  590MOL0     H79631   7.383  10.121   9.781  0.3024  0.4184  0.5897
  590MOL0     H79632   8.385  10.104   9.751 -1.3681 -0.3032  0.2880
  590MOL0     H79633   8.572  10.232   9.679  2.2361 -0.8026 -2.3708
  590MOL0     H79634   8.993  10.091   9.362  3.4134 -0.3494  1.3120
  590MOL0     H79635   9.218  10.203   9.387  0.4973 -0.1650 -3.2593
  590MOL0     H79636  10.625   9.845   9.392  1.1660 -0.4718  0.6063
  590MOL0     H79637  10.829   9.878   9.525 -0.4005  2.2389 -1.3786
  590MOL0     H79638  11.075   9.882   9.817  0.1572 -0.4799  0.7114
  590MOL0     H79639  11.298   9.869   9.943 -1.2583 -1.0493 -1.5749
  590MOL0     H79640  11.363  10.147  10.298  1.7879 -0.9971  0.5893
  590MOL0     H79641  11.275  10.002  10.370  1.1461  0.8083  2.0251
  590MOL0     H79642  11.563   9.957  10.287 -1.0139 -1.8240 -0.8794
  590MOL0     H79643  11.458   9.860  10.373  1.1066 -0.1867 -0.1353
  590MOL0     H79644  11.643   9.987  10.510 -0.3395  0.3544 -1.4780
  590MOL0     H79645  11.486   9.980  10.581 -0.0897 -0.7982 -0.3966
  590MOL0     H79646  11.605  10.207  10.595  2.4880 -0.5670 -0.5301
  590MOL0     H79647  11.468  10.229  10.476  0.6507  1.2388 -0.1807
  590MOL0     H79648  11.779  10.335  10.243 -1.1771  2.2128 -0.2163
  590MOL0     H79649  11.124  10.108  10.260 -2.2421 -2.3116  1.6207
  590MOL0     H79650  10.918  10.120  10.143 -0.7787  1.7522 -0.4175
  591MOL0     O79651   7.291   3.782   8.300 -0.0981 -0.0810  0.3034
  591MOL0     C79652   7.288   3.836   8.412 -0.5404  0.0145  0.2327
  591MOL0     O79653   7.186   3.915   8.463  0.0313 -0.2153  0.4383
  591MOL0     C79654   7.061   3.894   8.410 -0.4233  0.8270 -0.6147
  591MOL0     C79655   6.966   3.808   8.471 -0.1417  0.4656 -0.8935
  591MOL0     C79656   6.839   3.798   8.420  0.6273 -0.2813 -0.8785
  591MOL0     C79657   6.802   3.862   8.302  0.6614 -0.7850  0.1257
  591MOL0     O79658   6.685   3.845   8.239  0.0543 -0.4391  0.0200
  591MOL0     C79659   6.625   3.716   8.236 -0.0525 -0.5920  0.0061
  591MOL0     C79660   6.506   3.723   8.140 -0.1223  1.0124 -0.5882
  591MOL0     C79661   6.400   3.811   8.183  0.9612 -0.2134 -0.3323
  591MOL0     C79662   6.337   3.908   8.081 -0.4336 -0.7090 -0.4240
  591MOL0     C79663   6.279   3.840   7.953  0.0693  1.3524 -0.2644
  591MOL0     C79664   6.149   3.753   7.977 -0.2939 -0.5558  0.6046
  591MOL0     C79665   6.091   3.708   7.839  0.1478  0.1133 -0.2005
  591MOL0     C79666   6.175   3.602   7.772 -0.5733 -0.1118  0.1307
  591MOL0     N79667   6.087   3.528   7.678 -0.1357 -0.2352  0.1713
  591MOL0     C79668   6.095   3.396   7.640  0.1678 -0.3431 -0.5452
  591MOL0     C79669   5.981   3.376   7.577 -0.0567  0.8182  0.7767
  591MOL0     C79670   5.927   3.239   7.537 -0.2908  0.4555 -0.3358
  591MOL0     C79671   5.785   3.210   7.573  0.4919 -0.7932 -0.6535
  591MOL0     C79672   5.765   3.143   7.704  0.3190  0.3464 -0.0559
  591MOL0     C79673   5.625   3.080   7.703 -0.9036  0.5973  0.7767
  591MOL0     O79674   5.528   3.184   7.678 -0.2123  0.4073  0.2756
  591MOL0     C79675   5.395   3.144   7.678  0.4380  0.3170 -0.3703
  591MOL0     C79676   5.310   3.209   7.589 -0.2087  0.0676 -0.6447
  591MOL0     C79677   5.176   3.175   7.580 -0.3455  0.1716 -0.4149
  591MOL0     C79678   5.101   3.239   7.462  1.3383 -0.3421  0.4253
  591MOL0     C79679   5.114   3.075   7.674  0.5327 -0.1180  0.2955
  591MOL0     C79680   4.974   3.027   7.676  0.4588  0.7249  0.3472
  591MOL0     O79681   4.924   2.969   7.782  0.4392  0.8340  0.0762
  591MOL0     C79682   4.791   2.951   7.761 -0.1620  0.9042 -0.2695
  591MOL0     C79683   4.739   2.830   7.739  0.2806  1.6392  1.2251
  591MOL0     C79684   4.597   2.807   7.742  0.5905 -0.0694 -0.1397
  591MOL0     C79685   4.506   2.913   7.751  0.1870 -0.3898  0.3069
  591MOL0     O79686   4.368   2.881   7.750 -0.4264  0.6727  0.0323
  591MOL0     C79687   4.266   2.987   7.753 -0.4356  0.7624  0.5888
  591MOL0     C79688   4.211   2.986   7.899 -0.1077 -0.0863  0.6972
  591MOL0     C79689   4.068   2.989   7.903 -0.2661  0.4999 -0.0019
  591MOL0     C79690   4.033   2.984   8.059  0.0865  0.0037  1.1442
  591MOL0     C79691   3.883   2.993   8.091  0.3050 -0.1506 -0.0891
  591MOL0     C79692   3.845   2.926   8.230 -0.3893  0.2357  0.4092
  591MOL0     C79693   3.842   2.771   8.246 -0.1543 -0.1823  0.2192
  591MOL0     C79694   3.751   2.697   8.146  0.0245 -0.2624 -0.6207
  591MOL0    Cl79695   3.760   2.519   8.196 -0.0319 -0.3387 -0.3081
  591MOL0     C79696   4.566   3.040   7.777 -0.8845  0.4076 -0.7687
  591MOL0     C79697   4.704   3.059   7.769 -0.2598  0.3224 -0.5481
  591MOL0     O79698   4.919   3.042   7.565  0.3595  0.0899 -0.9159
  591MOL0     C79699   5.204   3.012   7.758  0.1158 -0.4395 -0.9355
  591MOL0     C79700   5.340   3.042   7.767  0.4178 -0.8077 -0.0088
  591MOL0     N79701   5.913   3.496   7.558  0.6395 -0.1427  0.2696
  591MOL0     N79702   5.980   3.589   7.613 -0.0632  0.0178  0.5439
  591MOL0     C79703   6.895   3.949   8.244  0.4277  0.5928  1.0947
  591MOL0     C79704   7.018   3.961   8.294 -0.6911 -0.0122  0.5757
  591MOL0     C79705   7.407   3.818   8.494  0.1848 -0.1310  0.3492
  591MOL0     C79706   7.524   3.790   8.429  0.3078 -0.0427  0.7126
  591MOL0     C79707   7.639   3.778   8.496  0.2480  0.5637 -0.0227
  591MOL0     C79708   7.645   3.782   8.634 -0.6135  0.1780 -0.7063
  591MOL0     O79709   7.770   3.785   8.695  0.5655 -0.0502 -0.0932
  591MOL0     C79710   7.794   3.697   8.806 -0.2783 -0.7521  0.4064
  591MOL0     C79711   7.948   3.703   8.841  1.2132 -0.4759 -0.0987
  591MOL0     C79712   8.015   3.846   8.838 -0.0592 -0.1402  0.3913
  591MOL0     C79713   8.151   3.850   8.902  0.1260  0.0096 -0.0375
  591MOL0     C79714   8.262   3.776   8.839 -0.2740 -0.1886 -0.3508
  591MOL0     C79715   8.332   3.706   8.771 -0.1974  0.0518  0.5797
  591MOL0     C79716   7.532   3.813   8.705 -0.1072 -0.7550  0.1375
  591MOL0     C79717   7.411   3.832   8.639  0.8094 -0.4913  0.4495
  591MOL0     H79718   6.998   3.766   8.566  3.3272  1.8180 -1.3392
  591MOL0     H79719   6.762   3.745   8.474  1.3301 -1.6705 -1.2022
  591MOL0     H79720   6.692   3.633   8.212 -0.4387 -1.5028  1.9113
  591MOL0     H79721   6.590   3.694   8.337  1.5896  1.0891  1.0121
  591MOL0     H79722   6.542   3.750   8.040  0.4512  0.3685 -0.5616
  591MOL0     H79723   6.458   3.625   8.129  0.3786  0.7594 -0.5381
  591MOL0     H79724   6.313   3.757   8.221  0.9820  1.2228  1.9907
  591MOL0     H79725   6.441   3.870   8.265 -0.1282  0.8923 -0.5497
  591MOL0     H79726   6.276   3.966   8.151  4.4398  2.9144  1.3974
  591MOL0     H79727   6.415   3.981   8.058  1.2302 -1.9741  0.9901
  591MOL0     H79728   6.253   3.909   7.872 -0.2100  0.8124 -0.6434
  591MOL0     H79729   6.358   3.785   7.901 -2.8756  0.8598 -4.8511
  591MOL0     H79730   6.181   3.663   8.029 -2.7718 -1.8276  0.0511
  591MOL0     H79731   6.076   3.799   8.044 -0.2940 -0.7887  0.7643
  591MOL0     H79732   5.995   3.658   7.859 -0.8967  1.6987 -0.9896
  591MOL0     H79733   6.085   3.793   7.771 -0.9230 -1.0635 -1.6391
  591MOL0     H79734   6.227   3.538   7.843 -2.5779 -0.9246  0.9216
  591MOL0     H79735   6.254   3.658   7.720 -1.6351  2.0388  0.7288
  591MOL0     H79736   6.170   3.323   7.668 -0.2484 -0.3015  0.7371
  591MOL0     H79737   5.938   3.236   7.428 -2.5238 -2.7062 -0.6444
  591MOL0     H79738   5.987   3.160   7.583  0.7561  0.0150 -2.3270
  591MOL0     H79739   5.745   3.148   7.491 -0.9113  1.3602 -1.7146
  591MOL0     H79740   5.723   3.301   7.579 -2.8074 -2.9002 -0.0602
  591MOL0     H79741   5.770   3.220   7.781 -1.8249  0.0979  0.3925
  591MOL0     H79742   5.841   3.067   7.725  2.8943  2.7494 -0.0497
  591MOL0     H79743   5.608   3.026   7.796 -0.5814 -0.1231  0.4285
  591MOL0     H79744   5.621   3.009   7.619  0.9808 -0.1044  1.2259
  591MOL0     H79745   5.350   3.287   7.525 -0.9251  0.7336 -0.2972
  591MOL0     H79746   5.094   3.163   7.384  1.7000 -0.7201  0.7508
  591MOL0     H79747   4.998   3.264   7.490  1.8773  0.2445  1.9826
  591MOL0     H79748   5.148   3.331   7.426  0.8574 -0.7856 -1.4441
  591MOL0     H79749   4.815   2.755   7.720 -1.8087 -0.5840  1.1887
  591MOL0     H79750   4.560   2.705   7.737 -4.2960  1.4428  0.3088
  591MOL0     H79751   4.303   3.085   7.721  1.2012  0.4713  1.5083
  591MOL0     H79752   4.178   2.967   7.691 -0.6395 -0.1748  1.1568
  591MOL0     H79753   4.251   2.895   7.944  0.9761 -0.7149 -1.4099
  591MOL0     H79754   4.257   3.075   7.945  0.9521  1.1004 -2.3924
  591MOL0     H79755   4.026   2.907   7.844  0.9147  0.7296 -1.2049
  591MOL0     H79756   4.025   3.082   7.865 -1.8993 -0.5102 -0.7277
  591MOL0     H79757   4.070   2.894   8.109  0.6613 -0.7303 -0.5631
  591MOL0     H79758   4.088   3.069   8.102  0.0744 -0.1704  1.5135
  591MOL0     H79759   3.822   2.952   8.010  0.3078  3.9277 -2.3995
  591MOL0     H79760   3.858   3.099   8.099 -0.0168 -0.1522 -1.0065
  591MOL0     H79761   3.912   2.975   8.301  2.0084 -2.8074  0.4945
  591MOL0     H79762   3.746   2.966   8.248  0.1449  1.3204  0.9956
  591MOL0     H79763   3.813   2.740   8.347 -0.2367 -0.9132 -0.0228
  591MOL0     H79764   3.942   2.740   8.216  0.0966  1.4725 -0.7892
  591MOL0     H79765   3.793   2.721   8.048  4.0439  0.3025  1.0315
  591MOL0     H79766   3.649   2.733   8.154 -0.2015 -1.1787  1.1514
  591MOL0     H79767   4.506   3.126   7.807 -0.6458  0.4980 -0.5470
  591MOL0     H79768   4.732   3.155   7.811  0.0083 -0.3357  0.8262
  591MOL0     H79769   5.174   2.936   7.830  1.8691 -0.3097 -0.0205
  591MOL0     H79770   5.412   2.987   7.827  3.8100  3.7391  0.7255
  591MOL0     H79771   6.881   4.005   8.151  4.0029  0.4048  0.3168
  591MOL0     H79772   7.091   4.027   8.249 -0.9344  0.6398  1.1284
  591MOL0     H79773   7.525   3.790   8.320 -1.2418  0.7778  0.6676
  591MOL0     H79774   7.726   3.757   8.434 -1.0189  0.9275 -2.0060
  591MOL0     H79775   7.740   3.734   8.894  1.2509 -1.0521  1.5358
  591MOL0     H79776   7.758   3.600   8.771 -1.8087 -0.3862  0.9283
  591MOL0     H79777   7.997   3.628   8.779  0.1787 -2.1240  0.9920
  591MOL0     H79778   7.960   3.657   8.940  0.6317  0.5528  0.4652
  591MOL0     H79779   7.948   3.911   8.894 -1.5303 -0.0308 -1.3786
  591MOL0     H79780   8.035   3.892   8.740  1.2081  0.0051  0.6988
  591MOL0     H79781   8.133   3.807   9.001 -1.0918 -0.8393 -0.5877
  591MOL0     H79782   8.179   3.955   8.911 -1.4927  0.6595 -1.8289
  591MOL0     H79783   8.400   3.652   8.708 -0.5803 -2.3742  2.1109
  591MOL0     H79784   7.522   3.821   8.813 -2.5820  2.4559 -0.1744
  591MOL0     H79785   7.318   3.849   8.692 -0.4665  1.6835 -2.2803
  592MOL0     O79786   6.885   5.757   2.632  1.2338  0.1958 -0.1494
  592MOL0     C79787   6.993   5.817   2.609 -0.2100  0.1480 -0.0583
  592MOL0     O79788   7.043   5.843   2.482 -0.3725  0.2368  0.1225
  592MOL0     C79789   6.958   5.815   2.383  1.1883 -0.4558 -0.1826
  592MOL0     C79790   6.930   5.682   2.340 -0.2129 -0.1590  0.1491
  592MOL0     C79791   6.820   5.655   2.260 -0.4234  0.2514  0.5658
  592MOL0     C79792   6.728   5.746   2.222 -0.5698  0.1451  0.1287
  592MOL0     O79793   6.626   5.717   2.136 -0.6249  0.5163 -0.9802
  592MOL0     C79794   6.648   5.638   2.018  0.2060 -1.4278 -0.3852
  592MOL0     C79795   6.520   5.629   1.937  0.5167  0.2244 -1.5173
  592MOL0     C79796   6.399   5.568   2.019 -0.2146 -1.1023  0.2057
  592MOL0     C79797   6.417   5.422   2.046 -0.0846 -0.0638 -0.6750
  592MOL0     C79798   6.295   5.374   2.123  0.8928  0.2201 -0.4194
  592MOL0     C79799   6.252   5.226   2.111 -0.0836 -0.2594  0.5558
  592MOL0     C79800   6.097   5.222   2.113  0.0903  0.1402  0.0146
  592MOL0     C79801   6.040   5.245   2.256  0.9156 -0.7990  0.0762
  592MOL0     N79802   5.887   5.220   2.264  0.0329  0.8107 -0.7730
  592MOL0     C79803   5.787   5.250   2.175  0.4798  0.0869 -0.1974
  592MOL0     C79804   5.673   5.225   2.243  0.4762 -0.7701  0.1136
  592MOL0     C79805   5.540   5.243   2.184  1.0245 -0.5958  0.9610
  592MOL0     C79806   5.431   5.250   2.285  0.0929  0.1170 -0.7518
  592MOL0     C79807   5.299   5.295   2.220 -0.6108 -0.8704  0.4877
  592MOL0     C79808   5.196   5.187   2.232  0.5015  0.2309  0.3973
  592MOL0     O79809   5.222   5.077   2.136  0.4116  0.3101  0.0325
  592MOL0     C79810   5.127   4.985   2.112 -0.6707  0.7806  0.5907
  592MOL0     C79811   5.017   4.968   2.186  0.6164 -0.9482 -0.4061
  592MOL0     C79812   4.916   4.885   2.145  0.8471  0.2055 -0.0175
  592MOL0     C79813   4.783   4.898   2.216 -0.2818 -0.3258  0.7200
  592MOL0     C79814   4.929   4.822   2.014  0.2717  0.3346 -1.0587
  592MOL0     C79815   4.815   4.739   1.963  0.2214  0.2161  0.6820
  592MOL0     O79816   4.693   4.802   1.954 -0.0975 -0.2469 -0.1419
  592MOL0     C79817   4.590   4.730   1.902 -0.7930  0.1239 -0.7265
  592MOL0     C79818   4.532   4.774   1.791  0.2013 -0.7607  0.2679
  592MOL0     C79819   4.424   4.710   1.724 -0.0319 -0.3345  0.2069
  592MOL0     C79820   4.386   4.584   1.775  0.6836 -0.6390 -0.7933
  592MOL0     O79821   4.286   4.504   1.724  0.2885 -0.3916  0.9611
  592MOL0     C79822   4.254   4.534   1.585 -0.2191 -0.3050  0.5182
  592MOL0     C79823   4.173   4.410   1.534 -1.1136 -1.1768  0.1209
  592MOL0     C79824   4.041   4.384   1.604  0.5357 -0.3711  0.3906
  592MOL0     C79825   3.970   4.263   1.538 -0.5381 -0.4099  0.2055
  592MOL0     C79826   3.844   4.223   1.602  0.4427 -0.9605  0.2205
  592MOL0     C79827   3.788   4.107   1.517 -0.3314  0.6856 -0.6423
  592MOL0     C79828   3.655   4.035   1.555  0.2039 -0.0662 -0.1374
  592MOL0     C79829   3.572   3.993   1.430 -0.4593 -0.4331  0.1180
  592MOL0    Cl79830   3.407   3.943   1.483 -0.0861 -0.1936  0.1071
  592MOL0     C79831   4.454   4.531   1.891  0.2310 -1.0724 -0.2775
  592MOL0     C79832   4.552   4.605   1.959 -0.2743 -0.7395  0.2377
  592MOL0     O79833   4.852   4.640   1.896 -0.5703 -0.3353  0.0445
  592MOL0     C79834   5.051   4.837   1.944 -0.3036 -0.4712 -0.6508
  592MOL0     C79835   5.147   4.924   1.993  0.4937 -0.0540 -0.1387
  592MOL0     N79836   5.707   5.167   2.363 -0.7859 -0.4329 -0.7158
  592MOL0     N79837   5.831   5.167   2.376  0.4264  0.3619  0.2607
  592MOL0     C79838   6.755   5.873   2.264 -0.2218 -1.2001 -0.4133
  592MOL0     C79839   6.872   5.916   2.334  0.5389 -0.0200 -0.2910
  592MOL0     C79840   7.067   5.883   2.725 -0.4760 -0.0281  0.1906
  592MOL0     C79841   7.198   5.927   2.716 -0.6020 -0.5072 -1.3275
  592MOL0     C79842   7.253   6.005   2.821 -0.1264 -0.1470 -0.3577
  592MOL0     C79843   7.186   6.030   2.946 -0.1267  0.0422  0.5897
  592MOL0     O79844   7.224   6.095   3.060  0.6609  0.4347  0.4351
  592MOL0     C79845   7.359   6.142   3.051 -0.3169  0.0703  0.2876
  592MOL0     C79846   7.419   6.211   3.176 -0.5986  0.6425  0.3667
  592MOL0     C79847   7.388   6.142   3.310 -0.8244  0.8069  0.7018
  592MOL0     C79848   7.449   6.007   3.326  0.4094 -0.3011  0.7000
  592MOL0     C79849   7.594   6.015   3.339  0.7168  1.1567  0.2929
  592MOL0     C79850   7.716   6.034   3.329  0.3039  0.1524 -0.4515
  592MOL0     C79851   7.065   5.960   2.955 -0.4814  0.0174  0.6069
  592MOL0     C79852   7.007   5.891   2.851  0.8326  0.3298 -0.7132
  592MOL0     H79853   6.981   5.601   2.391 -0.5588 -0.8408 -0.5633
  592MOL0     H79854   6.823   5.552   2.225 -1.1961  0.0890  0.9458
  592MOL0     H79855   6.726   5.669   1.948 -1.4317 -1.6154 -2.3982
  592MOL0     H79856   6.681   5.543   2.061  0.9928 -1.9474 -2.0652
  592MOL0     H79857   6.496   5.730   1.902  0.9135  0.2054 -1.8474
  592MOL0     H79858   6.534   5.566   1.849  0.5535  0.2296 -1.5150
  592MOL0     H79859   6.401   5.619   2.116  2.4922 -0.2698 -0.1931
  592MOL0     H79860   6.309   5.602   1.966 -1.6932  0.5962  3.4901
  592MOL0     H79861   6.441   5.362   1.958  0.3139 -2.8318  1.2050
  592MOL0     H79862   6.497   5.408   2.118  0.7728  1.4772 -1.2865
  592MOL0     H79863   6.304   5.393   2.231  0.2553  0.9107 -0.4801
  592MOL0     H79864   6.207   5.431   2.093  0.9529  1.6142  1.8013
  592MOL0     H79865   6.285   5.184   2.015 -0.9877 -1.4917  0.7659
  592MOL0     H79866   6.303   5.167   2.188 -0.2118 -0.6682  0.3309
  592MOL0     H79867   6.058   5.299   2.046  1.0901 -0.5869 -1.4583
  592MOL0     H79868   6.053   5.131   2.071 -3.4957  1.7152  0.0141
  592MOL0     H79869   6.059   5.347   2.289  2.0076 -1.2546  0.9363
  592MOL0     H79870   6.088   5.176   2.326 -0.9954 -1.5841  0.6619
  592MOL0     H79871   5.786   5.287   2.073 -1.3864  1.3199  0.2192
  592MOL0     H79872   5.543   5.331   2.119  0.7356 -1.7973 -0.7594
  592MOL0     H79873   5.507   5.171   2.110 -1.5172  2.2136 -0.8638
  592MOL0     H79874   5.448   5.315   2.372 -2.5363  1.3453 -1.0816
  592MOL0     H79875   5.422   5.151   2.330 -0.1457  0.5392  0.1625
  592MOL0     H79876   5.318   5.324   2.116 -0.0258  0.6209  0.9895
  592MOL0     H79877   5.262   5.384   2.272 -1.3778 -0.3215 -0.9541
  592MOL0     H79878   5.097   5.223   2.201 -0.6030 -3.7309 -1.4620
  592MOL0     H79879   5.177   5.144   2.331 -0.3221 -4.6783 -1.6056
  592MOL0     H79880   4.991   5.021   2.277  1.1350 -3.5192  1.3355
  592MOL0     H79881   4.809   4.934   2.316  4.6904  0.4121 -0.6179
  592MOL0     H79882   4.707   4.956   2.163  0.2537 -1.4541 -1.3740
  592MOL0     H79883   4.747   4.796   2.232  0.6747 -1.1111 -1.7044
  592MOL0     H79884   4.574   4.867   1.754 -0.2188 -0.9404 -0.6725
  592MOL0     H79885   4.374   4.748   1.636 -0.5521  1.7895  1.3353
  592MOL0     H79886   4.197   4.627   1.595  1.9250  0.9026  2.4540
  592MOL0     H79887   4.342   4.556   1.525  0.5833 -2.6252  0.7419
  592MOL0     H79888   4.159   4.425   1.426  1.3375  2.3351  0.0840
  592MOL0     H79889   4.244   4.328   1.547  0.2714  0.1334  1.3248
  592MOL0     H79890   3.981   4.474   1.589 -1.6555 -1.3337  2.6277
  592MOL0     H79891   4.047   4.361   1.710 -1.6821  0.6421  0.7898
  592MOL0     H79892   3.957   4.290   1.432 -2.5638 -2.2359 -0.0818
  592MOL0     H79893   4.039   4.180   1.526  1.7600  1.7066 -3.3203
  592MOL0     H79894   3.764   4.297   1.600 -2.1818 -3.6362  0.0653
  592MOL0     H79895   3.859   4.204   1.708 -2.2291 -2.6704  0.3860
  592MOL0     H79896   3.780   4.149   1.416  0.0825  2.1234 -0.0902
  592MOL0     H79897   3.856   4.022   1.503 -1.9117 -0.4648 -1.6991
  592MOL0     H79898   3.594   4.110   1.607 -0.4846  0.8949 -2.2404
  592MOL0     H79899   3.682   3.947   1.615 -0.3509 -1.7282 -2.1967
  592MOL0     H79900   3.633   3.914   1.385  1.1058  1.3479 -1.0758
  592MOL0     H79901   3.569   4.063   1.346  1.2835  0.5789  0.8385
  592MOL0     H79902   4.424   4.433   1.925  0.2020 -1.0149 -0.1356
  592MOL0     H79903   4.603   4.556   2.042 -0.9616 -0.3670  0.8890
  592MOL0     H79904   5.077   4.794   1.848  0.5762 -0.3317 -0.4901
  592MOL0     H79905   5.223   4.950   1.920 -2.2190 -0.0392 -3.1783
  592MOL0     H79906   6.684   5.954   2.253  3.5550  2.7105  1.5308
  592MOL0     H79907   6.904   6.019   2.350  4.0739 -0.9985 -0.1013
  592MOL0     H79908   7.273   5.921   2.637  1.6162 -2.0773  0.7274
  592MOL0     H79909   7.356   6.040   2.824 -0.7747  1.8281  0.3330
  592MOL0     H79910   7.425   6.058   3.028 -0.7188  0.0692 -0.9357
  592MOL0     H79911   7.383   6.210   2.968  2.4734 -0.0659  0.8682
  592MOL0     H79912   7.381   6.313   3.174 -1.5176  0.3037 -1.6019
  592MOL0     H79913   7.528   6.219   3.165 -0.4157 -2.3166 -0.7965
  592MOL0     H79914   7.283   6.146   3.338 -1.5305 -2.5989 -1.0105
  592MOL0     H79915   7.435   6.204   3.387 -0.9385 -0.7166  2.0657
  592MOL0     H79916   7.415   5.925   3.263  3.6438 -1.1201 -0.1785
  592MOL0     H79917   7.419   5.983   3.429  0.2916  0.8605  0.9490
  592MOL0     H79918   7.816   6.064   3.305  0.0520 -0.5174 -2.6489
  592MOL0     H79919   7.006   5.983   3.042  1.2172  0.3656  1.7220
  592MOL0     H79920   6.911   5.842   2.866  1.9787 -1.9720 -0.4769
  593MOL0     O79921   8.753   3.747   8.806 -0.5245 -0.3863 -0.0834
  593MOL0     C79922   8.859   3.785   8.746  0.6300 -0.3387  0.0806
  593MOL0     O79923   8.857   3.840   8.622 -0.7433 -0.2902  0.0294
  593MOL0     C79924   8.736   3.841   8.555 -0.2958 -0.8695 -0.4744
  593MOL0     C79925   8.688   3.730   8.482 -0.8793 -0.4013  0.8380
  593MOL0     C79926   8.565   3.733   8.401 -0.0996 -0.4033 -0.3958
  593MOL0     C79927   8.506   3.860   8.402 -0.5678 -0.0103  1.5922
  593MOL0     O79928   8.386   3.875   8.332 -0.2391  0.3345  0.0934
  593MOL0     C79929   8.386   3.859   8.189  0.5000  0.3414  0.6034
  593MOL0     C79930   8.445   3.980   8.117  0.0893  0.0731 -1.2740
  593MOL0     C79931   8.345   4.098   8.109  0.2701 -0.5557  0.2717
  593MOL0     C79932   8.397   4.227   8.192 -0.5371  0.7382 -0.5210
  593MOL0     C79933   8.264   4.291   8.250 -0.6058  0.3216 -0.0628
  593MOL0     C79934   8.222   4.207   8.371 -0.5729 -0.5682 -0.1934
  593MOL0     C79935   8.081   4.251   8.425 -0.3009  0.0608 -0.0581
  593MOL0     C79936   8.075   4.402   8.460  0.0998  1.7806 -0.1888
  593MOL0     N79937   8.015   4.452   8.586 -0.4536  0.1160 -0.9859
  593MOL0     C79938   7.888   4.484   8.603  0.2323 -0.3317  0.2050
  593MOL0     C79939   7.880   4.542   8.729  1.7034 -0.2057 -0.0185
  593MOL0     C79940   7.758   4.602   8.788 -0.3492 -0.7636 -0.0792
  593MOL0     C79941   7.698   4.713   8.697 -0.2480 -0.3773 -0.0540
  593MOL0     C79942   7.571   4.777   8.766 -1.0052  0.4754  0.2059
  593MOL0     C79943   7.524   4.913   8.720 -0.7620 -1.1782  0.4539
  593MOL0     O79944   7.449   4.912   8.597 -0.3132  0.1354 -0.4324
  593MOL0     C79945   7.316   4.879   8.604 -0.3178 -0.0438 -0.7060
  593MOL0     C79946   7.248   4.823   8.716  0.3509  0.5632 -0.6706
  593MOL0     C79947   7.113   4.788   8.711  0.1534 -0.1267 -0.9983
  593MOL0     C79948   7.070   4.715   8.829  0.6321 -0.4492  0.0736
  593MOL0     C79949   7.037   4.819   8.593 -0.4288 -0.4672 -0.5339
  593MOL0     C79950   6.889   4.802   8.588  0.7417 -0.3472  0.0349
  593MOL0     O79951   6.832   4.861   8.475 -0.0887 -0.2161  0.0211
  593MOL0     C79952   6.721   4.817   8.421  0.6391 -0.2995 -1.2723
  593MOL0     C79953   6.640   4.912   8.359  0.2268 -0.3350 -0.0191
  593MOL0     C79954   6.516   4.870   8.302 -0.6128  0.2161  0.1208
  593MOL0     C79955   6.482   4.734   8.304  0.8205  0.1348 -0.8948
  593MOL0     O79956   6.359   4.678   8.263 -0.6458 -0.2043  0.1782
  593MOL0     C79957   6.291   4.754   8.163 -0.0610  0.3106 -0.0401
  593MOL0     C79958   6.179   4.688   8.077  0.5846  0.9171 -0.1868
  593MOL0     C79959   6.099   4.580   8.150 -1.3398  0.4872 -0.1706
  593MOL0     C79960   6.030   4.492   8.049 -0.5267  0.1700  0.1256
  593MOL0     C79961   5.943   4.398   8.131 -0.0020 -0.4166 -0.3336
  593MOL0     C79962   5.907   4.285   8.026  0.4105 -0.4500  0.3815
  593MOL0     C79963   5.823   4.174   8.073 -0.1137 -0.6113  0.0994
  593MOL0     C79964   5.873   4.096   8.202  0.1034 -0.4407 -0.1137
  593MOL0    Cl79965   5.749   3.972   8.247 -0.0932  0.5516 -0.1057
  593MOL0     C79966   6.564   4.639   8.376 -0.0061 -0.3691  0.3356
  593MOL0     C79967   6.684   4.682   8.422  0.6365  0.3015 -0.6490
  593MOL0     O79968   6.817   4.751   8.676  0.9924  0.0985 -0.3782
  593MOL0     C79969   7.107   4.869   8.483 -0.2486  0.0265  0.3745
  593MOL0     C79970   7.246   4.909   8.495  0.3349  0.1444 -0.1866
  593MOL0     N79971   8.004   4.542   8.778  0.6867  0.5492 -0.7096
  593MOL0     N79972   8.089   4.487   8.695  1.1982 -0.2221 -0.1364
  593MOL0     C79973   8.556   3.969   8.466  0.2251 -0.0661  0.6760
  593MOL0     C79974   8.669   3.963   8.551 -0.6304  0.0027 -0.4014
  593MOL0     C79975   8.986   3.776   8.813 -0.1052 -0.4235 -1.0769
  593MOL0     C79976   9.109   3.818   8.760  0.1771  0.3908  0.3794
  593MOL0     C79977   9.228   3.802   8.825 -0.4055 -0.0976 -0.5445
  593MOL0     C79978   9.226   3.766   8.968 -0.6589 -0.7205 -0.1611
  593MOL0     O79979   9.333   3.749   9.058  0.2657  0.7354  0.0433
  593MOL0     C79980   9.460   3.771   9.013 -0.1052  0.8176  0.0426
  593MOL0     C79981   9.541   3.810   9.143 -0.5116  0.0695 -0.1312
  593MOL0     C79982   9.559   3.687   9.240 -0.5179  0.8129  0.3349
  593MOL0     C79983   9.653   3.708   9.355 -0.9275  0.7069 -0.7833
  593MOL0     C79984   9.631   3.840   9.419 -0.2102  0.3419  0.1241
  593MOL0     C79985   9.606   3.954   9.446 -0.1320 -0.5516 -0.0862
  593MOL0     C79986   9.111   3.721   9.018  0.4345  0.2512 -0.9044
  593MOL0     C79987   8.995   3.717   8.936  1.4890  0.1757 -0.1276
  593MOL0     H79988   8.757   3.647   8.470 -0.4161 -0.0361  0.9459
  593MOL0     H79989   8.542   3.646   8.340  2.2142 -0.6849 -0.9643
  593MOL0     H79990   8.449   3.779   8.150  0.0906  1.5850 -2.9349
  593MOL0     H79991   8.283   3.835   8.160  0.5898  1.9498 -1.2574
  593MOL0     H79992   8.541   4.004   8.165 -0.2417  1.4585 -1.2531
  593MOL0     H79993   8.462   3.952   8.013 -2.1901 -1.0176 -1.4173
  593MOL0     H79994   8.339   4.144   8.010 -0.8102 -0.8268  0.1958
  593MOL0     H79995   8.245   4.060   8.135  0.5148 -2.1261 -0.9250
  593MOL0     H79996   8.460   4.198   8.277  1.9105 -1.7369 -2.9538
  593MOL0     H79997   8.447   4.287   8.116 -1.1888  1.3414 -0.4824
  593MOL0     H79998   8.283   4.398   8.263  3.3360 -0.1955 -0.1455
  593MOL0     H79999   8.192   4.275   8.169 -2.3156  0.9661  1.2749
  593MOL0     H80000   8.222   4.101   8.347  2.0228 -0.9104  0.9281
  593MOL0     H80001   8.295   4.222   8.452  0.0642 -0.2593 -0.8204
  593MOL0     H80002   8.006   4.226   8.350  0.4780 -1.6629 -0.3317
  593MOL0     H80003   8.064   4.184   8.511 -1.1192  0.6783  0.2761
  593MOL0     H80004   8.030   4.457   8.377 -0.5546  3.3497  1.1529
  593MOL0     H80005   8.181   4.428   8.466  0.7362 -0.8575  2.8456
  593MOL0     H80006   7.825   4.473   8.516  1.7788  1.9102 -1.3012
  593MOL0     H80007   7.679   4.527   8.797 -0.5424 -0.4633  0.7367
  593MOL0     H80008   7.783   4.648   8.883  0.7277  1.6291 -1.4225
  593MOL0     H80009   7.665   4.677   8.599  1.7257 -3.4206  0.2700
  593MOL0     H80010   7.772   4.793   8.685  1.8331 -2.4348 -1.7392
  593MOL0     H80011   7.572   4.786   8.875  1.6181 -1.1818  0.3956
  593MOL0     H80012   7.499   4.696   8.748 -0.2154 -0.0180 -0.8123
  593MOL0     H80013   7.612   4.977   8.710 -0.8627 -1.2618 -1.2567
  593MOL0     H80014   7.472   4.973   8.794  1.0918  0.2382  0.6694
  593MOL0     H80015   7.299   4.786   8.804  1.3148 -1.0758 -1.8541
  593MOL0     H80016   7.148   4.690   8.901  1.9608  1.0178 -0.7841
  593MOL0     H80017   6.996   4.775   8.883 -0.1915 -1.5894  0.2453
  593MOL0     H80018   7.022   4.622   8.796 -0.8485  0.5600 -0.7718
  593MOL0     H80019   6.680   5.010   8.334  2.4245 -1.2956 -0.4968
  593MOL0     H80020   6.458   4.949   8.254 -1.3670 -1.4901 -1.9374
  593MOL0     H80021   6.263   4.845   8.216 -1.2307 -0.8251  1.3801
  593MOL0     H80022   6.364   4.778   8.085  3.4588  2.0795  3.4505
  593MOL0     H80023   6.120   4.773   8.042  2.8958  3.0088  0.7175
  593MOL0     H80024   6.217   4.648   7.982 -0.6130  0.5748 -0.5433
  593MOL0     H80025   6.029   4.640   8.208 -0.4911  0.8084  0.5377
  593MOL0     H80026   6.166   4.518   8.210  1.9268  0.9269 -2.9968
  593MOL0     H80027   5.966   4.550   7.981 -1.6916  0.5266  1.4765
  593MOL0     H80028   6.100   4.433   7.990 -0.5668  1.9216 -1.8105
  593MOL0     H80029   5.857   4.451   8.172  3.0512  3.5054  1.7044
  593MOL0     H80030   6.000   4.346   8.209  0.6304  1.8781  0.8184
  593MOL0     H80031   5.857   4.331   7.940 -0.1469  1.5162  1.6768
  593MOL0     H80032   6.004   4.253   7.986  2.0431  1.0670  2.8304
  593MOL0     H80033   5.810   4.110   7.985 -0.1351 -1.4803  0.7122
  593MOL0     H80034   5.727   4.217   8.101  0.7579  1.1825  0.4653
  593MOL0     H80035   5.872   4.156   8.294  1.6929 -1.7506  0.8305
  593MOL0     H80036   5.977   4.065   8.183  0.6963  1.5973 -0.3452
  593MOL0     H80037   6.536   4.535   8.382 -0.2823 -0.3756 -0.7883
  593MOL0     H80038   6.754   4.611   8.464 -0.9824 -2.2725 -2.0988
  593MOL0     H80039   7.055   4.894   8.392  0.0241  0.1144  0.2401
  593MOL0     H80040   7.298   4.956   8.412  0.7797 -0.9670 -0.5574
  593MOL0     H80041   8.496   4.060   8.475  0.6182  0.1243  1.4506
  593MOL0     H80042   8.715   4.048   8.600  2.5379 -2.7771  1.9792
  593MOL0     H80043   9.105   3.854   8.658 -2.0924 -1.3143 -0.2447
  593MOL0     H80044   9.324   3.831   8.783  0.5348 -1.2506  0.7011
  593MOL0     H80045   9.509   3.683   8.971  0.1296 -0.1021  2.1176
  593MOL0     H80046   9.476   3.846   8.935  5.0392  0.8519  0.8250
  593MOL0     H80047   9.507   3.900   9.195  0.2315  0.0097  0.4905
  593MOL0     H80048   9.643   3.828   9.107 -1.8029  0.8110 -3.8371
  593MOL0     H80049   9.575   3.599   9.178 -0.3591 -1.0088  2.8222
  593MOL0     H80050   9.464   3.658   9.287  1.3505 -1.0397  3.2442
  593MOL0     H80051   9.758   3.697   9.326  0.5872 -0.5858  4.2155
  593MOL0     H80052   9.648   3.633   9.434 -0.6042 -0.2096 -1.6098
  593MOL0     H80053   9.595   4.058   9.471  1.8172  0.7972 -3.9430
  593MOL0     H80054   9.105   3.690   9.122 -0.7749 -0.6313 -1.2106
  593MOL0     H80055   8.906   3.666   8.970  0.6180 -2.0160 -4.9558
  594MOL0     O80056   6.304   5.044   9.920 -0.3413 -0.1213  0.1839
  594MOL0     C80057   6.359   5.019  10.033  0.2413  0.1651  0.4962
  594MOL0     O80058   6.296   5.009  10.154  0.2870 -0.1583  0.3098
  594MOL0     C80059   6.159   5.021  10.142 -0.2138 -0.1356  0.7696
  594MOL0     C80060   6.106   5.154  10.126  0.3220 -0.0591 -0.4791
  594MOL0     C80061   5.967   5.158  10.119  1.6144 -0.2042 -0.7390
  594MOL0     C80062   5.880   5.044  10.131 -0.5722 -0.6725 -0.2343
  594MOL0     O80063   5.746   5.065  10.136 -0.4526 -0.1588 -0.3741
  594MOL0     C80064   5.670   4.960  10.189  0.4973 -0.3403  0.3215
  594MOL0     C80065   5.519   5.009  10.190  0.6120 -0.0914  0.0713
  594MOL0     C80066   5.461   5.031  10.044 -0.9731  0.6007  0.3134
  594MOL0     C80067   5.314   5.077  10.039  0.0774  0.4968 -1.2177
  594MOL0     C80068   5.243   5.085   9.911  0.8860 -0.7249 -0.4172
  594MOL0     C80069   5.100   5.152   9.914 -0.2019 -0.0669 -0.0916
  594MOL0     C80070   4.999   5.092  10.012 -1.3802  0.4683  0.1935
  594MOL0     C80071   4.874   5.180  10.023 -0.9309 -0.4085  0.6750
  594MOL0     N80072   4.798   5.214   9.898  0.6287 -0.4572  0.8247
  594MOL0     C80073   4.723   5.329   9.895 -0.1098  0.3527 -0.5188
  594MOL0     C80074   4.634   5.302   9.790 -0.5636 -0.2689  0.3980
  594MOL0     C80075   4.534   5.401   9.742 -0.0293  0.3632 -0.2638
  594MOL0     C80076   4.395   5.342   9.759 -0.5866  0.4833 -0.4095
  594MOL0     C80077   4.298   5.447   9.720 -0.4707  0.2257  0.7770
  594MOL0     C80078   4.151   5.405   9.743  0.0177  0.0205  1.2016
  594MOL0     O80079   4.107   5.292   9.669 -0.3135  0.2644 -0.1627
  594MOL0     C80080   3.972   5.272   9.657  0.3309  0.1938  0.2413
  594MOL0     C80081   3.940   5.136   9.643  1.0365  0.6892 -0.0251
  594MOL0     C80082   3.812   5.081   9.658 -0.1283  0.1392 -1.1060
  594MOL0     C80083   3.789   4.935   9.661 -0.0653 -0.7207  0.5604
  594MOL0     C80084   3.708   5.174   9.676  0.7246  0.4378  0.3091
  594MOL0     C80085   3.558   5.130   9.672 -0.6952 -0.5781  0.2403
  594MOL0     O80086   3.464   5.226   9.709  0.0829 -0.1609  0.7614
  594MOL0     C80087   3.341   5.176   9.691  0.1101  0.1976 -0.4307
  594MOL0     C80088   3.269   5.217   9.577  0.0650  1.5404 -0.6571
  594MOL0     C80089   3.137   5.154   9.558 -0.5384 -0.1440 -0.2089
  594MOL0     C80090   3.081   5.064   9.655 -1.2756  0.0624  0.2741
  594MOL0     O80091   2.958   5.014   9.629 -0.6170  0.3747  0.6465
  594MOL0     C80092   2.926   4.894   9.711 -0.5414  0.5527  0.2049
  594MOL0     C80093   2.838   4.927   9.826 -0.1167  0.1606 -1.3261
  594MOL0     C80094   2.699   4.965   9.772 -0.3690 -0.5481 -0.0397
  594MOL0     C80095   2.608   5.055   9.861  0.2012 -0.4547 -0.1634
  594MOL0     C80096   2.476   5.090   9.785 -0.4151  0.2965  0.1348
  594MOL0     C80097   2.387   5.180   9.869 -0.2265 -0.0378  0.0709
  594MOL0     C80098   2.266   5.223   9.788  0.9358  0.2953  0.3013
  594MOL0     C80099   2.176   5.313   9.859  0.1430 -1.1013  0.3626
  594MOL0    Cl80100   2.110   5.251  10.013 -0.6549 -0.1198  0.1965
  594MOL0     C80101   3.160   5.032   9.769 -0.2959 -0.3186  0.4160
  594MOL0     C80102   3.284   5.089   9.779  0.5462  0.3353 -1.0634
  594MOL0     O80103   3.528   5.015   9.641  0.6520 -0.1544  0.1355
  594MOL0     C80104   3.735   5.311   9.678 -0.2304  0.2118 -0.2438
  594MOL0     C80105   3.865   5.360   9.668 -0.0993 -0.2812  0.4617
  594MOL0     N80106   4.674   5.189   9.720 -0.4165 -0.3290  0.5330
  594MOL0     N80107   4.774   5.138   9.791  0.5268  0.1017  0.0553
  594MOL0     C80108   5.945   4.918  10.127  0.1428  0.0194 -0.1617
  594MOL0     C80109   6.081   4.905  10.141 -0.1382 -0.4352 -0.7733
  594MOL0     C80110   6.506   4.995  10.038  0.2011 -0.7525  0.3443
  594MOL0     C80111   6.565   4.960  10.163  0.5242  0.6994 -0.3565
  594MOL0     C80112   6.700   4.932  10.165 -0.1755 -0.4907  0.0950
  594MOL0     C80113   6.781   4.940  10.054  0.7706 -0.5579  0.5555
  594MOL0     O80114   6.911   4.908  10.066 -0.3604 -0.1128 -0.1506
  594MOL0     C80115   7.000   4.892   9.952  0.8935 -0.7375  0.2706
  594MOL0     C80116   7.141   4.945   9.982 -0.2004  0.2560 -0.2648
  594MOL0     C80117   7.193   4.882  10.102 -0.3675 -0.4221 -0.9574
  594MOL0     C80118   7.344   4.852  10.091  0.2669 -0.8650 -0.5486
  594MOL0     C80119   7.420   4.982  10.104  0.0603 -0.4000  0.9220
  594MOL0     C80120   7.470   5.088  10.122 -1.1220 -0.6228 -0.2144
  594MOL0     C80121   6.727   4.987   9.935 -0.0601  0.1693 -0.0572
  594MOL0     C80122   6.587   5.007   9.923  0.5557  0.4075  0.0445
  594MOL0     H80123   6.175   5.237  10.114  1.6398 -1.0347  0.0700
  594MOL0     H80124   5.915   5.253  10.114  1.5353 -0.1664  0.4365
  594MOL0     H80125   5.677   4.869  10.129  4.9091  1.4253 -2.3578
  594MOL0     H80126   5.697   4.934  10.292 -1.7144  1.4875  1.4528
  594MOL0     H80127   5.464   4.928  10.238 -1.1773 -0.4606 -2.3984
  594MOL0     H80128   5.509   5.099  10.251 -2.8832 -0.1750 -0.2286
  594MOL0     H80129   5.525   5.098   9.986 -0.2623 -2.2612 -2.5055
  594MOL0     H80130   5.465   4.930  10.001  1.6181  1.0940 -0.8217
  594MOL0     H80131   5.262   5.009  10.107 -0.1545  1.8339 -0.0015
  594MOL0     H80132   5.304   5.177  10.082  2.5119 -0.2261  1.2724
  594MOL0     H80133   5.307   5.135   9.837 -1.1185  1.0265 -1.0517
  594MOL0     H80134   5.215   4.985   9.875 -2.7829  0.6279 -1.8147
  594MOL0     H80135   5.116   5.257   9.943  0.3301 -0.2551  0.3209
  594MOL0     H80136   5.061   5.155   9.812  0.5181  2.0598 -0.3544
  594MOL0     H80137   4.957   4.995   9.983  2.7888 -1.9513  1.3920
  594MOL0     H80138   5.035   5.072  10.113 -0.5976 -0.6327 -0.2746
  594MOL0     H80139   4.901   5.276  10.069 -1.5284 -0.6442  1.5545
  594MOL0     H80140   4.810   5.134  10.099  1.5476 -1.7375  2.1007
  594MOL0     H80141   4.737   5.416   9.958  0.0454  0.4585 -0.6976
  594MOL0     H80142   4.547   5.500   9.786 -0.7237  0.9358 -1.2787
  594MOL0     H80143   4.561   5.414   9.637  0.2152  2.7150  0.0426
  594MOL0     H80144   4.378   5.322   9.866 -0.0153  0.6135 -0.2943
  594MOL0     H80145   4.397   5.249   9.701 -0.1378  1.8543 -2.6879
  594MOL0     H80146   4.315   5.466   9.613 -0.6151 -1.5036  0.4195
  594MOL0     H80147   4.317   5.538   9.778  1.1988  0.0040  0.6254
  594MOL0     H80148   4.081   5.489   9.736 -2.2681 -1.6329  2.6925
  594MOL0     H80149   4.148   5.371   9.847 -1.3177  1.9070  1.8171
  594MOL0     H80150   4.013   5.057   9.630 -2.2414 -2.2865 -2.3446
  594MOL0     H80151   3.756   4.892   9.565 -0.9274 -1.5487  1.2107
  594MOL0     H80152   3.883   4.882   9.681 -0.3216 -0.7674  1.6532
  594MOL0     H80153   3.713   4.917   9.737 -1.5459  3.1862  0.2139
  594MOL0     H80154   3.314   5.294   9.516 -0.9837  2.6439 -0.0824
  594MOL0     H80155   3.086   5.164   9.463 -1.1615 -2.5456 -0.1707
  594MOL0     H80156   2.865   4.824   9.654 -0.9819  1.9715 -1.1389
  594MOL0     H80157   3.015   4.837   9.740 -0.7704  0.8606  1.5779
  594MOL0     H80158   2.822   4.850   9.902  2.4377  0.1803 -0.6871
  594MOL0     H80159   2.885   5.009   9.880  1.6346 -2.6535  1.7833
  594MOL0     H80160   2.646   4.876   9.738 -2.8919  1.0970 -0.6704
  594MOL0     H80161   2.721   5.008   9.674 -2.7860 -4.4054 -2.5431
  594MOL0     H80162   2.589   4.990   9.947 -2.7992  0.5264  0.0569
  594MOL0     H80163   2.653   5.148   9.895  2.1911 -0.8281 -1.6001
  594MOL0     H80164   2.421   4.996   9.769 -0.3051  0.2359  0.1077
  594MOL0     H80165   2.502   5.134   9.688 -3.1996  2.0787  0.0718
  594MOL0     H80166   2.361   5.122   9.958  1.7574 -0.2458  0.5615
  594MOL0     H80167   2.445   5.267   9.901  0.6615 -1.0459  1.3614
  594MOL0     H80168   2.211   5.133   9.759  1.0120  0.5427 -0.6534
  594MOL0     H80169   2.293   5.265   9.690  0.0351 -1.1478 -0.5939
  594MOL0     H80170   2.090   5.322   9.792  1.6988  2.5505 -1.4059
  594MOL0     H80171   2.212   5.415   9.871 -0.7689 -0.8507  1.1330
  594MOL0     H80172   3.133   4.959   9.844 -4.4056  0.7692  0.2448
  594MOL0     H80173   3.333   5.051   9.868 -3.3080  2.3412  2.2228
  594MOL0     H80174   3.648   5.375   9.662 -1.4595 -0.7419  2.1588
  594MOL0     H80175   3.882   5.467   9.662  3.2446 -0.6917  0.8993
  594MOL0     H80176   5.890   4.825  10.128 -2.0750  1.2016 -1.8443
  594MOL0     H80177   6.139   4.813  10.147  2.9122  1.4642  2.0233
  594MOL0     H80178   6.507   4.948  10.254 -1.0171  3.9780 -0.7708
  594MOL0     H80179   6.746   4.913  10.262  1.2165  0.8389 -0.2637
  594MOL0     H80180   6.999   4.784   9.935  1.0332 -1.3852  3.6787
  594MOL0     H80181   6.971   4.944   9.860 -0.5626  2.0725  2.2003
  594MOL0     H80182   7.140   5.054   9.978 -4.3226  0.3233 -1.4041
  594MOL0     H80183   7.205   4.900   9.905  0.8902  0.5524  0.4367
  594MOL0     H80184   7.141   4.790  10.129 -3.3289  1.5295  0.5058
  594MOL0     H80185   7.188   4.951  10.187  2.1731 -0.0715 -1.0324
  594MOL0     H80186   7.357   4.806   9.992 -1.3621  0.4590 -1.4142
  594MOL0     H80187   7.374   4.781  10.169  0.5690 -0.4584 -0.2935
  594MOL0     H80188   7.520   5.181  10.142  3.0440 -2.8510  0.9257
  594MOL0     H80189   6.783   4.993   9.842  2.1720  0.0935  1.2209
  594MOL0     H80190   6.543   5.027   9.825  2.3530  0.0538 -0.8919
  595MOL0     O80191   4.621   2.635   8.121  0.8683  0.8307 -0.5653
  595MOL0     C80192   4.659   2.558   8.032  0.2669  0.4539  0.0125
  595MOL0     O80193   4.590   2.466   7.963 -0.5660  0.8788  0.2297
  595MOL0     C80194   4.453   2.463   7.975 -0.8036  0.2647  0.5944
  595MOL0     C80195   4.379   2.577   7.953  0.1654  0.0838 -0.2544
  595MOL0     C80196   4.239   2.576   7.949  0.6806  0.2523 -0.3499
  595MOL0     C80197   4.170   2.455   7.974  0.4177 -0.0546 -0.8974
  595MOL0     O80198   4.039   2.429   7.977  1.1003 -0.2423 -0.5043
  595MOL0     C80199   3.955   2.512   7.892 -0.3181 -0.4622 -0.1454
  595MOL0     C80200   3.973   2.482   7.736 -0.4841  0.4810 -0.0579
  595MOL0     C80201   3.881   2.574   7.657 -0.1943  0.9575  0.5316
  595MOL0     C80202   3.869   2.503   7.518 -0.5499  0.8389  0.1113
  595MOL0     C80203   3.796   2.589   7.420  0.5445  0.6658  0.1685
  595MOL0     C80204   3.852   2.724   7.391  0.1020 -0.2841 -0.0151
  595MOL0     C80205   4.003   2.735   7.377 -1.1680  0.1771  1.5352
  595MOL0     C80206   4.069   2.862   7.322  0.6173 -0.3353  0.5944
  595MOL0     N80207   4.045   2.886   7.183  0.2573  0.1633  0.2152
  595MOL0     C80208   4.086   2.995   7.112 -0.5709  0.2684 -0.1396
  595MOL0     C80209   4.043   2.969   6.982 -0.0994  0.5964 -1.0180
  595MOL0     C80210   4.080   3.041   6.859 -0.5293 -0.0314  0.9774
  595MOL0     C80211   4.009   3.177   6.865 -0.5738  0.0178 -0.5470
  595MOL0     C80212   3.865   3.155   6.833 -0.9727 -1.1406  0.2293
  595MOL0     C80213   3.783   3.285   6.799  0.7820 -0.9379 -0.8804
  595MOL0     O80214   3.763   3.368   6.911  0.4630  0.1421 -0.0340
  595MOL0     C80215   3.632   3.371   6.970  0.4885 -0.5236 -0.9644
  595MOL0     C80216   3.512   3.326   6.914 -0.0734  0.3321 -0.0917
  595MOL0     C80217   3.398   3.306   6.984 -0.5304 -0.6350 -0.5332
  595MOL0     C80218   3.278   3.252   6.904  0.5355  0.6939  0.1903
  595MOL0     C80219   3.387   3.351   7.116 -1.0744  0.6295 -0.2553
  595MOL0     C80220   3.264   3.350   7.193  0.0629  0.4811 -0.5699
  595MOL0     O80221   3.187   3.234   7.204  0.1191  0.0214 -0.4599
  595MOL0     C80222   3.060   3.232   7.265  0.6871 -0.3508  0.5628
  595MOL0     C80223   2.959   3.327   7.275 -0.6636 -0.2998 -0.0485
  595MOL0     C80224   2.837   3.303   7.322 -0.4495 -0.3024  0.1502
  595MOL0     C80225   2.810   3.181   7.392 -0.1961 -1.1768 -0.2370
  595MOL0     O80226   2.688   3.164   7.456  0.2189 -0.7492  0.1269
  595MOL0     C80227   2.604   3.286   7.488 -0.3538  0.4580 -0.2166
  595MOL0     C80228   2.468   3.252   7.544  0.6158  0.4057  0.5550
  595MOL0     C80229   2.383   3.380   7.566  0.4858  0.0390 -0.1661
  595MOL0     C80230   2.238   3.351   7.555  0.7597 -0.4628  0.1821
  595MOL0     C80231   2.167   3.485   7.524 -1.1410 -0.1139  0.1887
  595MOL0     C80232   2.021   3.484   7.540  0.5492  0.8533 -0.2118
  595MOL0     C80233   1.972   3.370   7.446  0.1086 -0.0603  0.6632
  595MOL0     C80234   1.831   3.402   7.392  0.0803  0.0598 -1.1724
  595MOL0    Cl80235   1.705   3.408   7.527 -0.4011  0.2269 -0.4806
  595MOL0     C80236   2.909   3.094   7.396  0.8042  0.2553 -0.1448
  595MOL0     C80237   3.030   3.109   7.328 -0.1460 -0.8908  0.1121
  595MOL0     O80238   3.240   3.455   7.254  0.2573  0.1296  0.6349
  595MOL0     C80239   3.507   3.392   7.180 -0.1663  0.3885 -0.6032
  595MOL0     C80240   3.621   3.407   7.110 -0.5942  0.4971  0.3736
  595MOL0     N80241   3.986   2.843   6.983 -0.0987 -0.1588  0.3223
  595MOL0     N80242   3.974   2.800   7.103  0.4566 -0.1988  0.4359
  595MOL0     C80243   4.239   2.350   8.011  0.0675  0.1002  0.0825
  595MOL0     C80244   4.380   2.344   8.002  0.6911  0.1054  0.2821
  595MOL0     C80245   4.805   2.569   8.009 -0.1587 -0.4104 -0.6273
  595MOL0     C80246   4.859   2.505   7.898 -0.1812 -0.1452  0.1329
  595MOL0     C80247   4.996   2.520   7.866  0.8238 -0.1653  0.5796
  595MOL0     C80248   5.078   2.602   7.934 -0.0921 -0.4060 -0.9020
  595MOL0     O80249   5.205   2.620   7.896 -0.0137  0.0067 -0.4802
  595MOL0     C80250   5.263   2.582   7.766 -1.1316 -0.0737 -0.1855
  595MOL0     C80251   5.225   2.680   7.652  0.6588  0.2121  0.5406
  595MOL0     C80252   5.235   2.612   7.511  0.1641 -0.4315 -0.8651
  595MOL0     C80253   5.215   2.711   7.399  0.4466  0.2985 -0.7476
  595MOL0     C80254   5.311   2.819   7.406 -0.0929 -0.8885 -0.5464
  595MOL0     C80255   5.394   2.902   7.404  0.0892 -1.3241 -0.9762
  595MOL0     C80256   5.027   2.665   8.049  0.0435 -0.5872  0.5990
  595MOL0     C80257   4.892   2.643   8.087  0.0707  0.4727 -0.4429
  595MOL0     H80258   4.428   2.672   7.935  1.8042 -0.5503  0.6850
  595MOL0     H80259   4.187   2.670   7.936 -2.7432 -1.4812 -0.1676
  595MOL0     H80260   3.856   2.482   7.925  0.6741 -3.1446  0.7156
  595MOL0     H80261   3.966   2.617   7.920  0.9142 -0.4795 -0.4734
  595MOL0     H80262   4.070   2.500   7.688 -0.6278 -0.3441 -0.6788
  595MOL0     H80263   3.949   2.375   7.730  1.6808 -0.0244 -0.7945
  595MOL0     H80264   3.782   2.572   7.704  0.1199 -1.3104  1.2415
  595MOL0     H80265   3.926   2.673   7.649 -0.4211  0.9553 -1.2313
  595MOL0     H80266   3.970   2.487   7.480 -0.5658 -2.3976  1.1619
  595MOL0     H80267   3.828   2.402   7.515  3.9262 -1.1926 -0.0634
  595MOL0     H80268   3.813   2.523   7.335 -1.9865  0.0845  0.0335
  595MOL0     H80269   3.688   2.593   7.436  0.8291  0.2876  2.5802
  595MOL0     H80270   3.815   2.760   7.294 -0.3485 -0.2618  0.1639
  595MOL0     H80271   3.814   2.789   7.470  0.7628  0.8362 -0.5991
  595MOL0     H80272   4.047   2.711   7.474  1.0870 -1.2643  0.2568
  595MOL0     H80273   4.033   2.654   7.309  1.3927  1.2422  1.2629
  595MOL0     H80274   4.177   2.867   7.338  1.1167 -3.2460 -1.2027
  595MOL0     H80275   4.017   2.941   7.378  0.1508 -0.0869 -0.1804
  595MOL0     H80276   4.146   3.074   7.157 -0.5597  1.0400 -1.4609
  595MOL0     H80277   4.189   3.051   6.850 -0.8889  5.8688 -2.1571
  595MOL0     H80278   4.046   2.987   6.769  2.3650 -0.3984  0.0008
  595MOL0     H80279   4.062   3.253   6.806 -1.9352  2.1183  0.8117
  595MOL0     H80280   4.016   3.216   6.967 -0.0977  0.7115 -0.8332
  595MOL0     H80281   3.821   3.094   6.912  1.7429 -1.3261  1.7374
  595MOL0     H80282   3.862   3.115   6.731  2.0995  0.7088 -0.7322
  595MOL0     H80283   3.688   3.251   6.756  0.8545 -2.0953 -0.1599
  595MOL0     H80284   3.837   3.337   6.719  0.1962  2.5945  0.8232
  595MOL0     H80285   3.505   3.306   6.807 -3.4220  2.1442 -0.3276
  595MOL0     H80286   3.182   3.262   6.955 -1.2023  0.2162 -2.7572
  595MOL0     H80287   3.279   3.313   6.813  0.7528  2.6918  1.4963
  595MOL0     H80288   3.292   3.146   6.881 -0.4401  1.1633 -3.1564
  595MOL0     H80289   2.985   3.424   7.233 -0.6663  0.3838  1.4462
  595MOL0     H80290   2.780   3.396   7.328 -3.9589 -1.5613 -5.5916
  595MOL0     H80291   2.667   3.341   7.559 -2.0996 -0.6247  2.2868
  595MOL0     H80292   2.595   3.342   7.394  0.9331 -0.5545 -0.9842
  595MOL0     H80293   2.424   3.175   7.479 -0.7105  0.1295  1.7169
  595MOL0     H80294   2.487   3.203   7.640  0.8258 -1.1457 -0.2437
  595MOL0     H80295   2.408   3.455   7.491  0.2363 -0.4034 -0.7024
  595MOL0     H80296   2.416   3.416   7.664 -1.8179  0.9500  0.3428
  595MOL0     H80297   2.230   3.281   7.471  3.4062 -1.6726  0.8425
  595MOL0     H80298   2.192   3.319   7.649  0.9720 -1.8812 -0.1615
  595MOL0     H80299   2.188   3.531   7.427 -0.4827  1.9284  1.2403
  595MOL0     H80300   2.215   3.558   7.590  0.4784  1.1281 -2.2179
  595MOL0     H80301   2.004   3.454   7.644  1.8251 -1.0619 -0.5063
  595MOL0     H80302   1.981   3.585   7.526  0.7537  1.4028  2.4966
  595MOL0     H80303   1.965   3.275   7.501 -0.1409 -0.2910  0.2349
  595MOL0     H80304   2.038   3.357   7.360  2.0032  2.5068  1.6275
  595MOL0     H80305   1.800   3.324   7.322  1.1382  1.0062 -2.7347
  595MOL0     H80306   1.824   3.495   7.334  3.6003 -0.9575 -3.5625
  595MOL0     H80307   2.887   2.998   7.441 -0.8222 -0.1219 -1.6481
  595MOL0     H80308   3.107   3.036   7.306 -0.2673 -0.6820 -1.0896
  595MOL0     H80309   3.507   3.432   7.280 -0.5912 -1.2172  0.0637
  595MOL0     H80310   3.713   3.425   7.164  0.7087 -0.2049 -1.5029
  595MOL0     H80311   4.191   2.253   8.026 -0.3366 -0.3911 -3.4395
  595MOL0     H80312   4.428   2.248   8.019  4.3049  1.9198  1.4742
  595MOL0     H80313   4.793   2.448   7.834  1.9510  1.4493 -3.8172
  595MOL0     H80314   5.024   2.476   7.770  0.7887  3.6517 -1.3576
  595MOL0     H80315   5.372   2.581   7.778 -1.2341  0.0921  0.8591
  595MOL0     H80316   5.235   2.477   7.759 -2.7094  0.2536  0.8262
  595MOL0     H80317   5.298   2.761   7.651  0.6325  0.2815  1.9751
  595MOL0     H80318   5.123   2.718   7.660  1.4547  2.7672 -0.3759
  595MOL0     H80319   5.161   2.531   7.511 -3.0815  2.3025 -0.9443
  595MOL0     H80320   5.337   2.572   7.507  0.0992 -0.7034 -0.1233
  595MOL0     H80321   5.113   2.748   7.392  0.1711  0.7638  3.2565
  595MOL0     H80322   5.232   2.646   7.312 -0.7635 -0.6822 -0.2835
  595MOL0     H80323   5.477   2.968   7.417  0.6439 -2.1858 -0.0102
  595MOL0     H80324   5.088   2.726   8.115 -1.3428  0.0440  1.3385
  595MOL0     H80325   4.860   2.701   8.173  1.8534 -0.3996  0.8673
  596MOL0     O80326   0.117   1.967   6.525  0.0528 -0.3630 -0.7050
  596MOL0     C80327   0.219   2.026   6.508 -1.6962 -0.1280  0.4758
  596MOL0     O80328   0.221   2.165   6.501  0.2384 -0.3118 -0.4048
  596MOL0     C80329   0.102   2.239   6.511  0.4182  0.5850  0.0718
  596MOL0     C80330   0.060   2.253   6.650 -0.0440 -0.0129 -0.0059
  596MOL0     C80331  -0.062   2.317   6.680 -0.2422 -0.1384  0.3483
  596MOL0     C80332  -0.146   2.361   6.572 -0.5006 -0.5154  0.6466
  596MOL0     O80333  -0.266   2.420   6.606  0.3937  0.6074  0.2563
  596MOL0     C80334  -0.361   2.477   6.505  0.3770 -0.1814  0.2025
  596MOL0     C80335  -0.503   2.493   6.562  0.6970 -0.0674 -1.0776
  596MOL0     C80336  -0.601   2.513   6.447  0.0752 -0.2857  0.5371
  596MOL0     C80337  -0.741   2.485   6.490 -0.7339 -0.5652 -0.5695
  596MOL0     C80338  -0.841   2.513   6.380 -0.4053 -0.4035  0.0279
  596MOL0     C80339  -0.982   2.501   6.440  0.1536  0.5767  0.6094
  596MOL0     C80340  -1.091   2.538   6.338  0.1382  0.1754 -0.3093
  596MOL0     C80341  -1.225   2.539   6.415  0.6405 -0.1024  0.6619
  596MOL0     N80342  -1.335   2.537   6.312  0.2299  0.0174  0.6870
  596MOL0     C80343  -1.404   2.654   6.268 -0.6350  0.2525 -1.0996
  596MOL0     C80344  -1.496   2.615   6.183  0.6139 -0.2045 -0.5974
  596MOL0     C80345  -1.621   2.686   6.134  0.2098  0.0668  0.1050
  596MOL0     C80346  -1.706   2.713   6.256  0.6709  0.2494 -0.1397
  596MOL0     C80347  -1.800   2.603   6.301  0.0440  0.6835  0.2158
  596MOL0     C80348  -1.912   2.656   6.386 -0.5857  0.4413  0.1121
  596MOL0     O80349  -2.010   2.554   6.420 -0.1690 -0.8287 -0.1204
  596MOL0     C80350  -2.102   2.585   6.520  0.0628  0.0818 -0.2947
  596MOL0     C80351  -2.115   2.711   6.581 -0.0325  0.0836  0.0378
  596MOL0     C80352  -2.216   2.742   6.675 -0.6696  0.2060 -0.1789
  596MOL0     C80353  -2.237   2.881   6.739  0.4257 -0.0759  0.0424
  596MOL0     C80354  -2.302   2.634   6.712 -0.9338  0.6257  0.5036
  596MOL0     C80355  -2.422   2.645   6.807 -0.5549  0.0888  0.8649
  596MOL0     O80356  -2.437   2.752   6.896  0.6574 -0.6594  0.7135
  596MOL0     C80357  -2.544   2.781   6.982  0.5638 -0.0357  0.2286
  596MOL0     C80358  -2.635   2.681   7.021  0.4420 -0.3238  0.1202
  596MOL0     C80359  -2.733   2.702   7.118  0.2067  0.5137  0.1489
  596MOL0     C80360  -2.760   2.838   7.156  0.3930  0.5850 -0.0484
  596MOL0     O80361  -2.861   2.882   7.237 -0.2197 -0.0387  0.3859
  596MOL0     C80362  -2.935   2.790   7.322 -0.3002  0.7024 -0.3676
  596MOL0     C80363  -3.060   2.865   7.367  0.1730 -0.1862  0.1875
  596MOL0     C80364  -3.152   2.762   7.435  0.1096 -0.9102  0.0557
  596MOL0     C80365  -3.262   2.841   7.518  0.3168 -0.7010 -0.0923
  596MOL0     C80366  -3.374   2.746   7.537  0.6596 -0.5642  0.2267
  596MOL0     C80367  -3.482   2.799   7.632 -0.3224 -0.7094  0.1643
  596MOL0     C80368  -3.606   2.714   7.638 -0.2203  0.2905  0.2869
  596MOL0     C80369  -3.710   2.767   7.739  0.2889  0.4683 -0.1553
  596MOL0    Cl80370  -3.845   2.646   7.743 -0.3197 -0.1264  0.0433
  596MOL0     C80371  -2.678   2.945   7.105  0.4393  0.2411  0.3914
  596MOL0     C80372  -2.567   2.913   7.026  0.2527 -0.0827 -0.9549
  596MOL0     O80373  -2.507   2.558   6.783  0.1060  0.0230  0.7693
  596MOL0     C80374  -2.283   2.509   6.650  0.2200  0.5234 -0.0120
  596MOL0     C80375  -2.181   2.483   6.554  0.4362  0.7734  0.2310
  596MOL0     N80376  -1.496   2.476   6.183 -0.5694  0.3090 -0.2617
  596MOL0     N80377  -1.400   2.432   6.260  0.1285  0.3016 -1.4109
  596MOL0     C80378  -0.097   2.350   6.436  0.7471  0.8598  0.1284
  596MOL0     C80379   0.028   2.288   6.406  0.6819 -0.0545  0.0517
  596MOL0     C80380   0.349   1.956   6.479 -0.2927  0.2526 -1.1093
  596MOL0     C80381   0.364   1.815   6.464 -0.0750 -0.7786  0.0299
  596MOL0     C80382   0.483   1.753   6.421  0.0676 -1.0309  0.4848
  596MOL0     C80383   0.595   1.839   6.410  0.4587 -0.2633 -0.1493
  596MOL0     O80384   0.715   1.780   6.376 -0.1618  0.2714  0.4262
  596MOL0     C80385   0.836   1.853   6.375  0.3559 -0.9225  0.1877
  596MOL0     C80386   0.952   1.757   6.368  0.7057 -0.1625 -0.5508
  596MOL0     C80387   0.942   1.691   6.229  0.0761 -0.1001 -0.1324
  596MOL0     C80388   0.875   1.554   6.244 -0.0757  0.7687 -0.4327
  596MOL0     C80389   0.874   1.488   6.118 -0.7376  0.1144 -0.4204
  596MOL0     C80390   0.845   1.423   6.021  0.1530  0.8155 -0.2602
  596MOL0     C80391   0.594   1.974   6.444  0.7041 -0.1552 -0.0869
  596MOL0     C80392   0.470   2.035   6.486 -0.1066  0.3096 -0.5559
  596MOL0     H80393   0.119   2.220   6.735 -1.0444 -0.6784  0.4568
  596MOL0     H80394  -0.076   2.326   6.787  1.2279 -2.6620  0.8400
  596MOL0     H80395  -0.333   2.577   6.468 -2.2537  0.0032 -1.5192
  596MOL0     H80396  -0.362   2.409   6.420 -0.7923  0.4415 -0.3002
  596MOL0     H80397  -0.530   2.408   6.626  0.0860  1.0376  0.1720
  596MOL0     H80398  -0.508   2.574   6.636 -0.5802 -2.5075  1.7142
  596MOL0     H80399  -0.590   2.601   6.384  0.0857 -0.4092  0.3669
  596MOL0     H80400  -0.577   2.434   6.376  1.9631  1.4786 -0.8812
  596MOL0     H80401  -0.754   2.385   6.534 -1.2197  0.5721  2.0116
  596MOL0     H80402  -0.757   2.554   6.573 -2.4117  1.0113 -2.1275
  596MOL0     H80403  -0.809   2.608   6.336  2.3510 -1.4776 -0.4988
  596MOL0     H80404  -0.833   2.435   6.303 -2.5268  0.1898 -0.8463
  596MOL0     H80405  -0.986   2.395   6.469 -2.0679  1.0362  2.2974
  596MOL0     H80406  -0.991   2.563   6.530 -2.6264  2.2656 -0.7072
  596MOL0     H80407  -1.079   2.637   6.293  0.9187 -0.1674 -0.8782
  596MOL0     H80408  -1.105   2.467   6.256  0.9418  1.3369 -1.4866
  596MOL0     H80409  -1.232   2.623   6.484  0.3078 -0.8554  1.5651
  596MOL0     H80410  -1.239   2.448   6.474  1.4565 -2.3116 -2.2690
  596MOL0     H80411  -1.391   2.751   6.315 -3.6080  0.6137 -0.7856
  596MOL0     H80412  -1.600   2.781   6.085  0.3556 -0.1612 -0.2774
  596MOL0     H80413  -1.671   2.624   6.059  2.3027  0.9609 -2.1290
  596MOL0     H80414  -1.768   2.801   6.234  1.0468  0.5870  0.1169
  596MOL0     H80415  -1.637   2.744   6.336 -2.1694  0.5484  2.4029
  596MOL0     H80416  -1.743   2.524   6.352  0.1078 -0.0953 -1.0198
  596MOL0     H80417  -1.846   2.556   6.214 -2.1957  0.1571  1.6074
  596MOL0     H80418  -1.961   2.728   6.320  0.0572  0.5839 -0.2168
  596MOL0     H80419  -1.865   2.704   6.473 -0.8839  3.0725 -1.0736
  596MOL0     H80420  -2.046   2.789   6.550 -1.1358  1.4681  0.9155
  596MOL0     H80421  -2.214   2.879   6.846 -0.1276 -1.2955  0.1590
  596MOL0     H80422  -2.162   2.943   6.690 -2.2179  2.2240 -1.3516
  596MOL0     H80423  -2.336   2.920   6.715 -0.0158 -1.2190 -0.0809
  596MOL0     H80424  -2.641   2.584   6.974 -2.7594 -0.3296  0.2979
  596MOL0     H80425  -2.799   2.626   7.159 -0.0881  0.6690 -0.0284
  596MOL0     H80426  -2.971   2.706   7.262 -1.8177 -0.0629  1.4976
  596MOL0     H80427  -2.878   2.753   7.407 -2.1693 -0.9241  0.2658
  596MOL0     H80428  -3.030   2.946   7.435 -0.1955  0.1571 -0.0506
  596MOL0     H80429  -3.105   2.909   7.277 -1.6081 -1.7636  0.2444
  596MOL0     H80430  -3.091   2.700   7.501  0.3736  0.0908  0.7714
  596MOL0     H80431  -3.189   2.701   7.352  0.2555  1.1704 -1.6209
  596MOL0     H80432  -3.228   2.881   7.614  0.9953  1.2665 -1.0968
  596MOL0     H80433  -3.303   2.927   7.465  1.8719  0.5745  0.7020
  596MOL0     H80434  -3.357   2.646   7.579 -2.5883 -1.2662  0.0862
  596MOL0     H80435  -3.408   2.725   7.435  1.2610 -0.4972  0.0046
  596MOL0     H80436  -3.441   2.820   7.732  1.5555 -0.1730 -0.6670
  596MOL0     H80437  -3.511   2.897   7.592 -2.3646 -1.3715 -0.0973
  596MOL0     H80438  -3.570   2.614   7.662 -0.6171  0.4476  1.5977
  596MOL0     H80439  -3.644   2.710   7.535  3.0563  1.5821 -1.1304
  596MOL0     H80440  -3.749   2.865   7.710  0.1967  0.4013 -0.2598
  596MOL0     H80441  -3.674   2.791   7.840 -0.4963  2.0607 -0.2244
  596MOL0     H80442  -2.707   3.045   7.135  2.0277  1.5335 -2.0884
  596MOL0     H80443  -2.498   2.985   6.984 -0.5732  2.0079  1.0445
  596MOL0     H80444  -2.355   2.432   6.679 -0.9795  0.6931 -2.2926
  596MOL0     H80445  -2.161   2.383   6.518  1.2258  1.1913 -0.5168
  596MOL0     H80446  -0.163   2.376   6.354  1.5954 -0.9247 -1.1831
  596MOL0     H80447   0.069   2.267   6.307  3.0416  0.7256  0.7927
  596MOL0     H80448   0.278   1.755   6.492 -1.1304 -1.3394 -3.8530
  596MOL0     H80449   0.490   1.647   6.400 -2.7513 -1.0549 -0.6921
  596MOL0     H80450   0.829   1.907   6.280  1.1098 -2.6075 -0.8949
  596MOL0     H80451   0.862   1.917   6.459  2.5825  0.8832 -1.7265
  596MOL0     H80452   0.948   1.676   6.442  0.0947  3.3611  3.6255
  596MOL0     H80453   1.046   1.810   6.378 -0.2803  1.1822  3.3591
  596MOL0     H80454   1.043   1.672   6.190  0.4338  0.4117  0.5311
  596MOL0     H80455   0.877   1.747   6.161 -2.0383  1.3780  2.9087
  596MOL0     H80456   0.769   1.568   6.269 -0.0095 -0.0820  0.3936
  596MOL0     H80457   0.909   1.483   6.320  0.1071  0.9712 -0.3255
  596MOL0     H80458   0.825   1.362   5.936 -1.7195  2.4109 -1.0337
  596MOL0     H80459   0.680   2.041   6.447 -0.1221  0.9774 -0.7812
  596MOL0     H80460   0.465   2.137   6.523  1.1772 -0.6666  2.6756
  597MOL0     O80461   6.506   2.697   7.183  0.5064 -0.2121  0.0475
  597MOL0     C80462   6.567   2.732   7.081  0.4302  0.1597  0.5578
  597MOL0     O80463   6.515   2.732   6.950 -0.2206 -0.2133 -0.1278
  597MOL0     C80464   6.396   2.676   6.941 -0.0833  0.3906  0.7410
  597MOL0     C80465   6.281   2.748   6.914  0.0809 -0.0799 -0.6667
  597MOL0     C80466   6.153   2.691   6.915  0.1393  0.7467 -0.6550
  597MOL0     C80467   6.145   2.556   6.935  0.2839 -0.5031 -0.0757
  597MOL0     O80468   6.016   2.505   6.949  0.0499  0.7762 -0.7305
  597MOL0     C80469   5.990   2.362   6.970 -0.4028  0.2077 -0.4740
  597MOL0     C80470   5.842   2.338   6.967 -0.9885  0.0661 -0.6052
  597MOL0     C80471   5.766   2.445   7.036 -0.4687 -0.1095  0.1503
  597MOL0     C80472   5.622   2.390   7.037  1.2505  0.7055 -0.0185
  597MOL0     C80473   5.519   2.469   7.118 -0.2158 -0.5011 -0.1061
  597MOL0     C80474   5.379   2.416   7.123 -0.5712  0.0059  0.8099
  597MOL0     C80475   5.375   2.280   7.190  0.8518  1.0103 -0.4102
  597MOL0     C80476   5.224   2.257   7.242 -0.0009  0.6824 -0.2511
  597MOL0     N80477   5.129   2.222   7.138  1.0091  0.1860  0.7764
  597MOL0     C80478   5.132   2.110   7.049  0.0617  0.5053 -0.0426
  597MOL0     C80479   5.030   2.124   6.962 -0.5020 -0.5912  0.3216
  597MOL0     C80480   4.994   2.032   6.855 -0.4508  0.3576 -0.6894
  597MOL0     C80481   5.076   2.051   6.725  0.1978 -0.5091 -0.2255
  597MOL0     C80482   5.072   2.195   6.676  0.2628 -0.0754 -0.4781
  597MOL0     C80483   5.144   2.202   6.545  0.1976 -0.5015  0.2538
  597MOL0     O80484   5.094   2.125   6.438 -0.4785 -0.1335  0.3146
  597MOL0     C80485   4.981   2.164   6.372 -0.2862 -0.6885 -0.5716
  597MOL0     C80486   4.947   2.086   6.265  1.2655  0.4296  1.3259
  597MOL0     C80487   4.834   2.117   6.188  0.0219  0.0772  0.5103
  597MOL0     C80488   4.801   2.025   6.068  0.9570 -0.1811 -0.7749
  597MOL0     C80489   4.764   2.235   6.217  0.0580 -0.4164  0.6754
  597MOL0     C80490   4.641   2.272   6.155  0.3414  0.6883 -0.0961
  597MOL0     O80491   4.557   2.343   6.239  0.3450 -0.2821  0.5115
  597MOL0     C80492   4.429   2.384   6.205  0.5455 -0.1794 -0.4360
  597MOL0     C80493   4.343   2.318   6.124  0.3642  0.6604 -0.2332
  597MOL0     C80494   4.218   2.376   6.085  0.1864 -0.3354  0.1104
  597MOL0     C80495   4.176   2.502   6.128 -0.0123 -0.3321 -0.9006
  597MOL0     O80496   4.051   2.555   6.094  0.0701  0.7569 -0.1187
  597MOL0     C80497   4.006   2.681   6.148  0.6543 -0.8389  0.3519
  597MOL0     C80498   3.871   2.700   6.094 -0.1470  0.2723  0.7386
  597MOL0     C80499   3.794   2.817   6.156 -0.4546  0.3351 -0.2776
  597MOL0     C80500   3.683   2.858   6.068 -0.3466 -0.1086  1.2240
  597MOL0     C80501   3.578   2.929   6.151  0.2890  0.2390 -0.1746
  597MOL0     C80502   3.445   2.954   6.072  0.0436  0.1462 -0.2948
  597MOL0     C80503   3.461   3.028   5.940  0.8564  0.2279 -0.2561
  597MOL0     C80504   3.312   3.063   5.891 -0.0555 -0.2025  0.1865
  597MOL0    Cl80505   3.200   3.140   6.013 -0.0552 -0.0814 -0.2168
  597MOL0     C80506   4.271   2.568   6.215  0.1143 -0.2380 -0.2073
  597MOL0     C80507   4.391   2.508   6.238 -0.0268 -0.5396 -0.1195
  597MOL0     O80508   4.609   2.236   6.042  0.2247 -0.1946  0.0677
  597MOL0     C80509   4.806   2.313   6.325  0.6109 -0.1528 -0.4753
  597MOL0     C80510   4.913   2.278   6.405  0.1455  0.0505 -0.4057
  597MOL0     N80511   4.965   2.245   6.990 -0.6549  0.6442 -0.3297
  597MOL0     N80512   5.026   2.303   7.092 -0.4448  0.4457 -0.3932
  597MOL0     C80513   6.256   2.481   6.966 -0.5514 -0.2570 -0.1357
  597MOL0     C80514   6.381   2.533   6.956 -0.4129  0.1410 -0.2303
  597MOL0     C80515   6.700   2.784   7.084 -0.3852  0.2948 -0.3034
  597MOL0     C80516   6.786   2.761   6.973  0.3725  0.0939 -0.3317
  597MOL0     C80517   6.917   2.800   6.972  0.0529 -0.2420 -0.1275
  597MOL0     C80518   6.957   2.873   7.079 -0.8416 -0.0985 -0.6761
  597MOL0     O80519   7.085   2.919   7.094  0.0404 -0.3319 -0.9173
  597MOL0     C80520   7.157   2.976   6.984  0.2574 -0.4277  0.0001
  597MOL0     C80521   7.102   3.119   6.946 -0.0629  0.8039  0.5047
  597MOL0     C80522   7.114   3.219   7.055  0.3633  0.8141 -0.8484
  597MOL0     C80523   7.248   3.301   7.054 -0.0422  0.4745 -0.2064
  597MOL0     C80524   7.369   3.225   7.076  0.4353 -0.0840 -0.2583
  597MOL0     C80525   7.469   3.156   7.093  0.5492 -0.4311  0.1259
  597MOL0     C80526   6.878   2.901   7.189  0.3831  0.2376 -0.4473
  597MOL0     C80527   6.748   2.853   7.195  0.8001 -0.0131  0.9591
  597MOL0     H80528   6.303   2.854   6.911 -1.9446  0.3715 -0.8124
  597MOL0     H80529   6.065   2.751   6.900 -1.1134 -0.2080  2.2609
  597MOL0     H80530   6.045   2.308   6.892  0.5004  1.6181 -0.8621
  597MOL0     H80531   6.029   2.341   7.070  0.9634  0.9003 -0.8263
  597MOL0     H80532   5.809   2.328   6.863 -3.2233 -2.4910  0.2509
  597MOL0     H80533   5.823   2.241   7.012  0.1160  0.1249  0.0125
  597MOL0     H80534   5.804   2.472   7.135  0.5361  3.9689 -1.1267
  597MOL0     H80535   5.783   2.534   6.975  0.2173 -0.8206 -0.7309
  597MOL0     H80536   5.578   2.386   6.937  1.2028 -0.8119  0.0530
  597MOL0     H80537   5.627   2.286   7.070  1.4743  1.5360  2.8710
  597MOL0     H80538   5.569   2.473   7.215  0.2637  1.2670 -0.3867
  597MOL0     H80539   5.513   2.570   7.075  1.0116 -1.8460 -3.8414
  597MOL0     H80540   5.322   2.490   7.179 -4.3486  0.6373 -3.3197
  597MOL0     H80541   5.337   2.413   7.022 -0.9079  2.0298  0.8431
  597MOL0     H80542   5.406   2.203   7.117 -0.1850 -0.5376  0.7142
  597MOL0     H80543   5.433   2.273   7.282  1.7836  1.1105 -0.9745
  597MOL0     H80544   5.185   2.345   7.293 -1.5887  0.2727 -0.7002
  597MOL0     H80545   5.226   2.176   7.316  0.8595  0.2179 -0.7648
  597MOL0     H80546   5.209   2.036   7.065 -1.0534  0.0374  4.9951
  597MOL0     H80547   5.014   1.931   6.892  0.2942  1.3630  1.8612
  597MOL0     H80548   4.888   2.041   6.831 -0.0899  0.8583 -2.2029
  597MOL0     H80549   5.036   1.985   6.648  0.4387 -0.6714 -0.2148
  597MOL0     H80550   5.181   2.028   6.748  0.4565 -2.4924 -2.9808
  597MOL0     H80551   5.114   2.261   6.753  0.5167 -1.8398  0.9593
  597MOL0     H80552   4.967   2.221   6.666  0.6124  0.8864 -1.9148
  597MOL0     H80553   5.248   2.168   6.554  0.2551  0.0965  2.3606
  597MOL0     H80554   5.141   2.307   6.514  1.5178  1.0668  4.6176
  597MOL0     H80555   4.997   1.996   6.231 -0.6374  0.4907 -2.0970
  597MOL0     H80556   4.863   1.935   6.071  0.7766 -0.3164 -1.1093
  597MOL0     H80557   4.694   2.007   6.079  0.6443  2.5419  1.6589
  597MOL0     H80558   4.802   2.076   5.971  0.3185  1.7210  0.1801
  597MOL0     H80559   4.372   2.215   6.106 -1.7271 -0.2853  1.4098
  597MOL0     H80560   4.146   2.327   6.021 -1.7639  1.8891  0.4432
  597MOL0     H80561   3.999   2.687   6.257  0.1447 -0.3994  0.2988
  597MOL0     H80562   4.076   2.757   6.112  1.3106 -1.4742  0.2714
  597MOL0     H80563   3.864   2.718   5.986 -2.2003  2.2719  1.1337
  597MOL0     H80564   3.808   2.613   6.115 -1.1117  0.7487 -0.0837
  597MOL0     H80565   3.866   2.898   6.176  2.8316 -1.6509 -2.9574
  597MOL0     H80566   3.756   2.793   6.256  0.2750  0.0242 -0.0678
  597MOL0     H80567   3.725   2.919   5.987  0.1686 -1.7208  0.2233
  597MOL0     H80568   3.641   2.764   6.029 -2.3926  0.5695  1.6580
  597MOL0     H80569   3.605   3.027   6.191 -0.9135  0.2003  0.7886
  597MOL0     H80570   3.551   2.862   6.234  0.2470  1.0086  0.4443
  597MOL0     H80571   3.379   2.867   6.062  0.4478 -0.3766  1.3108
  597MOL0     H80572   3.381   3.012   6.139 -0.7322  0.1871 -1.0479
  597MOL0     H80573   3.500   2.971   5.855  1.7690  0.4774 -0.0190
  597MOL0     H80574   3.515   3.121   5.961 -0.1295  0.6202  0.5944
  597MOL0     H80575   3.262   2.971   5.858 -1.9218  0.5045  0.9192
  597MOL0     H80576   3.318   3.134   5.807 -2.5525  0.5139  0.5404
  597MOL0     H80577   4.251   2.664   6.260  2.2506 -0.4232  1.3233
  597MOL0     H80578   4.450   2.572   6.304 -1.3720  0.1089  0.5057
  597MOL0     H80579   4.745   2.402   6.337  1.0701  0.3824 -1.8858
  597MOL0     H80580   4.935   2.339   6.492  2.0774 -0.4891 -0.4741
  597MOL0     H80581   6.253   2.377   6.996  2.6470 -0.3668  0.0718
  597MOL0     H80582   6.463   2.463   6.973 -2.3771 -2.5925 -1.2704
  597MOL0     H80583   6.755   2.701   6.888  2.1207  2.1605 -2.5557
  597MOL0     H80584   6.981   2.773   6.889  0.4403  3.1918 -1.0939
  597MOL0     H80585   7.260   2.984   7.021 -0.1693  1.1261  0.9900
  597MOL0     H80586   7.154   2.911   6.897 -0.3781 -1.7907  1.0052
  597MOL0     H80587   6.998   3.099   6.921 -0.2831  0.3428  1.7008
  597MOL0     H80588   7.150   3.152   6.854 -2.8577  2.7394 -0.3745
  597MOL0     H80589   7.100   3.170   7.152 -1.8071 -0.0903 -1.5458
  597MOL0     H80590   7.031   3.288   7.040 -1.1177 -0.6887  0.0611
  597MOL0     H80591   7.231   3.375   7.133  0.8561  0.6031 -0.1288
  597MOL0     H80592   7.262   3.343   6.954 -2.4893 -0.0515 -0.8325
  597MOL0     H80593   7.534   3.078   7.126 -0.3706 -0.9254  0.7987
  597MOL0     H80594   6.910   2.967   7.270 -3.7519  1.7505  0.1910
  597MOL0     H80595   6.680   2.876   7.276 -0.9976 -2.4722  0.3024
  598MOL0     O80596   7.607   8.842   8.491  0.3875 -0.3397  0.2782
  598MOL0     C80597   7.603   8.767   8.390 -0.4070 -0.7583  0.1410
  598MOL0     O80598   7.494   8.753   8.307  0.3399 -0.1904 -0.2787
  598MOL0     C80599   7.373   8.802   8.358  0.2122  0.2248 -0.3503
  598MOL0     C80600   7.300   8.903   8.290 -0.1202 -0.2752 -0.2639
  598MOL0     C80601   7.175   8.941   8.339  0.0547  0.3363 -0.0446
  598MOL0     C80602   7.115   8.879   8.445 -0.4777  0.0170  0.2848
  598MOL0     O80603   6.990   8.908   8.503  0.4106 -0.2265  0.8974
  598MOL0     C80604   6.899   8.996   8.424 -0.0453  0.2473 -0.6301
  598MOL0     C80605   6.913   9.135   8.484  0.2898  0.1285  0.7604
  598MOL0     C80606   6.808   9.234   8.432 -0.6839 -0.3713  0.0449
  598MOL0     C80607   6.865   9.370   8.462 -0.1208 -0.3958  0.2161
  598MOL0     C80608   6.754   9.476   8.444  0.3699  0.1551 -0.1852
  598MOL0     C80609   6.714   9.502   8.303  0.0060  0.3352 -0.0354
  598MOL0     C80610   6.648   9.637   8.285 -0.2585 -0.4174  0.5427
  598MOL0     C80611   6.634   9.663   8.146  0.0797 -0.9741  0.7621
  598MOL0     N80612   6.511   9.600   8.104  0.0016 -0.0737  0.0678
  598MOL0     C80613   6.488   9.474   8.058  0.2825 -0.5259  0.2443
  598MOL0     C80614   6.354   9.477   8.032 -0.6688  0.8626  0.2841
  598MOL0     C80615   6.280   9.352   7.995  0.1376  0.7187  0.4114
  598MOL0     C80616   6.139   9.381   7.960  0.5187  0.6137 -0.1723
  598MOL0     C80617   6.122   9.460   7.832  0.5306 -0.3182  0.4580
  598MOL0     C80618   5.977   9.501   7.827  0.2009  0.4442 -0.1753
  598MOL0     O80619   5.896   9.392   7.776  0.5902 -0.0207  0.2653
  598MOL0     C80620   5.809   9.429   7.668  0.0235 -0.0450 -0.0251
  598MOL0     C80621   5.806   9.368   7.546  0.0636  0.4668  0.2278
  598MOL0     C80622   5.706   9.407   7.450  0.1479  1.0059  0.6157
  598MOL0     C80623   5.713   9.341   7.311 -0.5391  0.0219 -0.1587
  598MOL0     C80624   5.600   9.503   7.474  0.2976  1.1477 -0.6243
  598MOL0     C80625   5.490   9.541   7.389  0.0552 -0.8752 -0.6790
  598MOL0     O80626   5.395   9.616   7.449 -0.7056 -0.0223 -0.5176
  598MOL0     C80627   5.289   9.652   7.373  0.1462  0.3765 -0.5261
  598MOL0     C80628   5.204   9.569   7.299  0.2927  0.5035 -0.2356
  598MOL0     C80629   5.090   9.613   7.223  0.2947  0.3235  0.4384
  598MOL0     C80630   5.064   9.749   7.210 -0.2445  0.3869 -0.2108
  598MOL0     O80631   4.967   9.799   7.128 -0.0068 -0.3021  0.1811
  598MOL0     C80632   4.890   9.916   7.162 -0.8554  0.1605  0.0722
  598MOL0     C80633   4.771   9.938   7.064 -0.4762  0.0264  0.4938
  598MOL0     C80634   4.669  10.044   7.103  0.3022 -0.4072  0.1753
  598MOL0     C80635   4.576  10.084   6.994 -0.3272  0.5560  0.3047
  598MOL0     C80636   4.456  10.162   7.050  0.5653 -0.0903  0.8731
  598MOL0     C80637   4.328  10.132   6.968  0.7538 -0.7713  0.0132
  598MOL0     C80638   4.195  10.158   7.042  0.7075 -0.1943 -0.6350
  598MOL0     C80639   4.169  10.309   7.054 -0.3550 -0.3443  0.1373
  598MOL0    Cl80640   4.021  10.338   7.154  0.1420  0.2635  0.5025
  598MOL0     C80641   5.138   9.829   7.294 -1.0079 -0.1640 -0.0941
  598MOL0     C80642   5.244   9.786   7.376  0.1904 -0.2921 -0.3596
  598MOL0     O80643   5.497   9.509   7.270  0.2604 -0.3961  0.6765
  598MOL0     C80644   5.609   9.567   7.595  0.7900 -0.0173 -0.8993
  598MOL0     C80645   5.716   9.528   7.691  0.1114  0.0900 -0.7016
  598MOL0     N80646   6.301   9.606   8.052 -0.9388 -0.7135  0.0361
  598MOL0     N80647   6.401   9.675   8.107 -0.0508 -0.2282  0.4899
  598MOL0     C80648   7.180   8.774   8.510  0.1803 -0.3019 -0.6195
  598MOL0     C80649   7.304   8.735   8.463 -0.9978  0.3430  0.5457
  598MOL0     C80650   7.726   8.709   8.354 -0.3253  0.1915  0.1518
  598MOL0     C80651   7.844   8.754   8.413 -0.2191  0.2242  0.4503
  598MOL0     C80652   7.970   8.707   8.374  0.0078  0.4902 -0.1731
  598MOL0     C80653   7.984   8.605   8.280 -1.2867  0.2478  0.6059
  598MOL0     O80654   8.107   8.567   8.219  0.0192  0.3003  0.3281
  598MOL0     C80655   8.203   8.670   8.207  0.2863  0.1196  0.4183
  598MOL0     C80656   8.159   8.785   8.112  0.1702  0.6324 -0.1746
  598MOL0     C80657   8.254   8.906   8.129  0.4645  0.4001  0.8443
  598MOL0     C80658   8.383   8.900   8.050 -0.0109  0.3345  0.8282
  598MOL0     C80659   8.352   8.929   7.909  0.4453  0.8812  0.4028
  598MOL0     C80660   8.334   8.957   7.796  0.2558  0.3468  0.3436
  598MOL0     C80661   7.867   8.562   8.215  0.2945 -0.3695 -0.2521
  598MOL0     C80662   7.736   8.608   8.252  0.9078  0.4043 -0.1621
  598MOL0     H80663   7.344   8.954   8.205 -0.6440 -0.9216 -0.9419
  598MOL0     H80664   7.113   9.015   8.290 -1.5795  0.3851  1.9634
  598MOL0     H80665   6.918   8.998   8.316  0.1517  2.8637 -0.6202
  598MOL0     H80666   6.795   8.973   8.446 -0.5223  4.8508  3.6578
  598MOL0     H80667   6.917   9.131   8.593  0.9088 -2.2972  0.7084
  598MOL0     H80668   7.015   9.167   8.460 -0.4926  2.1903 -0.0347
  598MOL0     H80669   6.808   9.224   8.323  0.2055  1.9166 -0.2114
  598MOL0     H80670   6.709   9.220   8.475 -1.6881  0.4966 -1.8926
  598MOL0     H80671   6.896   9.368   8.567  3.6397 -1.2470 -0.7666
  598MOL0     H80672   6.955   9.394   8.405 -0.4114 -0.1558 -0.1470
  598MOL0     H80673   6.664   9.447   8.500  0.0056  1.3993 -0.1035
  598MOL0     H80674   6.800   9.566   8.485 -2.2170  0.0558  3.4266
  598MOL0     H80675   6.798   9.488   8.234 -0.9486 -1.7809 -0.8473
  598MOL0     H80676   6.649   9.417   8.285  0.8015 -0.1563 -0.6286
  598MOL0     H80677   6.559   9.638   8.349 -0.9964  0.4819 -0.4605
  598MOL0     H80678   6.716   9.711   8.328  2.3846 -1.7661 -1.1055
  598MOL0     H80679   6.718   9.621   8.090 -0.6010 -2.0286  0.5002
  598MOL0     H80680   6.623   9.768   8.118 -0.5061 -1.8304 -2.6848
  598MOL0     H80681   6.551   9.387   8.040 -0.9412 -1.1505 -1.3294
  598MOL0     H80682   6.338   9.297   7.921  0.7361 -0.1842  1.5277
  598MOL0     H80683   6.276   9.295   8.089 -1.5640 -0.9095 -0.5750
  598MOL0     H80684   6.081   9.429   8.040 -1.3729 -1.8972  0.0737
  598MOL0     H80685   6.095   9.285   7.932  0.6570 -0.1314  1.9840
  598MOL0     H80686   6.151   9.405   7.741  0.4770 -0.7221  0.6833
  598MOL0     H80687   6.176   9.554   7.840 -1.9571  1.2567 -0.3072
  598MOL0     H80688   5.961   9.593   7.769 -1.3465 -0.0280 -0.5606
  598MOL0     H80689   5.942   9.524   7.928  2.5363  3.4865  0.0935
  598MOL0     H80690   5.877   9.288   7.526 -1.2358 -1.1467  1.7435
  598MOL0     H80691   5.646   9.255   7.306  0.2688 -0.5569 -1.6089
  598MOL0     H80692   5.690   9.408   7.228 -0.3276  0.3674  0.0547
  598MOL0     H80693   5.817   9.308   7.301 -1.0417 -1.9147  0.6941
  598MOL0     H80694   5.226   9.463   7.304  1.8115  0.8447  1.0398
  598MOL0     H80695   5.025   9.549   7.165 -1.3929  0.3576  2.1838
  598MOL0     H80696   4.842   9.895   7.258 -0.1112  3.3089  1.2466
  598MOL0     H80697   4.951  10.006   7.168 -0.6240  0.0095  0.0344
  598MOL0     H80698   4.815   9.971   6.970 -0.0158  2.1188  1.3915
  598MOL0     H80699   4.717   9.845   7.047 -2.0189  0.7890  1.0484
  598MOL0     H80700   4.726  10.128   7.144  1.7565 -1.6108  0.6910
  598MOL0     H80701   4.609  10.011   7.188 -1.5739  0.4898 -0.7466
  598MOL0     H80702   4.633  10.141   6.921  0.9449 -1.5118 -0.4039
  598MOL0     H80703   4.548   9.993   6.941  2.7240 -1.4770  1.8926
  598MOL0     H80704   4.484  10.268   7.058 -0.4078  0.3282 -0.6810
  598MOL0     H80705   4.418  10.119   7.143 -0.7675 -3.4899 -1.0656
  598MOL0     H80706   4.322  10.188   6.874 -2.3796  0.3256  0.7697
  598MOL0     H80707   4.318  10.030   6.930 -0.4240 -0.1991 -1.3216
  598MOL0     H80708   4.184  10.094   7.130  1.0114 -3.1756 -2.6286
  598MOL0     H80709   4.115  10.111   6.985  0.1199 -1.8807  1.4599
  598MOL0     H80710   4.164  10.368   6.962  1.3864 -0.2100  0.0988
  598MOL0     H80711   4.248  10.360   7.109  2.2955 -3.5324 -0.3701
  598MOL0     H80712   5.124   9.937   7.294 -0.0511 -0.0234 -0.4285
  598MOL0     H80713   5.289   9.863   7.438 -2.7600 -0.5926  2.4185
  598MOL0     H80714   5.539   9.644   7.626 -0.7216 -1.5043 -0.4759
  598MOL0     H80715   5.727   9.571   7.789  0.2550 -0.3523 -0.5209
  598MOL0     H80716   7.115   8.719   8.578 -1.8469  2.5378 -0.0984
  598MOL0     H80717   7.355   8.645   8.494 -0.5002  0.6462  0.6179
  598MOL0     H80718   7.844   8.814   8.503 -1.8325 -0.4993  0.9664
  598MOL0     H80719   8.062   8.745   8.416  0.1797 -1.4391  1.3319
  598MOL0     H80720   8.224   8.723   8.300 -0.6574  1.1419  0.0652
  598MOL0     H80721   8.304   8.635   8.180 -1.0713 -2.6585 -1.6287
  598MOL0     H80722   8.064   8.825   8.147  0.2184  0.8480 -0.2873
  598MOL0     H80723   8.160   8.755   8.007  2.1788  2.4236 -0.7581
  598MOL0     H80724   8.281   8.919   8.235 -2.1259 -0.8536  1.7502
  598MOL0     H80725   8.202   8.997   8.097  1.8422  1.2739  0.9986
  598MOL0     H80726   8.432   8.803   8.062 -3.0580 -0.9735  4.5454
  598MOL0     H80727   8.441   8.980   8.097  0.7764 -0.1724  0.7250
  598MOL0     H80728   8.305   8.988   7.698  1.0990 -3.1809 -1.1786
  598MOL0     H80729   7.871   8.489   8.134  1.6655 -1.7546  0.9970
  598MOL0     H80730   7.651   8.566   8.200  1.6108 -0.9360 -0.2645
  599MOL0     O80731   0.137   0.198  10.389  0.2007  0.6996 -0.3467
  599MOL0     C80732   0.171   0.112  10.304  0.0222  0.0048  0.4000
  599MOL0     O80733   0.084   0.067  10.208 -0.2990  0.3220  0.8559
  599MOL0     C80734  -0.051   0.102  10.220 -0.0186 -0.0497  0.4563
  599MOL0     C80735  -0.118   0.060  10.334  0.4637  0.3221 -0.0300
  599MOL0     C80736  -0.253   0.100  10.354 -0.2876  0.3339 -0.1754
  599MOL0     C80737  -0.313   0.195  10.272 -0.0164 -0.3292  0.2020
  599MOL0     O80738  -0.438   0.253  10.295 -0.5218  0.0819  0.4336
  599MOL0     C80739  -0.517   0.208  10.400 -0.1742 -0.5319 -0.2141
  599MOL0     C80740  -0.655   0.265  10.402 -0.2119 -0.0033 -0.2954
  599MOL0     C80741  -0.750   0.211  10.301  0.6028  0.1356  0.5381
  599MOL0     C80742  -0.896   0.252  10.340 -0.5224  0.6667 -0.3357
  599MOL0     C80743  -0.998   0.186  10.230  0.2277 -0.9628 -0.5870
  599MOL0     C80744  -1.142   0.201  10.278 -0.1388  0.4449  0.0925
  599MOL0     C80745  -1.235   0.193  10.155 -0.1465 -0.4095 -0.0998
  599MOL0     C80746  -1.381   0.226  10.195  0.3940  0.5156 -0.7850
  599MOL0     N80747  -1.446   0.110  10.256 -0.4348  0.0196  0.8262
  599MOL0     C80748  -1.577   0.088  10.249  0.1899  0.1264  0.2997
  599MOL0     C80749  -1.608  -0.040  10.276 -0.4476  0.4420 -0.4514
  599MOL0     C80750  -1.746  -0.086  10.266 -0.4512  0.0973  0.5895
  599MOL0     C80751  -1.797  -0.105  10.121  0.5725 -0.5412 -0.4638
  599MOL0     C80752  -1.945  -0.139  10.129 -0.4507  0.7442 -1.0024
  599MOL0     C80753  -2.000  -0.163   9.986  0.2832 -0.5631  0.1908
  599MOL0     O80754  -2.143  -0.132   9.982  0.2494  0.1875  0.5638
  599MOL0     C80755  -2.233  -0.202  10.055 -0.1314 -0.8901 -0.7989
  599MOL0     C80756  -2.217  -0.330  10.109 -0.5900 -0.3842 -1.4590
  599MOL0     C80757  -2.322  -0.388  10.176  0.0068 -0.1455 -0.2159
  599MOL0     C80758  -2.293  -0.523  10.237 -1.2892  0.2610  0.4643
  599MOL0     C80759  -2.439  -0.310  10.204  0.1759  0.4771 -0.2842
  599MOL0     C80760  -2.556  -0.363  10.281 -0.1249 -0.3045  0.0211
  599MOL0     O80761  -2.621  -0.269  10.359  0.2222 -0.3491 -0.1534
  599MOL0     C80762  -2.735  -0.295  10.427  0.2020 -0.2779  0.2174
  599MOL0     C80763  -2.850  -0.366  10.372 -0.2813 -1.2436 -0.0791
  599MOL0     C80764  -2.975  -0.366  10.441 -0.1283 -0.8826  0.3125
  599MOL0     C80765  -2.986  -0.319  10.571  0.6151  0.2781  0.1887
  599MOL0     O80766  -3.109  -0.326  10.628 -0.3012 -0.2030  0.4794
  599MOL0     C80767  -3.128  -0.314  10.770 -1.2743  0.4242 -0.7165
  599MOL0     C80768  -3.282  -0.315  10.820 -0.6283 -0.4235 -0.1094
  599MOL0     C80769  -3.352  -0.441  10.756 -0.1744  0.0526 -0.1609
  599MOL0     C80770  -3.501  -0.452  10.802  0.4717  0.3813 -0.3740
  599MOL0     C80771  -3.558  -0.592  10.759 -0.2273 -0.6364  0.5339
  599MOL0     C80772  -3.701  -0.608  10.814  0.4866 -0.1455 -0.5380
  599MOL0     C80773  -3.780  -0.729  10.775  0.2521  0.3021 -0.6128
  599MOL0     C80774  -3.924  -0.719  10.824  0.1304 -0.3835  0.3605
  599MOL0    Cl80775  -4.004  -0.607  10.710  0.3509 -0.2211 -0.4787
  599MOL0     C80776  -2.872  -0.269  10.638 -0.0093  0.5561 -0.1724
  599MOL0     C80777  -2.750  -0.250  10.560 -0.6686  0.4082 -0.0787
  599MOL0     O80778  -2.582  -0.477  10.261  0.2278  0.0340 -0.1451
  599MOL0     C80779  -2.444  -0.179  10.151  0.3074  0.6929 -0.4373
  599MOL0     C80780  -2.347  -0.130  10.068 -0.9677 -0.6568  0.3269
  599MOL0     N80781  -1.486  -0.103  10.301 -0.2212 -1.2258 -0.2169
  599MOL0     N80782  -1.394  -0.004  10.290  0.4398 -0.0743  0.2282
  599MOL0     C80783  -0.235   0.236  10.159 -0.2506  0.9800  0.7578
  599MOL0     C80784  -0.107   0.186  10.134  0.7172 -0.2513  0.5529
  599MOL0     C80785   0.310   0.074  10.300 -0.1141 -0.2114 -0.4976
  599MOL0     C80786   0.393   0.094  10.411 -0.8253  0.0750  0.6192
  599MOL0     C80787   0.530   0.058  10.398 -0.6298  0.8149  0.1010
  599MOL0     C80788   0.591   0.019  10.277  0.2915 -0.5956 -1.3167
  599MOL0     O80789   0.722  -0.009  10.297  0.4089  0.3937 -0.3451
  599MOL0     C80790   0.788  -0.088  10.206  0.0369  0.3655 -0.2781
  599MOL0     C80791   0.929  -0.130  10.245 -0.5008  0.3858 -0.5420
  599MOL0     C80792   0.949  -0.164  10.398 -1.0675  0.3010 -0.7315
  599MOL0     C80793   0.915  -0.312  10.440 -0.0796  0.1111  0.2146
  599MOL0     C80794   1.020  -0.408  10.386  0.9431 -0.1982 -0.9330
  599MOL0     C80795   1.110  -0.484  10.351  0.4759 -0.2345  0.5509
  599MOL0     C80796   0.507   0.009  10.162 -0.1728 -0.0013 -0.4152
  599MOL0     C80797   0.371   0.033  10.177 -0.5804  0.0762  0.6291
  599MOL0     H80798  -0.073  -0.010  10.404  2.1243  1.6468  0.2900
  599MOL0     H80799  -0.311   0.059  10.436 -1.0303  2.5178  0.4660
  599MOL0     H80800  -0.526   0.099  10.407 -1.4654 -0.3377  2.8658
  599MOL0     H80801  -0.471   0.233  10.495  2.4266  2.1501 -2.0248
  599MOL0     H80802  -0.691   0.237  10.502  0.0111 -0.2319 -0.2800
  599MOL0     H80803  -0.644   0.373  10.395 -1.3272  0.0106 -3.4570
  599MOL0     H80804  -0.717   0.255  10.206 -1.2325 -0.9117 -0.6430
  599MOL0     H80805  -0.736   0.103  10.288  2.5470  0.6131 -2.4318
  599MOL0     H80806  -0.918   0.211  10.439  1.5027 -0.7461 -0.4162
  599MOL0     H80807  -0.912   0.360  10.340 -2.9977  0.3579 -0.2653
  599MOL0     H80808  -0.982   0.252  10.144  3.3827  0.2403  0.7400
  599MOL0     H80809  -0.964   0.082  10.218  0.5774 -1.2666  2.2245
  599MOL0     H80810  -1.170   0.125  10.351  0.6343 -1.0498 -1.0925
  599MOL0     H80811  -1.147   0.296  10.332 -0.4593 -0.5570  1.8945
  599MOL0     H80812  -1.195   0.267  10.085 -0.1757 -0.4344 -0.1433
  599MOL0     H80813  -1.237   0.095  10.107 -1.8309 -0.1077 -0.7107
  599MOL0     H80814  -1.432   0.261  10.105  0.1881  1.6201 -0.2529
  599MOL0     H80815  -1.371   0.293  10.281  2.8170 -1.5519  0.7283
  599MOL0     H80816  -1.646   0.167  10.222  0.8657  0.4711 -0.4715
  599MOL0     H80817  -1.751  -0.182  10.319  2.1762 -0.5151 -0.1032
  599MOL0     H80818  -1.818  -0.022  10.319 -0.4222  2.0696 -1.6072
  599MOL0     H80819  -1.743  -0.183  10.066 -0.8951 -0.9947 -1.3265
  599MOL0     H80820  -1.779  -0.015  10.062  1.8504 -0.9896 -0.7843
  599MOL0     H80821  -2.000  -0.051  10.161  0.6219  0.5330  1.6417
  599MOL0     H80822  -1.965  -0.226  10.192  0.0233  0.7489 -0.8421
  599MOL0     H80823  -1.980  -0.267   9.960 -2.6439 -1.1396 -0.0747
  599MOL0     H80824  -1.956  -0.093   9.914  2.0243 -0.4352  1.3335
  599MOL0     H80825  -2.123  -0.383  10.097  0.1185 -0.0031  1.4800
  599MOL0     H80826  -2.192  -0.557  10.215 -0.1380  1.1496  3.7315
  599MOL0     H80827  -2.301  -0.520  10.346  1.9020 -0.9493  0.8357
  599MOL0     H80828  -2.359  -0.603  10.201  0.4973 -0.1431 -2.1676
  599MOL0     H80829  -2.840  -0.402  10.271  1.2702 -2.3006  0.4123
  599MOL0     H80830  -3.065  -0.390  10.386 -0.6574  3.0374 -0.8456
  599MOL0     H80831  -3.073  -0.396  10.816 -1.0424  0.2298 -1.3276
  599MOL0     H80832  -3.099  -0.211  10.790 -0.7615  0.2086 -0.3567
  599MOL0     H80833  -3.292  -0.325  10.929  3.0008 -0.1677  0.3915
  599MOL0     H80834  -3.332  -0.222  10.793 -1.6183 -0.2782  2.0135
  599MOL0     H80835  -3.299  -0.524  10.803 -2.9108  0.6665  4.7102
  599MOL0     H80836  -3.348  -0.442  10.646 -2.4880  0.6642 -0.3027
  599MOL0     H80837  -3.509  -0.440  10.911  0.9017  0.4683 -0.3525
  599MOL0     H80838  -3.557  -0.374  10.750  2.8464 -0.1059 -3.9829
  599MOL0     H80839  -3.491  -0.664  10.806  3.6613  0.8157 -2.2438
  599MOL0     H80840  -3.551  -0.590  10.649  1.5169 -2.4541  0.5563
  599MOL0     H80841  -3.678  -0.612  10.920  2.1083  0.9292 -0.8125
  599MOL0     H80842  -3.758  -0.518  10.787 -0.8500 -1.3387 -1.9077
  599MOL0     H80843  -3.714  -0.815  10.793 -2.0254 -1.3274  0.3542
  599MOL0     H80844  -3.791  -0.727  10.666 -0.6733  0.5056 -0.5268
  599MOL0     H80845  -3.939  -0.692  10.929  3.5901  0.3065  0.8011
  599MOL0     H80846  -3.980  -0.812  10.812 -0.9126  0.3569 -0.8039
  599MOL0     H80847  -2.875  -0.252  10.745  0.0392 -1.2168  0.1425
  599MOL0     H80848  -2.657  -0.219  10.607  1.1559 -3.3406 -0.8547
  599MOL0     H80849  -2.522  -0.119  10.195 -0.8270 -2.6495  2.5756
  599MOL0     H80850  -2.339  -0.030  10.025 -1.2614 -0.6119  0.3691
  599MOL0     H80851  -0.276   0.308  10.089 -1.5898 -2.3088 -2.2082
  599MOL0     H80852  -0.054   0.212  10.043 -0.1654  3.2920  0.9049
  599MOL0     H80853   0.350   0.140  10.499 -2.0887 -0.9743  0.5719
  599MOL0     H80854   0.586   0.052  10.491 -1.0747  0.0360  0.3315
  599MOL0     H80855   0.724  -0.176  10.195 -0.3222  0.6222 -0.2752
  599MOL0     H80856   0.787  -0.030  10.113 -4.3663 -0.4110 -0.9774
  599MOL0     H80857   1.008  -0.063  10.210  0.0992  2.6866  4.4025
  599MOL0     H80858   0.954  -0.221  10.188 -0.4978 -0.3107  0.5377
  599MOL0     H80859   0.899  -0.093  10.464 -0.9764 -0.7232  0.4746
  599MOL0     H80860   1.056  -0.147  10.414 -0.9183  0.0861 -1.4203
  599MOL0     H80861   0.817  -0.340  10.400 -0.6927 -0.7746  2.2402
  599MOL0     H80862   0.907  -0.319  10.549 -0.7304 -1.0729  0.1067
  599MOL0     H80863   1.185  -0.554  10.320  2.6889  1.0875  2.5341
  599MOL0     H80864   0.542  -0.018  10.063 -1.4315 -1.1024 -0.5861
  599MOL0     H80865   0.305   0.023  10.091  0.4776  0.5473 -0.2539
  600MOL0     O80866   0.414   2.032   3.471 -0.4693 -0.2240  0.5680
  600MOL0     C80867   0.512   2.099   3.509 -0.7047 -0.3576 -0.4106
  600MOL0     O80868   0.550   2.122   3.638 -0.2582  0.6459 -0.1399
  600MOL0     C80869   0.448   2.105   3.727  1.1865 -0.2033  0.1863
  600MOL0     C80870   0.341   2.200   3.741  0.1018 -0.2223  0.6395
  600MOL0     C80871   0.239   2.182   3.837  0.2849 -0.3658 -0.2685
  600MOL0     C80872   0.239   2.077   3.929 -0.8300  0.1248  0.1116
  600MOL0     O80873   0.141   2.084   4.021 -0.0179  0.0351 -0.5351
  600MOL0     C80874   0.137   1.995   4.133 -0.3735 -1.4330  0.3527
  600MOL0     C80875   0.019   2.028   4.220  0.5671  0.9457  0.5961
  600MOL0     C80876   0.018   1.953   4.357 -0.9600  0.6575  0.7264
  600MOL0     C80877  -0.099   1.992   4.434  0.1545  0.6253 -0.0504
  600MOL0     C80878  -0.112   1.918   4.572  0.1771  0.0185  0.3523
  600MOL0     C80879  -0.193   1.997   4.680  0.4460  0.3146 -1.0344
  600MOL0     C80880  -0.173   1.947   4.829  0.0483  0.6677 -0.0945
  600MOL0     C80881  -0.197   1.795   4.849  0.2899 -0.1246  0.2529
  600MOL0     N80882  -0.207   1.781   4.999 -0.0027  0.8457  1.1680
  600MOL0     C80883  -0.317   1.812   5.081  0.1642  0.6605  0.3785
  600MOL0     C80884  -0.268   1.841   5.197  0.2039  0.2650  0.1096
  600MOL0     C80885  -0.355   1.880   5.320 -0.0461  0.0331  0.2852
  600MOL0     C80886  -0.452   1.997   5.295 -0.3778 -0.6821  0.1745
  600MOL0     C80887  -0.540   2.026   5.424  0.1684 -0.8034 -0.0785
  600MOL0     C80888  -0.636   2.144   5.408 -0.2504  0.2005 -0.4609
  600MOL0     O80889  -0.732   2.106   5.303  0.1131 -0.0911  0.1093
  600MOL0     C80890  -0.839   2.193   5.283 -1.2724  0.7362  1.0538
  600MOL0     C80891  -0.923   2.168   5.171  0.2365  0.5071 -0.0016
  600MOL0     C80892  -1.038   2.235   5.133  0.2758 -0.8959 -1.2648
  600MOL0     C80893  -1.126   2.192   5.018  0.3313  0.2554  0.6183
  600MOL0     C80894  -1.064   2.359   5.200  0.6580  0.5195  0.2193
  600MOL0     C80895  -1.178   2.452   5.175  0.7045  0.4067 -0.3638
  600MOL0     O80896  -1.246   2.441   5.059  0.3218 -0.1644 -0.0417
  600MOL0     C80897  -1.363   2.506   5.046  0.8279 -0.8016  0.1087
  600MOL0     C80898  -1.368   2.645   5.049 -0.1102  0.3209  0.3846
  600MOL0     C80899  -1.493   2.711   5.022  0.4266 -0.3840  0.5286
  600MOL0     C80900  -1.610   2.636   4.999  0.5011  1.0968  0.5854
  600MOL0     O80901  -1.720   2.708   4.969  0.4356  0.3412 -0.0222
  600MOL0     C80902  -1.846   2.650   4.945  0.4134 -0.0453 -0.7130
  600MOL0     C80903  -1.959   2.753   4.942  0.4173  0.2259 -0.3942
  600MOL0     C80904  -2.101   2.690   4.953  0.3270  0.5204 -0.0689
  600MOL0     C80905  -2.214   2.787   4.927  0.1726  0.7843 -0.4545
  600MOL0     C80906  -2.347   2.723   4.975  0.2860 -0.4976 -0.2009
  600MOL0     C80907  -2.459   2.817   4.932 -0.0854  0.2296 -0.6516
  600MOL0     C80908  -2.603   2.781   4.993  0.4525  0.2197  0.0198
  600MOL0     C80909  -2.632   2.787   5.152 -0.1860 -0.5855  0.8482
  600MOL0    Cl80910  -2.612   2.955   5.232 -0.1914  0.2223  0.2794
  600MOL0     C80911  -1.594   2.490   4.989  0.6067 -0.1818  0.6807
  600MOL0     C80912  -1.478   2.431   5.030  0.0691 -0.0252  0.2434
  600MOL0     O80913  -1.211   2.528   5.268 -0.0260 -0.5087 -0.2022
  600MOL0     C80914  -0.974   2.390   5.304 -0.4362 -0.9224 -0.1419
  600MOL0     C80915  -0.864   2.314   5.348 -0.4098 -0.4262 -0.5819
  600MOL0     N80916  -0.129   1.814   5.204 -0.1467  0.2370  0.0523
  600MOL0     N80917  -0.096   1.770   5.075  0.4855 -0.1250 -0.1189
  600MOL0     C80918   0.350   1.989   3.924  0.8238 -0.4844 -0.6055
  600MOL0     C80919   0.449   2.006   3.823 -1.4640 -0.3730 -0.0812
  600MOL0     C80920   0.607   2.153   3.405  0.4647  0.1291  0.1910
  600MOL0     C80921   0.720   2.231   3.439 -0.0659  0.0823 -0.1728
  600MOL0     C80922   0.821   2.262   3.344 -0.1159  0.6313  0.4764
  600MOL0     C80923   0.811   2.215   3.215  0.1136  0.3430  0.8865
  600MOL0     O80924   0.893   2.264   3.118  0.5239 -0.4529  0.6566
  600MOL0     C80925   1.019   2.213   3.113  0.4359  0.0753 -0.5758
  600MOL0     C80926   1.111   2.296   3.025  0.0127 -0.1509  0.1904
  600MOL0     C80927   1.237   2.241   2.963 -0.0124  0.4566 -0.0634
  600MOL0     C80928   1.336   2.198   3.071 -0.5848  0.2973  0.4558
  600MOL0     C80929   1.294   2.094   3.169 -0.1946  0.2522 -0.5179
  600MOL0     C80930   1.254   2.021   3.266  0.6069 -0.2967  0.3122
  600MOL0     C80931   0.695   2.156   3.170  0.3795  0.4853  0.0387
  600MOL0     C80932   0.591   2.119   3.267  0.1492  0.3604 -0.0826
  600MOL0     H80933   0.332   2.289   3.679  0.4850  1.5056  2.9288
  600MOL0     H80934   0.165   2.260   3.853  1.9321  0.8546  1.8108
  600MOL0     H80935   0.139   1.893   4.095  1.6371 -0.8517 -1.3189
  600MOL0     H80936   0.228   2.010   4.192 -2.5871 -1.5337  4.1027
  600MOL0     H80937   0.005   2.133   4.250 -4.5847  0.8508 -0.5659
  600MOL0     H80938  -0.074   2.000   4.169  0.4033 -2.2454  2.3988
  600MOL0     H80939   0.017   1.847   4.328 -1.1660  1.0491 -0.7700
  600MOL0     H80940   0.111   1.969   4.412  0.0423 -2.2643  0.0835
  600MOL0     H80941  -0.092   2.100   4.454  1.0153  0.4692  0.5112
  600MOL0     H80942  -0.194   1.977   4.381 -0.2387 -4.4290  1.5559
  600MOL0     H80943  -0.154   1.817   4.569  0.4332 -0.2204  2.7558
  600MOL0     H80944  -0.010   1.899   4.606  1.1061 -0.1802 -2.3034
  600MOL0     H80945  -0.170   2.104   4.673  2.7294 -0.0834 -0.1933
  600MOL0     H80946  -0.299   1.977   4.660  0.1622  0.6972 -0.0227
  600MOL0     H80947  -0.073   1.963   4.869 -0.2951  0.2692  0.9598
  600MOL0     H80948  -0.243   1.995   4.898 -0.2357  0.2556 -0.0924
  600MOL0     H80949  -0.118   1.737   4.801 -1.4950 -0.8201 -2.0207
  600MOL0     H80950  -0.293   1.766   4.806 -1.3278  4.1508  0.5063
  600MOL0     H80951  -0.417   1.831   5.045 -1.3919  1.2543  4.4490
  600MOL0     H80952  -0.414   1.798   5.363 -0.6975  1.2545  1.8079
  600MOL0     H80953  -0.279   1.901   5.395 -0.4203 -2.9321  1.6590
  600MOL0     H80954  -0.515   1.971   5.209 -0.6230  2.1192 -0.6184
  600MOL0     H80955  -0.392   2.085   5.271  1.9872 -2.0652  0.6807
  600MOL0     H80956  -0.464   2.045   5.501 -0.5485  1.4641  0.1531
  600MOL0     H80957  -0.599   1.940   5.456  1.0920  0.0216  4.6301
  600MOL0     H80958  -0.585   2.240   5.397 -1.0364  0.9728  1.8381
  600MOL0     H80959  -0.689   2.153   5.504  0.8389 -2.7365  0.5159
  600MOL0     H80960  -0.903   2.090   5.099 -0.0754  1.0839 -0.7182
  600MOL0     H80961  -1.108   2.261   4.935 -0.4322  1.2775  1.2834
  600MOL0     H80962  -1.085   2.102   4.970  4.9331  3.2654 -1.9295
  600MOL0     H80963  -1.234   2.181   5.032  0.0291 -2.0225 -2.3367
  600MOL0     H80964  -1.271   2.690   5.067 -0.6449  0.6862  2.8261
  600MOL0     H80965  -1.487   2.818   5.010 -0.8690 -0.4217 -0.7642
  600MOL0     H80966  -1.839   2.604   4.846 -0.4311  0.0365 -0.8102
  600MOL0     H80967  -1.867   2.562   5.006  1.0479 -0.2592 -0.7881
  600MOL0     H80968  -1.953   2.824   5.025  2.8259 -3.4299  2.9009
  600MOL0     H80969  -1.939   2.811   4.852 -1.6985 -1.8132 -2.3200
  600MOL0     H80970  -2.118   2.634   5.046  1.3913  2.9130  1.6789
  600MOL0     H80971  -2.108   2.631   4.862  4.0706 -1.5843  0.8306
  600MOL0     H80972  -2.204   2.886   4.973  0.9815 -0.1270  1.4357
  600MOL0     H80973  -2.225   2.804   4.819 -4.2615 -1.1664 -0.5301
  600MOL0     H80974  -2.338   2.721   5.084  1.0851  2.1826 -0.1473
  600MOL0     H80975  -2.353   2.621   4.935 -0.8742  0.2542 -2.0635
  600MOL0     H80976  -2.434   2.922   4.953 -0.2146 -0.1471  1.6042
  600MOL0     H80977  -2.467   2.825   4.823 -0.4367  0.8480 -0.5864
  600MOL0     H80978  -2.634   2.684   4.953 -1.7168  1.6389 -2.0416
  600MOL0     H80979  -2.678   2.851   4.954  2.4112  3.4412  1.6154
  600MOL0     H80980  -2.556   2.720   5.193 -1.6832 -2.4325  0.7016
  600MOL0     H80981  -2.734   2.749   5.164 -0.6730 -0.3067 -1.9221
  600MOL0     H80982  -1.681   2.427   4.968 -2.2229  3.2268  1.1270
  600MOL0     H80983  -1.474   2.323   5.025 -0.4359 -0.1373  1.7748
  600MOL0     H80984  -0.995   2.475   5.367 -1.3301 -1.9258  0.9537
  600MOL0     H80985  -0.815   2.343   5.440 -3.8706  0.1505  1.2542
  600MOL0     H80986   0.356   1.909   3.998  0.9432 -0.2493 -0.3558
  600MOL0     H80987   0.530   1.934   3.833 -0.9009 -0.1704 -2.5715
  600MOL0     H80988   0.722   2.265   3.542 -3.0923  2.4397 -0.7463
  600MOL0     H80989   0.918   2.306   3.368  1.1734 -0.4721 -2.2848
  600MOL0     H80990   1.055   2.203   3.216 -0.0493 -1.1571 -0.5005
  600MOL0     H80991   1.012   2.115   3.064 -0.1048  0.6181 -1.6077
  600MOL0     H80992   1.132   2.381   3.092 -2.3979 -1.0286  2.2441
  600MOL0     H80993   1.049   2.332   2.943  0.7450  2.1550  0.5708
  600MOL0     H80994   1.275   2.310   2.887 -0.0826  1.0585  0.4438
  600MOL0     H80995   1.221   2.155   2.896 -0.1043  1.4656 -1.3748
  600MOL0     H80996   1.363   2.290   3.125 -1.2810  0.4379  0.5769
  600MOL0     H80997   1.431   2.160   3.034  0.1187  2.0074  0.4281
  600MOL0     H80998   1.220   1.952   3.341 -3.1203 -0.5617 -1.4204
  600MOL0     H80999   0.685   2.144   3.063 -1.0280 -0.6181  0.2679
  600MOL0     H81000   0.506   2.062   3.233 -1.5191  2.2166  0.7317
  601MOL0     O81001   4.712   4.474  11.254 -0.0837  0.2465  1.0815
  601MOL0     C81002   4.645   4.422  11.348 -0.2348  0.4084 -0.4894
  601MOL0     O81003   4.515   4.408  11.353  0.6364  0.4034  0.0088
  601MOL0     C81004   4.438   4.434  11.242 -0.1407  1.0567  0.7005
  601MOL0     C81005   4.307   4.493  11.265 -0.6971  0.3053 -0.1077
  601MOL0     C81006   4.218   4.510  11.156 -0.7386 -0.4095  0.2909
  601MOL0     C81007   4.251   4.475  11.022  0.4696 -0.4435 -0.0722
  601MOL0     O81008   4.154   4.518  10.931 -0.0438 -0.5896 -0.7840
  601MOL0     C81009   4.218   4.557  10.808 -0.4230 -0.5890 -0.3765
  601MOL0     C81010   4.118   4.633  10.715 -0.1995 -0.1318 -0.3114
  601MOL0     C81011   4.030   4.523  10.652 -0.1787 -0.2639 -0.4995
  601MOL0     C81012   3.902   4.578  10.595  0.3408 -0.3965 -0.1104
  601MOL0     C81013   3.805   4.465  10.553  0.8020 -0.7296 -0.6219
  601MOL0     C81014   3.665   4.516  10.569  0.3771 -0.3455  0.1283
  601MOL0     C81015   3.551   4.425  10.503 -0.5882  0.0825  0.0842
  601MOL0     C81016   3.426   4.505  10.507 -0.0920 -0.3937  0.3736
  601MOL0     N81017   3.317   4.424  10.449 -0.2094 -0.5233  0.8484
  601MOL0     C81018   3.283   4.294  10.484  0.3550 -0.9714  0.2925
  601MOL0     C81019   3.188   4.249  10.395 -0.3973  0.9235  0.2594
  601MOL0     C81020   3.117   4.121  10.419 -0.6582 -0.4042 -0.8948
  601MOL0     C81021   2.973   4.163  10.450 -0.0951  0.6878  0.5339
  601MOL0     C81022   2.900   4.190  10.323  0.2223  0.1185 -0.4722
  601MOL0     C81023   2.746   4.200  10.337 -0.3567  0.5789 -0.3120
  601MOL0     O81024   2.693   4.296  10.441  0.1385  0.9403  1.1444
  601MOL0     C81025   2.565   4.353  10.413 -0.7607 -0.0879 -1.0756
  601MOL0     C81026   2.458   4.287  10.349 -0.9343 -0.3640  1.1546
  601MOL0     C81027   2.336   4.354  10.311 -0.0411 -0.3694 -0.0417
  601MOL0     C81028   2.244   4.276  10.225  0.1986 -0.4775 -0.9716
  601MOL0     C81029   2.311   4.485  10.354  0.4623 -0.0262  0.3674
  601MOL0     C81030   2.181   4.551  10.313  0.2954 -0.5438 -0.6728
  601MOL0     O81031   2.165   4.673  10.375 -0.0989  0.1614 -0.7306
  601MOL0     C81032   2.066   4.765  10.343  0.3679  0.7759 -0.3936
  601MOL0     C81033   1.931   4.745  10.375  0.6946 -0.0246 -0.1626
  601MOL0     C81034   1.838   4.846  10.341  0.0623  0.5802  0.7072
  601MOL0     C81035   1.878   4.963  10.275 -0.2191 -0.2291  0.9392
  601MOL0     O81036   1.777   5.052  10.259  0.4270  0.5610 -0.0829
  601MOL0     C81037   1.792   5.156  10.160  0.5128  0.8250 -0.2083
  601MOL0     C81038   1.766   5.103  10.012  0.6806  0.2709 -0.7008
  601MOL0     C81039   1.646   5.015   9.995  0.8669  0.1546 -0.9737
  601MOL0     C81040   1.516   5.102   9.978 -0.3643  0.2770 -0.2522
  601MOL0     C81041   1.393   5.021   9.943  0.5070 -0.1534  0.1581
  601MOL0     C81042   1.393   4.948   9.811  0.1956 -0.0793  0.2222
  601MOL0     C81043   1.260   4.875   9.779 -1.3411 -0.5138 -0.1240
  601MOL0     C81044   1.263   4.799   9.652  0.5438  0.1023  0.2335
  601MOL0    Cl81045   1.102   4.805   9.583 -0.2916 -0.5282 -0.1082
  601MOL0     C81046   2.019   4.986  10.259  0.1681 -0.5790  0.1716
  601MOL0     C81047   2.114   4.885  10.283  0.5094 -0.0503 -0.3153
  601MOL0     O81048   2.102   4.514  10.224  0.0560  0.1075  0.0734
  601MOL0     C81049   2.418   4.555  10.421 -0.1921  0.2107 -0.1495
  601MOL0     C81050   2.538   4.486  10.446 -0.4086  0.4093 -0.0825
  601MOL0     N81051   3.165   4.361  10.308 -0.0305  0.2315 -0.0102
  601MOL0     N81052   3.245   4.458  10.334  0.1477 -0.1042 -0.7863
  601MOL0     C81053   4.375   4.411  11.004 -0.6342 -1.3862  0.0958
  601MOL0     C81054   4.463   4.393  11.112 -0.1657  0.3942  0.1603
  601MOL0     C81055   4.720   4.356  11.461 -0.5949  0.1497 -0.5991
  601MOL0     C81056   4.861   4.350  11.459 -0.1279 -0.1545 -0.3447
  601MOL0     C81057   4.935   4.281  11.549  0.3931  0.3084  1.2262
  601MOL0     C81058   4.873   4.220  11.660  0.3893  0.0531  0.6723
  601MOL0     O81059   4.943   4.165  11.762 -0.4049 -0.3331  0.2919
  601MOL0     C81060   5.068   4.106  11.742 -0.3007  0.4672 -0.3381
  601MOL0     C81061   5.057   3.979  11.651 -0.0143 -0.3373 -0.4135
  601MOL0     C81062   5.191   3.931  11.599 -0.3319 -0.0418  0.1094
  601MOL0     C81063   5.266   3.864  11.715 -0.1317 -0.3750 -1.3828
  601MOL0     C81064   5.361   3.769  11.657  0.7809 -0.0379  0.0134
  601MOL0     C81065   5.451   3.699  11.615  0.1803 -0.2986 -1.2036
  601MOL0     C81066   4.735   4.227  11.674 -0.1980 -0.8377  0.4514
  601MOL0     C81067   4.664   4.288  11.568  0.3306  0.1586 -0.4459
  601MOL0     H81068   4.289   4.530  11.366  0.8161 -1.7319  0.9982
  601MOL0     H81069   4.129   4.570  11.169 -0.0102  0.8802 -0.4704
  601MOL0     H81070   4.304   4.622  10.821 -0.9311  0.1719 -0.7748
  601MOL0     H81071   4.262   4.468  10.761  0.6925 -1.4296  2.0812
  601MOL0     H81072   4.057   4.713  10.757 -0.0701 -0.2539  0.1107
  601MOL0     H81073   4.182   4.685  10.643 -0.4226  0.1959 -0.2719
  601MOL0     H81074   4.090   4.468  10.579  0.0848 -1.1238  0.3466
  601MOL0     H81075   3.986   4.445  10.715 -1.5337  0.1002 -0.9745
  601MOL0     H81076   3.856   4.645  10.668 -0.4638 -1.1797  0.1170
  601MOL0     H81077   3.921   4.642  10.508  1.2743 -2.2069 -1.3117
  601MOL0     H81078   3.819   4.433  10.449 -1.2258  2.5822 -2.0738
  601MOL0     H81079   3.817   4.382  10.623 -0.0128 -0.4889 -0.1810
  601MOL0     H81080   3.644   4.512  10.676 -1.6467  1.5367 -0.1391
  601MOL0     H81081   3.667   4.614  10.522 -0.0416  0.6913  2.1877
  601MOL0     H81082   3.579   4.397  10.401  0.1323  0.6024  0.1371
  601MOL0     H81083   3.542   4.333  10.563 -2.1174 -0.9748 -1.6617
  601MOL0     H81084   3.437   4.603  10.460 -0.8683 -1.7209 -2.8271
  601MOL0     H81085   3.397   4.529  10.610 -0.5573  1.0605 -0.0694
  601MOL0     H81086   3.326   4.236  10.566 -0.0996 -2.7514 -0.6841
  601MOL0     H81087   3.125   4.040  10.346  3.6897 -0.8243 -0.1872
  601MOL0     H81088   3.154   4.078  10.512  2.1140 -0.3586 -1.8958
  601MOL0     H81089   2.970   4.239  10.528  0.8037 -0.0599  1.3227
  601MOL0     H81090   2.922   4.078  10.496  0.9377  0.1277  0.6781
  601MOL0     H81091   2.921   4.109  10.253  0.0139  1.2334 -1.8947
  601MOL0     H81092   2.929   4.290  10.289  0.0105  0.4249  0.2396
  601MOL0     H81093   2.712   4.099  10.363  1.1203  0.5754  1.8875
  601MOL0     H81094   2.693   4.222  10.244 -2.0380 -0.7452  0.2699
  601MOL0     H81095   2.473   4.180  10.335  0.2085 -0.0267 -0.6334
  601MOL0     H81096   2.152   4.270  10.285 -0.5154  3.3363 -1.4032
  601MOL0     H81097   2.209   4.332  10.138  0.9025  1.8505  0.1688
  601MOL0     H81098   2.289   4.183  10.189 -0.1856 -1.6617  1.3915
  601MOL0     H81099   1.899   4.650  10.417  0.4542 -0.9011 -2.2186
  601MOL0     H81100   1.737   4.815  10.365  0.0830 -1.0042 -0.9845
  601MOL0     H81101   1.710   5.228  10.171  1.4739  1.7481  1.1553
  601MOL0     H81102   1.882   5.217  10.166 -0.2913  1.9551  0.7940
  601MOL0     H81103   1.763   5.187   9.943  1.1475 -0.0241 -1.0824
  601MOL0     H81104   1.848   5.033   9.989 -1.8475 -2.9350 -0.6795
  601MOL0     H81105   1.629   4.952  10.083  3.5931 -0.8439 -1.0697
  601MOL0     H81106   1.654   4.941   9.915 -0.5401 -0.4028 -0.6240
  601MOL0     H81107   1.512   5.171  10.062 -2.1886  0.8700 -0.7837
  601MOL0     H81108   1.524   5.161   9.886 -3.5377 -1.1723 -1.6234
  601MOL0     H81109   1.315   5.098   9.939 -0.0036 -0.6834 -0.6709
  601MOL0     H81110   1.373   4.950  10.024  3.2644 -0.2358  0.8408
  601MOL0     H81111   1.429   5.013   9.731  0.3018  0.2192  0.5079
  601MOL0     H81112   1.466   4.870   9.834 -0.0540 -0.0091  1.3262
  601MOL0     H81113   1.181   4.950   9.790  0.9105  1.6376  4.1204
  601MOL0     H81114   1.225   4.810   9.860 -0.6841  0.9661  1.4240
  601MOL0     H81115   1.285   4.695   9.675 -0.1391 -0.4332 -1.4609
  601MOL0     H81116   1.338   4.827   9.578 -0.2826 -0.5995 -0.8937
  601MOL0     H81117   2.055   5.087  10.239  2.8536 -1.2422  1.3035
  601MOL0     H81118   2.221   4.875  10.273  0.6243 -0.4125  1.0709
  601MOL0     H81119   2.410   4.659  10.451 -1.4560 -0.1723  0.9453
  601MOL0     H81120   2.607   4.542  10.508  1.5948 -2.9759  0.9954
  601MOL0     H81121   4.396   4.362  10.909  3.1893  2.8738 -1.6330
  601MOL0     H81122   4.559   4.350  11.085  0.2046  0.5614  1.1730
  601MOL0     H81123   4.905   4.400  11.374 -0.7007 -1.2924 -1.3466
  601MOL0     H81124   5.042   4.270  11.533 -0.0133 -3.0623  0.0967
  601MOL0     H81125   5.126   4.184  11.692 -2.3943  1.8297 -0.7403
  601MOL0     H81126   5.110   4.077  11.839  0.7669 -1.4023 -1.2931
  601MOL0     H81127   5.001   3.996  11.559  0.2296  0.0099 -0.5015
  601MOL0     H81128   5.005   3.900  11.706 -0.1717 -0.7246 -1.1153
  601MOL0     H81129   5.252   4.016  11.568 -0.7530  0.6450  1.1376
  601MOL0     H81130   5.172   3.876  11.506 -0.0219  1.9182 -1.1721
  601MOL0     H81131   5.197   3.819  11.787 -0.0725  2.7949  0.8675
  601MOL0     H81132   5.312   3.947  11.769  0.1967 -0.6251 -1.2760
  601MOL0     H81133   5.517   3.630  11.567 -1.8865 -1.7013 -2.1871
  601MOL0     H81134   4.692   4.186  11.765 -3.7484  0.0362 -0.6561
  601MOL0     H81135   4.556   4.277  11.577  0.2181  2.1839  1.7410
  602MOL0     O81136   0.693   5.974  11.052  0.1702 -0.2439  0.0888
  602MOL0     C81137   0.713   6.024  10.938 -1.2473  0.1957  0.1243
  602MOL0     O81138   0.616   6.079  10.855  0.7448 -0.3591 -0.5204
  602MOL0     C81139   0.498   6.119  10.916  0.2799  0.0362  0.1612
  602MOL0     C81140   0.372   6.094  10.852  0.0683  0.3833  0.1699
  602MOL0     C81141   0.255   6.130  10.918  0.7162  0.3150 -0.0741
  602MOL0     C81142   0.257   6.204  11.038 -0.6061 -0.5541 -0.4045
  602MOL0     O81143   0.139   6.248  11.091 -0.0435  0.1441  0.3178
  602MOL0     C81144   0.143   6.382  11.132  0.0689 -0.0757  0.4055
  602MOL0     C81145   0.004   6.432  11.176  0.4338 -0.1675 -0.3301
  602MOL0     C81146  -0.090   6.417  11.054  0.1059  0.7965 -0.5799
  602MOL0     C81147  -0.220   6.492  11.072  0.1487  0.2631  0.3061
  602MOL0     C81148  -0.287   6.476  10.938  0.6266  0.4171  0.1591
  602MOL0     C81149  -0.415   6.564  10.931 -0.6864  0.3716 -0.4028
  602MOL0     C81150  -0.499   6.522  10.811  0.3885 -0.1784 -0.4476
  602MOL0     C81151  -0.615   6.616  10.804  0.0436  1.1108 -0.6072
  602MOL0     N81152  -0.715   6.563  10.720  0.5560 -0.1212  0.0325
  602MOL0     C81153  -0.827   6.490  10.763 -0.4640  0.4295 -0.2343
  602MOL0     C81154  -0.873   6.436  10.649  0.0255 -0.5739  0.6701
  602MOL0     C81155  -0.977   6.334  10.622  0.0089 -0.3115  0.1331
  602MOL0     C81156  -0.950   6.256  10.489 -0.1650 -0.9975 -0.1415
  602MOL0     C81157  -1.026   6.124  10.487  0.1254 -0.0297  0.2361
  602MOL0     C81158  -1.040   6.066  10.351 -0.1705 -0.1102 -0.7521
  602MOL0     O81159  -1.140   5.966  10.350 -0.1760 -0.0026 -0.0100
  602MOL0     C81160  -1.207   5.937  10.232  0.4975  1.3022 -0.3652
  602MOL0     C81161  -1.164   5.952  10.108 -0.7577  0.0885 -0.0081
  602MOL0     C81162  -1.240   5.927   9.996 -0.1444 -0.1136 -0.9904
  602MOL0     C81163  -1.171   5.950   9.860 -0.4836  0.1438 -0.2910
  602MOL0     C81164  -1.372   5.876  10.010  0.2184 -0.5815 -0.4681
  602MOL0     C81165  -1.455   5.837   9.897  0.3548  0.5939  0.8011
  602MOL0     O81166  -1.541   5.734   9.912 -0.9702 -0.0071 -0.7130
  602MOL0     C81167  -1.642   5.717   9.825 -0.5268  0.1932  0.3613
  602MOL0     C81168  -1.702   5.821   9.754 -0.6440 -0.7234 -0.1768
  602MOL0     C81169  -1.810   5.797   9.669  0.5307 -0.2725 -0.2296
  602MOL0     C81170  -1.851   5.668   9.641 -0.2863 -0.2156 -0.0108
  602MOL0     O81171  -1.953   5.649   9.552  0.2283  0.0210  0.0814
  602MOL0     C81172  -1.898   5.574   9.441 -0.0182 -0.0069 -0.3777
  602MOL0     C81173  -1.989   5.584   9.330  1.0011 -0.4443  0.9497
  602MOL0     C81174  -2.108   5.498   9.334  0.9966  0.0631 -0.6042
  602MOL0     C81175  -2.149   5.461   9.201  0.2322  0.9112 -0.3399
  602MOL0     C81176  -2.277   5.376   9.194 -0.4451  0.0088 -0.3341
  602MOL0     C81177  -2.290   5.322   9.051 -0.0297  0.1995  0.0113
  602MOL0     C81178  -2.426   5.267   9.021  0.1625 -0.0246 -0.1133
  602MOL0     C81179  -2.422   5.211   8.873  0.4217 -0.1327 -0.0360
  602MOL0    Cl81180  -2.587   5.220   8.819  0.0119 -0.3594 -0.5675
  602MOL0     C81181  -1.794   5.565   9.716 -0.3440 -0.9115 -0.3799
  602MOL0     C81182  -1.691   5.586   9.804 -0.2628  0.3777  0.2537
  602MOL0     O81183  -1.444   5.897   9.790 -0.2016 -1.0797 -0.5206
  602MOL0     C81184  -1.420   5.852  10.140  0.0268 -0.6820  1.0030
  602MOL0     C81185  -1.333   5.883  10.245  0.7699 -0.1808 -0.4223
  602MOL0     N81186  -0.802   6.495  10.539  0.7089  0.2562 -0.4959
  602MOL0     N81187  -0.700   6.562  10.584  0.1955 -0.0671  0.2804
  602MOL0     C81188   0.381   6.237  11.094 -0.4512 -0.4862 -0.5873
  602MOL0     C81189   0.497   6.190  11.036  0.5593 -0.1097  0.3112
  602MOL0     C81190   0.851   6.024  10.881  0.5744 -0.3928  0.9764
  602MOL0     C81191   0.956   5.970  10.952 -0.1839  0.3960 -0.5001
  602MOL0     C81192   1.086   5.960  10.901 -0.3013  0.6487  0.6632
  602MOL0     C81193   1.111   5.994  10.769  0.4118 -0.1923 -0.0404
  602MOL0     O81194   1.232   5.962  10.701  0.6521 -0.5640  0.1116
  602MOL0     C81195   1.240   5.963  10.554 -0.4904 -0.2551 -0.1440
  602MOL0     C81196   1.310   6.085  10.491  0.8347  0.3805  0.0612
  602MOL0     C81197   1.462   6.072  10.471 -0.3851  0.7875  0.7674
  602MOL0     C81198   1.540   5.999  10.580  0.1807  0.3276 -0.2849
  602MOL0     C81199   1.676   6.052  10.595  0.2105 -0.3989  0.2354
  602MOL0     C81200   1.779   6.118  10.612 -0.1958 -1.0039 -0.9617
  602MOL0     C81201   1.004   6.053  10.696  0.2710 -0.1002  0.4440
  602MOL0     C81202   0.878   6.071  10.752  0.0685 -0.1983  0.3364
  602MOL0     H81203   0.362   6.030  10.765 -2.5304 -0.4997  1.0246
  602MOL0     H81204   0.156   6.094  10.895  0.9161 -0.9933  0.9890
  602MOL0     H81205   0.202   6.393  11.223  0.1841  1.1901  0.1994
  602MOL0     H81206   0.185   6.451  11.059  0.3332 -0.4663  0.1864
  602MOL0     H81207  -0.035   6.374  11.260  0.0614  0.5164 -0.0308
  602MOL0     H81208   0.024   6.527  11.225  1.8826 -0.4879 -0.2512
  602MOL0     H81209  -0.041   6.451  10.962 -0.7401 -1.3035 -1.8796
  602MOL0     H81210  -0.116   6.311  11.045 -0.2461  0.6025  2.0749
  602MOL0     H81211  -0.271   6.457  11.162  1.2810 -0.0056  0.8634
  602MOL0     H81212  -0.199   6.598  11.088 -0.3153  0.2564  1.0176
  602MOL0     H81213  -0.214   6.493  10.858 -2.2798 -2.2290 -3.4347
  602MOL0     H81214  -0.320   6.372  10.926 -0.4306  0.8107 -0.5319
  602MOL0     H81215  -0.473   6.563  11.024 -0.1705 -1.2486 -0.0537
  602MOL0     H81216  -0.392   6.669  10.914  2.1599 -0.5956 -3.5459
  602MOL0     H81217  -0.433   6.525  10.724  1.5123  2.0725  0.4210
  602MOL0     H81218  -0.524   6.417  10.830  0.2618 -0.0279  0.2340
  602MOL0     H81219  -0.602   6.715  10.759 -0.6377  0.1651 -3.0337
  602MOL0     H81220  -0.658   6.634  10.904 -0.6536 -1.0193 -0.4775
  602MOL0     H81221  -0.873   6.480  10.861 -0.3735 -1.6343 -0.3707
  602MOL0     H81222  -0.973   6.271  10.711 -2.3556  0.7845  1.0970
  602MOL0     H81223  -1.076   6.381  10.623  1.2325  2.4684  0.6902
  602MOL0     H81224  -0.843   6.244  10.466  0.5084 -0.8282  2.5277
  602MOL0     H81225  -0.991   6.315  10.407  0.9466 -0.2412 -0.1753
  602MOL0     H81226  -1.123   6.132  10.538 -0.9354  0.6252 -1.8013
  602MOL0     H81227  -0.971   6.050  10.547  1.6238 -0.8476 -2.0368
  602MOL0     H81228  -0.947   6.020  10.316 -0.0572  0.9895 -2.0043
  602MOL0     H81229  -1.051   6.141  10.272  1.5466  1.3040  0.3090
  602MOL0     H81230  -1.063   5.991  10.098 -1.4167  2.4082  1.6275
  602MOL0     H81231  -1.171   5.855   9.805  0.4957 -1.2222  1.8905
  602MOL0     H81232  -1.223   6.030   9.809  2.6609  0.5419 -3.2408
  602MOL0     H81233  -1.065   5.974   9.875 -0.9526  2.2003 -0.0857
  602MOL0     H81234  -1.674   5.923   9.777 -0.2282 -0.6698 -0.8988
  602MOL0     H81235  -1.866   5.872   9.614 -1.2587 -3.3171 -2.9025
  602MOL0     H81236  -1.792   5.590   9.418  0.4934  1.1282  2.3095
  602MOL0     H81237  -1.913   5.473   9.479  1.4722  0.0924  0.5751
  602MOL0     H81238  -2.014   5.689   9.313  0.2860 -1.0869 -2.7438
  602MOL0     H81239  -1.928   5.553   9.245  0.6583 -1.1543  0.9506
  602MOL0     H81240  -2.194   5.555   9.371  1.7930 -0.1565  1.6925
  602MOL0     H81241  -2.096   5.412   9.400 -0.5783 -0.2025 -0.6270
  602MOL0     H81242  -2.177   5.554   9.150  0.3424 -0.1515 -2.4687
  602MOL0     H81243  -2.073   5.406   9.143 -0.6785 -0.3416 -0.3731
  602MOL0     H81244  -2.358   5.443   9.226 -0.2352 -1.0041  2.6496
  602MOL0     H81245  -2.275   5.295   9.269  1.8307  1.8101  1.7257
  602MOL0     H81246  -2.258   5.405   8.987 -1.6043  3.1628  2.7676
  602MOL0     H81247  -2.214   5.244   9.053 -1.1161 -0.9016 -0.2953
  602MOL0     H81248  -2.504   5.343   9.034 -1.2297 -0.9451 -2.4348
  602MOL0     H81249  -2.455   5.185   9.088 -2.7663 -0.3255 -1.5934
  602MOL0     H81250  -2.378   5.111   8.870 -2.6909 -1.7435  2.0496
  602MOL0     H81251  -2.362   5.279   8.812 -2.2704  1.7991 -0.7532
  602MOL0     H81252  -1.835   5.467   9.692 -0.7162 -0.6184 -0.9644
  602MOL0     H81253  -1.645   5.508   9.864  2.8978  1.8024 -0.1202
  602MOL0     H81254  -1.517   5.804  10.155  1.1293 -3.3724  0.0037
  602MOL0     H81255  -1.372   5.871  10.346 -1.9663 -0.0045 -1.3701
  602MOL0     H81256   0.375   6.285  11.191  0.9365 -2.2715  0.4594
  602MOL0     H81257   0.593   6.195  11.086  0.0435 -3.7323  1.9623
  602MOL0     H81258   0.928   5.945  11.054 -0.3496  2.0221 -0.1208
  602MOL0     H81259   1.163   5.907  10.956 -1.6751 -1.0109  1.0791
  602MOL0     H81260   1.283   5.870  10.515 -1.1882  0.0446 -1.6942
  602MOL0     H81261   1.140   5.968  10.511 -0.2570 -0.9533 -0.8068
  602MOL0     H81262   1.287   6.172  10.553  2.8025 -0.0881  1.5474
  602MOL0     H81263   1.270   6.096  10.389  1.4907 -0.1680 -0.2676
  602MOL0     H81264   1.495   6.174  10.450 -3.1759  2.2706  2.9351
  602MOL0     H81265   1.473   6.018  10.376  0.5226 -2.1677  2.4353
  602MOL0     H81266   1.548   5.895  10.547  2.6826 -0.1705  1.5477
  602MOL0     H81267   1.495   5.996  10.680  1.3097  1.0800  0.2847
  602MOL0     H81268   1.874   6.165  10.626 -0.4477 -0.7980  0.1438
  602MOL0     H81269   1.033   6.106  10.606  3.2243 -2.0710  0.1241
  602MOL0     H81270   0.810   6.126  10.687  1.7285 -0.0925 -1.3940
  603MOL0     O81271   8.099   0.794   1.928  0.1986 -0.3296 -0.1629
  603MOL0     C81272   8.194   0.858   1.981  0.7165  0.9263 -0.0419
  603MOL0     O81273   8.180   0.968   2.061  0.2477  1.0192  0.1888
  603MOL0     C81274   8.057   1.021   2.069  0.0228 -0.0454  1.4784
  603MOL0     C81275   8.004   1.039   2.202 -0.4871  1.0488  0.8880
  603MOL0     C81276   7.886   1.103   2.217 -0.0051 -0.2263 -0.0485
  603MOL0     C81277   7.807   1.140   2.103  0.0491  1.1570  0.0606
  603MOL0     O81278   7.694   1.220   2.109  0.7151  0.7021 -0.0234
  603MOL0     C81279   7.650   1.252   2.242  0.2914  0.3518 -0.4589
  603MOL0     C81280   7.520   1.323   2.254  0.4660  0.1993 -0.9431
  603MOL0     C81281   7.392   1.236   2.256 -0.6888 -0.1528  1.2654
  603MOL0     C81282   7.353   1.172   2.125 -0.1986 -0.0213 -0.3992
  603MOL0     C81283   7.271   1.257   2.036  0.4059 -0.4647  0.1352
  603MOL0     C81284   7.124   1.268   2.082  0.5503  1.0380 -0.3587
  603MOL0     C81285   7.050   1.382   2.001  0.7373  0.1158 -0.4599
  603MOL0     C81286   6.902   1.364   2.021  0.3601 -0.7552  0.2022
  603MOL0     N81287   6.837   1.493   1.991 -0.5604 -0.3132 -0.0425
  603MOL0     C81288   6.841   1.606   2.066 -0.4881  0.3223 -0.4607
  603MOL0     C81289   6.765   1.692   2.008 -0.3858  0.2695  0.1453
  603MOL0     C81290   6.703   1.810   2.073 -0.8403 -0.4184 -0.2284
  603MOL0     C81291   6.580   1.761   2.158  0.7330  0.4568 -0.2648
  603MOL0     C81292   6.621   1.750   2.306  0.0788  0.1506 -0.0301
  603MOL0     C81293   6.548   1.653   2.391  0.2708 -0.1029 -0.6314
  603MOL0     O81294   6.589   1.522   2.356 -0.2518 -0.3345  0.5776
  603MOL0     C81295   6.502   1.420   2.386 -0.3841  0.5390 -0.7193
  603MOL0     C81296   6.515   1.361   2.515  0.1114  0.6381  0.3087
  603MOL0     C81297   6.418   1.263   2.552 -0.3499 -0.5513  0.5978
  603MOL0     C81298   6.430   1.208   2.693 -0.1060  0.4107  0.7588
  603MOL0     C81299   6.323   1.214   2.462 -0.0544 -0.1547 -0.4806
  603MOL0     C81300   6.229   1.100   2.484  0.4079 -0.4124 -0.1589
  603MOL0     O81301   6.148   1.074   2.378 -0.0249  0.0237 -0.1128
  603MOL0     C81302   6.034   0.995   2.386  0.4730 -0.0360  0.8425
  603MOL0     C81303   5.946   0.990   2.501  0.0873  0.8173  0.1176
  603MOL0     C81304   5.844   0.895   2.502  0.9074  0.2674 -0.4299
  603MOL0     C81305   5.822   0.805   2.394 -1.0837  0.4744  0.8207
  603MOL0     O81306   5.725   0.711   2.404 -0.0309  0.2241  0.2828
  603MOL0     C81307   5.698   0.607   2.309 -0.2501 -0.3438 -0.8800
  603MOL0     C81308   5.553   0.605   2.257 -0.4214 -0.9698 -1.2818
  603MOL0     C81309   5.441   0.575   2.361  0.3656  0.4597  0.9057
  603MOL0     C81310   5.371   0.438   2.371  0.2117  0.6186 -0.7229
  603MOL0     C81311   5.259   0.445   2.476 -0.0281  0.3949  0.5208
  603MOL0     C81312   5.166   0.326   2.475  0.6549  0.8772 -0.4249
  603MOL0     C81313   5.064   0.337   2.591 -0.2930  0.2524  0.5805
  603MOL0     C81314   5.012   0.219   2.661 -0.3222 -0.6811  0.3623
  603MOL0    Cl81315   4.919   0.111   2.557 -0.0791  0.0821  0.1675
  603MOL0     C81316   5.914   0.813   2.288  0.0085 -0.1385 -0.2889
  603MOL0     C81317   6.006   0.911   2.280 -0.3280  0.5964 -0.0377
  603MOL0     O81318   6.226   1.031   2.590 -0.4216 -0.1482 -0.1246
  603MOL0     C81319   6.319   1.280   2.330 -0.3616  0.4375 -0.0914
  603MOL0     C81320   6.401   1.382   2.298  0.8773 -0.2731  0.3018
  603MOL0     N81321   6.718   1.640   1.888  0.0961  0.3460  0.4794
  603MOL0     N81322   6.762   1.514   1.878 -0.6569 -0.2950 -0.6602
  603MOL0     C81323   7.856   1.113   1.977 -1.1595  0.2720 -0.2034
  603MOL0     C81324   7.980   1.054   1.957 -0.4125  0.8782  0.1425
  603MOL0     C81325   8.334   0.814   1.956 -1.0284 -0.7834 -0.2277
  603MOL0     C81326   8.430   0.920   1.955 -0.2840  0.1165  0.1940
  603MOL0     C81327   8.563   0.891   1.919 -0.3411  0.1583  1.3149
  603MOL0     C81328   8.605   0.759   1.873 -0.1677 -0.1410 -0.5808
  603MOL0     O81329   8.727   0.731   1.829  0.2522  0.4665  0.9240
  603MOL0     C81330   8.803   0.666   1.928 -0.1879 -0.8087 -0.5981
  603MOL0     C81331   8.939   0.629   1.874 -0.4586 -0.8460  0.6931
  603MOL0     C81332   9.021   0.755   1.834 -0.3015  0.3111 -0.2662
  603MOL0     C81333   9.148   0.717   1.760 -0.6678  0.3980  0.5273
  603MOL0     C81334   9.258   0.648   1.838 -0.1941  0.5431  0.7226
  603MOL0     C81335   9.355   0.625   1.902  0.4179  1.1867  0.5647
  603MOL0     C81336   8.504   0.663   1.875 -0.8923  0.2481 -0.0125
  603MOL0     C81337   8.370   0.690   1.914  0.0799  0.2608  0.2814
  603MOL0     H81338   8.064   1.010   2.287 -1.7269  3.0984  2.5491
  603MOL0     H81339   7.862   1.125   2.321 -0.0006 -1.1883  0.1603
  603MOL0     H81340   7.630   1.158   2.294 -0.3690 -0.3706 -1.9744
  603MOL0     H81341   7.726   1.315   2.291 -1.5800  2.0674  0.4344
  603MOL0     H81342   7.527   1.384   2.345 -0.2239  1.2120 -1.5425
  603MOL0     H81343   7.502   1.398   2.176  0.1868  0.5568 -0.5328
  603MOL0     H81344   7.404   1.150   2.323 -1.9732  0.5523  2.4480
  603MOL0     H81345   7.315   1.302   2.297  0.5703  0.3160  3.0012
  603MOL0     H81346   7.451   1.148   2.083 -1.4532  0.2670 -3.7740
  603MOL0     H81347   7.297   1.080   2.143 -1.8384  0.9595 -0.2559
  603MOL0     H81348   7.320   1.355   2.028 -0.7862  0.0173 -1.8285
  603MOL0     H81349   7.280   1.208   1.939  1.2678  1.3508 -0.7557
  603MOL0     H81350   7.072   1.173   2.068  1.0768  0.8979 -1.4751
  603MOL0     H81351   7.112   1.295   2.187  1.5635  2.8061 -0.6495
  603MOL0     H81352   7.092   1.478   2.034  0.7104 -0.2343  0.6407
  603MOL0     H81353   7.077   1.376   1.896 -0.6418  0.1879 -0.8364
  603MOL0     H81354   6.880   1.328   2.122  1.3933 -1.4201  0.2071
  603MOL0     H81355   6.873   1.286   1.950 -0.5487 -0.0714 -0.2007
  603MOL0     H81356   6.873   1.613   2.170 -1.4130  0.0903 -0.1438
  603MOL0     H81357   6.769   1.868   2.137 -1.0612 -0.3937 -0.0185
  603MOL0     H81358   6.665   1.875   1.994  0.7515 -0.8914 -1.4389
  603MOL0     H81359   6.547   1.659   2.138  2.1032  0.2559 -1.7236
  603MOL0     H81360   6.503   1.839   2.160  1.8435  1.6765  3.8019
  603MOL0     H81361   6.600   1.852   2.339  0.2927  0.2929 -0.3259
  603MOL0     H81362   6.728   1.728   2.304 -0.0521 -0.5042  0.0947
  603MOL0     H81363   6.440   1.668   2.380  0.1122 -0.9503 -0.2724
  603MOL0     H81364   6.576   1.677   2.494 -1.0198 -0.5133 -0.1557
  603MOL0     H81365   6.595   1.398   2.578 -0.2224  0.8208  0.6257
  603MOL0     H81366   6.333   1.195   2.742 -0.6422 -2.9916 -0.8913
  603MOL0     H81367   6.456   1.102   2.683  0.0392  0.5813 -1.0662
  603MOL0     H81368   6.498   1.276   2.745 -0.9516  0.6289  1.5986
  603MOL0     H81369   5.964   1.056   2.585 -2.2223  2.4970 -0.6042
  603MOL0     H81370   5.776   0.897   2.587  0.0960  0.3360 -1.0662
  603MOL0     H81371   5.771   0.611   2.228 -1.7630  0.4073 -2.2608
  603MOL0     H81372   5.716   0.507   2.349 -0.6598 -0.9185 -2.0963
  603MOL0     H81373   5.542   0.704   2.212  0.5042  0.3602  1.2048
  603MOL0     H81374   5.539   0.532   2.176  3.1963 -3.1296 -0.2032
  603MOL0     H81375   5.365   0.654   2.356  1.1229  1.4551  3.5335
  603MOL0     H81376   5.488   0.605   2.455 -0.7440  2.6635  0.8291
  603MOL0     H81377   5.340   0.401   2.273  2.4159 -0.4770 -1.0883
  603MOL0     H81378   5.446   0.371   2.415 -1.3419 -0.4853  0.3177
  603MOL0     H81379   5.208   0.542   2.468  0.1552  0.4139 -0.6921
  603MOL0     H81380   5.310   0.450   2.573  0.4166 -2.9011  0.5581
  603MOL0     H81381   5.129   0.320   2.372  0.3667  1.4867 -0.3598
  603MOL0     H81382   5.231   0.239   2.486 -0.3607 -0.0544 -1.5435
  603MOL0     H81383   4.978   0.383   2.541  0.1756  1.9620  1.2726
  603MOL0     H81384   5.110   0.401   2.667  1.4536 -1.0930  0.7143
  603MOL0     H81385   4.956   0.263   2.744 -2.1297 -1.2724 -0.4969
  603MOL0     H81386   5.097   0.163   2.701  0.6229  1.3020  1.2943
  603MOL0     H81387   5.914   0.738   2.209  0.7727 -2.8608  2.1092
  603MOL0     H81388   6.066   0.913   2.189 -2.4424  2.0826 -1.5243
  603MOL0     H81389   6.249   1.254   2.251 -1.1486 -0.3447  0.8274
  603MOL0     H81390   6.413   1.428   2.200 -0.7693  1.6486  0.9327
  603MOL0     H81391   7.810   1.147   1.885 -1.3783  0.2230 -0.1129
  603MOL0     H81392   8.008   1.035   1.854  0.4375 -2.8926  0.9527
  603MOL0     H81393   8.417   1.026   1.977  2.0645  0.8520 -1.4812
  603MOL0     H81394   8.637   0.971   1.919 -0.0721 -0.0601  2.6298
  603MOL0     H81395   8.829   0.738   2.006  1.6291 -0.5875 -1.3471
  603MOL0     H81396   8.759   0.573   1.965  0.8166 -0.6403  1.1098
  603MOL0     H81397   8.938   0.573   1.780  0.8926 -1.4976  1.0359
  603MOL0     H81398   8.993   0.566   1.945  1.6032  1.3048  1.1507
  603MOL0     H81399   9.048   0.818   1.920 -0.1059 -1.0974  0.7466
  603MOL0     H81400   8.964   0.821   1.768 -1.0098  2.4101  2.2700
  603MOL0     H81401   9.192   0.813   1.732 -0.9374  0.2247 -0.5440
  603MOL0     H81402   9.116   0.667   1.668 -1.3877  3.2382 -0.8460
  603MOL0     H81403   9.435   0.596   1.967  1.2840  1.1254 -0.4975
  603MOL0     H81404   8.523   0.563   1.836 -4.6047 -0.0800 -1.4389
  603MOL0     H81405   8.305   0.603   1.906  1.6700 -0.9112 -0.4272
  604MOL0     O81406   9.185   7.810   4.794 -0.0005 -0.4097 -0.0507
  604MOL0     C81407   9.109   7.771   4.880  0.1264  0.5786  0.1044
  604MOL0     O81408   9.141   7.744   5.014  0.2291  0.1673  0.3899
  604MOL0     C81409   9.265   7.760   5.065 -0.6069  0.0621 -0.0337
  604MOL0     C81410   9.346   7.664   5.111 -0.2808  0.9031  0.0574
  604MOL0     C81411   9.483   7.690   5.141 -0.5978  0.1644 -0.6032
  604MOL0     C81412   9.532   7.821   5.158 -0.2963  0.6501 -0.6531
  604MOL0     O81413   9.662   7.809   5.204 -0.4501  0.4586 -0.0820
  604MOL0     C81414   9.722   7.929   5.242 -0.1210  1.0298  0.2465
  604MOL0     C81415   9.663   7.963   5.380 -0.5863 -0.1409  0.1263
  604MOL0     C81416   9.714   8.099   5.430 -0.6285 -0.2536  0.1328
  604MOL0     C81417   9.626   8.223   5.445  0.5494 -0.3127 -0.0030
  604MOL0     C81418   9.698   8.356   5.484 -0.0999 -0.5270 -0.3635
  604MOL0     C81419   9.738   8.346   5.625 -0.0048 -0.1178 -0.7394
  604MOL0     C81420   9.781   8.488   5.683 -0.5802 -0.0161 -0.0548
  604MOL0     C81421   9.685   8.611   5.688 -0.4107  0.4194 -0.0070
  604MOL0     N81422   9.543   8.586   5.731  0.3847  0.3600 -0.5010
  604MOL0     C81423   9.450   8.602   5.638 -0.5201 -0.5006 -1.1871
  604MOL0     C81424   9.333   8.622   5.706 -0.5115 -0.3371 -0.5821
  604MOL0     C81425   9.200   8.643   5.648  0.0015 -0.1619 -0.9237
  604MOL0     C81426   9.091   8.740   5.707 -0.0365 -0.6134  0.3702
  604MOL0     C81427   9.129   8.883   5.690  0.3667  0.8854  0.0593
  604MOL0     C81428   9.017   8.980   5.751  0.1546 -0.1382  0.5207
  604MOL0     O81429   8.909   9.007   5.664 -0.1224  0.2165 -0.4511
  604MOL0     C81430   8.778   9.002   5.705  0.9241  0.0920  0.3829
  604MOL0     C81431   8.728   9.007   5.837 -0.5265 -0.5435 -0.2550
  604MOL0     C81432   8.593   9.008   5.871  0.4081  0.4694 -0.6482
  604MOL0     C81433   8.547   8.989   6.017 -0.0630 -0.5088 -0.1454
  604MOL0     C81434   8.501   9.016   5.763 -0.0264  0.3927 -0.9548
  604MOL0     C81435   8.343   9.030   5.782 -0.7470 -0.2143  0.4694
  604MOL0     O81436   8.286   9.015   5.909 -0.2912  0.4238  0.4887
  604MOL0     C81437   8.149   9.031   5.914  0.1408 -0.4888 -0.2942
  604MOL0     C81438   8.083   9.145   5.860 -0.2255  0.4642  1.1867
  604MOL0     C81439   7.949   9.151   5.868  0.2115 -0.3249 -0.5277
  604MOL0     C81440   7.864   9.044   5.929  0.8120 -0.8408 -0.7739
  604MOL0     O81441   7.727   9.061   5.934  1.1237 -0.1236  0.4162
  604MOL0     C81442   7.677   9.179   5.993  0.1469  0.3047  0.2619
  604MOL0     C81443   7.533   9.158   6.039  0.2315 -0.6714 -0.2617
  604MOL0     C81444   7.446   9.141   5.912 -0.5863 -0.6080  0.2854
  604MOL0     C81445   7.299   9.098   5.940 -0.2847 -0.3553  0.0997
  604MOL0     C81446   7.203   9.203   5.975 -0.2496  0.2911  0.3308
  604MOL0     C81447   7.059   9.163   6.003 -0.5867 -0.5502 -0.4105
  604MOL0     C81448   7.068   9.050   6.112  0.3948 -0.8106 -0.1622
  604MOL0     C81449   6.936   9.028   6.188 -0.0506 -0.6991 -0.0752
  604MOL0    Cl81450   6.782   9.026   6.092 -0.3413 -0.0469  0.3450
  604MOL0     C81451   7.926   8.940   5.987  0.1933  0.0636 -0.5816
  604MOL0     C81452   8.072   8.932   5.979 -0.7068 -0.6211 -0.4536
  604MOL0     O81453   8.276   9.050   5.678 -0.4398  0.1286 -0.5836
  604MOL0     C81454   8.547   9.030   5.634 -1.1125  0.0647  0.8509
  604MOL0     C81455   8.683   9.021   5.604 -0.3751  0.0794 -0.2282
  604MOL0     N81456   9.363   8.612   5.844 -0.1094  0.1189  0.3390
  604MOL0     N81457   9.489   8.587   5.854 -0.0678 -0.0090 -0.3580
  604MOL0     C81458   9.451   7.922   5.108 -0.1366  0.1155  0.4349
  604MOL0     C81459   9.325   7.885   5.054 -0.6345  0.2494  0.8744
  604MOL0     C81460   8.971   7.742   4.838  0.5243  0.3276  0.1692
  604MOL0     C81461   8.875   7.671   4.910 -0.7952  0.7988  0.5128
  604MOL0     C81462   8.746   7.647   4.854  0.1308  0.2991 -0.1786
  604MOL0     C81463   8.706   7.706   4.729  1.3032 -0.3741  0.0325
  604MOL0     O81464   8.580   7.698   4.688  0.2097  0.6478 -0.0561
  604MOL0     C81465   8.481   7.614   4.753 -1.0908  0.3162  0.2674
  604MOL0     C81466   8.346   7.625   4.671 -0.3916 -0.1538 -0.3018
  604MOL0     C81467   8.237   7.534   4.725 -0.4309  0.2381 -0.0755
  604MOL0     C81468   8.130   7.503   4.614 -0.1637 -0.0822  0.2366
  604MOL0     C81469   8.033   7.403   4.645  0.1632  0.8973  0.2787
  604MOL0     C81470   7.959   7.313   4.681  0.6885 -0.3941  0.1951
  604MOL0     C81471   8.795   7.781   4.659 -0.6219  0.0316 -0.2905
  604MOL0     C81472   8.931   7.793   4.712  0.3379 -0.0995  0.0983
  604MOL0     H81473   9.310   7.562   5.116 -0.0837  0.8521  0.4423
  604MOL0     H81474   9.551   7.611   5.168  0.4332 -0.2472 -3.9855
  604MOL0     H81475   9.829   7.909   5.250 -0.5571 -1.2738  0.9927
  604MOL0     H81476   9.702   8.001   5.162 -1.6260 -0.1526 -0.4852
  604MOL0     H81477   9.553   7.961   5.373 -0.5126 -1.2335 -1.1590
  604MOL0     H81478   9.704   7.886   5.446  2.4138  0.7137 -0.5859
  604MOL0     H81479   9.751   8.070   5.529  0.3271 -0.0391 -0.1541
  604MOL0     H81480   9.794   8.133   5.364 -1.9406 -0.2901 -1.5494
  604MOL0     H81481   9.570   8.248   5.354  1.5835  2.4783  0.0180
  604MOL0     H81482   9.550   8.201   5.521 -0.6213 -1.2601 -1.3834
  604MOL0     H81483   9.791   8.366   5.426 -0.2921  0.1735 -0.5588
  604MOL0     H81484   9.636   8.444   5.464  1.1465  0.3912 -0.3786
  604MOL0     H81485   9.651   8.311   5.682  0.5566  1.1542  0.9824
  604MOL0     H81486   9.807   8.263   5.645  0.8252  0.8361  0.5465
  604MOL0     H81487   9.814   8.474   5.787 -0.2905  1.9099  0.1545
  604MOL0     H81488   9.870   8.518   5.627  0.7209 -0.9265  1.4334
  604MOL0     H81489   9.675   8.646   5.584  0.1583 -0.7911 -0.4808
  604MOL0     H81490   9.729   8.695   5.742  1.1537 -0.4397  0.1114
  604MOL0     H81491   9.471   8.619   5.533  1.9380  1.3648 -0.4779
  604MOL0     H81492   9.196   8.669   5.541 -0.0721  1.0837 -0.6349
  604MOL0     H81493   9.151   8.547   5.667  0.7519 -0.7040 -1.6317
  604MOL0     H81494   9.066   8.723   5.812  0.6861  0.7079  0.7845
  604MOL0     H81495   9.000   8.725   5.649 -0.1679 -1.3114  0.7417
  604MOL0     H81496   9.119   8.896   5.582  1.5588  3.0414  0.1577
  604MOL0     H81497   9.220   8.904   5.747 -0.2685 -1.0012  1.9019
  604MOL0     H81498   9.067   9.074   5.775  1.1283 -0.4437 -0.2766
  604MOL0     H81499   8.974   8.935   5.841 -0.6558 -0.9691 -0.2643
  604MOL0     H81500   8.800   9.015   5.918 -0.0249 -0.5054 -0.7025
  604MOL0     H81501   8.513   8.886   6.030 -0.1948 -0.4265  0.1774
  604MOL0     H81502   8.638   8.998   6.076  1.9202  0.4655 -3.1165
  604MOL0     H81503   8.473   9.068   6.036  1.5689  2.0334 -3.2666
  604MOL0     H81504   8.140   9.228   5.818 -1.5267  1.2371  0.8981
  604MOL0     H81505   7.901   9.245   5.842  0.2691 -0.7449 -2.2624
  604MOL0     H81506   7.739   9.204   6.080  1.4772 -0.2860 -0.4900
  604MOL0     H81507   7.681   9.265   5.926  0.4423  1.2635  1.4717
  604MOL0     H81508   7.520   9.079   6.113  1.9580 -1.2553 -0.5290
  604MOL0     H81509   7.512   9.254   6.087 -0.0738 -1.1674  0.6144
  604MOL0     H81510   7.491   9.071   5.841 -0.0856  2.8496 -3.1278
  604MOL0     H81511   7.449   9.235   5.858 -0.3710 -1.5066 -1.3180
  604MOL0     H81512   7.265   9.047   5.850 -1.7334  1.3591 -0.3748
  604MOL0     H81513   7.309   9.018   6.014 -0.3536  0.1538  0.6644
  604MOL0     H81514   7.222   9.278   5.897  1.2118 -2.2065 -1.8905
  604MOL0     H81515   7.233   9.256   6.066  2.0928 -0.5052  0.0783
  604MOL0     H81516   7.009   9.248   6.050 -0.4057 -1.2588  1.1147
  604MOL0     H81517   7.005   9.127   5.914 -2.3460 -1.5466  0.9883
  604MOL0     H81518   7.137   9.085   6.189 -1.8283  2.4611  0.5449
  604MOL0     H81519   7.099   8.954   6.069  4.5775  0.5090 -0.6127
  604MOL0     H81520   6.923   9.099   6.270  2.6771  1.5892 -1.4266
  604MOL0     H81521   6.949   8.929   6.231 -0.5134 -0.6231  0.2433
  604MOL0     H81522   7.855   8.874   6.033 -1.4079  2.3313  0.3841
  604MOL0     H81523   8.120   8.849   6.030 -0.3554 -0.1805 -0.0610
  604MOL0     H81524   8.477   9.031   5.551 -0.4952 -0.7033  0.3140
  604MOL0     H81525   8.724   9.034   5.504  0.1857  1.8635  0.1929
  604MOL0     H81526   9.491   8.020   5.083  1.0410 -0.7408 -1.2385
  604MOL0     H81527   9.275   7.973   5.015 -2.1815 -0.5076  1.0745
  604MOL0     H81528   8.905   7.630   5.006 -0.5585  0.3222  0.2400
  604MOL0     H81529   8.679   7.593   4.921  1.0388 -0.1395  0.4111
  604MOL0     H81530   8.517   7.512   4.736 -0.5796  0.8891 -2.7698
  604MOL0     H81531   8.457   7.642   4.856 -0.3398  3.6722 -0.3355
  604MOL0     H81532   8.369   7.597   4.568 -0.0953  0.1300 -0.3147
  604MOL0     H81533   8.311   7.728   4.659  1.7082  0.4757 -1.6679
  604MOL0     H81534   8.192   7.585   4.810  1.3563  1.7729  0.0327
  604MOL0     H81535   8.280   7.442   4.765 -2.0318  0.1423  1.5272
  604MOL0     H81536   8.177   7.473   4.520 -1.2185 -3.6706  0.7212
  604MOL0     H81537   8.080   7.599   4.599  0.1171  0.1093  0.5102
  604MOL0     H81538   7.886   7.242   4.717  0.3028  1.2595  2.9662
  604MOL0     H81539   8.761   7.809   4.559 -0.8293 -1.4130 -0.6492
  604MOL0     H81540   8.999   7.851   4.650  0.8501  0.9569  1.6157
  605MOL0     O81541  10.791   0.055  11.044 -0.3716  0.5916  0.3593
  605MOL0     C81542  10.809   0.171  11.067 -0.7767 -0.6137 -0.5316
  605MOL0     O81543  10.713   0.268  11.081 -0.1486 -0.2310 -0.5090
  605MOL0     C81544  10.580   0.245  11.058  0.0164 -0.3019  0.1145
  605MOL0     C81545  10.521   0.178  10.947 -0.5289 -0.3286 -1.0927
  605MOL0     C81546  10.380   0.185  10.939  0.4666  0.3269 -0.6242
  605MOL0     C81547  10.296   0.265  11.023 -0.3942  0.1633 -0.5014
  605MOL0     O81548  10.160   0.289  11.027  0.8765 -0.1443  0.2186
  605MOL0     C81549  10.093   0.214  10.921  0.6745 -0.5298  0.3095
  605MOL0     C81550   9.944   0.250  10.908  0.1896  0.2578 -0.3663
  605MOL0     C81551   9.868   0.155  11.010 -0.2477  0.4760  0.4980
  605MOL0     C81552   9.756   0.233  11.085  0.2976  0.4727 -0.4403
  605MOL0     C81553   9.673   0.131  11.176 -0.0241  0.4365 -0.6059
  605MOL0     C81554   9.533   0.187  11.215  0.2959 -0.2597  0.1092
  605MOL0     C81555   9.443   0.109  11.305  0.3071 -0.7016 -0.3455
  605MOL0     C81556   9.307   0.162  11.343 -0.1184 -0.1341 -0.4072
  605MOL0     N81557   9.231   0.219  11.235  0.4227 -0.2944  0.3986
  605MOL0     C81558   9.163   0.155  11.133 -0.0327  0.9863  0.1487
  605MOL0     C81559   9.093   0.250  11.068 -0.4257  0.8504  0.1315
  605MOL0     C81560   8.998   0.199  10.971 -0.4763  0.0997  0.3977
  605MOL0     C81561   8.860   0.267  10.977  0.9025 -0.1553 -0.4817
  605MOL0     C81562   8.766   0.208  10.873  0.6611  0.7057 -0.1795
  605MOL0     C81563   8.622   0.239  10.888  0.6381 -0.6131  0.8082
  605MOL0     O81564   8.549   0.173  10.774  0.4736  0.0956  0.6216
  605MOL0     C81565   8.413   0.149  10.787 -0.4653 -0.8613  0.3506
  605MOL0     C81566   8.325   0.236  10.857 -0.3114 -0.0629 -0.1962
  605MOL0     C81567   8.187   0.223  10.857  0.5382 -0.9070  0.0312
  605MOL0     C81568   8.104   0.305  10.957 -0.0973  0.9163  0.9808
  605MOL0     C81569   8.126   0.136  10.765 -0.4953  0.1714 -0.0465
  605MOL0     C81570   7.980   0.128  10.741  0.0552 -0.2683 -0.0207
  605MOL0     O81571   7.936  -0.001  10.709 -0.1932 -0.0430  0.1053
  605MOL0     C81572   7.794  -0.016  10.704 -0.6490  0.3841 -0.9944
  605MOL0     C81573   7.723  -0.071  10.814 -0.4782  0.1340  0.1032
  605MOL0     C81574   7.593  -0.090  10.809  0.1872 -0.6012 -0.0202
  605MOL0     C81575   7.513  -0.029  10.703 -0.6008  0.4786 -0.3365
  605MOL0     O81576   7.379  -0.020  10.697  0.7598 -0.3696 -0.9444
  605MOL0     C81577   7.325  -0.134  10.626 -0.3795 -0.7859  0.6470
  605MOL0     C81578   7.180  -0.138  10.626  0.8749 -0.2784 -0.3320
  605MOL0     C81579   7.125  -0.272  10.560 -0.5416  0.0374 -0.6209
  605MOL0     C81580   6.976  -0.266  10.565  0.3432 -0.2177 -0.3237
  605MOL0     C81581   6.903  -0.392  10.506 -0.3901 -0.4598 -0.7377
  605MOL0     C81582   6.943  -0.521  10.583 -0.0581 -0.3662  0.8000
  605MOL0     C81583   6.933  -0.518  10.732  0.1082  0.1610  0.0242
  605MOL0     C81584   6.924  -0.652  10.794 -0.0530  0.9339  0.2345
  605MOL0    Cl81585   7.045  -0.746  10.718 -0.2363  0.3274  0.2618
  605MOL0     C81586   7.586   0.031  10.602 -0.5509  0.8459  0.8872
  605MOL0     C81587   7.723   0.049  10.610 -0.2527 -0.0388 -0.3571
  605MOL0     O81588   7.905   0.227  10.749 -0.3220 -0.2959  1.1027
  605MOL0     C81589   8.212   0.060  10.677 -1.5042  0.6712 -0.5421
  605MOL0     C81590   8.350   0.064  10.692 -0.4360  0.6271  0.6308
  605MOL0     N81591   9.115   0.372  11.121  0.7389 -0.2850 -0.0688
  605MOL0     N81592   9.214   0.357  11.211  0.6717 -0.1126  0.0570
  605MOL0     C81593  10.361   0.328  11.130 -0.0105  0.5445 -0.2110
  605MOL0     C81594  10.498   0.317  11.156  0.1337  0.9073  0.6178
  605MOL0     C81595  10.947   0.216  11.091  0.6180 -0.4925 -0.3232
  605MOL0     C81596  10.973   0.357  11.123 -0.3874 -0.1166 -0.4679
  605MOL0     C81597  11.106   0.397  11.163 -0.6672  0.1034  0.6092
  605MOL0     C81598  11.218   0.307  11.164  0.7824 -0.9646 -0.2654
  605MOL0     O81599  11.344   0.341  11.202 -0.8345  0.0121  0.2724
  605MOL0     C81600  11.377   0.455  11.275  0.6658 -0.4502 -1.1234
  605MOL0     C81601  11.459   0.539  11.174  0.3368  0.1794 -0.1461
  605MOL0     C81602  11.512   0.671  11.226 -0.3581  0.0241 -0.3942
  605MOL0     C81603  11.640   0.699  11.148  0.1051 -0.4300  0.7811
  605MOL0     C81604  11.707   0.815  11.201  0.3920 -0.2508  0.1638
  605MOL0     C81605  11.790   0.902  11.218 -0.3665 -0.0967  0.4231
  605MOL0     C81606  11.193   0.177  11.118  0.0432  0.2158 -0.4875
  605MOL0     C81607  11.064   0.132  11.094  0.5740 -0.9827  1.1258
  605MOL0     H81608  10.587   0.127  10.877  3.8967  2.4852  0.5718
  605MOL0     H81609  10.332   0.114  10.871 -0.4272 -0.0547  0.3809
  605MOL0     H81610  10.137   0.237  10.824  0.8741 -0.1640  0.4847
  605MOL0     H81611  10.098   0.106  10.936 -0.0714 -0.3815  1.8224
  605MOL0     H81612   9.938   0.354  10.940 -2.8213 -0.3317  1.3962
  605MOL0     H81613   9.906   0.245  10.806 -2.2530  4.4014  0.1210
  605MOL0     H81614   9.821   0.074  10.953  1.2374  0.2254 -0.4409
  605MOL0     H81615   9.927   0.102  11.086 -2.7473 -0.1923  2.0778
  605MOL0     H81616   9.798   0.304  11.157 -0.8120 -0.1020  0.8169
  605MOL0     H81617   9.696   0.281  11.008  1.8617 -1.2758 -2.8866
  605MOL0     H81618   9.649   0.045  11.113  0.9181 -0.2258 -0.0920
  605MOL0     H81619   9.726   0.093  11.264 -1.7998  3.6868  2.1094
  605MOL0     H81620   9.548   0.283  11.264 -1.8465  1.0821 -1.7223
  605MOL0     H81621   9.479   0.195  11.121  1.0203 -2.2509 -0.5398
  605MOL0     H81622   9.425   0.011  11.261  0.7726 -0.9150 -0.0726
  605MOL0     H81623   9.505   0.090  11.393 -0.1281 -2.1247 -0.3262
  605MOL0     H81624   9.324   0.231  11.426  1.3360 -0.2303 -0.6029
  605MOL0     H81625   9.246   0.076  11.375  1.0223 -1.1531 -0.8880
  605MOL0     H81626   9.178   0.048  11.120  1.1716  0.8509  2.1593
  605MOL0     H81627   9.046   0.217  10.874  0.9464 -0.5800  0.9425
  605MOL0     H81628   8.994   0.090  10.975  1.2410 -0.3260 -4.0032
  605MOL0     H81629   8.867   0.375  10.966 -1.5863  0.0396 -0.7394
  605MOL0     H81630   8.819   0.247  11.077  4.0875 -0.3569  0.8972
  605MOL0     H81631   8.779   0.099  10.872  0.8155  0.7241 -0.2818
  605MOL0     H81632   8.792   0.235  10.770  1.0006 -1.5543 -0.7436
  605MOL0     H81633   8.604   0.347  10.890 -0.0343 -0.7283  1.2276
  605MOL0     H81634   8.582   0.203  10.983  0.2002 -0.0303  0.8536
  605MOL0     H81635   8.366   0.314  10.920 -1.7314  0.4245  0.1661
  605MOL0     H81636   8.098   0.407  10.917 -0.3665  0.7073  0.4755
  605MOL0     H81637   8.004   0.262  10.965 -0.5367  0.6407 -3.4150
  605MOL0     H81638   8.165   0.313  11.047 -2.0282  1.8285  2.2965
  605MOL0     H81639   7.781  -0.101  10.900  0.2233 -0.2755 -0.4935
  605MOL0     H81640   7.541  -0.127  10.897  3.5472 -0.5823  2.1386
  605MOL0     H81641   7.354  -0.122  10.522 -2.7859 -3.7176 -0.5155
  605MOL0     H81642   7.367  -0.230  10.659  0.4913 -0.4248  0.6057
  605MOL0     H81643   7.150  -0.117  10.729  1.3757  1.9250 -0.5999
  605MOL0     H81644   7.124  -0.054  10.584  2.2550  1.4021  1.0520
  605MOL0     H81645   7.163  -0.347  10.630 -1.7380  0.4636  0.5290
  605MOL0     H81646   7.165  -0.281  10.458 -0.1989  2.1443 -0.7236
  605MOL0     H81647   6.949  -0.258  10.671  2.6804 -2.5447  0.5504
  605MOL0     H81648   6.943  -0.183  10.502 -0.6932 -2.3382 -2.7613
  605MOL0     H81649   6.928  -0.398  10.400  0.2666 -2.5937 -0.5025
  605MOL0     H81650   6.795  -0.376  10.515 -0.5379 -1.2059 -1.1334
  605MOL0     H81651   6.885  -0.605  10.543 -1.1221 -0.0132  1.5547
  605MOL0     H81652   7.045  -0.546  10.550 -0.1449  0.4742 -0.1812
  605MOL0     H81653   6.844  -0.460  10.755 -0.5308 -1.1321  0.9833
  605MOL0     H81654   7.016  -0.467  10.781 -2.2908  2.0812  2.3561
  605MOL0     H81655   6.825  -0.695  10.780  0.7861 -0.9380 -0.2257
  605MOL0     H81656   6.943  -0.640  10.902  1.6783 -0.7675  0.1723
  605MOL0     H81657   7.529   0.086  10.527  0.0439 -1.3069 -1.2684
  605MOL0     H81658   7.776   0.105  10.534 -0.6984  0.1371 -0.5463
  605MOL0     H81659   8.177  -0.004  10.596 -1.1285  0.2595 -0.3851
  605MOL0     H81660   8.415   0.005  10.628  1.8145  1.2564  2.1804
  605MOL0     H81661  10.307   0.385  11.204  1.7931 -1.0790  2.5663
  605MOL0     H81662  10.531   0.378  11.239  0.9055  1.5441 -0.1396
  605MOL0     H81663  10.896   0.433  11.132  0.9962  1.2258  0.8141
  605MOL0     H81664  11.110   0.500  11.197 -2.0096  1.7865 -3.6072
  605MOL0     H81665  11.296   0.519  11.313 -0.1711 -1.2232 -1.5487
  605MOL0     H81666  11.416   0.420  11.371 -0.5714 -2.9494 -1.4502
  605MOL0     H81667  11.393   0.564  11.091  1.3677  0.4164 -0.9270
  605MOL0     H81668  11.542   0.477  11.138  0.1835  1.5268 -3.1413
  605MOL0     H81669  11.539   0.653  11.330  0.1797 -2.1344 -0.8740
  605MOL0     H81670  11.438   0.751  11.237 -1.2498 -1.0410  2.1379
  605MOL0     H81671  11.606   0.729  11.048  1.4640  1.7333  0.9044
  605MOL0     H81672  11.704   0.610  11.143 -2.1617 -2.2477  2.0270
  605MOL0     H81673  11.856   0.983  11.241  1.4944 -1.9675  2.0744
  605MOL0     H81674  11.275   0.107  11.114  0.6987  0.5783  3.2642
  605MOL0     H81675  11.049   0.026  11.075  2.0524 -1.5721  2.8990
  606MOL0     O81676   5.062   2.055   5.133  1.3450  0.1172 -0.4861
  606MOL0     C81677   5.137   2.035   5.221 -0.0127 -0.4175 -0.4059
  606MOL0     O81678   5.101   1.952   5.329 -0.3338 -0.3228  0.3315
  606MOL0     C81679   4.984   1.887   5.312  0.0727  0.0740 -0.4939
  606MOL0     C81680   4.976   1.758   5.257  0.1860  0.4897  1.3511
  606MOL0     C81681   4.849   1.699   5.256  0.5372 -0.2385  0.2502
  606MOL0     C81682   4.734   1.758   5.319 -0.0189  0.6890 -0.7136
  606MOL0     O81683   4.610   1.704   5.320  0.6159  0.2478 -0.8418
  606MOL0     C81684   4.508   1.779   5.251  0.3026  0.2842  0.3340
  606MOL0     C81685   4.370   1.708   5.239  0.2393  0.1186 -0.1862
  606MOL0     C81686   4.355   1.577   5.159  0.3795  0.4411  0.4090
  606MOL0     C81687   4.212   1.523   5.171 -0.7458  0.2607 -0.6145
  606MOL0     C81688   4.189   1.389   5.114  0.8035 -0.2389 -1.2597
  606MOL0     C81689   4.050   1.382   5.045 -0.4872 -0.3668 -0.7151
  606MOL0     C81690   3.942   1.334   5.145  0.6038  0.4031 -0.0562
  606MOL0     C81691   3.798   1.329   5.083 -0.5818  0.6905  0.0002
  606MOL0     N81692   3.694   1.276   5.174 -0.8182 -0.0259  1.1971
  606MOL0     C81693   3.716   1.239   5.303  0.1774  0.8761 -0.5796
  606MOL0     C81694   3.616   1.167   5.335  0.1708  0.7097  0.3344
  606MOL0     C81695   3.570   1.111   5.465  0.5723 -0.1343 -0.1250
  606MOL0     C81696   3.434   1.164   5.512 -0.3152 -0.3521 -0.1506
  606MOL0     C81697   3.398   1.091   5.645  0.1460 -0.1593 -0.3795
  606MOL0     C81698   3.278   1.157   5.717  0.9535 -0.2897  0.1118
  606MOL0     O81699   3.156   1.099   5.663  0.1611  0.7761  0.2241
  606MOL0     C81700   3.035   1.159   5.716  0.4939 -0.1899  0.1339
  606MOL0     C81701   3.021   1.234   5.835 -0.1675  0.3928  0.3375
  606MOL0     C81702   2.901   1.297   5.873  0.0272  0.0841 -0.3267
  606MOL0     C81703   2.914   1.397   5.989 -0.0060  0.5956  0.7523
  606MOL0     C81704   2.782   1.260   5.806 -0.3520  0.8812  0.3696
  606MOL0     C81705   2.649   1.322   5.832 -0.4436  0.4717 -0.1413
  606MOL0     O81706   2.551   1.284   5.744  0.2972 -0.8503  0.3194
  606MOL0     C81707   2.427   1.316   5.788 -1.2123  0.3337 -0.2463
  606MOL0     C81708   2.344   1.404   5.721  0.4216  0.3970  0.4071
  606MOL0     C81709   2.209   1.433   5.754  0.0160  0.6051  0.1636
  606MOL0     C81710   2.155   1.367   5.870 -0.0746 -0.4488 -0.7856
  606MOL0     O81711   2.019   1.372   5.894  0.2667  0.0121 -0.5547
  606MOL0     C81712   1.969   1.307   6.008  0.1644  0.9069  0.8236
  606MOL0     C81713   1.820   1.341   6.019 -0.1755  0.1610 -0.4486
  606MOL0     C81714   1.724   1.314   5.904 -0.3665  0.4156  0.7055
  606MOL0     C81715   1.587   1.394   5.924  0.1972 -0.3606 -0.7074
  606MOL0     C81716   1.479   1.395   5.811 -0.3774 -0.3876  0.2000
  606MOL0     C81717   1.423   1.256   5.776 -0.3824  0.9750 -0.8175
  606MOL0     C81718   1.355   1.247   5.643 -0.4344  0.0016 -0.3114
  606MOL0     C81719   1.332   1.108   5.599  0.0424 -0.3636  0.4021
  606MOL0    Cl81720   1.184   1.038   5.677  0.3039  0.2475  0.4852
  606MOL0     C81721   2.243   1.279   5.935  0.0654 -0.6140  0.3706
  606MOL0     C81722   2.374   1.257   5.901 -0.0593 -0.6473  0.0875
  606MOL0     O81723   2.633   1.384   5.937  0.2446  0.7217 -0.3152
  606MOL0     C81724   2.795   1.167   5.702  0.6130  0.0225  0.4145
  606MOL0     C81725   2.919   1.133   5.646 -0.2724  0.9663  0.0774
  606MOL0     N81726   3.534   1.154   5.217 -0.7898 -0.1301 -0.5798
  606MOL0     N81727   3.576   1.234   5.130 -0.0633 -0.7269 -0.3796
  606MOL0     C81728   4.752   1.876   5.386 -0.3242 -0.7670 -0.7290
  606MOL0     C81729   4.878   1.943   5.385  0.2784 -0.0536  0.3440
  606MOL0     C81730   5.261   2.111   5.222 -0.4995  0.1549  1.0502
  606MOL0     C81731   5.339   2.089   5.338 -0.1658 -0.3567 -0.5791
  606MOL0     C81732   5.470   2.143   5.352  0.7542 -0.6214 -0.1799
  606MOL0     C81733   5.519   2.237   5.257 -0.0261  0.1856 -0.5723
  606MOL0     O81734   5.638   2.306   5.279 -0.2633  0.0845 -0.9180
  606MOL0     C81735   5.682   2.336   5.412 -0.2853  0.8081 -0.0970
  606MOL0     C81736   5.817   2.413   5.423  0.4101  0.7825 -0.0332
  606MOL0     C81737   5.932   2.308   5.457  0.0862 -0.8109  0.6878
  606MOL0     C81738   6.064   2.384   5.496 -0.1956  0.7743 -0.1066
  606MOL0     C81739   6.150   2.376   5.384  0.3390  0.3250 -0.2307
  606MOL0     C81740   6.233   2.360   5.292  1.6082  0.5687 -0.2739
  606MOL0     C81741   5.442   2.255   5.142 -0.1650  0.4453  0.1340
  606MOL0     C81742   5.315   2.195   5.124  0.7599  0.4352  0.7039
  606MOL0     H81743   5.065   1.708   5.222 -0.5912  0.7194 -1.1028
  606MOL0     H81744   4.850   1.600   5.212 -0.3967 -0.4609  0.7068
  606MOL0     H81745   4.501   1.875   5.303  0.3585  0.6663 -0.3542
  606MOL0     H81746   4.543   1.809   5.152  0.9609 -2.2825 -0.2821
  606MOL0     H81747   4.346   1.694   5.345 -0.6100 -1.7950 -0.5817
  606MOL0     H81748   4.300   1.778   5.193 -1.7228 -0.7076  1.3854
  606MOL0     H81749   4.372   1.596   5.052  1.8800 -3.0334 -0.1211
  606MOL0     H81750   4.433   1.502   5.177  1.4030 -0.0232 -4.3947
  606MOL0     H81751   4.180   1.522   5.276  0.0255  0.4954 -0.3759
  606MOL0     H81752   4.139   1.593   5.128 -2.4813  0.4690  2.3588
  606MOL0     H81753   4.263   1.372   5.035 -0.0879  0.7470 -2.3526
  606MOL0     H81754   4.185   1.318   5.197 -2.5022  1.7602  0.5002
  606MOL0     H81755   4.023   1.475   4.994 -0.3397 -0.4604 -0.9615
  606MOL0     H81756   4.050   1.300   4.973  2.7611  0.4606 -1.8489
  606MOL0     H81757   3.963   1.230   5.170  1.1814  0.3308 -0.8253
  606MOL0     H81758   3.936   1.398   5.233  1.0640  1.8661 -1.0583
  606MOL0     H81759   3.810   1.271   4.991  1.0848 -2.7580  2.2062
  606MOL0     H81760   3.760   1.426   5.049  2.0215  0.5520 -4.0333
  606MOL0     H81761   3.799   1.261   5.370  0.3168 -0.4863 -0.2742
  606MOL0     H81762   3.573   1.002   5.475  2.7178 -0.3464 -2.1763
  606MOL0     H81763   3.647   1.142   5.536 -0.6979  0.5327  1.0264
  606MOL0     H81764   3.356   1.170   5.436  0.5347  2.2151 -0.8981
  606MOL0     H81765   3.451   1.267   5.543 -0.5829  0.4894 -2.6075
  606MOL0     H81766   3.484   1.099   5.712  1.7337 -0.3557 -2.2775
  606MOL0     H81767   3.374   0.987   5.621  1.0002 -0.2524 -0.8800
  606MOL0     H81768   3.278   1.265   5.699  3.1463  0.0631  1.8221
  606MOL0     H81769   3.288   1.138   5.824 -2.8317 -1.1407  0.4807
  606MOL0     H81770   3.118   1.255   5.879 -0.1497  0.2494  0.3673
  606MOL0     H81771   2.881   1.497   5.957 -0.6952  0.4620  1.0203
  606MOL0     H81772   2.846   1.364   6.068 -1.8986  1.9913 -0.2081
  606MOL0     H81773   3.015   1.396   6.029  0.5354 -0.7055 -0.5530
  606MOL0     H81774   2.377   1.451   5.629  2.9252  1.5912  1.8187
  606MOL0     H81775   2.135   1.485   5.694 -0.7832 -0.6385  0.0246
  606MOL0     H81776   1.975   1.199   5.994 -3.6693  0.9874 -4.4311
  606MOL0     H81777   2.024   1.346   6.094 -0.0858  0.6016  1.1214
  606MOL0     H81778   1.780   1.279   6.100 -0.9230  1.2287  0.0311
  606MOL0     H81779   1.810   1.444   6.056 -2.3802 -0.4265  0.7982
  606MOL0     H81780   1.701   1.208   5.902  2.6057 -0.3555  1.4219
  606MOL0     H81781   1.771   1.334   5.807  1.5219  1.7364  1.8175
  606MOL0     H81782   1.532   1.342   6.003  1.9059 -1.6927 -0.3583
  606MOL0     H81783   1.612   1.489   5.972  1.9071 -2.6701  3.5180
  606MOL0     H81784   1.523   1.441   5.722 -2.3775 -1.9094 -1.6936
  606MOL0     H81785   1.393   1.455   5.843 -1.7703  0.0004 -3.7950
  606MOL0     H81786   1.503   1.181   5.783 -1.7419 -0.3293  3.1685
  606MOL0     H81787   1.364   1.224   5.862 -0.0323  1.4333 -0.3993
  606MOL0     H81788   1.416   1.289   5.563 -1.9671  0.1732 -1.4258
  606MOL0     H81789   1.254   1.289   5.632 -0.7457 -1.1137 -2.0791
  606MOL0     H81790   1.427   1.053   5.599 -0.0484 -0.6650 -2.0715
  606MOL0     H81791   1.305   1.106   5.493  2.2891 -1.4847 -0.2199
  606MOL0     H81792   2.216   1.228   6.028  5.2585 -0.4394  2.2922
  606MOL0     H81793   2.434   1.188   5.959 -0.0603 -1.4038 -0.7786
  606MOL0     H81794   2.704   1.147   5.646 -1.0952  4.9328  1.0268
  606MOL0     H81795   2.924   1.069   5.558 -0.6934 -0.7947  1.2711
  606MOL0     H81796   4.665   1.920   5.433 -0.4346  1.0421 -2.4754
  606MOL0     H81797   4.883   2.036   5.441 -1.9065  0.2575  0.1018
  606MOL0     H81798   5.297   2.029   5.419  0.2876 -2.3904 -1.7763
  606MOL0     H81799   5.526   2.140   5.445  1.0139 -0.0315 -0.3095
  606MOL0     H81800   5.598   2.395   5.450 -1.8191 -0.2988 -1.6219
  606MOL0     H81801   5.691   2.243   5.470 -1.4690  1.0186  0.4596
  606MOL0     H81802   5.798   2.492   5.497 -2.4913  1.1803 -1.0803
  606MOL0     H81803   5.834   2.468   5.330 -2.5177 -0.1220 -1.2017
  606MOL0     H81804   5.949   2.248   5.367  1.7568  1.0474 -0.3381
  606MOL0     H81805   5.904   2.240   5.537  0.8760 -2.6941 -0.5735
  606MOL0     H81806   6.113   2.332   5.579  1.6616  3.1292  0.3718
  606MOL0     H81807   6.040   2.487   5.526 -1.8883  1.1949 -2.6266
  606MOL0     H81808   6.277   2.339   5.196  3.8121 -0.5721  0.9005
  606MOL0     H81809   5.485   2.320   5.066 -2.6409  0.6572 -1.1990
  606MOL0     H81810   5.255   2.214   5.036  0.9733 -1.1953  0.1740
  607MOL0     O81811  11.342   3.975   0.767  0.1800  0.6854 -0.2715
  607MOL0     C81812  11.317   4.091   0.793 -0.9317 -0.3179 -0.7088
  607MOL0     O81813  11.235   4.134   0.892  0.3120  0.3442 -0.5873
  607MOL0     C81814  11.148   4.048   0.954  0.6381 -0.6060 -0.4018
  607MOL0     C81815  11.184   3.949   1.049 -0.0053 -0.2541  1.0181
  607MOL0     C81816  11.090   3.863   1.109 -0.6250 -0.7867 -0.4869
  607MOL0     C81817  10.954   3.879   1.071  0.4190  0.1912  0.3627
  607MOL0     O81818  10.870   3.792   1.127  0.5620  0.4064 -0.4456
  607MOL0     C81819  10.726   3.798   1.120  0.1306 -0.2271 -0.4730
  607MOL0     C81820  10.658   3.671   1.182  0.7569 -0.0099  0.0210
  607MOL0     C81821  10.698   3.543   1.105 -0.1710 -0.1501  0.1011
  607MOL0     C81822  10.618   3.426   1.158 -0.7220  0.6093  0.1193
  607MOL0     C81823  10.711   3.319   1.224  0.0203  0.9361  0.5152
  607MOL0     C81824  10.743   3.207   1.122 -0.6065 -0.5021 -0.4708
  607MOL0     C81825  10.628   3.124   1.078  0.1742 -0.2770  1.0461
  607MOL0     C81826  10.674   3.050   0.956  0.1190  0.6481  0.0154
  607MOL0     N81827  10.747   2.922   0.970 -0.1546 -0.0279 -0.5834
  607MOL0     C81828  10.678   2.817   1.025 -0.5258  0.1486  0.1297
  607MOL0     C81829  10.781   2.727   1.049  0.9897  0.7943  0.3545
  607MOL0     C81830  10.760   2.578   1.079 -0.7752 -0.0125  0.0070
  607MOL0     C81831  10.610   2.530   1.078  0.2316 -0.0121 -1.0038
  607MOL0     C81832  10.613   2.377   1.091  0.0928  0.1812 -0.7256
  607MOL0     C81833  10.480   2.322   1.065 -0.5260  1.4340 -0.6313
  607MOL0     O81834  10.376   2.374   1.149  0.1125  0.0563 -0.2802
  607MOL0     C81835  10.260   2.305   1.151  0.7374 -0.7008  0.0595
  607MOL0     C81836  10.175   2.340   1.251  0.2286 -0.3940 -0.3161
  607MOL0     C81837  10.053   2.275   1.272  0.2841 -0.5947 -0.7315
  607MOL0     C81838   9.976   2.308   1.404 -0.0842 -0.6172  0.0061
  607MOL0     C81839  10.017   2.183   1.178 -0.0649  0.2549 -0.2081
  607MOL0     C81840   9.894   2.105   1.185 -0.1422 -0.4396 -0.9578
  607MOL0     O81841   9.822   2.089   1.069  0.3148  0.8413 -0.7195
  607MOL0     C81842   9.689   2.042   1.051 -0.2833  0.0606 -0.0116
  607MOL0     C81843   9.616   2.085   0.940  1.1635 -0.6404  0.3229
  607MOL0     C81844   9.484   2.039   0.921  0.0482 -0.1345  0.2488
  607MOL0     C81845   9.434   1.932   1.000 -0.6212 -0.3809 -0.2700
  607MOL0     O81846   9.312   1.875   0.966 -0.0715  0.5688  0.1783
  607MOL0     C81847   9.324   1.728   0.964 -0.2382 -0.2959  0.1664
  607MOL0     C81848   9.206   1.646   0.892  0.7039 -0.8047  0.3292
  607MOL0     C81849   9.064   1.707   0.936 -0.2324  0.3667 -0.7040
  607MOL0     C81850   9.019   1.643   1.070  0.8592 -0.2043 -1.0358
  607MOL0     C81851   8.873   1.679   1.112 -0.1317 -0.0720  0.6057
  607MOL0     C81852   8.865   1.824   1.173 -0.6677 -0.0103  0.4474
  607MOL0     C81853   8.720   1.881   1.201 -0.2928  0.1610  0.0822
  607MOL0     C81854   8.728   1.989   1.305 -0.5297 -0.2123 -0.2356
  607MOL0    Cl81855   8.749   1.921   1.469  0.1305  0.0005  0.3163
  607MOL0     C81856   9.510   1.887   1.106 -0.3776 -1.0126 -0.4537
  607MOL0     C81857   9.636   1.949   1.135  0.4931  0.8094 -0.6075
  607MOL0     O81858   9.865   2.048   1.291 -0.3219 -0.4367 -0.5066
  607MOL0     C81859  10.104   2.141   1.079 -1.0306 -0.2562  0.1906
  607MOL0     C81860  10.216   2.209   1.059 -0.9520  0.6099  0.2517
  607MOL0     N81861  10.900   2.776   1.005 -0.3056  1.0784 -0.6017
  607MOL0     N81862  10.877   2.890   0.961 -0.6665  0.1702 -0.2799
  607MOL0     C81863  10.912   3.980   0.980 -0.0293  0.5123 -0.5746
  607MOL0     C81864  11.006   4.066   0.930 -0.5353 -0.5709 -0.4217
  607MOL0     C81865  11.402   4.190   0.721 -0.3395 -0.2012 -0.2543
  607MOL0     C81866  11.397   4.327   0.744 -0.2304 -0.2467 -0.7261
  607MOL0     C81867  11.483   4.415   0.677  0.0101  0.2813  0.4883
  607MOL0     C81868  11.566   4.376   0.570 -0.5433  0.7108 -0.4516
  607MOL0     O81869  11.647   4.477   0.510 -0.3926  0.4929 -0.0076
  607MOL0     C81870  11.749   4.429   0.424 -0.2602  0.3868 -0.5710
  607MOL0     C81871  11.864   4.525   0.416  0.8364  0.0348  0.8244
  607MOL0     C81872  11.979   4.496   0.515 -0.7670  0.0087  0.0722
  607MOL0     C81873  11.922   4.489   0.661 -0.1511  0.6072  0.6311
  607MOL0     C81874  12.042   4.478   0.758  0.7625 -0.8451  0.2894
  607MOL0     C81875  12.123   4.479   0.842 -0.6615  0.5477  0.1213
  607MOL0     C81876  11.563   4.241   0.533  1.1420 -0.8815 -0.0961
  607MOL0     C81877  11.482   4.148   0.607 -0.0815  0.0314 -0.3569
  607MOL0     H81878  11.287   3.945   1.082 -0.1616  0.1728  1.5748
  607MOL0     H81879  11.114   3.784   1.180 -0.1693 -0.0379  0.2063
  607MOL0     H81880  10.692   3.894   1.160  2.1554  0.2944  0.1396
  607MOL0     H81881  10.699   3.797   1.014  1.4608 -0.0556 -0.8401
  607MOL0     H81882  10.686   3.673   1.288 -2.3980  3.1002  0.9924
  607MOL0     H81883  10.549   3.681   1.186  0.4489 -2.4588 -0.9391
  607MOL0     H81884  10.678   3.545   0.998  1.8410 -1.3870 -0.3480
  607MOL0     H81885  10.805   3.530   1.118 -0.0019  1.7552  1.0016
  607MOL0     H81886  10.549   3.461   1.235 -0.1280 -1.2101  1.5428
  607MOL0     H81887  10.576   3.381   1.067 -0.6654 -2.1160  1.3289
  607MOL0     H81888  10.804   3.362   1.263  2.2574  0.2408 -3.5590
  607MOL0     H81889  10.650   3.273   1.303 -2.4073 -3.6450 -3.5311
  607MOL0     H81890  10.780   3.262   1.034  0.2860 -0.2242  0.0648
  607MOL0     H81891  10.823   3.142   1.158  1.0329  0.6006 -1.9306
  607MOL0     H81892  10.602   3.054   1.158 -3.1340 -0.0834  0.2494
  607MOL0     H81893  10.533   3.178   1.070 -1.1112 -2.7308 -3.1510
  607MOL0     H81894  10.734   3.117   0.892 -1.1350 -1.2227 -3.4031
  607MOL0     H81895  10.581   3.035   0.900 -0.9094 -0.6753  1.9810
  607MOL0     H81896  10.572   2.792   1.016 -0.3976  0.1738 -1.8871
  607MOL0     H81897  10.806   2.523   0.997 -1.4798  1.9862 -1.8276
  607MOL0     H81898  10.810   2.561   1.175 -2.5954 -0.6204  0.9000
  607MOL0     H81899  10.574   2.553   0.977 -0.9255 -2.2426 -1.1528
  607MOL0     H81900  10.551   2.565   1.163  1.9092 -0.5279  0.4349
  607MOL0     H81901  10.632   2.370   1.198  2.7806 -0.9043 -1.1832
  607MOL0     H81902  10.687   2.324   1.030 -1.2775 -2.5070 -0.2369
  607MOL0     H81903  10.491   2.215   1.086 -0.8010  1.8164  1.6917
  607MOL0     H81904  10.442   2.345   0.965  1.1745  0.6326 -1.5306
  607MOL0     H81905  10.214   2.410   1.324  0.5697 -3.4986  2.7570
  607MOL0     H81906  10.027   2.282   1.497 -1.2094 -0.4683  0.6846
  607MOL0     H81907   9.978   2.417   1.397 -0.0261 -0.6456 -0.4115
  607MOL0     H81908   9.874   2.270   1.407 -0.5217  0.5588  1.0542
  607MOL0     H81909   9.659   2.142   0.858  0.5004 -0.9640 -0.2688
  607MOL0     H81910   9.414   2.083   0.850 -1.2085 -0.0592  1.4924
  607MOL0     H81911   9.405   1.688   0.903  0.7297 -0.4095  1.4921
  607MOL0     H81912   9.332   1.687   1.066 -0.3010  1.6240  0.9777
  607MOL0     H81913   9.218   1.633   0.784  2.1582 -0.5245  0.4326
  607MOL0     H81914   9.215   1.540   0.917  2.7805 -1.1991 -1.6970
  607MOL0     H81915   8.989   1.691   0.858 -2.5884  2.2656  0.9999
  607MOL0     H81916   9.077   1.815   0.941  3.5345  0.0066  0.7025
  607MOL0     H81917   9.029   1.535   1.058  3.4989 -0.0435 -0.8168
  607MOL0     H81918   9.084   1.679   1.150 -0.2817 -0.6608  0.1289
  607MOL0     H81919   8.849   1.610   1.193 -1.2039 -1.0427 -0.4970
  607MOL0     H81920   8.802   1.672   1.029 -1.4176  2.4135  1.3875
  607MOL0     H81921   8.924   1.826   1.265 -0.8719 -1.6748  0.6549
  607MOL0     H81922   8.913   1.897   1.108 -2.2285  1.7528  1.1671
  607MOL0     H81923   8.649   1.805   1.234 -4.4238  3.4811 -0.2717
  607MOL0     H81924   8.681   1.925   1.109 -0.8305  3.7890  1.8443
  607MOL0     H81925   8.634   2.045   1.308  0.1568  0.9994 -0.5357
  607MOL0     H81926   8.798   2.064   1.268 -1.9688 -1.1899 -5.9514
  607MOL0     H81927   9.478   1.798   1.160 -2.8328  0.3057  0.4345
  607MOL0     H81928   9.688   1.907   1.220  0.0349  2.9370  0.7981
  607MOL0     H81929  10.082   2.059   1.011 -3.6189  0.1901  0.3611
  607MOL0     H81930  10.286   2.175   0.984 -1.5928  0.9136 -0.4978
  607MOL0     H81931  10.810   4.001   0.951 -0.2313  1.6929  0.8806
  607MOL0     H81932  10.968   4.146   0.867 -1.6765 -0.7077  0.0742
  607MOL0     H81933  11.334   4.358   0.827  0.8211 -2.7100  1.1400
  607MOL0     H81934  11.508   4.515   0.713  1.6597  0.4903 -1.0643
  607MOL0     H81935  11.790   4.328   0.437  0.9770  1.0058  0.5383
  607MOL0     H81936  11.695   4.428   0.329  1.1843  1.8248 -1.4531
  607MOL0     H81937  11.822   4.623   0.442  4.1307  1.7625  0.1522
  607MOL0     H81938  11.895   4.534   0.312 -1.5824 -2.1574 -0.1836
  607MOL0     H81939  12.049   4.580   0.518 -2.3140  1.3054  1.6803
  607MOL0     H81940  12.026   4.401   0.487 -1.0911 -0.5159  1.2491
  607MOL0     H81941  11.869   4.395   0.680 -1.2082  0.4834 -2.4095
  607MOL0     H81942  11.862   4.577   0.686 -0.3757  0.7628 -0.4313
  607MOL0     H81943  12.203   4.463   0.913 -1.8466 -3.2527  0.8228
  607MOL0     H81944  11.619   4.206   0.446  3.1133 -0.4398  0.9380
  607MOL0     H81945  11.499   4.047   0.570  0.3414  0.3117 -0.9412
  608MOL0     O81946  11.019   0.311   6.140 -0.1075  0.3630  0.1651
  608MOL0     C81947  11.067   0.236   6.054  0.4664  0.0792 -0.3923
  608MOL0     O81948  10.996   0.148   5.972 -0.1394  0.3735  0.6109
  608MOL0     C81949  10.856   0.133   5.968 -0.4196 -0.4091 -0.5781
  608MOL0     C81950  10.779   0.208   5.878  0.3010 -0.7666  0.1059
  608MOL0     C81951  10.643   0.194   5.874 -0.0207  0.6669  0.4431
  608MOL0     C81952  10.583   0.089   5.945  0.6833 -0.6713  0.6261
  608MOL0     O81953  10.452   0.075   5.909  1.0171 -0.4776 -0.1757
  608MOL0     C81954  10.364   0.084   6.016 -0.0318  0.2664 -0.2883
  608MOL0     C81955  10.220   0.109   5.970  0.4194  0.6292  0.2835
  608MOL0     C81956  10.178   0.044   5.840 -0.4460  0.1822 -0.6669
  608MOL0     C81957  10.028   0.042   5.831  0.0210  0.4361  0.2869
  608MOL0     C81958   9.960  -0.082   5.884 -1.3852  0.8037 -0.4973
  608MOL0     C81959   9.810  -0.065   5.894 -0.0716  0.1313 -1.4662
  608MOL0     C81960   9.751  -0.181   5.977 -0.1730 -0.5903 -1.0359
  608MOL0     C81961   9.732  -0.305   5.891  0.1134  0.2265  0.0036
  608MOL0     N81962   9.652  -0.397   5.972 -0.3507  0.3831  0.4824
  608MOL0     C81963   9.512  -0.377   5.976 -0.4543 -0.2422 -0.5710
  608MOL0     C81964   9.472  -0.484   6.049 -0.0691 -0.2535 -0.9273
  608MOL0     C81965   9.332  -0.505   6.096 -0.2957 -0.4289 -0.2138
  608MOL0     C81966   9.316  -0.487   6.247  0.5006 -0.4647  0.2422
  608MOL0     C81967   9.171  -0.513   6.294 -0.1807 -0.4086  0.6245
  608MOL0     C81968   9.156  -0.503   6.450  0.5666  1.2115  1.4959
  608MOL0     O81969   9.152  -0.363   6.494 -0.1365 -0.3904 -0.3528
  608MOL0     C81970   9.038  -0.295   6.502  0.9751 -0.2976 -0.2995
  608MOL0     C81971   8.913  -0.337   6.478 -0.5899 -0.2493 -0.2438
  608MOL0     C81972   8.802  -0.259   6.491 -1.5287 -0.5647 -1.7073
  608MOL0     C81973   8.672  -0.322   6.471  0.2634  0.0220 -0.0166
  608MOL0     C81974   8.817  -0.118   6.519  0.0520  0.0350 -0.8299
  608MOL0     C81975   8.703  -0.022   6.541 -0.9529 -0.4513 -0.3166
  608MOL0     O81976   8.590  -0.038   6.457  0.0880 -0.7502 -0.1680
  608MOL0     C81977   8.489   0.058   6.454 -0.6043  1.1764  0.2582
  608MOL0     C81978   8.356   0.022   6.480 -0.1642 -0.3368 -0.1137
  608MOL0     C81979   8.256   0.110   6.478 -0.3285 -0.6773 -0.7760
  608MOL0     C81980   8.295   0.249   6.449  0.6648  0.5429 -0.2059
  608MOL0     O81981   8.187   0.346   6.441  0.6553  0.5888 -0.9588
  608MOL0     C81982   8.226   0.480   6.459  0.5728 -0.4197  0.6481
  608MOL0     C81983   8.099   0.567   6.479 -0.3937 -0.5387  0.8021
  608MOL0     C81984   8.001   0.569   6.359 -0.3317 -0.4911 -0.0794
  608MOL0     C81985   7.876   0.655   6.379  0.0563 -0.6200  0.8554
  608MOL0     C81986   7.778   0.645   6.260 -0.3142  0.6910  0.0329
  608MOL0     C81987   7.633   0.701   6.273  0.0072 -0.1633 -0.3525
  608MOL0     C81988   7.575   0.685   6.140  0.4895 -0.2610  0.6694
  608MOL0     C81989   7.425   0.698   6.146  0.5699 -0.1602 -0.6309
  608MOL0    Cl81990   7.359   0.672   5.992  0.0952  0.1063  0.0112
  608MOL0     C81991   8.420   0.286   6.421 -0.0754  0.5567  0.4280
  608MOL0     C81992   8.517   0.183   6.417  0.3494 -0.5942 -0.1390
  608MOL0     O81993   8.728   0.064   6.624  0.3712  0.0888 -0.5246
  608MOL0     C81994   8.950  -0.071   6.547  0.4608 -0.6038  0.5900
  608MOL0     C81995   9.055  -0.161   6.545  0.0636 -0.3814 -0.2031
  608MOL0     N81996   9.578  -0.570   6.070  0.0284 -0.7021 -0.2081
  608MOL0     N81997   9.683  -0.511   6.037 -0.8923 -0.7242  0.2808
  608MOL0     C81998  10.653   0.011   6.028 -0.2109 -0.1606 -0.7730
  608MOL0     C81999  10.794   0.030   6.047  0.3978 -0.6799  0.2664
  608MOL0     C82000  11.217   0.240   6.034  0.5752 -0.7145 -0.3105
  608MOL0     C82001  11.297   0.300   6.135 -0.6445  0.5090 -0.0122
  608MOL0     C82002  11.430   0.317   6.111 -0.4774 -0.2151  0.3954
  608MOL0     C82003  11.489   0.262   5.996 -0.3309 -0.4007 -0.5738
  608MOL0     O82004  11.624   0.264   5.976  0.2961 -0.0283  0.4185
  608MOL0     C82005  11.667   0.399   5.957 -0.1931  0.3205  0.3605
  608MOL0     C82006  11.802   0.413   5.893  0.1281 -0.5675  0.4555
  608MOL0     C82007  11.908   0.358   5.985 -0.6209 -0.3592  0.5473
  608MOL0     C82008  12.038   0.327   5.914  0.5577  0.5474  0.5957
  608MOL0     C82009  12.126   0.280   6.018 -0.4036  0.2660 -0.2137
  608MOL0     C82010  12.207   0.264   6.106 -0.4476 -0.6867  0.9859
  608MOL0     C82011  11.410   0.200   5.906 -0.0336  0.9857  0.3595
  608MOL0     C82012  11.272   0.187   5.916  0.5943 -0.3171  0.4333
  608MOL0     H82013  10.832   0.271   5.807 -0.1999 -0.4541  0.0014
  608MOL0     H82014  10.597   0.257   5.798  1.2402  1.0897  0.0021
  608MOL0     H82015  10.367  -0.014   6.065 -2.7519 -0.3351 -1.1726
  608MOL0     H82016  10.394   0.163   6.085 -1.5080  0.0695  0.6120
  608MOL0     H82017  10.142   0.092   6.045 -1.2898  0.4258 -1.4583
  608MOL0     H82018  10.210   0.217   5.954 -2.4025  0.3397 -0.4609
  608MOL0     H82019  10.205   0.105   5.753 -1.5040 -2.0715 -2.7047
  608MOL0     H82020  10.225  -0.053   5.819  1.1183  0.6967  0.2893
  608MOL0     H82021   9.987   0.135   5.872 -1.8184  0.5385 -1.6026
  608MOL0     H82022  10.001   0.055   5.726  1.8674  2.7609  0.0126
  608MOL0     H82023   9.980  -0.156   5.806 -2.1211  1.9348 -1.7898
  608MOL0     H82024  10.018  -0.110   5.973 -0.2858  0.6851 -1.2315
  608MOL0     H82025   9.793   0.030   5.945 -3.1579 -1.3752  0.5780
  608MOL0     H82026   9.760  -0.066   5.797 -2.6184 -1.4879 -0.2470
  608MOL0     H82027   9.821  -0.194   6.059  2.3494 -1.0280 -3.1228
  608MOL0     H82028   9.656  -0.148   6.020  0.5246  2.2636 -1.4470
  608MOL0     H82029   9.825  -0.352   5.858 -0.1429  1.9275 -3.6787
  608MOL0     H82030   9.672  -0.281   5.803 -0.8970  0.5867  0.7780
  608MOL0     H82031   9.456  -0.293   5.937 -0.1007  1.9321  3.1781
  608MOL0     H82032   9.267  -0.445   6.032  1.6081  4.0017  1.5676
  608MOL0     H82033   9.318  -0.613   6.084 -0.7396 -0.5302  1.1262
  608MOL0     H82034   9.356  -0.391   6.283 -3.5458 -0.0159  4.5447
  608MOL0     H82035   9.381  -0.564   6.291  0.6141 -0.8574 -0.5953
  608MOL0     H82036   9.130  -0.607   6.255 -1.7552  0.3121  0.4632
  608MOL0     H82037   9.106  -0.442   6.243 -3.2911 -2.4325  1.4543
  608MOL0     H82038   9.242  -0.554   6.494  0.4700 -0.2484  0.0777
  608MOL0     H82039   9.073  -0.567   6.482 -0.0869  0.6675 -1.0696
  608MOL0     H82040   8.889  -0.440   6.453 -2.8936  0.0941  0.3186
  608MOL0     H82041   8.604  -0.285   6.549  0.6595  0.0425  0.3220
  608MOL0     H82042   8.637  -0.293   6.372 -0.7881  1.9239  0.8552
  608MOL0     H82043   8.675  -0.432   6.471 -2.2692 -0.1093  0.7378
  608MOL0     H82044   8.328  -0.076   6.516 -0.9179  0.8203  2.7327
  608MOL0     H82045   8.153   0.087   6.503 -0.1078 -0.2759  0.5831
  608MOL0     H82046   8.297   0.485   6.542 -1.5305 -0.2184  2.5471
  608MOL0     H82047   8.264   0.518   6.364 -1.0657  0.6051  0.3483
  608MOL0     H82048   8.038   0.543   6.566  1.1567 -1.5881  1.6570
  608MOL0     H82049   8.137   0.669   6.484  0.9956 -1.0141  0.6559
  608MOL0     H82050   7.989   0.461   6.343  0.1212 -0.7125  1.0185
  608MOL0     H82051   8.058   0.609   6.274 -0.0797 -3.3192 -1.3628
  608MOL0     H82052   7.832   0.634   6.477  2.7251  0.2655  2.3620
  608MOL0     H82053   7.911   0.759   6.381  0.3294 -0.7040  0.4231
  608MOL0     H82054   7.772   0.537   6.244  0.9213  0.5422  0.4427
  608MOL0     H82055   7.838   0.687   6.178 -2.0010  1.4657 -0.8439
  608MOL0     H82056   7.579   0.637   6.344 -0.0227  0.8834  0.5978
  608MOL0     H82057   7.630   0.805   6.305  0.2991 -1.3086  4.1961
  608MOL0     H82058   7.597   0.580   6.118  1.7147 -0.3798  2.3099
  608MOL0     H82059   7.621   0.758   6.073 -0.5914 -0.1072  0.0642
  608MOL0     H82060   7.393   0.797   6.181  1.0389  0.7872 -2.7200
  608MOL0     H82061   7.383   0.620   6.210 -1.1019  2.5756  1.9334
  608MOL0     H82062   8.440   0.388   6.390 -1.4403  1.0335  1.0420
  608MOL0     H82063   8.615   0.219   6.388  0.4480  3.8831  4.3472
  608MOL0     H82064   8.967   0.034   6.567 -0.9136 -0.3160  0.3294
  608MOL0     H82065   9.151  -0.116   6.569 -0.6439  0.1793  1.7884
  608MOL0     H82066  10.607  -0.065   6.091  0.5061 -1.4788 -1.7931
  608MOL0     H82067  10.856  -0.015   6.124 -0.6865 -1.2006  0.8497
  608MOL0     H82068  11.252   0.340   6.225 -1.5996  0.8318 -0.6126
  608MOL0     H82069  11.482   0.360   6.195 -0.9773  2.6479 -0.6613
  608MOL0     H82070  11.603   0.453   5.887  1.3234  3.1862  1.0649
  608MOL0     H82071  11.681   0.452   6.052  0.2547  0.0464  0.4533
  608MOL0     H82072  11.818   0.521   5.882 -1.1677 -0.4334 -0.3009
  608MOL0     H82073  11.809   0.367   5.794  0.3000 -1.3029  0.8037
  608MOL0     H82074  11.870   0.265   6.028 -3.5151  0.5144  0.0770
  608MOL0     H82075  11.926   0.437   6.059 -1.8881  0.3462  0.1303
  608MOL0     H82076  12.072   0.426   5.881 -0.8030  0.3318 -1.6026
  608MOL0     H82077  12.020   0.265   5.826 -4.0614  4.6846 -1.8902
  608MOL0     H82078  12.283   0.249   6.181 -0.5627 -1.7143  0.9096
  608MOL0     H82079  11.468   0.171   5.818 -1.2775  2.5898 -1.0659
  608MOL0     H82080  11.218   0.146   5.831 -0.5666 -0.8169  1.3842
  609MOL0     O82081   5.012   0.810   2.502  0.4402  0.5308 -0.3623
  609MOL0     C82082   5.017   0.874   2.610  0.0951  0.7481  0.6276
  609MOL0     O82083   4.902   0.886   2.690  0.4067  0.3982 -0.1878
  609MOL0     C82084   4.782   0.868   2.628  0.2836  1.0002  0.2458
  609MOL0     C82085   4.718   0.738   2.642 -0.6804 -0.8325 -0.6575
  609MOL0     C82086   4.599   0.705   2.578 -1.3585 -0.4575 -0.5916
  609MOL0     C82087   4.537   0.806   2.501  0.1803 -0.1199 -0.4374
  609MOL0     O82088   4.415   0.777   2.440  0.3702 -0.0938  0.2674
  609MOL0     C82089   4.379   0.826   2.307  0.0462  0.1154  0.3224
  609MOL0     C82090   4.294   0.955   2.318  0.2387  0.1642 -0.2828
  609MOL0     C82091   4.158   0.930   2.393  0.8095  0.1678 -0.5789
  609MOL0     C82092   4.091   1.068   2.417  0.0561 -0.1540 -0.0677
  609MOL0     C82093   4.049   1.143   2.293  1.1664  0.2753 -0.3369
  609MOL0     C82094   3.985   1.276   2.349 -0.2317  0.5848  0.2684
  609MOL0     C82095   3.895   1.341   2.245  0.7656 -0.5503  0.1795
  609MOL0     C82096   3.962   1.387   2.112 -0.7390  0.2333  0.3177
  609MOL0     N82097   4.042   1.504   2.136 -0.8304  0.8283  0.6414
  609MOL0     C82098   4.176   1.499   2.139 -0.1255 -0.5066  0.4558
  609MOL0     C82099   4.223   1.620   2.174  0.6649 -0.2632 -0.4641
  609MOL0     C82100   4.358   1.669   2.178  0.4411 -0.1355  0.3501
  609MOL0     C82101   4.476   1.584   2.234  0.3546  0.0302  0.4517
  609MOL0     C82102   4.468   1.574   2.388 -0.2257  0.5433 -1.7752
  609MOL0     C82103   4.490   1.425   2.433  0.8364 -0.7867  0.6142
  609MOL0     O82104   4.616   1.380   2.397  0.3814 -0.1378  0.2703
  609MOL0     C82105   4.700   1.385   2.501 -0.2695  0.3188 -0.4761
  609MOL0     C82106   4.669   1.319   2.616  0.2174 -0.3498 -0.1788
  609MOL0     C82107   4.762   1.306   2.723 -0.6239 -0.5276 -0.3868
  609MOL0     C82108   4.711   1.240   2.851  1.0273  0.2011  1.8606
  609MOL0     C82109   4.896   1.372   2.714  0.5201 -0.2441 -0.3015
  609MOL0     C82110   5.000   1.360   2.820 -0.3160  0.2411 -0.1168
  609MOL0     O82111   5.122   1.396   2.779  0.2339  0.0298  0.2146
  609MOL0     C82112   5.225   1.400   2.877  0.3351 -0.2758  0.6636
  609MOL0     C82113   5.314   1.505   2.845 -0.1325 -0.0904 -0.7320
  609MOL0     C82114   5.426   1.522   2.936  0.0698  0.0422 -0.5001
  609MOL0     C82115   5.442   1.446   3.056 -1.1685  0.2323  0.3144
  609MOL0     O82116   5.558   1.445   3.135  0.0220 -0.3601 -0.6310
  609MOL0     C82117   5.659   1.547   3.118 -0.0157  0.0899 -0.1315
  609MOL0     C82118   5.765   1.511   3.230 -0.8919 -0.4031  0.4856
  609MOL0     C82119   5.882   1.599   3.232  0.3058 -0.0017  0.7363
  609MOL0     C82120   5.963   1.583   3.103  0.3364  1.2674  0.0447
  609MOL0     C82121   6.091   1.659   3.114  0.2003  0.3934 -0.7280
  609MOL0     C82122   6.076   1.801   3.164  0.8697  0.8826  0.8936
  609MOL0     C82123   6.203   1.885   3.168  0.5413  0.6667  0.9218
  609MOL0     C82124   6.260   1.925   3.027 -0.2615 -0.3591  0.0388
  609MOL0    Cl82125   6.407   2.029   3.049  0.3659 -0.3416 -0.3269
  609MOL0     C82126   5.347   1.352   3.084  0.2818  0.2045  0.4001
  609MOL0     C82127   5.247   1.322   2.997 -0.0096 -0.3154  0.2467
  609MOL0     O82128   4.978   1.291   2.911  0.4016 -0.2117  0.3162
  609MOL0     C82129   4.917   1.441   2.594 -0.2318 -0.1157  0.6994
  609MOL0     C82130   4.824   1.442   2.488  0.2409  0.4910 -0.6975
  609MOL0     N82131   4.106   1.698   2.195  0.2229 -0.2051  1.1639
  609MOL0     N82132   4.001   1.621   2.168  0.2061  0.0420 -0.9114
  609MOL0     C82133   4.599   0.932   2.488  0.3254  0.2980 -1.2356
  609MOL0     C82134   4.723   0.965   2.553  0.2488 -0.2889 -0.1803
  609MOL0     C82135   5.156   0.907   2.668  0.7978  0.4902  0.4174
  609MOL0     C82136   5.273   0.879   2.598 -0.1445 -0.2548  0.5487
  609MOL0     C82137   5.395   0.922   2.645 -0.1924 -0.2817 -0.2041
  609MOL0     C82138   5.418   1.005   2.757 -0.2815 -0.1329  0.4708
  609MOL0     O82139   5.543   1.041   2.792 -0.1798  0.6595  0.1676
  609MOL0     C82140   5.551   1.149   2.884 -0.1317  0.2363 -0.0978
  609MOL0     C82141   5.693   1.195   2.887 -0.5772  0.4350 -0.1410
  609MOL0     C82142   5.779   1.098   2.965  0.0509 -0.7741 -0.4859
  609MOL0     C82143   5.917   1.152   2.990  0.5762 -0.6004  0.2138
  609MOL0     C82144   5.986   1.068   3.093  0.5433  0.5296 -0.0421
  609MOL0     C82145   6.032   0.990   3.174  0.8779 -0.7274 -0.3207
  609MOL0     C82146   5.297   1.019   2.834 -0.5511 -0.2041  0.0851
  609MOL0     C82147   5.175   0.974   2.784  1.2293 -0.6646 -0.0186
  609MOL0     H82148   4.767   0.667   2.708  1.0727 -0.6999 -1.7587
  609MOL0     H82149   4.557   0.606   2.594  0.3191 -0.9666  1.0428
  609MOL0     H82150   4.471   0.828   2.249 -0.2616 -2.2969 -0.3648
  609MOL0     H82151   4.317   0.750   2.257  1.0572  1.4256 -3.2104
  609MOL0     H82152   4.348   1.043   2.353  1.6007 -0.3030 -1.1217
  609MOL0     H82153   4.274   0.971   2.212  2.2429  1.9289 -0.4669
  609MOL0     H82154   4.098   0.850   2.348  1.4824 -1.0880  0.6680
  609MOL0     H82155   4.167   0.888   2.494  0.1200  1.0539 -0.1312
  609MOL0     H82156   4.005   1.062   2.484  0.1559 -1.1134 -0.0110
  609MOL0     H82157   4.159   1.137   2.467 -0.6611 -0.4832  1.4029
  609MOL0     H82158   4.136   1.166   2.232  0.4553  1.1103 -1.0723
  609MOL0     H82159   3.976   1.085   2.235  1.9192 -1.4915  0.4151
  609MOL0     H82160   3.927   1.259   2.440 -1.8739  1.7557 -0.5128
  609MOL0     H82161   4.064   1.347   2.377 -0.3990  0.3137  1.4863
  609MOL0     H82162   3.815   1.269   2.226 -0.2722  0.5432  0.2808
  609MOL0     H82163   3.833   1.421   2.287  0.3926  0.0902 -1.5127
  609MOL0     H82164   3.880   1.404   2.042 -0.4848  0.0971 -0.0158
  609MOL0     H82165   4.017   1.306   2.062 -1.9599 -2.1496  2.5815
  609MOL0     H82166   4.230   1.405   2.130 -2.1188 -1.5576 -1.2764
  609MOL0     H82167   4.390   1.706   2.080  2.7256 -2.1427  0.2316
  609MOL0     H82168   4.348   1.750   2.250 -2.1118 -1.3726  1.5431
  609MOL0     H82169   4.570   1.629   2.203  0.7689 -0.8084  0.4578
  609MOL0     H82170   4.464   1.489   2.181  0.8738  0.2316 -0.0409
  609MOL0     H82171   4.371   1.598   2.435  1.1034  2.7629  0.0690
  609MOL0     H82172   4.540   1.648   2.423 -1.2890  1.3259 -1.1632
  609MOL0     H82173   4.428   1.356   2.376 -0.4750  1.8551 -1.3646
  609MOL0     H82174   4.449   1.419   2.535 -1.7373  1.9714 -0.1172
  609MOL0     H82175   4.575   1.267   2.630  0.4683 -0.2683  2.1282
  609MOL0     H82176   4.723   1.306   2.937  0.6722  0.8713  1.4070
  609MOL0     H82177   4.607   1.208   2.842  1.0421  0.4463  0.6485
  609MOL0     H82178   4.769   1.151   2.874  0.4176 -0.5246  0.7002
  609MOL0     H82179   5.295   1.569   2.760  0.0234  3.7964  1.8950
  609MOL0     H82180   5.508   1.591   2.916  0.0800  0.1877  0.0317
  609MOL0     H82181   5.710   1.540   3.022 -1.6853 -0.5546 -1.0255
  609MOL0     H82182   5.616   1.644   3.144 -1.3683 -1.0684  2.4414
  609MOL0     H82183   5.715   1.525   3.326 -1.2324 -1.6599  0.5054
  609MOL0     H82184   5.803   1.409   3.218  0.8406 -0.4060  4.5440
  609MOL0     H82185   5.945   1.567   3.316  0.8281 -0.7107  0.0852
  609MOL0     H82186   5.850   1.702   3.249 -1.3386 -0.2623 -0.5296
  609MOL0     H82187   5.989   1.478   3.086  0.3218  1.0052  1.4704
  609MOL0     H82188   5.902   1.615   3.018 -0.9549  0.8898  0.7991
  609MOL0     H82189   6.132   1.663   3.012  0.7598  1.2517 -0.4822
  609MOL0     H82190   6.164   1.602   3.172  0.0045  1.9551  1.1485
  609MOL0     H82191   5.997   1.855   3.112  2.5162  2.2111 -0.3593
  609MOL0     H82192   6.045   1.798   3.269 -1.8658 -2.3630  0.1752
  609MOL0     H82193   6.270   1.823   3.228 -0.6474 -4.6643 -2.5360
  609MOL0     H82194   6.177   1.976   3.224 -1.1840  0.2612  0.8356
  609MOL0     H82195   6.180   1.984   2.981  0.1922 -0.0456 -0.3533
  609MOL0     H82196   6.284   1.841   2.961 -3.9479 -1.7512  0.2188
  609MOL0     H82197   5.380   1.300   3.174  1.7874 -0.5223 -0.5288
  609MOL0     H82198   5.178   1.246   3.034  1.6204 -0.3662  3.5816
  609MOL0     H82199   5.019   1.478   2.583  0.2001 -1.2355  0.7789
  609MOL0     H82200   4.854   1.498   2.400 -1.5474  2.1896 -0.2729
  609MOL0     H82201   4.550   1.017   2.441 -1.4409  1.5863  2.5556
  609MOL0     H82202   4.783   1.054   2.560  0.3860 -0.2223 -1.7671
  609MOL0     H82203   5.258   0.815   2.512 -1.4211  1.0000 -0.2192
  609MOL0     H82204   5.478   0.875   2.595 -1.5218 -1.1318 -1.7123
  609MOL0     H82205   5.486   1.226   2.842  0.8253 -0.3536 -2.9323
  609MOL0     H82206   5.517   1.124   2.985 -2.8267  1.9325 -0.4735
  609MOL0     H82207   5.695   1.299   2.920  1.9198  0.4255 -0.0822
  609MOL0     H82208   5.717   1.201   2.781  0.8699  1.9212  0.2305
  609MOL0     H82209   5.779   1.007   2.905  0.4615 -0.1359 -1.4788
  609MOL0     H82210   5.730   1.082   3.062  0.1763  0.9528 -0.0871
  609MOL0     H82211   5.912   1.256   3.024 -0.5643 -0.4497 -0.3768
  609MOL0     H82212   5.981   1.138   2.902  2.4116  1.2464  1.1606
  609MOL0     H82213   6.074   0.932   3.254  2.2763 -1.2179 -1.3719
  609MOL0     H82214   5.306   1.080   2.924  2.3724  2.7500 -2.0010
  609MOL0     H82215   5.086   0.991   2.845  2.5513 -0.8848  2.0719
  610MOL0     O82216   0.924   3.838   1.294 -0.5050 -0.5563 -0.3153
  610MOL0     C82217   0.986   3.792   1.389  0.0150  0.0350 -1.2363
  610MOL0     O82218   0.929   3.749   1.504 -0.3920 -0.4975 -0.7073
  610MOL0     C82219   0.797   3.736   1.494 -0.3927  0.5874 -0.0826
  610MOL0     C82220   0.738   3.610   1.460  0.4352 -0.3462 -0.3020
  610MOL0     C82221   0.604   3.622   1.416 -0.2411  0.5856  0.4106
  610MOL0     C82222   0.523   3.731   1.441  0.6071  0.4581  0.1468
  610MOL0     O82223   0.390   3.749   1.430 -0.3649 -0.9501 -0.2942
  610MOL0     C82224   0.308   3.669   1.339 -0.1623 -0.5281 -0.1148
  610MOL0     C82225   0.167   3.725   1.364  0.3065  0.1875  0.6705
  610MOL0     C82226   0.053   3.652   1.282  0.0813 -0.0242 -0.2524
  610MOL0     C82227   0.033   3.499   1.324 -0.2773  0.2883 -0.4126
  610MOL0     C82228  -0.084   3.446   1.240  0.1557 -0.0145  0.0751
  610MOL0     C82229  -0.109   3.296   1.262 -0.1017 -0.4036 -0.1979
  610MOL0     C82230  -0.235   3.236   1.193  0.5667 -0.0798 -0.0789
  610MOL0     C82231  -0.206   3.107   1.113  0.7679 -0.4362 -0.6368
  610MOL0     N82232  -0.176   2.997   1.208 -0.1121 -0.3127 -1.1460
  610MOL0     C82233  -0.261   2.899   1.248  0.2689  0.3739 -0.8153
  610MOL0     C82234  -0.196   2.812   1.327 -0.9188  0.0959  0.1578
  610MOL0     C82235  -0.252   2.677   1.389  0.3380 -1.0594  0.5250
  610MOL0     C82236  -0.150   2.568   1.356 -1.1765 -0.8630  0.1035
  610MOL0     C82237  -0.209   2.426   1.366 -1.4348 -0.3679  0.1244
  610MOL0     C82238  -0.114   2.329   1.294  0.6559  0.2818 -0.5326
  610MOL0     O82239  -0.170   2.198   1.304 -1.0798  0.4278  0.1647
  610MOL0     C82240  -0.261   2.152   1.208  0.8582 -0.2492 -0.0602
  610MOL0     C82241  -0.325   2.032   1.241  0.3079  0.3882  0.0918
  610MOL0     C82242  -0.430   1.982   1.172  0.6174 -0.2093 -0.3915
  610MOL0     C82243  -0.497   1.854   1.220 -0.0876 -0.2446 -0.7478
  610MOL0     C82244  -0.476   2.055   1.057 -0.0900 -0.2496  0.7705
  610MOL0     C82245  -0.582   2.007   0.973 -0.4810  0.2294 -0.2326
  610MOL0     O82246  -0.559   1.906   0.883 -0.4648 -0.4867 -0.2567
  610MOL0     C82247  -0.629   1.788   0.865 -0.1045  0.3869 -0.4551
  610MOL0     C82248  -0.608   1.708   0.748 -1.1337 -1.1972 -0.2029
  610MOL0     C82249  -0.691   1.597   0.722  0.4732  0.2436 -0.9845
  610MOL0     C82250  -0.788   1.554   0.820  0.0143  0.8851 -0.2977
  610MOL0     O82251  -0.853   1.431   0.808  0.0848 -0.1607 -0.0587
  610MOL0     C82252  -0.989   1.437   0.772 -0.7622 -1.6342 -0.7453
  610MOL0     C82253  -1.044   1.301   0.765 -0.2688  0.0011  0.1154
  610MOL0     C82254  -1.039   1.235   0.899  0.9687  0.4709 -0.8291
  610MOL0     C82255  -1.131   1.315   1.003 -0.6543  0.1051 -0.3208
  610MOL0     C82256  -1.186   1.218   1.111  0.1117  0.0236  0.1528
  610MOL0     C82257  -1.306   1.271   1.194  0.3951 -0.0723 -0.6298
  610MOL0     C82258  -1.346   1.184   1.311  0.8212  0.9113  0.3112
  610MOL0     C82259  -1.368   1.260   1.439  0.2505 -0.7925  0.2271
  610MOL0    Cl82260  -1.382   1.147   1.575 -0.4289  0.0539 -0.3336
  610MOL0     C82261  -0.803   1.632   0.937 -0.5395  0.0374 -0.8037
  610MOL0     C82262  -0.731   1.750   0.958 -0.1490  0.3202  0.4488
  610MOL0     O82263  -0.688   2.056   0.994  0.4425 -0.4611  0.7515
  610MOL0     C82264  -0.419   2.179   1.027  0.1900 -0.2547  0.5044
  610MOL0     C82265  -0.310   2.230   1.098  0.1828  0.2387  0.5262
  610MOL0     N82266  -0.072   2.866   1.346 -0.0560 -0.1232  0.4888
  610MOL0     N82267  -0.055   2.973   1.270 -0.2008 -0.5555 -0.9280
  610MOL0     C82268   0.586   3.846   1.495  0.1327  0.1118  0.4077
  610MOL0     C82269   0.718   3.843   1.527 -0.0110  0.2895  0.6329
  610MOL0     C82270   1.130   3.805   1.389 -0.0412  0.2897  0.6864
  610MOL0     C82271   1.203   3.784   1.508  0.4555 -0.1240  0.1884
  610MOL0     C82272   1.339   3.801   1.505  0.0543 -0.6781 -0.8157
  610MOL0     C82273   1.409   3.834   1.389 -0.3200 -1.0868  0.1520
  610MOL0     O82274   1.542   3.852   1.400 -0.0691  0.3608  0.2370
  610MOL0     C82275   1.615   3.859   1.282  0.2334 -0.3500  0.3320
  610MOL0     C82276   1.759   3.835   1.308 -0.2846  0.5162 -0.5947
  610MOL0     C82277   1.838   3.844   1.169  0.7484 -0.2961 -1.1479
  610MOL0     C82278   1.990   3.815   1.196  0.3651 -0.2665 -0.5445
  610MOL0     C82279   2.064   3.924   1.129 -0.3790 -0.2625  0.4290
  610MOL0     C82280   2.132   4.002   1.065 -0.2387 -0.4751 -0.2469
  610MOL0     C82281   1.332   3.857   1.275 -0.2475  0.2657 -0.4611
  610MOL0     C82282   1.194   3.854   1.275 -0.5086  0.4237 -0.0562
  610MOL0     H82283   0.794   3.518   1.454  0.3364 -0.3571 -1.4489
  610MOL0     H82284   0.557   3.530   1.384 -0.4655  0.4868  1.0149
  610MOL0     H82285   0.342   3.680   1.235 -1.9281  0.2817 -0.6363
  610MOL0     H82286   0.324   3.567   1.376 -0.9976 -0.9430 -0.8548
  610MOL0     H82287   0.143   3.715   1.471 -2.4030  0.0148  0.1228
  610MOL0     H82288   0.161   3.832   1.346  1.3209  0.2704  0.7997
  610MOL0     H82289  -0.044   3.702   1.278 -0.8477 -1.7742 -3.8542
  610MOL0     H82290   0.091   3.642   1.180  1.2268  2.5496 -0.1739
  610MOL0     H82291   0.125   3.444   1.303  0.1856  1.2498 -0.9456
  610MOL0     H82292   0.011   3.491   1.431 -1.3750 -0.7998 -0.6944
  610MOL0     H82293  -0.179   3.490   1.272 -1.5014 -2.8766 -0.6010
  610MOL0     H82294  -0.065   3.477   1.137 -2.7788  0.3662 -0.4353
  610MOL0     H82295  -0.017   3.247   1.230  0.1910  0.2533 -0.3838
  610MOL0     H82296  -0.138   3.281   1.366  0.0611  1.4765  0.1459
  610MOL0     H82297  -0.317   3.217   1.263  0.2041  2.3797  0.2314
  610MOL0     H82298  -0.275   3.305   1.119 -0.2573 -2.7188 -2.2753
  610MOL0     H82299  -0.121   3.119   1.045 -0.1954 -0.9266 -1.9750
  610MOL0     H82300  -0.289   3.080   1.047 -2.2670  1.9685  1.9270
  610MOL0     H82301  -0.361   2.874   1.214 -0.2677  0.4582  0.6152
  610MOL0     H82302  -0.261   2.694   1.496  2.2369 -0.0128  0.5646
  610MOL0     H82303  -0.350   2.646   1.350  1.6182 -2.4521 -1.8354
  610MOL0     H82304  -0.059   2.577   1.415 -0.7281 -0.5664 -0.6198
  610MOL0     H82305  -0.135   2.577   1.248 -2.1976  0.7683  0.0506
  610MOL0     H82306  -0.311   2.428   1.328 -1.0205  2.3286 -1.0905
  610MOL0     H82307  -0.222   2.395   1.470 -0.9664 -0.1069  0.2641
  610MOL0     H82308  -0.024   2.337   1.356  0.5385 -0.7005 -0.2106
  610MOL0     H82309  -0.101   2.364   1.192 -1.6367 -0.3341 -1.1025
  610MOL0     H82310  -0.303   1.980   1.334 -1.0195 -3.5531 -1.6110
  610MOL0     H82311  -0.440   1.816   1.305  1.1294 -1.4822 -2.0805
  610MOL0     H82312  -0.598   1.872   1.258  0.5554 -0.6467  1.2846
  610MOL0     H82313  -0.494   1.778   1.142  0.5719 -0.8331 -0.1639
  610MOL0     H82314  -0.528   1.742   0.683 -2.0752  0.8410 -0.3641
  610MOL0     H82315  -0.673   1.525   0.642  0.4652 -3.2727  1.9536
  610MOL0     H82316  -1.042   1.497   0.846  0.3698 -2.7192  1.0057
  610MOL0     H82317  -1.000   1.481   0.672 -0.5293 -1.4494 -0.6919
  610MOL0     H82318  -1.147   1.307   0.728 -0.0988  2.2399 -0.1169
  610MOL0     H82319  -0.994   1.242   0.688 -0.5495  1.1685 -0.9895
  610MOL0     H82320  -0.935   1.232   0.933  0.8643 -0.1177 -0.5347
  610MOL0     H82321  -1.080   1.133   0.899  1.9128  0.0503 -2.5814
  610MOL0     H82322  -1.074   1.395   1.052 -0.0342  1.4977 -3.1290
  610MOL0     H82323  -1.223   1.355   0.961  0.1266 -0.2558 -2.4577
  610MOL0     H82324  -1.094   1.203   1.169 -0.0589  0.5998  0.5792
  610MOL0     H82325  -1.233   1.125   1.076  2.7791 -1.3714 -0.0099
  610MOL0     H82326  -1.273   1.363   1.242 -0.4053 -1.3729  2.7014
  610MOL0     H82327  -1.390   1.303   1.131  0.2098  2.0925  0.6217
  610MOL0     H82328  -1.263   1.116   1.334 -0.5757 -0.5048  1.3140
  610MOL0     H82329  -1.429   1.119   1.282  0.2320  1.3044  1.0797
  610MOL0     H82330  -1.455   1.326   1.428  1.1917  0.3363 -0.7882
  610MOL0     H82331  -1.292   1.336   1.458 -1.0457  0.1987  1.6737
  610MOL0     H82332  -0.866   1.599   1.019 -0.7577  1.2582 -0.4606
  610MOL0     H82333  -0.758   1.812   1.043 -1.3222  1.7453 -0.8913
  610MOL0     H82334  -0.449   2.233   0.938  0.7310  0.1486  0.5621
  610MOL0     H82335  -0.271   2.328   1.071 -2.2054  0.8430 -0.9590
  610MOL0     H82336   0.533   3.940   1.507 -1.3864 -0.4010 -1.5897
  610MOL0     H82337   0.768   3.927   1.575 -1.2936  1.5503 -0.1443
  610MOL0     H82338   1.154   3.743   1.597  0.5693 -0.6472  0.0122
  610MOL0     H82339   1.395   3.777   1.595  0.6303 -4.7054 -2.0302
  610MOL0     H82340   1.577   3.788   1.207 -1.9151  2.0604 -1.0373
  610MOL0     H82341   1.596   3.955   1.232 -0.1611 -0.6249 -0.0625
  610MOL0     H82342   1.763   3.734   1.349  0.8045  1.4753  1.8725
  610MOL0     H82343   1.800   3.896   1.389 -0.6764 -1.6058  1.2834
  610MOL0     H82344   1.820   3.947   1.138 -0.2337 -0.6463 -1.7731
  610MOL0     H82345   1.798   3.777   1.093  3.0920 -1.8089 -1.1478
  610MOL0     H82346   2.019   3.720   1.148  1.2394 -0.4067  0.2412
  610MOL0     H82347   2.009   3.810   1.303 -2.7202 -0.1455  0.1179
  610MOL0     H82348   2.183   4.083   1.019 -0.1534  0.8736  2.0889
  610MOL0     H82349   1.361   3.880   1.173 -3.0164 -1.8838 -1.8899
  610MOL0     H82350   1.140   3.893   1.189  1.0339 -1.6111 -2.0453
  611MOL0     O82351   8.416   2.675   4.742  0.1143  0.6845 -0.3574
  611MOL0     C82352   8.431   2.757   4.650 -0.4978 -0.7981 -0.3364
  611MOL0     O82353   8.342   2.847   4.596  0.3441 -0.3807 -0.0272
  611MOL0     C82354   8.214   2.843   4.644  0.0212 -0.4973 -0.4099
  611MOL0     C82355   8.118   2.758   4.585  0.2710  0.2660  0.5418
  611MOL0     C82356   7.991   2.753   4.627  0.5421  0.6626  0.3029
  611MOL0     C82357   7.954   2.824   4.744 -0.3143  0.1786  0.6934
  611MOL0     O82358   7.832   2.822   4.806 -0.5722  0.1446 -0.0525
  611MOL0     C82359   7.723   2.737   4.762 -0.3599 -0.3921  0.0907
  611MOL0     C82360   7.643   2.829   4.673 -0.5231  0.1198  0.6000
  611MOL0     C82361   7.566   2.939   4.736 -1.3780 -0.4400  0.1421
  611MOL0     C82362   7.418   2.885   4.760  0.7697 -0.0127 -0.2148
  611MOL0     C82363   7.314   3.000   4.760  0.1236  0.2013 -0.3971
  611MOL0     C82364   7.203   2.980   4.855 -0.4209 -0.5455 -0.8970
  611MOL0     C82365   7.237   2.994   5.006 -0.0297  0.2994  0.0692
  611MOL0     C82366   7.128   2.930   5.088  0.2820  0.2620 -0.3269
  611MOL0     N82367   6.992   2.964   5.053 -0.6156  0.4739 -0.9415
  611MOL0     C82368   6.909   3.049   5.120 -0.1711 -0.1979 -0.7428
  611MOL0     C82369   6.787   3.046   5.053  0.0629  0.0459  0.4949
  611MOL0     C82370   6.656   3.117   5.096  0.1826 -0.2996  0.6252
  611MOL0     C82371   6.539   3.011   5.127 -0.6289 -0.2010  0.3148
  611MOL0     C82372   6.572   2.926   5.252  0.0493 -1.0286 -0.1354
  611MOL0     C82373   6.450   2.838   5.276  0.0916  0.3398  0.3198
  611MOL0     O82374   6.343   2.924   5.325 -0.2659  0.0199  0.3711
  611MOL0     C82375   6.207   2.890   5.310 -0.2637 -0.1538  0.4738
  611MOL0     C82376   6.106   2.988   5.326  0.2439  0.3703  0.0303
  611MOL0     C82377   5.971   2.971   5.290 -0.1758  0.4511 -0.0851
  611MOL0     C82378   5.884   3.082   5.325 -0.6373 -1.2686  0.1238
  611MOL0     C82379   5.929   2.848   5.233 -0.0599 -0.7486 -0.0701
  611MOL0     C82380   5.794   2.823   5.188 -0.7416 -0.4730 -0.6408
  611MOL0     O82381   5.761   2.691   5.174 -0.1249 -0.2107  0.2104
  611MOL0     C82382   5.629   2.651   5.178 -0.0825  0.7517 -0.2015
  611MOL0     C82383   5.564   2.612   5.061  0.0146  0.2067  0.0854
  611MOL0     C82384   5.430   2.581   5.065  0.4099 -0.0623 -0.0990
  611MOL0     C82385   5.358   2.569   5.190 -0.5969 -0.0275 -0.7209
  611MOL0     O82386   5.225   2.549   5.198 -0.4194 -0.7701 -0.1882
  611MOL0     C82387   5.146   2.611   5.098 -0.4549 -0.2570  0.1672
  611MOL0     C82388   5.106   2.516   4.989  0.0255  0.3056  0.8244
  611MOL0     C82389   5.019   2.408   5.044 -0.1327  0.4866 -0.5383
  611MOL0     C82390   4.880   2.461   5.065 -0.0567  0.9409 -0.9118
  611MOL0     C82391   4.801   2.487   4.935 -0.2824  0.2274  0.7859
  611MOL0     C82392   4.778   2.359   4.851  0.3322  0.2613 -1.0097
  611MOL0     C82393   4.664   2.360   4.749 -0.0701 -0.7734  0.5499
  611MOL0     C82394   4.696   2.482   4.654  0.8328 -0.1988  0.4426
  611MOL0    Cl82395   4.852   2.460   4.571  0.1451  0.1554 -0.5198
  611MOL0     C82396   5.429   2.594   5.306 -0.0859 -0.4763 -0.0015
  611MOL0     C82397   5.563   2.638   5.300 -0.0933  0.5300  0.2458
  611MOL0     O82398   5.717   2.920   5.159 -0.1428  0.8236  0.1407
  611MOL0     C82399   6.027   2.748   5.221 -0.1480  0.3149 -0.9692
  611MOL0     C82400   6.165   2.770   5.251 -0.1019 -0.0117  0.3798
  611MOL0     N82401   6.798   2.948   4.957  0.2427 -0.4360 -0.3017
  611MOL0     N82402   6.920   2.907   4.955 -0.0309 -0.4474  0.4301
  611MOL0     C82403   8.056   2.905   4.807 -0.0827 -0.5575  0.0293
  611MOL0     C82404   8.182   2.920   4.754  0.5586 -0.2441 -0.0862
  611MOL0     C82405   8.573   2.761   4.603  0.3531 -0.4042  0.5117
  611MOL0     C82406   8.615   2.850   4.504 -0.5168 -0.0889  0.9903
  611MOL0     C82407   8.747   2.852   4.458 -0.3339  0.7537 -0.2550
  611MOL0     C82408   8.844   2.773   4.514  0.6279 -0.2571  0.9561
  611MOL0     O82409   8.974   2.788   4.467 -0.4854  0.0811 -1.0089
  611MOL0     C82410   9.078   2.712   4.524 -0.4504 -0.0441  0.0403
  611MOL0     C82411   9.220   2.748   4.467  0.4850  0.6722 -0.1247
  611MOL0     C82412   9.318   2.707   4.575 -0.3960  0.3231 -0.2729
  611MOL0     C82413   9.457   2.769   4.550  0.0584 -0.8351  0.5017
  611MOL0     C82414   9.511   2.718   4.429 -0.1254 -0.1077 -0.0178
  611MOL0     C82415   9.564   2.669   4.328  0.2976 -0.1135  0.6189
  611MOL0     C82416   8.803   2.684   4.614 -0.0956  0.0965 -0.0305
  611MOL0     C82417   8.672   2.680   4.661 -0.3884 -0.3898 -0.2937
  611MOL0     H82418   8.145   2.713   4.489  0.4343  1.5926 -0.0559
  611MOL0     H82419   7.927   2.687   4.568  1.4010 -1.1107  1.2680
  611MOL0     H82420   7.769   2.648   4.717 -0.5957 -0.0391 -0.8581
  611MOL0     H82421   7.660   2.705   4.846 -1.6721  0.4744 -0.5374
  611MOL0     H82422   7.704   2.868   4.591  0.7512 -1.2451  0.8466
  611MOL0     H82423   7.581   2.758   4.617 -0.0099 -0.4997  0.8066
  611MOL0     H82424   7.623   2.974   4.822 -0.1488  3.7371 -2.1262
  611MOL0     H82425   7.556   3.017   4.660 -0.4673 -0.4891 -0.0380
  611MOL0     H82426   7.385   2.813   4.684 -4.0857  2.5908 -0.9813
  611MOL0     H82427   7.419   2.830   4.855  0.3747 -0.8447 -0.6792
  611MOL0     H82428   7.363   3.097   4.769 -0.1470  0.3196 -0.1868
  611MOL0     H82429   7.273   3.005   4.659  0.5509 -1.7582 -0.7215
  611MOL0     H82430   7.134   3.061   4.831  1.3799  1.0772 -0.8094
  611MOL0     H82431   7.159   2.881   4.840 -2.8643  0.1129  1.1761
  611MOL0     H82432   7.329   2.944   5.038  1.7642  2.1558 -1.8761
  611MOL0     H82433   7.250   3.096   5.043  0.2377 -0.7872  3.2640
  611MOL0     H82434   7.144   2.940   5.196  0.4490  1.4908 -0.4457
  611MOL0     H82435   7.135   2.824   5.064  0.3212  0.3685 -0.7877
  611MOL0     H82436   6.915   3.103   5.214  0.5713 -1.1379 -0.2386
  611MOL0     H82437   6.665   3.185   5.181 -1.1734  1.6847 -0.7329
  611MOL0     H82438   6.614   3.183   5.019  0.9773 -2.2590 -1.6108
  611MOL0     H82439   6.538   2.939   5.045 -1.0066  1.7870 -1.5266
  611MOL0     H82440   6.446   3.069   5.126  0.3064  1.3614 -0.1389
  611MOL0     H82441   6.587   3.000   5.331  2.0406  1.8140 -2.9079
  611MOL0     H82442   6.672   2.885   5.235  1.0464  2.0910 -3.0427
  611MOL0     H82443   6.471   2.773   5.361  1.6754  1.0009  0.4587
  611MOL0     H82444   6.424   2.777   5.189  0.3745 -1.4174  1.4222
  611MOL0     H82445   6.132   3.077   5.382  1.7018 -1.5767  2.7139
  611MOL0     H82446   5.941   3.148   5.392  1.8489 -1.1791 -1.9168
  611MOL0     H82447   5.861   3.140   5.235 -0.7525  0.4340  1.2069
  611MOL0     H82448   5.784   3.066   5.366  0.0025 -0.3003  2.2400
  611MOL0     H82449   5.605   2.619   4.961  0.9875  0.6418  0.4954
  611MOL0     H82450   5.387   2.546   4.972  2.6181 -1.0402 -0.8213
  611MOL0     H82451   5.062   2.652   5.154  0.0516  0.0025  0.7447
  611MOL0     H82452   5.201   2.701   5.068  0.0537 -0.7955 -0.5673
  611MOL0     H82453   5.061   2.568   4.905 -1.6636 -0.7995  1.0005
  611MOL0     H82454   5.192   2.459   4.951 -2.4105 -2.4265 -0.9880
  611MOL0     H82455   5.074   2.368   5.129 -0.0362 -1.9328 -1.6737
  611MOL0     H82456   5.003   2.329   4.971 -0.0495  0.8315 -0.9364
  611MOL0     H82457   4.825   2.392   5.130  1.6467  1.4765  1.1935
  611MOL0     H82458   4.882   2.553   5.123 -2.3361 -0.8597  2.3420
  611MOL0     H82459   4.848   2.566   4.875 -2.0887  2.2469  1.9233
  611MOL0     H82460   4.709   2.539   4.961 -0.3124  1.3504 -1.3339
  611MOL0     H82461   4.876   2.335   4.809  1.4389  0.5529  1.2422
  611MOL0     H82462   4.744   2.281   4.920  0.2337 -0.8769 -2.2976
  611MOL0     H82463   4.559   2.356   4.778 -0.9712 -3.5433 -2.5089
  611MOL0     H82464   4.671   2.268   4.691 -0.2480 -0.0307 -0.6947
  611MOL0     H82465   4.687   2.580   4.702  0.5025 -0.0612  0.0960
  611MOL0     H82466   4.615   2.487   4.582 -0.5297 -1.3303  1.8211
  611MOL0     H82467   5.369   2.587   5.397 -2.1044  2.1782 -1.0020
  611MOL0     H82468   5.618   2.632   5.394 -1.7508 -1.2173  1.1830
  611MOL0     H82469   5.994   2.647   5.196  0.6684  0.3556 -2.3202
  611MOL0     H82470   6.231   2.684   5.248 -2.8922 -2.2992 -0.7265
  611MOL0     H82471   8.027   2.951   4.901 -5.2203 -1.1784 -0.9917
  611MOL0     H82472   8.244   2.991   4.808 -0.4838 -0.2538  1.1538
  611MOL0     H82473   8.546   2.916   4.451  0.7694 -1.5221 -2.8742
  611MOL0     H82474   8.788   2.923   4.387  2.4568  2.0574  2.4249
  611MOL0     H82475   9.079   2.719   4.633  0.0740  1.5084 -0.0407
  611MOL0     H82476   9.060   2.605   4.509  0.7941 -0.4108  0.9129
  611MOL0     H82477   9.223   2.856   4.452 -0.1623  0.8490  0.8865
  611MOL0     H82478   9.233   2.692   4.374 -0.3677  0.4938 -0.1418
  611MOL0     H82479   9.321   2.599   4.591  2.1869  0.7374  3.0710
  611MOL0     H82480   9.288   2.758   4.667  2.6250  0.8090  0.5428
  611MOL0     H82481   9.528   2.745   4.629  1.6563 -1.8633 -1.1643
  611MOL0     H82482   9.454   2.878   4.544 -1.3263 -0.8682  0.1826
  611MOL0     H82483   9.600   2.635   4.233 -2.2218  1.4832 -1.0372
  611MOL0     H82484   8.867   2.617   4.671  1.5370 -0.5620 -2.4916
  611MOL0     H82485   8.638   2.612   4.739 -1.0993  1.0350  0.6897
  612MOL0     O82486   0.643   6.748   3.851 -0.7722 -0.0954  0.1376
  612MOL0     C82487   0.763   6.757   3.884  1.1520  0.7901 -0.0249
  612MOL0     O82488   0.811   6.779   4.011  0.3502  0.5173 -0.2196
  612MOL0     C82489   0.729   6.824   4.115  0.4687 -0.9008  0.3585
  612MOL0     C82490   0.609   6.901   4.092  0.7534 -0.3627 -0.1582
  612MOL0     C82491   0.532   6.937   4.202  0.2803  0.4649  0.1881
  612MOL0     C82492   0.570   6.898   4.330  0.2638  0.1050  0.0162
  612MOL0     O82493   0.511   6.942   4.447  0.4692 -0.3345  0.7398
  612MOL0     C82494   0.372   6.955   4.453  0.6236  0.1517 -0.7593
  612MOL0     C82495   0.328   6.979   4.597  1.0543 -0.4209  0.1051
  612MOL0     C82496   0.182   6.993   4.610 -0.3613  0.7235  0.9818
  612MOL0     C82497   0.146   6.983   4.761  0.7454 -0.7350 -0.3125
  612MOL0     C82498  -0.009   6.986   4.784  0.5167 -0.0690  0.3411
  612MOL0     C82499  -0.069   6.985   4.925  1.0437 -0.4935 -0.2938
  612MOL0     C82500  -0.209   7.009   4.934 -0.7548 -0.8825 -0.8761
  612MOL0     C82501  -0.290   6.898   4.870  0.5884 -0.1206  0.1452
  612MOL0     N82502  -0.438   6.904   4.893  0.0418 -0.5065  0.2250
  612MOL0     C82503  -0.514   6.908   5.006 -0.0472  1.4825  0.0485
  612MOL0     C82504  -0.638   6.942   4.963  0.5575  0.3736 -0.4845
  612MOL0     C82505  -0.752   6.968   5.056  0.4760 -0.0798 -0.3232
  612MOL0     C82506  -0.857   6.862   5.052  0.4478  0.6404  0.2188
  612MOL0     C82507  -0.975   6.903   5.146 -0.3074  0.2318 -0.2217
  612MOL0     C82508  -1.101   6.851   5.071 -0.1154  0.6795 -1.1027
  612MOL0     O82509  -1.138   6.951   4.974  0.8469  0.0756  0.6434
  612MOL0     C82510  -1.265   6.941   4.920 -0.0843 -0.3458 -0.2817
  612MOL0     C82511  -1.309   7.058   4.857 -0.2586 -0.2257 -0.0868
  612MOL0     C82512  -1.432   7.070   4.794  0.1960 -0.9829  0.3372
  612MOL0     C82513  -1.465   7.206   4.723  0.2537  0.3736 -0.3733
  612MOL0     C82514  -1.527   6.959   4.809  0.2741  0.5578  0.2326
  612MOL0     C82515  -1.658   6.955   4.757  0.1265 -0.4138  0.0482
  612MOL0     O82516  -1.762   6.913   4.832  0.0289 -0.3330  0.5838
  612MOL0     C82517  -1.880   6.928   4.768 -0.1324  0.5509 -0.3069
  612MOL0     C82518  -1.956   7.044   4.775 -0.6620 -0.7398  0.6387
  612MOL0     C82519  -2.080   7.060   4.706  0.4192  0.0160 -0.6334
  612MOL0     C82520  -2.130   6.950   4.635  0.0381 -0.0500  0.5437
  612MOL0     O82521  -2.254   6.949   4.574  0.2162  0.3377 -0.0331
  612MOL0     C82522  -2.332   7.074   4.578 -0.3062  0.3716  0.3288
  612MOL0     C82523  -2.464   7.044   4.520  0.7221 -0.5075  0.3706
  612MOL0     C82524  -2.556   6.969   4.623  0.6525  0.3469  0.1265
  612MOL0     C82525  -2.705   6.977   4.580  0.8991  1.1666 -1.5425
  612MOL0     C82526  -2.802   6.882   4.651  0.4401  0.1506 -0.5919
  612MOL0     C82527  -2.942   6.920   4.587  1.2995 -0.2670  0.5558
  612MOL0     C82528  -3.054   6.829   4.648 -0.9202  0.2657 -0.2457
  612MOL0     C82529  -3.194   6.836   4.581  0.7691 -0.0111  0.7624
  612MOL0    Cl82530  -3.296   6.965   4.652 -0.0914 -0.2229  0.2071
  612MOL0     C82531  -2.058   6.827   4.642  0.7652  0.0760 -0.3624
  612MOL0     C82532  -1.939   6.812   4.711 -0.5970  0.3757  0.2098
  612MOL0     O82533  -1.656   6.975   4.635  0.4694  0.4832 -0.1702
  612MOL0     C82534  -1.477   6.833   4.858 -0.5574  0.2146 -1.4593
  612MOL0     C82535  -1.346   6.824   4.913  0.6168  0.0888  0.5469
  612MOL0     N82536  -0.636   6.975   4.830 -0.2812 -0.7584 -0.0523
  612MOL0     N82537  -0.517   6.949   4.791  0.8502  0.6237  0.8400
  612MOL0     C82538   0.686   6.824   4.350  0.0304 -0.0042  0.2657
  612MOL0     C82539   0.764   6.785   4.238  0.2262 -0.6466  0.3862
  612MOL0     C82540   0.862   6.751   3.779  0.1058  0.5369  0.1138
  612MOL0     C82541   0.831   6.722   3.642 -0.5655 -0.0927 -0.6653
  612MOL0     C82542   0.930   6.714   3.543 -0.2510 -0.3614  0.6735
  612MOL0     C82543   1.060   6.752   3.571 -0.1804 -0.1904 -1.1988
  612MOL0     O82544   1.147   6.754   3.464 -0.1990  0.5738 -0.3156
  612MOL0     C82545   1.267   6.837   3.474 -1.2306  0.6417  0.3413
  612MOL0     C82546   1.394   6.756   3.502 -1.2234 -0.4836  0.3585
  612MOL0     C82547   1.519   6.832   3.485  0.3098 -0.7713  1.0733
  612MOL0     C82548   1.560   6.934   3.588 -0.3042  0.4480  1.1723
  612MOL0     C82549   1.691   6.984   3.554  0.3103  0.1555  0.9436
  612MOL0     C82550   1.805   7.016   3.525  0.5490  0.0663  0.5703
  612MOL0     C82551   1.091   6.790   3.704  0.6802  0.3460 -0.5809
  612MOL0     C82552   0.995   6.781   3.804 -0.5205  0.3725 -0.5186
  612MOL0     H82553   0.574   6.925   3.992  2.7777  0.0068 -0.8327
  612MOL0     H82554   0.435   6.984   4.187  0.5361  0.6355 -1.0886
  612MOL0     H82555   0.342   7.042   4.393 -2.5831  0.9940  1.8175
  612MOL0     H82556   0.337   6.859   4.413  3.1421 -1.7497  1.2376
  612MOL0     H82557   0.340   6.879   4.638 -1.1304 -1.0810 -0.6912
  612MOL0     H82558   0.375   7.069   4.638  2.1897 -0.2600 -1.4654
  612MOL0     H82559   0.148   7.084   4.561 -0.6380  0.8669  1.4319
  612MOL0     H82560   0.145   6.908   4.552  2.4726 -0.1715  0.3538
  612MOL0     H82561   0.204   6.898   4.799  1.7468 -0.5537 -1.3847
  612MOL0     H82562   0.185   7.069   4.816  1.5771 -0.9765 -0.5133
  612MOL0     H82563  -0.058   7.068   4.730 -1.9579 -1.8769 -0.3565
  612MOL0     H82564  -0.039   6.889   4.743 -0.4771 -0.7507  2.4989
  612MOL0     H82565  -0.048   6.887   4.970 -0.2434  0.2223  2.0084
  612MOL0     H82566  -0.009   7.061   4.976  0.5446  1.7887 -2.8669
  612MOL0     H82567  -0.235   7.002   5.041 -0.2202  0.4355 -0.6401
  612MOL0     H82568  -0.233   7.108   4.894  0.5309 -1.5396 -3.4174
  612MOL0     H82569  -0.263   6.798   4.904 -1.5691 -1.4707 -1.8206
  612MOL0     H82570  -0.277   6.906   4.762  1.5246  0.8334  0.3178
  612MOL0     H82571  -0.484   6.888   5.108  2.4992  0.1425 -0.8869
  612MOL0     H82572  -0.715   6.960   5.158 -2.6901  1.0756  1.0444
  612MOL0     H82573  -0.789   7.068   5.030 -0.5206  0.0491  1.4567
  612MOL0     H82574  -0.815   6.763   5.071  1.3053  1.2286  1.5032
  612MOL0     H82575  -0.899   6.846   4.952  0.3717  0.7331  0.2356
  612MOL0     H82576  -0.987   7.011   5.162  1.0121  0.7131 -2.1475
  612MOL0     H82577  -0.960   6.856   5.244  1.0500  1.7680  0.3701
  612MOL0     H82578  -1.174   6.853   5.153  1.5269  2.1190  0.4193
  612MOL0     H82579  -1.092   6.752   5.024  1.2556  0.7900 -1.1060
  612MOL0     H82580  -1.249   7.147   4.847 -0.3310 -0.2460 -0.7514
  612MOL0     H82581  -1.520   7.270   4.793  0.7449  1.2128 -0.7416
  612MOL0     H82582  -1.376   7.264   4.697  0.9326 -1.0286 -1.2381
  612MOL0     H82583  -1.519   7.183   4.631  2.7512  0.0774 -1.8454
  612MOL0     H82584  -1.915   7.133   4.820  1.5610  0.9692 -4.0759
  612MOL0     H82585  -2.116   7.163   4.702  2.2202  0.7838  1.0563
  612MOL0     H82586  -2.336   7.108   4.682  0.3613 -0.1588  0.5359
  612MOL0     H82587  -2.272   7.140   4.514  1.1528 -0.2584  0.9783
  612MOL0     H82588  -2.513   7.138   4.493 -0.1217 -1.1298 -0.3236
  612MOL0     H82589  -2.458   7.002   4.419 -2.2142  2.5943 -1.2913
  612MOL0     H82590  -2.543   7.027   4.715  1.4953  1.6705 -0.7750
  612MOL0     H82591  -2.516   6.868   4.631 -2.9983 -1.1505  1.2619
  612MOL0     H82592  -2.739   7.080   4.592  2.3279  1.8841 -3.2513
  612MOL0     H82593  -2.724   6.952   4.475 -2.8904 -2.6045 -0.2572
  612MOL0     H82594  -2.807   6.906   4.757 -3.9348 -0.9268 -0.3412
  612MOL0     H82595  -2.771   6.777   4.640 -0.4589 -0.0945 -0.9101
  612MOL0     H82596  -2.967   7.026   4.597  1.7220 -0.2228  1.1679
  612MOL0     H82597  -2.940   6.900   4.479  0.1703 -3.3109  1.0250
  612MOL0     H82598  -3.068   6.847   4.755  2.2127 -0.8194  0.4428
  612MOL0     H82599  -3.020   6.725   4.643 -0.4894  0.2196  2.3812
  612MOL0     H82600  -3.246   6.740   4.578 -2.1748  1.5229 -1.0856
  612MOL0     H82601  -3.183   6.867   4.477  3.5219  2.3195  1.5999
  612MOL0     H82602  -2.125   6.751   4.603 -2.8313  1.6579  2.1306
  612MOL0     H82603  -1.881   6.720   4.714  1.6778  1.5940 -2.0678
  612MOL0     H82604  -1.547   6.752   4.878  1.2029 -0.3841  3.7374
  612MOL0     H82605  -1.302   6.736   4.959  2.2378  0.0275 -1.0081
  612MOL0     H82606   0.717   6.799   4.451 -0.1002  1.3389  0.6566
  612MOL0     H82607   0.857   6.732   4.251  0.3745 -0.4169  0.2633
  612MOL0     H82608   0.731   6.695   3.611  0.0853 -0.9428 -2.1264
  612MOL0     H82609   0.895   6.683   3.445  0.5338  0.8327  0.0036
  612MOL0     H82610   1.272   6.893   3.380 -2.0976  1.5277  0.8048
  612MOL0     H82611   1.263   6.925   3.539 -2.3560 -0.0139  1.2023
  612MOL0     H82612   1.395   6.671   3.434  0.3523  0.3330 -0.7190
  612MOL0     H82613   1.383   6.720   3.604 -3.1595  1.1539  0.8054
  612MOL0     H82614   1.512   6.884   3.390  3.2070  0.3142  1.3530
  612MOL0     H82615   1.601   6.764   3.460  1.2128  1.3426 -2.1421
  612MOL0     H82616   1.559   6.883   3.685  0.1458  1.1140  1.5311
  612MOL0     H82617   1.489   7.017   3.588  3.4582  4.0546 -1.4848
  612MOL0     H82618   1.908   7.034   3.504  0.5560 -2.1589 -1.8250
  612MOL0     H82619   1.187   6.829   3.737  0.6824 -0.3554  0.2946
  612MOL0     H82620   1.037   6.813   3.899  2.7568  0.0422 -1.7168
  613MOL0     O82621   8.973   2.453   5.661 -0.2041  0.5513 -0.0725
  613MOL0     C82622   9.047   2.422   5.756  0.8008 -0.4156  0.4538
  613MOL0     O82623   9.008   2.338   5.855 -0.5186  0.2230  0.0068
  613MOL0     C82624   8.907   2.245   5.841 -0.0584 -0.8060  0.2463
  613MOL0     C82625   8.852   2.197   5.958  1.3412  0.1766  0.7855
  613MOL0     C82626   8.757   2.098   5.960 -0.0428  0.6115  0.6636
  613MOL0     C82627   8.707   2.039   5.841 -0.5255 -0.2308 -0.6028
  613MOL0     O82628   8.616   1.934   5.827 -0.4139 -1.8106  0.4496
  613MOL0     C82629   8.548   1.889   5.944 -0.4435  0.6996 -0.5372
  613MOL0     C82630   8.464   1.772   5.905 -0.9511  0.3590  0.6265
  613MOL0     C82631   8.426   1.686   6.030 -0.1771  0.4545  1.0925
  613MOL0     C82632   8.322   1.583   5.984 -0.5172  0.1829 -0.8998
  613MOL0     C82633   8.284   1.496   6.112  0.1829 -0.0818  0.6772
  613MOL0     C82634   8.189   1.383   6.085 -0.2926  0.0736 -0.7477
  613MOL0     C82635   8.147   1.300   6.210  1.0189  0.6128  1.1212
  613MOL0     C82636   8.048   1.177   6.171  0.7480 -0.0208  0.0563
  613MOL0     N82637   7.918   1.229   6.118 -0.1416 -0.4575 -1.2368
  613MOL0     C82638   7.805   1.278   6.182  0.2066 -0.5179  0.2825
  613MOL0     C82639   7.717   1.310   6.078 -0.1612  0.2006  0.1335
  613MOL0     C82640   7.571   1.353   6.088 -0.3742  0.2933 -0.2928
  613MOL0     C82641   7.476   1.232   6.118 -0.1828 -0.3056 -0.0831
  613MOL0     C82642   7.336   1.286   6.164 -0.5100  0.1752  0.2219
  613MOL0     C82643   7.335   1.294   6.317  0.7101 -0.3741 -0.5468
  613MOL0     O82644   7.277   1.183   6.386  0.1051  0.1788  0.6735
  613MOL0     C82645   7.149   1.145   6.369  0.3681  0.3535  0.3097
  613MOL0     C82646   7.044   1.229   6.360  0.2469 -0.1659 -0.4488
  613MOL0     C82647   6.919   1.181   6.344  0.4697  0.2552 -0.2627
  613MOL0     C82648   6.806   1.276   6.365 -0.0179 -0.3266 -0.8636
  613MOL0     C82649   6.896   1.037   6.316  0.1814 -0.5649  0.4417
  613MOL0     C82650   6.763   0.974   6.296  0.6236 -0.6040  0.3130
  613MOL0     O82651   6.658   1.059   6.242  0.0402  0.2719 -0.9521
  613MOL0     C82652   6.527   1.017   6.220 -0.1781  0.3447 -0.0837
  613MOL0     C82653   6.474   0.896   6.267  0.7085  0.0191 -0.3254
  613MOL0     C82654   6.339   0.866   6.235  1.1309 -0.1132 -0.3695
  613MOL0     C82655   6.256   0.961   6.170  0.0289  0.0990 -0.6972
  613MOL0     O82656   6.145   0.914   6.118  0.9109  0.3113  0.8696
  613MOL0     C82657   6.040   1.005   6.077  0.8617 -0.6549 -0.1992
  613MOL0     C82658   5.938   0.916   5.998  0.1752  0.2826 -0.9004
  613MOL0     C82659   5.856   0.835   6.108  0.8869  1.2883 -0.1344
  613MOL0     C82660   5.754   0.734   6.047  1.0432  0.2578 -0.0142
  613MOL0     C82661   5.703   0.626   6.139  0.4206  0.3490 -0.0895
  613MOL0     C82662   5.611   0.524   6.060  0.4509 -0.3877 -0.7471
  613MOL0     C82663   5.553   0.405   6.137  0.4335 -0.3585 -1.2533
  613MOL0     C82664   5.415   0.353   6.075  0.7061 -0.1148 -0.0523
  613MOL0    Cl82665   5.401   0.185   6.125  0.6768  0.5627  0.5699
  613MOL0     C82666   6.308   1.088   6.140 -0.1409  0.1271 -0.4605
  613MOL0     C82667   6.443   1.120   6.172 -0.6785  1.6923  0.4990
  613MOL0     O82668   6.754   0.855   6.326  0.3887  0.3257  0.6563
  613MOL0     C82669   7.011   0.954   6.306 -0.4739  0.5142  0.1847
  613MOL0     C82670   7.138   1.005   6.342 -0.6403 -0.1952  0.3279
  613MOL0     N82671   7.779   1.278   5.959  0.5003  0.1211  0.0838
  613MOL0     N82672   7.892   1.233   5.983  0.3899  0.4399 -0.0842
  613MOL0     C82673   8.763   2.090   5.721  0.3881  0.1480 -0.1721
  613MOL0     C82674   8.856   2.191   5.721  0.8033  0.1622 -0.1011
  613MOL0     C82675   9.167   2.491   5.776 -1.1468 -0.1942 -0.3869
  613MOL0     C82676   9.217   2.506   5.904 -0.4989 -0.8310 -0.6283
  613MOL0     C82677   9.334   2.582   5.934  0.1083 -0.4873  0.2762
  613MOL0     C82678   9.392   2.670   5.835 -0.5702 -0.1114 -0.6104
  613MOL0     O82679   9.511   2.726   5.862  0.5822 -0.0489 -0.4411
  613MOL0     C82680   9.591   2.802   5.776  0.4000 -0.7002 -0.1031
  613MOL0     C82681   9.552   2.948   5.783 -0.0561  0.1907 -0.0809
  613MOL0     C82682   9.549   3.016   5.922 -0.1056 -0.9874  0.3759
  613MOL0     C82683   9.476   3.153   5.908 -0.1856  0.1967  0.2956
  613MOL0     C82684   9.456   3.219   6.037  0.0572  0.9228 -0.4568
  613MOL0     C82685   9.427   3.268   6.146  0.5807  0.0626 -0.8739
  613MOL0     C82686   9.338   2.658   5.705 -0.0490  0.1378  0.3991
  613MOL0     C82687   9.226   2.579   5.680  1.1433 -0.6566  0.3730
  613MOL0     H82688   8.887   2.218   6.059 -1.1850 -0.3581  1.8415
  613MOL0     H82689   8.722   2.048   6.050 -0.7352 -1.4622 -0.6907
  613MOL0     H82690   8.618   1.852   6.019  0.8481  4.3482  0.2215
  613MOL0     H82691   8.489   1.969   5.990  1.7250  1.2327  1.5195
  613MOL0     H82692   8.371   1.798   5.853  0.8684  2.8061 -1.6451
  613MOL0     H82693   8.522   1.700   5.847  0.9005 -0.2328  3.0339
  613MOL0     H82694   8.513   1.634   6.072  0.9980 -0.5359 -2.2536
  613MOL0     H82695   8.384   1.753   6.105 -0.4381 -2.0059  3.3000
  613MOL0     H82696   8.233   1.632   5.943 -1.9581 -2.4504 -1.1385
  613MOL0     H82697   8.360   1.514   5.908 -1.1082 -0.4345 -0.6512
  613MOL0     H82698   8.373   1.456   6.162  0.4911 -0.0319  0.1820
  613MOL0     H82699   8.235   1.559   6.187  1.5523 -0.8288  2.2754
  613MOL0     H82700   8.098   1.428   6.044 -0.2301  0.0240 -0.9425
  613MOL0     H82701   8.235   1.319   6.009  0.4182 -0.6912  0.2862
  613MOL0     H82702   8.239   1.259   6.253 -0.4476 -3.2460  0.9256
  613MOL0     H82703   8.099   1.364   6.285  0.4517  0.2869  1.0465
  613MOL0     H82704   8.033   1.125   6.266  0.3254 -0.1453 -0.0752
  613MOL0     H82705   8.082   1.115   6.087  0.1399  2.0842 -1.8262
  613MOL0     H82706   7.789   1.264   6.289  0.7656 -1.3354  0.2668
  613MOL0     H82707   7.558   1.437   6.157 -1.0200 -2.1022  2.7008
  613MOL0     H82708   7.536   1.400   5.995  0.3323  0.8211 -0.3008
  613MOL0     H82709   7.512   1.152   6.183 -2.4319 -2.7201 -1.6122
  613MOL0     H82710   7.462   1.179   6.023  0.4613  2.1486 -1.6526
  613MOL0     H82711   7.254   1.223   6.129  1.8928 -1.8036 -2.3305
  613MOL0     H82712   7.325   1.389   6.127 -1.7619 -0.9361 -2.8893
  613MOL0     H82713   7.268   1.376   6.344 -0.8645 -0.9080 -2.6085
  613MOL0     H82714   7.436   1.311   6.355  0.3937 -0.5218  0.3794
  613MOL0     H82715   7.055   1.333   6.388  2.0896 -0.5224  0.2546
  613MOL0     H82716   6.840   1.373   6.403 -1.4560  0.6257 -1.9261
  613MOL0     H82717   6.774   1.298   6.263 -2.4579 -1.1551 -0.3369
  613MOL0     H82718   6.724   1.236   6.426  0.5334 -2.8069 -1.6102
  613MOL0     H82719   6.528   0.821   6.324  1.8295  1.7885  1.0322
  613MOL0     H82720   6.296   0.778   6.281  2.8419  0.4229  2.4800
  613MOL0     H82721   5.991   1.057   6.159  2.3981  2.6005 -1.1958
  613MOL0     H82722   6.083   1.081   6.012  0.1200  0.1963  0.2938
  613MOL0     H82723   5.872   0.986   5.946 -0.5400 -0.0580 -0.4578
  613MOL0     H82724   5.997   0.862   5.924  0.1082 -3.2517  1.3695
  613MOL0     H82725   5.802   0.905   6.173  0.2694  0.7120 -0.0169
  613MOL0     H82726   5.929   0.783   6.171  0.0046 -2.6245 -2.0390
  613MOL0     H82727   5.663   0.786   6.017  1.0585 -0.3039 -1.0923
  613MOL0     H82728   5.793   0.687   5.956  4.2948 -1.7277  2.1803
  613MOL0     H82729   5.635   0.662   6.217  0.8355  0.1801  0.3549
  613MOL0     H82730   5.783   0.566   6.185 -0.0544  0.5147  0.9889
  613MOL0     H82731   5.521   0.580   6.031 -0.5502 -0.3467  2.0503
  613MOL0     H82732   5.666   0.490   5.972  0.6415 -2.2980  0.0577
  613MOL0     H82733   5.544   0.437   6.241 -1.4093 -1.3309 -1.0784
  613MOL0     H82734   5.620   0.320   6.127  1.4824  0.4206 -1.0399
  613MOL0     H82735   5.428   0.378   5.970 -0.5415  1.1882  0.0731
  613MOL0     H82736   5.331   0.413   6.110  0.3200  0.1165 -1.3458
  613MOL0     H82737   6.261   1.175   6.095 -1.5069 -1.6104 -2.5706
  613MOL0     H82738   6.486   1.218   6.156  0.9082  0.7487 -1.4256
  613MOL0     H82739   7.007   0.847   6.287  0.7564  0.0020  2.4447
  613MOL0     H82740   7.225   0.945   6.367  1.0511  2.5254  1.3722
  613MOL0     H82741   8.739   2.049   5.623 -0.0595 -1.7705  0.6937
  613MOL0     H82742   8.889   2.228   5.624 -2.7371  3.4398 -0.2795
  613MOL0     H82743   9.165   2.455   5.985 -0.8834 -0.8520 -0.8862
  613MOL0     H82744   9.385   2.565   6.028  1.6012 -3.4489 -0.9242
  613MOL0     H82745   9.698   2.791   5.792  0.2949  1.5811  3.0558
  613MOL0     H82746   9.575   2.766   5.674  0.9945 -1.6734  0.1328
  613MOL0     H82747   9.452   2.944   5.739 -0.6530 -2.0258  1.2649
  613MOL0     H82748   9.621   3.007   5.722  0.0205  2.4146  1.9930
  613MOL0     H82749   9.652   3.041   5.951 -0.2927  0.7038 -0.3052
  613MOL0     H82750   9.508   2.947   5.995  0.9653  0.8564  2.8796
  613MOL0     H82751   9.374   3.142   5.869 -0.4704 -2.5285  1.6215
  613MOL0     H82752   9.529   3.229   5.850  0.3363 -1.5263 -1.5941
  613MOL0     H82753   9.414   3.305   6.246  2.9975  0.8350 -0.7717
  613MOL0     H82754   9.383   2.699   5.616 -0.2872 -3.0635 -1.3163
  613MOL0     H82755   9.179   2.583   5.582 -2.8520  1.4834  2.1363
  614MOL0     O82756   4.957   9.261   1.918 -0.0454 -0.2452 -0.6383
  614MOL0     C82757   5.032   9.299   1.828 -0.6415  0.1903  0.4697
  614MOL0     O82758   5.003   9.306   1.694 -0.0400 -0.6689 -0.6749
  614MOL0     C82759   4.874   9.284   1.658  0.0868  0.9336  0.3097
  614MOL0     C82760   4.854   9.190   1.555  0.0777  0.4896  0.6856
  614MOL0     C82761   4.723   9.149   1.514  0.2045 -0.3797 -0.1530
  614MOL0     C82762   4.617   9.223   1.573 -0.1068 -0.4131 -0.4488
  614MOL0     O82763   4.478   9.214   1.548 -0.0446  0.4290  0.0750
  614MOL0     C82764   4.444   9.110   1.459 -0.4693 -0.7864  0.4530
  614MOL0     C82765   4.303   9.119   1.410  0.3135 -0.2378  0.7456
  614MOL0     C82766   4.212   9.156   1.534  0.3016  0.1011  0.4118
  614MOL0     C82767   4.068   9.137   1.483 -0.4067  0.1550 -0.2186
  614MOL0     C82768   3.961   9.148   1.589  0.8219 -1.3047 -0.3894
  614MOL0     C82769   3.828   9.146   1.509 -0.3299  0.4064  0.0322
  614MOL0     C82770   3.697   9.166   1.593 -0.7651  0.7575  0.4179
  614MOL0     C82771   3.639   9.304   1.627 -0.3960 -0.7039  0.7426
  614MOL0     N82772   3.496   9.303   1.658  0.1094 -0.2426 -0.5560
  614MOL0     C82773   3.395   9.383   1.601 -0.0873  0.3905  1.1808
  614MOL0     C82774   3.279   9.321   1.643  0.3645  0.3722 -0.4363
  614MOL0     C82775   3.142   9.369   1.598  0.7538  0.3642  0.5406
  614MOL0     C82776   3.122   9.316   1.450  0.0903 -0.6845 -0.0321
  614MOL0     C82777   3.136   9.174   1.442 -0.7334  0.9402  0.2174
  614MOL0     C82778   3.059   9.077   1.538  0.0804 -0.3671  0.2106
  614MOL0     O82779   2.913   9.104   1.523  0.0312  0.2507 -0.8735
  614MOL0     C82780   2.820   9.036   1.599  0.4922 -0.5179 -0.5213
  614MOL0     C82781   2.855   8.937   1.686 -0.1894  0.2965 -0.4481
  614MOL0     C82782   2.764   8.875   1.764 -0.5461 -0.1856 -1.0818
  614MOL0     C82783   2.825   8.757   1.848  0.1069 -0.2889  0.5553
  614MOL0     C82784   2.627   8.917   1.773  0.1195  0.5965 -0.1052
  614MOL0     C82785   2.514   8.861   1.857 -0.0228  0.2308  0.3589
  614MOL0     O82786   2.384   8.899   1.830  0.0838  0.4271 -0.0552
  614MOL0     C82787   2.292   8.884   1.930  0.6159 -0.2671 -0.4516
  614MOL0     C82788   2.311   8.857   2.071 -0.2910  0.6000  1.2393
  614MOL0     C82789   2.202   8.848   2.164 -0.4890 -0.2637  0.3646
  614MOL0     C82790   2.069   8.851   2.115 -0.1338 -0.1905  0.4370
  614MOL0     O82791   1.970   8.844   2.202  0.5311 -0.0280 -0.2485
  614MOL0     C82792   1.848   8.801   2.155  0.1958 -0.1966  0.2276
  614MOL0     C82793   1.764   8.768   2.275  0.1422  1.0250 -0.4839
  614MOL0     C82794   1.610   8.784   2.234  0.0736  0.9239 -0.0177
  614MOL0     C82795   1.518   8.733   2.347  0.4153 -0.6084 -0.6962
  614MOL0     C82796   1.383   8.786   2.311  0.5703 -0.2568 -0.1418
  614MOL0     C82797   1.260   8.772   2.409  0.1417 -0.4362 -0.6108
  614MOL0     C82798   1.250   8.625   2.465 -1.1046  0.2443  0.1803
  614MOL0     C82799   1.126   8.596   2.552  0.3756  0.2409  0.0652
  614MOL0    Cl82800   1.003   8.519   2.440 -0.1837  0.4638  0.1836
  614MOL0     C82801   2.054   8.889   1.979 -0.4969  0.4412 -0.5467
  614MOL0     C82802   2.159   8.894   1.888 -0.2165 -0.7110  0.8081
  614MOL0     O82803   2.552   8.779   1.939  0.7958  0.1272 -0.5182
  614MOL0     C82804   2.588   9.016   1.681  0.0762  0.0323 -0.4490
  614MOL0     C82805   2.689   9.076   1.597 -0.3850 -0.1406  0.2621
  614MOL0     N82806   3.311   9.225   1.738  0.3105  0.0010  0.1898
  614MOL0     N82807   3.444   9.218   1.748  0.1294 -0.2649 -0.7142
  614MOL0     C82808   4.641   9.321   1.681 -0.5068  0.2077  0.8315
  614MOL0     C82809   4.771   9.346   1.720  0.3540 -0.1471 -0.8845
  614MOL0     C82810   5.175   9.307   1.885 -0.5557 -0.6596 -0.7290
  614MOL0     C82811   5.275   9.315   1.790 -1.1402  1.0781 -0.9510
  614MOL0     C82812   5.408   9.349   1.836 -0.3005 -0.4353  0.1210
  614MOL0     C82813   5.437   9.347   1.976  0.6564  0.4261  0.1595
  614MOL0     O82814   5.571   9.372   2.017 -0.0461  1.0223  0.2534
  614MOL0     C82815   5.613   9.365   2.160  0.9260 -0.6215  0.2851
  614MOL0     C82816   5.757   9.309   2.165 -0.1086 -0.8597 -0.5298
  614MOL0     C82817   5.748   9.161   2.149  0.1293 -0.3441 -0.1977
  614MOL0     C82818   5.881   9.108   2.099  0.2531  0.7105  1.3146
  614MOL0     C82819   5.920   8.981   2.155 -0.9398 -0.5343 -0.6514
  614MOL0     C82820   5.959   8.882   2.203  0.6206 -0.2425 -0.6402
  614MOL0     C82821   5.335   9.328   2.073  0.4051 -0.0221 -0.3812
  614MOL0     C82822   5.206   9.302   2.026 -0.6925 -0.9779  0.2954
  614MOL0     H82823   4.935   9.146   1.498  0.5795  1.8838  0.2777
  614MOL0     H82824   4.707   9.067   1.444  6.0751 -0.0882 -2.4384
  614MOL0     H82825   4.503   9.101   1.367 -1.1903 -3.0384  0.1554
  614MOL0     H82826   4.446   9.018   1.517  0.6211 -0.5289  0.8383
  614MOL0     H82827   4.295   9.202   1.339 -0.6078 -0.8378  0.1293
  614MOL0     H82828   4.284   9.024   1.360  0.1444  1.1557 -2.0450
  614MOL0     H82829   4.233   9.099   1.624 -1.7749 -1.2680  0.1139
  614MOL0     H82830   4.214   9.264   1.550 -0.5097  0.0877  0.6868
  614MOL0     H82831   4.051   9.213   1.406 -0.5347  0.3876  0.0366
  614MOL0     H82832   4.065   9.035   1.443 -1.5898 -0.3731  1.1596
  614MOL0     H82833   3.965   9.075   1.670  2.3044 -0.3864  0.4218
  614MOL0     H82834   3.985   9.239   1.645 -0.8207 -1.3970  0.5280
  614MOL0     H82835   3.827   9.224   1.432  1.6369 -1.3726 -1.9418
  614MOL0     H82836   3.830   9.053   1.452  1.2737  0.2326  0.3280
  614MOL0     H82837   3.633   9.096   1.539  1.5978 -1.4296  0.2466
  614MOL0     H82838   3.717   9.127   1.693  1.3323  2.5064  0.7467
  614MOL0     H82839   3.649   9.368   1.539  2.5193 -0.8907  0.8416
  614MOL0     H82840   3.696   9.357   1.704 -2.3902 -0.1163  1.8907
  614MOL0     H82841   3.407   9.466   1.533  2.7154  0.7998  2.0732
  614MOL0     H82842   3.071   9.331   1.673  3.1118 -1.6700  1.8990
  614MOL0     H82843   3.147   9.478   1.604 -0.4056  0.4401  0.3191
  614MOL0     H82844   3.180   9.375   1.379  1.3566 -0.7445  0.9182
  614MOL0     H82845   3.020   9.350   1.432  0.5623  1.1031  0.4983
  614MOL0     H82846   3.244   9.155   1.449 -0.7081  0.1302 -1.7720
  614MOL0     H82847   3.111   9.145   1.340  2.3714 -0.2722 -0.3048
  614MOL0     H82848   3.096   9.102   1.637 -0.4371  2.2641 -0.1996
  614MOL0     H82849   3.086   8.974   1.512  2.9414  0.2029  0.6169
  614MOL0     H82850   2.951   8.897   1.716  0.0703  1.1329 -0.1250
  614MOL0     H82851   2.753   8.681   1.880  1.5610 -1.8199  0.3356
  614MOL0     H82852   2.910   8.710   1.797  0.5546 -0.1770  1.1886
  614MOL0     H82853   2.865   8.797   1.942 -0.7039  0.2242  0.6873
  614MOL0     H82854   2.410   8.839   2.112  1.8286 -0.7995 -3.7649
  614MOL0     H82855   2.235   8.837   2.267  1.8828  0.1020 -0.2840
  614MOL0     H82856   1.794   8.873   2.093 -1.0104 -0.5654  0.8231
  614MOL0     H82857   1.857   8.719   2.083 -2.8291  2.4197 -3.5721
  614MOL0     H82858   1.797   8.672   2.316 -0.1930  0.6866 -0.9899
  614MOL0     H82859   1.782   8.842   2.353 -1.3156 -0.9022  1.8146
  614MOL0     H82860   1.584   8.726   2.145  0.2470 -0.5302  0.8317
  614MOL0     H82861   1.588   8.889   2.214  1.7824  1.2138 -0.5407
  614MOL0     H82862   1.520   8.625   2.361  0.8347 -0.5436 -0.2018
  614MOL0     H82863   1.547   8.773   2.445  1.4154  0.1699 -1.2807
  614MOL0     H82864   1.370   8.739   2.213  0.0414 -0.0551 -0.1681
  614MOL0     H82865   1.394   8.894   2.299 -0.6055  0.0411  1.3190
  614MOL0     H82866   1.274   8.846   2.488 -0.6641  0.8280 -1.6268
  614MOL0     H82867   1.170   8.803   2.356  0.0448 -0.8534 -0.6949
  614MOL0     H82868   1.342   8.611   2.523  2.5611  2.1871 -4.4560
  614MOL0     H82869   1.250   8.549   2.386 -1.5584  0.9522 -0.5184
  614MOL0     H82870   1.089   8.682   2.610 -1.2926  0.7634 -1.6737
  614MOL0     H82871   1.156   8.520   2.624 -0.8463  0.0846  0.4332
  614MOL0     H82872   1.957   8.927   1.948 -1.4193  0.0648  1.6762
  614MOL0     H82873   2.139   8.914   1.783 -0.2966 -0.1163  0.9293
  614MOL0     H82874   2.487   9.054   1.682 -0.0078 -0.1420 -1.2347
  614MOL0     H82875   2.657   9.156   1.532 -2.3017 -0.7132  0.4474
  614MOL0     H82876   4.559   9.372   1.732 -0.5971 -0.0019  0.8972
  614MOL0     H82877   4.794   9.408   1.806 -1.8189 -2.3209  1.4660
  614MOL0     H82878   5.272   9.312   1.681 -0.2572 -0.1346 -0.9632
  614MOL0     H82879   5.496   9.363   1.774 -0.1443  0.0780  0.4589
  614MOL0     H82880   5.602   9.469   2.193 -2.8611 -1.3416  1.7568
  614MOL0     H82881   5.549   9.302   2.223  2.0445 -1.2749  0.7926
  614MOL0     H82882   5.799   9.338   2.261  2.0474 -0.2637 -1.5909
  614MOL0     H82883   5.817   9.356   2.086 -1.9240  2.6998  0.0088
  614MOL0     H82884   5.671   9.142   2.073  2.2546  0.4301 -2.7102
  614MOL0     H82885   5.725   9.122   2.248  0.2451  0.4073  0.1300
  614MOL0     H82886   5.956   9.185   2.124 -0.0261  0.7502  2.0520
  614MOL0     H82887   5.868   9.108   1.991 -0.0433 -0.3361  1.3447
  614MOL0     H82888   5.998   8.791   2.244 -0.5863 -1.2740 -1.7143
  614MOL0     H82889   5.357   9.335   2.179  1.3301 -2.2333 -0.3819
  614MOL0     H82890   5.125   9.288   2.096 -0.7522  0.3981  0.5119
  615MOL0     O82891   3.148   5.183   4.467  0.1251 -0.0764  0.4471
  615MOL0     C82892   3.140   5.073   4.407 -0.5412  0.1886 -0.3241
  615MOL0     O82893   3.034   5.033   4.328 -0.5479  0.0785  0.6646
  615MOL0     C82894   2.928   5.124   4.308 -1.1544 -0.1427  0.0203
  615MOL0     C82895   2.947   5.243   4.241 -0.8842  1.1245  0.2462
  615MOL0     C82896   2.851   5.341   4.210  0.5190  0.5196  0.1897
  615MOL0     C82897   2.719   5.318   4.261 -0.9487 -0.1094 -0.4172
  615MOL0     O82898   2.612   5.405   4.239  0.2066  0.6795  0.5512
  615MOL0     C82899   2.479   5.385   4.287 -0.5959  0.1306  0.2859
  615MOL0     C82900   2.404   5.514   4.227  0.1643 -0.3996 -0.9302
  615MOL0     C82901   2.262   5.519   4.285 -0.0746 -0.4423  0.9657
  615MOL0     C82902   2.184   5.644   4.224  0.2534 -0.7957  0.0403
  615MOL0     C82903   2.055   5.663   4.305  0.2842 -0.2867 -0.1692
  615MOL0     C82904   1.978   5.779   4.233 -0.4647 -0.5355  0.4488
  615MOL0     C82905   1.842   5.821   4.292 -0.2308 -0.1375  0.4932
  615MOL0     C82906   1.739   5.707   4.268  0.8946 -0.1648 -0.0280
  615MOL0     N82907   1.604   5.754   4.316 -1.1480 -0.1672 -0.5558
  615MOL0     C82908   1.562   5.756   4.454  0.8699  0.1948  0.4399
  615MOL0     C82909   1.457   5.841   4.451  0.6339  0.1244  0.1282
  615MOL0     C82910   1.386   5.897   4.565 -0.1441  0.4662  0.0846
  615MOL0     C82911   1.241   5.849   4.554 -0.2938 -0.8175 -0.4998
  615MOL0     C82912   1.163   5.886   4.675 -0.5399 -0.1350  0.7842
  615MOL0     C82913   1.138   6.041   4.680  0.0454  0.1852  0.2698
  615MOL0     O82914   1.094   6.080   4.817 -0.4285 -0.5724  0.0008
  615MOL0     C82915   1.195   6.093   4.907 -0.0402  0.5274 -0.3405
  615MOL0     C82916   1.294   6.196   4.900 -0.5935  0.6091  0.5666
  615MOL0     C82917   1.404   6.204   4.984  0.5810 -0.0360 -1.1983
  615MOL0     C82918   1.497   6.317   4.954 -0.4894 -0.3694 -0.3011
  615MOL0     C82919   1.411   6.117   5.093 -0.3533  0.9855 -0.9888
  615MOL0     C82920   1.527   6.109   5.188 -0.4724 -0.4358 -0.6254
  615MOL0     O82921   1.513   6.052   5.319  0.3877 -0.1227  0.2602
  615MOL0     C82922   1.629   6.031   5.382 -1.4914 -0.1224 -0.2821
  615MOL0     C82923   1.663   6.133   5.467 -0.4638  0.1738 -0.8326
  615MOL0     C82924   1.796   6.131   5.539 -0.0700 -0.0959 -0.3056
  615MOL0     C82925   1.873   6.014   5.520 -0.6540 -0.6133 -0.0944
  615MOL0     O82926   1.997   6.006   5.586 -0.2431  0.0784 -0.1008
  615MOL0     C82927   2.044   6.124   5.643  0.6255 -0.3072 -0.6972
  615MOL0     C82928   2.186   6.098   5.698 -0.2573 -0.0774 -0.6630
  615MOL0     C82929   2.279   6.065   5.584  0.0153  0.6709 -0.2169
  615MOL0     C82930   2.422   6.043   5.629 -0.9812 -0.3524 -0.2419
  615MOL0     C82931   2.503   6.013   5.502 -0.5394  0.0877 -0.0300
  615MOL0     C82932   2.646   5.968   5.544  0.3041  0.1944 -0.2009
  615MOL0     C82933   2.752   5.941   5.436 -1.4820  0.4093  0.3120
  615MOL0     C82934   2.779   6.062   5.346  0.2788  0.0630  0.2143
  615MOL0    Cl82935   2.935   6.022   5.256 -0.4085 -0.3560  0.3415
  615MOL0     C82936   1.842   5.911   5.427 -0.0208 -0.4284  0.1526
  615MOL0     C82937   1.715   5.925   5.363  0.7937  0.9253 -0.6084
  615MOL0     O82938   1.637   6.136   5.134 -0.3276  0.0624 -0.2468
  615MOL0     C82939   1.303   6.027   5.111  0.0027  0.5813 -0.7688
  615MOL0     C82940   1.198   6.010   5.021  0.0878 -0.8403  0.3969
  615MOL0     N82941   1.435   5.874   4.316  0.1790 -0.5959  0.1220
  615MOL0     N82942   1.517   5.816   4.231 -0.3412  0.3356 -0.1937
  615MOL0     C82943   2.698   5.200   4.336 -1.1218  0.1651  0.9946
  615MOL0     C82944   2.803   5.104   4.364  0.2404  0.7845  0.7063
  615MOL0     C82945   3.258   4.977   4.424 -0.6213  0.0015 -1.1210
  615MOL0     C82946   3.278   4.869   4.340  0.0338 -0.5152  0.0022
  615MOL0     C82947   3.386   4.781   4.350 -0.0601 -0.3083  0.0963
  615MOL0     C82948   3.490   4.804   4.446 -0.7363 -0.6158  0.4168
  615MOL0     O82949   3.602   4.732   4.463 -0.9062  0.1689  0.4056
  615MOL0     C82950   3.636   4.627   4.376 -0.2608 -0.9754 -0.5146
  615MOL0     C82951   3.742   4.555   4.457  0.7375  0.0834 -0.0470
  615MOL0     C82952   3.800   4.426   4.383  0.3440 -0.4700 -0.7274
  615MOL0     C82953   3.913   4.455   4.295  0.1790 -0.2737 -0.3841
  615MOL0     C82954   3.857   4.500   4.164  0.4269  0.1547 -0.0156
  615MOL0     C82955   3.804   4.533   4.061  0.0359  0.1849 -0.6308
  615MOL0     C82956   3.468   4.912   4.526 -0.3939  0.7457 -0.0779
  615MOL0     C82957   3.357   4.990   4.529  0.3468  0.7466  0.9562
  615MOL0     H82958   3.048   5.250   4.202 -0.8605 -1.4290 -0.3251
  615MOL0     H82959   2.874   5.431   4.155  2.7743 -0.2327 -0.2107
  615MOL0     H82960   2.436   5.292   4.249  2.7290 -0.6143 -2.1107
  615MOL0     H82961   2.480   5.386   4.396 -3.3077  0.6083  0.3787
  615MOL0     H82962   2.469   5.598   4.250  4.5860 -3.9977  1.4057
  615MOL0     H82963   2.390   5.504   4.119 -2.9164 -1.4589 -0.5509
  615MOL0     H82964   2.211   5.422   4.284 -1.3468  0.1832 -1.3784
  615MOL0     H82965   2.270   5.541   4.392 -1.2106 -2.1102  1.4292
  615MOL0     H82966   2.240   5.738   4.225  0.4522 -0.8961 -0.7517
  615MOL0     H82967   2.146   5.629   4.122 -3.4768 -1.2454  1.3410
  615MOL0     H82968   1.984   5.582   4.287 -0.1951  0.1711 -0.3951
  615MOL0     H82969   2.068   5.698   4.408 -1.6454 -2.2115  0.8138
  615MOL0     H82970   2.053   5.859   4.230 -1.1778  0.2757  2.5952
  615MOL0     H82971   1.954   5.752   4.130 -1.1668  1.5173  0.0253
  615MOL0     H82972   1.862   5.836   4.398 -1.0957 -1.6634  0.9042
  615MOL0     H82973   1.805   5.906   4.234  0.8436 -2.0299 -3.2920
  615MOL0     H82974   1.763   5.617   4.325  1.4852  0.3131  0.4865
  615MOL0     H82975   1.726   5.688   4.161  2.5740  0.7709 -0.4443
  615MOL0     H82976   1.604   5.711   4.544  0.8744  0.8927  0.7937
  615MOL0     H82977   1.428   5.863   4.660 -0.0920  1.3411  0.3848
  615MOL0     H82978   1.393   6.006   4.555  1.8841  0.1751 -2.8278
  615MOL0     H82979   1.229   5.742   4.539  1.0289 -1.3319  1.7157
  615MOL0     H82980   1.193   5.901   4.470  2.0485  0.9192 -0.8684
  615MOL0     H82981   1.217   5.851   4.764  2.8128  1.4990 -0.4494
  615MOL0     H82982   1.065   5.839   4.669 -0.5047 -0.7928  3.5861
  615MOL0     H82983   1.050   6.059   4.617  0.7983 -0.2666 -0.9426
  615MOL0     H82984   1.219   6.102   4.640 -0.3477 -0.4958 -1.6684
  615MOL0     H82985   1.281   6.265   4.817 -3.2837 -1.1273 -0.5741
  615MOL0     H82986   1.538   6.358   5.047 -2.2548 -0.6236  0.6157
  615MOL0     H82987   1.575   6.278   4.888  0.0495 -0.1591  0.1980
  615MOL0     H82988   1.447   6.398   4.900  2.4593  0.5155 -1.9728
  615MOL0     H82989   1.605   6.224   5.481  0.3904  0.5549  0.5271
  615MOL0     H82990   1.825   6.213   5.603 -2.6665 -1.6642  3.2239
  615MOL0     H82991   2.049   6.204   5.569 -1.5484  0.7213  0.1951
  615MOL0     H82992   1.985   6.139   5.734 -0.3834 -3.4686 -0.6811
  615MOL0     H82993   2.217   6.188   5.752 -0.0732  0.1015 -1.0660
  615MOL0     H82994   2.191   6.013   5.767 -0.7652  0.2621 -0.1904
  615MOL0     H82995   2.279   6.149   5.514 -3.2161  0.8993 -0.1043
  615MOL0     H82996   2.243   5.970   5.543  1.6686 -0.8246  1.5802
  615MOL0     H82997   2.450   6.135   5.682 -0.7204 -0.9651  0.7101
  615MOL0     H82998   2.428   5.958   5.698 -1.3360 -0.2158 -0.0394
  615MOL0     H82999   2.502   6.109   5.450  2.7228 -1.3214 -3.0969
  615MOL0     H83000   2.461   5.936   5.438  1.0299 -0.1062 -0.8775
  615MOL0     H83001   2.695   6.035   5.616 -1.4315  1.4693 -0.1279
  615MOL0     H83002   2.623   5.879   5.604 -0.8325  0.1406 -0.6858
  615MOL0     H83003   2.722   5.870   5.359  0.5626  1.1513 -1.2442
  615MOL0     H83004   2.840   5.899   5.485 -0.7563  1.6933  0.1525
  615MOL0     H83005   2.784   6.161   5.393 -3.9357  1.2641 -1.4363
  615MOL0     H83006   2.696   6.074   5.275  0.9079  5.5471 -0.0203
  615MOL0     H83007   1.912   5.830   5.409 -0.7114 -0.2167 -4.8824
  615MOL0     H83008   1.695   5.849   5.287  2.5975 -0.2129 -0.0238
  615MOL0     H83009   1.304   5.967   5.201  0.8953  2.0318  0.2464
  615MOL0     H83010   1.118   5.940   5.038 -1.8898  1.6112  1.8580
  615MOL0     H83011   2.604   5.174   4.383 -1.3642  3.8399  2.9486
  615MOL0     H83012   2.792   5.021   4.433 -1.1247  2.1043  2.1666
  615MOL0     H83013   3.209   4.855   4.257  0.1060  1.6354 -0.4847
  615MOL0     H83014   3.383   4.694   4.285 -2.4018  0.6050 -1.1412
  615MOL0     H83015   3.546   4.567   4.361 -2.5363  1.4102  2.2878
  615MOL0     H83016   3.686   4.651   4.282  1.1482 -2.1168 -0.0864
  615MOL0     H83017   3.709   4.541   4.560 -0.9741 -1.0291 -0.7009
  615MOL0     H83018   3.830   4.621   4.461  1.5826 -0.9179 -1.1756
  615MOL0     H83019   3.723   4.371   4.329  0.9123 -0.5556 -1.4642
  615MOL0     H83020   3.831   4.346   4.451  0.9703  0.4175  0.0630
  615MOL0     H83021   3.956   4.356   4.273 -1.5232 -0.7893 -1.5948
  615MOL0     H83022   3.988   4.518   4.342 -1.5788  2.2770 -0.8050
  615MOL0     H83023   3.764   4.555   3.964 -2.8342  2.5047  0.9436
  615MOL0     H83024   3.553   4.939   4.588 -0.9165  0.7695  0.6573
  615MOL0     H83025   3.343   5.066   4.605  0.9390  0.8789  0.9390
  616MOL0     O83026   8.157   4.821   8.770 -0.5784  0.4786  0.4092
  616MOL0     C83027   8.257   4.890   8.776  0.8214  0.1935 -0.3159
  616MOL0     O83028   8.264   5.018   8.739  0.6401 -0.3159  0.4174
  616MOL0     C83029   8.149   5.091   8.720 -0.3346 -0.0139 -0.2228
  616MOL0     C83030   8.016   5.078   8.764  0.4044  0.0850  0.1148
  616MOL0     C83031   7.915   5.166   8.727 -0.6234  0.1484  0.5291
  616MOL0     C83032   7.940   5.273   8.636  0.2461  0.2150  0.4265
  616MOL0     O83033   7.825   5.347   8.606 -0.0669  0.5112  0.5274
  616MOL0     C83034   7.845   5.453   8.516 -0.0921 -0.2763  0.0824
  616MOL0     C83035   7.709   5.525   8.513 -0.3952  0.1388  0.7294
  616MOL0     C83036   7.624   5.493   8.392  0.6084 -0.8180  0.1275
  616MOL0     C83037   7.512   5.593   8.388  0.2369  0.8620  0.8514
  616MOL0     C83038   7.433   5.574   8.254  0.4382 -0.0033 -0.4749
  616MOL0     C83039   7.312   5.668   8.255 -0.6646  0.4427  0.1576
  616MOL0     C83040   7.248   5.665   8.113 -0.6129 -0.0350 -1.0038
  616MOL0     C83041   7.200   5.525   8.057  0.0767 -0.1854  0.1411
  616MOL0     N83042   7.077   5.477   8.113  0.1625  1.1171 -0.0386
  616MOL0     C83043   6.971   5.559   8.125  0.7184  0.5586 -0.8130
  616MOL0     C83044   6.863   5.479   8.138 -0.3743  0.0482  0.2562
  616MOL0     C83045   6.726   5.520   8.140 -0.5906  0.3638  0.0752
  616MOL0     C83046   6.656   5.464   8.260 -1.2982  0.1435  0.2193
  616MOL0     C83047   6.511   5.526   8.276 -1.4004  0.5747  0.4302
  616MOL0     C83048   6.438   5.457   8.392 -0.3529  0.0418 -0.3051
  616MOL0     O83049   6.328   5.533   8.449 -0.0915 -0.0042  0.4408
  616MOL0     C83050   6.205   5.503   8.386 -0.3804  0.1931  0.1502
  616MOL0     C83051   6.138   5.601   8.321 -0.1970 -0.5438  0.1964
  616MOL0     C83052   6.003   5.585   8.279  0.1377  0.4360 -0.2645
  616MOL0     C83053   5.935   5.719   8.233 -0.4445 -0.3891  0.5778
  616MOL0     C83054   5.936   5.458   8.300 -0.4191  0.5150  0.3315
  616MOL0     C83055   5.792   5.424   8.262 -0.1614 -0.4100 -0.0599
  616MOL0     O83056   5.728   5.507   8.185 -0.6426 -0.2116 -0.2192
  616MOL0     C83057   5.594   5.491   8.179  0.3778 -0.2638  1.1122
  616MOL0     C83058   5.536   5.420   8.081  0.4522  0.4097 -0.4657
  616MOL0     C83059   5.403   5.386   8.091 -1.1049  0.0130  0.0118
  616MOL0     C83060   5.324   5.409   8.198  0.1553  0.3089 -0.0711
  616MOL0     O83061   5.191   5.358   8.207 -0.0828 -0.8293  0.1081
  616MOL0     C83062   5.117   5.398   8.321 -0.0290  0.6867 -0.4568
  616MOL0     C83063   5.023   5.286   8.345  0.0459  0.4477  0.2628
  616MOL0     C83064   4.917   5.267   8.235 -0.5956 -0.4619 -0.1591
  616MOL0     C83065   4.836   5.141   8.256 -0.1812 -0.4047  0.0018
  616MOL0     C83066   4.708   5.141   8.169 -0.8121 -0.8948 -0.3016
  616MOL0     C83067   4.625   5.013   8.203 -0.1916  0.1646 -0.4956
  616MOL0     C83068   4.546   5.057   8.333 -0.5683  0.4576  1.0125
  616MOL0     C83069   4.416   5.135   8.288 -0.4643 -0.6317 -0.7842
  616MOL0    Cl83070   4.307   5.020   8.189 -0.4588 -0.2674 -0.2238
  616MOL0     C83071   5.384   5.498   8.296  0.2962  0.1132 -0.1075
  616MOL0     C83072   5.518   5.543   8.287 -0.4206  0.6290 -0.7821
  616MOL0     O83073   5.749   5.312   8.293  0.3048 -0.2317 -0.0759
  616MOL0     C83074   6.011   5.360   8.366  0.4795 -0.0403 -0.9065
  616MOL0     C83075   6.144   5.382   8.406  0.4958  0.0930 -0.0683
  616MOL0     N83076   6.906   5.348   8.133 -0.3415 -0.0121  0.1015
  616MOL0     N83077   7.039   5.350   8.112  0.2353 -0.0801  0.1045
  616MOL0     C83078   8.070   5.275   8.584 -0.0290 -1.0024  0.0905
  616MOL0     C83079   8.170   5.183   8.620 -0.1312 -0.1803  0.3703
  616MOL0     C83080   8.377   4.827   8.838 -0.3685 -0.1469 -0.6424
  616MOL0     C83081   8.497   4.899   8.835 -1.0375  0.1254 -0.2392
  616MOL0     C83082   8.615   4.851   8.899  0.6743 -0.4909 -0.1278
  616MOL0     C83083   8.603   4.728   8.965 -0.7049  0.5516 -0.3402
  616MOL0     O83084   8.702   4.657   9.027 -0.5078 -0.2029  0.2304
  616MOL0     C83085   8.829   4.719   9.041  0.7457  0.1407  0.1183
  616MOL0     C83086   8.927   4.617   9.098 -0.1728 -0.3228  1.1967
  616MOL0     C83087   9.063   4.684   9.121 -0.0919 -0.9363 -0.5632
  616MOL0     C83088   9.171   4.662   9.000 -0.0805 -0.3460 -0.1085
  616MOL0     C83089   9.198   4.784   8.915  0.5509 -0.6995 -0.0485
  616MOL0     C83090   9.244   4.872   8.839  0.2700  0.6115  0.7859
  616MOL0     C83091   8.486   4.661   8.966 -0.8755  0.7981  0.8719
  616MOL0     C83092   8.370   4.713   8.904  1.0902 -0.1951  0.2483
  616MOL0     H83093   7.997   4.997   8.833 -1.9073  1.5262  1.2801
  616MOL0     H83094   7.815   5.156   8.768  0.2464 -0.3134  2.6977
  616MOL0     H83095   7.920   5.525   8.550  1.2103 -0.6424 -1.8635
  616MOL0     H83096   7.867   5.416   8.416  0.7418 -0.9327  0.4945
  616MOL0     H83097   7.650   5.494   8.600  0.0009  1.5583  1.5430
  616MOL0     H83098   7.725   5.630   8.541 -1.8413  0.2312  1.2626
  616MOL0     H83099   7.684   5.519   8.305 -2.1942 -1.1219 -2.0077
  616MOL0     H83100   7.584   5.391   8.386 -3.4301  0.6172 -0.2715
  616MOL0     H83101   7.450   5.577   8.477  0.0308  0.5855  0.6594
  616MOL0     H83102   7.547   5.697   8.385 -0.4894  1.1051 -1.9398
  616MOL0     H83103   7.493   5.598   8.166 -2.0700  4.8148 -1.2245
  616MOL0     H83104   7.402   5.471   8.233 -0.9296  0.6893 -2.0643
  616MOL0     H83105   7.233   5.636   8.323 -0.6259 -1.4066 -0.6065
  616MOL0     H83106   7.344   5.772   8.270  0.4876  0.0104  0.8268
  616MOL0     H83107   7.166   5.738   8.109 -0.5722 -0.0441 -2.0534
  616MOL0     H83108   7.326   5.699   8.046 -0.2782  1.5922  0.1619
  616MOL0     H83109   7.274   5.445   8.065  0.3399 -0.3375 -2.6203
  616MOL0     H83110   7.178   5.543   7.951 -0.9908  1.5767  0.6180
  616MOL0     H83111   6.978   5.667   8.120  4.5389  0.5145  0.5776
  616MOL0     H83112   6.724   5.629   8.147 -1.5752  0.2713  2.3031
  616MOL0     H83113   6.667   5.503   8.050  0.0971 -0.7762 -0.1811
  616MOL0     H83114   6.719   5.477   8.349 -1.3709  1.7067  0.0683
  616MOL0     H83115   6.650   5.355   8.250  3.1967 -0.1236 -2.5204
  616MOL0     H83116   6.450   5.509   8.187  1.1395  0.2170 -1.3387
  616MOL0     H83117   6.516   5.633   8.301 -2.7882  0.5402  0.9614
  616MOL0     H83118   6.508   5.441   8.475 -2.0400 -0.1465  1.1612
  616MOL0     H83119   6.401   5.364   8.348 -1.7325 -0.2248  1.3084
  616MOL0     H83120   6.207   5.682   8.298  1.8746 -2.5545 -1.0837
  616MOL0     H83121   5.892   5.699   8.134  0.3777 -0.8710  0.3047
  616MOL0     H83122   5.863   5.745   8.311 -0.0041  2.0950  0.2366
  616MOL0     H83123   6.007   5.802   8.227 -1.9190  0.8733 -0.3238
  616MOL0     H83124   5.594   5.376   8.000 -1.0718 -1.9319 -0.3984
  616MOL0     H83125   5.367   5.329   8.006  4.2981 -1.1542 -1.8819
  616MOL0     H83126   5.177   5.392   8.412 -0.5492 -1.5698 -0.2063
  616MOL0     H83127   5.072   5.498   8.312  1.9562  1.5388 -1.6958
  616MOL0     H83128   5.096   5.205   8.358  0.3302  0.7251  0.4038
  616MOL0     H83129   4.965   5.299   8.437 -2.4333 -0.0937 -1.1370
  616MOL0     H83130   4.976   5.266   8.143 -0.0379  2.4074  0.0697
  616MOL0     H83131   4.857   5.358   8.233 -0.7491 -0.5656 -1.4672
  616MOL0     H83132   4.896   5.050   8.238  1.2738  0.5892 -0.4017
  616MOL0     H83133   4.813   5.142   8.363  0.4405 -3.6589  0.2920
  616MOL0     H83134   4.746   5.147   8.067  4.0216 -2.3426  1.1330
  616MOL0     H83135   4.650   5.234   8.173  1.3064  0.5427 -1.1256
  616MOL0     H83136   4.555   4.998   8.120 -0.6972  1.9322 -0.4127
  616MOL0     H83137   4.699   4.932   8.212 -0.3716  0.1623  1.4184
  616MOL0     H83138   4.610   5.125   8.391 -0.6476  2.8172 -1.4687
  616MOL0     H83139   4.519   4.966   8.387  1.2394 -0.7600 -0.0722
  616MOL0     H83140   4.449   5.218   8.225 -0.5925  0.5138  0.6138
  616MOL0     H83141   4.358   5.175   8.371  2.4944 -1.7882  2.0572
  616MOL0     H83142   5.321   5.526   8.380  2.6854  0.8550  1.5704
  616MOL0     H83143   5.552   5.607   8.368  0.5337 -1.1018  0.2417
  616MOL0     H83144   5.965   5.268   8.399 -0.5065  1.0109  0.8029
  616MOL0     H83145   6.200   5.310   8.465 -0.6882 -0.3267  0.5808
  616MOL0     H83146   8.094   5.347   8.506  1.7958 -1.7198 -0.0619
  616MOL0     H83147   8.271   5.192   8.582 -0.2109 -1.2814 -0.1477
  616MOL0     H83148   8.499   5.000   8.794 -2.9030  0.2003 -0.2306
  616MOL0     H83149   8.695   4.925   8.896 -1.5499  2.0564 -2.9584
  616MOL0     H83150   8.864   4.755   8.944  1.4491 -2.4429 -0.6734
  616MOL0     H83151   8.827   4.809   9.102  3.0585  1.2691 -1.3433
  616MOL0     H83152   8.946   4.540   9.023 -4.1703 -0.0234 -0.3330
  616MOL0     H83153   8.889   4.572   9.190 -2.9973  0.2048  0.3749
  616MOL0     H83154   9.107   4.633   9.208  2.1339  0.7404 -0.6304
  616MOL0     H83155   9.058   4.790   9.147 -1.7847 -1.4269  1.4414
  616MOL0     H83156   9.145   4.580   8.932 -0.0957 -0.9924  0.6563
  616MOL0     H83157   9.264   4.621   9.043 -0.1594 -0.9756 -0.5286
  616MOL0     H83158   9.270   4.954   8.775 -1.5433 -1.1111 -2.4302
  616MOL0     H83159   8.488   4.563   9.013 -2.2322  1.5501  2.6512
  616MOL0     H83160   8.281   4.653   8.922  1.0387  0.3143  1.7997
  617MOL0     O83161   2.866  10.025   5.743 -0.8367  0.1683  0.1693
  617MOL0     C83162   2.930  10.069   5.840  0.0939  0.7888  0.8040
  617MOL0     O83163   2.890  10.165   5.922  0.0717  0.2620  0.8302
  617MOL0     C83164   2.755  10.188   5.935  0.1977  0.4618  0.5693
  617MOL0     C83165   2.713  10.323   5.948  0.4862  0.3736 -0.8328
  617MOL0     C83166   2.580  10.346   5.973 -0.2376 -0.4803 -0.1770
  617MOL0     C83167   2.484  10.249   5.977 -0.0390 -0.6444  1.0587
  617MOL0     O83168   2.356  10.272   5.983  0.2006  0.6067 -0.0557
  617MOL0     C83169   2.305  10.394   5.919 -0.2914  0.9042 -0.3619
  617MOL0     C83170   2.153  10.378   5.905  0.3054  0.2385  0.1705
  617MOL0     C83171   2.070  10.394   6.036 -0.2034  0.1785  0.7950
  617MOL0     C83172   1.920  10.373   6.010 -0.1712 -0.3580 -0.2710
  617MOL0     C83173   1.847  10.391   6.139  0.3610  0.4132 -0.3212
  617MOL0     C83174   1.724  10.296   6.146 -0.9036 -0.4889  0.6363
  617MOL0     C83175   1.654  10.323   6.280  0.0279  0.1937 -0.6468
  617MOL0     C83176   1.545  10.217   6.308  0.6331  0.0524  0.5250
  617MOL0     N83177   1.444  10.210   6.204 -0.0586 -0.3072  0.6012
  617MOL0     C83178   1.320  10.263   6.207  0.8542 -0.9181  0.0706
  617MOL0     C83179   1.248  10.201   6.112  0.2575  0.3445 -0.0383
  617MOL0     C83180   1.101  10.218   6.093  0.7621 -0.2928 -0.0929
  617MOL0     C83181   1.032  10.138   5.979  0.6244 -0.1195 -0.6959
  617MOL0     C83182   0.888  10.169   5.971  0.1667 -0.2880  0.4226
  617MOL0     C83183   0.814  10.086   5.861  0.0671 -0.1778  0.6075
  617MOL0     O83184   0.715  10.169   5.800 -0.0226  0.1765 -0.1398
  617MOL0     C83185   0.624  10.105   5.713 -0.1801 -0.0028 -0.2159
  617MOL0     C83186   0.660  10.041   5.587  0.1502  0.0713  1.2074
  617MOL0     C83187   0.559   9.984   5.503 -0.1444 -0.4019  0.5888
  617MOL0     C83188   0.607   9.908   5.377  0.2252  0.5791  0.0272
  617MOL0     C83189   0.417  10.000   5.545  0.4606 -0.2282 -0.3705
  617MOL0     C83190   0.301   9.943   5.471  0.3986  0.0833  0.0499
  617MOL0     O83191   0.180   9.946   5.528  0.1166 -0.8327 -0.9637
  617MOL0     C83192   0.065   9.911   5.468  0.3657 -0.6878 -1.0599
  617MOL0     C83193  -0.005   9.795   5.492  0.0457 -0.0287 -1.1389
  617MOL0     C83194  -0.124   9.769   5.421  0.1183 -0.1662  0.5793
  617MOL0     C83195  -0.187   9.872   5.351  0.1698 -0.0524 -0.6572
  617MOL0     O83196  -0.310   9.844   5.291  0.7344 -0.0139 -0.5071
  617MOL0     C83197  -0.424   9.804   5.367 -0.4897  0.4476  0.6886
  617MOL0     C83198  -0.536   9.844   5.285  0.9839  0.3395  0.4911
  617MOL0     C83199  -0.553   9.988   5.243  0.1109  0.3218  0.5294
  617MOL0     C83200  -0.694  10.019   5.181  0.6298  0.4176 -0.2082
  617MOL0     C83201  -0.732  10.168   5.197  0.9941 -0.1129 -1.3730
  617MOL0     C83202  -0.636  10.272   5.131 -0.0032  0.2813 -0.6741
  617MOL0     C83203  -0.673  10.281   4.986 -0.0411  0.6155 -0.4240
  617MOL0     C83204  -0.558  10.353   4.913  0.5874 -0.2397 -0.0743
  617MOL0    Cl83205  -0.595  10.366   4.745  0.3776 -0.2347  0.2328
  617MOL0     C83206  -0.117   9.984   5.314 -0.3361  0.5210 -0.5785
  617MOL0     C83207   0.012  10.002   5.369 -0.5249 -0.0628  0.3688
  617MOL0     O83208   0.316   9.914   5.349  0.7088  0.2706 -0.2023
  617MOL0     C83209   0.389  10.051   5.679  0.1279 -0.1408  0.2018
  617MOL0     C83210   0.491  10.104   5.747 -0.5044  0.0996 -0.5006
  617MOL0     N83211   1.333  10.109   6.050  0.5066  0.0059  0.5916
  617MOL0     N83212   1.444  10.107   6.115 -0.5941  0.3217  1.0793
  617MOL0     C83213   2.523  10.120   5.965 -0.1834 -0.4121  0.1814
  617MOL0     C83214   2.659  10.083   5.940  0.0686  0.7573 -0.2000
  617MOL0     C83215   3.060  10.001   5.860 -0.3235  0.3034 -0.4110
  617MOL0     C83216   3.168  10.083   5.904 -0.0971  0.5513 -0.3422
  617MOL0     C83217   3.292  10.026   5.936 -0.2320  0.1839  0.1408
  617MOL0     C83218   3.317   9.888   5.927  0.4010 -0.2477  0.0150
  617MOL0     O83219   3.448   9.850   5.949 -0.7410  0.1469 -0.4888
  617MOL0     C83220   3.495   9.723   5.900  0.5622  0.1465  0.6131
  617MOL0     C83221   3.632   9.741   5.827 -0.4572  0.7152  0.2124
  617MOL0     C83222   3.739   9.755   5.930 -0.2870 -0.0076 -0.2951
  617MOL0     C83223   3.772   9.629   6.020  0.4396  0.2859 -0.0022
  617MOL0     C83224   3.910   9.579   5.997 -0.1861 -0.4284  1.4186
  617MOL0     C83225   4.011   9.528   5.956 -0.4785  0.3481  0.5147
  617MOL0     C83226   3.212   9.813   5.869 -0.3790 -0.1177 -0.3295
  617MOL0     C83227   3.085   9.867   5.836 -0.6148 -0.3952  0.4031
  617MOL0     H83228   2.787  10.402   5.944  1.2478 -0.3754 -2.4096
  617MOL0     H83229   2.549  10.450   5.985  0.3605 -0.3106 -0.0728
  617MOL0     H83230   2.327  10.478   5.986 -1.9009  1.0168  0.0788
  617MOL0     H83231   2.345  10.407   5.818  0.6838  2.1923  0.1739
  617MOL0     H83232   2.118  10.455   5.836  1.3760 -0.9326 -1.7685
  617MOL0     H83233   2.129  10.282   5.859  2.9488 -0.7569  0.6667
  617MOL0     H83234   2.107  10.320   6.108 -1.7577 -1.4906 -0.0436
  617MOL0     H83235   2.089  10.493   6.077  0.4151  0.4296 -0.0511
  617MOL0     H83236   1.886  10.449   5.939 -0.9482 -0.3053  0.1387
  617MOL0     H83237   1.893  10.276   5.969  0.4224 -1.2143  1.2955
  617MOL0     H83238   1.910  10.388   6.229 -2.2164 -0.8569  1.5391
  617MOL0     H83239   1.799  10.490   6.142 -1.3647 -0.4208  1.0838
  617MOL0     H83240   1.651  10.304   6.065 -4.6082  0.4712  3.7115
  617MOL0     H83241   1.764  10.195   6.135 -2.6936 -1.2180  0.3411
  617MOL0     H83242   1.727  10.323   6.361 -0.5935 -0.3756 -0.0671
  617MOL0     H83243   1.612  10.424   6.282  2.4929  1.3097 -1.4347
  617MOL0     H83244   1.491  10.240   6.400  0.1994 -2.6585  1.0168
  617MOL0     H83245   1.604  10.127   6.329 -1.7596 -1.6787  0.2700
  617MOL0     H83246   1.295  10.337   6.283  1.6103 -1.6372  1.0337
  617MOL0     H83247   1.049  10.187   6.184 -0.6875  0.8875 -0.4687
  617MOL0     H83248   1.083  10.324   6.073 -0.3684 -0.2559  1.0020
  617MOL0     H83249   1.046  10.036   6.017  2.8729  1.3206  2.9255
  617MOL0     H83250   1.091  10.147   5.887 -1.3201  1.2685 -1.8763
  617MOL0     H83251   0.880  10.273   5.938  3.7283 -0.5580 -1.8222
  617MOL0     H83252   0.836  10.147   6.065  1.2784 -0.1233  1.0859
  617MOL0     H83253   0.773   9.995   5.904 -3.7233  0.5674 -1.0487
  617MOL0     H83254   0.886  10.050   5.787 -1.5100 -2.4309  0.0849
  617MOL0     H83255   0.764  10.037   5.555 -1.0217 -2.6584 -3.2164
  617MOL0     H83256   0.582   9.960   5.285 -1.6972  0.8464  0.6681
  617MOL0     H83257   0.714   9.889   5.367 -0.3099 -2.4315 -0.9818
  617MOL0     H83258   0.548   9.816   5.380 -2.0352  1.9973  1.5650
  617MOL0     H83259   0.030   9.723   5.565  0.4700  0.5105 -0.8058
  617MOL0     H83260  -0.184   9.678   5.424  1.2207 -0.9031  3.1400
  617MOL0     H83261  -0.419   9.698   5.395  1.7155 -0.3379 -2.1398
  617MOL0     H83262  -0.417   9.863   5.458 -2.3238  1.2552  0.3437
  617MOL0     H83263  -0.536   9.790   5.191 -1.2774  1.0081  0.0525
  617MOL0     H83264  -0.627   9.820   5.341  0.7865  2.2285  1.0762
  617MOL0     H83265  -0.486  10.016   5.161 -1.3529  2.6638  0.0251
  617MOL0     H83266  -0.529  10.049   5.330 -0.3667  2.5113 -0.8012
  617MOL0     H83267  -0.708   9.994   5.076  0.3814 -0.9605  0.1278
  617MOL0     H83268  -0.768   9.962   5.238  0.1959 -0.4183 -1.5571
  617MOL0     H83269  -0.737  10.198   5.302 -1.9466  0.6473 -1.6150
  617MOL0     H83270  -0.836  10.185   5.166  0.0979  3.6195  2.6589
  617MOL0     H83271  -0.651  10.369   5.181  1.2040  0.2714 -0.2699
  617MOL0     H83272  -0.530  10.245   5.133  0.0067  0.3419 -0.1226
  617MOL0     H83273  -0.774  10.318   4.968 -0.8200 -1.8263 -1.4098
  617MOL0     H83274  -0.694  10.181   4.949 -3.2173  0.7649  0.6874
  617MOL0     H83275  -0.460  10.308   4.932  0.8977  1.5636  3.4213
  617MOL0     H83276  -0.565  10.453   4.957  0.7941 -0.8794  1.4766
  617MOL0     H83277  -0.161  10.060   5.250  2.5068  2.7854 -0.0999
  617MOL0     H83278   0.072  10.091   5.355  0.3221 -0.2156  2.5257
  617MOL0     H83279   0.294  10.051   5.732  0.7735 -2.1356  1.4711
  617MOL0     H83280   0.471  10.144   5.845  1.7420  1.3301 -0.4644
  617MOL0     H83281   2.448  10.043   5.981  0.3053 -0.5106  2.2123
  617MOL0     H83282   2.694   9.980   5.931 -2.6540 -0.5728  2.5633
  617MOL0     H83283   3.156  10.190   5.917 -1.0959  0.4883 -0.6813
  617MOL0     H83284   3.376  10.085   5.969 -0.6646 -0.6250  2.9633
  617MOL0     H83285   3.497   9.659   5.989  1.1904  2.5404  2.4145
  617MOL0     H83286   3.435   9.663   5.830 -0.8459  0.2217  1.7148
  617MOL0     H83287   3.635   9.834   5.770  2.1204  2.2837  2.6063
  617MOL0     H83288   3.650   9.649   5.772 -0.7517  0.6790  0.1748
  617MOL0     H83289   3.717   9.836   6.000 -0.9589 -1.0039  0.6716
  617MOL0     H83290   3.834   9.776   5.880  0.2415  0.2340  0.7825
  617MOL0     H83291   3.706   9.544   5.998 -0.4706  0.2400  2.5994
  617MOL0     H83292   3.752   9.650   6.125 -1.0107 -1.5104  0.1367
  617MOL0     H83293   4.108   9.489   5.932 -0.8085 -1.3786  1.7778
  617MOL0     H83294   3.233   9.707   5.868  1.1094  0.1529 -1.0882
  617MOL0     H83295   3.003   9.801   5.808  2.6039 -4.2997 -0.8702
  618MOL0     O83296   4.454   1.889   1.707  0.2586  0.4660  0.0490
  618MOL0     C83297   4.453   1.794   1.785 -0.4116  0.3422  0.7474
  618MOL0     O83298   4.348   1.718   1.826  0.1850  0.1805  0.5747
  618MOL0     C83299   4.219   1.749   1.776  0.0831 -0.9886  0.3015
  618MOL0     C83300   4.119   1.804   1.853  0.6068  0.0929 -0.7124
  618MOL0     C83301   3.992   1.841   1.802 -0.3860 -0.6515 -0.0826
  618MOL0     C83302   3.966   1.845   1.661  0.0339 -0.0904 -0.4913
  618MOL0     O83303   3.858   1.914   1.619  0.7333  0.6461 -0.1361
  618MOL0     C83304   3.802   1.888   1.489  0.7617 -0.1940 -0.0296
  618MOL0     C83305   3.658   1.916   1.480  0.2283  0.0694 -0.3908
  618MOL0     C83306   3.579   1.804   1.550  0.5672  0.2999  0.7442
  618MOL0     C83307   3.427   1.844   1.546 -0.4071 -0.5996 -0.0909
  618MOL0     C83308   3.345   1.733   1.612 -0.7021 -1.4146  0.4895
  618MOL0     C83309   3.203   1.787   1.631  0.2594  0.9612 -0.3189
  618MOL0     C83310   3.106   1.669   1.670 -0.3099 -0.1168  0.4009
  618MOL0     C83311   2.964   1.723   1.690  0.0648 -0.3043  0.1897
  618MOL0     N83312   2.918   1.713   1.829  0.0347  0.4431 -0.1417
  618MOL0     C83313   2.823   1.788   1.880 -0.6014  0.7287  0.0440
  618MOL0     C83314   2.787   1.724   1.992  0.3957 -0.1878 -0.1613
  618MOL0     C83315   2.675   1.761   2.086  0.7297 -0.1235 -0.3703
  618MOL0     C83316   2.566   1.652   2.102  0.5340  0.9711 -0.4197
  618MOL0     C83317   2.446   1.711   2.160 -0.0295  0.7675  0.0132
  618MOL0     C83318   2.344   1.596   2.156  0.4773 -0.2062 -0.2551
  618MOL0     O83319   2.230   1.659   2.212 -0.2958 -0.1364 -0.0305
  618MOL0     C83320   2.131   1.574   2.266 -0.1994  1.1168  0.5128
  618MOL0     C83321   2.155   1.451   2.337  0.6390  0.0629  0.2105
  618MOL0     C83322   2.050   1.370   2.382 -0.5917 -0.2973  0.6136
  618MOL0     C83323   2.094   1.243   2.448 -0.0388 -0.3832  0.5085
  618MOL0     C83324   1.916   1.423   2.369  0.5175  0.1671  0.5094
  618MOL0     C83325   1.798   1.342   2.415  0.7736 -0.6129 -0.3290
  618MOL0     O83326   1.683   1.400   2.378  0.3135 -0.1026 -0.6653
  618MOL0     C83327   1.569   1.359   2.437 -0.6989  0.0309 -0.5018
  618MOL0     C83328   1.484   1.464   2.441  0.0114  0.6481  0.2856
  618MOL0     C83329   1.360   1.456   2.495 -0.3890  1.1629  0.0311
  618MOL0     C83330   1.315   1.337   2.560  0.2116 -0.4204 -1.5155
  618MOL0     O83331   1.192   1.334   2.621 -0.3422  0.6603  0.2964
  618MOL0     C83332   1.104   1.441   2.598  0.4803  0.6181 -0.0613
  618MOL0     C83333   1.049   1.445   2.457 -0.3872  0.3413 -0.2752
  618MOL0     C83334   0.945   1.327   2.431  0.8328 -0.0391  0.2793
  618MOL0     C83335   0.839   1.371   2.328  0.1547 -0.1979 -0.5962
  618MOL0     C83336   0.718   1.261   2.329  0.9744 -0.0980 -0.4005
  618MOL0     C83337   0.630   1.271   2.206 -0.3845 -0.7130  1.2333
  618MOL0     C83338   0.539   1.149   2.199 -0.4937  0.5992  0.5911
  618MOL0     C83339   0.438   1.156   2.093  0.1814  0.4294  0.4503
  618MOL0    Cl83340   0.282   1.232   2.148 -0.2157  0.3072  0.1573
  618MOL0     C83341   1.400   1.229   2.569 -0.2718  0.3434 -0.0475
  618MOL0     C83342   1.529   1.240   2.509 -0.3933  0.1700 -0.5022
  618MOL0     O83343   1.815   1.245   2.489  0.7559  0.4943  0.2967
  618MOL0     C83344   1.897   1.551   2.318  0.4003  0.0914  0.5661
  618MOL0     C83345   2.004   1.628   2.268  0.6274  0.6770  0.5534
  618MOL0     N83346   2.876   1.619   2.019  0.2983 -0.5073  0.1613
  618MOL0     N83347   2.952   1.623   1.919 -0.3296  0.1416  0.0753
  618MOL0     C83348   4.064   1.790   1.580  0.2344  0.2063  0.7120
  618MOL0     C83349   4.182   1.737   1.639  0.1736  0.8227  0.0249
  618MOL0     C83350   4.581   1.755   1.830  0.3727  0.3491 -0.6058
  618MOL0     C83351   4.603   1.632   1.891 -0.3739  0.4836  0.0205
  618MOL0     C83352   4.737   1.589   1.908  0.9426 -0.2206 -0.5725
  618MOL0     C83353   4.850   1.657   1.867 -1.1288  0.8233  0.0601
  618MOL0     O83354   4.969   1.604   1.899 -0.1987 -0.1589  0.0696
  618MOL0     C83355   5.050   1.579   1.790 -0.2966 -1.5462  0.7851
  618MOL0     C83356   5.181   1.663   1.789 -0.2749  0.2617 -0.1447
  618MOL0     C83357   5.308   1.584   1.831  0.3897  0.3617  0.5774
  618MOL0     C83358   5.305   1.561   1.979  0.3231 -0.1483 -0.5091
  618MOL0     C83359   5.436   1.523   2.031 -0.4863  0.1966 -0.1436
  618MOL0     C83360   5.542   1.483   2.081  0.2236  0.2909 -0.8318
  618MOL0     C83361   4.827   1.784   1.808  0.2522 -0.1035 -0.5073
  618MOL0     C83362   4.694   1.832   1.790  0.2863  0.0680  0.5438
  618MOL0     H83363   4.150   1.812   1.957  0.9877  0.8152 -0.8747
  618MOL0     H83364   3.917   1.883   1.869  0.3382  1.1036 -0.3180
  618MOL0     H83365   3.857   1.955   1.422 -0.2409 -0.9121 -1.6230
  618MOL0     H83366   3.813   1.788   1.446 -1.1957 -0.2324 -0.5363
  618MOL0     H83367   3.648   2.013   1.530  0.3841  1.3489 -2.7151
  618MOL0     H83368   3.639   1.922   1.373 -2.4627 -3.9449 -0.3506
  618MOL0     H83369   3.606   1.707   1.508 -1.0923 -0.4953  1.4151
  618MOL0     H83370   3.603   1.800   1.657  0.5920  2.5732  0.8844
  618MOL0     H83371   3.416   1.943   1.593 -3.2328 -0.8965  0.0331
  618MOL0     H83372   3.391   1.849   1.443 -3.9412  1.2802  1.0514
  618MOL0     H83373   3.356   1.639   1.557 -1.4506 -1.3187  0.1645
  618MOL0     H83374   3.379   1.727   1.716  1.5184  1.7482  0.0900
  618MOL0     H83375   3.200   1.870   1.702 -1.5495 -0.1498  0.9908
  618MOL0     H83376   3.162   1.817   1.534 -3.9262  0.4386  1.0784
  618MOL0     H83377   3.100   1.592   1.592 -1.8370  0.1920  0.1748
  618MOL0     H83378   3.139   1.620   1.762  1.2500 -3.4641 -1.7719
  618MOL0     H83379   2.903   1.665   1.621  0.9346 -2.1945  0.9474
  618MOL0     H83380   2.961   1.827   1.654 -1.3137 -1.0871 -2.1485
  618MOL0     H83381   2.767   1.874   1.844 -2.8356 -0.8045 -0.4210
  618MOL0     H83382   2.719   1.774   2.185  1.4744  2.1703 -0.9172
  618MOL0     H83383   2.631   1.856   2.053  0.8600 -0.2035 -0.7885
  618MOL0     H83384   2.600   1.566   2.161 -2.3382  0.4728  0.6931
  618MOL0     H83385   2.536   1.615   2.004 -0.3253 -0.2913  0.2950
  618MOL0     H83386   2.411   1.797   2.103 -1.2617  0.2589 -0.0318
  618MOL0     H83387   2.457   1.732   2.267  0.1830  0.3475  0.0756
  618MOL0     H83388   2.379   1.509   2.212 -1.3686  0.1517  1.5796
  618MOL0     H83389   2.324   1.567   2.052 -1.9805  1.1442 -0.2330
  618MOL0     H83390   2.259   1.422   2.347  0.0688 -1.4507  2.3197
  618MOL0     H83391   2.198   1.221   2.424 -0.7705 -1.3739 -2.2050
  618MOL0     H83392   2.080   1.264   2.555 -1.3485  0.5337  0.1767
  618MOL0     H83393   2.041   1.151   2.419  1.6748 -1.3598  0.3380
  618MOL0     H83394   1.515   1.546   2.378  0.5526 -1.1452 -1.8872
  618MOL0     H83395   1.295   1.542   2.497 -3.0742 -0.7691  0.4405
  618MOL0     H83396   1.016   1.425   2.661  1.1312  0.7693  0.8992
  618MOL0     H83397   1.143   1.537   2.634 -0.0355  0.9999 -0.4856
  618MOL0     H83398   0.985   1.531   2.438 -2.7727 -0.6968  2.4318
  618MOL0     H83399   1.126   1.421   2.382 -0.6890  0.8878 -0.7657
  618MOL0     H83400   0.888   1.311   2.523  0.3755 -1.0493 -0.1713
  618MOL0     H83401   0.991   1.243   2.378  1.2974  0.3116  0.1220
  618MOL0     H83402   0.804   1.470   2.356  1.4296  0.2982 -0.6844
  618MOL0     H83403   0.895   1.374   2.235 -1.5737 -0.2187 -1.6725
  618MOL0     H83404   0.656   1.276   2.419  0.5930  1.6046 -0.9067
  618MOL0     H83405   0.762   1.161   2.336  1.3261  0.1405  1.1339
  618MOL0     H83406   0.572   1.364   2.208  1.9551  0.9599 -1.0348
  618MOL0     H83407   0.682   1.283   2.110 -1.9065 -1.2848  0.2917
  618MOL0     H83408   0.487   1.118   2.290 -1.3697 -0.3704 -0.2175
  618MOL0     H83409   0.594   1.059   2.172 -0.0777  0.7065  1.0694
  618MOL0     H83410   0.426   1.051   2.065  1.7311 -0.3048  2.2989
  618MOL0     H83411   0.480   1.212   2.009 -1.3981  2.8794  1.2071
  618MOL0     H83412   1.384   1.151   2.643  2.2227  1.5908  1.9690
  618MOL0     H83413   1.598   1.158   2.493 -0.4365  0.2903 -1.3630
  618MOL0     H83414   1.795   1.590   2.321 -0.1868 -1.1009 -1.5661
  618MOL0     H83415   1.985   1.722   2.216  0.0453  0.8280  1.0270
  618MOL0     H83416   4.046   1.796   1.473 -0.4376 -1.7772  0.6668
  618MOL0     H83417   4.267   1.685   1.597 -1.4633 -0.0277 -2.4099
  618MOL0     H83418   4.522   1.566   1.922  0.9963 -1.1274  0.2914
  618MOL0     H83419   4.749   1.492   1.954  0.6636 -0.7482 -1.5869
  618MOL0     H83420   5.081   1.474   1.794 -0.1754 -1.4997  1.1421
  618MOL0     H83421   4.999   1.603   1.697  2.9291 -2.0551 -1.2605
  618MOL0     H83422   5.182   1.744   1.862  0.8666  1.0169 -0.9720
  618MOL0     H83423   5.201   1.717   1.696  2.5229  1.2511  0.9289
  618MOL0     H83424   5.397   1.644   1.810  1.2789 -0.7625  1.0218
  618MOL0     H83425   5.320   1.491   1.774  0.0786  0.9431 -0.4606
  618MOL0     H83426   5.240   1.475   1.996 -2.7815  2.4219  2.0572
  618MOL0     H83427   5.260   1.638   2.042 -2.1311  0.7197 -3.1182
  618MOL0     H83428   5.635   1.441   2.114 -1.3958 -0.4649  3.3092
  618MOL0     H83429   4.911   1.843   1.774 -0.5531  2.1212  1.1893
  618MOL0     H83430   4.684   1.925   1.735 -1.0692 -0.1552  0.3855
  619MOL0     O83431   8.626   3.948   5.483 -0.2606 -0.4603  0.0821
  619MOL0     C83432   8.704   3.888   5.555  0.9650  0.3632 -0.3612
  619MOL0     O83433   8.754   3.930   5.678  1.2772  0.6501 -0.3971
  619MOL0     C83434   8.722   4.057   5.733  1.0929  0.7892  0.4256
  619MOL0     C83435   8.819   4.104   5.826 -0.1396  0.0920 -0.5618
  619MOL0     C83436   8.802   4.230   5.886 -0.2874 -0.6063  0.0801
  619MOL0     C83437   8.687   4.305   5.854  0.0930  0.0567 -0.3041
  619MOL0     O83438   8.690   4.442   5.892  0.5163  0.3787 -0.1641
  619MOL0     C83439   8.572   4.523   5.859 -0.7735 -0.4997 -0.4229
  619MOL0     C83440   8.600   4.655   5.929  0.2449 -0.6594 -0.5370
  619MOL0     C83441   8.468   4.734   5.959 -0.5321  0.4375  0.8753
  619MOL0     C83442   8.497   4.877   6.016 -0.5214  0.0183 -0.4202
  619MOL0     C83443   8.369   4.950   6.046  0.2396 -0.4730 -0.3221
  619MOL0     C83444   8.402   5.096   6.089  0.0720 -0.6494 -0.1374
  619MOL0     C83445   8.351   5.205   6.003 -0.4203  0.8132  0.5333
  619MOL0     C83446   8.198   5.238   5.999 -0.3784 -0.6970 -0.5800
  619MOL0     N83447   8.174   5.363   5.917  0.1893  0.5050 -0.2440
  619MOL0     C83448   8.197   5.491   5.965  0.2060  0.7394  0.2427
  619MOL0     C83449   8.157   5.573   5.868 -0.0656 -0.0391 -0.4119
  619MOL0     C83450   8.130   5.721   5.875 -0.3708  0.3363  0.0155
  619MOL0     C83451   7.992   5.745   5.926 -0.0293 -0.1576 -0.2247
  619MOL0     C83452   7.960   5.893   5.960 -0.5424  0.5828 -0.8145
  619MOL0     C83453   7.810   5.914   5.988  0.0009  0.2626  0.1890
  619MOL0     O83454   7.779   6.052   6.013  0.0747 -0.2596 -0.3290
  619MOL0     C83455   7.686   6.094   6.110 -0.5528  0.0809 -0.0638
  619MOL0     C83456   7.703   6.095   6.245  0.0353  0.5007  0.6380
  619MOL0     C83457   7.599   6.135   6.334 -0.0520 -1.0523 -0.4551
  619MOL0     C83458   7.643   6.136   6.478  0.5036 -0.2341 -0.7780
  619MOL0     C83459   7.476   6.185   6.285  0.6709 -0.1038 -0.0029
  619MOL0     C83460   7.365   6.244   6.364 -0.0355 -0.6123 -0.0358
  619MOL0     O83461   7.254   6.262   6.290  0.5137  0.0310  1.2104
  619MOL0     C83462   7.144   6.317   6.355 -0.0487  0.8880 -0.7379
  619MOL0     C83463   7.052   6.228   6.409 -0.3865  0.0084 -0.2650
  619MOL0     C83464   6.942   6.283   6.480 -0.0816 -0.1242  0.1512
  619MOL0     C83465   6.928   6.419   6.492  0.1719  0.8087 -0.0425
  619MOL0     O83466   6.797   6.455   6.534 -0.3545 -0.1660 -0.5043
  619MOL0     C83467   6.755   6.583   6.505 -0.2128 -0.8466 -0.5168
  619MOL0     C83468   6.604   6.598   6.539 -0.4932 -0.1313 -0.1052
  619MOL0     C83469   6.521   6.524   6.436  0.8063 -0.2610 -0.4571
  619MOL0     C83470   6.373   6.590   6.425 -0.5905  0.3003 -0.3712
  619MOL0     C83471   6.284   6.494   6.340 -0.7863 -0.8367  0.0951
  619MOL0     C83472   6.133   6.525   6.375  0.0251  0.1366 -0.0729
  619MOL0     C83473   6.033   6.448   6.285 -0.3126 -0.7349  0.2886
  619MOL0     C83474   5.898   6.448   6.348  0.6943 -0.0880 -0.3649
  619MOL0    Cl83475   5.786   6.367   6.236 -0.0827  0.0559  0.4423
  619MOL0     C83476   7.025   6.505   6.443  0.0264 -0.6218 -0.1137
  619MOL0     C83477   7.132   6.454   6.369 -0.9836  0.6233  0.5861
  619MOL0     O83478   7.378   6.275   6.485 -0.5349 -0.5185 -0.2285
  619MOL0     C83479   7.456   6.181   6.145  0.2500  0.3197 -0.1505
  619MOL0     C83480   7.564   6.136   6.058  0.8758  0.1019  0.3398
  619MOL0     N83481   8.125   5.496   5.758  0.8861  0.5102 -0.0486
  619MOL0     N83482   8.138   5.372   5.792 -0.3068  0.2348  1.0189
  619MOL0     C83483   8.580   4.255   5.783  0.9335 -0.0850  0.0063
  619MOL0     C83484   8.601   4.135   5.715 -0.1580 -0.2242  1.1262
  619MOL0     C83485   8.743   3.756   5.509 -0.0895  0.3184  0.4139
  619MOL0     C83486   8.870   3.705   5.546 -0.0207 -0.3674  0.3160
  619MOL0     C83487   8.927   3.606   5.470 -0.0963  0.0419  0.2546
  619MOL0     C83488   8.865   3.546   5.359 -0.4482  0.3193 -0.0851
  619MOL0     O83489   8.935   3.442   5.298 -0.4605  0.0613  0.4638
  619MOL0     C83490   8.876   3.364   5.192  0.4371 -0.3282 -1.1395
  619MOL0     C83491   8.937   3.223   5.159  0.7828 -0.5879 -0.2203
  619MOL0     C83492   9.082   3.246   5.121 -0.1045 -0.2034 -0.3313
  619MOL0     C83493   9.166   3.143   5.193  0.6401 -1.0501 -0.3227
  619MOL0     C83494   9.300   3.138   5.148  0.5721 -0.3238  0.1360
  619MOL0     C83495   9.417   3.158   5.120 -0.1317  0.5117  0.6687
  619MOL0     C83496   8.742   3.592   5.322  0.3493  1.3608 -0.2982
  619MOL0     C83497   8.680   3.697   5.394 -0.4667 -0.7079 -0.0007
  619MOL0     H83498   8.910   4.050   5.852  0.2143  1.2458  0.7344
  619MOL0     H83499   8.882   4.278   5.942  0.2357  0.1274 -1.2404
  619MOL0     H83500   8.563   4.531   5.750  2.5178 -1.8188 -0.8963
  619MOL0     H83501   8.483   4.474   5.900 -0.6696 -0.0075  0.4007
  619MOL0     H83502   8.647   4.645   6.027 -0.3746  0.8832 -0.0594
  619MOL0     H83503   8.668   4.717   5.870 -0.9008  2.9046  1.6118
  619MOL0     H83504   8.408   4.739   5.867 -0.8988 -1.5149  0.9544
  619MOL0     H83505   8.396   4.686   6.026 -1.1984 -0.0610 -0.1735
  619MOL0     H83506   8.551   4.846   6.106 -2.0772  1.1861  0.9719
  619MOL0     H83507   8.564   4.927   5.946  1.5653 -1.4764  0.3991
  619MOL0     H83508   8.308   4.937   5.956 -0.1330 -0.6224 -0.0479
  619MOL0     H83509   8.315   4.895   6.123 -1.8659 -1.2035 -2.2004
  619MOL0     H83510   8.370   5.114   6.192  0.3685  0.6615 -0.2553
  619MOL0     H83511   8.511   5.109   6.095  0.5001 -3.8202  0.7006
  619MOL0     H83512   8.415   5.291   6.027  1.9814 -0.6081 -0.4291
  619MOL0     H83513   8.373   5.180   5.899  0.7768  0.4586  0.8515
  619MOL0     H83514   8.166   5.269   6.098  2.7881 -0.9905  0.6646
  619MOL0     H83515   8.147   5.160   5.942 -3.2126  1.8525 -1.8150
  619MOL0     H83516   8.215   5.509   6.070  2.7128 -0.2310  0.0364
  619MOL0     H83517   8.212   5.767   5.932 -1.4062  0.3771  1.5409
  619MOL0     H83518   8.128   5.764   5.775  1.7572 -2.3512 -1.3127
  619MOL0     H83519   7.966   5.683   6.012 -2.1029  3.4941  2.0354
  619MOL0     H83520   7.920   5.718   5.849 -0.9502 -2.0591  1.2346
  619MOL0     H83521   7.991   5.965   5.884 -1.2781  1.6719 -0.1175
  619MOL0     H83522   8.006   5.920   6.055 -3.8211  1.4704  0.6805
  619MOL0     H83523   7.770   5.843   6.062 -1.0329 -1.3250 -1.7726
  619MOL0     H83524   7.751   5.876   5.904 -2.0490  1.1548  1.1553
  619MOL0     H83525   7.799   6.055   6.276  1.8691  1.9289 -2.6651
  619MOL0     H83526   7.662   6.240   6.507  2.6472  0.0737 -3.0103
  619MOL0     H83527   7.566   6.090   6.541  0.4530  2.1134  1.0490
  619MOL0     H83528   7.736   6.085   6.506 -1.3587 -2.2234  2.4642
  619MOL0     H83529   7.078   6.123   6.410 -1.5915 -0.2987  0.1214
  619MOL0     H83530   6.859   6.218   6.507  0.4103 -1.1223 -0.6531
  619MOL0     H83531   6.800   6.640   6.587 -0.0124 -0.5942 -0.8001
  619MOL0     H83532   6.774   6.624   6.405  1.4278 -0.2532  0.0089
  619MOL0     H83533   6.576   6.556   6.636  2.1450  0.3632  0.9537
  619MOL0     H83534   6.600   6.708   6.545  1.1387 -0.1260  1.6384
  619MOL0     H83535   6.522   6.416   6.453  1.0697 -0.2303 -0.2754
  619MOL0     H83536   6.565   6.531   6.336  1.3038  0.4110 -0.1986
  619MOL0     H83537   6.331   6.616   6.522 -1.6820  1.0681 -1.0348
  619MOL0     H83538   6.379   6.687   6.375 -1.7484  1.4413  1.5686
  619MOL0     H83539   6.309   6.387   6.341  2.3929 -0.5452 -5.6905
  619MOL0     H83540   6.316   6.524   6.240  1.5956 -0.1680  0.9751
  619MOL0     H83541   6.122   6.501   6.481 -0.2131 -1.9190 -0.5310
  619MOL0     H83542   6.106   6.630   6.357 -2.0449 -0.6556 -2.1107
  619MOL0     H83543   6.076   6.348   6.278  1.6161  0.1679 -2.1937
  619MOL0     H83544   6.026   6.499   6.189 -0.9163 -1.0031  0.1842
  619MOL0     H83545   5.856   6.548   6.353  2.5261  0.7508 -0.8985
  619MOL0     H83546   5.899   6.397   6.445  0.6832  3.1578  1.4527
  619MOL0     H83547   7.015   6.609   6.475  3.2533 -0.7145  1.5813
  619MOL0     H83548   7.196   6.529   6.324 -2.1397  0.5865 -1.2243
  619MOL0     H83549   7.366   6.209   6.092 -0.4556  2.7350  2.0958
  619MOL0     H83550   7.534   6.130   5.953 -2.9524  0.5606  1.2495
  619MOL0     H83551   8.481   4.299   5.785  0.9036 -0.0542 -1.3507
  619MOL0     H83552   8.518   4.116   5.647 -1.5759  2.1966  2.0145
  619MOL0     H83553   8.923   3.747   5.631 -1.9095  0.4492  1.1539
  619MOL0     H83554   9.024   3.571   5.505 -0.9177  0.3089  2.9529
  619MOL0     H83555   8.769   3.351   5.214  0.2395 -0.8751 -2.3599
  619MOL0     H83556   8.882   3.427   5.103 -1.9788  1.5727 -0.0798
  619MOL0     H83557   8.878   3.174   5.082  1.5027 -3.4886  0.9528
  619MOL0     H83558   8.943   3.157   5.247  0.9520 -0.1307  0.1159
  619MOL0     H83559   9.115   3.349   5.138  2.3722 -0.7187 -1.6411
  619MOL0     H83560   9.101   3.222   5.016  0.2861 -0.6777 -0.1539
  619MOL0     H83561   9.118   3.045   5.195  1.0988 -1.3141 -1.7367
  619MOL0     H83562   9.167   3.172   5.299 -1.3071  2.2770 -1.0437
  619MOL0     H83563   9.520   3.150   5.090 -0.3834 -0.3252 -0.0146
  619MOL0     H83564   8.686   3.537   5.248  0.6070  1.6197 -0.6918
  619MOL0     H83565   8.578   3.721   5.364  0.1688 -0.4252 -2.0753
  620MOL0     O83566   9.263   0.152   0.329 -0.1531  0.1151 -0.1508
  620MOL0     C83567   9.299   0.141   0.448  0.5114  0.2360  0.5361
  620MOL0     O83568   9.221   0.162   0.557 -0.1472  0.9003 -0.1897
  620MOL0     C83569   9.088   0.196   0.543  0.9462 -1.1109 -0.0075
  620MOL0     C83570   9.052   0.326   0.589 -0.5292 -0.1271  0.1022
  620MOL0     C83571   8.923   0.378   0.577  0.1107 -0.1610 -0.0981
  620MOL0     C83572   8.821   0.295   0.517 -0.9214 -0.0859 -0.9587
  620MOL0     O83573   8.690   0.348   0.493  0.2154  0.3869  0.6286
  620MOL0     C83574   8.641   0.476   0.546 -0.1529 -0.1204 -0.4238
  620MOL0     C83575   8.583   0.447   0.687 -0.3788 -0.3743  0.5355
  620MOL0     C83576   8.443   0.388   0.674  0.0980  0.5856 -0.1994
  620MOL0     C83577   8.370   0.337   0.795  0.4657 -0.7303 -0.5684
  620MOL0     C83578   8.219   0.321   0.764 -0.0511 -0.3272  0.6706
  620MOL0     C83579   8.139   0.257   0.876  0.8237 -0.1231  0.1394
  620MOL0     C83580   8.005   0.204   0.824  0.0853  0.4537  0.5406
  620MOL0     C83581   7.920   0.129   0.933 -0.3996  0.2860 -0.4481
  620MOL0     N83582   7.786   0.136   0.880 -0.0452 -0.3312 -0.2396
  620MOL0     C83583   7.707   0.251   0.887  0.1410 -0.0151  0.6468
  620MOL0     C83584   7.605   0.236   0.803 -1.1576  1.6572  0.1263
  620MOL0     C83585   7.494   0.334   0.780 -0.0848  0.2655  0.5096
  620MOL0     C83586   7.406   0.302   0.660 -0.2654 -0.8716 -0.5346
  620MOL0     C83587   7.331   0.421   0.610 -0.3747  0.2157 -0.2210
  620MOL0     C83588   7.226   0.384   0.507  0.3289 -0.0672 -0.0110
  620MOL0     O83589   7.147   0.501   0.473 -0.6808  1.4957 -0.3254
  620MOL0     C83590   7.069   0.496   0.366  0.7552  0.7821  0.7446
  620MOL0     C83591   7.033   0.377   0.294 -0.3370  0.0897  1.0207
  620MOL0     C83592   6.952   0.390   0.179  0.0048  0.4878  0.0812
  620MOL0     C83593   6.929   0.258   0.103  0.0703 -0.5317 -0.1178
  620MOL0     C83594   6.906   0.516   0.127 -0.0272  0.5157  0.4152
  620MOL0     C83595   6.833   0.540  -0.004  0.2381  0.3042 -0.7489
  620MOL0     O83596   6.753   0.650  -0.018  0.1014 -0.1500  1.0984
  620MOL0     C83597   6.714   0.678  -0.148 -0.5946 -0.8243  0.0320
  620MOL0     C83598   6.587   0.649  -0.182 -0.2231  0.9613 -0.0055
  620MOL0     C83599   6.532   0.690  -0.309  0.6360  0.6239  0.3831
  620MOL0     C83600   6.619   0.744  -0.407 -0.7954 -0.9050  0.7671
  620MOL0     O83601   6.590   0.786  -0.531 -0.2723 -0.5678  0.2212
  620MOL0     C83602   6.451   0.785  -0.565  0.5066  0.1883 -0.7955
  620MOL0     C83603   6.437   0.813  -0.715 -0.0688 -0.7232 -0.3254
  620MOL0     C83604   6.288   0.843  -0.745  0.3164 -0.4964 -0.1145
  620MOL0     C83605   6.286   0.895  -0.885  0.4269  0.0311  0.5108
  620MOL0     C83606   6.144   0.931  -0.924 -0.1575 -0.3270 -0.3815
  620MOL0     C83607   6.139   0.961  -1.077  0.4044  0.2528 -0.3172
  620MOL0     C83608   5.991   1.005  -1.122 -0.4122  0.5760 -0.2904
  620MOL0     C83609   5.976   1.153  -1.079  1.0998 -1.0419  0.1002
  620MOL0    Cl83610   5.814   1.215  -1.101 -0.0092 -0.0286 -0.0365
  620MOL0     C83611   6.754   0.768  -0.373  0.4663 -0.5403 -0.9164
  620MOL0     C83612   6.800   0.734  -0.248 -0.1557 -0.4885  0.3431
  620MOL0     O83613   6.873   0.472  -0.092 -0.1053 -0.7054  0.1102
  620MOL0     C83614   6.934   0.632   0.208  0.4550  0.8488  0.0118
  620MOL0     C83615   7.011   0.618   0.324 -0.6903  0.1881  0.1194
  620MOL0     N83616   7.620   0.105   0.748 -0.7060  0.0165 -0.2464
  620MOL0     N83617   7.735   0.054   0.784 -0.0459  0.3443 -0.1801
  620MOL0     C83618   8.851   0.165   0.484 -0.0555 -0.0032  0.2608
  620MOL0     C83619   8.982   0.117   0.492 -0.1966  0.5254  0.3510
  620MOL0     C83620   9.438   0.107   0.471 -1.3141 -1.0001 -0.2169
  620MOL0     C83621   9.529   0.110   0.360  0.2760  0.5239 -0.7716
  620MOL0     C83622   9.663   0.083   0.387 -0.2435 -0.2388  0.4969
  620MOL0     C83623   9.713   0.070   0.513 -0.6579  0.6736 -1.3953
  620MOL0     O83624   9.851   0.064   0.524  0.5835  0.0213  0.2050
  620MOL0     C83625   9.912   0.075   0.650  0.1890 -0.6506  0.0529
  620MOL0     C83626  10.059   0.091   0.635 -0.1860 -0.0789 -0.0709
  620MOL0     C83627  10.121   0.138   0.767 -1.4166  0.4163 -0.3400
  620MOL0     C83628  10.261   0.195   0.756 -0.2247 -1.5112  0.0182
  620MOL0     C83629  10.250   0.314   0.667  0.0734 -0.1421 -0.2280
  620MOL0     C83630  10.216   0.407   0.598 -0.5666  0.0023  0.5424
  620MOL0     C83631   9.619   0.060   0.620 -0.5219  0.0828 -0.0327
  620MOL0     C83632   9.486   0.078   0.602  0.1301 -0.5617  0.2306
  620MOL0     H83633   9.128   0.385   0.640  1.2743 -2.4222  0.2352
  620MOL0     H83634   8.904   0.480   0.608 -1.5235 -0.8530  1.3509
  620MOL0     H83635   8.719   0.551   0.561  1.8018 -2.1069 -0.1365
  620MOL0     H83636   8.560   0.509   0.480 -1.5784 -1.0235  0.8108
  620MOL0     H83637   8.656   0.378   0.732  0.9436  0.4372 -0.2771
  620MOL0     H83638   8.576   0.543   0.739 -1.4871 -0.3834  0.4286
  620MOL0     H83639   8.378   0.464   0.629 -0.6457 -0.2507 -0.5794
  620MOL0     H83640   8.441   0.300   0.609 -1.0642 -1.6246  2.6250
  620MOL0     H83641   8.409   0.238   0.823 -0.5636 -1.2278 -0.8251
  620MOL0     H83642   8.387   0.408   0.876 -1.0290  0.0061 -0.8617
  620MOL0     H83643   8.174   0.421   0.757 -2.2692 -1.3351 -0.2414
  620MOL0     H83644   8.203   0.260   0.675  1.8160  0.4821 -0.2907
  620MOL0     H83645   8.200   0.172   0.908 -0.3856 -0.4268  1.7557
  620MOL0     H83646   8.116   0.319   0.963 -1.0084  1.5589 -1.4474
  620MOL0     H83647   7.940   0.283   0.786 -0.8593  0.2096  1.5948
  620MOL0     H83648   8.023   0.122   0.753 -1.0585 -1.7061  2.6261
  620MOL0     H83649   7.938   0.185   1.025 -0.4529 -0.3364 -0.0547
  620MOL0     H83650   7.943   0.024   0.951  0.0879  0.0175 -2.4007
  620MOL0     H83651   7.722   0.335   0.954  2.0014  0.2504 -0.0384
  620MOL0     H83652   7.441   0.334   0.875 -0.5065 -0.4928  0.2764
  620MOL0     H83653   7.543   0.429   0.755  5.4857 -2.3245  0.0394
  620MOL0     H83654   7.336   0.227   0.698 -0.6555 -1.9582 -3.1796
  620MOL0     H83655   7.458   0.261   0.573 -1.0798  0.4647 -1.6890
  620MOL0     H83656   7.401   0.486   0.557  0.4034 -0.6592 -0.2948
  620MOL0     H83657   7.284   0.474   0.693  0.9451  0.2739  0.5145
  620MOL0     H83658   7.162   0.302   0.537  0.6254 -0.2914  0.0099
  620MOL0     H83659   7.277   0.347   0.417  1.6459 -0.5764  0.9190
  620MOL0     H83660   7.079   0.285   0.329 -0.3460 -0.9907 -1.6026
  620MOL0     H83661   6.918   0.177   0.176 -1.2595 -2.0516 -1.9170
  620MOL0     H83662   6.845   0.253   0.034 -0.0791 -0.9355  0.0900
  620MOL0     H83663   7.024   0.234   0.054 -0.7844  0.9596 -2.6800
  620MOL0     H83664   6.521   0.619  -0.102 -0.0889  1.0936  0.1556
  620MOL0     H83665   6.426   0.680  -0.331  0.8619  1.5815 -1.3011
  620MOL0     H83666   6.405   0.688  -0.547 -0.6440  0.7839 -0.4546
  620MOL0     H83667   6.391   0.856  -0.508  1.8758 -0.3178  1.3962
  620MOL0     H83668   6.495   0.905  -0.733  0.8217 -0.8048  1.8486
  620MOL0     H83669   6.473   0.741  -0.790 -2.7641 -1.2502 -1.2314
  620MOL0     H83670   6.249   0.910  -0.668  1.5155 -0.8227  0.8058
  620MOL0     H83671   6.233   0.750  -0.732 -0.4146  0.0710  1.0566
  620MOL0     H83672   6.335   0.993  -0.883  0.2090  0.1533  0.0489
  620MOL0     H83673   6.332   0.826  -0.955 -0.5290  0.4165 -0.5345
  620MOL0     H83674   6.125   1.023  -0.868 -1.2659 -2.4725  3.1138
  620MOL0     H83675   6.083   0.843  -0.896  1.1557 -1.7238 -1.7620
  620MOL0     H83676   6.217   1.031  -1.108  0.3107  0.2058 -0.6639
  620MOL0     H83677   6.164   0.871  -1.133  2.5359  0.7000 -0.1363
  620MOL0     H83678   5.912   0.943  -1.078  0.0779  0.8001  0.9697
  620MOL0     H83679   5.996   1.004  -1.231  2.8444  1.9757 -0.2653
  620MOL0     H83680   6.041   1.214  -1.141 -0.5389 -0.0763 -0.7423
  620MOL0     H83681   6.015   1.172  -0.979 -2.8528  2.6396  1.2484
  620MOL0     H83682   6.823   0.820  -0.439  2.3553 -3.0892 -1.1011
  620MOL0     H83683   6.907   0.751  -0.238  0.1055  0.9165 -3.3467
  620MOL0     H83684   6.904   0.730   0.173  1.2817  1.1431  0.0965
  620MOL0     H83685   7.028   0.705   0.387 -3.7761  0.8751  0.1783
  620MOL0     H83686   8.781   0.097   0.438 -1.0608  0.8317  0.5056
  620MOL0     H83687   9.004   0.018   0.453 -0.0941  0.6753  0.0201
  620MOL0     H83688   9.499   0.146   0.262  0.6503  0.0991 -1.0448
  620MOL0     H83689   9.735   0.102   0.308 -0.3427 -1.8381 -0.0158
  620MOL0     H83690   9.872   0.162   0.703  0.8796 -0.7469  0.7453
  620MOL0     H83691   9.893  -0.013   0.712 -1.5367  0.9466  1.9497
  620MOL0     H83692  10.075   0.156   0.548 -1.3791  1.3912  0.7560
  620MOL0     H83693  10.110  -0.001   0.605 -0.0506 -0.1759  0.4558
  620MOL0     H83694  10.122   0.053   0.835  0.7302 -3.0912 -4.2852
  620MOL0     H83695  10.053   0.212   0.812 -1.2736 -1.2243  2.8964
  620MOL0     H83696  10.339   0.128   0.720  2.3093  1.0764  0.2603
  620MOL0     H83697  10.300   0.239   0.848 -1.3126  0.0802 -0.2385
  620MOL0     H83698  10.184   0.481   0.527  0.8893  0.8661  0.7611
  620MOL0     H83699   9.659   0.045   0.720 -0.7546 -0.5013 -0.0204
  620MOL0     H83700   9.424   0.071   0.691 -1.4987 -1.0307 -0.8930
  621MOL0     O83701   3.704   8.025   4.262  0.0230  0.0319 -0.5792
  621MOL0     C83702   3.743   7.975   4.156 -0.7417  0.2189  0.6545
  621MOL0     O83703   3.659   7.955   4.052 -0.3356  0.9062 -0.3129
  621MOL0     C83704   3.523   7.976   4.070 -0.7793 -0.4661 -0.3973
  621MOL0     C83705   3.437   7.884   4.027  0.3168 -0.3405 -0.0471
  621MOL0     C83706   3.301   7.914   4.021 -0.0493 -1.1127 -0.0292
  621MOL0     C83707   3.249   8.035   4.069 -0.0939  0.1170 -0.6454
  621MOL0     O83708   3.117   8.045   4.077  0.7875  0.0754  0.3642
  621MOL0     C83709   3.054   8.153   4.155 -0.8574 -0.2007  0.0297
  621MOL0     C83710   2.923   8.090   4.204 -0.1261 -0.3738  0.2925
  621MOL0     C83711   2.831   8.022   4.099  0.7143 -0.2061  0.6903
  621MOL0     C83712   2.698   7.985   4.153  0.6614  0.0321 -1.2453
  621MOL0     C83713   2.598   8.094   4.113  0.1404  0.4755  0.0540
  621MOL0     C83714   2.553   8.100   3.964  0.4585 -0.9265  0.1589
  621MOL0     C83715   2.435   8.192   3.940 -0.2496  0.0276  0.2360
  621MOL0     C83716   2.453   8.328   4.003 -0.2412  0.3101  0.6310
  621MOL0     N83717   2.359   8.429   3.944 -0.1859 -0.1661 -1.3004
  621MOL0     C83718   2.230   8.414   3.933 -0.0670  0.6772  0.2615
  621MOL0     C83719   2.185   8.517   3.863 -0.4625  0.5193  0.7090
  621MOL0     C83720   2.048   8.549   3.819  0.0087 -0.9033  0.3585
  621MOL0     C83721   1.992   8.465   3.700  0.2761  0.5188 -0.1615
  621MOL0     C83722   2.023   8.528   3.566  0.1465  0.8177  0.1167
  621MOL0     C83723   2.167   8.510   3.517  0.1563  1.1715 -0.0160
  621MOL0     O83724   2.189   8.373   3.481 -0.0231  0.6945 -0.3738
  621MOL0     C83725   2.319   8.322   3.477  0.5031  0.6566 -0.6067
  621MOL0     C83726   2.348   8.216   3.400  0.0519  0.8111  0.0704
  621MOL0     C83727   2.481   8.167   3.377 -0.1723  0.3455  0.1870
  621MOL0     C83728   2.501   8.058   3.268 -0.0210  0.3515  0.1581
  621MOL0     C83729   2.579   8.217   3.467  0.2865  0.2809  0.2968
  621MOL0     C83730   2.717   8.155   3.481  0.4127 -0.6314  0.0911
  621MOL0     O83731   2.797   8.233   3.551  0.0439 -0.3768 -0.1459
  621MOL0     C83732   2.927   8.207   3.558  0.2665  0.7864  0.0133
  621MOL0     C83733   3.008   8.239   3.458  0.5107 -0.5295  0.1139
  621MOL0     C83734   3.147   8.222   3.469  0.1262  0.1991 -0.4444
  621MOL0     C83735   3.203   8.156   3.578  0.3885  0.5506  0.9359
  621MOL0     O83736   3.341   8.158   3.583 -0.2355 -1.1879  0.2356
  621MOL0     C83737   3.389   8.062   3.676  0.8250 -0.7319  0.4469
  621MOL0     C83738   3.539   8.053   3.685 -0.7063  0.1957  0.5934
  621MOL0     C83739   3.593   7.910   3.695  0.3072 -0.2749 -0.3627
  621MOL0     C83740   3.746   7.905   3.672  0.0901 -0.1319 -0.0350
  621MOL0     C83741   3.791   7.766   3.651  0.1884  0.0334  0.4560
  621MOL0     C83742   3.940   7.771   3.612  0.6122 -1.1923  0.5018
  621MOL0     C83743   3.993   7.631   3.623 -0.3581  0.0838  0.6347
  621MOL0     C83744   4.140   7.621   3.583  0.0533  0.4050 -0.5066
  621MOL0    Cl83745   4.243   7.671   3.724  0.2122 -0.2491  0.4199
  621MOL0     C83746   3.120   8.107   3.675  0.7939 -0.2682  0.1717
  621MOL0     C83747   2.981   8.134   3.663  0.3498  0.4707 -0.2318
  621MOL0     O83748   2.753   8.054   3.420 -0.2934 -0.1704  0.0260
  621MOL0     C83749   2.546   8.319   3.562 -0.2209 -0.1737 -0.4515
  621MOL0     C83750   2.421   8.376   3.562 -0.3809  0.1066  1.3310
  621MOL0     N83751   2.294   8.598   3.836 -0.0781  0.3632 -0.2684
  621MOL0     N83752   2.398   8.548   3.875  0.1987  0.2926 -0.9089
  621MOL0     C83753   3.340   8.127   4.123 -0.2365  0.7042  0.1704
  621MOL0     C83754   3.478   8.099   4.114 -0.5475  0.4110 -0.7079
  621MOL0     C83755   3.879   7.954   4.129  0.1368  0.7362 -0.1101
  621MOL0     C83756   3.986   8.036   4.173  0.5552 -0.2559 -0.0786
  621MOL0     C83757   4.114   8.014   4.120  0.3119 -0.6453  0.1742
  621MOL0     C83758   4.136   7.909   4.030  0.3339  0.4215 -0.0599
  621MOL0     O83759   4.263   7.870   4.000 -0.0520 -0.1772 -0.2092
  621MOL0     C83760   4.354   7.893   4.106 -1.5053  0.4041 -0.5713
  621MOL0     C83761   4.479   7.812   4.079 -0.6576  0.0636 -0.7076
  621MOL0     C83762   4.451   7.663   4.050  0.2467 -0.4561 -0.1499
  621MOL0     C83763   4.562   7.608   3.960 -0.6717 -0.8340 -0.1696
  621MOL0     C83764   4.697   7.623   4.015 -0.6572 -0.2446 -0.0438
  621MOL0     C83765   4.798   7.656   4.066  0.0808  0.5873 -0.2323
  621MOL0     C83766   4.033   7.827   3.987 -1.5002 -0.2806  0.3530
  621MOL0     C83767   3.910   7.852   4.035  0.0288  0.3983 -0.0784
  621MOL0     H83768   3.473   7.789   3.988 -0.4564 -0.3606 -0.7439
  621MOL0     H83769   3.230   7.839   3.985 -0.3211 -0.1801 -1.4868
  621MOL0     H83770   3.110   8.186   4.243  0.2796 -0.6617 -0.4966
  621MOL0     H83771   3.023   8.240   4.096 -0.2142  0.3195  0.4413
  621MOL0     H83772   2.942   8.023   4.288 -1.5388  0.6669  1.4980
  621MOL0     H83773   2.874   8.169   4.261  1.0500  0.4407  0.1987
  621MOL0     H83774   2.816   8.095   4.019 -4.0522 -1.3230  0.2638
  621MOL0     H83775   2.888   7.939   4.056  1.9366  0.0231  1.8382
  621MOL0     H83776   2.665   7.887   4.118 -1.3606  0.6885 -1.3325
  621MOL0     H83777   2.709   7.983   4.262  2.5721  2.0053 -1.3370
  621MOL0     H83778   2.508   8.079   4.172  2.2100  0.1005  3.3984
  621MOL0     H83779   2.641   8.190   4.143 -0.7624  1.1917 -0.8626
  621MOL0     H83780   2.640   8.121   3.901  1.1012 -5.3147 -0.7190
  621MOL0     H83781   2.526   7.995   3.948  3.4928 -1.5589 -1.5808
  621MOL0     H83782   2.411   8.205   3.834  0.1376 -0.2734  0.1065
  621MOL0     H83783   2.350   8.153   3.996 -0.5147 -1.7177 -1.2946
  621MOL0     H83784   2.558   8.353   3.987 -0.0346 -1.3855 -1.0515
  621MOL0     H83785   2.439   8.328   4.112  0.4074  1.2664  0.7207
  621MOL0     H83786   2.180   8.320   3.952  3.7437 -1.7348 -0.6996
  621MOL0     H83787   1.983   8.526   3.904  0.2212 -2.1505  0.2036
  621MOL0     H83788   2.034   8.652   3.783  0.4621 -1.1091 -0.4141
  621MOL0     H83789   1.884   8.478   3.708  0.0474 -1.6622  1.2086
  621MOL0     H83790   2.012   8.357   3.693 -1.7032  0.0901  0.2758
  621MOL0     H83791   1.983   8.630   3.569  0.3795  1.2128 -4.0396
  621MOL0     H83792   1.962   8.482   3.488 -0.1844 -0.0572  0.8704
  621MOL0     H83793   2.230   8.548   3.599 -0.7233  1.0178  0.7487
  621MOL0     H83794   2.194   8.565   3.427  0.9737 -0.7522 -0.9961
  621MOL0     H83795   2.266   8.167   3.349  2.7105 -2.9650 -0.9940
  621MOL0     H83796   2.412   8.038   3.208  0.8882 -2.2330 -0.4544
  621MOL0     H83797   2.579   8.085   3.196 -1.1704 -0.3765 -1.4310
  621MOL0     H83798   2.532   7.960   3.304 -0.6233 -0.3022 -1.0516
  621MOL0     H83799   2.968   8.291   3.371 -0.2601  0.2917  0.9368
  621MOL0     H83800   3.207   8.256   3.385 -0.3143  1.5613 -0.2454
  621MOL0     H83801   3.353   8.089   3.776  1.7697 -3.4836  1.6189
  621MOL0     H83802   3.353   7.962   3.648  0.4355 -0.0394 -1.6910
  621MOL0     H83803   3.587   8.100   3.599 -0.6280 -1.0510 -0.0591
  621MOL0     H83804   3.579   8.101   3.775 -0.1192 -0.0174  0.4487
  621MOL0     H83805   3.551   7.848   3.615  1.1989 -0.4322 -0.7160
  621MOL0     H83806   3.581   7.858   3.790  1.7174 -2.6576 -1.4037
  621MOL0     H83807   3.771   7.962   3.582  1.7713  0.2138  0.6088
  621MOL0     H83808   3.794   7.960   3.754 -0.0775  1.6502 -1.0707
  621MOL0     H83809   3.741   7.725   3.563  1.9564  1.0308 -1.1027
  621MOL0     H83810   3.770   7.701   3.736 -1.5760 -0.1269 -0.0666
  621MOL0     H83811   3.955   7.815   3.514 -1.5739  0.8254  0.9652
  621MOL0     H83812   3.993   7.837   3.681  0.0800 -1.3274  1.0546
  621MOL0     H83813   3.930   7.567   3.560  1.1780  0.0267 -0.9273
  621MOL0     H83814   3.980   7.587   3.722  1.0612 -1.9486 -0.0139
  621MOL0     H83815   4.151   7.686   3.497  1.3261  1.6551  0.5512
  621MOL0     H83816   4.168   7.523   3.544 -0.7617 -0.0871  0.1048
  621MOL0     H83817   3.146   8.049   3.763  0.5173 -0.3497  0.1989
  621MOL0     H83818   2.916   8.108   3.746  1.0046  0.7636  0.3826
  621MOL0     H83819   2.611   8.361   3.639  1.8249 -0.2318 -2.0816
  621MOL0     H83820   2.417   8.455   3.636  0.4904  3.1242 -1.5856
  621MOL0     H83821   3.311   8.223   4.166  0.2837  1.7286 -1.6467
  621MOL0     H83822   3.557   8.171   4.134 -1.4940  1.5614 -0.9824
  621MOL0     H83823   3.975   8.109   4.253  0.0293  0.6956 -0.9916
  621MOL0     H83824   4.194   8.081   4.152 -0.5235  0.7820 -0.6182
  621MOL0     H83825   4.376   7.999   4.118 -1.6349  0.5975 -1.8711
  621MOL0     H83826   4.312   7.861   4.202  0.3963  0.4590  0.3279
  621MOL0     H83827   4.544   7.809   4.167 -0.6007 -3.5326 -0.7540
  621MOL0     H83828   4.534   7.859   3.997  1.2887  1.3665  1.2191
  621MOL0     H83829   4.359   7.642   3.995 -0.6913  0.6756  0.9215
  621MOL0     H83830   4.457   7.609   4.145  2.2958  3.1215  1.9685
  621MOL0     H83831   4.568   7.660   3.864  0.6505  1.0373  0.8478
  621MOL0     H83832   4.533   7.504   3.945 -1.6997 -0.8494  1.7505
  621MOL0     H83833   4.891   7.676   4.116  0.4549  0.1899 -0.7595
  621MOL0     H83834   4.036   7.749   3.912  1.0576 -0.7329  0.8264
  621MOL0     H83835   3.828   7.789   4.002  0.5847 -0.3226 -0.1229
  622MOL0     O83836   1.113   9.236   2.870 -0.6950  0.5582 -0.1555
  622MOL0     C83837   1.147   9.141   2.801  0.4264 -0.1529 -0.0640
  622MOL0     O83838   1.059   9.035   2.781 -0.4728  0.2475  0.0222
  622MOL0     C83839   0.927   9.031   2.831 -0.0968  0.1119 -0.8521
  622MOL0     C83840   0.822   8.978   2.751 -0.0018 -1.0662 -0.1673
  622MOL0     C83841   0.691   8.966   2.802  1.0365 -0.1705  0.0772
  622MOL0     C83842   0.659   8.996   2.931 -0.2365  0.1427 -0.3010
  622MOL0     O83843   0.526   8.980   2.970  0.2400 -0.5612 -0.0625
  622MOL0     C83844   0.464   9.107   2.999 -0.1989  0.1882  0.2798
  622MOL0     C83845   0.313   9.100   3.018 -0.6240  0.4689  0.5413
  622MOL0     C83846   0.249   9.249   3.001  0.0434  0.5274  0.4371
  622MOL0     C83847   0.102   9.233   2.991  0.6979 -0.5848  0.0785
  622MOL0     C83848   0.026   9.360   2.997 -0.4583 -0.6609 -0.0161
  622MOL0     C83849  -0.130   9.345   3.007  0.6875 -0.5050  0.4512
  622MOL0     C83850  -0.204   9.478   3.038 -0.5533  0.3508  0.5998
  622MOL0     C83851  -0.355   9.481   3.038  0.8714  0.8386 -0.2170
  622MOL0     N83852  -0.409   9.590   3.119 -0.1725 -0.0187 -0.5099
  622MOL0     C83853  -0.425   9.717   3.074  0.4805 -0.4346  0.0877
  622MOL0     C83854  -0.479   9.779   3.179 -0.3519 -0.0727 -0.1233
  622MOL0     C83855  -0.547   9.917   3.181 -0.3760  0.0171 -0.6394
  622MOL0     C83856  -0.667   9.940   3.265  0.2988 -0.2889  0.3905
  622MOL0     C83857  -0.796   9.874   3.224 -0.7478  0.4785 -0.4869
  622MOL0     C83858  -0.896   9.860   3.350  1.2722 -0.7580  0.2019
  622MOL0     O83859  -0.953   9.987   3.386 -0.0417  0.4104 -0.2573
  622MOL0     C83860  -1.081   9.997   3.446 -0.0020  1.1004  0.4601
  622MOL0     C83861  -1.139  10.122   3.448 -0.4756 -0.9672 -0.3349
  622MOL0     C83862  -1.256  10.157   3.516  0.0254 -0.1383 -0.3266
  622MOL0     C83863  -1.316  10.296   3.504  0.1081  0.2846 -0.5672
  622MOL0     C83864  -1.316  10.054   3.594  0.3349  0.3922 -0.5732
  622MOL0     C83865  -1.444  10.071   3.675  0.4002  0.5263  0.3311
  622MOL0     O83866  -1.544  10.145   3.614 -0.1941  0.0889  0.3247
  622MOL0     C83867  -1.643  10.206   3.679 -0.2422 -0.1257 -0.0293
  622MOL0     C83868  -1.660  10.218   3.814 -0.0147 -0.1411 -0.1305
  622MOL0     C83869  -1.774  10.260   3.866 -0.3839 -0.1943 -0.5725
  622MOL0     C83870  -1.875  10.316   3.785 -0.0326 -0.1404  0.4128
  622MOL0     O83871  -1.986  10.379   3.834  0.0357  0.2714 -0.0140
  622MOL0     C83872  -2.063  10.305   3.934 -0.2673  0.6107 -0.2615
  622MOL0     C83873  -2.135  10.396   4.036 -0.7472 -0.1908 -0.1153
  622MOL0     C83874  -2.028  10.486   4.098 -0.2299 -0.9439 -0.2546
  622MOL0     C83875  -2.092  10.594   4.180  0.3127 -0.2656 -0.5153
  622MOL0     C83876  -2.001  10.690   4.257  0.3641 -0.4003 -0.2066
  622MOL0     C83877  -2.073  10.819   4.313  0.1826  0.0649 -0.4339
  622MOL0     C83878  -2.192  10.783   4.407  0.0798 -0.8948 -0.2890
  622MOL0     C83879  -2.292  10.899   4.420  0.3888 -0.3363 -0.2573
  622MOL0    Cl83880  -2.217  11.055   4.499  0.4535  0.2807  0.0652
  622MOL0     C83881  -1.861  10.316   3.649 -0.4355 -0.2654 -0.1252
  622MOL0     C83882  -1.746  10.247   3.597  0.5010 -0.9152 -0.1882
  622MOL0     O83883  -1.439  10.036   3.793  0.5246  0.1164  0.1783
  622MOL0     C83884  -1.261   9.924   3.594  0.2938 -0.0162 -0.0104
  622MOL0     C83885  -1.150   9.891   3.515 -0.2226 -0.7903  0.2942
  622MOL0     N83886  -0.474   9.700   3.288 -0.2445  0.0740 -0.5480
  622MOL0     N83887  -0.423   9.586   3.256 -0.8040  0.4387  0.0937
  622MOL0     C83888   0.765   9.041   3.014  0.8466  0.1092 -0.4825
  622MOL0     C83889   0.892   9.059   2.964 -0.4017  0.5797 -0.2416
  622MOL0     C83890   1.281   9.123   2.760 -0.5248 -0.2658  0.5696
  622MOL0     C83891   1.324   9.010   2.695  0.0123 -0.8127 -0.6301
  622MOL0     C83892   1.461   8.984   2.656 -0.2971  0.2331  0.8613
  622MOL0     C83893   1.561   9.076   2.695 -0.0831  0.0680  1.3102
  622MOL0     O83894   1.690   9.047   2.658 -0.2827  0.3174 -0.8192
  622MOL0     C83895   1.801   9.141   2.684  0.8914  0.8088  0.4933
  622MOL0     C83896   1.924   9.094   2.599  1.1078  0.1800 -0.8463
  622MOL0     C83897   1.992   8.963   2.646  0.2101  0.4821 -0.5306
  622MOL0     C83898   2.123   8.930   2.571  0.4195  0.4442 -0.2163
  622MOL0     C83899   2.226   9.030   2.584 -1.1143 -0.8501  0.7344
  622MOL0     C83900   2.298   9.135   2.584  0.1634  0.6119  0.0952
  622MOL0     C83901   1.518   9.191   2.753  0.1744 -0.2249 -0.1140
  622MOL0     C83902   1.383   9.218   2.788 -0.0790  0.6287  0.1464
  622MOL0     H83903   0.843   8.955   2.647  0.3930 -2.7289  0.2556
  622MOL0     H83904   0.611   8.952   2.730 -0.2563  0.7840  1.2739
  622MOL0     H83905   0.499   9.142   3.097 -1.4958  4.0256 -0.4432
  622MOL0     H83906   0.507   9.180   2.929  2.5697  0.8312  2.4325
  622MOL0     H83907   0.266   9.035   2.944  1.2447 -1.3976  0.9074
  622MOL0     H83908   0.289   9.058   3.116 -1.3083 -2.4181 -0.7695
  622MOL0     H83909   0.272   9.291   3.099  1.4483  0.9732 -0.0598
  622MOL0     H83910   0.282   9.317   2.922  0.5566  0.9575  1.0162
  622MOL0     H83911   0.079   9.184   2.896  1.9007  1.1092 -1.1359
  622MOL0     H83912   0.078   9.169   3.076  1.3739  1.3490  1.8040
  622MOL0     H83913   0.064   9.413   3.085 -0.6427 -2.7127  1.3607
  622MOL0     H83914   0.047   9.409   2.901  2.7218 -0.5881  0.6149
  622MOL0     H83915  -0.163   9.308   2.909  0.9095  0.9868 -0.2002
  622MOL0     H83916  -0.161   9.266   3.077 -0.3102  0.6207  1.3182
  622MOL0     H83917  -0.174   9.516   3.136 -1.9998  1.8728  0.4896
  622MOL0     H83918  -0.168   9.555   2.970 -0.9269 -0.9343 -1.1377
  622MOL0     H83919  -0.396   9.386   3.074  1.5611  0.1699 -1.1464
  622MOL0     H83920  -0.392   9.495   2.936  0.1610  1.3072  0.1023
  622MOL0     H83921  -0.414   9.768   2.979 -1.4891  3.0793  1.5545
  622MOL0     H83922  -0.474   9.987   3.223 -0.9662 -1.1494  2.6332
  622MOL0     H83923  -0.571   9.942   3.077  0.3787  0.8709 -0.6244
  622MOL0     H83924  -0.695  10.045   3.272 -3.5668 -1.1592  0.1307
  622MOL0     H83925  -0.642   9.905   3.366 -0.6768 -1.4563  0.2524
  622MOL0     H83926  -0.778   9.769   3.199 -0.4350 -0.2509  2.4049
  622MOL0     H83927  -0.852   9.937   3.155 -0.7282  1.8400  0.6878
  622MOL0     H83928  -0.837   9.826   3.435 -0.1026  1.6939  2.2819
  622MOL0     H83929  -0.972   9.785   3.327  1.0535 -0.9193  1.3932
  622MOL0     H83930  -1.084  10.199   3.394  0.7455  0.4841  2.7204
  622MOL0     H83931  -1.405  10.288   3.441 -1.0437 -1.4178  1.1350
  622MOL0     H83932  -1.348  10.331   3.603 -1.1842 -1.2023 -0.4111
  622MOL0     H83933  -1.250  10.372   3.463 -0.3955  2.3344  2.1233
  622MOL0     H83934  -1.585  10.174   3.878  0.1577 -0.4342 -0.5272
  622MOL0     H83935  -1.778  10.264   3.975  1.1067 -0.1582 -0.4990
  622MOL0     H83936  -2.139  10.247   3.880  0.9330 -0.1991 -1.1384
  622MOL0     H83937  -1.997  10.240   3.992 -0.5653  1.3530  0.9355
  622MOL0     H83938  -2.215  10.448   3.982  0.0172  0.8634 -0.2523
  622MOL0     H83939  -2.188  10.340   4.114 -0.6105 -0.9532 -0.5641
  622MOL0     H83940  -1.961  10.530   4.023 -1.5430 -3.1477 -2.9043
  622MOL0     H83941  -1.982  10.420   4.172 -1.3885 -1.4340  0.0466
  622MOL0     H83942  -2.146  10.660   4.111 -2.3786 -2.8597 -1.0878
  622MOL0     H83943  -2.170  10.541   4.236  0.7578 -1.6941 -1.2166
  622MOL0     H83944  -1.917  10.706   4.189  0.4858 -1.1042 -0.2349
  622MOL0     H83945  -1.962  10.642   4.348 -1.3769 -0.2005  0.6915
  622MOL0     H83946  -2.000  10.882   4.364  0.0297 -2.4362  3.2800
  622MOL0     H83947  -2.108  10.875   4.226 -1.5876 -1.1550 -0.5589
  622MOL0     H83948  -2.142  10.765   4.503 -0.8432 -2.3038 -0.0414
  622MOL0     H83949  -2.244  10.693   4.374  0.5517 -0.7933 -1.3554
  622MOL0     H83950  -2.382  10.868   4.474 -0.1897 -2.1312 -2.1197
  622MOL0     H83951  -2.331  10.930   4.322  0.2462 -0.9029 -0.3810
  622MOL0     H83952  -1.943  10.350   3.587 -2.5118 -0.6306  2.2425
  622MOL0     H83953  -1.720  10.222   3.494  1.5581  0.1798 -0.2173
  622MOL0     H83954  -1.311   9.850   3.655 -1.3081 -0.1241 -1.3845
  622MOL0     H83955  -1.119   9.787   3.507  0.3954 -0.4970 -1.5082
  622MOL0     H83956   0.737   9.057   3.118  0.8965 -1.1926 -0.2454
  622MOL0     H83957   0.975   9.085   3.028 -0.6266 -1.6840  1.1056
  622MOL0     H83958   1.256   8.927   2.679 -1.4741  0.5033 -1.4087
  622MOL0     H83959   1.497   8.894   2.608 -0.4645  0.7195 -0.1979
  622MOL0     H83960   1.756   9.237   2.657 -0.2437 -0.0533 -0.7732
  622MOL0     H83961   1.828   9.153   2.789  1.3631  3.5179  0.1277
  622MOL0     H83962   1.994   9.176   2.615  1.0703  0.0871 -0.1333
  622MOL0     H83963   1.900   9.074   2.494  2.7032  1.3103 -1.4596
  622MOL0     H83964   1.929   8.873   2.646  0.3131  0.3512  1.5004
  622MOL0     H83965   2.021   8.973   2.752 -0.7967  1.6005 -0.3450
  622MOL0     H83966   2.103   8.916   2.464 -0.9152  0.1485  0.0517
  622MOL0     H83967   2.161   8.833   2.604 -0.2923  0.0088 -0.6675
  622MOL0     H83968   2.356   9.225   2.572  0.9759  0.2701  1.2577
  622MOL0     H83969   1.590   9.269   2.775  1.8917 -1.8992  0.4571
  622MOL0     H83970   1.358   9.320   2.814 -0.5961  1.0686 -1.9284
  623MOL0     O83971   1.668   1.924   0.242 -0.1686  0.4994 -0.1990
  623MOL0     C83972   1.716   2.034   0.260 -0.1628 -0.1752  0.0402
  623MOL0     O83973   1.644   2.139   0.313 -0.9653  0.4422 -0.0543
  623MOL0     C83974   1.516   2.112   0.362  0.3618 -0.6651 -0.4258
  623MOL0     C83975   1.481   2.057   0.490 -0.1294 -0.5935 -0.2967
  623MOL0     C83976   1.359   2.042   0.541 -0.0392 -0.4392 -0.3066
  623MOL0     C83977   1.243   2.060   0.452 -0.3547  0.1611 -0.1747
  623MOL0     O83978   1.117   2.025   0.499  0.4501 -0.1283  0.1300
  623MOL0     C83979   1.002   2.080   0.431  0.0571  0.4390  0.5112
  623MOL0     C83980   0.882   2.009   0.484  0.0025 -0.0443  0.1450
  623MOL0     C83981   0.888   2.008   0.639 -0.2435 -0.7299 -0.5862
  623MOL0     C83982   0.765   1.967   0.712  0.3247  0.8700  0.1985
  623MOL0     C83983   0.741   1.812   0.698 -0.7703  0.3791 -0.0351
  623MOL0     C83984   0.604   1.760   0.728 -0.1051  0.0835  0.3828
  623MOL0     C83985   0.488   1.803   0.637  0.5860 -1.5153 -0.2846
  623MOL0     C83986   0.353   1.740   0.669  0.2813  1.0559 -0.1471
  623MOL0     N83987   0.253   1.790   0.573  1.0433  0.5589 -1.3498
  623MOL0     C83988   0.242   1.759   0.439 -1.1113  0.0706  0.1208
  623MOL0     C83989   0.117   1.796   0.404  0.5868  0.3113 -0.3554
  623MOL0     C83990   0.034   1.758   0.293 -0.9159 -0.7765  0.5410
  623MOL0     C83991   0.015   1.616   0.275 -0.4586 -0.1495 -0.7006
  623MOL0     C83992  -0.075   1.584   0.154  0.2726  0.1629 -0.3214
  623MOL0     C83993  -0.104   1.432   0.167  0.8340  0.9200 -0.2701
  623MOL0     O83994  -0.209   1.384   0.074 -0.2986  0.2524  0.9590
  623MOL0     C83995  -0.330   1.439   0.088  0.5951  0.1057  0.1936
  623MOL0     C83996  -0.373   1.528  -0.006 -0.5685  0.5252  0.7698
  623MOL0     C83997  -0.505   1.566  -0.019  0.2021 -1.0712  0.0814
  623MOL0     C83998  -0.541   1.664  -0.130  0.2791  0.5611  0.2611
  623MOL0     C83999  -0.604   1.513   0.071  0.0351  0.2204 -0.3417
  623MOL0     C84000  -0.751   1.533   0.078 -0.2254  0.8493  0.6193
  623MOL0     O84001  -0.816   1.484   0.196 -0.1571  0.1113  0.5089
  623MOL0     C84002  -0.951   1.503   0.217  0.0200 -0.8752 -0.0136
  623MOL0     C84003  -1.051   1.563   0.136  0.5120  0.7210 -0.1740
  623MOL0     C84004  -1.182   1.576   0.186  0.1016  0.3068  0.5368
  623MOL0     C84005  -1.215   1.540   0.315  0.2116 -0.1781  0.2750
  623MOL0     O84006  -1.346   1.544   0.351  0.5827 -0.3653 -0.1147
  623MOL0     C84007  -1.402   1.410   0.328 -0.0944  0.7652 -0.4001
  623MOL0     C84008  -1.551   1.436   0.280  0.8085 -0.3051 -0.6902
  623MOL0     C84009  -1.654   1.496   0.396 -0.9090 -1.2604  0.1454
  623MOL0     C84010  -1.788   1.553   0.334 -0.0761  0.2763 -0.3384
  623MOL0     C84011  -1.866   1.639   0.437 -0.9647 -0.4890 -0.0523
  623MOL0     C84012  -2.000   1.684   0.378 -0.6705 -0.6364  0.1519
  623MOL0     C84013  -2.104   1.697   0.485  0.1147 -0.3237 -0.4227
  623MOL0     C84014  -2.071   1.822   0.575  0.2867 -0.2661  0.0147
  623MOL0    Cl84015  -1.913   1.818   0.660  0.2710  0.1932  0.2999
  623MOL0     C84016  -1.115   1.491   0.392  0.0554 -0.0214 -0.4790
  623MOL0     C84017  -0.985   1.469   0.343  0.3864 -0.4509 -0.6011
  623MOL0     O84018  -0.803   1.590  -0.018  0.0160 -0.4073 -0.1310
  623MOL0     C84019  -0.558   1.425   0.172  0.1019 -0.1910 -0.3478
  623MOL0     C84020  -0.423   1.395   0.181 -0.1875  0.1225 -0.3583
  623MOL0     N84021   0.057   1.846   0.519  0.2281  0.0075  0.1255
  623MOL0     N84022   0.138   1.839   0.615 -0.7764 -0.5462  0.1311
  623MOL0     C84023   1.269   2.118   0.329  0.3139  0.1023 -0.2524
  623MOL0     C84024   1.406   2.144   0.288 -0.1088  0.6890 -0.2793
  623MOL0     C84025   1.848   2.066   0.203 -0.3778  0.0723 -0.3254
  623MOL0     C84026   1.893   2.201   0.181 -0.1635 -0.5495 -0.1190
  623MOL0     C84027   2.017   2.233   0.130  0.8862  0.8690 -0.1665
  623MOL0     C84028   2.101   2.128   0.098 -0.5077 -0.2473  0.1320
  623MOL0     O84029   2.226   2.150   0.040  0.1424 -0.3504 -0.6681
  623MOL0     C84030   2.265   2.089  -0.086 -1.3340 -0.2809 -0.5117
  623MOL0     C84031   2.407   2.122  -0.120  0.5050  0.4568 -0.0991
  623MOL0     C84032   2.514   2.070  -0.021  0.1512  0.2646  0.0744
  623MOL0     C84033   2.644   2.022  -0.087  0.1943 -0.6130  0.0400
  623MOL0     C84034   2.690   2.114  -0.192 -0.2033 -0.7892  0.4752
  623MOL0     C84035   2.717   2.184  -0.286  0.1858 -0.2559  0.1188
  623MOL0     C84036   2.056   1.994   0.116 -0.5998 -0.2207 -0.7412
  623MOL0     C84037   1.935   1.958   0.172 -0.2845  0.0551  0.6565
  623MOL0     H84038   1.563   2.020   0.552 -0.3733  1.2897  1.2548
  623MOL0     H84039   1.343   2.007   0.643 -1.1834  1.3673  0.1699
  623MOL0     H84040   1.000   2.189   0.443  0.4639  0.6732 -1.3006
  623MOL0     H84041   1.014   2.053   0.326  1.3845  2.2130  0.1575
  623MOL0     H84042   0.785   2.040   0.444 -0.5549 -1.0601  0.6456
  623MOL0     H84043   0.880   1.903   0.456  3.0425 -0.3799  0.8672
  623MOL0     H84044   0.977   1.952   0.669  0.9689  1.5397  0.3779
  623MOL0     H84045   0.901   2.108   0.682 -2.3729 -1.9976  3.4635
  623MOL0     H84046   0.774   2.000   0.815 -5.0544  1.4627  0.7220
  623MOL0     H84047   0.677   2.014   0.667 -0.7749 -1.2619 -0.0200
  623MOL0     H84048   0.754   1.788   0.592 -2.2665  0.8879 -0.3570
  623MOL0     H84049   0.814   1.757   0.758 -1.4416  0.3481  0.7688
  623MOL0     H84050   0.614   1.655   0.698 -0.1566  0.3144 -0.4646
  623MOL0     H84051   0.578   1.769   0.834 -1.1274  1.4627  0.0404
  623MOL0     H84052   0.468   1.906   0.665  2.2003 -1.6975  1.7366
  623MOL0     H84053   0.511   1.795   0.530  0.6668  0.3021 -0.4327
  623MOL0     H84054   0.324   1.765   0.772  1.8040 -1.3267  0.9468
  623MOL0     H84055   0.356   1.631   0.670  1.7239  1.0680  1.7513
  623MOL0     H84056   0.315   1.698   0.387 -2.1505 -0.9998 -0.1258
  623MOL0     H84057  -0.062   1.811   0.283  0.1673  0.8965 -2.5069
  623MOL0     H84058   0.079   1.794   0.200 -1.3624 -1.3055  0.1140
  623MOL0     H84059  -0.033   1.567   0.360  0.3663 -1.3203 -0.8930
  623MOL0     H84060   0.115   1.573   0.267 -0.8209 -1.3192  0.7116
  623MOL0     H84061  -0.028   1.610   0.059  0.0073 -0.6637 -0.6869
  623MOL0     H84062  -0.169   1.640   0.159  0.3532  0.4950 -1.9783
  623MOL0     H84063  -0.140   1.407   0.267 -0.8670 -0.2829 -1.1340
  623MOL0     H84064  -0.011   1.379   0.146  0.5983  0.2904  0.2288
  623MOL0     H84065  -0.310   1.557  -0.090 -0.8340 -0.5816  0.1714
  623MOL0     H84066  -0.597   1.749  -0.090  0.2478 -0.4962  2.6756
  623MOL0     H84067  -0.451   1.698  -0.182 -1.0183  0.6211 -2.0517
  623MOL0     H84068  -0.606   1.623  -0.208  0.0198 -0.0132  0.7657
  623MOL0     H84069  -1.028   1.591   0.034  0.0622  0.7594 -0.2658
  623MOL0     H84070  -1.261   1.615   0.123  0.8608  4.0698  1.6885
  623MOL0     H84071  -1.343   1.369   0.245 -0.5718 -0.9331  0.0586
  623MOL0     H84072  -1.392   1.347   0.417 -2.2892  0.6019 -0.2336
  623MOL0     H84073  -1.547   1.507   0.197  0.0036 -0.3853 -0.8024
  623MOL0     H84074  -1.589   1.342   0.239  4.2766 -1.0113 -2.6612
  623MOL0     H84075  -1.607   1.573   0.457  0.5472 -1.2349 -0.9430
  623MOL0     H84076  -1.669   1.422   0.476  0.2624 -0.3932  1.2157
  623MOL0     H84077  -1.756   1.611   0.246  1.5042  2.5319  1.6077
  623MOL0     H84078  -1.843   1.462   0.310 -1.5572  1.3054 -1.0765
  623MOL0     H84079  -1.808   1.729   0.460 -1.1893 -1.0125  2.9131
  623MOL0     H84080  -1.884   1.585   0.530 -0.6989  1.1497  0.9931
  623MOL0     H84081  -1.997   1.777   0.321  0.2664 -0.5570  0.3176
  623MOL0     H84082  -2.041   1.604   0.315  0.0821 -0.2154 -0.8986
  623MOL0     H84083  -2.096   1.613   0.554 -0.3577  0.1669  0.2428
  623MOL0     H84084  -2.201   1.708   0.436 -1.4140  1.0191  2.6342
  623MOL0     H84085  -2.142   1.843   0.655 -0.4556 -2.1079 -0.1220
  623MOL0     H84086  -2.075   1.915   0.517 -0.0852  1.9976  3.3760
  623MOL0     H84087  -1.132   1.475   0.498  2.4840 -2.3288 -0.3313
  623MOL0     H84088  -0.905   1.435   0.408  0.6392  1.8355  0.3836
  623MOL0     H84089  -0.621   1.372   0.242  0.3912 -0.1349 -0.0441
  623MOL0     H84090  -0.403   1.320   0.257 -1.7021  0.1420  0.0879
  623MOL0     H84091   1.191   2.143   0.257 -0.1366  2.1024  0.8827
  623MOL0     H84092   1.433   2.186   0.191  0.1083  2.1215  0.3649
  623MOL0     H84093   1.830   2.286   0.207 -1.2892 -1.3303 -0.1928
  623MOL0     H84094   2.038   2.339   0.137 -2.4886  1.5431  4.2580
  623MOL0     H84095   2.255   1.981  -0.084  2.5692 -0.7489  1.4727
  623MOL0     H84096   2.195   2.137  -0.157 -0.9678  0.0420 -0.6585
  623MOL0     H84097   2.404   2.232  -0.126 -1.5917  0.3424 -4.2155
  623MOL0     H84098   2.427   2.083  -0.220  2.7781  0.2095  0.3928
  623MOL0     H84099   2.472   1.987   0.036 -0.4333  1.8847  2.0982
  623MOL0     H84100   2.533   2.141   0.060  3.7275  0.8695 -1.1163
  623MOL0     H84101   2.628   1.922  -0.130 -0.9367  0.3609 -1.9424
  623MOL0     H84102   2.723   2.014  -0.012  0.3659  1.4338  0.1341
  623MOL0     H84103   2.741   2.262  -0.356 -1.4958  0.7399  0.5857
  623MOL0     H84104   2.126   1.914   0.097 -1.1224 -0.9756  0.4239
  623MOL0     H84105   1.906   1.856   0.194 -0.9953 -0.0146 -0.5607
  624MOL0     O84106   9.284   7.537  10.585 -0.4048  0.2999 -0.6979
  624MOL0     C84107   9.289   7.493  10.475 -0.4381  0.8002  0.2067
  624MOL0     O84108   9.191   7.413  10.421 -0.3437  0.3978  0.2977
  624MOL0     C84109   9.118   7.329  10.506  0.4650  0.9685  0.1249
  624MOL0     C84110   9.183   7.253  10.607  0.7221 -0.7966  0.1703
  624MOL0     C84111   9.110   7.166  10.692 -0.4331 -0.4267 -0.2892
  624MOL0     C84112   8.971   7.154  10.665 -0.4837  0.0888  0.2776
  624MOL0     O84113   8.907   7.068  10.741  0.4124 -0.1526  0.4653
  624MOL0     C84114   8.765   7.053  10.718 -0.4771  0.2573 -0.0879
  624MOL0     C84115   8.717   6.934  10.798  1.6528  0.2292  0.0772
  624MOL0     C84116   8.566   6.932  10.818  0.3674 -0.1558 -0.2018
  624MOL0     C84117   8.479   6.912  10.692  0.3379 -0.1302  0.9089
  624MOL0     C84118   8.345   6.849  10.725 -0.5781 -1.4888  0.6793
  624MOL0     C84119   8.275   6.783  10.602 -0.9046 -0.0061 -0.0636
  624MOL0     C84120   8.212   6.881  10.496 -0.1528  0.3900  0.6177
  624MOL0     C84121   8.154   6.816  10.368 -0.2681 -0.2409 -0.7258
  624MOL0     N84122   8.024   6.760  10.399  0.7149  0.3533 -0.1526
  624MOL0     C84123   7.903   6.831  10.394 -0.4314  1.1176 -0.0887
  624MOL0     C84124   7.804   6.744  10.418 -0.2245  0.0552 -0.0150
  624MOL0     C84125   7.660   6.765  10.419  0.0109 -0.9742  0.4655
  624MOL0     C84126   7.593   6.768  10.560 -0.9026 -0.0329 -0.1079
  624MOL0     C84127   7.445   6.727  10.562 -0.2166 -0.2817  0.3662
  624MOL0     C84128   7.358   6.800  10.454  0.8402  0.5605 -0.1938
  624MOL0     O84129   7.233   6.739  10.447  0.0710  0.3370 -0.0760
  624MOL0     C84130   7.126   6.813  10.472  1.2499 -0.2592  0.7873
  624MOL0     C84131   7.114   6.944  10.531 -0.1137  0.8633  0.2623
  624MOL0     C84132   6.990   7.006  10.545 -0.2741 -0.7586  0.2971
  624MOL0     C84133   6.981   7.140  10.621 -0.6126  0.5601 -0.4282
  624MOL0     C84134   6.865   6.946  10.505 -0.3629  0.3809 -1.7583
  624MOL0     C84135   6.728   6.993  10.528 -0.1303  1.0053  0.3004
  624MOL0     O84136   6.632   6.888  10.531  0.3880  0.0808  0.1759
  624MOL0     C84137   6.501   6.923  10.560 -0.2170  0.1735 -0.0916
  624MOL0     C84138   6.454   6.996  10.674  0.4188 -0.0669  0.1357
  624MOL0     C84139   6.320   7.015  10.696  0.2599 -0.2997  0.0156
  624MOL0     C84140   6.223   6.970  10.608  1.2688 -0.3072  0.1402
  624MOL0     O84141   6.093   6.986  10.655  0.0596 -0.1289  0.4332
  624MOL0     C84142   6.019   7.053  10.557  1.0557  0.2952  0.5732
  624MOL0     C84143   5.867   7.055  10.594  0.0687  0.6153  0.2340
  624MOL0     C84144   5.802   6.919  10.571  0.0903  0.1973 -0.7128
  624MOL0     C84145   5.672   6.894  10.650 -0.8898  0.0156  0.2335
  624MOL0     C84146   5.550   6.945  10.583 -0.3401  0.3622  0.5872
  624MOL0     C84147   5.418   6.910  10.651  0.0379 -0.1008  0.1098
  624MOL0     C84148   5.355   6.767  10.614  0.8485 -0.1468  0.9110
  624MOL0     C84149   5.219   6.754  10.675  0.2524  0.6388 -0.5859
  624MOL0    Cl84150   5.142   6.598  10.624  0.0361  0.4100 -0.1470
  624MOL0     C84151   6.265   6.900  10.493  0.1539 -0.4881  0.2769
  624MOL0     C84152   6.402   6.874  10.480 -0.6142  0.5682 -0.2392
  624MOL0     O84153   6.700   7.111  10.536 -0.1730  0.2504 -0.1794
  624MOL0     C84154   6.882   6.813  10.459  0.2221  0.7536 -0.4148
  624MOL0     C84155   7.010   6.757  10.435 -0.0091  0.1187 -0.5815
  624MOL0     N84156   7.870   6.621  10.453 -0.5619  0.5315 -0.5794
  624MOL0     N84157   7.999   6.632  10.446  0.4982  0.1284 -0.2006
  624MOL0     C84158   8.914   7.226  10.558  1.6667  0.1121 -0.7192
  624MOL0     C84159   8.983   7.313  10.481 -0.3519 -0.4525 -0.4148
  624MOL0     C84160   9.394   7.547  10.381  0.0432 -0.7325  0.1538
  624MOL0     C84161   9.431   7.480  10.268 -0.7839 -0.1957 -0.6355
  624MOL0     C84162   9.534   7.523  10.186  0.3762 -0.2903 -0.1500
  624MOL0     C84163   9.604   7.641  10.209  0.1026  0.4780 -0.0401
  624MOL0     O84164   9.694   7.675  10.110 -0.9703 -0.2139 -0.3145
  624MOL0     C84165   9.649   7.785  10.025  0.4536  0.0299  0.3128
  624MOL0     C84166   9.740   7.811   9.903 -0.4901 -0.1211 -0.1112
  624MOL0     C84167   9.884   7.815   9.947  0.2077 -0.2227 -0.1385
  624MOL0     C84168   9.983   7.854   9.837 -0.6232  0.2193  0.6310
  624MOL0     C84169   9.944   7.975   9.760 -0.6443 -0.1940 -0.7147
  624MOL0     C84170   9.915   8.092   9.718 -0.2301  0.7348  0.6431
  624MOL0     C84171   9.580   7.708  10.321  0.1104  0.2077 -0.0306
  624MOL0     C84172   9.476   7.659  10.418  0.6093  0.5015 -0.2429
  624MOL0     H84173   9.286   7.278  10.627 -0.4953  4.1195  1.7786
  624MOL0     H84174   9.159   7.123  10.778  0.4531 -0.6262 -0.8905
  624MOL0     H84175   8.716   7.148  10.739  0.3240  0.9318 -1.1157
  624MOL0     H84176   8.746   7.027  10.613 -1.4171 -0.0320  0.1473
  624MOL0     H84177   8.733   6.841  10.743 -1.2469 -0.4084  0.1664
  624MOL0     H84178   8.778   6.927  10.888 -0.4421 -1.1339  1.4522
  624MOL0     H84179   8.539   6.853  10.889 -1.4462  0.6902  0.0802
  624MOL0     H84180   8.543   7.021  10.876 -1.2493 -0.1893 -0.7585
  624MOL0     H84181   8.465   7.000  10.630 -3.1522 -1.6329 -0.7235
  624MOL0     H84182   8.524   6.835  10.629  1.7794 -1.0388  2.9314
  624MOL0     H84183   8.362   6.767  10.796  4.2321 -0.9896  0.4008
  624MOL0     H84184   8.283   6.934  10.757  1.3216  1.2947 -2.4616
  624MOL0     H84185   8.350   6.724  10.549  1.9062  3.5916 -0.4634
  624MOL0     H84186   8.197   6.717  10.640 -1.2750  0.2611 -0.3561
  624MOL0     H84187   8.146   6.945  10.554  0.0472  0.7866  0.4127
  624MOL0     H84188   8.292   6.946  10.459  1.2942 -2.3996 -1.6733
  624MOL0     H84189   8.208   6.729  10.331 -0.3034 -1.1157  1.1785
  624MOL0     H84190   8.151   6.893  10.290 -1.0484  1.3521  0.7985
  624MOL0     H84191   7.883   6.935  10.372 -0.7014  0.7970 -1.4840
  624MOL0     H84192   7.646   6.860  10.366  1.2218 -0.7384  0.5196
  624MOL0     H84193   7.611   6.686  10.362  0.4888 -0.9486  0.0133
  624MOL0     H84194   7.617   6.865  10.604  1.7083 -1.0995  1.0422
  624MOL0     H84195   7.647   6.696  10.622 -2.0042  0.2870  1.2722
  624MOL0     H84196   7.396   6.741  10.658 -0.4651  0.9025  0.0836
  624MOL0     H84197   7.450   6.620  10.537  2.7650 -0.5355  1.7259
  624MOL0     H84198   7.411   6.789  10.359  0.0922  0.6448 -0.6307
  624MOL0     H84199   7.360   6.908  10.474 -0.9261  0.4029  1.0810
  624MOL0     H84200   7.203   6.993  10.567  0.4890  0.6906 -0.9489
  624MOL0     H84201   6.902   7.139  10.696  0.2783 -2.6627  0.6302
  624MOL0     H84202   7.070   7.146  10.685 -2.5494  0.4590  2.4730
  624MOL0     H84203   6.963   7.221  10.550 -3.5062 -0.9323 -1.5525
  624MOL0     H84204   6.520   7.053  10.739  0.2237  1.3352 -0.8406
  624MOL0     H84205   6.285   7.069  10.783  0.2526  2.8168 -1.7778
  624MOL0     H84206   6.044   7.159  10.566  0.7449  0.2147  3.0207
  624MOL0     H84207   6.036   7.006  10.459  2.0622  0.0190  0.8720
  624MOL0     H84208   5.856   7.081  10.700 -0.8474 -1.5000  0.7080
  624MOL0     H84209   5.808   7.136  10.551  1.7969  2.1392  0.5575
  624MOL0     H84210   5.877   6.845  10.600  0.1967 -1.1523 -4.0341
  624MOL0     H84211   5.796   6.884  10.468 -2.3800 -1.8307  0.0055
  624MOL0     H84212   5.670   6.786  10.667  1.0322  0.0980  1.1829
  624MOL0     H84213   5.686   6.945  10.745  0.8245  1.0700 -0.5417
  624MOL0     H84214   5.550   6.902  10.482  3.7553  3.2292 -0.9090
  624MOL0     H84215   5.561   7.050  10.558  2.0028 -0.1010 -0.6116
  624MOL0     H84216   5.423   6.933  10.758 -2.6734  0.1963  0.2351
  624MOL0     H84217   5.348   6.985  10.611  2.0660  1.7372 -0.2098
  624MOL0     H84218   5.426   6.686  10.631  3.3821  2.1573  2.0753
  624MOL0     H84219   5.333   6.756  10.507 -1.5070 -1.3482  1.4496
  624MOL0     H84220   5.153   6.838  10.651 -0.4932 -0.4087 -2.3197
  624MOL0     H84221   5.230   6.736  10.783  0.8723 -1.5772 -0.9742
  624MOL0     H84222   6.200   6.854  10.419 -0.4985  0.5303  0.2099
  624MOL0     H84223   6.434   6.822  10.390  1.3735  1.1832  0.0607
  624MOL0     H84224   6.795   6.757  10.430  1.6931  0.1083 -4.0682
  624MOL0     H84225   7.026   6.657  10.396  3.6557 -0.7410  2.4967
  624MOL0     H84226   8.811   7.206  10.531  0.4909  2.4031  1.5999
  624MOL0     H84227   8.940   7.371  10.400 -0.8287 -0.9420 -0.5180
  624MOL0     H84228   9.390   7.387  10.229 -1.0695  1.2861 -4.2252
  624MOL0     H84229   9.541   7.477  10.088 -0.9317  0.1086 -0.4545
  624MOL0     H84230   9.555   7.754   9.980  0.2462 -0.7555  1.2517
  624MOL0     H84231   9.620   7.876  10.080  0.3852  2.1005 -2.9062
  624MOL0     H84232   9.708   7.899   9.847  2.8428  1.7497  0.6448
  624MOL0     H84233   9.725   7.724   9.839 -1.0735 -1.1081  1.3037
  624MOL0     H84234   9.921   7.726   9.998  1.5270 -0.7208 -1.8575
  624MOL0     H84235   9.887   7.894  10.023  0.8391  0.5934 -0.9924
  624MOL0     H84236   9.975   7.771   9.766  0.8191  0.1411  0.5153
  624MOL0     H84237  10.088   7.878   9.855 -0.7561  2.4961 -1.2301
  624MOL0     H84238   9.881   8.180   9.669  0.1481  0.0300 -0.9434
  624MOL0     H84239   9.637   7.799  10.332 -0.4624  1.0214 -2.9907
  624MOL0     H84240   9.445   7.710  10.509 -2.1606 -1.3047 -0.0297
  625MOL0     O84241   6.749   9.279   7.938 -0.5488 -0.2341  0.4336
  625MOL0     C84242   6.812   9.210   7.855 -0.7145 -0.5665 -0.2213
  625MOL0     O84243   6.761   9.142   7.744 -0.2195 -0.6882 -0.9568
  625MOL0     C84244   6.631   9.162   7.706 -0.8262  0.0358  0.2028
  625MOL0     C84245   6.559   9.282   7.710 -0.6184 -0.3501 -0.1497
  625MOL0     C84246   6.429   9.285   7.656  0.0342 -0.0825  0.2821
  625MOL0     C84247   6.371   9.176   7.590 -1.0661 -0.9986 -1.7057
  625MOL0     O84248   6.244   9.174   7.553 -0.0785 -0.1487  0.1534
  625MOL0     C84249   6.210   9.100   7.430  0.2129 -0.1501  0.7332
  625MOL0     C84250   6.064   9.138   7.411 -0.0311  0.4229  0.0754
  625MOL0     C84251   5.999   9.074   7.291  0.3969  0.1133 -0.6899
  625MOL0     C84252   6.038   9.139   7.158 -0.2957  0.7992  0.1939
  625MOL0     C84253   5.925   9.122   7.052  0.7578 -0.0803  0.0178
  625MOL0     C84254   5.917   8.986   6.982  0.0663  0.1479  0.7482
  625MOL0     C84255   6.044   8.974   6.895 -0.4236 -0.0320 -0.3706
  625MOL0     C84256   6.024   8.852   6.797  0.7356 -1.3608  0.4525
  625MOL0     N84257   6.141   8.817   6.713 -0.4705 -0.0849 -0.2965
  625MOL0     C84258   6.206   8.898   6.622  0.0866  0.0672  0.4120
  625MOL0     C84259   6.304   8.822   6.574 -0.2572  0.8447  1.6484
  625MOL0     C84260   6.392   8.861   6.455  0.0162  0.3650  0.5878
  625MOL0     C84261   6.375   8.762   6.347 -0.3132  0.1989 -0.1786
  625MOL0     C84262   6.471   8.801   6.225 -0.4945  0.4466 -0.2915
  625MOL0     C84263   6.470   8.699   6.110 -0.2406  0.2235  0.5242
  625MOL0     O84264   6.549   8.577   6.146 -0.3573  0.5125  0.2947
  625MOL0     C84265   6.688   8.580   6.123  0.4359 -0.3102  1.1058
  625MOL0     C84266   6.751   8.480   6.186 -0.7773 -0.6833 -0.9209
  625MOL0     C84267   6.893   8.457   6.196 -0.0282 -0.4447  0.0244
  625MOL0     C84268   6.951   8.345   6.271 -0.5675 -0.0107  0.7654
  625MOL0     C84269   6.969   8.551   6.122 -0.3167 -0.3928  0.3906
  625MOL0     C84270   7.118   8.550   6.129  0.2513  0.0413  0.0927
  625MOL0     O84271   7.184   8.430   6.102 -0.2245 -0.4842 -0.2769
  625MOL0     C84272   7.316   8.431   6.146  0.1105  0.7071  0.1084
  625MOL0     C84273   7.431   8.473   6.063 -0.5244 -0.3509 -0.2609
  625MOL0     C84274   7.561   8.489   6.124  0.4701 -1.2022  0.1851
  625MOL0     C84275   7.572   8.455   6.256 -0.0785 -0.5741 -0.3354
  625MOL0     O84276   7.693   8.467   6.322 -0.5679  0.2994 -0.1329
  625MOL0     C84277   7.814   8.519   6.247 -0.3796 -0.4557 -0.1948
  625MOL0     C84278   7.944   8.483   6.332 -0.6259  0.0711 -0.8680
  625MOL0     C84279   7.976   8.334   6.336 -0.5334 -0.6412  0.2062
  625MOL0     C84280   8.125   8.304   6.386 -0.1934  0.2564 -0.9406
  625MOL0     C84281   8.143   8.149   6.398 -0.1488 -0.6408  0.4267
  625MOL0     C84282   8.224   8.074   6.298  0.2066  0.4531 -0.2113
  625MOL0     C84283   8.156   8.050   6.171 -0.1102  1.1031  0.5888
  625MOL0     C84284   8.253   8.004   6.062 -0.1986 -0.1065 -1.1147
  625MOL0    Cl84285   8.247   7.831   6.076  0.3135 -0.1642  0.3237
  625MOL0     C84286   7.474   8.407   6.337 -0.1037  0.2048 -0.0084
  625MOL0     C84287   7.352   8.387   6.274 -0.6376 -0.4689  0.2244
  625MOL0     O84288   7.173   8.661   6.149 -0.8358  0.2280  0.8263
  625MOL0     C84289   6.904   8.659   6.054 -1.0869  0.1412 -0.7653
  625MOL0     C84290   6.767   8.676   6.051  1.1453  0.4687  0.2056
  625MOL0     N84291   6.292   8.689   6.630  0.2274  0.8537 -0.9325
  625MOL0     N84292   6.186   8.691   6.706 -0.5368 -0.0117 -0.1882
  625MOL0     C84293   6.448   9.061   7.580 -0.9792  0.2768 -0.2744
  625MOL0     C84294   6.578   9.054   7.635  0.2793  0.0623 -0.5412
  625MOL0     C84295   6.952   9.185   7.885  0.2543 -0.0367 -0.8613
  625MOL0     C84296   7.022   9.089   7.813  0.5741  1.1683 -0.5765
  625MOL0     C84297   7.151   9.050   7.852 -0.3737 -0.2706 -0.0353
  625MOL0     C84298   7.215   9.136   7.950 -0.7543  0.4178  0.8400
  625MOL0     O84299   7.341   9.113   7.986 -0.5154  0.8785  0.1696
  625MOL0     C84300   7.424   9.030   7.899 -0.7617 -0.1446  0.5997
  625MOL0     C84301   7.568   9.026   7.947 -0.2899 -0.7483  0.8692
  625MOL0     C84302   7.671   8.973   7.847  0.4259 -0.0859  0.0179
  625MOL0     C84303   7.806   8.996   7.908 -0.2523  0.0311 -0.7809
  625MOL0     C84304   7.921   8.938   7.832 -0.5288 -0.4735  0.4389
  625MOL0     C84305   8.017   8.881   7.790 -0.0405 -0.3041 -0.6822
  625MOL0     C84306   7.149   9.237   8.011  0.4593  0.2887 -0.1980
  625MOL0     C84307   7.021   9.264   7.976 -0.1811  0.4354 -0.0350
  625MOL0     H84308   6.601   9.371   7.756 -2.1508 -0.5576  1.8028
  625MOL0     H84309   6.372   9.378   7.658 -1.0434 -0.7204 -0.0413
  625MOL0     H84310   6.262   9.125   7.337 -1.2401  0.1491 -0.0381
  625MOL0     H84311   6.219   8.992   7.440  0.2742 -0.5828 -2.6752
  625MOL0     H84312   6.011   9.110   7.502  1.1582  0.2031  0.7169
  625MOL0     H84313   6.062   9.248   7.412 -0.7061  0.4185  1.0644
  625MOL0     H84314   6.016   8.966   7.285  1.9165  0.3048 -0.2188
  625MOL0     H84315   5.891   9.090   7.300  0.4161  0.1632 -0.5572
  625MOL0     H84316   6.039   9.248   7.171 -1.1177  1.0058 -1.2425
  625MOL0     H84317   6.136   9.101   7.127  0.2615 -0.5888  3.2906
  625MOL0     H84318   5.829   9.143   7.100  1.0768  0.9168  0.2523
  625MOL0     H84319   5.928   9.209   6.985 -1.4557  0.5504  0.6379
  625MOL0     H84320   5.913   8.904   7.055  2.2241  0.0289  0.8152
  625MOL0     H84321   5.833   8.980   6.913 -0.4298 -1.3084  1.4372
  625MOL0     H84322   6.082   9.066   6.849  0.7981  0.2938  1.1855
  625MOL0     H84323   6.120   8.946   6.969 -0.8567 -0.0615  0.0706
  625MOL0     H84324   5.940   8.877   6.731  2.2388 -0.0527 -1.0857
  625MOL0     H84325   5.989   8.765   6.852  0.0228 -1.2201  0.2322
  625MOL0     H84326   6.199   9.003   6.595  0.1723 -0.3985 -1.5815
  625MOL0     H84327   6.378   8.960   6.411 -0.0474 -0.8490 -2.3654
  625MOL0     H84328   6.497   8.870   6.485 -0.3858  0.7387  1.9682
  625MOL0     H84329   6.270   8.766   6.316 -0.7803  0.4385  1.3540
  625MOL0     H84330   6.400   8.665   6.391 -0.4602  1.0631  1.9218
  625MOL0     H84331   6.571   8.814   6.266 -0.0630 -2.5052 -0.1942
  625MOL0     H84332   6.440   8.898   6.185  2.7283  1.1214 -1.4000
  625MOL0     H84333   6.514   8.746   6.022  0.7251  0.5613  1.1622
  625MOL0     H84334   6.365   8.674   6.093  0.3354 -3.2723  1.4074
  625MOL0     H84335   6.688   8.419   6.250 -0.1434 -1.7537 -1.2973
  625MOL0     H84336   6.874   8.291   6.327 -2.1223  0.9652 -0.3361
  625MOL0     H84337   6.996   8.271   6.204  0.1967  1.3716 -0.3050
  625MOL0     H84338   7.034   8.379   6.333  0.6700  1.6679 -1.6092
  625MOL0     H84339   7.415   8.495   5.958  1.0865 -0.9610 -0.6648
  625MOL0     H84340   7.642   8.532   6.067 -0.8035  0.1123 -0.7225
  625MOL0     H84341   7.835   8.472   6.151 -1.5262 -1.5431  0.0582
  625MOL0     H84342   7.802   8.624   6.222 -2.1962 -0.6644 -0.2984
  625MOL0     H84343   8.033   8.529   6.289 -0.5759  1.1247  0.3026
  625MOL0     H84344   7.927   8.519   6.434 -0.3277  1.5940 -1.3319
  625MOL0     H84345   7.959   8.290   6.238 -1.6721  0.1003  0.0489
  625MOL0     H84346   7.911   8.290   6.412  2.4328  1.1127  4.1199
  625MOL0     H84347   8.195   8.343   6.311  0.9029  1.9638  0.8728
  625MOL0     H84348   8.152   8.356   6.479 -0.5441  0.0582 -0.7283
  625MOL0     H84349   8.051   8.093   6.417 -0.0042 -0.8456  0.5245
  625MOL0     H84350   8.200   8.140   6.491 -0.3006  2.5572  0.9098
  625MOL0     H84351   8.310   8.135   6.272 -0.2345  1.7427  1.2305
  625MOL0     H84352   8.251   7.973   6.332  0.1602  0.7233  0.6386
  625MOL0     H84353   8.117   8.145   6.133  0.5308  0.1044 -2.9031
  625MOL0     H84354   8.076   7.975   6.176 -0.6264  1.4321 -1.6697
  625MOL0     H84355   8.355   8.040   6.076 -0.2183  0.2388 -1.8278
  625MOL0     H84356   8.213   8.038   5.966  2.6098 -0.1976 -2.3953
  625MOL0     H84357   7.485   8.392   6.444 -0.0045  1.9239  0.2525
  625MOL0     H84358   7.267   8.351   6.331 -0.4257 -2.2489 -0.5171
  625MOL0     H84359   6.974   8.724   6.002  1.6436 -0.9883  1.2909
  625MOL0     H84360   6.730   8.768   6.006  0.2570 -0.3562 -0.8290
  625MOL0     H84361   6.408   8.971   7.535 -0.5101  0.0032 -0.1441
  625MOL0     H84362   6.630   8.960   7.621  1.0957  0.6012 -1.2264
  625MOL0     H84363   6.972   9.030   7.737 -2.3356  0.1075  1.9544
  625MOL0     H84364   7.198   8.973   7.792  0.8159 -0.6625  1.3509
  625MOL0     H84365   7.389   8.927   7.901  2.7033 -1.4611  0.5739
  625MOL0     H84366   7.432   9.073   7.799  1.3938 -3.4093 -0.7992
  625MOL0     H84367   7.574   8.966   8.039 -1.1184 -0.2487  1.2542
  625MOL0     H84368   7.604   9.125   7.977  2.5521 -2.1433  2.5525
  625MOL0     H84369   7.666   9.029   7.753 -5.8429 -1.3421 -0.7779
  625MOL0     H84370   7.648   8.871   7.816 -0.0681 -1.4096  4.1254
  625MOL0     H84371   7.813   8.955   8.009  1.7438 -3.3629 -2.1161
  625MOL0     H84372   7.828   9.103   7.906  0.8224 -0.1723 -2.8239
  625MOL0     H84373   8.095   8.814   7.760 -0.6428 -1.1332 -0.4314
  625MOL0     H84374   7.208   9.291   8.084  1.5730 -0.7233 -0.3189
  625MOL0     H84375   6.964   9.342   8.025  0.9601 -0.1838  2.3807
  626MOL0     O84376   3.726   9.969   5.371 -0.9508 -0.9590 -0.4416
  626MOL0     C84377   3.753   9.884   5.449 -0.2117  0.3610 -0.1279
  626MOL0     O84378   3.667   9.788   5.487 -0.5509  0.6328 -0.3538
  626MOL0     C84379   3.539   9.788   5.445  0.2515  0.1099  0.6715
  626MOL0     C84380   3.435   9.773   5.538  0.1804 -0.4017  0.2813
  626MOL0     C84381   3.301   9.766   5.489 -0.1270  0.0698 -0.5330
  626MOL0     C84382   3.267   9.783   5.354  0.3887  0.5481  0.5335
  626MOL0     O84383   3.135   9.769   5.324 -0.5744 -0.2243 -0.5382
  626MOL0     C84384   3.093   9.764   5.188  0.2395  1.2271 -0.2483
  626MOL0     C84385   3.009   9.891   5.143 -0.4354  0.4822 -0.2472
  626MOL0     C84386   2.859   9.877   5.195 -1.4700 -0.3618  1.0078
  626MOL0     C84387   2.848   9.926   5.341 -0.0901 -0.2748 -0.7584
  626MOL0     C84388   2.711   9.920   5.397  0.8236 -0.8815  0.3043
  626MOL0     C84389   2.651   9.781   5.386 -0.0902  0.3214  0.3426
  626MOL0     C84390   2.526   9.782   5.482  1.0262 -0.3736 -0.3054
  626MOL0     C84391   2.471   9.642   5.488 -0.2695 -0.6954  0.0444
  626MOL0     N84392   2.365   9.631   5.584 -0.2599  0.1588 -1.1415
  626MOL0     C84393   2.234   9.604   5.551  0.1587 -0.5992  0.0212
  626MOL0     C84394   2.160   9.630   5.659  0.0692  0.4886 -0.3290
  626MOL0     C84395   2.010   9.607   5.676 -0.0885  0.6277  0.3461
  626MOL0     C84396   2.000   9.478   5.755  0.0851  0.6107  0.7592
  626MOL0     C84397   2.012   9.355   5.659 -0.8227  0.2034 -0.3243
  626MOL0     C84398   2.023   9.230   5.741  1.2200 -0.1484  0.1034
  626MOL0     O84399   2.061   9.126   5.652  0.6077  0.0070 -0.4452
  626MOL0     C84400   2.197   9.093   5.640  0.1930  0.1725 -0.4433
  626MOL0     C84401   2.306   9.153   5.703 -0.2239  0.7479  0.3290
  626MOL0     C84402   2.435   9.112   5.695  0.3606  0.4401 -0.8886
  626MOL0     C84403   2.545   9.189   5.757  0.1429  0.4211  0.3679
  626MOL0     C84404   2.465   8.990   5.624 -0.8478  0.3356  0.6323
  626MOL0     C84405   2.603   8.934   5.607  0.4775 -0.4916 -0.2174
  626MOL0     O84406   2.604   8.823   5.530  0.1036  0.1620  0.3385
  626MOL0     C84407   2.714   8.746   5.511  0.5434  0.1087 -0.1547
  626MOL0     C84408   2.696   8.607   5.522  0.4273  0.0588 -0.2099
  626MOL0     C84409   2.796   8.524   5.502  0.3333  0.2455 -0.4255
  626MOL0     C84410   2.927   8.569   5.473  0.6000  0.4147 -0.2467
  626MOL0     O84411   3.036   8.485   5.476 -0.1075  0.1742  0.5911
  626MOL0     C84412   3.011   8.371   5.388  0.0914  0.7644 -1.4868
  626MOL0     C84413   3.139   8.335   5.310  0.3160  0.1304  0.0295
  626MOL0     C84414   3.241   8.260   5.396 -0.8049 -0.5561  0.5504
  626MOL0     C84415   3.342   8.187   5.303 -0.5817  0.0632 -0.4499
  626MOL0     C84416   3.421   8.099   5.402  0.2239 -0.4166  0.0706
  626MOL0     C84417   3.515   7.991   5.326  0.8375  0.1718  0.6057
  626MOL0     C84418   3.584   7.896   5.423 -0.3979 -0.5027 -0.1139
  626MOL0     C84419   3.522   7.756   5.429  0.1886  0.4263 -0.3988
  626MOL0    Cl84420   3.640   7.647   5.496  0.3709  0.3105 -0.1741
  626MOL0     C84421   2.950   8.708   5.470  0.3370 -0.6480 -0.5583
  626MOL0     C84422   2.844   8.794   5.482 -0.6377  1.0849 -0.3239
  626MOL0     O84423   2.701   8.989   5.658 -0.2146  0.2940 -0.5949
  626MOL0     C84424   2.353   8.924   5.555  0.6356 -0.2699  0.2391
  626MOL0     C84425   2.227   8.980   5.564 -0.1930 -1.1717  0.3030
  626MOL0     N84426   2.245   9.671   5.762  0.0364 -0.3838 -0.4271
  626MOL0     N84427   2.370   9.674   5.714 -0.7674 -0.2447  0.2379
  626MOL0     C84428   3.369   9.802   5.270  0.7693 -0.6556 -0.0363
  626MOL0     C84429   3.505   9.802   5.308 -0.7888  0.4441 -0.4269
  626MOL0     C84430   3.893   9.870   5.505  0.3386 -0.5810 -0.0111
  626MOL0     C84431   3.999   9.934   5.439 -0.5546 -0.3855  0.1737
  626MOL0     C84432   4.130   9.906   5.484 -0.3739 -0.0031 -0.9942
  626MOL0     C84433   4.154   9.817   5.592  0.5611 -0.9435 -0.0485
  626MOL0     O84434   4.287   9.815   5.624  0.1007  1.0935  0.1529
  626MOL0     C84435   4.319   9.729   5.741 -0.8298 -0.1180 -0.0803
  626MOL0     C84436   4.459   9.758   5.800 -0.3161 -0.0973  0.0792
  626MOL0     C84437   4.570   9.704   5.706 -0.4545  0.2733 -0.9702
  626MOL0     C84438   4.611   9.811   5.604  0.0138 -0.4666  0.1495
  626MOL0     C84439   4.708   9.754   5.506  0.2809 -0.0958  0.3969
  626MOL0     C84440   4.785   9.714   5.427 -0.2629  0.1824 -0.1788
  626MOL0     C84441   4.044   9.753   5.654 -0.1080  0.2734  0.3690
  626MOL0     C84442   3.922   9.765   5.599 -0.1709  0.1620  0.1504
  626MOL0     H84443   3.454   9.771   5.645 -0.3138  0.0433  0.3847
  626MOL0     H84444   3.216   9.743   5.552  0.2821  3.4348  1.5372
  626MOL0     H84445   3.168   9.732   5.114  0.5496 -3.2503  1.6864
  626MOL0     H84446   3.040   9.668   5.191  2.2800  0.0477  0.1286
  626MOL0     H84447   3.057   9.980   5.184  0.2510  0.9534 -1.9886
  626MOL0     H84448   3.026   9.899   5.035  2.7065 -1.1828  0.0079
  626MOL0     H84449   2.788   9.922   5.126 -0.7561  1.2746  1.2904
  626MOL0     H84450   2.825   9.773   5.195  0.8526 -1.1777  1.1038
  626MOL0     H84451   2.913   9.876   5.414 -0.3166  1.3364  0.5991
  626MOL0     H84452   2.876  10.031   5.351 -0.6723  0.0226 -2.0778
  626MOL0     H84453   2.714   9.961   5.498 -1.0538 -1.3444  0.5862
  626MOL0     H84454   2.655   9.994   5.338  1.8148  0.7193  1.2985
  626MOL0     H84455   2.642   9.764   5.278  2.8714 -0.0293  0.0758
  626MOL0     H84456   2.720   9.702   5.417 -0.1715 -1.9106 -4.3113
  626MOL0     H84457   2.560   9.802   5.584  0.9115 -0.7135 -0.1963
  626MOL0     H84458   2.457   9.857   5.442  3.6744  2.9115  0.8234
  626MOL0     H84459   2.541   9.565   5.523 -1.0034 -1.2076  0.4025
  626MOL0     H84460   2.421   9.631   5.391 -1.9122  0.3779  0.7450
  626MOL0     H84461   2.193   9.558   5.462  0.3867  1.3495 -1.1393
  626MOL0     H84462   1.970   9.694   5.727  0.2048  0.8498  0.2009
  626MOL0     H84463   1.975   9.596   5.572 -0.9713 -0.2850  0.7226
  626MOL0     H84464   1.904   9.480   5.807  0.4966  0.7921  1.5139
  626MOL0     H84465   2.074   9.473   5.836  1.2656  1.1915 -0.2459
  626MOL0     H84466   2.108   9.360   5.606  1.4057 -2.0272  3.0609
  626MOL0     H84467   1.921   9.347   5.599 -1.2425  0.3932  0.2828
  626MOL0     H84468   1.922   9.196   5.766  2.4082 -5.4999 -1.2026
  626MOL0     H84469   2.080   9.241   5.834 -2.6603 -3.0067  3.2174
  626MOL0     H84470   2.297   9.237   5.772  2.6680  1.1547  0.3172
  626MOL0     H84471   2.514   9.270   5.824 -3.2061 -0.5271  0.1380
  626MOL0     H84472   2.596   9.109   5.811 -2.2825 -2.8915 -1.8369
  626MOL0     H84473   2.604   9.230   5.674 -0.4547  1.2821  0.3530
  626MOL0     H84474   2.602   8.558   5.547  0.7749 -3.3536 -4.4447
  626MOL0     H84475   2.773   8.418   5.512  0.4886  0.1475 -1.0963
  626MOL0     H84476   2.971   8.298   5.459 -1.4233  0.4056 -2.6506
  626MOL0     H84477   2.932   8.394   5.315 -0.1273  2.4143 -0.7751
  626MOL0     H84478   3.104   8.270   5.229  0.9050 -0.4629  0.2475
  626MOL0     H84479   3.174   8.427   5.263 -0.2261  0.1637 -0.3214
  626MOL0     H84480   3.196   8.189   5.467  2.1800 -2.2303  0.9341
  626MOL0     H84481   3.288   8.337   5.458  0.3169 -0.6257 -0.1764
  626MOL0     H84482   3.305   8.125   5.222 -2.3630 -1.4980  1.4462
  626MOL0     H84483   3.410   8.263   5.263 -2.9405  1.6264 -1.7322
  626MOL0     H84484   3.351   8.034   5.454 -0.4339  0.0957 -0.1626
  626MOL0     H84485   3.483   8.156   5.472  1.8420  0.3606 -1.8869
  626MOL0     H84486   3.464   7.938   5.245  1.2066 -0.1264  0.5648
  626MOL0     H84487   3.587   8.060   5.281  1.8974  0.3003  2.4146
  626MOL0     H84488   3.582   7.933   5.526 -2.4760  1.4281 -0.7713
  626MOL0     H84489   3.690   7.884   5.401  0.6856  0.6085  3.7727
  626MOL0     H84490   3.509   7.729   5.324  1.4462 -0.4730 -0.3421
  626MOL0     H84491   3.422   7.764   5.473  0.5999  2.0124  0.3083
  626MOL0     H84492   3.054   8.734   5.455  1.0157 -2.3881  0.7683
  626MOL0     H84493   2.862   8.901   5.481 -0.1552  1.0015 -1.6205
  626MOL0     H84494   2.365   8.837   5.491  0.0011  0.2247 -0.5569
  626MOL0     H84495   2.144   8.933   5.511 -0.8035 -0.7125  0.8400
  626MOL0     H84496   3.354   9.815   5.163  0.0342 -0.0799  0.1318
  626MOL0     H84497   3.583   9.794   5.233 -1.5389  0.0041 -1.1769
  626MOL0     H84498   3.982  10.015   5.369  0.6963  1.2106  1.6438
  626MOL0     H84499   4.211   9.964   5.440 -0.0142  1.8520  1.8405
  626MOL0     H84500   4.249   9.757   5.821 -1.0254 -0.2218 -0.2137
  626MOL0     H84501   4.311   9.626   5.705 -0.8477 -0.0316 -0.3194
  626MOL0     H84502   4.453   9.715   5.901 -1.5683 -2.8485 -1.0732
  626MOL0     H84503   4.487   9.863   5.813 -0.3589 -0.2079  1.1871
  626MOL0     H84504   4.528   9.614   5.660 -1.8325 -0.6503  1.8794
  626MOL0     H84505   4.652   9.675   5.773  0.4940  3.5740 -0.5184
  626MOL0     H84506   4.666   9.891   5.654 -0.0459 -1.7461  2.3903
  626MOL0     H84507   4.524   9.856   5.555 -0.1272 -0.0646  0.7693
  626MOL0     H84508   4.859   9.667   5.366 -0.9482 -0.4540 -0.5443
  626MOL0     H84509   4.055   9.691   5.742 -2.1917 -1.5100 -0.5185
  626MOL0     H84510   3.846   9.701   5.644 -0.0958 -0.0395 -0.0048
  627MOL0     O84511   8.799   1.157   3.290 -0.1993  0.4333  0.4389
  627MOL0     C84512   8.904   1.097   3.325  0.2855  0.1041 -0.8957
  627MOL0     O84513   8.922   1.024   3.442 -0.2194 -0.5765  0.7377
  627MOL0     C84514   8.812   0.960   3.495  0.5196  0.1909  0.6111
  627MOL0     C84515   8.733   0.867   3.425 -0.0895  0.0876  0.3201
  627MOL0     C84516   8.622   0.818   3.490 -0.5401  0.6189  0.8087
  627MOL0     C84517   8.581   0.863   3.613 -0.5691  0.2364 -0.5243
  627MOL0     O84518   8.453   0.834   3.653  0.5431  0.1736 -0.1979
  627MOL0     C84519   8.424   0.829   3.798  0.2722  0.1806 -0.3841
  627MOL0     C84520   8.285   0.762   3.828 -0.8083  0.3683 -0.4904
  627MOL0     C84521   8.272   0.624   3.760  0.3827 -0.0457  1.0127
  627MOL0     C84522   8.392   0.537   3.810  1.0387  0.5895  0.5503
  627MOL0     C84523   8.368   0.385   3.801 -1.1534  0.0237  0.0792
  627MOL0     C84524   8.477   0.317   3.878  0.6427  0.0852  0.2880
  627MOL0     C84525   8.477   0.168   3.853 -0.4890 -0.5408 -0.3848
  627MOL0     C84526   8.589   0.105   3.933  0.5414  0.3858 -0.8401
  627MOL0     N84527   8.584  -0.037   3.910 -0.2065 -0.3607  0.2080
  627MOL0     C84528   8.620  -0.099   3.795 -0.0852  0.3935 -0.8391
  627MOL0     C84529   8.603  -0.228   3.818  0.1236  0.7680 -0.3907
  627MOL0     C84530   8.614  -0.343   3.725 -1.6621  0.0440  0.1330
  627MOL0     C84531   8.559  -0.326   3.581 -0.4483 -0.3159 -0.1960
  627MOL0     C84532   8.409  -0.298   3.581  0.7765  0.1539 -0.5485
  627MOL0     C84533   8.342  -0.430   3.632  0.5488 -0.5262 -0.0226
  627MOL0     O84534   8.205  -0.435   3.573  0.2395  0.1209 -0.1279
  627MOL0     C84535   8.096  -0.375   3.638  0.7917  0.8326 -0.1097
  627MOL0     C84536   8.107  -0.298   3.752 -0.5360  0.3383 -0.1058
  627MOL0     C84537   8.001  -0.223   3.803  0.0327 -0.2318 -0.2453
  627MOL0     C84538   8.030  -0.116   3.898 -0.0740 -0.1063 -0.6934
  627MOL0     C84539   7.870  -0.235   3.740  0.0036  0.4381 -0.2046
  627MOL0     C84540   7.754  -0.168   3.786 -0.1052 -0.8587  0.5885
  627MOL0     O84541   7.724  -0.192   3.915 -0.2146 -0.1046  0.4477
  627MOL0     C84542   7.609  -0.145   3.959  0.0471 -0.1583 -0.3471
  627MOL0     C84543   7.608  -0.065   4.070 -0.0581 -0.2163  1.1392
  627MOL0     C84544   7.491  -0.022   4.126  0.0189  0.0614  0.3931
  627MOL0     C84545   7.366  -0.058   4.071 -0.4583 -0.0728  0.1958
  627MOL0     O84546   7.260  -0.030   4.155 -0.5444 -0.3251 -0.1529
  627MOL0     C84547   7.132  -0.075   4.120 -0.5416  0.6743  0.2673
  627MOL0     C84548   7.042   0.032   4.186  0.3931  0.8865  0.4229
  627MOL0     C84549   6.899   0.017   4.112  0.0514 -0.4446  0.1273
  627MOL0     C84550   6.829  -0.117   4.146 -0.4726 -0.3051 -1.0347
  627MOL0     C84551   6.688  -0.121   4.084 -0.2986  0.2106 -0.1825
  627MOL0     C84552   6.587  -0.028   4.153 -0.5155 -0.1534 -0.0101
  627MOL0     C84553   6.446  -0.078   4.127  0.3871 -1.1393  0.7767
  627MOL0     C84554   6.350   0.035   4.118  0.6298  0.1852  0.1375
  627MOL0    Cl84555   6.361   0.115   4.279 -0.6739  0.7704  0.2561
  627MOL0     C84556   7.368  -0.148   3.960 -0.7010 -0.4622 -0.3445
  627MOL0     C84557   7.494  -0.185   3.903  0.4154 -0.4395  0.1026
  627MOL0     O84558   7.671  -0.118   3.707 -0.2895  0.2272 -0.4360
  627MOL0     C84559   7.860  -0.332   3.636  0.0071 -0.3490  0.2669
  627MOL0     C84560   7.971  -0.390   3.578  0.9480  0.9784  0.4043
  627MOL0     N84561   8.552  -0.248   3.949  0.5813  0.7942  0.0214
  627MOL0     N84562   8.547  -0.134   4.004 -0.0026  0.1536 -0.7670
  627MOL0     C84563   8.668   0.951   3.685  0.3809 -0.0917 -0.0579
  627MOL0     C84564   8.782   0.999   3.623 -0.5310  0.0291  0.3260
  627MOL0     C84565   9.021   1.103   3.235  0.3571 -0.5458  0.4753
  627MOL0     C84566   9.153   1.121   3.284 -0.2970 -0.5884  0.2613
  627MOL0     C84567   9.261   1.143   3.200  0.2754  0.2595  0.8073
  627MOL0     C84568   9.250   1.146   3.066  0.0801 -0.9099  0.1741
  627MOL0     O84569   9.348   1.172   2.967  0.0152  0.3681 -0.1460
  627MOL0     C84570   9.482   1.208   3.022  0.1797  0.6788 -0.0143
  627MOL0     C84571   9.591   1.202   2.909  0.1036  0.0401  0.1717
  627MOL0     C84572   9.612   1.064   2.843  0.7730  0.9385 -0.5543
  627MOL0     C84573   9.713   1.054   2.729  0.3923  0.0998  0.5110
  627MOL0     C84574   9.850   1.073   2.777  0.4725  1.1137  0.5163
  627MOL0     C84575   9.962   1.075   2.808  0.2062  0.0715  0.5607
  627MOL0     C84576   9.127   1.121   3.017  0.4058 -0.6654  0.9810
  627MOL0     C84577   9.016   1.096   3.099 -0.3053  0.1264  0.4613
  627MOL0     H84578   8.761   0.835   3.325  1.6926 -1.5249  1.2537
  627MOL0     H84579   8.554   0.752   3.437  2.7190 -1.6545 -0.8208
  627MOL0     H84580   8.501   0.785   3.861 -0.2612 -1.2240 -0.6691
  627MOL0     H84581   8.410   0.930   3.836 -2.8420  0.1604 -1.1961
  627MOL0     H84582   8.280   0.753   3.936 -0.6277 -0.4650 -0.5469
  627MOL0     H84583   8.209   0.833   3.795 -1.8509 -0.4518  0.1133
  627MOL0     H84584   8.189   0.561   3.791  0.8545 -2.4857 -2.1156
  627MOL0     H84585   8.269   0.635   3.651  1.3907 -0.0929  0.9712
  627MOL0     H84586   8.468   0.553   3.733  2.9271 -0.3934  2.1203
  627MOL0     H84587   8.427   0.566   3.909 -0.1451  0.4831  1.0199
  627MOL0     H84588   8.269   0.356   3.836 -1.7244  0.5806 -1.0481
  627MOL0     H84589   8.379   0.355   3.696 -2.2652 -1.0828  0.2476
  627MOL0     H84590   8.575   0.352   3.846  0.9728 -0.0112  1.1585
  627MOL0     H84591   8.465   0.322   3.987 -2.6244 -0.3742  0.0608
  627MOL0     H84592   8.381   0.119   3.870  0.3952 -2.3420 -0.3179
  627MOL0     H84593   8.501   0.157   3.746 -2.0962  3.5127 -1.3563
  627MOL0     H84594   8.592   0.119   4.041 -0.9723 -1.1096 -0.5643
  627MOL0     H84595   8.680   0.149   3.891  0.1054  2.0433 -0.1592
  627MOL0     H84596   8.663  -0.053   3.707 -1.1888  1.1202 -1.0171
  627MOL0     H84597   8.717  -0.369   3.699 -1.3573  2.1362 -0.9539
  627MOL0     H84598   8.561  -0.426   3.771 -1.4015 -0.0277  0.3056
  627MOL0     H84599   8.581  -0.412   3.517 -0.8545 -2.3098  2.1637
  627MOL0     H84600   8.620  -0.246   3.540 -1.0312  0.2855  0.0966
  627MOL0     H84601   8.373  -0.281   3.479  1.7962  0.3339 -0.8924
  627MOL0     H84602   8.373  -0.211   3.637 -2.5328 -0.8177 -0.9034
  627MOL0     H84603   8.340  -0.437   3.741 -0.7120  1.6158  0.1592
  627MOL0     H84604   8.389  -0.523   3.600 -1.1999 -0.8059 -2.0067
  627MOL0     H84605   8.198  -0.287   3.809 -0.0552  0.8076 -0.9442
  627MOL0     H84606   8.013  -0.018   3.851  6.9666  1.4733 -1.1599
  627MOL0     H84607   7.976  -0.135   3.991  0.1289 -3.3218 -1.1131
  627MOL0     H84608   8.138  -0.120   3.917  0.1007 -0.8128 -1.7434
  627MOL0     H84609   7.704  -0.038   4.111 -0.1366  1.8009  0.0941
  627MOL0     H84610   7.484   0.035   4.218 -0.7323 -2.5254  2.0499
  627MOL0     H84611   7.115  -0.078   4.012  1.7698 -2.1872 -0.1512
  627MOL0     H84612   7.099  -0.165   4.174 -0.9134  2.0578  2.4874
  627MOL0     H84613   7.034   0.009   4.292  0.3292 -0.2609  0.1876
  627MOL0     H84614   7.081   0.132   4.167  0.4915  0.4107 -2.2964
  627MOL0     H84615   6.910   0.008   4.004 -2.6242  1.4597 -0.4136
  627MOL0     H84616   6.838   0.104   4.137  0.7642  0.3576 -0.8782
  627MOL0     H84617   6.891  -0.196   4.102 -0.1811 -2.0085  2.1080
  627MOL0     H84618   6.821  -0.141   4.252  2.1994 -3.4707 -1.3708
  627MOL0     H84619   6.644  -0.220   4.093  1.4634 -0.5705  0.3212
  627MOL0     H84620   6.689  -0.089   3.979 -0.4232 -0.2975 -0.3406
  627MOL0     H84621   6.612  -0.032   4.260 -1.5904  2.2589  0.4145
  627MOL0     H84622   6.598   0.074   4.114 -0.2022  1.2318  3.3215
  627MOL0     H84623   6.418  -0.152   4.203  1.6438 -1.7547  0.6706
  627MOL0     H84624   6.446  -0.117   4.025  0.4731 -0.7440  0.6262
  627MOL0     H84625   6.248  -0.004   4.106  0.2647  1.4604 -1.2246
  627MOL0     H84626   6.371   0.108   4.040  1.0743 -2.1477 -2.0561
  627MOL0     H84627   7.276  -0.189   3.917 -1.3761 -0.3068  0.9048
  627MOL0     H84628   7.500  -0.251   3.817 -2.1680  1.6225 -1.8256
  627MOL0     H84629   7.758  -0.352   3.605  0.1320  0.2465 -0.5691
  627MOL0     H84630   7.964  -0.440   3.482  0.6764  1.5853  0.0984
  627MOL0     H84631   8.643   1.004   3.776 -1.8302  0.6626 -1.0463
  627MOL0     H84632   8.856   1.061   3.672  0.0538  0.3034 -0.8540
  627MOL0     H84633   9.180   1.122   3.389 -0.1418  3.2799  0.3266
  627MOL0     H84634   9.356   1.159   3.250  0.1366  3.0168  0.3666
  627MOL0     H84635   9.464   1.309   3.058 -4.0562 -0.4220  1.5121
  627MOL0     H84636   9.501   1.145   3.110 -2.7902  2.5535  2.1792
  627MOL0     H84637   9.682   1.233   2.960 -0.5433  1.5591  0.4443
  627MOL0     H84638   9.579   1.275   2.829  0.2976  0.5625  0.6182
  627MOL0     H84639   9.515   1.044   2.796  1.0117  1.8745 -1.4903
  627MOL0     H84640   9.621   0.982   2.914 -3.0038  2.7088  2.3289
  627MOL0     H84641   9.698   1.135   2.657 -0.1936 -0.4944 -0.0429
  627MOL0     H84642   9.707   0.958   2.678  0.6399 -0.2097  1.0545
  627MOL0     H84643  10.066   1.068   2.834  0.2370 -1.0243  0.2166
  627MOL0     H84644   9.118   1.118   2.909 -0.3961  0.4468  1.0055
  627MOL0     H84645   8.927   1.084   3.037 -0.8990 -0.6432  1.4455
  628MOL0     O84646  10.124   4.419   0.533  0.6004 -1.0059  0.9584
  628MOL0     C84647  10.226   4.403   0.602 -0.6557  0.3606 -0.8217
  628MOL0     O84648  10.228   4.393   0.738 -0.2581 -0.4076 -0.3231
  628MOL0     C84649  10.113   4.410   0.812 -0.6785 -0.7049 -0.0101
  628MOL0     C84650  10.004   4.496   0.791  0.4683  0.1316  0.7535
  628MOL0     C84651   9.888   4.509   0.855 -0.4973 -0.0128 -0.3914
  628MOL0     C84652   9.864   4.419   0.960  0.5230  0.4303  0.3028
  628MOL0     O84653   9.750   4.420   1.038 -0.6461 -0.3296  0.4488
  628MOL0     C84654   9.654   4.524   1.022 -0.4150 -0.3481 -1.0333
  628MOL0     C84655   9.539   4.486   1.120 -0.2894  0.5511  0.1574
  628MOL0     C84656   9.565   4.496   1.273 -0.4597 -0.5669  1.8219
  628MOL0     C84657   9.651   4.373   1.324 -0.1129 -0.0424  0.5862
  628MOL0     C84658   9.649   4.387   1.477 -0.2122  0.1994 -0.6968
  628MOL0     C84659   9.768   4.462   1.536 -0.1871 -0.4758 -0.5917
  628MOL0     C84660   9.788   4.438   1.683 -0.7095  0.2771 -0.0843
  628MOL0     C84661   9.893   4.536   1.747 -0.9695  0.3232  0.1626
  628MOL0     N84662   9.888   4.551   1.891  0.0775  0.0433  0.0505
  628MOL0     C84663   9.771   4.566   1.972  0.1391  0.8875  0.7673
  628MOL0     C84664   9.819   4.604   2.093  0.1775 -1.1384  0.2813
  628MOL0     C84665   9.744   4.639   2.212  0.3776 -0.8017 -0.8272
  628MOL0     C84666   9.605   4.578   2.217  0.0314  0.4097 -0.8929
  628MOL0     C84667   9.487   4.682   2.185  0.8647  0.0705  0.2327
  628MOL0     C84668   9.354   4.601   2.147  0.1158 -0.0331 -0.3490
  628MOL0     O84669   9.373   4.533   2.019  0.0913  0.7153 -0.6561
  628MOL0     C84670   9.266   4.462   1.966  0.4202  0.1502  0.0712
  628MOL0     C84671   9.137   4.447   2.027 -0.4605 -0.2086  0.7722
  628MOL0     C84672   9.036   4.375   1.957  0.0403 -0.4305 -0.2171
  628MOL0     C84673   8.900   4.366   2.014  0.4634 -0.1151  0.2543
  628MOL0     C84674   9.066   4.313   1.831  0.2766  0.4636  0.6955
  628MOL0     C84675   8.967   4.222   1.770  0.8505 -0.5361  1.3202
  628MOL0     O84676   8.985   4.098   1.805  0.0132  0.1227 -0.3927
  628MOL0     C84677   8.913   4.012   1.742  0.4086  0.4799 -0.1970
  628MOL0     C84678   8.797   3.967   1.803  0.4190 -0.0322 -0.4541
  628MOL0     C84679   8.720   3.869   1.743  1.0547  0.3261 -0.5829
  628MOL0     C84680   8.757   3.817   1.611 -0.5098 -0.3930 -0.7464
  628MOL0     O84681   8.675   3.737   1.544  0.0424  0.6761  0.3918
  628MOL0     C84682   8.734   3.636   1.456  0.1693 -0.4959  0.2908
  628MOL0     C84683   8.618   3.555   1.401 -0.1450  0.1317 -0.0137
  628MOL0     C84684   8.666   3.482   1.275 -0.5547 -0.4349 -0.7361
  628MOL0     C84685   8.596   3.348   1.252 -0.1809  0.3554  0.1149
  628MOL0     C84686   8.680   3.230   1.302 -0.1083  1.6394  0.0052
  628MOL0     C84687   8.794   3.197   1.198  0.6530  0.5020 -0.1724
  628MOL0     C84688   8.733   3.151   1.063  0.6647  0.5334 -0.2469
  628MOL0     C84689   8.799   3.026   1.006 -0.6061 -0.2668 -0.4348
  628MOL0    Cl84690   8.976   3.048   0.956  0.0406 -0.0576  0.3049
  628MOL0     C84691   8.872   3.860   1.556 -1.3995  0.7159  0.5694
  628MOL0     C84692   8.954   3.960   1.623 -0.1907  0.2765  0.4150
  628MOL0     O84693   8.887   4.262   1.685  0.9227  0.2064 -0.3135
  628MOL0     C84694   9.191   4.322   1.775  0.1583 -0.2606  0.1954
  628MOL0     C84695   9.291   4.392   1.846  0.6268  0.1487 -0.2387
  628MOL0     N84696   9.954   4.617   2.085  0.5310  0.4666  0.1174
  628MOL0     N84697   9.998   4.590   1.964 -0.8901 -0.2897 -0.3234
  628MOL0     C84698   9.973   4.331   0.995  0.2550  0.5113 -0.0395
  628MOL0     C84699  10.091   4.327   0.924  0.4891  0.2315  0.8107
  628MOL0     C84700  10.363   4.389   0.539  0.2138  0.7760  0.7658
  628MOL0     C84701  10.485   4.384   0.604  0.6562  0.6243  0.1357
  628MOL0     C84702  10.595   4.339   0.548 -0.6974  0.2848 -0.6064
  628MOL0     C84703  10.600   4.306   0.411 -0.2158  0.2057  0.1170
  628MOL0     O84704  10.722   4.261   0.364 -0.1677  0.4225  1.0733
  628MOL0     C84705  10.730   4.247   0.223  0.0780  0.6429 -0.2330
  628MOL0     C84706  10.873   4.200   0.181 -0.6820  1.0795 -0.6520
  628MOL0     C84707  10.876   4.049   0.194 -0.0653  0.2250 -0.0208
  628MOL0     C84708  11.016   3.998   0.219 -0.2047 -0.0535  0.5910
  628MOL0     C84709  11.123   4.010   0.115  0.6435  0.1502  0.0238
  628MOL0     C84710  11.188   4.046   0.024  0.0344 -0.3263  0.7038
  628MOL0     C84711  10.487   4.325   0.336  0.1428 -0.4376 -0.1539
  628MOL0     C84712  10.369   4.376   0.403 -0.9035 -0.1760 -0.2271
  628MOL0     H84713  10.002   4.575   0.717 -1.6339 -0.1385  0.4537
  628MOL0     H84714   9.827   4.594   0.828 -3.2508 -1.9319 -0.5501
  628MOL0     H84715   9.698   4.614   1.066 -1.3767 -0.8319  1.0508
  628MOL0     H84716   9.621   4.534   0.918 -2.3679  0.8974 -0.3377
  628MOL0     H84717   9.454   4.555   1.113  0.2207  1.0835 -0.8609
  628MOL0     H84718   9.508   4.386   1.090  1.8704  0.3960 -1.7968
  628MOL0     H84719   9.605   4.595   1.295 -2.8076  0.0532  3.7621
  628MOL0     H84720   9.464   4.504   1.314 -1.0622  1.8035  0.0594
  628MOL0     H84721   9.586   4.287   1.305 -0.0266 -0.1699  0.8629
  628MOL0     H84722   9.749   4.344   1.285 -0.1087 -0.1421  0.6708
  628MOL0     H84723   9.552   4.420   1.517 -1.1419 -0.8005 -2.0586
  628MOL0     H84724   9.653   4.283   1.508 -4.5286 -0.8747 -2.9710
  628MOL0     H84725   9.867   4.434   1.501  0.1607 -1.1813  0.8569
  628MOL0     H84726   9.762   4.570   1.527  0.2905 -0.4075 -0.1109
  628MOL0     H84727   9.688   4.451   1.726 -0.0382 -2.2883  2.5405
  628MOL0     H84728   9.818   4.337   1.712  0.9961  1.0244  0.9198
  628MOL0     H84729   9.878   4.626   1.687 -1.7377  0.5521  0.6820
  628MOL0     H84730   9.994   4.502   1.723 -0.3721  2.2458 -0.2289
  628MOL0     H84731   9.667   4.554   1.944  0.2859  0.5954  0.3329
  628MOL0     H84732   9.801   4.601   2.297  1.1947 -1.2529 -1.5605
  628MOL0     H84733   9.743   4.747   2.230  1.9865 -0.9729  0.5002
  628MOL0     H84734   9.592   4.550   2.322  1.4720 -2.4989 -1.3787
  628MOL0     H84735   9.606   4.493   2.148 -2.4896  0.2319 -0.8080
  628MOL0     H84736   9.514   4.741   2.098 -2.4004 -0.0247 -0.9962
  628MOL0     H84737   9.474   4.747   2.272  2.3532  0.1596  0.4045
  628MOL0     H84738   9.280   4.681   2.140  1.0436  0.8027 -0.8994
  628MOL0     H84739   9.318   4.531   2.223 -2.1312  0.7116 -0.6503
  628MOL0     H84740   9.112   4.484   2.126 -3.8374  2.3175 -0.7967
  628MOL0     H84741   8.879   4.451   2.080 -2.7262 -0.4469 -0.1821
  628MOL0     H84742   8.820   4.368   1.940  0.2396  2.2431  0.5073
  628MOL0     H84743   8.882   4.270   2.064 -2.7272  0.3133  0.1531
  628MOL0     H84744   8.779   4.016   1.898  0.5777 -1.0227  0.1027
  628MOL0     H84745   8.625   3.841   1.787 -0.6188  1.2448 -3.3802
  628MOL0     H84746   8.787   3.679   1.371  0.1460 -0.9954  0.0220
  628MOL0     H84747   8.802   3.578   1.519  1.0294  1.0253  0.8158
  628MOL0     H84748   8.573   3.479   1.466 -0.2599 -0.9975 -1.3611
  628MOL0     H84749   8.539   3.624   1.369  1.6620  1.6784 -1.3415
  628MOL0     H84750   8.774   3.466   1.270 -0.7194 -1.3833 -1.4772
  628MOL0     H84751   8.648   3.551   1.192 -1.5455  0.5450  0.2569
  628MOL0     H84752   8.504   3.335   1.310 -0.4801 -1.2751 -0.6668
  628MOL0     H84753   8.566   3.327   1.149 -0.6547 -3.5783  0.8852
  628MOL0     H84754   8.611   3.146   1.316  1.8126 -0.2883 -1.3866
  628MOL0     H84755   8.737   3.253   1.393  3.1985 -2.0337 -0.8546
  628MOL0     H84756   8.862   3.281   1.181  3.2576 -1.3373  0.5206
  628MOL0     H84757   8.858   3.122   1.245  0.7418  1.0125  0.5397
  628MOL0     H84758   8.738   3.227   0.985  0.3157  2.4858  1.5284
  628MOL0     H84759   8.625   3.131   1.071  0.8208  0.0279  0.8697
  628MOL0     H84760   8.741   2.981   0.925 -2.2091 -5.3285  3.0071
  628MOL0     H84761   8.801   2.949   1.084 -1.7611 -0.5851 -0.6934
  628MOL0     H84762   8.897   3.840   1.452 -1.2941  0.9953  0.5402
  628MOL0     H84763   9.041   4.002   1.573 -1.1710 -1.9059 -3.6063
  628MOL0     H84764   9.210   4.259   1.689 -1.3392  0.5101 -0.7342
  628MOL0     H84765   9.395   4.403   1.819  0.9413  3.1259  1.6123
  628MOL0     H84766   9.957   4.271   1.083 -1.2867  0.7409 -0.1418
  628MOL0     H84767  10.166   4.253   0.946 -0.5214 -0.9853  0.2879
  628MOL0     H84768  10.489   4.381   0.713  0.3259 -0.9525  0.1276
  628MOL0     H84769  10.686   4.321   0.604  0.1822 -1.1195 -2.3803
  628MOL0     H84770  10.649   4.182   0.186 -0.1775  0.4311  0.6635
  628MOL0     H84771  10.710   4.345   0.180  0.5464  0.3021 -1.2531
  628MOL0     H84772  10.954   4.251   0.233  0.8214 -1.2372 -0.5741
  628MOL0     H84773  10.892   4.211   0.074 -0.2642 -0.7906 -0.8027
  628MOL0     H84774  10.832   3.997   0.109 -0.5544 -1.4759  1.2149
  628MOL0     H84775  10.804   4.032   0.274 -0.2165 -1.0072 -0.4026
  628MOL0     H84776  11.016   3.891   0.243  1.4489 -0.7088 -1.9351
  628MOL0     H84777  11.061   4.052   0.303 -3.0642  1.2628  1.3774
  628MOL0     H84778  11.254   4.074  -0.056 -2.5258 -2.1596 -2.2834
  628MOL0     H84779  10.471   4.299   0.231 -1.9577  0.3874 -0.0719
  628MOL0     H84780  10.273   4.375   0.351 -1.9235 -3.0715  1.5172
  629MOL0     O84781   8.533   8.206   9.594  0.5341  0.4280  0.1439
  629MOL0     C84782   8.446   8.122   9.619  0.5606  0.0293 -0.6808
  629MOL0     O84783   8.387   8.040   9.532  0.7939 -0.6885  0.1761
  629MOL0     C84784   8.436   8.056   9.404 -0.5104 -0.2638  0.0605
  629MOL0     C84785   8.379   8.156   9.328 -0.3606  0.3133 -0.8862
  629MOL0     C84786   8.405   8.177   9.190  0.0358  0.1415  0.5301
  629MOL0     C84787   8.501   8.102   9.124 -0.3834  0.3614 -0.7455
  629MOL0     O84788   8.524   8.102   8.987  0.0767 -0.5118  0.1049
  629MOL0     C84789   8.478   8.211   8.908 -0.1323  0.1851  0.6229
  629MOL0     C84790   8.503   8.173   8.754 -0.2438 -0.1334 -0.5368
  629MOL0     C84791   8.646   8.145   8.714  0.9467 -0.4378 -0.9726
  629MOL0     C84792   8.655   8.102   8.571  0.4754  0.1349 -0.3974
  629MOL0     C84793   8.787   8.056   8.519 -0.8324  0.0391  0.2472
  629MOL0     C84794   8.809   8.088   8.367  0.6398 -1.0193 -0.4910
  629MOL0     C84795   8.954   8.058   8.318 -0.0237  0.8745  0.3292
  629MOL0     C84796   8.994   8.093   8.173 -1.1831 -0.6758  0.6985
  629MOL0     N84797   8.912   8.043   8.058 -0.5301  0.6060  0.1345
  629MOL0     C84798   8.794   8.096   8.014  0.3491  0.8327  0.2511
  629MOL0     C84799   8.744   8.016   7.922 -0.1307 -0.4330  0.1120
  629MOL0     C84800   8.622   8.030   7.827 -0.5561 -0.6948  0.8404
  629MOL0     C84801   8.496   7.998   7.908  0.7676 -0.2819  0.7869
  629MOL0     C84802   8.365   8.043   7.840  0.4472  0.0494  0.6664
  629MOL0     C84803   8.324   7.964   7.721  0.0968  0.4340  0.0445
  629MOL0     O84804   8.202   8.023   7.679 -0.1812 -0.0466  0.1587
  629MOL0     C84805   8.158   8.006   7.554 -0.2959 -0.0308  0.4210
  629MOL0     C84806   8.175   7.885   7.490 -0.5681  0.2662  0.0505
  629MOL0     C84807   8.128   7.859   7.354 -1.0640 -0.8314  0.2689
  629MOL0     C84808   8.150   7.718   7.305  0.9327  1.4421 -0.0255
  629MOL0     C84809   8.080   7.971   7.286  0.2558 -0.4890 -0.5747
  629MOL0     C84810   8.025   7.965   7.139  0.0929 -0.2615  0.0434
  629MOL0     O84811   7.974   8.085   7.095 -0.1529  0.8957 -0.2438
  629MOL0     C84812   7.914   8.078   6.976  0.2446  0.5435  0.3664
  629MOL0     C84813   8.000   8.119   6.875  0.3471  0.4981  0.0227
  629MOL0     C84814   7.955   8.107   6.740 -0.2602 -0.1500  0.4044
  629MOL0     C84815   7.814   8.077   6.709 -0.5673 -0.2069 -0.1691
  629MOL0     O84816   7.785   8.064   6.577 -0.1656 -0.0212  0.0718
  629MOL0     C84817   7.648   8.072   6.539 -0.3138  0.4626 -1.1000
  629MOL0     C84818   7.659   8.040   6.387  0.2869 -0.2454  0.1882
  629MOL0     C84819   7.524   8.060   6.308 -0.5097  0.8408 -0.1942
  629MOL0     C84820   7.462   7.919   6.272  0.4774  0.0416  0.8724
  629MOL0     C84821   7.332   7.910   6.189  0.4205 -0.2684  0.0248
  629MOL0     C84822   7.364   7.953   6.041 -0.1276  0.5844 -0.5620
  629MOL0     C84823   7.247   7.915   5.957 -0.0909  0.5770 -0.3297
  629MOL0     C84824   7.268   7.976   5.821  0.8290 -0.8451 -0.2589
  629MOL0    Cl84825   7.433   7.931   5.741 -0.0447 -0.1937  0.1868
  629MOL0     C84826   7.724   8.045   6.809  0.3354 -1.2878 -0.4544
  629MOL0     C84827   7.774   8.054   6.946  0.1718  0.1966  0.6649
  629MOL0     O84828   8.010   7.856   7.083  0.0576 -0.6595 -0.2889
  629MOL0     C84829   8.074   8.097   7.348 -0.2595 -0.6074  0.4673
  629MOL0     C84830   8.107   8.114   7.482  0.0337  0.0098  0.7634
  629MOL0     N84831   8.844   7.923   7.897  0.0260  0.1996 -0.2352
  629MOL0     N84832   8.943   7.934   7.982 -0.1991 -0.3027 -0.5409
  629MOL0     C84833   8.563   7.993   9.200  0.0133 -1.0176 -0.4761
  629MOL0     C84834   8.517   7.971   9.333 -0.1722  0.5958 -0.7592
  629MOL0     C84835   8.405   8.107   9.771  0.6200  0.3838 -0.7644
  629MOL0     C84836   8.314   8.004   9.807  0.0173 -0.4955  0.4992
  629MOL0     C84837   8.290   7.976   9.940 -0.1284  0.7416 -0.6616
  629MOL0     C84838   8.350   8.051  10.038 -0.0870  0.1312 -0.0096
  629MOL0     O84839   8.322   8.018  10.172  0.0809 -0.0732 -0.1293
  629MOL0     C84840   8.257   7.891  10.210  0.9774  0.4135 -0.2489
  629MOL0     C84841   8.265   7.872  10.363 -0.0998  0.1032  0.1774
  629MOL0     C84842   8.149   7.773  10.416  0.1715  0.5526 -0.3656
  629MOL0     C84843   8.123   7.786  10.567  0.6419  0.1113  0.5111
  629MOL0     C84844   8.025   7.679  10.597 -0.0312  0.7098 -0.2666
  629MOL0     C84845   7.933   7.603  10.621 -0.0768 -0.2828  0.1395
  629MOL0     C84846   8.439   8.150  10.005 -0.2692 -1.1113 -0.4166
  629MOL0     C84847   8.456   8.181   9.873  1.1941  0.8873  0.3273
  629MOL0     H84848   8.305   8.222   9.372 -0.4402 -2.4343  3.6838
  629MOL0     H84849   8.345   8.251   9.139 -1.0920 -0.3052  1.1792
  629MOL0     H84850   8.371   8.232   8.917 -0.7044 -0.9481 -2.3490
  629MOL0     H84851   8.541   8.297   8.932  0.2857  0.9191 -2.5846
  629MOL0     H84852   8.448   8.084   8.725  1.2339 -2.0262  2.0441
  629MOL0     H84853   8.462   8.251   8.689  0.7741  0.6224 -0.2893
  629MOL0     H84854   8.716   8.226   8.733 -2.2780  2.7471 -1.5615
  629MOL0     H84855   8.676   8.059   8.775 -1.0214 -0.5432 -0.0651
  629MOL0     H84856   8.575   8.034   8.539  0.6970 -0.2331 -0.1721
  629MOL0     H84857   8.624   8.189   8.512  0.6121  0.5446  0.1273
  629MOL0     H84858   8.869   8.102   8.576 -1.1130 -0.3841  1.0102
  629MOL0     H84859   8.798   7.948   8.528 -1.2809  0.0108  0.4780
  629MOL0     H84860   8.731   8.040   8.306 -0.4863  0.0440  0.0704
  629MOL0     H84861   8.804   8.197   8.379 -2.8403 -1.1660  0.3128
  629MOL0     H84862   9.024   8.094   8.395  0.9140 -0.5239  0.1650
  629MOL0     H84863   8.962   7.949   8.321 -0.7220  0.8395  1.5119
  629MOL0     H84864   9.096   8.057   8.160  0.0441  1.5454  3.2789
  629MOL0     H84865   9.003   8.202   8.175 -0.5300 -0.7344  1.3672
  629MOL0     H84866   8.747   8.187   8.049 -3.3619 -1.7488  2.7073
  629MOL0     H84867   8.614   8.135   7.796 -1.2960 -1.0874 -0.3870
  629MOL0     H84868   8.628   7.966   7.738 -1.2448 -1.0543  1.0462
  629MOL0     H84869   8.506   8.066   7.994 -2.7608  2.7381 -0.8628
  629MOL0     H84870   8.486   7.892   7.934 -1.0804 -0.2103  0.5217
  629MOL0     H84871   8.379   8.147   7.810  2.2150 -0.4446 -0.4006
  629MOL0     H84872   8.281   8.032   7.908  2.9527 -0.8770  3.8678
  629MOL0     H84873   8.313   7.858   7.749  1.0396  0.7968  1.9679
  629MOL0     H84874   8.396   7.967   7.638 -0.5886 -0.2329 -0.5899
  629MOL0     H84875   8.217   7.803   7.549  1.9496  1.9713  0.8063
  629MOL0     H84876   8.190   7.716   7.203 -0.7345  1.0508 -0.7157
  629MOL0     H84877   8.207   7.660   7.378 -0.0115 -0.3124 -0.6285
  629MOL0     H84878   8.050   7.674   7.299  1.0403  1.3364 -4.0847
  629MOL0     H84879   8.101   8.153   6.892  0.9079 -0.0878 -1.8331
  629MOL0     H84880   8.029   8.131   6.665 -0.0512 -0.5795  0.4731
  629MOL0     H84881   7.580   7.999   6.584  2.5688 -1.3751  0.5260
  629MOL0     H84882   7.607   8.171   6.562  1.1028  1.4098 -2.4556
  629MOL0     H84883   7.720   8.117   6.340 -1.7765  1.4111  0.0920
  629MOL0     H84884   7.701   7.940   6.372  0.0495 -0.5876  1.6375
  629MOL0     H84885   7.538   8.121   6.218 -2.8934  2.8464  0.6707
  629MOL0     H84886   7.456   8.124   6.366  0.0293  2.2173 -1.0353
  629MOL0     H84887   7.530   7.861   6.209 -2.1585  0.0029 -2.1459
  629MOL0     H84888   7.436   7.874   6.369 -2.1878 -1.0364 -0.2576
  629MOL0     H84889   7.254   7.972   6.235  1.6824  0.0826  1.8124
  629MOL0     H84890   7.299   7.806   6.186  0.2427 -0.2534  1.0356
  629MOL0     H84891   7.380   8.061   6.040 -0.1438  0.5870 -0.6289
  629MOL0     H84892   7.462   7.910   6.017 -1.0887 -0.5073 -2.9088
  629MOL0     H84893   7.153   7.932   6.011 -1.2429 -1.2121 -1.6335
  629MOL0     H84894   7.243   7.809   5.930 -2.5015  0.9767 -1.8546
  629MOL0     H84895   7.268   8.085   5.831  4.1913 -0.7904  0.3936
  629MOL0     H84896   7.195   7.946   5.746  1.9479  2.1292 -2.7619
  629MOL0     H84897   7.621   8.013   6.795 -0.8085  1.1186  1.5341
  629MOL0     H84898   7.702   8.035   7.025  1.1091 -2.1809  1.0266
  629MOL0     H84899   8.032   8.179   7.290  0.4388  1.3153  2.5377
  629MOL0     H84900   8.103   8.214   7.522  2.3863  0.6105 -0.3497
  629MOL0     H84901   8.626   7.921   9.148  0.7731  0.6093 -1.9351
  629MOL0     H84902   8.561   7.887   9.386 -0.6759  0.7804 -0.0248
  629MOL0     H84903   8.265   7.948   9.728  1.6673 -1.1573 -0.1217
  629MOL0     H84904   8.242   7.882   9.963  0.0943  0.3186 -1.8695
  629MOL0     H84905   8.155   7.888  10.169  0.6459  3.0287  0.1570
  629MOL0     H84906   8.308   7.804  10.168 -1.6408 -1.5217  0.3182
  629MOL0     H84907   8.252   7.964  10.421  0.2637  0.7188 -0.6943
  629MOL0     H84908   8.362   7.827  10.386 -0.3375  0.4169  1.9383
  629MOL0     H84909   8.183   7.672  10.395 -2.0890 -0.1987 -0.7123
  629MOL0     H84910   8.052   7.797  10.371 -0.3284 -2.8858 -1.4100
  629MOL0     H84911   8.075   7.876  10.605 -2.5082 -1.2868  0.1997
  629MOL0     H84912   8.216   7.762  10.620 -0.0763  1.3124  2.4340
  629MOL0     H84913   7.847   7.541  10.639 -0.4760 -0.3291 -1.7646
  629MOL0     H84914   8.486   8.204  10.087 -0.5329 -3.0928  1.1198
  629MOL0     H84915   8.517   8.268   9.849  3.2308  0.3895  3.1460
  630MOL0     O84916   4.089   8.108   7.270  0.5151 -0.4856 -0.2280
  630MOL0     C84917   4.110   8.113   7.389 -0.4806 -0.0955  0.1747
  630MOL0     O84918   4.025   8.083   7.489 -0.3994  0.1520 -0.1818
  630MOL0     C84919   3.894   8.052   7.456 -0.8691  0.4500  0.5142
  630MOL0     C84920   3.791   8.113   7.524  0.8127  0.5243 -0.9562
  630MOL0     C84921   3.661   8.063   7.502 -0.3952 -0.1467 -0.2806
  630MOL0     C84922   3.638   7.955   7.415  1.1913 -0.2801  0.1074
  630MOL0     O84923   3.517   7.897   7.393 -0.2180 -0.5314 -0.4288
  630MOL0     C84924   3.395   7.966   7.428  0.3347  0.5096  0.0999
  630MOL0     C84925   3.282   7.871   7.383 -0.4535 -0.3355 -0.0738
  630MOL0     C84926   3.140   7.940   7.396  0.0644  0.0482 -0.1095
  630MOL0     C84927   3.024   7.870   7.329 -0.1367 -0.7399 -0.1753
  630MOL0     C84928   2.896   7.939   7.372 -0.5497 -1.4269  0.6785
  630MOL0     C84929   2.877   8.077   7.301 -0.5234  1.0296  0.1893
  630MOL0     C84930   2.734   8.115   7.258 -0.3513  0.3749  1.1913
  630MOL0     C84931   2.624   8.112   7.369 -0.2579 -0.0134 -0.5650
  630MOL0     N84932   2.495   8.153   7.312  0.5941  0.0406  0.0247
  630MOL0     C84933   2.405   8.065   7.245 -0.1207 -0.2868 -0.0404
  630MOL0     C84934   2.299   8.149   7.226  0.4172  0.3957 -0.0152
  630MOL0     C84935   2.168   8.088   7.184  0.3730  0.2369 -0.1177
  630MOL0     C84936   2.049   8.194   7.204  1.0249 -0.3873  0.7184
  630MOL0     C84937   2.004   8.209   7.358 -0.7910  0.0332  0.5626
  630MOL0     C84938   1.882   8.292   7.383  0.3118  0.2656  0.5241
  630MOL0     O84939   1.785   8.223   7.312  0.7023  0.7914  0.3688
  630MOL0     C84940   1.650   8.253   7.324  0.0703  0.0147  0.2678
  630MOL0     C84941   1.599   8.356   7.404 -0.4599 -0.7025  0.7696
  630MOL0     C84942   1.469   8.388   7.409 -0.0209  0.2295 -0.3021
  630MOL0     C84943   1.450   8.498   7.512  0.1326  0.7382 -0.1926
  630MOL0     C84944   1.367   8.331   7.329 -0.0234  0.8409 -0.5556
  630MOL0     C84945   1.226   8.372   7.332 -0.0073 -0.3326 -0.1542
  630MOL0     O84946   1.174   8.453   7.433 -0.0785 -0.3160  0.5648
  630MOL0     C84947   1.043   8.467   7.465 -1.6258  0.6349  0.1992
  630MOL0     C84948   0.950   8.369   7.451 -0.0585 -0.3989  0.4539
  630MOL0     C84949   0.813   8.384   7.497 -0.2523 -1.0620 -0.4840
  630MOL0     C84950   0.769   8.514   7.539 -0.0126 -0.1141 -0.3807
  630MOL0     O84951   0.638   8.551   7.562 -0.0556 -0.2118  0.0663
  630MOL0     C84952   0.531   8.464   7.607  0.8266  0.1066  0.1355
  630MOL0     C84953   0.397   8.535   7.640  0.5797  0.4857 -0.0929
  630MOL0     C84954   0.396   8.604   7.771  0.9038 -0.9830  0.4041
  630MOL0     C84955   0.274   8.701   7.766  0.1893  0.4691  0.8590
  630MOL0     C84956   0.273   8.823   7.857  1.2351 -0.1301 -0.8478
  630MOL0     C84957   0.400   8.905   7.838 -0.2882  0.1842 -0.6710
  630MOL0     C84958   0.402   9.027   7.930  0.1983  0.1589  0.3833
  630MOL0     C84959   0.279   9.116   7.921 -0.2122  0.2283 -0.4042
  630MOL0    Cl84960   0.224   9.138   7.758 -0.1645 -0.3652  0.1547
  630MOL0     C84961   0.867   8.612   7.567  0.2302  0.9767 -0.4511
  630MOL0     C84962   1.006   8.579   7.542  0.4844  0.4198  0.4223
  630MOL0     O84963   1.154   8.329   7.248 -0.4483 -0.1234  0.1413
  630MOL0     C84964   1.416   8.225   7.250  0.5741  0.1330  0.0605
  630MOL0     C84965   1.554   8.194   7.241  0.5464  0.2255 -0.5944
  630MOL0     N84966   2.328   8.282   7.267  0.1129  0.2858  0.3884
  630MOL0     N84967   2.443   8.273   7.325  0.8033  0.6244  0.5582
  630MOL0     C84968   3.741   7.894   7.347 -0.3789 -0.8093 -0.0791
  630MOL0     C84969   3.870   7.948   7.365  0.1434  0.5741 -0.2315
  630MOL0     C84970   4.241   8.165   7.435  0.1574  0.3500 -0.9087
  630MOL0     C84971   4.319   8.245   7.353 -0.1494  0.9712  0.3759
  630MOL0     C84972   4.440   8.306   7.399 -0.1284  0.3431  0.4302
  630MOL0     C84973   4.482   8.293   7.532  0.4731 -0.2652  0.2676
  630MOL0     O84974   4.591   8.355   7.592  0.8821  0.5429 -0.3667
  630MOL0     C84975   4.653   8.455   7.518 -1.5742  0.0129 -0.1908
  630MOL0     C84976   4.743   8.532   7.616 -1.0836 -0.1148  0.3839
  630MOL0     C84977   4.831   8.450   7.702 -0.9386  0.0964 -0.1656
  630MOL0     C84978   4.865   8.523   7.834  0.4418  0.0147  0.6123
  630MOL0     C84979   4.917   8.422   7.931 -0.1828  0.6536 -0.1611
  630MOL0     C84980   4.961   8.344   8.012 -0.1237 -0.2138  0.0090
  630MOL0     C84981   4.397   8.228   7.621 -0.0712  0.8372 -0.3425
  630MOL0     C84982   4.280   8.158   7.568 -0.0749 -0.2178  0.1184
  630MOL0     H84983   3.804   8.195   7.594 -0.2039  1.4186 -1.7727
  630MOL0     H84984   3.587   8.101   7.571  0.9489 -0.5059  1.4399
  630MOL0     H84985   3.398   7.982   7.536  1.1618 -0.6132  0.2584
  630MOL0     H84986   3.383   8.054   7.364 -2.6453 -1.5446 -2.5047
  630MOL0     H84987   3.311   7.837   7.283 -0.1078 -1.9187  0.5408
  630MOL0     H84988   3.296   7.783   7.447 -1.2502  0.3238  1.0473
  630MOL0     H84989   3.119   7.932   7.503 -1.0603 -3.3298 -0.4466
  630MOL0     H84990   3.155   8.042   7.361 -0.1107  0.0441 -0.1981
  630MOL0     H84991   3.045   7.872   7.221  1.0779  1.9705  0.0406
  630MOL0     H84992   3.018   7.765   7.361 -1.1787 -0.7451 -0.3609
  630MOL0     H84993   2.811   7.878   7.341  0.0562 -1.8126 -0.2806
  630MOL0     H84994   2.898   7.947   7.481  0.8287  1.5319  0.5335
  630MOL0     H84995   2.908   8.158   7.369 -3.8740  0.7277  2.3632
  630MOL0     H84996   2.943   8.068   7.215  1.1237  1.3283  1.3777
  630MOL0     H84997   2.752   8.219   7.229 -1.1202  0.4389  0.9362
  630MOL0     H84998   2.713   8.050   7.172  2.5842 -2.7544  2.6156
  630MOL0     H84999   2.650   8.175   7.455 -0.6754 -1.2306  0.4839
  630MOL0     H85000   2.607   8.009   7.402 -0.5797  0.0948 -0.3904
  630MOL0     H85001   2.428   7.960   7.228 -0.1144 -0.5887  1.6749
  630MOL0     H85002   2.186   8.059   7.079  3.6420  2.3950 -0.2780
  630MOL0     H85003   2.152   8.002   7.249  2.3772 -0.7203 -0.8062
  630MOL0     H85004   1.968   8.156   7.140  1.9245 -2.1272  0.5504
  630MOL0     H85005   2.076   8.290   7.160 -1.3654 -1.4010 -3.4952
  630MOL0     H85006   2.083   8.265   7.409  0.6464  2.7405 -4.0999
  630MOL0     H85007   1.985   8.112   7.406  1.7672 -1.2111 -0.7512
  630MOL0     H85008   1.880   8.396   7.350  1.4479  1.7950  4.5908
  630MOL0     H85009   1.861   8.293   7.491  2.0308  1.2757  0.8874
  630MOL0     H85010   1.671   8.416   7.458  0.0503  1.2203 -1.8752
  630MOL0     H85011   1.387   8.582   7.480 -1.2809  1.6473  4.2430
  630MOL0     H85012   1.401   8.445   7.594  1.9922  1.5670  1.5163
  630MOL0     H85013   1.544   8.536   7.553  1.4393 -1.3433 -1.0971
  630MOL0     H85014   0.984   8.282   7.397  2.2842  1.3009 -0.9980
  630MOL0     H85015   0.734   8.311   7.486 -1.8248 -0.3067  3.7533
  630MOL0     H85016   0.514   8.389   7.530  0.6890  1.5948 -1.3227
  630MOL0     H85017   0.573   8.416   7.696 -1.0835 -0.6599  0.6857
  630MOL0     H85018   0.357   8.596   7.558 -1.0086  0.4312  0.6008
  630MOL0     H85019   0.327   8.450   7.640  3.1759 -1.8199 -1.6132
  630MOL0     H85020   0.489   8.660   7.783 -1.2210  3.1627 -0.6524
  630MOL0     H85021   0.378   8.539   7.857  1.2269 -2.6347 -0.7283
  630MOL0     H85022   0.263   8.746   7.666 -1.1575  0.1346  0.8264
  630MOL0     H85023   0.179   8.647   7.771 -1.1237  2.6311  0.4721
  630MOL0     H85024   0.281   8.798   7.963  0.3373  1.5542 -0.3399
  630MOL0     H85025   0.182   8.872   7.822  0.9991 -1.6508 -2.5511
  630MOL0     H85026   0.490   8.848   7.863 -0.0863  0.9898  0.5427
  630MOL0     H85027   0.413   8.928   7.732  2.2147  1.5560 -0.1483
  630MOL0     H85028   0.492   9.084   7.904 -0.6286  0.8944 -1.0021
  630MOL0     H85029   0.421   8.988   8.031 -0.1289 -1.3296 -0.0930
  630MOL0     H85030   0.289   9.216   7.966 -1.6657 -0.1743  0.9077
  630MOL0     H85031   0.194   9.058   7.958 -0.1648  0.0184 -0.6198
  630MOL0     H85032   0.841   8.711   7.604  1.7835  0.7758  1.3600
  630MOL0     H85033   1.085   8.647   7.573  1.6345  0.0846 -1.5897
  630MOL0     H85034   1.347   8.163   7.193 -0.2777  0.3805  0.7999
  630MOL0     H85035   1.584   8.106   7.185 -3.3049  0.0222 -2.6776
  630MOL0     H85036   3.719   7.809   7.283 -0.8279 -0.5797 -0.2373
  630MOL0     H85037   3.957   7.908   7.314 -0.1952  0.6885 -0.9066
  630MOL0     H85038   4.288   8.261   7.250  2.2828 -0.3459 -0.6470
  630MOL0     H85039   4.482   8.377   7.329 -4.5802 -0.5454 -3.6762
  630MOL0     H85040   4.713   8.406   7.441 -2.6045 -0.3726 -0.7753
  630MOL0     H85041   4.596   8.533   7.467 -0.8504  0.3184 -0.5421
  630MOL0     H85042   4.679   8.583   7.689  0.3204  0.2342  1.4006
  630MOL0     H85043   4.794   8.612   7.563 -1.8282 -0.6682 -1.2554
  630MOL0     H85044   4.928   8.426   7.658 -0.4967  0.7829  0.3967
  630MOL0     H85045   4.776   8.361   7.735 -0.2100  0.1586  1.3308
  630MOL0     H85046   4.780   8.577   7.878  0.6227  0.2780  0.6411
  630MOL0     H85047   4.939   8.602   7.823  1.1760 -0.2742  3.0543
  630MOL0     H85048   4.995   8.280   8.091  2.6586  1.2555  0.1286
  630MOL0     H85049   4.427   8.233   7.726 -1.6192 -0.1124  0.1757
  630MOL0     H85050   4.215   8.121   7.647 -0.3990  2.5545  1.2591
  631MOL0     O85051   0.380   8.104  10.549 -0.0569  0.2244 -0.5046
  631MOL0     C85052   0.445   8.010  10.497 -0.5002 -0.1632 -0.1367
  631MOL0     O85053   0.384   7.894  10.444  0.0955  0.0766 -0.4686
  631MOL0     C85054   0.247   7.894  10.454 -0.1870  0.4817  0.1941
  631MOL0     C85055   0.169   7.944  10.348  0.9316  0.5390 -0.1857
  631MOL0     C85056   0.020   7.947  10.356 -0.9918  0.8500  0.0475
  631MOL0     C85057  -0.037   7.907  10.480 -0.3345  0.2628 -0.0091
  631MOL0     O85058  -0.166   7.879  10.499  0.2201  0.3526 -1.1444
  631MOL0     C85059  -0.263   7.910  10.404  0.3985 -0.0222  0.3800
  631MOL0     C85060  -0.397   7.901  10.478  0.4746 -0.1484 -1.1413
  631MOL0     C85061  -0.442   8.030  10.548  0.1598 -0.2136 -0.4575
  631MOL0     C85062  -0.574   8.015  10.618 -0.3233  0.6082  0.3737
  631MOL0     C85063  -0.706   8.032  10.543  0.1301 -0.3917  0.6764
  631MOL0     C85064  -0.834   8.025  10.622  0.0496 -0.4801  0.8568
  631MOL0     C85065  -0.843   8.137  10.718 -0.1985 -1.3518 -0.2614
  631MOL0     C85066  -0.978   8.134  10.788 -0.5318 -0.1559 -0.0366
  631MOL0     N85067  -0.985   8.241  10.884 -0.5648  0.2873  0.0946
  631MOL0     C85068  -0.911   8.244  11.000 -0.4804 -0.4216 -0.0746
  631MOL0     C85069  -0.951   8.358  11.060  0.1916  0.8018 -0.2571
  631MOL0     C85070  -0.917   8.395  11.201 -0.0757 -0.9154  0.6918
  631MOL0     C85071  -1.019   8.502  11.262 -0.7889  0.3756  1.0812
  631MOL0     C85072  -1.152   8.422  11.296  0.2222 -0.1339 -1.4717
  631MOL0     C85073  -1.243   8.521  11.370  0.5260 -0.1508  0.5588
  631MOL0     O85074  -1.382   8.476  11.384  0.2420 -0.0882 -0.6371
  631MOL0     C85075  -1.461   8.540  11.481  0.2671  0.4799  0.4592
  631MOL0     C85076  -1.417   8.648  11.559 -0.5548 -0.0145  1.2420
  631MOL0     C85077  -1.503   8.733  11.628  0.5195 -0.4173 -0.7789
  631MOL0     C85078  -1.440   8.860  11.694 -0.1576 -0.0464  0.2420
  631MOL0     C85079  -1.638   8.689  11.636  0.4222  1.0990  0.1392
  631MOL0     C85080  -1.748   8.759  11.717 -0.0504  0.5833  0.6985
  631MOL0     O85081  -1.880   8.731  11.685  0.3458 -0.5150 -0.1597
  631MOL0     C85082  -1.970   8.789  11.768  0.6113 -0.6412 -0.2537
  631MOL0     C85083  -2.071   8.859  11.718  0.3146  0.2475 -0.1859
  631MOL0     C85084  -2.165   8.920  11.805  1.3601 -0.7914  0.5564
  631MOL0     C85085  -2.163   8.899  11.946  0.9379 -0.1136 -0.0943
  631MOL0     O85086  -2.269   8.945  12.018  0.3410  0.3891 -0.3105
  631MOL0     C85087  -2.250   8.948  12.160 -0.2026 -0.0430  0.1349
  631MOL0     C85088  -2.355   9.034  12.212 -0.3651  0.2490 -0.2550
  631MOL0     C85089  -2.495   8.970  12.188  0.0575  0.3215  0.3018
  631MOL0     C85090  -2.609   9.075  12.212  0.2115  0.6435  0.5089
  631MOL0     C85091  -2.618   9.104  12.359  0.2816  0.1867 -0.0083
  631MOL0     C85092  -2.748   9.179  12.369 -0.7071 -0.0326  0.5723
  631MOL0     C85093  -2.755   9.242  12.508 -0.0584  0.3359  0.3534
  631MOL0     C85094  -2.893   9.305  12.516  0.1981  0.1611 -0.3568
  631MOL0    Cl85095  -3.025   9.189  12.520 -0.1100 -0.6833  0.0486
  631MOL0     C85096  -2.060   8.820  11.991  0.4129  0.2977 -0.3673
  631MOL0     C85097  -1.968   8.763  11.904  0.0035  0.0876  0.5479
  631MOL0     O85098  -1.711   8.847  11.793  0.0545 -0.0412 -0.0010
  631MOL0     C85099  -1.684   8.578  11.557 -0.2931 -0.1113 -0.1943
  631MOL0     C85100  -1.595   8.510  11.479  0.1465 -0.2890 -0.6405
  631MOL0     N85101  -1.047   8.423  10.976 -0.4673  0.3924  0.3903
  631MOL0     N85102  -1.064   8.352  10.875 -0.0120 -0.6384 -0.1128
  631MOL0     C85103   0.045   7.873  10.591 -0.0237 -0.1990  0.2143
  631MOL0     C85104   0.181   7.861  10.572 -0.3755 -0.1396  0.4153
  631MOL0     C85105   0.591   8.018  10.499  0.7262 -0.4082 -0.1614
  631MOL0     C85106   0.657   8.138  10.535  0.2513  1.1014 -0.8947
  631MOL0     C85107   0.795   8.144  10.527  0.5693  0.1744 -0.2641
  631MOL0     C85108   0.870   8.025  10.494  0.0500  0.5987  0.2457
  631MOL0     O85109   1.004   8.044  10.479  0.0435  0.2282  0.0016
  631MOL0     C85110   1.084   7.962  10.392  0.7612 -0.2825  0.1080
  631MOL0     C85111   1.229   8.008  10.360  0.0100  0.7390 -0.0547
  631MOL0     C85112   1.212   8.152  10.306 -0.1090 -0.7678  0.2726
  631MOL0     C85113   1.324   8.258  10.334  0.0560 -0.3128  0.1111
  631MOL0     C85114   1.460   8.214  10.292  0.1260  0.2719 -1.8136
  631MOL0     C85115   1.567   8.165  10.273 -0.3063  0.1071 -0.5612
  631MOL0     C85116   0.800   7.910  10.455 -0.3394  0.5099  0.4958
  631MOL0     C85117   0.668   7.905  10.464  0.5176  0.7854 -0.8495
  631MOL0     H85118   0.230   7.971  10.263 -0.1199 -0.1907 -1.2131
  631MOL0     H85119  -0.047   7.964  10.273 -0.6910 -1.8127 -0.8541
  631MOL0     H85120  -0.246   8.014  10.374 -0.1181  0.0096  0.1839
  631MOL0     H85121  -0.252   7.844  10.317  1.2720  0.7611 -0.1273
  631MOL0     H85122  -0.484   7.879  10.415 -1.6817  0.3988  1.4883
  631MOL0     H85123  -0.386   7.819  10.550  2.0552 -0.3145 -1.5400
  631MOL0     H85124  -0.361   8.041  10.620 -0.3359  1.2428 -0.0900
  631MOL0     H85125  -0.442   8.119  10.485 -0.1164 -2.8666 -4.6234
  631MOL0     H85126  -0.575   7.925  10.681 -1.2440 -0.0408 -0.5363
  631MOL0     H85127  -0.571   8.094  10.693  1.6804 -0.3999  1.4485
  631MOL0     H85128  -0.708   8.129  10.492 -1.6594 -0.5542  0.3726
  631MOL0     H85129  -0.718   7.951  10.470 -0.9563  2.4569 -2.5765
  631MOL0     H85130  -0.911   8.023  10.544  1.6477 -2.5945 -0.8238
  631MOL0     H85131  -0.838   7.931  10.678  1.9788 -0.7243  0.6708
  631MOL0     H85132  -0.768   8.115  10.794 -1.9796  2.8881  3.1530
  631MOL0     H85133  -0.811   8.234  10.679 -0.4077 -1.5351 -0.9067
  631MOL0     H85134  -0.996   8.040  10.841  1.0007  0.2780  1.3410
  631MOL0     H85135  -1.047   8.153  10.705  0.5098  2.5349 -0.3922
  631MOL0     H85136  -0.835   8.175  11.034  2.7742  1.8776 -2.1968
  631MOL0     H85137  -0.918   8.307  11.265 -1.1693 -0.6910  1.0142
  631MOL0     H85138  -0.814   8.432  11.199 -0.1796 -0.5582 -1.6587
  631MOL0     H85139  -1.047   8.583  11.194  0.6741 -0.8325 -1.1012
  631MOL0     H85140  -0.974   8.551  11.349 -1.7327  2.3478  0.5066
  631MOL0     H85141  -1.123   8.349  11.372 -0.1102  3.1169  2.0678
  631MOL0     H85142  -1.209   8.386  11.210  0.3977  1.6985 -2.4251
  631MOL0     H85143  -1.248   8.618  11.318 -0.5699 -1.6115 -2.3056
  631MOL0     H85144  -1.198   8.552  11.465  0.4151 -1.5744  1.0945
  631MOL0     H85145  -1.315   8.683  11.563 -1.7119  3.7949  1.6805
  631MOL0     H85146  -1.504   8.949  11.686  0.0286 -0.0034 -1.0513
  631MOL0     H85147  -1.420   8.831  11.797  0.3198  1.1471  0.5038
  631MOL0     H85148  -1.352   8.885  11.633 -1.0623  1.5513 -0.4788
  631MOL0     H85149  -2.070   8.878  11.612  3.7013  2.7240  0.1342
  631MOL0     H85150  -2.245   8.981  11.764  1.5524 -0.4253  0.7208
  631MOL0     H85151  -2.249   8.856  12.220  2.4230  1.5960  2.8705
  631MOL0     H85152  -2.150   8.986  12.183  0.7512 -0.8168 -2.4186
  631MOL0     H85153  -2.341   9.047  12.320 -0.4194 -2.5124  0.1554
  631MOL0     H85154  -2.341   9.131  12.162  1.8939 -0.3381 -0.8838
  631MOL0     H85155  -2.509   8.877  12.244  2.1779  0.0448  0.4618
  631MOL0     H85156  -2.499   8.942  12.083  0.8046 -0.0273  0.3589
  631MOL0     H85157  -2.590   9.167  12.156 -3.5614  0.3474 -1.5619
  631MOL0     H85158  -2.704   9.036  12.175 -0.4322  1.4941  1.2387
  631MOL0     H85159  -2.536   9.165  12.397  0.8051  1.0293 -2.2961
  631MOL0     H85160  -2.631   9.010  12.414  1.3327 -0.0527 -0.1349
  631MOL0     H85161  -2.744   9.259  12.294 -0.6234  1.3219  1.9686
  631MOL0     H85162  -2.834   9.113  12.353  0.7170 -2.0662  0.8466
  631MOL0     H85163  -2.684   9.317  12.545 -0.4030  1.0075 -0.3361
  631MOL0     H85164  -2.744   9.160  12.581  2.2068 -0.7167 -1.0437
  631MOL0     H85165  -2.908   9.378  12.436 -2.3343  1.4219  1.1308
  631MOL0     H85166  -2.902   9.374  12.601  1.4117  0.3169 -0.3361
  631MOL0     H85167  -2.044   8.807  12.098  0.5693  0.3165 -0.3876
  631MOL0     H85168  -1.883   8.704  11.938  0.0442 -0.8038 -1.0058
  631MOL0     H85169  -1.781   8.537  11.583  1.8076 -5.0172  1.2362
  631MOL0     H85170  -1.631   8.432  11.412 -1.0208  0.4931 -0.9732
  631MOL0     H85171   0.003   7.844  10.687  1.7683 -2.2310  0.4728
  631MOL0     H85172   0.236   7.819  10.655 -1.7833  0.6205  1.7875
  631MOL0     H85173   0.608   8.230  10.566 -1.3854 -0.0775  0.1308
  631MOL0     H85174   0.839   8.240  10.551  0.7291  0.2254 -0.7391
  631MOL0     H85175   1.087   7.864  10.440 -1.0514  0.4777  1.9513
  631MOL0     H85176   1.035   7.962  10.294 -1.2840  0.1217  1.0695
  631MOL0     H85177   1.270   7.935  10.290 -1.6369  1.3023 -1.6746
  631MOL0     H85178   1.289   8.017  10.451 -0.7913  1.2962  0.4316
  631MOL0     H85179   1.128   8.208  10.349  0.8432  1.3846 -0.5952
  631MOL0     H85180   1.188   8.147  10.200  0.4949 -0.0307  0.0983
  631MOL0     H85181   1.328   8.286  10.440  0.9034  1.1255 -0.2740
  631MOL0     H85182   1.284   8.346  10.283 -0.2522 -0.4719  0.0768
  631MOL0     H85183   1.667   8.125  10.269 -0.5173 -0.3446 -1.6447
  631MOL0     H85184   0.858   7.823  10.424  2.9638  1.9749  2.0529
  631MOL0     H85185   0.626   7.809  10.436 -0.3179  0.8663  0.0553
  632MOL0     O85186   8.902  10.460   5.505 -0.2797  0.0415  0.6462
  632MOL0     C85187   8.969  10.406   5.417  0.7406 -0.2028  0.6902
  632MOL0     O85188   8.942  10.288   5.359  0.2323 -0.3059 -0.0908
  632MOL0     C85189   8.821  10.218   5.394 -0.3133 -0.1736  0.3077
  632MOL0     C85190   8.833  10.079   5.416  0.3186 -0.2901 -0.4275
  632MOL0     C85191   8.720  10.006   5.433 -0.1032  0.0287  0.3184
  632MOL0     C85192   8.595  10.066   5.435 -0.0101  0.4292  0.1143
  632MOL0     O85193   8.472  10.002   5.463 -0.9644  0.1527 -0.0520
  632MOL0     C85194   8.483   9.876   5.522  1.2388  0.2592 -0.0804
  632MOL0     C85195   8.343   9.816   5.551 -0.7129  0.3372  0.2395
  632MOL0     C85196   8.256   9.889   5.645 -0.3392 -0.1947 -0.2723
  632MOL0     C85197   8.311   9.893   5.787  0.0349 -0.6806 -0.7261
  632MOL0     C85198   8.222   9.973   5.886 -1.2184 -0.4852 -0.1718
  632MOL0     C85199   8.082   9.915   5.927 -0.3206 -0.8943 -0.6548
  632MOL0     C85200   8.021  10.026   6.015  0.0423  0.5807 -0.1383
  632MOL0     C85201   7.898   9.950   6.068 -0.3871  1.3517  0.0331
  632MOL0     N85202   7.823  10.033   6.171 -0.0455  0.4168  0.0421
  632MOL0     C85203   7.829  10.022   6.303 -0.0301  0.6149 -0.0353
  632MOL0     C85204   7.763  10.126   6.354  0.3263 -0.2596  0.1184
  632MOL0     C85205   7.744  10.154   6.506  0.4908 -0.7140 -0.0089
  632MOL0     C85206   7.607  10.170   6.546 -0.9145 -0.5179  0.0697
  632MOL0     C85207   7.591  10.227   6.687 -0.1860 -0.3125 -0.1086
  632MOL0     C85208   7.445  10.257   6.727 -0.8722 -0.4221 -0.4805
  632MOL0     O85209   7.403  10.372   6.637 -0.2511  0.0940  0.4745
  632MOL0     C85210   7.269  10.403   6.631  0.2855 -0.9791  0.4751
  632MOL0     C85211   7.219  10.497   6.538  0.2010  0.2346  0.3273
  632MOL0     C85212   7.084  10.533   6.534  0.0905 -0.1728  0.3314
  632MOL0     C85213   7.053  10.636   6.427 -0.2145  0.6517 -0.0506
  632MOL0     C85214   6.995  10.481   6.633  0.4935  0.6947 -0.2789
  632MOL0     C85215   6.848  10.534   6.631  0.5872  0.3991  0.0506
  632MOL0     O85216   6.810  10.659   6.589 -0.4275  1.0774  0.6154
  632MOL0     C85217   6.680  10.690   6.594 -0.1367 -1.2521  0.0274
  632MOL0     C85218   6.607  10.705   6.712 -0.2838 -0.2347 -0.1821
  632MOL0     C85219   6.467  10.733   6.711  0.2988 -0.4546 -0.7434
  632MOL0     C85220   6.393  10.721   6.592  0.9556  0.2179  0.1120
  632MOL0     O85221   6.256  10.729   6.583  0.2898  0.3291  0.1774
  632MOL0     C85222   6.183  10.772   6.698  0.5827  0.2080 -0.4325
  632MOL0     C85223   6.032  10.745   6.683  0.1098 -0.6883 -0.2269
  632MOL0     C85224   6.001  10.589   6.691 -0.1053  0.0737  0.3313
  632MOL0     C85225   5.844  10.568   6.695  0.3565  0.3473 -0.3589
  632MOL0     C85226   5.791  10.440   6.632  0.8049  0.0215  0.7202
  632MOL0     C85227   5.877  10.309   6.652 -0.4325 -1.0604 -0.4635
  632MOL0     C85228   5.816  10.177   6.597  0.7875 -0.4388 -0.1224
  632MOL0     C85229   5.691  10.143   6.680  0.5356  0.4968  0.2830
  632MOL0    Cl85230   5.643   9.964   6.647  0.0447  0.1788  0.4042
  632MOL0     C85231   6.458  10.719   6.478  0.9734  0.3843  0.4586
  632MOL0     C85232   6.598  10.698   6.471  0.4626 -0.2117 -0.7274
  632MOL0     O85233   6.774  10.446   6.677  0.3613  0.5489 -0.9437
  632MOL0     C85234   7.042  10.391   6.725  0.1494  1.0515  0.1370
  632MOL0     C85235   7.176  10.349   6.721 -0.2113  0.2435  0.1108
  632MOL0     N85236   7.717  10.199   6.245  0.2774  0.4163  0.2995
  632MOL0     N85237   7.743  10.133   6.134 -0.9203 -0.5634 -0.5593
  632MOL0     C85238   8.585  10.199   5.427  0.9301 -0.2863  0.2940
  632MOL0     C85239   8.694  10.282   5.400 -0.0896 -0.4733  0.4757
  632MOL0     C85240   9.086  10.484   5.363  0.0540  0.4241 -0.2859
  632MOL0     C85241   9.164  10.440   5.257  0.0670  0.1932 -0.4957
  632MOL0     C85242   9.278  10.510   5.215 -0.2124 -0.2681 -0.2291
  632MOL0     C85243   9.325  10.629   5.279  0.0717  0.4720 -0.2365
  632MOL0     O85244   9.435  10.699   5.242 -0.8989  0.2403  0.2280
  632MOL0     C85245   9.501  10.667   5.119 -0.5336 -0.1926 -0.3973
  632MOL0     C85246   9.592  10.772   5.058 -0.4897  1.0187 -0.9015
  632MOL0     C85247   9.682  10.859   5.144  0.2209  0.6386  0.1498
  632MOL0     C85248   9.770  10.959   5.061  0.3883 -0.3273 -0.6186
  632MOL0     C85249   9.860  11.009   5.166 -0.9171 -0.9555 -0.6743
  632MOL0     C85250   9.941  11.076   5.231  0.0514 -0.7772  0.4690
  632MOL0     C85251   9.237  10.676   5.376  0.2068 -0.8782 -0.1990
  632MOL0     C85252   9.118  10.609   5.420  0.0302  0.2760  0.2559
  632MOL0     H85253   8.925  10.023   5.398 -0.7175 -1.3687 -2.7676
  632MOL0     H85254   8.735   9.898   5.434  3.1836  0.3799  0.3338
  632MOL0     H85255   8.532   9.805   5.455  0.3623 -2.4088  1.9233
  632MOL0     H85256   8.532   9.894   5.618 -1.0504  2.6424  0.7774
  632MOL0     H85257   8.297   9.795   5.454 -2.0258 -1.5331  1.1964
  632MOL0     H85258   8.356   9.715   5.591 -0.2828  1.2470  2.5354
  632MOL0     H85259   8.223   9.987   5.610 -2.3047 -1.0604 -0.9772
  632MOL0     H85260   8.167   9.826   5.651 -0.7150  0.4254  1.0746
  632MOL0     H85261   8.348   9.796   5.821 -2.2261 -1.2539  0.2820
  632MOL0     H85262   8.397   9.960   5.780  0.6424 -1.5483 -2.3905
  632MOL0     H85263   8.280   9.986   5.977 -0.4598 -1.9890 -0.4069
  632MOL0     H85264   8.203  10.073   5.845  0.9419  1.0304  2.1961
  632MOL0     H85265   8.022   9.908   5.836 -1.9678  1.2078  0.1907
  632MOL0     H85266   8.094   9.819   5.977  3.1160 -0.2567  0.0202
  632MOL0     H85267   8.093  10.048   6.094  1.1503 -0.0511 -0.9627
  632MOL0     H85268   8.004  10.114   5.952  3.8421 -0.1925 -2.5733
  632MOL0     H85269   7.925   9.853   6.108 -0.4142  0.6098 -1.6573
  632MOL0     H85270   7.838   9.939   5.977  2.1002  0.0716 -1.5652
  632MOL0     H85271   7.897   9.964   6.366 -1.3197  0.2725  1.0893
  632MOL0     H85272   7.792  10.074   6.563 -0.6803 -0.1753  1.8027
  632MOL0     H85273   7.790  10.252   6.520 -1.1159 -0.1370  1.4720
  632MOL0     H85274   7.563  10.071   6.534 -0.6053 -0.6291 -0.1772
  632MOL0     H85275   7.556  10.245   6.485  1.0709  0.6058 -0.3083
  632MOL0     H85276   7.651  10.317   6.701 -0.5605  0.4471 -2.9266
  632MOL0     H85277   7.629  10.148   6.753 -0.6970 -0.9289 -0.5349
  632MOL0     H85278   7.441  10.290   6.831  1.4701  0.5179 -0.6298
  632MOL0     H85279   7.371  10.176   6.727 -0.0538 -1.1976 -0.1586
  632MOL0     H85280   7.286  10.522   6.456 -0.4338 -0.1371 -0.3240
  632MOL0     H85281   7.047  10.739   6.462  1.9852  0.9092 -0.2708
  632MOL0     H85282   7.132  10.636   6.351  0.2685  3.0910  0.3803
  632MOL0     H85283   6.955  10.622   6.381 -0.0090  0.2610 -0.3725
  632MOL0     H85284   6.659  10.686   6.806  1.3153  1.7034 -0.6026
  632MOL0     H85285   6.427  10.739   6.812 -0.3006 -0.7850 -0.9555
  632MOL0     H85286   6.213  10.707   6.781 -1.0548  2.1209  1.7630
  632MOL0     H85287   6.213  10.874   6.724  3.1935 -0.1634 -1.5776
  632MOL0     H85288   5.982  10.791   6.769 -0.4357  0.6086 -1.1968
  632MOL0     H85289   5.990  10.796   6.596 -2.0125 -1.9086  0.0191
  632MOL0     H85290   6.054  10.551   6.778 -2.4296 -4.1253  0.1319
  632MOL0     H85291   6.042  10.547   6.599  2.5057 -1.5316  2.1151
  632MOL0     H85292   5.828  10.561   6.802  2.1866  1.5967  0.0505
  632MOL0     H85293   5.786  10.653   6.657 -0.7677  0.5209  1.6524
  632MOL0     H85294   5.783  10.465   6.526 -1.0132  1.8896  1.2265
  632MOL0     H85295   5.689  10.426   6.669  0.0241 -0.5176 -1.5255
  632MOL0     H85296   5.977  10.324   6.612 -1.4919  1.8247 -2.3563
  632MOL0     H85297   5.884  10.289   6.759  0.1033 -1.3738 -0.5580
  632MOL0     H85298   5.877  10.087   6.611 -0.5304 -1.2441  0.6449
  632MOL0     H85299   5.798  10.185   6.489 -3.4454 -0.5605  0.3978
  632MOL0     H85300   5.606  10.208   6.656  0.4252  0.4146  0.4476
  632MOL0     H85301   5.705  10.155   6.788 -2.3695  1.0526  0.6881
  632MOL0     H85302   6.405  10.740   6.386  2.4255  2.9103  0.0979
  632MOL0     H85303   6.653  10.700   6.377  0.2858  1.0765 -0.8216
  632MOL0     H85304   6.980  10.348   6.804 -0.3234 -0.1025 -0.8247
  632MOL0     H85305   7.211  10.276   6.793 -3.1463 -0.7939  0.6038
  632MOL0     H85306   8.484  10.240   5.425  1.7022  1.8436  1.6463
  632MOL0     H85307   8.685  10.387   5.374 -0.8959 -0.1615  1.8662
  632MOL0     H85308   9.139  10.344   5.212  0.2023 -0.7874  1.4300
  632MOL0     H85309   9.331  10.456   5.138 -2.6273 -1.4529 -1.1531
  632MOL0     H85310   9.552  10.570   5.124 -1.1908 -0.4912  1.2423
  632MOL0     H85311   9.417  10.653   5.050 -1.4412 -0.8682  0.7932
  632MOL0     H85312   9.531  10.850   5.012 -0.6935 -0.3014 -2.9868
  632MOL0     H85313   9.660  10.728   4.985 -0.1281  0.5552 -0.2959
  632MOL0     H85314   9.746  10.789   5.199 -0.8289 -0.3851  0.0979
  632MOL0     H85315   9.618  10.917   5.212  2.2888 -0.2630  3.0402
  632MOL0     H85316   9.707  11.036   5.015 -1.0050 -0.9805  0.1376
  632MOL0     H85317   9.828  10.910   4.982  1.0138 -1.9379  0.7724
  632MOL0     H85318  10.020  11.133   5.274  2.9782 -4.0078 -0.1700
  632MOL0     H85319   9.242  10.776   5.419  1.1378 -1.0328  0.0500
  632MOL0     H85320   9.057  10.647   5.501 -1.3626  0.2340 -0.7335
  633MOL0     O85321   1.088   4.304   4.151  0.7099  0.0065  0.0423
  633MOL0     C85322   1.085   4.177   4.148 -0.4149 -0.8632  0.1974
  633MOL0     O85323   0.966   4.109   4.154  1.2189  1.0185 -0.9154
  633MOL0     C85324   0.846   4.155   4.186 -0.0439 -0.5339 -0.1454
  633MOL0     C85325   0.824   4.268   4.279  0.6896 -0.0236 -0.2723
  633MOL0     C85326   0.690   4.311   4.312 -0.2500 -0.6323  0.5851
  633MOL0     C85327   0.582   4.242   4.249  0.0716 -0.4064 -0.3250
  633MOL0     O85328   0.462   4.286   4.300 -0.5145 -0.5801  0.5791
  633MOL0     C85329   0.357   4.192   4.299 -0.2966  0.6509  0.0648
  633MOL0     C85330   0.252   4.232   4.394  0.0265 -0.1016 -0.8910
  633MOL0     C85331   0.118   4.147   4.388  0.1461 -0.8799  0.3641
  633MOL0     C85332   0.002   4.213   4.468 -0.6372 -0.0463 -0.2211
  633MOL0     C85333  -0.126   4.124   4.454 -0.4393 -0.4660  0.0086
  633MOL0     C85334  -0.241   4.179   4.535 -0.1670  0.6928 -0.5664
  633MOL0     C85335  -0.335   4.056   4.552 -0.6653  0.5139 -0.0053
  633MOL0     C85336  -0.287   3.949   4.655 -1.2429 -0.0081  0.2581
  633MOL0     N85337  -0.396   3.852   4.661 -0.1772 -0.2658  1.0878
  633MOL0     C85338  -0.395   3.730   4.611 -0.4449  0.9346  0.3396
  633MOL0     C85339  -0.514   3.669   4.651  0.3324  0.2308  0.3059
  633MOL0     C85340  -0.569   3.529   4.617  0.3498 -0.1556 -0.8195
  633MOL0     C85341  -0.456   3.427   4.584  1.0460 -0.0081 -0.4918
  633MOL0     C85342  -0.515   3.306   4.495 -0.9678 -0.4225 -0.5118
  633MOL0     C85343  -0.426   3.177   4.487  0.3935  1.0368 -0.5005
  633MOL0     O85344  -0.298   3.193   4.446 -0.3928  0.0651  0.7626
  633MOL0     C85345  -0.203   3.089   4.455  0.7938 -0.3841  1.4391
  633MOL0     C85346  -0.085   3.111   4.376  0.1418  0.5072 -0.4248
  633MOL0     C85347   0.018   3.017   4.375  0.1972  0.3614  0.1339
  633MOL0     C85348   0.140   3.035   4.297  0.6544 -0.6292  0.1876
  633MOL0     C85349   0.004   2.899   4.456 -0.5951  0.1708  1.0949
  633MOL0     C85350   0.106   2.793   4.456  0.0690 -0.6120  0.3090
  633MOL0     O85351   0.097   2.696   4.365 -0.2392 -0.5778  0.1966
  633MOL0     C85352   0.175   2.583   4.377  0.2703 -0.1160 -0.3973
  633MOL0     C85353   0.308   2.584   4.344 -0.0602 -0.8417  0.8035
  633MOL0     C85354   0.391   2.476   4.354  0.6504  0.7267  0.0714
  633MOL0     C85355   0.338   2.354   4.388  0.2390 -0.1810  0.2801
  633MOL0     O85356   0.404   2.236   4.395 -0.2331 -0.2846 -0.2157
  633MOL0     C85357   0.537   2.224   4.342 -0.5053 -0.1055  0.2927
  633MOL0     C85358   0.536   2.219   4.191  0.3800 -0.3359  0.2552
  633MOL0     C85359   0.677   2.229   4.131 -0.4753  0.7034  1.3399
  633MOL0     C85360   0.691   2.259   3.980  0.1650  1.0784 -0.2845
  633MOL0     C85361   0.841   2.273   3.932  0.1392  0.1057 -0.2279
  633MOL0     C85362   0.842   2.271   3.781  0.7381  0.9674  0.3476
  633MOL0     C85363   0.972   2.310   3.720 -1.4715 -0.2407  0.1282
  633MOL0     C85364   1.084   2.207   3.740  0.2295 -0.0299  0.2159
  633MOL0    Cl85365   1.077   2.078   3.617  0.0137 -0.4168  0.2704
  633MOL0     C85366   0.199   2.345   4.420 -0.7727 -0.9553  0.2619
  633MOL0     C85367   0.119   2.461   4.415 -0.6360  0.0015  0.3281
  633MOL0     O85368   0.183   2.799   4.554 -0.0440 -0.1697  0.2974
  633MOL0     C85369  -0.107   2.884   4.537  0.5251 -0.4904  0.4698
  633MOL0     C85370  -0.214   2.975   4.537  0.0058  0.1483 -0.6538
  633MOL0     N85371  -0.580   3.765   4.724  0.0495  0.0666 -0.3508
  633MOL0     N85372  -0.513   3.881   4.719  0.1277  0.3464  0.1889
  633MOL0     C85373   0.604   4.134   4.167 -0.3135 -0.7504 -0.3186
  633MOL0     C85374   0.731   4.094   4.135 -0.4365  0.5861 -0.1690
  633MOL0     C85375   1.212   4.114   4.112  0.4697 -0.8092 -0.3355
  633MOL0     C85376   1.340   4.174   4.115  0.9190 -0.2628 -1.0591
  633MOL0     C85377   1.447   4.108   4.063 -0.4176  0.7603 -0.1997
  633MOL0     C85378   1.444   3.972   4.017  0.3985  0.1642 -0.2879
  633MOL0     O85379   1.547   3.903   3.959 -0.0834 -0.2080  0.3960
  633MOL0     C85380   1.680   3.923   4.012 -0.2018 -0.3054 -0.1425
  633MOL0     C85381   1.758   4.023   3.928  0.7362  0.2538  0.3905
  633MOL0     C85382   1.904   4.041   3.960  1.5374  0.8216 -0.2727
  633MOL0     C85383   1.973   4.176   3.916  0.3593  0.6779  0.2316
  633MOL0     C85384   1.915   4.280   3.994 -0.0321  0.5042 -0.1896
  633MOL0     C85385   1.861   4.372   4.049 -0.2532 -1.2557  0.7665
  633MOL0     C85386   1.314   3.916   4.012 -0.4684 -0.2101  0.6077
  633MOL0     C85387   1.202   3.985   4.071  0.0202  0.2228  1.2379
  633MOL0     H85388   0.903   4.316   4.336 -0.1567  1.1686 -0.0456
  633MOL0     H85389   0.671   4.386   4.388  2.9998 -0.2104  1.0944
  633MOL0     H85390   0.301   4.177   4.206 -2.8416 -1.3874  1.7615
  633MOL0     H85391   0.383   4.092   4.336 -3.1083 -1.2203 -2.5215
  633MOL0     H85392   0.292   4.235   4.496  0.6408 -1.2238 -1.0866
  633MOL0     H85393   0.222   4.333   4.365  0.1463 -0.3348 -1.8474
  633MOL0     H85394   0.078   4.147   4.286  0.6996  0.2807  0.1363
  633MOL0     H85395   0.146   4.051   4.433  0.7856 -2.5373 -3.1909
  633MOL0     H85396   0.029   4.212   4.574 -1.2193 -0.7907 -0.0750
  633MOL0     H85397  -0.014   4.313   4.426  1.8860 -0.1993 -1.8014
  633MOL0     H85398  -0.153   4.117   4.348  0.7809 -2.7276 -0.2251
  633MOL0     H85399  -0.087   4.027   4.488  1.2775  0.8928  2.2036
  633MOL0     H85400  -0.217   4.207   4.638 -0.9766 -0.5658 -0.0069
  633MOL0     H85401  -0.294   4.256   4.478  0.3255 -2.0269 -5.1395
  633MOL0     H85402  -0.419   4.104   4.603 -1.7581  0.0280 -1.2806
  633MOL0     H85403  -0.369   4.017   4.456 -2.8020  1.0964  0.4708
  633MOL0     H85404  -0.274   3.997   4.752  0.2691 -1.3027  0.7443
  633MOL0     H85405  -0.191   3.912   4.616  0.6562  4.3982  0.1687
  633MOL0     H85406  -0.310   3.699   4.550  0.2220  2.0194  0.6896
  633MOL0     H85407  -0.635   3.492   4.696  0.5788 -2.5552 -1.6762
  633MOL0     H85408  -0.627   3.548   4.525 -1.6633  0.2735  0.4667
  633MOL0     H85409  -0.436   3.385   4.682  0.5659 -1.5295 -1.0273
  633MOL0     H85410  -0.372   3.488   4.548  3.1267 -0.0557  3.6614
  633MOL0     H85411  -0.524   3.336   4.390 -1.4061 -0.9861 -0.6393
  633MOL0     H85412  -0.614   3.282   4.534 -0.5935  1.7189  2.0178
  633MOL0     H85413  -0.483   3.113   4.419 -2.5237  1.5942  1.2481
  633MOL0     H85414  -0.420   3.158   4.594 -1.0176  4.0762  0.2446
  633MOL0     H85415  -0.088   3.193   4.306 -0.7255 -1.0802 -2.3285
  633MOL0     H85416   0.123   3.115   4.224 -1.2515 -0.1393  1.1130
  633MOL0     H85417   0.231   3.040   4.357  0.0116 -0.8006  1.1964
  633MOL0     H85418   0.151   2.942   4.240 -1.2203  0.2652 -1.7897
  633MOL0     H85419   0.352   2.675   4.306  1.9618 -1.6596  1.0881
  633MOL0     H85420   0.492   2.487   4.316  1.0944  3.4504  1.8110
  633MOL0     H85421   0.603   2.304   4.377  1.2309 -0.1304 -2.5841
  633MOL0     H85422   0.589   2.135   4.378  0.0876  0.8372  1.8631
  633MOL0     H85423   0.496   2.126   4.149 -2.2116  0.8764 -0.1455
  633MOL0     H85424   0.471   2.293   4.143  2.2730  0.6114 -0.9862
  633MOL0     H85425   0.727   2.136   4.159  1.2841 -0.0333 -3.3302
  633MOL0     H85426   0.728   2.308   4.186  0.7197  0.5876  0.4517
  633MOL0     H85427   0.653   2.169   3.930  0.7474 -0.6767  2.2281
  633MOL0     H85428   0.635   2.350   3.955  0.3358  0.9879 -1.0232
  633MOL0     H85429   0.906   2.200   3.980  2.2970  3.4371  2.4224
  633MOL0     H85430   0.878   2.372   3.961  2.6081 -0.2248 -1.9537
  633MOL0     H85431   0.817   2.171   3.745 -2.0805  1.5162  0.5946
  633MOL0     H85432   0.762   2.333   3.741  1.9622  1.8161 -0.8859
  633MOL0     H85433   1.002   2.403   3.769  0.2605 -1.4304  1.4505
  633MOL0     H85434   0.961   2.330   3.613 -3.8063 -0.7123  0.2323
  633MOL0     H85435   1.091   2.157   3.837  1.3992 -0.3956 -0.0338
  633MOL0     H85436   1.178   2.262   3.725  0.2002 -0.0965 -0.2162
  633MOL0     H85437   0.159   2.248   4.445 -1.9886 -0.8828 -1.2381
  633MOL0     H85438   0.015   2.454   4.446 -0.4079  1.1049  1.4261
  633MOL0     H85439  -0.107   2.793   4.596  1.8658  0.9899  2.9479
  633MOL0     H85440  -0.297   2.961   4.606  1.2689  0.7205  1.0539
  633MOL0     H85441   0.509   4.101   4.127 -1.2640  0.7836  0.5298
  633MOL0     H85442   0.743   4.004   4.075 -0.8848 -0.1328  0.7937
  633MOL0     H85443   1.353   4.274   4.156 -3.6563  2.2892 -4.7698
  633MOL0     H85444   1.541   4.162   4.069  1.4302 -2.3550  2.8123
  633MOL0     H85445   1.674   3.959   4.115  0.1812  3.0472 -1.1406
  633MOL0     H85446   1.731   3.827   4.003 -0.2382 -0.1655 -2.7122
  633MOL0     H85447   1.706   4.119   3.935 -2.3629 -1.2826  0.3098
  633MOL0     H85448   1.748   3.994   3.823  1.7976  0.4174  0.2362
  633MOL0     H85449   1.959   3.963   3.907  1.7094 -2.3594  4.0476
  633MOL0     H85450   1.932   4.016   4.063  1.7236 -5.5305 -1.4898
  633MOL0     H85451   1.961   4.205   3.811  0.1692 -1.7600 -0.4903
  633MOL0     H85452   2.081   4.162   3.918  0.2635 -0.0166  1.6758
  633MOL0     H85453   1.816   4.458   4.094 -1.1928 -0.6669 -1.1674
  633MOL0     H85454   1.302   3.812   3.984  0.9520 -0.2750  0.1307
  633MOL0     H85455   1.114   3.922   4.077  0.6540 -0.8335 -0.0495
  634MOL0     O85456   5.644   3.661   1.318  1.2217  0.4952 -0.1233
  634MOL0     C85457   5.628   3.563   1.383 -0.4647  0.2876 -0.3447
  634MOL0     O85458   5.507   3.512   1.422  0.1850 -0.2522 -0.5142
  634MOL0     C85459   5.391   3.557   1.360 -0.5050 -0.1146 -0.0978
  634MOL0     C85460   5.331   3.475   1.267  0.6687 -0.7476 -0.1391
  634MOL0     C85461   5.213   3.512   1.201 -0.1781  0.1936 -0.2267
  634MOL0     C85462   5.156   3.631   1.233 -0.0035 -0.2320  0.2329
  634MOL0     O85463   5.036   3.674   1.174  0.6844 -0.4465 -0.0389
  634MOL0     C85464   5.008   3.621   1.044  0.3560  0.6329 -0.4440
  634MOL0     C85465   4.913   3.502   1.041 -0.4858 -0.7583 -0.4877
  634MOL0     C85466   4.879   3.468   0.891 -0.3655  0.7292  0.1546
  634MOL0     C85467   4.752   3.541   0.848  0.9595  0.5695  0.0747
  634MOL0     C85468   4.692   3.502   0.709  0.1642  0.1350 -0.9080
  634MOL0     C85469   4.536   3.523   0.702 -0.3751  0.7481 -0.2453
  634MOL0     C85470   4.475   3.461   0.571  0.9901  0.0615  0.9998
  634MOL0     C85471   4.322   3.480   0.570  0.4412 -0.2076  0.1917
  634MOL0     N85472   4.264   3.462   0.438  0.5210 -0.3793 -0.8863
  634MOL0     C85473   4.224   3.566   0.361 -0.5983  0.1494 -0.0861
  634MOL0     C85474   4.162   3.509   0.254  0.2273  0.4961  0.4064
  634MOL0     C85475   4.116   3.576   0.136  1.2275 -0.3412  0.6961
  634MOL0     C85476   3.968   3.597   0.148  0.1870  0.5128  0.3091
  634MOL0     C85477   3.908   3.680   0.026 -1.0720 -0.2553 -0.7523
  634MOL0     C85478   3.777   3.739   0.063 -0.5931  0.0757 -0.7267
  634MOL0     O85479   3.795   3.834   0.173 -1.0112 -0.3332 -0.0172
  634MOL0     C85480   3.691   3.896   0.236 -0.5914  0.4312 -0.2182
  634MOL0     C85481   3.731   3.967   0.346  0.4172 -0.4666 -0.6059
  634MOL0     C85482   3.637   4.022   0.437  0.0136  0.4118 -0.6579
  634MOL0     C85483   3.683   4.091   0.562 -0.1416 -0.2405 -0.5116
  634MOL0     C85484   3.496   3.995   0.409  0.1571 -0.6291  0.6359
  634MOL0     C85485   3.381   4.046   0.499  0.1745 -0.0807 -0.8109
  634MOL0     O85486   3.258   4.015   0.455  0.1765 -0.0464 -0.2727
  634MOL0     C85487   3.153   4.047   0.530  0.8693 -0.5864 -0.2753
  634MOL0     C85488   3.081   3.955   0.609  0.9109  0.2755  0.9331
  634MOL0     C85489   2.979   4.001   0.692 -0.0660  0.8708 -0.6610
  634MOL0     C85490   2.929   4.132   0.683 -0.1535  0.4326  0.3812
  634MOL0     O85491   2.835   4.168   0.762 -0.2881 -0.1798  0.2694
  634MOL0     C85492   2.840   4.294   0.837  0.4905  0.3180  0.2370
  634MOL0     C85493   2.723   4.304   0.929  0.1788  0.2948  0.2824
  634MOL0     C85494   2.717   4.195   1.031 -0.2042  0.3328 -0.4017
  634MOL0     C85495   2.618   4.227   1.141 -0.2635  0.5684  1.0282
  634MOL0     C85496   2.653   4.139   1.269 -0.2044 -0.1381  1.0082
  634MOL0     C85497   2.561   4.166   1.386 -0.3756 -0.3695  0.0093
  634MOL0     C85498   2.418   4.157   1.343 -0.1017  0.0231  0.2195
  634MOL0     C85499   2.333   4.156   1.471 -0.6414 -0.0187 -0.4977
  634MOL0    Cl85500   2.159   4.186   1.423  0.0204 -0.7778 -0.0697
  634MOL0     C85501   2.999   4.220   0.597  0.6398 -0.1083 -1.0024
  634MOL0     C85502   3.106   4.175   0.522 -0.0037  0.4480  1.7441
  634MOL0     O85503   3.403   4.117   0.599  0.5646 -0.2423  0.0182
  634MOL0     C85504   3.463   3.920   0.291 -0.1534  0.2314 -1.0053
  634MOL0     C85505   3.562   3.874   0.201  0.4286 -0.5490 -0.8885
  634MOL0     N85506   4.155   3.376   0.276 -0.0995 -0.3820  0.6795
  634MOL0     N85507   4.221   3.350   0.390  0.3436 -0.8875  0.8134
  634MOL0     C85508   5.201   3.714   1.330 -1.0501 -0.4513 -0.0641
  634MOL0     C85509   5.325   3.672   1.395 -1.0621  0.2535  0.4367
  634MOL0     C85510   5.752   3.500   1.446  0.4152 -1.0862 -0.5781
  634MOL0     C85511   5.878   3.540   1.403 -0.3213  0.5052  0.2720
  634MOL0     C85512   5.997   3.477   1.454 -0.5713 -0.9276 -0.5858
  634MOL0     C85513   5.982   3.373   1.548  0.3069 -0.4162  0.2262
  634MOL0     O85514   6.075   3.307   1.621  0.2368  0.4052  0.1325
  634MOL0     C85515   6.213   3.339   1.582  0.7718  0.9692  0.0306
  634MOL0     C85516   6.293   3.275   1.696  1.5062  0.8222  0.8307
  634MOL0     C85517   6.446   3.306   1.703 -0.5171  0.2421  0.9990
  634MOL0     C85518   6.527   3.305   1.570  0.6536 -0.0091 -0.5495
  634MOL0     C85519   6.546   3.166   1.519  0.3397 -0.3787  0.4501
  634MOL0     C85520   6.579   3.061   1.472  0.3938  0.9361  0.7906
  634MOL0     C85521   5.850   3.333   1.580  0.6892 -0.0072 -0.2803
  634MOL0     C85522   5.733   3.395   1.535 -1.3891  1.4319 -0.8146
  634MOL0     H85523   5.371   3.376   1.246  2.0206 -0.5524  1.3357
  634MOL0     H85524   5.177   3.446   1.123 -1.0400  0.4338 -0.0415
  634MOL0     H85525   4.959   3.703   0.991  0.5900  1.4165  0.5315
  634MOL0     H85526   5.103   3.584   1.004 -0.2885 -0.1669 -1.2892
  634MOL0     H85527   4.961   3.416   1.087 -0.3693 -0.9521 -0.9600
  634MOL0     H85528   4.820   3.521   1.095 -2.0856 -0.5595 -3.1045
  634MOL0     H85529   4.963   3.486   0.824  0.0076 -1.1713  0.0453
  634MOL0     H85530   4.857   3.361   0.883  0.0004  0.7145 -0.8107
  634MOL0     H85531   4.672   3.526   0.921 -0.7984 -2.2707 -2.2735
  634MOL0     H85532   4.778   3.648   0.855 -2.2051  1.6696 -2.5587
  634MOL0     H85533   4.743   3.559   0.631  1.5333  0.1581 -0.0292
  634MOL0     H85534   4.706   3.398   0.680 -1.2597 -0.0517 -0.9932
  634MOL0     H85535   4.495   3.486   0.797  0.4313 -1.1808 -0.6148
  634MOL0     H85536   4.508   3.629   0.707 -1.0108  0.5673  0.3020
  634MOL0     H85537   4.515   3.509   0.481  1.1465 -1.9495 -0.0538
  634MOL0     H85538   4.488   3.353   0.562  0.2658 -0.0300  0.9600
  634MOL0     H85539   4.294   3.574   0.619 -0.0846 -0.1285 -0.2496
  634MOL0     H85540   4.279   3.415   0.646  1.1878 -0.9152  0.0212
  634MOL0     H85541   4.256   3.669   0.370  0.1442 -0.0415 -0.4705
  634MOL0     H85542   4.169   3.669   0.112 -1.7019  1.1356 -0.5223
  634MOL0     H85543   4.124   3.509   0.050  0.9648 -2.5317  2.3095
  634MOL0     H85544   3.947   3.652   0.240 -1.5023 -0.5230  0.5777
  634MOL0     H85545   3.905   3.510   0.165  0.0805  0.5379  0.0439
  634MOL0     H85546   3.885   3.602  -0.047  0.2467 -0.9264 -0.4921
  634MOL0     H85547   3.978   3.756  -0.013 -2.2391 -0.1300 -2.7292
  634MOL0     H85548   3.709   3.663   0.102 -0.3624  0.8870  1.3712
  634MOL0     H85549   3.747   3.797  -0.025 -0.0315  2.7800  0.7640
  634MOL0     H85550   3.835   3.994   0.359  0.0631  2.0256 -2.2748
  634MOL0     H85551   3.791   4.070   0.563 -0.3618 -1.8388 -2.9280
  634MOL0     H85552   3.672   4.199   0.556  1.9331 -0.0953 -3.2449
  634MOL0     H85553   3.641   4.029   0.642  3.7298 -3.5371 -0.6932
  634MOL0     H85554   3.119   3.853   0.607  0.6645  0.1482  2.1898
  634MOL0     H85555   2.931   3.938   0.766  0.2805 -0.0028 -1.1601
  634MOL0     H85556   2.928   4.280   0.900  1.9812 -1.5470 -2.0411
  634MOL0     H85557   2.848   4.382   0.772  0.7116 -0.6472 -1.0880
  634MOL0     H85558   2.740   4.396   0.986 -0.1414  1.6091 -1.6592
  634MOL0     H85559   2.629   4.290   0.876  0.5829 -0.7052 -0.1789
  634MOL0     H85560   2.817   4.189   1.075  0.6331  4.2938 -1.3562
  634MOL0     H85561   2.703   4.100   0.979  0.9954  1.1187 -2.2116
  634MOL0     H85562   2.620   4.334   1.164 -0.3303  0.8409 -0.1982
  634MOL0     H85563   2.520   4.196   1.104  0.6141 -3.4124  1.5021
  634MOL0     H85564   2.757   4.147   1.300 -0.2271  2.0980  0.6513
  634MOL0     H85565   2.628   4.035   1.247 -0.5854  0.1543 -0.0089
  634MOL0     H85566   2.580   4.098   1.469 -1.2927  2.0701  2.3555
  634MOL0     H85567   2.589   4.260   1.434  3.5981 -1.6105  0.5536
  634MOL0     H85568   2.399   4.056   1.305 -1.0678 -0.1196  1.0368
  634MOL0     H85569   2.377   4.229   1.271 -1.5589 -0.5726  0.4080
  634MOL0     H85570   2.367   4.240   1.533 -0.5600 -1.0265  0.8789
  634MOL0     H85571   2.347   4.062   1.525  2.8489  0.2545 -0.6990
  634MOL0     H85572   2.947   4.315   0.588 -1.2903 -0.9486  0.4755
  634MOL0     H85573   3.133   4.250   0.449 -2.7593 -1.4094 -1.4958
  634MOL0     H85574   3.362   3.906   0.255 -1.1233  1.1385  1.2188
  634MOL0     H85575   3.540   3.822   0.108  2.7155 -2.9010 -0.2454
  634MOL0     H85576   5.165   3.815   1.343 -0.9510 -0.3050 -0.8831
  634MOL0     H85577   5.383   3.729   1.468  0.8070  1.3011 -1.7119
  634MOL0     H85578   5.866   3.613   1.323 -1.7454 -0.0849 -0.0863
  634MOL0     H85579   6.094   3.506   1.417 -0.0136  0.4420  1.7460
  634MOL0     H85580   6.228   3.306   1.479 -0.1084  1.2276 -0.1891
  634MOL0     H85581   6.228   3.447   1.580  1.4991  0.9089  1.1302
  634MOL0     H85582   6.281   3.166   1.694 -1.7955  1.0999 -1.4217
  634MOL0     H85583   6.245   3.305   1.790  0.6077  0.3500  0.5350
  634MOL0     H85584   6.486   3.219   1.757  0.3542  0.3586  0.5704
  634MOL0     H85585   6.455   3.401   1.756  0.3489  0.2515  0.8522
  634MOL0     H85586   6.615   3.365   1.595 -0.8165  0.6034  4.0300
  634MOL0     H85587   6.464   3.352   1.495  1.2323  0.0600 -0.9957
  634MOL0     H85588   6.621   2.967   1.441 -1.8837 -0.3350  1.3193
  634MOL0     H85589   5.829   3.258   1.656 -1.0567  0.1269 -0.5898
  634MOL0     H85590   5.636   3.364   1.573 -1.5176  1.8240 -0.8250
  635MOL0     O85591   6.000   5.279   5.142  0.0779  0.7012 -0.1644
  635MOL0     C85592   5.995   5.320   5.029 -0.3799  0.2243 -0.0573
  635MOL0     O85593   5.892   5.304   4.938  0.1500  0.6815 -0.1959
  635MOL0     C85594   5.768   5.250   4.988 -0.3721 -0.5588  0.2977
  635MOL0     C85595   5.676   5.226   4.894  0.2475  0.2688  0.1413
  635MOL0     C85596   5.550   5.185   4.922  0.3516 -0.1815 -0.5261
  635MOL0     C85597   5.504   5.192   5.055  0.2974  0.3219 -0.5955
  635MOL0     O85598   5.370   5.170   5.090  0.1126 -0.3176  0.4530
  635MOL0     C85599   5.270   5.254   5.019 -0.0841 -0.0290  0.2533
  635MOL0     C85600   5.308   5.405   5.006 -0.1955  0.2816 -0.1627
  635MOL0     C85601   5.179   5.486   4.986 -0.1972  0.3529  0.0406
  635MOL0     C85602   5.213   5.633   4.968  0.3222 -0.3665  0.8237
  635MOL0     C85603   5.091   5.722   4.929  1.7196 -0.2232 -0.4560
  635MOL0     C85604   5.090   5.861   4.981 -0.2981 -0.2278  0.8098
  635MOL0     C85605   4.963   5.933   4.924 -0.2703  0.4328 -0.3478
  635MOL0     C85606   4.935   6.071   4.993 -0.2231 -0.8482  0.1475
  635MOL0     N85607   4.861   6.060   5.125 -0.3213  0.2261 -0.1418
  635MOL0     C85608   4.729   6.092   5.158  0.0268  0.3846  1.0586
  635MOL0     C85609   4.724   6.071   5.294  0.3952  0.4059 -0.0479
  635MOL0     C85610   4.600   6.100   5.371 -0.3132  0.1024 -0.0887
  635MOL0     C85611   4.538   5.966   5.436  0.4502 -0.6693  0.2006
  635MOL0     C85612   4.481   5.858   5.347 -0.2648  1.2977  0.4443
  635MOL0     C85613   4.373   5.898   5.250 -0.3934  0.0453  0.6398
  635MOL0     O85614   4.296   6.002   5.297  0.5578 -0.8093  0.2558
  635MOL0     C85615   4.218   6.069   5.209 -0.3442 -1.3064  0.0996
  635MOL0     C85616   4.173   6.201   5.240 -0.5265  0.2677 -0.6441
  635MOL0     C85617   4.093   6.274   5.153  0.2621  0.4281 -0.0931
  635MOL0     C85618   4.049   6.411   5.193  1.1945 -0.0754 -0.1203
  635MOL0     C85619   4.033   6.215   5.041  0.4151 -0.2019  0.1031
  635MOL0     C85620   3.931   6.275   4.951  0.2982  0.0491  0.5328
  635MOL0     O85621   3.913   6.212   4.827  0.1222 -0.0095 -0.0747
  635MOL0     C85622   3.814   6.264   4.750  0.6407  0.5994  1.1951
  635MOL0     C85623   3.689   6.216   4.737  0.0627 -0.2942  0.4659
  635MOL0     C85624   3.589   6.280   4.649 -0.4373  0.6456 -0.3101
  635MOL0     C85625   3.634   6.370   4.555 -0.2928  0.3108  0.4784
  635MOL0     O85626   3.544   6.420   4.463  0.0998  0.0759 -0.2088
  635MOL0     C85627   3.431   6.349   4.416  0.9138 -0.1663  0.2503
  635MOL0     C85628   3.398   6.384   4.275 -0.2681 -0.3308 -0.4760
  635MOL0     C85629   3.363   6.531   4.256  0.3850 -0.2373  0.2444
  635MOL0     C85630   3.360   6.565   4.106  0.8347 -0.1855  0.1357
  635MOL0     C85631   3.315   6.718   4.090  0.0322  0.0740 -0.4769
  635MOL0     C85632   3.305   6.773   3.957 -0.0467 -0.5970  1.1639
  635MOL0     C85633   3.440   6.755   3.876  0.5265  0.1393 -0.7250
  635MOL0     C85634   3.426   6.821   3.738  0.4822 -0.5081 -0.0472
  635MOL0    Cl85635   3.319   6.733   3.632 -0.0829 -0.0813 -0.3601
  635MOL0     C85636   3.766   6.420   4.558 -0.0345 -0.3160  0.1092
  635MOL0     C85637   3.854   6.368   4.658  0.2985  0.6504 -1.0803
  635MOL0     O85638   3.858   6.361   4.993 -0.2449 -1.1801 -0.4299
  635MOL0     C85639   4.074   6.079   5.019 -0.3463 -0.5761  0.6294
  635MOL0     C85640   4.164   6.011   5.104  0.0073 -0.1464  0.0237
  635MOL0     N85641   4.850   6.026   5.340 -0.5061  0.6373 -0.1666
  635MOL0     N85642   4.924   6.013   5.237 -0.3604 -1.1648 -0.0241
  635MOL0     C85643   5.589   5.209   5.162 -0.2353 -0.6262  0.1099
  635MOL0     C85644   5.723   5.234   5.122 -0.8021  0.9549 -0.0645
  635MOL0     C85645   6.112   5.397   4.983 -0.0518 -0.9119  0.0307
  635MOL0     C85646   6.089   5.500   4.885  0.4897 -0.0909 -0.1605
  635MOL0     C85647   6.199   5.574   4.834  1.0607  0.4208 -0.2737
  635MOL0     C85648   6.325   5.559   4.883 -0.1170  0.0166 -0.7901
  635MOL0     O85649   6.432   5.643   4.850  0.5495 -0.4973 -0.0532
  635MOL0     C85650   6.401   5.785   4.874 -0.3698  0.5078 -0.3963
  635MOL0     C85651   6.356   5.799   5.015  0.6161 -0.1641  0.3785
  635MOL0     C85652   6.326   5.947   5.050  0.2018 -0.1511 -0.0655
  635MOL0     C85653   6.427   6.027   5.132  0.5178 -0.1933 -0.3138
  635MOL0     C85654   6.553   6.043   5.060 -0.7483 -1.1150  0.1013
  635MOL0     C85655   6.666   6.035   4.997 -0.3253 -0.9904 -0.5126
  635MOL0     C85656   6.348   5.454   4.973 -0.7156 -1.2020  0.5889
  635MOL0     C85657   6.248   5.369   5.013 -0.8662 -1.0618  0.1268
  635MOL0     H85658   5.711   5.227   4.791  0.8382 -0.5008  0.3303
  635MOL0     H85659   5.489   5.152   4.839 -1.2752  1.0504  0.1277
  635MOL0     H85660   5.241   5.209   4.923  1.6017 -0.4239 -0.1049
  635MOL0     H85661   5.180   5.254   5.081  0.4427  0.4097  1.0364
  635MOL0     H85662   5.353   5.440   5.099  0.6691 -0.1326 -0.4147
  635MOL0     H85663   5.377   5.430   4.925 -0.8435  1.8514 -0.2788
  635MOL0     H85664   5.119   5.448   4.903 -3.4135  2.7909  1.0067
  635MOL0     H85665   5.118   5.478   5.077  0.4452  1.6483  0.6067
  635MOL0     H85666   5.257   5.682   5.055 -1.4722  2.1512  0.4174
  635MOL0     H85667   5.286   5.648   4.888 -0.1579  1.2901  0.6677
  635MOL0     H85668   5.088   5.723   4.820  3.0509  0.0764 -0.5119
  635MOL0     H85669   4.999   5.681   4.972 -0.4356  2.9067 -1.7412
  635MOL0     H85670   5.090   5.864   5.090 -0.1612 -3.4724  1.0149
  635MOL0     H85671   5.184   5.909   4.952 -0.5541  0.1097  0.5320
  635MOL0     H85672   4.974   5.951   4.817  0.7878  0.1689 -0.2978
  635MOL0     H85673   4.872   5.873   4.933 -0.2823  0.6661  1.5787
  635MOL0     H85674   4.886   6.140   4.924 -2.6905 -1.8351  0.8035
  635MOL0     H85675   5.036   6.107   5.014  0.3064 -0.8734 -2.1246
  635MOL0     H85676   4.646   6.116   5.092 -0.2679 -0.8981  0.9382
  635MOL0     H85677   4.622   6.168   5.455 -2.2422 -1.3443  1.7012
  635MOL0     H85678   4.529   6.143   5.300  1.5474  0.1157 -2.0311
  635MOL0     H85679   4.452   5.985   5.501  1.3514 -2.5541  2.0250
  635MOL0     H85680   4.606   5.919   5.507  1.8633  5.0204  3.2346
  635MOL0     H85681   4.435   5.786   5.414 -3.1090  1.0280 -1.5922
  635MOL0     H85682   4.558   5.805   5.290  1.4236  3.8332  0.1748
  635MOL0     H85683   4.316   5.810   5.218  2.4534 -1.4834 -0.5957
  635MOL0     H85684   4.427   5.932   5.161  0.1092  0.5454  1.1259
  635MOL0     H85685   4.218   6.262   5.317 -1.9701  0.7566 -0.1471
  635MOL0     H85686   4.071   6.479   5.110 -0.1111 -0.3367 -0.7154
  635MOL0     H85687   3.946   6.396   5.226  1.8831 -2.2062  1.2800
  635MOL0     H85688   4.111   6.451   5.274  1.3734 -1.0395  0.2339
  635MOL0     H85689   3.651   6.148   4.813 -0.1305 -1.2914 -0.4904
  635MOL0     H85690   3.483   6.255   4.645 -0.1585 -0.7807 -4.7324
  635MOL0     H85691   3.439   6.241   4.430 -2.1650 -0.5460 -0.2112
  635MOL0     H85692   3.346   6.381   4.477 -0.5330 -0.1562 -1.6501
  635MOL0     H85693   3.487   6.366   4.214  0.5958 -0.2901  0.7249
  635MOL0     H85694   3.315   6.326   4.233 -0.7701  1.0455 -1.4619
  635MOL0     H85695   3.430   6.601   4.307  0.5273 -0.2226  0.0350
  635MOL0     H85696   3.265   6.533   4.304  0.6065 -3.0896  0.9930
  635MOL0     H85697   3.461   6.551   4.066  0.7109  0.4501 -0.4251
  635MOL0     H85698   3.300   6.494   4.048 -1.1312 -0.8294  2.7683
  635MOL0     H85699   3.387   6.790   4.131  0.8205  0.5872 -2.6302
  635MOL0     H85700   3.214   6.733   4.130  0.0257  3.5338 -1.4762
  635MOL0     H85701   3.221   6.731   3.901  0.9896 -1.6263  0.3379
  635MOL0     H85702   3.294   6.880   3.972  0.2614 -0.6483  1.8152
  635MOL0     H85703   3.466   6.649   3.872 -2.0895 -0.5481 -0.8769
  635MOL0     H85704   3.519   6.813   3.925  1.1423  1.5417 -3.1934
  635MOL0     H85705   3.525   6.822   3.691  0.5724 -2.2230  0.0422
  635MOL0     H85706   3.382   6.920   3.745 -1.4738 -1.2499 -1.0955
  635MOL0     H85707   3.794   6.495   4.484 -1.4259 -0.0481 -0.1760
  635MOL0     H85708   3.951   6.407   4.686  0.2540  0.6042 -0.8572
  635MOL0     H85709   4.057   6.024   4.927  0.7450  0.4010 -0.1869
  635MOL0     H85710   4.188   5.908   5.083 -1.3712 -0.5502  0.2768
  635MOL0     H85711   5.548   5.196   5.262  0.0310 -0.1579  0.2857
  635MOL0     H85712   5.792   5.230   5.206 -0.7497 -1.4971 -0.1515
  635MOL0     H85713   5.986   5.526   4.862  0.8832  4.9009  2.4922
  635MOL0     H85714   6.175   5.646   4.757  0.7701 -0.9897 -1.5571
  635MOL0     H85715   6.490   5.846   4.857 -1.2948  1.6152 -1.4549
  635MOL0     H85716   6.335   5.828   4.799 -1.4522  0.9344  0.7740
  635MOL0     H85717   6.418   5.755   5.094  0.7752  1.9764  1.5199
  635MOL0     H85718   6.258   5.751   5.021  0.1593  0.5686 -0.9599
  635MOL0     H85719   6.238   5.949   5.115  1.3075  0.8096  1.4493
  635MOL0     H85720   6.304   6.003   4.958  3.1061  1.9009  0.3496
  635MOL0     H85721   6.451   5.975   5.225 -1.9442  0.5521  0.8102
  635MOL0     H85722   6.386   6.127   5.149 -0.1280  0.2662 -3.8061
  635MOL0     H85723   6.760   6.017   4.949 -1.5255 -1.8651 -2.6701
  635MOL0     H85724   6.449   5.447   5.012  0.0027  2.2027 -0.3480
  635MOL0     H85725   6.270   5.282   5.075  0.8295 -2.3912 -2.2136
  636MOL0     O85726   8.020   2.419   8.567 -0.7116  0.7209 -0.3309
  636MOL0     C85727   8.049   2.366   8.461  0.0086 -0.0952  0.9947
  636MOL0     O85728   7.958   2.302   8.381  0.5230 -0.4038  0.2506
  636MOL0     C85729   7.825   2.276   8.420 -0.7655 -0.6319  0.3380
  636MOL0     C85730   7.784   2.245   8.552 -0.0569 -0.5201  0.4469
  636MOL0     C85731   7.648   2.213   8.567  0.6683  0.3339 -0.4298
  636MOL0     C85732   7.556   2.212   8.460 -0.6825  0.5187 -0.4422
  636MOL0     O85733   7.425   2.175   8.497 -0.4654 -0.4015 -0.7258
  636MOL0     C85734   7.356   2.098   8.396 -0.2641  0.5928 -0.0223
  636MOL0     C85735   7.205   2.113   8.432  0.5478  0.2895  0.5370
  636MOL0     C85736   7.154   2.050   8.564  0.3530 -0.2245  0.1147
  636MOL0     C85737   6.997   2.057   8.586  0.6613  0.1883  0.0383
  636MOL0     C85738   6.949   2.202   8.585 -0.0623 -1.0380  0.3128
  636MOL0     C85739   6.798   2.217   8.598  0.4757  0.0951 -0.4135
  636MOL0     C85740   6.754   2.363   8.613 -0.4014 -0.7526  0.3629
  636MOL0     C85741   6.704   2.408   8.745  0.6300 -0.4198 -0.5355
  636MOL0     N85742   6.747   2.545   8.770 -0.4203  0.2660  0.4608
  636MOL0     C85743   6.676   2.659   8.786 -0.0293 -0.4009  0.3748
  636MOL0     C85744   6.754   2.765   8.824  0.0385  0.5626  0.1702
  636MOL0     C85745   6.711   2.906   8.831 -0.3921 -0.1425  0.5371
  636MOL0     C85746   6.566   2.939   8.811 -0.1324  0.7338 -0.5385
  636MOL0     C85747   6.535   3.087   8.850 -0.0855  0.9523  0.2991
  636MOL0     C85748   6.395   3.131   8.807  0.4021  0.0882 -0.4294
  636MOL0     O85749   6.305   3.047   8.881  0.3127 -0.5884  0.8174
  636MOL0     C85750   6.212   3.120   8.956 -0.2670  0.5743  0.8220
  636MOL0     C85751   6.137   3.228   8.908 -0.7024 -0.4225  0.1369
  636MOL0     C85752   6.038   3.286   8.983  0.5906  0.1819 -0.0447
  636MOL0     C85753   5.959   3.393   8.924  0.3760 -0.0644 -0.4707
  636MOL0     C85754   6.014   3.236   9.119 -0.1251  0.4222  0.1301
  636MOL0     C85755   5.906   3.290   9.202 -0.6528  0.0137 -0.7271
  636MOL0     O85756   5.879   3.426   9.192 -0.0714  0.1831  0.6430
  636MOL0     C85757   5.760   3.466   9.231 -0.3376 -0.7398 -0.5770
  636MOL0     C85758   5.660   3.446   9.140  0.3581 -0.3785  0.4802
  636MOL0     C85759   5.534   3.485   9.171  0.8464 -0.4080  0.4526
  636MOL0     C85760   5.493   3.541   9.290 -0.4801  0.5965 -0.3432
  636MOL0     O85761   5.365   3.571   9.333  0.3221 -0.3087 -0.5697
  636MOL0     C85762   5.254   3.572   9.241 -0.3642 -0.8594  0.7266
  636MOL0     C85763   5.136   3.593   9.322 -0.3068 -0.1018  0.7795
  636MOL0     C85764   5.014   3.653   9.242  0.1200 -0.8351 -0.2614
  636MOL0     C85765   4.897   3.670   9.333  1.0621 -0.0758 -0.0414
  636MOL0     C85766   4.782   3.731   9.248  0.0463 -0.5208 -0.2363
  636MOL0     C85767   4.639   3.699   9.319 -0.4945  0.1794 -0.1935
  636MOL0     C85768   4.513   3.727   9.233  0.7965  1.0054 -0.1458
  636MOL0     C85769   4.380   3.719   9.300  0.2029 -0.5965  0.5414
  636MOL0    Cl85770   4.349   3.558   9.368 -0.3835  0.0102  0.0956
  636MOL0     C85771   5.607   3.558   9.380  0.2077  0.0078  0.0563
  636MOL0     C85772   5.736   3.530   9.354 -0.9579  0.5062  0.2444
  636MOL0     O85773   5.843   3.207   9.269 -0.5054  0.0553 -0.5933
  636MOL0     C85774   6.078   3.119   9.154 -0.7248  0.7824  0.6085
  636MOL0     C85775   6.186   3.066   9.078  0.3637 -0.0149 -0.9196
  636MOL0     N85776   6.892   2.718   8.818 -0.3604 -0.2725 -0.1621
  636MOL0     N85777   6.876   2.583   8.794 -0.9438 -0.7505  0.5890
  636MOL0     C85778   7.597   2.244   8.336 -0.4660  0.7363 -0.6305
  636MOL0     C85779   7.734   2.267   8.319 -0.8067 -0.1766 -0.3400
  636MOL0     C85780   8.187   2.358   8.415  0.9497  0.3392  0.2500
  636MOL0     C85781   8.227   2.294   8.301  0.6985 -0.4904 -0.1683
  636MOL0     C85782   8.359   2.259   8.269 -0.4794  0.2039 -1.2916
  636MOL0     C85783   8.460   2.306   8.357  0.3356 -0.0307 -0.5377
  636MOL0     O85784   8.593   2.280   8.325 -0.2585 -0.3394 -0.1893
  636MOL0     C85785   8.707   2.327   8.404  0.0489 -0.3713 -0.1183
  636MOL0     C85786   8.848   2.273   8.345  0.2039 -0.1794 -0.2266
  636MOL0     C85787   8.883   2.321   8.208 -0.5323  0.7302  0.0186
  636MOL0     C85788   9.034   2.316   8.180  0.5500  0.2448 -0.2456
  636MOL0     C85789   9.115   2.418   8.258  0.1140 -0.0442 -0.4763
  636MOL0     C85790   9.180   2.518   8.294 -0.0798  0.4297  0.1448
  636MOL0     C85791   8.420   2.385   8.469  0.0634 -0.7327  1.0387
  636MOL0     C85792   8.285   2.396   8.498 -0.3706  0.1321  0.4169
  636MOL0     H85793   7.860   2.246   8.630 -1.0927 -0.3087  1.4762
  636MOL0     H85794   7.606   2.188   8.664  1.3469  1.7728  0.2703
  636MOL0     H85795   7.377   2.144   8.299  2.2635  1.0743  0.6793
  636MOL0     H85796   7.396   1.996   8.394  4.8523  2.2441  2.1260
  636MOL0     H85797   7.188   2.221   8.441 -0.0226  0.2629 -0.1581
  636MOL0     H85798   7.146   2.086   8.344 -0.6495  3.1981  0.3180
  636MOL0     H85799   7.186   1.946   8.552 -0.6712 -0.2700 -3.2103
  636MOL0     H85800   7.203   2.095   8.651 -0.0504  0.6270 -0.0881
  636MOL0     H85801   6.941   2.009   8.505 -0.6505 -1.8381  1.9934
  636MOL0     H85802   6.969   2.007   8.680 -0.4843 -1.9033 -1.3362
  636MOL0     H85803   6.990   2.262   8.667 -2.1013 -1.0335  1.3762
  636MOL0     H85804   6.970   2.247   8.488  1.7270 -0.4459  0.9154
  636MOL0     H85805   6.746   2.174   8.511  1.8558 -0.1469 -1.1559
  636MOL0     H85806   6.758   2.154   8.677 -0.7907  2.4165  0.8919
  636MOL0     H85807   6.831   2.432   8.576 -1.0100 -0.6916 -0.8063
  636MOL0     H85808   6.674   2.380   8.540 -0.8833  2.8389  1.5070
  636MOL0     H85809   6.743   2.341   8.823  1.0511 -1.6405 -1.7456
  636MOL0     H85810   6.597   2.393   8.762  0.9683  0.2644  2.9460
  636MOL0     H85811   6.569   2.663   8.766 -0.3684 -3.6900  0.9790
  636MOL0     H85812   6.747   2.944   8.927 -0.2964  1.0531  0.0382
  636MOL0     H85813   6.765   2.977   8.768 -2.9027  0.5894 -0.9463
  636MOL0     H85814   6.506   2.868   8.869  0.9501  1.0801  1.0474
  636MOL0     H85815   6.528   2.933   8.708 -2.5945  3.3672  0.0983
  636MOL0     H85816   6.600   3.152   8.791 -1.1536 -1.8159 -4.4411
  636MOL0     H85817   6.551   3.103   8.957 -0.5123  0.5430  0.4295
  636MOL0     H85818   6.392   3.109   8.700 -2.3607 -1.1507 -0.1866
  636MOL0     H85819   6.384   3.236   8.833  0.3029 -0.3482  1.4826
  636MOL0     H85820   6.169   3.270   8.813  1.4093 -3.7903 -0.8598
  636MOL0     H85821   5.853   3.363   8.920 -0.7940  3.1287  2.1157
  636MOL0     H85822   5.966   3.484   8.983  3.1920 -1.8976  2.3569
  636MOL0     H85823   5.990   3.423   8.823  0.4633 -0.1681 -0.4738
  636MOL0     H85824   5.674   3.402   9.041 -0.0444  0.1692  0.1732
  636MOL0     H85825   5.460   3.477   9.092  0.1687 -0.5557  1.0913
  636MOL0     H85826   5.252   3.654   9.169 -0.9587 -0.4925  1.1554
  636MOL0     H85827   5.261   3.477   9.187  1.0676  0.2591 -1.1472
  636MOL0     H85828   5.113   3.494   9.363  3.1762 -1.4649 -0.1633
  636MOL0     H85829   5.160   3.660   9.405 -0.4940 -0.6528  1.2882
  636MOL0     H85830   4.995   3.582   9.161  2.9912 -0.3190 -1.5091
  636MOL0     H85831   5.043   3.745   9.192 -2.4823  0.4708  0.4657
  636MOL0     H85832   4.869   3.569   9.365  2.7390 -1.3968 -2.3857
  636MOL0     H85833   4.922   3.733   9.418  3.8579 -0.2561 -0.6432
  636MOL0     H85834   4.785   3.684   9.150  2.2575  2.0931 -1.5658
  636MOL0     H85835   4.789   3.840   9.240 -0.7822 -0.4269  0.1605
  636MOL0     H85836   4.635   3.590   9.330  2.4185 -0.1672 -1.4673
  636MOL0     H85837   4.630   3.746   9.417 -3.0634 -0.0630 -0.2641
  636MOL0     H85838   4.505   3.660   9.146 -0.9769 -0.6900  1.2191
  636MOL0     H85839   4.535   3.823   9.187  3.0546  0.0769 -1.1454
  636MOL0     H85840   4.294   3.729   9.234  0.5186 -1.8820 -0.0965
  636MOL0     H85841   4.370   3.787   9.385  1.8015 -1.2822  1.3142
  636MOL0     H85842   5.589   3.620   9.467  0.6823  0.0673  0.1179
  636MOL0     H85843   5.818   3.572   9.411  0.4349 -0.4105 -1.0159
  636MOL0     H85844   6.065   3.071   9.250 -0.7360  0.9420  0.6874
  636MOL0     H85845   6.225   2.973   9.118  1.4365  0.7001 -0.2654
  636MOL0     H85846   7.529   2.243   8.252 -0.2018 -2.8300 -0.9626
  636MOL0     H85847   7.776   2.296   8.223  3.3631  0.6838  1.5414
  636MOL0     H85848   8.149   2.260   8.233 -2.5353  1.9836  1.9890
  636MOL0     H85849   8.379   2.200   8.181 -5.1078 -0.6111 -2.0602
  636MOL0     H85850   8.714   2.436   8.396 -0.9422 -0.4133 -2.0638
  636MOL0     H85851   8.691   2.300   8.509 -1.5285 -0.6782 -0.4133
  636MOL0     H85852   8.835   2.164   8.338  2.6973 -0.5285 -0.4779
  636MOL0     H85853   8.924   2.296   8.420  2.4112  1.3865 -2.7922
  636MOL0     H85854   8.853   2.426   8.208 -0.3869  0.7771 -0.5157
  636MOL0     H85855   8.836   2.258   8.133 -0.6714  0.9815 -0.1071
  636MOL0     H85856   9.054   2.329   8.073  0.8739  0.1948 -0.1937
  636MOL0     H85857   9.060   2.215   8.212  0.2478 -0.1509 -1.2158
  636MOL0     H85858   9.240   2.594   8.339  1.9445 -1.2797  0.4627
  636MOL0     H85859   8.494   2.427   8.537  1.9763 -2.2359 -0.0168
  636MOL0     H85860   8.255   2.447   8.590 -0.6156  1.1105 -0.1819
  637MOL0     O85861   1.883   4.075   2.899  0.3608  0.8058  0.2307
  637MOL0     C85862   1.935   3.979   2.839 -0.0969  0.4830 -0.9029
  637MOL0     O85863   2.035   3.902   2.884 -0.1652  0.5100 -0.2377
  637MOL0     C85864   2.062   3.910   3.022 -0.4416 -0.2071  0.3096
  637MOL0     C85865   1.977   3.856   3.125 -0.9959  0.9597 -0.2790
  637MOL0     C85866   2.018   3.868   3.257 -0.2404 -0.3680 -0.7358
  637MOL0     C85867   2.136   3.948   3.293  0.2858  0.2360  1.1783
  637MOL0     O85868   2.165   3.953   3.430  0.5251 -0.0056 -0.5308
  637MOL0     C85869   2.244   4.070   3.475  0.1746  0.3056 -0.3717
  637MOL0     C85870   2.239   4.084   3.627 -0.3955  0.6650 -0.4135
  637MOL0     C85871   2.312   3.967   3.699  0.0505  0.2102  0.0898
  637MOL0     C85872   2.267   3.957   3.849 -0.7872 -0.1123  0.3273
  637MOL0     C85873   2.337   3.842   3.923  0.6676 -0.4833 -0.1010
  637MOL0     C85874   2.268   3.808   4.051 -0.1089  0.2270  0.3995
  637MOL0     C85875   2.277   3.919   4.154  0.4066  0.1503 -0.0748
  637MOL0     C85876   2.225   3.849   4.280 -0.2542 -0.0117 -1.1858
  637MOL0     N85877   2.090   3.791   4.274 -0.8802  1.0112  0.3723
  637MOL0     C85878   2.062   3.658   4.262  0.2313  0.4726 -0.8316
  637MOL0     C85879   1.934   3.643   4.215 -0.5379 -0.0912 -0.6872
  637MOL0     C85880   1.875   3.505   4.192  0.4205  0.4939 -0.1337
  637MOL0     C85881   1.720   3.493   4.211  0.0729  0.1735 -0.1819
  637MOL0     C85882   1.647   3.498   4.079  0.4748 -0.6528  0.3989
  637MOL0     C85883   1.492   3.471   4.093 -0.6751  0.2828 -0.0013
  637MOL0     O85884   1.447   3.549   4.209 -0.1461 -0.3584 -0.2271
  637MOL0     C85885   1.322   3.543   4.255  0.1799  1.1779 -0.6767
  637MOL0     C85886   1.228   3.448   4.222  0.3690 -0.0978  0.7660
  637MOL0     C85887   1.100   3.451   4.279  0.0420 -0.3622 -0.3089
  637MOL0     C85888   1.012   3.339   4.226  0.4799 -0.7541  0.2737
  637MOL0     C85889   1.058   3.566   4.354  0.6185  0.2312 -0.5124
  637MOL0     C85890   0.914   3.607   4.387 -1.1244  0.3517  1.1373
  637MOL0     O85891   0.892   3.722   4.460  0.1852  0.0917 -0.6755
  637MOL0     C85892   0.760   3.736   4.496 -0.5011 -1.0194  0.2531
  637MOL0     C85893   0.696   3.857   4.468  0.3028 -0.4135 -0.8504
  637MOL0     C85894   0.577   3.896   4.510  0.7907 -0.3017 -0.5406
  637MOL0     C85895   0.506   3.815   4.593 -0.4177  0.3611 -0.8545
  637MOL0     O85896   0.375   3.864   4.612 -0.9775  0.1191 -1.1914
  637MOL0     C85897   0.282   3.760   4.651 -0.1942 -0.0659 -0.3194
  637MOL0     C85898   0.149   3.828   4.661  0.0202  0.1578 -0.4077
  637MOL0     C85899   0.052   3.742   4.739  0.1142 -0.1091  0.1934
  637MOL0     C85900   0.076   3.759   4.890  0.2466 -0.5032  0.1352
  637MOL0     C85901  -0.031   3.705   4.992  0.1567 -0.3547 -0.7355
  637MOL0     C85902   0.020   3.702   5.137  0.5064  0.2391  0.6908
  637MOL0     C85903  -0.076   3.619   5.216  0.2346  0.2184 -0.9078
  637MOL0     C85904  -0.039   3.625   5.369 -0.0371 -0.4552 -1.0116
  637MOL0    Cl85905  -0.163   3.526   5.471 -0.3196  0.1691  0.4470
  637MOL0     C85906   0.573   3.698   4.642 -0.7790  0.6762  0.3673
  637MOL0     C85907   0.703   3.663   4.595  0.9006 -0.1434 -0.4510
  637MOL0     O85908   0.829   3.539   4.325 -0.1434  0.3070 -0.5718
  637MOL0     C85909   1.157   3.658   4.379  0.4684 -0.8082 -0.4403
  637MOL0     C85910   1.285   3.650   4.335 -0.0208 -0.0643 -0.2477
  637MOL0     N85911   1.890   3.768   4.196  0.0867  1.1948 -0.0511
  637MOL0     N85912   1.982   3.855   4.222 -0.5467 -0.0391 -1.4801
  637MOL0     C85913   2.206   4.007   3.188 -0.1324  0.3953 -0.1391
  637MOL0     C85914   2.175   3.985   3.053 -1.0149 -0.1853  0.1996
  637MOL0     C85915   1.879   3.936   2.712 -0.8463 -0.0972 -0.0081
  637MOL0     C85916   1.961   3.854   2.634  1.1207  0.1207 -0.0993
  637MOL0     C85917   1.912   3.810   2.512 -0.4847  0.5744  0.5445
  637MOL0     C85918   1.784   3.843   2.465 -0.2628  0.3721 -0.3781
  637MOL0     O85919   1.736   3.804   2.335 -0.0881  0.1658 -0.1849
  637MOL0     C85920   1.810   3.713   2.249 -0.6128 -0.4666  0.3070
  637MOL0     C85921   1.723   3.685   2.125  0.2440 -0.9401  0.3723
  637MOL0     C85922   1.602   3.606   2.151 -0.5486  0.0291 -0.6388
  637MOL0     C85923   1.541   3.537   2.025 -0.0517 -0.2307  0.1828
  637MOL0     C85924   1.477   3.628   1.932  0.3432 -1.0681  0.4882
  637MOL0     C85925   1.415   3.712   1.867  1.7728 -0.3872 -0.2404
  637MOL0     C85926   1.698   3.918   2.555 -0.0470 -0.9144 -0.1829
  637MOL0     C85927   1.742   3.962   2.679  0.0929 -0.7166  0.7930
  637MOL0     H85928   1.892   3.796   3.095  0.5771 -1.8223  0.5414
  637MOL0     H85929   1.962   3.815   3.334 -0.8168  0.6392 -0.4389
  637MOL0     H85930   2.346   4.055   3.438  0.2323  1.1389 -0.5775
  637MOL0     H85931   2.201   4.165   3.442  0.2558  0.8411  0.9969
  637MOL0     H85932   2.295   4.178   3.640  3.2271 -1.1826 -1.3915
  637MOL0     H85933   2.138   4.089   3.668 -0.7372  0.9690 -1.2890
  637MOL0     H85934   2.288   3.876   3.642 -2.2414  0.3094  0.8101
  637MOL0     H85935   2.419   3.987   3.706 -0.4520  2.3926  3.7097
  637MOL0     H85936   2.274   4.051   3.905  1.0220  0.2019 -0.3758
  637MOL0     H85937   2.161   3.931   3.838 -0.0278 -3.1214 -1.0308
  637MOL0     H85938   2.340   3.756   3.856  0.8940 -0.5326 -0.0289
  637MOL0     H85939   2.439   3.878   3.941  0.8014  1.4856 -3.8735
  637MOL0     H85940   2.163   3.783   4.034 -0.1538 -1.2976  2.5390
  637MOL0     H85941   2.318   3.713   4.074 -0.9084 -0.3823 -0.2989
  637MOL0     H85942   2.380   3.947   4.178  0.6030  1.1556 -1.8769
  637MOL0     H85943   2.228   4.014   4.132  1.7925  0.9479  0.1472
  637MOL0     H85944   2.218   3.923   4.360  0.2679 -0.1946 -0.9609
  637MOL0     H85945   2.300   3.780   4.321 -1.6693  0.0567  1.6993
  637MOL0     H85946   2.126   3.576   4.294  0.0171  0.2690 -0.9179
  637MOL0     H85947   1.915   3.480   4.093  1.0072 -0.3088  0.2968
  637MOL0     H85948   1.920   3.437   4.264 -0.8159 -0.8011 -0.5324
  637MOL0     H85949   1.685   3.557   4.293  1.6886 -0.1706  0.8311
  637MOL0     H85950   1.699   3.390   4.242 -0.8538  0.9878  2.1483
  637MOL0     H85951   1.690   3.427   4.007 -0.7185 -1.9035  0.8664
  637MOL0     H85952   1.659   3.597   4.034 -0.4061 -1.3022 -1.4034
  637MOL0     H85953   1.488   3.364   4.116  1.7522  0.4479  1.5253
  637MOL0     H85954   1.441   3.492   3.999  0.2444 -0.8246 -0.7624
  637MOL0     H85955   1.258   3.365   4.159 -0.4272 -1.2545  1.8562
  637MOL0     H85956   0.914   3.335   4.275  0.2957  1.6821  0.1883
  637MOL0     H85957   1.008   3.345   4.116  5.1327 -3.8563 -0.3483
  637MOL0     H85958   1.066   3.245   4.241  0.9575 -0.6812 -0.8498
  637MOL0     H85959   0.734   3.924   4.391 -0.7323 -0.3857 -1.3673
  637MOL0     H85960   0.528   3.990   4.484 -3.0868 -1.6442  1.2180
  637MOL0     H85961   0.284   3.685   4.571 -3.1809 -0.4421 -0.1570
  637MOL0     H85962   0.311   3.717   4.747  3.3868 -0.2963 -1.3336
  637MOL0     H85963   0.142   3.934   4.685 -1.6442 -0.3517  1.6627
  637MOL0     H85964   0.105   3.838   4.562 -0.5449 -1.1757 -0.3157
  637MOL0     H85965   0.069   3.639   4.708  3.4200  0.2681  0.4587
  637MOL0     H85966  -0.051   3.773   4.718  0.4306  0.8271 -0.0463
  637MOL0     H85967   0.166   3.703   4.916 -1.0749 -3.0988 -0.5399
  637MOL0     H85968   0.099   3.862   4.916 -0.0074 -0.1238 -1.0669
  637MOL0     H85969  -0.070   3.606   4.964 -3.5319 -0.2028  2.9027
  637MOL0     H85970  -0.121   3.764   5.006 -1.6449 -3.6670  5.7331
  637MOL0     H85971   0.118   3.654   5.145  0.2506 -0.2317  1.0719
  637MOL0     H85972   0.033   3.806   5.170 -1.4592  0.4744  0.8433
  637MOL0     H85973  -0.081   3.520   5.170  2.1125  0.4385 -1.6516
  637MOL0     H85974  -0.177   3.661   5.217  0.1301 -0.0141  0.5337
  637MOL0     H85975  -0.037   3.730   5.398 -0.6524 -0.6243 -0.3295
  637MOL0     H85976   0.063   3.586   5.376  0.9694  1.4561 -3.4793
  637MOL0     H85977   0.517   3.640   4.715 -2.2566  4.4732  2.5375
  637MOL0     H85978   0.759   3.578   4.632  3.7946  1.9858  0.4348
  637MOL0     H85979   1.145   3.757   4.422  1.1328  0.6982 -3.3993
  637MOL0     H85980   1.346   3.736   4.361  2.2282 -1.9901  1.1759
  637MOL0     H85981   2.293   4.066   3.216 -1.2022  1.9972 -0.0830
  637MOL0     H85982   2.227   4.026   2.967 -4.0360  0.1666 -1.6256
  637MOL0     H85983   2.065   3.830   2.654  0.8853 -0.4466  0.4705
  637MOL0     H85984   1.989   3.757   2.457  0.6229  0.7526  1.8829
  637MOL0     H85985   1.903   3.764   2.224  0.4711 -1.3405  2.3431
  637MOL0     H85986   1.839   3.625   2.307  1.0267 -0.2642 -0.1642
  637MOL0     H85987   1.785   3.644   2.045 -0.1228 -1.4184  0.3311
  637MOL0     H85988   1.691   3.786   2.097  3.4702 -0.6714 -3.1493
  637MOL0     H85989   1.529   3.679   2.188 -0.1301  1.6665 -2.7993
  637MOL0     H85990   1.630   3.531   2.226  2.8511  1.3775 -0.3661
  637MOL0     H85991   1.472   3.461   2.064  1.2231 -0.6815  1.6562
  637MOL0     H85992   1.627   3.493   1.975  2.1523  0.5805  3.0061
  637MOL0     H85993   1.334   3.776   1.837 -0.4461 -1.8817  2.0981
  637MOL0     H85994   1.599   3.945   2.518 -0.5425  1.1981  2.3470
  637MOL0     H85995   1.677   4.025   2.740 -0.0998  0.9787 -1.0484
  638MOL0     O85996   2.304   4.074   5.729 -0.0564  0.7646 -0.8428
  638MOL0     C85997   2.349   3.973   5.788 -0.0585 -0.2051  0.3691
  638MOL0     O85998   2.284   3.897   5.880 -0.1968 -0.2346 -0.3735
  638MOL0     C85999   2.159   3.932   5.910  0.3915  0.2906 -0.8121
  638MOL0     C86000   2.136   4.018   6.019 -0.1042 -0.3715  0.0531
  638MOL0     C86001   2.004   4.066   6.046 -0.3483  0.4564  0.2722
  638MOL0     C86002   1.894   4.028   5.962 -1.2430  0.3628  0.7132
  638MOL0     O86003   1.781   4.085   5.999  0.6313  0.6049 -0.0945
  638MOL0     C86004   1.664   4.058   5.922 -0.0426 -0.7412 -0.3095
  638MOL0     C86005   1.540   4.131   5.974  0.6401  0.2912  0.2148
  638MOL0     C86006   1.519   4.107   6.123  0.4840  0.4776  0.8602
  638MOL0     C86007   1.392   4.175   6.180 -0.0226  0.0484  0.4204
  638MOL0     C86008   1.358   4.128   6.324  0.8339 -0.4896  0.1770
  638MOL0     C86009   1.208   4.124   6.357 -0.4016  0.2653 -0.0290
  638MOL0     C86010   1.123   4.252   6.381  0.4321  0.7448  0.5850
  638MOL0     C86011   1.003   4.224   6.474  0.7216  0.1955  0.0441
  638MOL0     N86012   0.895   4.172   6.396  0.3994  0.2246 -0.9546
  638MOL0     C86013   0.887   4.036   6.354 -0.8456  0.0813 -0.0580
  638MOL0     C86014   0.771   4.032   6.283  0.7052 -0.2546 -0.3806
  638MOL0     C86015   0.717   3.914   6.198 -0.3066  0.1699 -0.4593
  638MOL0     C86016   0.597   3.839   6.258  0.1073  0.6715 -1.6227
  638MOL0     C86017   0.471   3.925   6.291  1.3760 -0.3604  0.2480
  638MOL0     C86018   0.341   3.850   6.290 -0.3129  0.7208 -0.2744
  638MOL0     O86019   0.332   3.746   6.394 -0.5908  0.1197  0.8728
  638MOL0     C86020   0.214   3.704   6.443  0.0643 -0.3046  0.0466
  638MOL0     C86021   0.211   3.619   6.549 -0.1907 -0.2759  0.2979
  638MOL0     C86022   0.095   3.561   6.592 -0.7798  0.0895 -0.9318
  638MOL0     C86023   0.113   3.463   6.709 -0.0347 -0.2878 -0.7236
  638MOL0     C86024  -0.030   3.593   6.530  0.7291  0.0028 -0.0479
  638MOL0     C86025  -0.158   3.531   6.570 -0.9811 -0.3641 -0.0223
  638MOL0     O86026  -0.242   3.480   6.469 -1.0803  0.9171 -0.0294
  638MOL0     C86027  -0.369   3.436   6.497 -0.5260 -0.3692 -0.1708
  638MOL0     C86028  -0.450   3.464   6.383 -0.0094  1.0303  0.5240
  638MOL0     C86029  -0.585   3.416   6.392  0.1977  0.7215 -0.1716
  638MOL0     C86030  -0.637   3.351   6.507 -1.0109  0.2177  1.0076
  638MOL0     O86031  -0.761   3.304   6.500  0.3182  0.0468  0.1199
  638MOL0     C86032  -0.862   3.392   6.455 -1.1328 -0.1390  0.3259
  638MOL0     C86033  -0.967   3.319   6.368  0.0229 -0.2786 -0.5207
  638MOL0     C86034  -1.096   3.404   6.341 -0.4449  0.5289 -0.9782
  638MOL0     C86035  -1.215   3.313   6.298 -1.5529  0.5175  0.2209
  638MOL0     C86036  -1.348   3.393   6.302  0.2520  0.5629  0.8061
  638MOL0     C86037  -1.474   3.312   6.277  0.0597 -0.2329  0.2384
  638MOL0     C86038  -1.487   3.273   6.130  0.1347  0.7583 -0.9156
  638MOL0     C86039  -1.502   3.388   6.031  0.2675 -0.4692 -0.3085
  638MOL0    Cl86040  -1.662   3.474   6.051 -0.1182  0.0330 -0.7307
  638MOL0     C86041  -0.558   3.325   6.616 -0.4764  0.3530 -0.7127
  638MOL0     C86042  -0.420   3.369   6.610  0.8730 -0.3040 -0.7530
  638MOL0     O86043  -0.183   3.531   6.687 -0.1392  0.2434  0.0052
  638MOL0     C86044  -0.025   3.684   6.420 -0.2249  0.0686  0.1565
  638MOL0     C86045   0.096   3.740   6.384 -0.7683 -0.7888  0.6608
  638MOL0     N86046   0.706   4.156   6.291 -0.1040  0.3358  0.1879
  638MOL0     N86047   0.781   4.237   6.349  0.0964  0.1018 -0.5095
  638MOL0     C86048   1.918   3.934   5.861 -0.7850  0.8237  1.0844
  638MOL0     C86049   2.046   3.892   5.833  0.1801 -1.0030 -0.2857
  638MOL0     C86050   2.484   3.929   5.747  0.0454  0.2838  0.3671
  638MOL0     C86051   2.542   3.820   5.804  0.3565  0.1423  0.3919
  638MOL0     C86052   2.670   3.782   5.768  1.1012 -0.0588  0.3271
  638MOL0     C86053   2.745   3.859   5.683 -0.2336 -0.8921 -0.6551
  638MOL0     O86054   2.878   3.821   5.676  0.2415  0.6695  0.4277
  638MOL0     C86055   2.971   3.913   5.623 -0.0800 -0.6483  0.0563
  638MOL0     C86056   2.986   3.879   5.470  0.5466  0.5918 -0.2556
  638MOL0     C86057   3.071   3.977   5.400  0.3800  1.1098 -0.7016
  638MOL0     C86058   3.050   3.966   5.243 -0.4003  0.0860  0.0448
  638MOL0     C86059   2.926   4.039   5.211 -0.5182  0.6715 -0.5991
  638MOL0     C86060   2.823   4.096   5.182  0.4900 -0.4765  0.1063
  638MOL0     C86061   2.694   3.972   5.621 -0.4357  0.5335  0.1496
  638MOL0     C86062   2.568   4.014   5.664 -0.7054 -0.5954 -0.1987
  638MOL0     H86063   2.222   4.036   6.084  0.8569 -1.0755 -0.9937
  638MOL0     H86064   1.986   4.131   6.131 -2.8197  0.4417 -0.1761
  638MOL0     H86065   1.685   4.094   5.821  2.2118  1.6421  0.8951
  638MOL0     H86066   1.641   3.951   5.931  2.4729 -1.2273  1.4339
  638MOL0     H86067   1.548   4.236   5.946 -3.3853  1.0815  1.3577
  638MOL0     H86068   1.451   4.107   5.916 -0.0016 -0.9492  1.6431
  638MOL0     H86069   1.515   3.998   6.123  2.9980  0.3209 -0.4280
  638MOL0     H86070   1.608   4.133   6.180 -1.3011 -0.2703  4.2732
  638MOL0     H86071   1.418   4.281   6.187  0.8739 -0.2055  1.1226
  638MOL0     H86072   1.310   4.158   6.110  0.3822 -0.7455  0.1252
  638MOL0     H86073   1.402   4.028   6.330  1.4919 -0.5355 -3.3985
  638MOL0     H86074   1.404   4.199   6.393 -0.5917  3.0820 -2.2628
  638MOL0     H86075   1.160   4.074   6.273 -2.3124  0.1414  1.0833
  638MOL0     H86076   1.205   4.048   6.436  4.1718 -0.7978 -0.5905
  638MOL0     H86077   1.186   4.330   6.425 -1.8502  2.8880  0.2900
  638MOL0     H86078   1.088   4.290   6.285 -1.2304 -0.0804  0.8270
  638MOL0     H86079   0.981   4.318   6.525  2.3115  1.1907 -1.0049
  638MOL0     H86080   1.027   4.154   6.555 -2.2137 -0.8996  0.0899
  638MOL0     H86081   0.951   3.953   6.381  0.3799  0.5778 -1.3490
  638MOL0     H86082   0.690   3.951   6.099 -3.3270 -2.1108 -0.6204
  638MOL0     H86083   0.801   3.845   6.185  1.2395  1.9918 -0.7700
  638MOL0     H86084   0.628   3.792   6.351  0.9078  2.9045 -0.7052
  638MOL0     H86085   0.568   3.761   6.186  3.6930 -0.8150 -1.6377
  638MOL0     H86086   0.458   3.992   6.206 -0.3798 -2.7691 -1.5571
  638MOL0     H86087   0.476   3.974   6.388  0.8956 -1.4601  0.8451
  638MOL0     H86088   0.334   3.800   6.193  1.1025  1.8551 -0.9920
  638MOL0     H86089   0.262   3.926   6.298  1.8551  3.0741 -0.1435
  638MOL0     H86090   0.310   3.596   6.587  0.0860  0.6421  0.1520
  638MOL0     H86091   0.061   3.504   6.796 -0.0170  0.4262 -1.0471
  638MOL0     H86092   0.057   3.372   6.681  0.6058 -0.3738 -1.8011
  638MOL0     H86093   0.218   3.434   6.720 -0.1386  0.0300  1.7029
  638MOL0     H86094  -0.420   3.525   6.298 -1.4723  2.0042  0.6717
  638MOL0     H86095  -0.645   3.431   6.302 -1.8551 -0.2953  0.9310
  638MOL0     H86096  -0.898   3.432   6.550 -1.6184 -1.1341  0.5761
  638MOL0     H86097  -0.827   3.477   6.397  3.4956  0.1356  3.0103
  638MOL0     H86098  -0.929   3.294   6.268  0.2579  1.9287 -1.0415
  638MOL0     H86099  -0.989   3.227   6.422 -0.8504  0.5291  0.5217
  638MOL0     H86100  -1.089   3.486   6.268  0.5935 -0.2980 -1.8446
  638MOL0     H86101  -1.120   3.441   6.441 -0.2200 -1.9396  0.0475
  638MOL0     H86102  -1.195   3.269   6.200 -1.1361  1.2385 -0.0258
  638MOL0     H86103  -1.217   3.237   6.376 -0.0002  1.9093  1.6761
  638MOL0     H86104  -1.339   3.482   6.238 -1.4527 -0.6420 -1.2567
  638MOL0     H86105  -1.355   3.435   6.403  0.1789 -0.2724  1.1549
  638MOL0     H86106  -1.461   3.219   6.334 -2.9801 -0.5066  0.6615
  638MOL0     H86107  -1.564   3.362   6.314  0.1834  1.5321 -1.6624
  638MOL0     H86108  -1.572   3.204   6.118  0.5394  0.3842 -1.7750
  638MOL0     H86109  -1.399   3.215   6.100 -0.6076  0.8642 -3.5534
  638MOL0     H86110  -1.497   3.342   5.932  0.7797  0.0857 -0.5470
  638MOL0     H86111  -1.428   3.464   6.059 -0.5872 -0.5671  2.5183
  638MOL0     H86112  -0.614   3.266   6.687 -1.9784  1.7086 -0.7234
  638MOL0     H86113  -0.365   3.332   6.696 -0.8867 -1.7813 -0.1884
  638MOL0     H86114  -0.115   3.707   6.364  0.9964  1.8369 -1.2063
  638MOL0     H86115   0.089   3.795   6.291  1.4972 -1.2063  0.2069
  638MOL0     H86116   1.852   3.907   5.779  2.7817  2.7512 -2.8348
  638MOL0     H86117   2.067   3.819   5.755 -1.3728 -2.4117  0.5571
  638MOL0     H86118   2.490   3.758   5.877 -0.1301 -1.0394 -0.9124
  638MOL0     H86119   2.709   3.695   5.820  0.7245 -0.3271  0.1666
  638MOL0     H86120   2.942   4.018   5.640  3.1028  0.1345  1.4376
  638MOL0     H86121   3.067   3.891   5.671  0.5141  1.7289  0.0888
  638MOL0     H86122   2.885   3.880   5.427  0.1777 -0.4375  0.5244
  638MOL0     H86123   3.030   3.779   5.464  0.4827  0.3486  2.3063
  638MOL0     H86124   3.175   3.961   5.430  0.1972  1.0639 -0.0666
  638MOL0     H86125   3.054   4.079   5.435  1.4318  0.1796  2.9419
  638MOL0     H86126   3.046   3.864   5.203  0.8318 -0.0459  0.2184
  638MOL0     H86127   3.133   4.016   5.193 -2.9199  2.7241 -1.8003
  638MOL0     H86128   2.734   4.141   5.145  0.0351 -0.9362  0.6356
  638MOL0     H86129   2.750   4.036   5.554  0.6700 -2.3991 -1.9112
  638MOL0     H86130   2.527   4.109   5.632  1.3725  0.3512 -0.2164
  639MOL0     O86131   2.680   9.792   9.827 -0.5819 -0.8555  0.5517
  639MOL0     C86132   2.748   9.794   9.936 -0.5192 -0.2517  0.0655
  639MOL0     O86133   2.699   9.773  10.061 -0.0063  0.7228 -0.1075
  639MOL0     C86134   2.563   9.785  10.089 -0.2915  0.1543  0.3131
  639MOL0     C86135   2.472   9.879  10.032  0.3217 -0.0979  0.1888
  639MOL0     C86136   2.340   9.880  10.068  0.1327  0.3050 -0.1350
  639MOL0     C86137   2.284   9.802  10.162  0.9518  0.0477  0.9563
  639MOL0     O86138   2.147   9.821  10.173  0.8709 -0.6368  0.1280
  639MOL0     C86139   2.074   9.733  10.254  0.5496  0.2502  0.5675
  639MOL0     C86140   1.924   9.777  10.259  0.4812  0.2056 -0.2375
  639MOL0     C86141   1.860   9.813  10.113 -0.1297  0.0779 -0.6240
  639MOL0     C86142   1.711   9.764  10.105 -0.2316  0.1287 -0.6325
  639MOL0     C86143   1.611   9.845  10.198 -0.5835  0.4121  0.2757
  639MOL0     C86144   1.463   9.813  10.173 -0.5294  0.1188  0.0326
  639MOL0     C86145   1.362   9.906  10.247  0.1974 -0.0203  0.2486
  639MOL0     C86146   1.224   9.860  10.222 -0.1186  0.1161  0.3149
  639MOL0     N86147   1.127   9.967  10.234  0.0837 -0.1648 -0.3736
  639MOL0     C86148   1.083  10.025  10.355  0.7220 -0.6573  0.4205
  639MOL0     C86149   0.989  10.106  10.316  0.7283 -0.2102 -0.3187
  639MOL0     C86150   0.953  10.222  10.405  0.6438  0.4026 -0.1654
  639MOL0     C86151   1.069  10.327  10.411  0.1790  0.3633 -0.1166
  639MOL0     C86152   1.041  10.461  10.488 -0.7107 -0.0245 -0.6897
  639MOL0     C86153   0.925  10.538  10.427  0.7342  0.0629 -0.1197
  639MOL0     O86154   0.797  10.504  10.482 -0.1208 -0.4063  0.7253
  639MOL0     C86155   0.686  10.577  10.462 -1.0968 -0.5206  0.9788
  639MOL0     C86156   0.681  10.697  10.401  0.3741 -0.5958 -0.0249
  639MOL0     C86157   0.556  10.767  10.368  0.8930 -0.1844  0.0324
  639MOL0     C86158   0.565  10.897  10.296 -0.5608 -0.4868  0.0825
  639MOL0     C86159   0.436  10.718  10.423 -0.6405  0.3275  0.0492
  639MOL0     C86160   0.305  10.787  10.426 -0.5003  0.4677  0.1453
  639MOL0     O86161   0.287  10.901  10.354 -0.0449 -0.2881 -0.4044
  639MOL0     C86162   0.169  10.919  10.288 -0.1307  0.2227 -0.0397
  639MOL0     C86163   0.138  11.050  10.249  0.4818 -0.8512  0.8655
  639MOL0     C86164   0.013  11.080  10.199 -0.1007  0.5802 -1.1447
  639MOL0     C86165  -0.091  10.981  10.187 -0.6485 -0.0424 -0.6667
  639MOL0     O86166  -0.217  11.003  10.136 -0.1051 -0.0755 -0.0097
  639MOL0     C86167  -0.259  11.131  10.118 -0.9206 -0.1944 -0.0748
  639MOL0     C86168  -0.416  11.137  10.114 -0.2079 -0.2433  0.4325
  639MOL0     C86169  -0.481  11.107  10.245  0.2050  0.3784 -0.0570
  639MOL0     C86170  -0.632  11.133  10.256 -0.2092  0.1613 -0.6977
  639MOL0     C86171  -0.726  11.092  10.137  0.4886  0.3369 -0.3655
  639MOL0     C86172  -0.869  11.142  10.158  0.5407 -0.2802 -0.1999
  639MOL0     C86173  -0.946  11.128  10.029 -0.8496 -0.4673 -0.3877
  639MOL0     C86174  -1.087  11.091  10.058  0.5330  0.2368 -0.0757
  639MOL0    Cl86175  -1.172  11.186  10.178 -0.3547  0.1610  0.4844
  639MOL0     C86176  -0.052  10.847  10.201 -0.1150 -0.5377  0.0174
  639MOL0     C86177   0.075  10.820  10.260  0.0800  0.6427 -0.0046
  639MOL0     O86178   0.216  10.740  10.498  0.0190 -1.3710  0.2508
  639MOL0     C86179   0.450  10.586  10.486 -0.4934 -0.6209 -0.2092
  639MOL0     C86180   0.573  10.517  10.501 -0.4341 -0.2869  0.6271
  639MOL0     N86181   0.956  10.101  10.188  0.6563  0.3485  0.7732
  639MOL0     N86182   1.043  10.015  10.138 -0.1788  0.1955  0.3113
  639MOL0     C86183   2.366   9.713  10.228 -0.2777  1.1724  0.4227
  639MOL0     C86184   2.511   9.710  10.197  0.5417  0.8267 -0.0995
  639MOL0     C86185   2.897   9.791   9.921 -0.1962 -0.9414  0.5530
  639MOL0     C86186   2.972   9.820  10.029  0.3264 -0.5550 -0.5911
  639MOL0     C86187   3.106   9.850  10.028 -0.2003 -0.1324 -0.9420
  639MOL0     C86188   3.179   9.841   9.907 -0.5448 -0.7091 -0.2882
  639MOL0     O86189   3.312   9.881   9.879  0.3067  0.0428 -0.6880
  639MOL0     C86190   3.391   9.936   9.981  0.2069 -0.4370  0.0902
  639MOL0     C86191   3.496  10.046   9.921 -0.8119 -0.0850 -0.0517
  639MOL0     C86192   3.564   9.979   9.807 -0.2640  0.0728 -0.0060
  639MOL0     C86193   3.667  10.079   9.748 -0.1711 -1.0675 -0.2669
  639MOL0     C86194   3.794  10.078   9.822 -0.7385  0.5365 -0.1305
  639MOL0     C86195   3.914  10.053   9.859  0.1155 -0.2121 -0.0154
  639MOL0     C86196   3.101   9.803   9.792  0.4380  0.2332  0.1300
  639MOL0     C86197   2.959   9.784   9.798  0.2315 -0.1639  0.0926
  639MOL0     H86198   2.518   9.942   9.956  3.9900 -1.7124  0.8384
  639MOL0     H86199   2.277   9.951  10.015  0.6226  0.2733 -0.7643
  639MOL0     H86200   2.083   9.629  10.221  1.0684 -0.1260  1.8171
  639MOL0     H86201   2.118   9.740  10.354 -0.8148  2.7306  1.0901
  639MOL0     H86202   1.864   9.709  10.320 -0.3187  3.0307  2.4084
  639MOL0     H86203   1.903   9.868  10.316 -0.3614 -0.5211  0.6411
  639MOL0     H86204   1.867   9.921  10.098 -3.0605  0.3399 -0.8158
  639MOL0     H86205   1.916   9.761  10.035 -1.3674  1.6281 -2.6630
  639MOL0     H86206   1.677   9.771  10.001  0.9891  0.7770 -1.0103
  639MOL0     H86207   1.707   9.657  10.128 -0.6440  0.1526 -0.5773
  639MOL0     H86208   1.634   9.816  10.301 -0.3782 -1.9272 -0.3697
  639MOL0     H86209   1.629   9.950  10.175 -2.3046  0.3163 -1.9168
  639MOL0     H86210   1.443   9.844  10.070  1.4285  2.2691  0.2041
  639MOL0     H86211   1.446   9.707  10.192 -0.5137 -0.5367 -2.9945
  639MOL0     H86212   1.392   9.901  10.352  2.6903 -1.3911 -0.4263
  639MOL0     H86213   1.372  10.009  10.211 -0.2763 -0.3690 -0.9459
  639MOL0     H86214   1.188   9.781  10.288  0.7579 -0.8031 -0.2764
  639MOL0     H86215   1.201   9.815  10.124  1.4535  0.3971 -0.2150
  639MOL0     H86216   1.135  10.024  10.450  0.4363  1.1135  0.6240
  639MOL0     H86217   0.862  10.268  10.363  2.6263  2.1985 -2.8612
  639MOL0     H86218   0.929  10.190  10.507 -0.2569  1.8287  0.1079
  639MOL0     H86219   1.095  10.359  10.309  0.1838 -0.3817 -0.3585
  639MOL0     H86220   1.145  10.268  10.463 -1.1265  0.2284  1.7248
  639MOL0     H86221   1.131  10.522  10.495  0.3978 -1.7700  1.1040
  639MOL0     H86222   1.006  10.434  10.588 -0.4146 -1.9739 -1.0654
  639MOL0     H86223   0.923  10.518  10.320  1.8897  0.3867 -0.2225
  639MOL0     H86224   0.946  10.644  10.445  0.3282 -0.1663  2.0501
  639MOL0     H86225   0.768  10.754  10.372  0.9185  1.1145  4.2504
  639MOL0     H86226   0.508  10.897  10.203 -0.9084  1.0082  0.2605
  639MOL0     H86227   0.535  10.980  10.361 -1.7627 -1.0706  0.2898
  639MOL0     H86228   0.667  10.913  10.258 -0.3026  1.4560  1.4175
  639MOL0     H86229   0.212  11.129  10.257 -0.8139  0.5042 -0.0094
  639MOL0     H86230  -0.004  11.182  10.167 -0.4727  0.7752 -0.3472
  639MOL0     H86231  -0.226  11.197  10.199 -2.2339 -1.3914  1.5204
  639MOL0     H86232  -0.229  11.178  10.024  0.3899 -0.3884  0.2302
  639MOL0     H86233  -0.442  11.241  10.091  1.2680  0.1163  0.2732
  639MOL0     H86234  -0.453  11.064  10.042 -0.5990  0.1374  0.2445
  639MOL0     H86235  -0.429  11.164  10.323 -0.1539  0.1335  0.3693
  639MOL0     H86236  -0.472  11.000  10.267 -0.2475 -0.0028 -1.6009
  639MOL0     H86237  -0.670  11.086  10.347  0.9659 -0.5935 -0.5707
  639MOL0     H86238  -0.643  11.242  10.268 -2.4082 -0.0396 -0.4879
  639MOL0     H86239  -0.710  10.985  10.120 -1.6708  0.1847 -1.7217
  639MOL0     H86240  -0.691  11.139  10.045 -2.0267 -0.7127 -1.9789
  639MOL0     H86241  -0.905  11.086  10.245  0.6456  1.4097  0.9799
  639MOL0     H86242  -0.870  11.249  10.180  2.2318  0.2662 -2.4543
  639MOL0     H86243  -0.899  11.047   9.972  1.1972  2.4147 -3.1291
  639MOL0     H86244  -0.956  11.218   9.969 -1.1084 -1.5989 -2.1141
  639MOL0     H86245  -1.092  10.987  10.092 -1.5632  0.1523 -0.5237
  639MOL0     H86246  -1.140  11.100   9.963  0.4508 -0.9742 -0.1558
  639MOL0     H86247  -0.124  10.766  10.189 -0.3584  0.0134 -2.9372
  639MOL0     H86248   0.104  10.717  10.276  0.8750  0.3714 -2.7148
  639MOL0     H86249   0.367  10.534  10.534 -1.6607  1.1852 -0.1881
  639MOL0     H86250   0.588  10.423  10.552 -0.5207 -1.0497 -0.7047
  639MOL0     H86251   2.328   9.649  10.307 -1.4903  0.4385 -0.7230
  639MOL0     H86252   2.577   9.649  10.258  0.5581 -1.5410 -2.3334
  639MOL0     H86253   2.936   9.835  10.130  1.4844  0.4937 -0.3161
  639MOL0     H86254   3.156   9.876  10.121  0.7680 -1.3153 -1.1038
  639MOL0     H86255   3.332   9.997  10.051  2.9311 -0.6480  2.7872
  639MOL0     H86256   3.444   9.854  10.031  0.0865 -1.4712 -1.4315
  639MOL0     H86257   3.564  10.084   9.998  1.5054  0.0906 -2.0466
  639MOL0     H86258   3.437  10.130   9.885 -3.3829 -1.9648 -0.5293
  639MOL0     H86259   3.507   9.944   9.721  0.7227  0.3978 -0.8094
  639MOL0     H86260   3.623   9.893   9.840 -1.9679 -1.7014 -1.3207
  639MOL0     H86261   3.631  10.182   9.753 -0.8573 -1.2949 -0.4153
  639MOL0     H86262   3.674  10.058   9.641  0.0816 -0.9025 -0.2841
  639MOL0     H86263   4.018  10.033   9.871  0.1287  1.3335  3.5669
  639MOL0     H86264   3.140   9.800   9.691 -0.8004  1.5334 -0.4214
  639MOL0     H86265   2.902   9.758   9.709 -0.7088 -1.5298  1.0670
  640MOL0     O86266   9.164   1.985  10.089  0.1418  0.1168 -0.3380
  640MOL0     C86267   9.152   2.018   9.969 -0.5669  0.1327  1.1387
  640MOL0     O86268   9.037   2.060   9.902 -0.1061  0.7620 -0.5359
  640MOL0     C86269   8.921   2.040   9.960 -0.0857 -0.0642 -1.2358
  640MOL0     C86270   8.814   2.135   9.951 -0.0891  0.1262 -1.0622
  640MOL0     C86271   8.674   2.103   9.972 -0.0830 -0.1877  0.2905
  640MOL0     C86272   8.641   1.977  10.012  0.2741 -0.8101 -0.1344
  640MOL0     O86273   8.515   1.950  10.052  0.2285 -0.3089 -0.7180
  640MOL0     C86274   8.431   1.896   9.952  0.7099 -0.5499 -0.0473
  640MOL0     C86275   8.275   1.898   9.982  0.4745 -0.7464 -0.2952
  640MOL0     C86276   8.226   2.034  10.037 -0.6500  0.0045  0.1592
  640MOL0     C86277   8.287   2.164   9.954 -0.0877  0.2024  0.3279
  640MOL0     C86278   8.220   2.293   9.967 -0.2302 -0.0178 -0.3809
  640MOL0     C86279   8.234   2.344  10.110 -0.1040 -0.5209  0.1122
  640MOL0     C86280   8.213   2.499  10.129  0.3744 -0.7974  0.6208
  640MOL0     C86281   8.307   2.583  10.042  0.4827  0.7763 -0.0296
  640MOL0     N86282   8.319   2.718  10.090  0.0050 -0.0796  0.5023
  640MOL0     C86283   8.221   2.826  10.082 -0.0978  0.3159 -0.6396
  640MOL0     C86284   8.280   2.938  10.118 -0.2427 -1.0914 -0.6307
  640MOL0     C86285   8.206   3.077  10.134 -0.8282  0.6528  0.5763
  640MOL0     C86286   8.078   3.045  10.215  0.3336  1.1930 -0.1341
  640MOL0     C86287   7.967   3.112  10.138  0.7266  0.2184  0.4087
  640MOL0     C86288   7.830   3.129  10.226  1.1171 -0.5518 -0.0703
  640MOL0     O86289   7.799   3.009  10.290 -0.3950  0.1850 -0.0218
  640MOL0     C86290   7.694   2.988  10.379 -0.1923 -0.1883  0.7067
  640MOL0     C86291   7.582   3.071  10.395 -0.6382  0.2751  0.0558
  640MOL0     C86292   7.475   3.025  10.481  0.5571 -0.3288 -1.1785
  640MOL0     C86293   7.371   3.129  10.511 -0.6899 -0.5178  0.6472
  640MOL0     C86294   7.482   2.898  10.545 -0.6330  0.0210  0.3259
  640MOL0     C86295   7.364   2.844  10.617 -0.5522  0.6983 -0.7363
  640MOL0     O86296   7.257   2.856  10.537  0.0397  0.6031  0.6951
  640MOL0     C86297   7.136   2.788  10.556  0.6828  0.8697 -0.1058
  640MOL0     C86298   7.016   2.854  10.527 -0.0081  0.2899 -0.1653
  640MOL0     C86299   6.891   2.793  10.544  0.0842  0.3435 -0.4131
  640MOL0     C86300   6.896   2.659  10.599  0.0175  0.1292 -0.2438
  640MOL0     O86301   6.777   2.596  10.633  0.1514  0.3984 -0.0774
  640MOL0     C86302   6.655   2.626  10.560  0.2699 -0.6426  1.0837
  640MOL0     C86303   6.569   2.503  10.597 -0.4300  0.7972  0.5624
  640MOL0     C86304   6.476   2.528  10.714 -0.0117 -0.2726 -0.1746
  640MOL0     C86305   6.386   2.413  10.757 -1.1581 -0.3380 -0.2158
  640MOL0     C86306   6.268   2.472  10.833  0.6783 -0.7202 -0.0443
  640MOL0     C86307   6.179   2.362  10.892 -0.2688  0.0987 -0.5353
  640MOL0     C86308   6.077   2.403  10.992  0.4538 -0.7069 -0.6444
  640MOL0     C86309   5.961   2.487  10.929 -0.4392  0.7857 -0.7186
  640MOL0    Cl86310   5.866   2.392  10.812  0.1651  0.5476 -0.1230
  640MOL0     C86311   7.018   2.590  10.621 -0.6280 -0.3138  0.3533
  640MOL0     C86312   7.132   2.660  10.606 -0.3213  0.4232 -0.0125
  640MOL0     O86313   7.357   2.805  10.733 -0.0494 -0.0658  0.0025
  640MOL0     C86314   7.597   2.819  10.528  0.4532 -0.5922 -0.3580
  640MOL0     C86315   7.694   2.870  10.447 -0.1071  0.9519 -0.2108
  640MOL0     N86316   8.409   2.910  10.153 -0.0163 -0.0165 -0.3776
  640MOL0     N86317   8.426   2.778  10.145  0.1012 -1.0354  0.0076
  640MOL0     C86318   8.740   1.884  10.038  0.1687  0.4970 -0.6238
  640MOL0     C86319   8.872   1.913  10.001 -0.0899  0.0008  0.4085
  640MOL0     C86320   9.272   1.989   9.896 -0.2034 -0.0988  0.2922
  640MOL0     C86321   9.374   1.907   9.952 -0.2496  0.1757  0.0767
  640MOL0     C86322   9.490   1.883   9.882  0.2124  0.0881  0.8825
  640MOL0     C86323   9.515   1.952   9.764  0.3155 -0.7932  0.4336
  640MOL0     O86324   9.624   1.938   9.681 -0.2773 -0.4229  0.3253
  640MOL0     C86325   9.757   1.931   9.736  0.3457 -0.0769 -0.3134
  640MOL0     C86326   9.850   1.983   9.623 -1.2496 -0.4896  0.5028
  640MOL0     C86327  10.002   1.983   9.643 -0.4412  0.0237 -0.1407
  640MOL0     C86328  10.062   1.844   9.680 -0.5118  0.2199  0.7524
  640MOL0     C86329  10.194   1.826   9.619 -0.3400 -0.0296 -0.0158
  640MOL0     C86330  10.283   1.804   9.540  0.1895 -0.6928 -0.5111
  640MOL0     C86331   9.415   2.030   9.716  0.0585 -0.9969  0.1308
  640MOL0     C86332   9.292   2.048   9.775 -1.5430 -0.5512  0.1827
  640MOL0     H86333   8.854   2.230   9.919  3.7261 -0.8141  0.4189
  640MOL0     H86334   8.612   2.192   9.976  0.7184  0.3519  2.1766
  640MOL0     H86335   8.455   1.941   9.855  0.4468  2.7544  1.2749
  640MOL0     H86336   8.455   1.790   9.944  0.3760 -0.4825 -3.0152
  640MOL0     H86337   8.199   1.876   9.906 -1.2434 -0.7754  1.3689
  640MOL0     H86338   8.264   1.815  10.052  0.5621  0.1823  0.8356
  640MOL0     H86339   8.116   2.034  10.039 -0.7324 -1.6606 -1.5083
  640MOL0     H86340   8.264   2.044  10.139 -0.6321 -2.3821  0.4489
  640MOL0     H86341   8.392   2.179   9.978 -0.2049 -1.1420  1.8344
  640MOL0     H86342   8.283   2.135   9.848 -0.6039 -1.6595  0.8261
  640MOL0     H86343   8.272   2.360   9.898  1.6018 -0.0504  0.9235
  640MOL0     H86344   8.115   2.297   9.937 -0.2704  1.9590 -0.0944
  640MOL0     H86345   8.151   2.302  10.167 -1.4260  0.6094 -0.9154
  640MOL0     H86346   8.329   2.319  10.160 -0.5101 -2.7951 -0.1381
  640MOL0     H86347   8.108   2.520  10.107  0.8104  1.4349  0.4336
  640MOL0     H86348   8.229   2.531  10.233  1.1199 -0.5389  0.4375
  640MOL0     H86349   8.273   2.586   9.938  1.4279  0.6098 -0.3537
  640MOL0     H86350   8.405   2.533  10.046 -0.2356 -0.6148  1.2216
  640MOL0     H86351   8.116   2.827  10.052 -0.0478  1.0154 -0.8025
  640MOL0     H86352   8.265   3.160  10.174 -1.4140  1.7097 -0.6631
  640MOL0     H86353   8.184   3.117  10.035 -1.8545  1.0928  0.9695
  640MOL0     H86354   8.089   3.097  10.311 -0.5134 -0.1557  0.7323
  640MOL0     H86355   8.058   2.940  10.240 -0.2432  0.9079 -1.6709
  640MOL0     H86356   7.932   3.045  10.058 -0.6702  0.9031  0.4104
  640MOL0     H86357   7.999   3.207  10.095  2.5840 -0.2605  0.6689
  640MOL0     H86358   7.745   3.155  10.163  1.3386 -0.1108 -0.1915
  640MOL0     H86359   7.848   3.204  10.304 -3.0122 -2.2241  2.8548
  640MOL0     H86360   7.594   3.167  10.346  1.2025 -0.1212 -0.3552
  640MOL0     H86361   7.431   3.218  10.532 -1.9231  0.5337 -0.1564
  640MOL0     H86362   7.313   3.150  10.421  1.6548  0.5640 -0.6971
  640MOL0     H86363   7.302   3.104  10.592 -1.6642  0.2446  0.0671
  640MOL0     H86364   7.019   2.952  10.478  0.9992 -0.5470 -1.8954
  640MOL0     H86365   6.797   2.846  10.530 -1.3615 -2.1871 -0.9357
  640MOL0     H86366   6.605   2.719  10.590 -0.1437  0.2839 -2.1571
  640MOL0     H86367   6.678   2.623  10.453  2.7651 -2.1736  1.5853
  640MOL0     H86368   6.509   2.471  10.511  1.2319  0.6175 -0.5897
  640MOL0     H86369   6.638   2.422  10.627  1.0296  2.7150  2.7489
  640MOL0     H86370   6.424   2.624  10.701  1.9040  0.8584  0.2018
  640MOL0     H86371   6.539   2.545  10.802 -0.8493  1.2024  0.1933
  640MOL0     H86372   6.353   2.354  10.671 -1.1060  1.4464 -1.5101
  640MOL0     H86373   6.443   2.348  10.824  0.1699  0.0987 -0.8864
  640MOL0     H86374   6.219   2.546  10.770 -1.0065  1.2936  3.3299
  640MOL0     H86375   6.316   2.523  10.916  1.4285 -3.0601  1.0626
  640MOL0     H86376   6.122   2.311  10.814  0.4912 -1.8936  0.1410
  640MOL0     H86377   6.245   2.296  10.949 -0.3260  0.3768 -0.1452
  640MOL0     H86378   6.127   2.449  11.078 -1.3335 -0.7777  0.4937
  640MOL0     H86379   6.034   2.311  11.032 -0.0934 -0.9396 -1.7172
  640MOL0     H86380   5.996   2.578  10.879  1.9782  1.6117  2.1390
  640MOL0     H86381   5.900   2.525  11.012  2.0654  4.1266 -0.1818
  640MOL0     H86382   7.024   2.487  10.654  1.2690 -0.5619 -0.6151
  640MOL0     H86383   7.226   2.610  10.628 -2.5850 -3.6272  1.6851
  640MOL0     H86384   7.616   2.717  10.561  2.5975  0.0221  0.4828
  640MOL0     H86385   7.786   2.813  10.435  0.1448  0.6382  2.6276
  640MOL0     H86386   8.709   1.781  10.052  0.4674  0.6038  1.0421
  640MOL0     H86387   8.949   1.839  10.021 -1.4327 -0.5317  4.7999
  640MOL0     H86388   9.373   1.869  10.054 -1.5835 -0.2496 -0.0684
  640MOL0     H86389   9.564   1.826   9.938  1.4740  2.5002  1.8393
  640MOL0     H86390   9.774   1.990   9.827  0.3802 -0.5523 -0.0082
  640MOL0     H86391   9.781   1.827   9.760 -0.8145 -0.4098 -0.5194
  640MOL0     H86392   9.820   2.084   9.594  1.0861  0.4676  1.2273
  640MOL0     H86393   9.828   1.937   9.526 -2.3549  0.6706  0.1824
  640MOL0     H86394  10.036   2.065   9.708  1.6863  1.6986 -3.1197
  640MOL0     H86395  10.062   2.022   9.560  0.1165 -0.2466  0.1314
  640MOL0     H86396   9.987   1.766   9.667 -1.3624  0.8079  1.9298
  640MOL0     H86397  10.054   1.838   9.788 -1.3053 -2.8291  0.5984
  640MOL0     H86398  10.355   1.755   9.477  1.4317 -0.1630  0.4451
  640MOL0     H86399   9.441   2.072   9.619  0.1889 -1.3361  0.0171
  640MOL0     H86400   9.223   2.121   9.735 -2.6749 -1.4319  0.4923
  641MOL0     O86401   2.354   4.420   3.032  0.3608 -0.6254  1.0653
  641MOL0     C86402   2.298   4.501   2.958 -0.6838 -0.7577  0.2791
  641MOL0     O86403   2.160   4.518   2.946 -0.9983 -0.1201 -0.1375
  641MOL0     C86404   2.088   4.462   3.045  0.2053  0.1373 -0.1907
  641MOL0     C86405   2.075   4.539   3.160  0.2620 -0.4379  0.0606
  641MOL0     C86406   2.001   4.496   3.265  0.8380 -1.0657 -0.5321
  641MOL0     C86407   1.948   4.364   3.267  0.0060  0.6262 -0.9892
  641MOL0     O86408   1.885   4.315   3.385 -0.7235 -0.5609 -0.3144
  641MOL0     C86409   1.965   4.337   3.510  0.7622 -0.3292  0.3401
  641MOL0     C86410   1.905   4.438   3.603  0.1434 -1.0320 -0.7193
  641MOL0     C86411   1.763   4.400   3.644  0.8056  0.0763  0.9608
  641MOL0     C86412   1.682   4.494   3.733  0.8837 -0.2319 -0.3510
  641MOL0     C86413   1.537   4.453   3.756 -0.8360 -0.3506 -0.4499
  641MOL0     C86414   1.453   4.564   3.816  0.2749 -0.0338 -1.0253
  641MOL0     C86415   1.303   4.548   3.806  0.5038 -0.7384 -0.0831
  641MOL0     C86416   1.240   4.675   3.841 -0.1981  0.3672 -0.1271
  641MOL0     N86417   1.094   4.660   3.853  0.3340  0.2663  0.2766
  641MOL0     C86418   1.043   4.620   3.977  0.1802 -0.2229  0.6656
  641MOL0     C86419   0.900   4.623   3.964 -0.5028  0.4337  0.2185
  641MOL0     C86420   0.798   4.584   4.072  0.0418  0.2407  0.3311
  641MOL0     C86421   0.653   4.639   4.048 -0.5701  0.3013  0.0703
  641MOL0     C86422   0.551   4.595   4.158  0.7355 -0.3626  0.2033
  641MOL0     C86423   0.411   4.643   4.122 -0.2800 -0.0582 -0.4187
  641MOL0     O86424   0.327   4.589   4.223  1.1287 -0.3595 -0.3108
  641MOL0     C86425   0.197   4.628   4.219 -0.2104 -0.4475 -0.0707
  641MOL0     C86426   0.104   4.595   4.313  0.4474 -0.0898  0.5157
  641MOL0     C86427  -0.035   4.624   4.304 -1.3046 -0.1629 -0.2647
  641MOL0     C86428  -0.112   4.595   4.436  0.2199 -0.4775 -0.6450
  641MOL0     C86429  -0.081   4.694   4.189  0.3227 -0.4443 -0.6131
  641MOL0     C86430  -0.218   4.739   4.174 -0.0523  0.5067  0.1177
  641MOL0     O86431  -0.240   4.831   4.079 -0.3408  0.0590 -0.6371
  641MOL0     C86432  -0.362   4.897   4.059 -0.2812  0.0001 -0.0625
  641MOL0     C86433  -0.486   4.868   4.117  0.3926 -1.3598 -0.6319
  641MOL0     C86434  -0.599   4.937   4.088  0.4852 -0.7105  0.1216
  641MOL0     C86435  -0.597   5.048   4.003 -1.0620 -1.0510 -0.1832
  641MOL0     O86436  -0.710   5.115   3.966  0.1173  0.1605 -0.0424
  641MOL0     C86437  -0.839   5.055   3.959 -0.2428  1.1229 -1.1361
  641MOL0     C86438  -0.940   5.157   3.912  0.2737 -0.0927  0.1424
  641MOL0     C86439  -1.071   5.096   3.855 -0.7365 -0.2789  0.0405
  641MOL0     C86440  -1.155   5.188   3.755  0.0249  0.6434  0.4708
  641MOL0     C86441  -1.263   5.101   3.675 -0.7610  0.6497 -0.6798
  641MOL0     C86442  -1.348   5.009   3.768  0.4586  0.3771  0.1552
  641MOL0     C86443  -1.431   5.081   3.880 -0.8828 -0.4305  0.1684
  641MOL0     C86444  -1.499   4.991   3.988 -0.2639 -1.1133 -1.1611
  641MOL0    Cl86445  -1.599   4.872   3.910 -0.2598  0.8267 -0.5190
  641MOL0     C86446  -0.479   5.091   3.953  0.0948 -0.2468  0.5741
  641MOL0     C86447  -0.361   5.020   3.976  0.2413 -0.5318 -0.0241
  641MOL0     O86448  -0.312   4.683   4.237  0.1921  0.4201 -0.3951
  641MOL0     C86449   0.012   4.714   4.083 -0.3694  0.0272 -0.5346
  641MOL0     C86450   0.148   4.682   4.099 -0.3058  0.4236  0.4937
  641MOL0     N86451   0.882   4.663   3.830 -0.6358  0.1851 -0.0678
  641MOL0     N86452   0.994   4.674   3.765  0.2956 -0.5825 -0.0642
  641MOL0     C86453   1.954   4.293   3.145  0.1882  0.2125 -0.3098
  641MOL0     C86454   2.031   4.339   3.038 -0.1385 -0.2988 -0.1756
  641MOL0     C86455   2.390   4.571   2.866 -0.0269  0.6326  0.0405
  641MOL0     C86456   2.350   4.688   2.798  0.1376 -0.6361 -0.6450
  641MOL0     C86457   2.444   4.748   2.712 -0.2535  0.1805  0.2390
  641MOL0     C86458   2.574   4.698   2.700 -0.5861  0.4204 -0.5186
  641MOL0     O86459   2.656   4.768   2.619 -0.7938  0.6029  0.0763
  641MOL0     C86460   2.773   4.694   2.569 -0.5056 -0.2950 -0.2678
  641MOL0     C86461   2.825   4.793   2.454 -0.5508 -0.5854 -0.8694
  641MOL0     C86462   2.936   4.739   2.363 -0.0563  0.3008 -0.1520
  641MOL0     C86463   2.974   4.830   2.238 -0.5281  0.6692 -0.0235
  641MOL0     C86464   3.031   4.956   2.285  0.8029 -0.3210 -0.5839
  641MOL0     C86465   3.077   5.059   2.314 -0.2163 -0.0419  1.3805
  641MOL0     C86466   2.603   4.581   2.769 -1.2342  0.4231 -0.3113
  641MOL0     C86467   2.508   4.509   2.836 -1.2280  0.7640 -0.3214
  641MOL0     H86468   2.118   4.639   3.162  0.4315 -0.5231  1.2388
  641MOL0     H86469   1.985   4.560   3.352 -3.2197 -0.2866 -1.6249
  641MOL0     H86470   1.992   4.237   3.546  2.7224  0.2760  0.6735
  641MOL0     H86471   2.064   4.380   3.493  0.4940  0.6729  1.2672
  641MOL0     H86472   1.965   4.435   3.694  1.2313  1.0157 -1.3132
  641MOL0     H86473   1.899   4.541   3.567  0.3323  0.3546  2.7929
  641MOL0     H86474   1.715   4.382   3.547  3.0790 -2.3906  0.1496
  641MOL0     H86475   1.757   4.299   3.685  0.2991 -0.3469 -0.1115
  641MOL0     H86476   1.726   4.516   3.831  0.2834  0.2428 -0.1760
  641MOL0     H86477   1.680   4.589   3.678  1.4467 -0.4800 -0.7965
  641MOL0     H86478   1.500   4.418   3.659 -0.9338 -1.0309 -0.1743
  641MOL0     H86479   1.540   4.367   3.823  4.1774 -3.1270 -3.6007
  641MOL0     H86480   1.485   4.570   3.921  0.7215  1.3619 -1.2199
  641MOL0     H86481   1.481   4.660   3.770 -0.6273  1.2440  0.9363
  641MOL0     H86482   1.269   4.534   3.703 -2.9118  2.0965  0.4428
  641MOL0     H86483   1.275   4.460   3.864  0.2947 -1.0290 -0.6194
  641MOL0     H86484   1.268   4.744   3.761  0.7209 -1.5277 -1.5092
  641MOL0     H86485   1.276   4.723   3.933  0.8140  0.6228 -0.6375
  641MOL0     H86486   1.086   4.577   4.067 -1.5034 -2.9772  0.2567
  641MOL0     H86487   0.796   4.474   4.067  0.8119  0.2176  0.4233
  641MOL0     H86488   0.831   4.625   4.168 -1.2335 -0.2460  1.0051
  641MOL0     H86489   0.628   4.602   3.948  0.2327  0.0451 -0.0437
  641MOL0     H86490   0.649   4.748   4.051 -0.8631  0.2710  1.5771
  641MOL0     H86491   0.576   4.636   4.256  0.6714 -0.9382  0.4611
  641MOL0     H86492   0.545   4.486   4.157 -0.3292 -0.3139 -0.8340
  641MOL0     H86493   0.391   4.600   4.023  0.6397  0.0599 -0.6587
  641MOL0     H86494   0.399   4.751   4.107 -1.1291 -0.3554 -2.1661
  641MOL0     H86495   0.143   4.537   4.395 -0.4945  1.2580  1.9793
  641MOL0     H86496  -0.043   4.581   4.519 -0.4990  2.4756  0.5846
  641MOL0     H86497  -0.190   4.668   4.459 -0.0374 -0.3377 -1.8560
  641MOL0     H86498  -0.181   4.515   4.409  1.3642 -1.3840 -0.9454
  641MOL0     H86499  -0.506   4.784   4.183  2.5116 -0.4169  1.3551
  641MOL0     H86500  -0.696   4.894   4.112 -0.3594  0.1054 -1.6599
  641MOL0     H86501  -0.830   4.968   3.893 -2.0813 -0.0159  0.0214
  641MOL0     H86502  -0.872   5.021   4.057 -0.4370  3.1855 -0.4559
  641MOL0     H86503  -0.972   5.216   3.998 -0.6627 -2.7819  1.7381
  641MOL0     H86504  -0.894   5.227   3.841 -0.2892 -0.7902 -0.9452
  641MOL0     H86505  -1.135   5.067   3.939 -2.1300  2.4045  0.0188
  641MOL0     H86506  -1.044   5.015   3.787  0.9146  2.7150 -3.1862
  641MOL0     H86507  -1.207   5.270   3.807 -0.2801  3.5482 -3.8890
  641MOL0     H86508  -1.090   5.234   3.680  0.0271  1.9289  1.2244
  641MOL0     H86509  -1.207   5.036   3.607 -1.3159 -3.3947  2.3155
  641MOL0     H86510  -1.340   5.155   3.619 -1.5834  0.5271  0.2844
  641MOL0     H86511  -1.413   4.942   3.711  1.3827 -2.8628  2.6618
  641MOL0     H86512  -1.278   4.944   3.820  0.6866 -0.7908 -1.5408
  641MOL0     H86513  -1.508   5.129   3.818 -1.0983  1.6543  1.9205
  641MOL0     H86514  -1.369   5.159   3.925 -0.6028 -0.2296 -0.5482
  641MOL0     H86515  -1.558   5.060   4.048  0.7661  2.0598 -3.4845
  641MOL0     H86516  -1.431   4.950   4.062 -1.7977  0.1681  1.0832
  641MOL0     H86517  -0.478   5.185   3.897 -3.2990 -0.7885 -0.6114
  641MOL0     H86518  -0.271   5.055   3.928  0.1259  0.8651  0.7180
  641MOL0     H86519  -0.016   4.763   3.990 -1.9284  1.4603  0.6330
  641MOL0     H86520   0.209   4.720   4.018 -1.4690  0.8272 -0.2194
  641MOL0     H86521   1.907   4.195   3.143 -1.3225  0.8964 -2.4128
  641MOL0     H86522   2.038   4.267   2.957  0.1032 -0.1838 -0.2583
  641MOL0     H86523   2.255   4.737   2.814 -0.3207 -0.6623 -2.9914
  641MOL0     H86524   2.407   4.829   2.650 -0.0363 -0.2726 -0.4843
  641MOL0     H86525   2.852   4.664   2.638  0.1917  1.0012 -0.4587
  641MOL0     H86526   2.736   4.599   2.530  0.5006 -0.7917 -0.0513
  641MOL0     H86527   2.860   4.887   2.498  0.6258 -0.8377 -1.2316
  641MOL0     H86528   2.747   4.825   2.384  0.1859  3.3796 -0.0644
  641MOL0     H86529   2.916   4.636   2.332  1.8174 -0.5628  1.3327
  641MOL0     H86530   3.028   4.728   2.421 -0.8240  0.5445  1.1532
  641MOL0     H86531   2.874   4.845   2.196 -1.6712 -1.3787  1.7235
  641MOL0     H86532   3.030   4.771   2.166 -2.3665 -0.4346 -0.6186
  641MOL0     H86533   3.102   5.160   2.342 -0.5132  1.1636 -2.2773
  641MOL0     H86534   2.709   4.557   2.766 -0.6379  2.9125 -1.5729
  641MOL0     H86535   2.539   4.418   2.886 -0.7735  1.4157  0.6172
  642MOL0     O86536  10.035  11.199   1.125  0.4014 -0.1021  0.3134
  642MOL0     C86537  10.051  11.185   1.006  0.2133  0.4235 -0.3113
  642MOL0     O86538   9.956  11.174   0.908  0.3521  0.2651 -0.5115
  642MOL0     C86539   9.818  11.186   0.931 -0.4458 -0.2345  0.4455
  642MOL0     C86540   9.754  11.238   1.045  0.5003  0.5190  0.0339
  642MOL0     C86541   9.619  11.259   1.049 -0.8277  0.5040 -0.3805
  642MOL0     C86542   9.537  11.223   0.938 -0.5511  0.6328 -0.3944
  642MOL0     O86543   9.406  11.242   0.954 -0.5612  0.0103 -0.0896
  642MOL0     C86544   9.309  11.230   0.846  0.7161  0.7594 -0.2209
  642MOL0     C86545   9.178  11.326   0.865  0.2716 -0.1972 -0.4425
  642MOL0     C86546   9.055  11.268   0.778 -0.1787 -0.7911 -0.7416
  642MOL0     C86547   8.924  11.312   0.846  0.1150  0.4024 -0.8761
  642MOL0     C86548   8.791  11.262   0.779 -0.3905 -0.8258  0.1634
  642MOL0     C86549   8.679  11.270   0.882 -0.3638 -0.0463  0.0937
  642MOL0     C86550   8.562  11.191   0.825 -0.0109  0.2910 -0.1969
  642MOL0     C86551   8.445  11.181   0.930 -0.7915  0.1283 -0.0560
  642MOL0     N86552   8.313  11.176   0.865 -0.4936  0.0366 -0.2053
  642MOL0     C86553   8.280  11.086   0.768  0.4599  0.0303  0.0705
  642MOL0     C86554   8.152  11.128   0.727  0.2499 -0.6824 -0.2414
  642MOL0     C86555   8.082  11.082   0.602 -0.4969 -0.0509  0.1958
  642MOL0     C86556   8.117  11.175   0.481  0.6993 -0.3903 -0.7217
  642MOL0     C86557   8.046  11.310   0.470 -0.5873  0.5591 -0.7506
  642MOL0     C86558   7.895  11.302   0.485  0.0558 -0.3947  0.1818
  642MOL0     O86559   7.849  11.223   0.377 -0.2002  0.3898 -0.4339
  642MOL0     C86560   7.714  11.225   0.358  0.0791 -0.3322  0.4036
  642MOL0     C86561   7.617  11.297   0.424 -0.4337 -0.0774 -0.1879
  642MOL0     C86562   7.482  11.284   0.385  0.4489 -0.2010 -0.1535
  642MOL0     C86563   7.368  11.357   0.464 -0.5950 -0.3133  0.0208
  642MOL0     C86564   7.440  11.201   0.273 -0.3142  0.3835  0.2795
  642MOL0     C86565   7.301  11.181   0.229  0.5830 -0.5443 -0.5619
  642MOL0     O86566   7.219  11.294   0.249 -0.0383  0.1308 -0.1923
  642MOL0     C86567   7.087  11.262   0.223  0.0282 -0.1430 -0.8488
  642MOL0     C86568   7.030  11.261   0.092  0.2325 -0.5962  0.1556
  642MOL0     C86569   6.896  11.257   0.076  0.5929 -0.6554  0.4650
  642MOL0     C86570   6.808  11.255   0.186 -0.8785  0.2715  0.3786
  642MOL0     O86571   6.670  11.270   0.168 -0.3591  0.5273 -0.9003
  642MOL0     C86572   6.602  11.243   0.049 -0.8184 -1.0635  0.1874
  642MOL0     C86573   6.457  11.288   0.064  0.0282  0.0657 -0.0122
  642MOL0     C86574   6.372  11.272  -0.065  0.3095  0.1340  0.2279
  642MOL0     C86575   6.254  11.182  -0.035  0.0011 -0.1148 -0.0712
  642MOL0     C86576   6.144  11.186  -0.147 -0.5842 -0.5796 -0.0410
  642MOL0     C86577   6.004  11.139  -0.101 -0.4035  0.6034  0.4184
  642MOL0     C86578   5.908  11.129  -0.212 -0.8915 -0.5499  0.3874
  642MOL0     C86579   5.768  11.099  -0.164  0.3773  0.0642 -0.2176
  642MOL0    Cl86580   5.761  10.942  -0.092  0.4179  0.1670 -0.2663
  642MOL0     C86581   6.862  11.241   0.316  0.8099  0.2949  0.1179
  642MOL0     C86582   6.996  11.239   0.334 -0.1093  0.5692 -0.7285
  642MOL0     O86583   7.264  11.071   0.196 -0.4414  0.0042 -0.5214
  642MOL0     C86584   7.542  11.131   0.202 -0.2037 -1.2539  0.4885
  642MOL0     C86585   7.674  11.142   0.246  0.6372 -0.7818 -0.4730
  642MOL0     N86586   8.121  11.242   0.796 -0.0741 -0.0130 -0.7081
  642MOL0     N86587   8.212  11.261   0.886 -0.1766  0.2037 -0.3806
  642MOL0     C86588   9.599  11.167   0.827 -0.2097 -1.0026 -1.0035
  642MOL0     C86589   9.731  11.155   0.822  0.2627  0.5250  1.2609
  642MOL0     C86590  10.188  11.165   0.962  0.4645 -1.0195  0.7408
  642MOL0     C86591  10.297  11.162   1.045 -0.4084 -0.1923  0.6749
  642MOL0     C86592  10.421  11.109   1.018  0.0155  0.6632 -0.8543
  642MOL0     C86593  10.451  11.065   0.890  0.3180  0.1304  0.4621
  642MOL0     O86594  10.576  11.015   0.863  0.3780 -0.8406 -0.6613
  642MOL0     C86595  10.691  11.105   0.872  0.6480  0.5217  0.4919
  642MOL0     C86596  10.765  11.114   0.746  0.4923 -0.4527  1.2177
  642MOL0     C86597  10.832  10.977   0.717 -0.3009  0.0972 -0.6087
  642MOL0     C86598  10.905  10.977   0.585 -0.3383 -0.1776  0.1138
  642MOL0     C86599  11.051  10.996   0.597 -0.2089 -1.1633 -0.3408
  642MOL0     C86600  11.168  11.015   0.606 -0.2838 -0.5501  0.6176
  642MOL0     C86601  10.344  11.081   0.795 -0.2335  0.1266  0.7838
  642MOL0     C86602  10.218  11.130   0.829  0.0948  0.2190  0.2936
  642MOL0     H86603   9.818  11.238   1.133  0.2608  0.8941  0.2090
  642MOL0     H86604   9.568  11.298   1.136  0.1161 -1.5212  1.1726
  642MOL0     H86605   9.357  11.234   0.748  4.7218 -2.5860  1.2897
  642MOL0     H86606   9.262  11.133   0.863 -1.8425  2.0785  0.8497
  642MOL0     H86607   9.156  11.314   0.971 -1.7248  0.3404 -0.7527
  642MOL0     H86608   9.197  11.430   0.838  0.5528 -0.2313 -0.3758
  642MOL0     H86609   9.052  11.322   0.683 -1.1318 -0.8065 -0.7298
  642MOL0     H86610   9.072  11.164   0.750  0.7543 -0.5604 -1.1054
  642MOL0     H86611   8.922  11.262   0.943 -2.5439  2.2865  0.1817
  642MOL0     H86612   8.907  11.420   0.858 -0.1388  0.3171 -0.4315
  642MOL0     H86613   8.784  11.320   0.687  0.8516 -0.9108 -0.0062
  642MOL0     H86614   8.803  11.160   0.740 -0.7947 -0.3465 -1.2736
  642MOL0     H86615   8.709  11.217   0.972 -0.1905 -2.3447 -1.2458
  642MOL0     H86616   8.657  11.375   0.905  1.3557  0.2382  0.5778
  642MOL0     H86617   8.528  11.250   0.739  0.6533  0.0646 -0.6243
  642MOL0     H86618   8.576  11.091   0.784 -0.2774  0.1611  0.0186
  642MOL0     H86619   8.447  11.270   0.994 -1.0456 -0.4409  0.7478
  642MOL0     H86620   8.464  11.089   0.986 -1.4380 -0.3434 -0.5920
  642MOL0     H86621   8.347  11.010   0.729  2.0847  0.0295  2.6282
  642MOL0     H86622   8.106  10.976   0.586 -1.3400 -0.2726  0.3719
  642MOL0     H86623   7.973  11.078   0.605 -0.5623 -1.6598 -1.9869
  642MOL0     H86624   8.095  11.117   0.391  0.1057  0.3581 -1.0724
  642MOL0     H86625   8.225  11.189   0.492  0.2315  3.0197  0.9527
  642MOL0     H86626   8.072  11.354   0.373  0.9651 -0.4051 -0.8021
  642MOL0     H86627   8.095  11.371   0.546 -2.0754  0.0540  0.6650
  642MOL0     H86628   7.850  11.401   0.481  0.8263 -0.0775 -1.7840
  642MOL0     H86629   7.859  11.255   0.577  0.4478 -1.5973 -0.2559
  642MOL0     H86630   7.640  11.362   0.508  0.6772  1.0380 -1.3120
  642MOL0     H86631   7.398  11.397   0.562  0.9977  0.3321 -0.6985
  642MOL0     H86632   7.321  11.443   0.416 -2.5561 -1.2844  0.0988
  642MOL0     H86633   7.299  11.273   0.480  0.7324 -1.3292  0.6344
  642MOL0     H86634   7.094  11.265   0.004 -1.5708 -0.0073 -1.2067
  642MOL0     H86635   6.862  11.260  -0.027  1.8903  0.7633  0.0516
  642MOL0     H86636   6.645  11.300  -0.034  0.5697  0.0434  1.6212
  642MOL0     H86637   6.606  11.135   0.029 -0.7059 -0.8690 -0.9638
  642MOL0     H86638   6.418  11.233   0.150  0.8080 -2.2084 -1.0268
  642MOL0     H86639   6.471  11.394   0.087  0.3561 -0.0674  0.4138
  642MOL0     H86640   6.436  11.223  -0.139  3.0889 -2.3600  3.9227
  642MOL0     H86641   6.332  11.369  -0.096 -2.7956 -1.0126  0.3100
  642MOL0     H86642   6.285  11.077  -0.022 -3.1517 -1.2478 -0.8700
  642MOL0     H86643   6.209  11.211   0.061  2.8299  1.7782  0.8011
  642MOL0     H86644   6.190  11.133  -0.231  2.3286 -2.4073  2.5181
  642MOL0     H86645   6.125  11.290  -0.174 -0.7746 -0.0689  1.9403
  642MOL0     H86646   6.007  11.041  -0.053 -1.4235 -0.9558 -2.4816
  642MOL0     H86647   5.973  11.215  -0.029 -3.9828 -0.3325  0.0601
  642MOL0     H86648   5.937  11.058  -0.289  3.5125  2.0011 -0.6300
  642MOL0     H86649   5.905  11.225  -0.265 -1.2829 -1.3623 -1.1143
  642MOL0     H86650   5.683  11.095  -0.231 -4.4288 -2.4080  5.1656
  642MOL0     H86651   5.728  11.177  -0.099 -1.9412 -0.1419 -1.3051
  642MOL0     H86652   6.789  11.230   0.396  2.2223  0.7109  1.5135
  642MOL0     H86653   7.037  11.225   0.434  3.6419 -3.2210 -2.4629
  642MOL0     H86654   7.519  11.064   0.120 -0.1645  1.9153 -2.3328
  642MOL0     H86655   7.746  11.087   0.186  0.3125  0.1144 -1.7133
  642MOL0     H86656   9.541  11.129   0.744 -0.0287 -1.6709 -0.8314
  642MOL0     H86657   9.779  11.114   0.733  2.5079  2.6595  1.3706
  642MOL0     H86658  10.291  11.192   1.150  2.2172 -0.6193  0.9953
  642MOL0     H86659  10.490  11.078   1.096 -1.2325 -2.1255 -0.7649
  642MOL0     H86660  10.653  11.207   0.871  2.1152  1.1404  2.3014
  642MOL0     H86661  10.753  11.088   0.961  1.8478 -2.9501 -0.8343
  642MOL0     H86662  10.837  11.196   0.736 -1.9296  1.6932  0.1842
  642MOL0     H86663  10.691  11.131   0.667  0.4165 -0.9194  1.1886
  642MOL0     H86664  10.745  10.910   0.718  0.0842 -0.4857  2.2566
  642MOL0     H86665  10.901  10.961   0.800  0.2959 -1.7458 -1.4061
  642MOL0     H86666  10.859  11.050   0.518  0.5010 -1.2714 -1.7476
  642MOL0     H86667  10.889  10.885   0.528  0.6438 -0.0485 -0.4030
  642MOL0     H86668  11.274  11.030   0.608  0.1241 -0.7885 -4.7649
  642MOL0     H86669  10.368  11.052   0.693  3.2800  1.9347  0.9256
  642MOL0     H86670  10.150  11.125   0.744 -0.3648  0.8838  0.6075
  643MOL0     O86671   2.090   6.428   1.613  0.2181  0.7149  0.6714
  643MOL0     C86672   2.162   6.486   1.533 -1.7418  0.9062  1.0343
  643MOL0     O86673   2.136   6.507   1.398  0.0686 -0.3133 -0.0506
  643MOL0     C86674   2.023   6.441   1.347 -0.0992  0.0387  0.1020
  643MOL0     C86675   1.909   6.517   1.317 -0.4561  0.0197  0.0018
  643MOL0     C86676   1.804   6.443   1.252 -0.7976  0.1733  0.0154
  643MOL0     C86677   1.811   6.304   1.220 -0.7522  0.3909 -0.4933
  643MOL0     O86678   1.716   6.233   1.147 -0.3752  0.7634 -0.0837
  643MOL0     C86679   1.713   6.291   1.013 -0.5335 -0.1048 -0.5921
  643MOL0     C86680   1.564   6.263   0.963  0.5809 -0.5718 -0.1766
  643MOL0     C86681   1.464   6.357   1.022  0.3697 -0.0071 -0.1154
  643MOL0     C86682   1.319   6.318   0.985 -0.3131 -0.0320 -0.5255
  643MOL0     C86683   1.223   6.392   1.077  0.1168 -0.0016 -0.4136
  643MOL0     C86684   1.085   6.379   1.014 -0.4065 -0.6349  0.2795
  643MOL0     C86685   0.990   6.461   1.098  0.1568 -0.3246 -0.4146
  643MOL0     C86686   0.839   6.436   1.062  0.4164  0.3988 -0.1274
  643MOL0     N86687   0.793   6.435   0.923 -0.9799 -0.3678  0.4213
  643MOL0     C86688   0.751   6.544   0.852  0.3405 -0.6430 -0.6743
  643MOL0     C86689   0.777   6.516   0.728 -0.7950  0.0353 -0.2307
  643MOL0     C86690   0.765   6.604   0.602 -0.0772 -0.9333 -0.5869
  643MOL0     C86691   0.624   6.671   0.604 -0.0716  0.0142  0.3336
  643MOL0     C86692   0.496   6.581   0.594  0.4952 -0.1273  0.4161
  643MOL0     C86693   0.381   6.646   0.526 -0.1145 -0.5702 -0.5432
  643MOL0     O86694   0.331   6.759   0.598  0.0429 -0.3410 -0.2659
  643MOL0     C86695   0.199   6.780   0.603 -0.0457 -0.1121 -0.9366
  643MOL0     C86696   0.102   6.687   0.647  0.9199 -0.1948 -0.3059
  643MOL0     C86697  -0.037   6.716   0.652 -0.1670  0.1361 -0.0645
  643MOL0     C86698  -0.119   6.603   0.708 -0.5274 -0.1379 -0.0655
  643MOL0     C86699  -0.079   6.845   0.619 -0.3282 -0.5905 -0.8184
  643MOL0     C86700  -0.214   6.882   0.630  0.4602  0.5424  0.2548
  643MOL0     O86701  -0.287   6.827   0.530  0.6961 -0.1950 -0.5721
  643MOL0     C86702  -0.429   6.829   0.531  0.1399 -0.2704 -0.5645
  643MOL0     C86703  -0.500   6.867   0.417 -0.5010 -0.0382  0.1679
  643MOL0     C86704  -0.642   6.859   0.412  0.2312 -0.7590  0.3260
  643MOL0     C86705  -0.713   6.792   0.513 -0.2522 -0.0768  0.5436
  643MOL0     O86706  -0.844   6.776   0.498 -0.0675  0.2849  0.0062
  643MOL0     C86707  -0.930   6.765   0.620 -0.6278  0.0022 -0.1375
  643MOL0     C86708  -1.077   6.764   0.581 -0.1288  0.0333  0.5271
  643MOL0     C86709  -1.124   6.881   0.495 -1.2394 -0.1922  0.0146
  643MOL0     C86710  -1.226   6.862   0.380 -1.0318  0.0856  0.0491
  643MOL0     C86711  -1.333   6.762   0.409  0.5717  0.1027 -0.1559
  643MOL0     C86712  -1.329   6.630   0.336  0.4925  0.0315 -0.0532
  643MOL0     C86713  -1.453   6.551   0.383  0.7802 -0.2623  0.4538
  643MOL0     C86714  -1.437   6.420   0.302  0.5050 -0.1096  0.1321
  643MOL0    Cl86715  -1.600   6.333   0.313 -0.3645 -0.2210  0.2450
  643MOL0     C86716  -0.641   6.762   0.632 -0.0680  0.2865  0.8777
  643MOL0     C86717  -0.498   6.775   0.642 -0.0470  0.5864  0.6303
  643MOL0     O86718  -0.251   6.970   0.708 -0.2485  0.7079  0.4888
  643MOL0     C86719   0.016   6.940   0.584  0.1327 -0.6378  0.5890
  643MOL0     C86720   0.153   6.910   0.579  0.1305 -1.0530 -0.2546
  643MOL0     N86721   0.820   6.386   0.715  0.9330  0.3333 -0.3225
  643MOL0     N86722   0.817   6.337   0.834  0.3474 -0.2593 -0.7419
  643MOL0     C86723   1.924   6.235   1.269 -0.6287  0.0287 -0.1166
  643MOL0     C86724   2.030   6.306   1.330 -1.7359  0.5048  0.0106
  643MOL0     C86725   2.275   6.558   1.581  1.3526 -1.0966  0.1718
  643MOL0     C86726   2.276   6.600   1.720 -0.1483  0.5235  0.0433
  643MOL0     C86727   2.370   6.696   1.768  0.0446 -0.5479  0.1146
  643MOL0     C86728   2.467   6.748   1.685 -0.0516 -0.2701 -0.1308
  643MOL0     O86729   2.557   6.832   1.747  0.5827  0.0097 -0.1650
  643MOL0     C86730   2.502   6.948   1.816  0.8169 -0.0972  0.2484
  643MOL0     C86731   2.593   7.069   1.785 -0.1032 -0.1880  0.6909
  643MOL0     C86732   2.740   7.041   1.806 -0.4493  0.4625  0.2226
  643MOL0     C86733   2.805   7.012   1.675 -0.0551  0.7475  0.2473
  643MOL0     C86734   2.946   7.032   1.687  0.1955  0.5415 -0.1625
  643MOL0     C86735   3.061   7.037   1.702 -0.1925 -0.2396 -0.3043
  643MOL0     C86736   2.467   6.704   1.552  0.3084 -0.0618 -1.1683
  643MOL0     C86737   2.368   6.609   1.496 -0.9533  0.0069 -0.2152
  643MOL0     H86738   1.901   6.624   1.334 -1.7055  0.0950 -0.8941
  643MOL0     H86739   1.715   6.501   1.232  0.2230  2.4169  1.6071
  643MOL0     H86740   1.732   6.398   1.013 -0.9799  0.0085 -2.6499
  643MOL0     H86741   1.787   6.239   0.951 -0.6978 -1.1858  0.0818
  643MOL0     H86742   1.559   6.253   0.855  1.9184  0.9882 -0.4205
  643MOL0     H86743   1.540   6.165   1.005  0.6415  0.0274  1.3185
  643MOL0     H86744   1.476   6.354   1.131 -2.9797 -0.3110  0.3322
  643MOL0     H86745   1.482   6.462   0.995  1.2712 -0.1134  0.0349
  643MOL0     H86746   1.292   6.336   0.881  0.0008 -0.3777 -0.6705
  643MOL0     H86747   1.315   6.211   1.006  1.1949 -0.0947 -0.4089
  643MOL0     H86748   1.223   6.354   1.180  1.4519  1.7530  0.2902
  643MOL0     H86749   1.249   6.496   1.097 -2.0665  0.1009  2.6384
  643MOL0     H86750   1.088   6.424   0.914  3.1124  0.6705  0.8308
  643MOL0     H86751   1.061   6.273   1.013  1.5912 -1.1344  0.4528
  643MOL0     H86752   1.005   6.428   1.201 -1.1356  1.4376  0.4022
  643MOL0     H86753   1.012   6.568   1.093  0.5918 -0.0910  3.4805
  643MOL0     H86754   0.778   6.517   1.105  0.9298  1.0606 -0.6288
  643MOL0     H86755   0.808   6.337   1.096  0.4799  0.5228  0.2987
  643MOL0     H86756   0.719   6.641   0.891 -1.4592 -1.0867 -0.9416
  643MOL0     H86757   0.849   6.673   0.595  1.1369 -2.4265 -1.2189
  643MOL0     H86758   0.767   6.537   0.516  4.7790 -2.1010  0.1667
  643MOL0     H86759   0.623   6.746   0.525 -1.4643 -0.3247 -0.0038
  643MOL0     H86760   0.629   6.718   0.703 -0.1708 -0.2240  0.4538
  643MOL0     H86761   0.470   6.563   0.699  2.2323  1.9760  1.2982
  643MOL0     H86762   0.513   6.485   0.544 -2.9888 -0.2442 -0.7761
  643MOL0     H86763   0.303   6.570   0.511 -0.1968 -0.7241  0.6022
  643MOL0     H86764   0.423   6.679   0.430 -0.1654 -0.3939 -0.5047
  643MOL0     H86765   0.139   6.588   0.672 -1.1401 -1.5380 -2.1167
  643MOL0     H86766  -0.081   6.577   0.807 -1.1516 -1.3289 -0.1305
  643MOL0     H86767  -0.218   6.643   0.733 -1.0330 -2.3967  1.8978
  643MOL0     H86768  -0.120   6.518   0.639 -0.1084  1.0998 -1.6603
  643MOL0     H86769  -0.452   6.905   0.327 -2.3010  3.3267  0.4691
  643MOL0     H86770  -0.698   6.899   0.327 -0.4170  4.2339  2.7618
  643MOL0     H86771  -0.906   6.667   0.664  0.2874 -0.0393 -0.6941
  643MOL0     H86772  -0.901   6.848   0.685  2.4991 -1.5575  0.6385
  643MOL0     H86773  -1.100   6.677   0.520  4.8343 -0.2712 -1.3567
  643MOL0     H86774  -1.144   6.760   0.668 -0.9999 -3.8900 -0.1506
  643MOL0     H86775  -1.040   6.926   0.440 -2.5444  1.7545 -0.4943
  643MOL0     H86776  -1.163   6.952   0.568  1.3492 -0.3488  1.6870
  643MOL0     H86777  -1.261   6.957   0.339 -0.6040  0.0061 -0.5169
  643MOL0     H86778  -1.167   6.816   0.300 -0.8740 -0.9928  0.7633
  643MOL0     H86779  -1.429   6.814   0.402  0.1764 -0.6604 -0.5313
  643MOL0     H86780  -1.326   6.733   0.514  1.7267  1.5001  0.1816
  643MOL0     H86781  -1.332   6.649   0.228 -2.3074  1.5071  0.2051
  643MOL0     H86782  -1.236   6.584   0.372  0.5871  0.2495 -0.0186
  643MOL0     H86783  -1.545   6.600   0.350 -0.0923 -1.9920  0.1774
  643MOL0     H86784  -1.467   6.526   0.488 -1.9487 -1.3917 -0.0893
  643MOL0     H86785  -1.350   6.360   0.331  2.8797  1.8782 -2.3536
  643MOL0     H86786  -1.434   6.444   0.196 -0.4834 -0.6978 -0.0346
  643MOL0     H86787  -0.673   6.737   0.732  3.0885  0.8024  2.1395
  643MOL0     H86788  -0.447   6.754   0.736  0.2359 -0.6829  0.2164
  643MOL0     H86789  -0.017   7.038   0.552 -1.0159 -1.7000 -1.7124
  643MOL0     H86790   0.226   6.986   0.551 -2.0337 -0.6706 -6.2007
  643MOL0     H86791   1.922   6.127   1.278 -1.6674  0.1221  1.0260
  643MOL0     H86792   2.118   6.254   1.366 -2.3317 -0.6671 -0.1799
  643MOL0     H86793   2.198   6.568   1.788 -0.4530  2.9700  0.9354
  643MOL0     H86794   2.369   6.728   1.872  1.6539  0.8249 -0.2672
  643MOL0     H86795   2.400   6.969   1.784  1.1490 -0.9958 -1.4985
  643MOL0     H86796   2.500   6.930   1.924 -1.5739 -3.4877 -0.1943
  643MOL0     H86797   2.566   7.149   1.854  2.1924  2.3794 -1.2180
  643MOL0     H86798   2.566   7.104   1.685  1.0359  2.4614  1.2253
  643MOL0     H86799   2.746   6.952   1.869  0.2187  0.3066 -0.0572
  643MOL0     H86800   2.792   7.127   1.850  1.0507 -1.1855  1.7938
  643MOL0     H86801   2.770   7.071   1.590  0.5858  0.7639 -0.0089
  643MOL0     H86802   2.780   6.907   1.654  0.5822  0.7359 -0.4524
  643MOL0     H86803   3.159   7.036   1.747 -0.9751 -2.3712  1.6116
  643MOL0     H86804   2.553   6.739   1.495  1.6326  1.0921  1.3609
  643MOL0     H86805   2.373   6.582   1.391  1.4641  1.0601 -0.4345
  644MOL0     O86806   9.029  10.362   3.745 -0.1329  0.1420  0.1714
  644MOL0     C86807   8.954  10.292   3.680 -0.0471  0.1990  0.2648
  644MOL0     O86808   8.815  10.311   3.660 -0.2016  0.2051 -0.2346
  644MOL0     C86809   8.738  10.416   3.722 -0.8845 -0.2990 -0.4594
  644MOL0     C86810   8.783  10.519   3.797 -0.9041 -0.1631 -0.6508
  644MOL0     C86811   8.697  10.613   3.850 -0.0716  1.2158  0.3266
  644MOL0     C86812   8.561  10.606   3.816  0.4557 -1.1215  0.1299
  644MOL0     O86813   8.465  10.690   3.869 -0.3166 -0.1166  0.0809
  644MOL0     C86814   8.467  10.712   4.015  0.2512 -0.2437  0.5517
  644MOL0     C86815   8.361  10.813   4.044 -0.5833 -0.4016  0.5661
  644MOL0     C86816   8.222  10.777   3.988 -0.4094 -0.4344 -0.4007
  644MOL0     C86817   8.102  10.807   4.086  1.0253 -0.6126 -0.2912
  644MOL0     C86818   7.968  10.733   4.035 -0.7223 -0.0994 -0.7281
  644MOL0     C86819   7.904  10.797   3.912 -0.3712 -0.3309 -0.5348
  644MOL0     C86820   7.796  10.717   3.844  0.1241 -0.1023  0.1538
  644MOL0     C86821   7.679  10.652   3.931 -0.2810  1.1451  0.0946
  644MOL0     N86822   7.630  10.726   4.050 -0.6989 -0.0657  0.0475
  644MOL0     C86823   7.598  10.859   4.065 -0.5966  0.2264  0.3253
  644MOL0     C86824   7.565  10.875   4.199  0.5499 -0.0830 -0.9156
  644MOL0     C86825   7.496  10.992   4.260 -0.7296 -0.1266 -0.3773
  644MOL0     C86826   7.354  10.950   4.280 -0.0333  0.2995  0.6036
  644MOL0     C86827   7.278  11.041   4.384  0.6313  0.3849  0.8733
  644MOL0     C86828   7.143  10.981   4.422  0.3152  0.1043 -0.7269
  644MOL0     O86829   7.058  10.982   4.303 -0.0606  0.0325 -0.5442
  644MOL0     C86830   6.917  10.972   4.316 -0.3625 -0.0702 -0.2616
  644MOL0     C86831   6.848  10.986   4.438  0.6369  0.4086 -0.5047
  644MOL0     C86832   6.709  10.960   4.444  0.6818  0.0619  0.2501
  644MOL0     C86833   6.647  10.940   4.576 -0.0187 -0.1821  0.2194
  644MOL0     C86834   6.640  10.940   4.318  0.2043 -0.3925  0.4307
  644MOL0     C86835   6.497  10.921   4.311  0.8469  0.3453  0.0309
  644MOL0     O86836   6.454  10.850   4.203  0.3390 -0.0637 -0.3902
  644MOL0     C86837   6.316  10.823   4.194  0.3112  0.8239  1.0336
  644MOL0     C86838   6.250  10.767   4.302 -0.6928  1.1014 -0.0051
  644MOL0     C86839   6.110  10.741   4.300 -0.0785  0.1721  0.5707
  644MOL0     C86840   6.037  10.765   4.187  0.1760 -0.0571  0.5437
  644MOL0     O86841   5.899  10.765   4.199  0.2177  0.2724  0.3227
  644MOL0     C86842   5.813  10.710   4.101  1.1140  0.9140  0.0655
  644MOL0     C86843   5.694  10.795   4.081  0.1833  0.0208 -0.7614
  644MOL0     C86844   5.589  10.745   3.976  0.9519 -0.0810  0.5532
  644MOL0     C86845   5.608  10.794   3.835  0.6920  1.1605 -0.2673
  644MOL0     C86846   5.500  10.746   3.747 -0.5929 -0.3817 -0.1662
  644MOL0     C86847   5.508  10.595   3.724 -0.2622  0.1411 -0.3068
  644MOL0     C86848   5.419  10.548   3.616  0.4529 -0.5274  0.6148
  644MOL0     C86849   5.270  10.578   3.646 -0.0212 -1.5956 -0.2399
  644MOL0    Cl86850   5.164  10.470   3.544  0.0692  0.0803 -0.1779
  644MOL0     C86851   6.099  10.817   4.070  0.6297  0.0329 -0.2905
  644MOL0     C86852   6.241  10.850   4.081  0.0054 -0.2362  1.1556
  644MOL0     O86853   6.420  10.975   4.390 -0.3005 -0.9502 -0.1924
  644MOL0     C86854   6.712  10.932   4.192  0.9856  0.0638  0.3290
  644MOL0     C86855   6.852  10.942   4.196 -0.3129  1.1689  0.5277
  644MOL0     N86856   7.585  10.757   4.264  0.6515  0.2363 -0.8889
  644MOL0     N86857   7.616  10.667   4.173 -0.1584  0.3475  0.3161
  644MOL0     C86858   8.512  10.500   3.736  0.2459 -1.1587 -0.9712
  644MOL0     C86859   8.603  10.409   3.687 -0.3810  0.6192 -0.3798
  644MOL0     C86860   9.019  10.167   3.627 -0.0261  0.0468 -0.1461
  644MOL0     C86861   9.154  10.171   3.584 -0.2063 -0.6447 -0.6678
  644MOL0     C86862   9.208  10.059   3.523  0.1304  0.0412 -0.4280
  644MOL0     C86863   9.135   9.940   3.503  0.4481  0.9928  0.1026
  644MOL0     O86864   9.182   9.833   3.434  0.6852  0.5148  0.2745
  644MOL0     C86865   9.301   9.782   3.489  0.3663  0.4457  0.2068
  644MOL0     C86866   9.274   9.683   3.599 -0.7495  0.0581  0.1005
  644MOL0     C86867   9.215   9.554   3.546  0.0103 -0.4421  0.0288
  644MOL0     C86868   9.221   9.429   3.637 -0.2219  0.4640  0.9728
  644MOL0     C86869   9.190   9.461   3.774  0.2150 -0.7869  0.1706
  644MOL0     C86870   9.166   9.484   3.896 -0.6364 -0.1599 -0.3040
  644MOL0     C86871   9.000   9.936   3.548  0.2469 -0.3525 -0.3175
  644MOL0     C86872   8.943  10.049   3.606  0.1219 -0.1228  0.0472
  644MOL0     H86873   8.888  10.537   3.814 -0.8448 -0.2881 -0.8744
  644MOL0     H86874   8.740  10.691   3.911  2.7869 -0.3099  0.4155
  644MOL0     H86875   8.449  10.619   4.069  1.0762 -1.1468 -0.6789
  644MOL0     H86876   8.562  10.755   4.046 -1.5515  2.7889  2.3877
  644MOL0     H86877   8.356  10.821   4.153 -1.2920  0.3878  0.4853
  644MOL0     H86878   8.395  10.907   4.000  4.1590 -1.1138  2.1883
  644MOL0     H86879   8.200  10.834   3.897 -2.8806 -0.0443  0.3827
  644MOL0     H86880   8.233  10.671   3.963  0.3468 -0.5059  0.1903
  644MOL0     H86881   8.118  10.780   4.191 -1.5991 -2.8469 -0.3621
  644MOL0     H86882   8.083  10.915   4.084  1.6153 -0.4960  0.0422
  644MOL0     H86883   7.992  10.628   4.019 -0.9176 -0.6882  2.3035
  644MOL0     H86884   7.890  10.743   4.111 -0.7894  0.7911 -0.8953
  644MOL0     H86885   7.865  10.894   3.946  1.9037 -0.4524  2.9588
  644MOL0     H86886   7.976  10.832   3.838  0.4219  0.8955  0.7769
  644MOL0     H86887   7.753  10.784   3.769  0.2045 -2.0316 -1.6853
  644MOL0     H86888   7.860  10.642   3.797  0.8683  0.6749 -0.0953
  644MOL0     H86889   7.724  10.557   3.961  3.0238  2.1215 -1.2886
  644MOL0     H86890   7.591  10.623   3.872  0.6763 -3.5427  0.5304
  644MOL0     H86891   7.604  10.932   3.985  3.7598  2.3668  2.2584
  644MOL0     H86892   7.537  11.008   4.361  0.3820  1.1907 -1.0113
  644MOL0     H86893   7.519  11.086   4.211  2.0878  0.0987  1.1395
  644MOL0     H86894   7.334  10.849   4.316  2.5503 -0.1425  1.0372
  644MOL0     H86895   7.318  10.956   4.177  0.2636  1.1258  0.5417
  644MOL0     H86896   7.262  11.144   4.353 -3.5798  0.4918  2.7307
  644MOL0     H86897   7.343  11.033   4.472  2.2949  1.9001 -0.1450
  644MOL0     H86898   7.110  11.046   4.503  0.2276 -0.7124 -0.1025
  644MOL0     H86899   7.149  10.881   4.465 -1.2588  0.7199  1.0642
  644MOL0     H86900   6.897  11.022   4.528  2.1405  0.0155 -1.1400
  644MOL0     H86901   6.566  10.868   4.560 -3.0974  3.1447 -0.3473
  644MOL0     H86902   6.719  10.902   4.649 -0.4043  0.1116  0.7576
  644MOL0     H86903   6.604  11.034   4.610  0.3222 -0.3660  1.1882
  644MOL0     H86904   6.306  10.762   4.395  1.6784  2.7031 -1.2423
  644MOL0     H86905   6.067  10.705   4.393  0.0143 -0.0648  0.5245
  644MOL0     H86906   5.863  10.697   4.005  1.7542 -1.5295  0.6696
  644MOL0     H86907   5.792  10.609   4.139  2.7347  0.4017 -0.3590
  644MOL0     H86908   5.644  10.816   4.176  1.8983  1.7959 -0.1816
  644MOL0     H86909   5.735  10.893   4.056  5.5986 -1.6292  0.2732
  644MOL0     H86910   5.485  10.762   4.007  0.9396 -1.3527  1.2722
  644MOL0     H86911   5.595  10.636   3.983  3.6226 -0.0133  0.4559
  644MOL0     H86912   5.609  10.903   3.829 -0.6915  1.1966 -0.1015
  644MOL0     H86913   5.703  10.752   3.800 -0.8104 -0.1746 -3.1298
  644MOL0     H86914   5.524  10.790   3.650  0.5350  0.5078  0.4838
  644MOL0     H86915   5.402  10.781   3.780  0.3845 -0.3616  3.0448
  644MOL0     H86916   5.610  10.559   3.708 -0.3606 -0.5199  0.5047
  644MOL0     H86917   5.474  10.539   3.811 -2.1435  0.0419 -1.0527
  644MOL0     H86918   5.422  10.439   3.617  1.6907 -0.5055  1.1192
  644MOL0     H86919   5.451  10.581   3.517  0.5243 -1.1785  0.4163
  644MOL0     H86920   5.233  10.678   3.623  0.0143 -1.6544 -0.5605
  644MOL0     H86921   5.246  10.574   3.753  1.5621  0.9619  0.2985
  644MOL0     H86922   6.042  10.853   3.985 -0.4961  0.0566  0.4611
  644MOL0     H86923   6.281  10.907   3.998 -0.7296  1.6860  2.0829
  644MOL0     H86924   6.663  10.916   4.097 -0.7851  1.0187  1.0342
  644MOL0     H86925   6.895  10.919   4.099 -3.6428 -1.4666 -0.5322
  644MOL0     H86926   8.405  10.498   3.718 -0.3699  0.8076  1.8819
  644MOL0     H86927   8.574  10.319   3.633  2.5406 -1.1525  0.7711
  644MOL0     H86928   9.217  10.256   3.608 -0.6585 -0.5601  0.2630
  644MOL0     H86929   9.315  10.058   3.502  0.4431 -0.9324  1.0739
  644MOL0     H86930   9.359   9.740   3.406  0.8550 -2.3669  1.8583
  644MOL0     H86931   9.359   9.864   3.531 -1.2470  1.3276  0.7932
  644MOL0     H86932   9.209   9.732   3.672 -2.7090 -0.7241 -1.0397
  644MOL0     H86933   9.371   9.661   3.646 -1.2108 -0.2196  0.9488
  644MOL0     H86934   9.270   9.518   3.459 -0.0103 -0.3264 -0.0336
  644MOL0     H86935   9.111   9.570   3.517 -0.4237 -1.2720  1.0869
  644MOL0     H86936   9.323   9.391   3.630 -1.1166 -1.7317 -2.0547
  644MOL0     H86937   9.153   9.346   3.613 -0.4968  0.5636  1.3868
  644MOL0     H86938   9.153   9.485   4.003 -1.3053 -0.4579 -0.3779
  644MOL0     H86939   8.943   9.844   3.539 -1.7878  0.9098 -1.1374
  644MOL0     H86940   8.836  10.054   3.622 -0.4833  0.0357 -3.3991
  645MOL0     O86941   5.683   9.608   2.440  0.1633  0.3645 -0.3861
  645MOL0     C86942   5.663   9.664   2.543  0.6940 -0.7595  0.6329
  645MOL0     O86943   5.551   9.656   2.628  0.2996  0.1609  0.2063
  645MOL0     C86944   5.446   9.587   2.570  0.1644 -0.4366  0.3834
  645MOL0     C86945   5.400   9.466   2.625  0.0806 -0.0873 -0.8750
  645MOL0     C86946   5.288   9.395   2.568 -0.2874  0.0916 -0.2000
  645MOL0     C86947   5.228   9.452   2.452  0.0022 -0.1280 -0.3308
  645MOL0     O86948   5.122   9.398   2.387 -0.8139 -0.6220  0.3587
  645MOL0     C86949   5.068   9.281   2.440 -0.5461 -0.8260  0.1313
  645MOL0     C86950   4.952   9.220   2.360 -0.9374 -0.2809  0.0083
  645MOL0     C86951   4.935   9.078   2.410 -0.7642  0.0726 -0.7452
  645MOL0     C86952   4.818   9.006   2.347  0.0578  0.5661 -0.1884
  645MOL0     C86953   4.820   8.856   2.373 -0.0048 -0.2396 -0.4104
  645MOL0     C86954   4.739   8.780   2.272  0.6218 -0.0799 -0.0112
  645MOL0     C86955   4.591   8.798   2.278  0.7310  0.4446 -1.1098
  645MOL0     C86956   4.513   8.684   2.214 -0.0463 -0.1544  1.2228
  645MOL0     N86957   4.366   8.698   2.243 -0.6666  0.1640  0.8070
  645MOL0     C86958   4.271   8.601   2.220  0.1028  0.1435  0.5788
  645MOL0     C86959   4.154   8.652   2.281 -0.3771 -0.0512  0.7115
  645MOL0     C86960   4.020   8.598   2.280 -0.5358  0.3337  0.5464
  645MOL0     C86961   4.018   8.455   2.232  0.7564  0.0006  0.3593
  645MOL0     C86962   3.891   8.382   2.257 -1.0150 -0.1529 -0.4698
  645MOL0     C86963   3.763   8.456   2.219 -1.0135 -0.3708 -0.8853
  645MOL0     O86964   3.652   8.366   2.229  0.4338 -0.1578 -0.1136
  645MOL0     C86965   3.530   8.397   2.163 -0.1066  1.0246  1.1795
  645MOL0     C86966   3.520   8.417   2.021  0.0638  0.0487 -0.5239
  645MOL0     C86967   3.401   8.425   1.949  0.6251 -0.3909 -0.3659
  645MOL0     C86968   3.402   8.437   1.796 -0.0770 -0.3179  1.2878
  645MOL0     C86969   3.281   8.421   2.024 -0.1955 -0.5147 -0.2998
  645MOL0     C86970   3.143   8.445   1.975 -1.1993 -1.0713  1.3049
  645MOL0     O86971   3.051   8.371   2.038 -0.1557  0.0698 -0.2941
  645MOL0     C86972   2.940   8.349   1.967  0.5491  0.5598 -0.0208
  645MOL0     C86973   2.934   8.247   1.872  0.1016 -0.4336  0.2038
  645MOL0     C86974   2.816   8.217   1.806  0.3374  0.5062 -0.1975
  645MOL0     C86975   2.705   8.301   1.831 -0.3744 -0.4594  0.2542
  645MOL0     O86976   2.581   8.262   1.785 -0.2154  0.2451 -0.6488
  645MOL0     C86977   2.563   8.180   1.667  0.3909 -0.0547  0.3012
  645MOL0     C86978   2.415   8.167   1.634 -0.1897  0.8947 -0.3993
  645MOL0     C86979   2.342   8.103   1.752  1.1460 -0.7246 -0.3565
  645MOL0     C86980   2.199   8.065   1.730 -0.7439  0.1431 -0.0561
  645MOL0     C86981   2.113   8.183   1.705 -0.8883  0.2070  0.7500
  645MOL0     C86982   1.969   8.134   1.672  0.2560 -0.7645  0.8331
  645MOL0     C86983   1.865   8.241   1.669  0.1710 -0.3822  0.2874
  645MOL0     C86984   1.735   8.187   1.626 -0.3064  0.4084  0.7059
  645MOL0    Cl86985   1.713   8.119   1.463  0.6686 -0.7399 -0.0915
  645MOL0     C86986   2.707   8.406   1.919  0.0492 -0.0115 -0.1307
  645MOL0     C86987   2.828   8.427   1.992 -0.3351 -0.1106 -0.1050
  645MOL0     O86988   3.128   8.527   1.881 -0.2753  0.2501 -0.9091
  645MOL0     C86989   3.294   8.377   2.159 -0.4801 -0.3326  0.0707
  645MOL0     C86990   3.413   8.370   2.227  0.6370  0.8883  0.2261
  645MOL0     N86991   4.191   8.778   2.339 -0.6655  0.2188  0.5747
  645MOL0     N86992   4.318   8.804   2.301  0.7153  0.4683 -0.1677
  645MOL0     C86993   5.272   9.568   2.397 -0.6643  0.5150 -0.0285
  645MOL0     C86994   5.382   9.637   2.457 -0.2512  0.1454  0.9574
  645MOL0     C86995   5.775   9.754   2.589 -0.4143  1.0865 -0.6290
  645MOL0     C86996   5.881   9.784   2.511  0.6632 -0.1733  0.8692
  645MOL0     C86997   5.972   9.878   2.553 -0.0978 -1.2706 -1.3180
  645MOL0     C86998   5.958   9.947   2.678 -1.4285 -0.3507 -0.3176
  645MOL0     O86999   6.039  10.057   2.724 -0.2730 -0.1700  0.3717
  645MOL0     C87000   6.145  10.097   2.625  0.4174 -0.2304  0.3398
  645MOL0     C87001   6.266   9.998   2.637  1.2406 -0.6142  0.0818
  645MOL0     C87002   6.340   9.989   2.769 -0.0388  0.6032  0.4107
  645MOL0     C87003   6.488   9.943   2.749 -0.0728  0.2691 -0.9831
  645MOL0     C87004   6.564   9.942   2.875 -0.5075  0.9709 -0.2289
  645MOL0     C87005   6.622   9.948   2.980 -0.5169 -0.1270 -0.8171
  645MOL0     C87006   5.859   9.904   2.765  0.4884  0.5028  0.4875
  645MOL0     C87007   5.772   9.807   2.718 -0.4673 -0.0562  0.0217
  645MOL0     H87008   5.444   9.436   2.719 -0.5825 -1.8850 -1.0827
  645MOL0     H87009   5.240   9.311   2.616 -2.3590  2.2206  1.6594
  645MOL0     H87010   5.153   9.212   2.436 -0.5230 -0.7652 -0.6594
  645MOL0     H87011   5.037   9.295   2.544 -0.9644 -1.2537  0.0687
  645MOL0     H87012   4.864   9.279   2.385 -0.3941  1.2503 -1.4749
  645MOL0     H87013   4.969   9.211   2.252  2.1064  0.2531  0.3652
  645MOL0     H87014   5.028   9.023   2.391 -0.8777 -1.4739  2.4852
  645MOL0     H87015   4.929   9.076   2.519 -0.8750  0.2239 -0.7484
  645MOL0     H87016   4.735   9.055   2.397  2.1282  1.7734  2.3315
  645MOL0     H87017   4.818   9.040   2.243 -1.0338  1.0380 -0.0391
  645MOL0     H87018   4.924   8.826   2.358  0.1469  0.1334 -0.1061
  645MOL0     H87019   4.781   8.840   2.474  3.4949  0.2490  1.1813
  645MOL0     H87020   4.772   8.799   2.169 -0.5468 -1.0576 -0.5898
  645MOL0     H87021   4.767   8.677   2.295  0.1686  0.0760  1.2661
  645MOL0     H87022   4.562   8.810   2.383  1.1685  1.5514 -1.1054
  645MOL0     H87023   4.562   8.890   2.227 -0.8084  0.1234 -0.8686
  645MOL0     H87024   4.559   8.590   2.247  3.1557  0.9110  0.1828
  645MOL0     H87025   4.524   8.681   2.105 -1.8569  0.0237  1.0062
  645MOL0     H87026   4.261   8.509   2.163  0.3013  0.5514 -0.1267
  645MOL0     H87027   3.979   8.611   2.381  3.1601  0.1827  2.2609
  645MOL0     H87028   3.971   8.650   2.198 -2.1721 -1.8417  0.0464
  645MOL0     H87029   4.102   8.397   2.272  0.1056 -0.2383  1.4136
  645MOL0     H87030   4.026   8.455   2.123 -1.0145 -2.7644  0.1137
  645MOL0     H87031   3.884   8.366   2.365  0.0863  0.5064 -0.2802
  645MOL0     H87032   3.888   8.287   2.203 -1.8641  0.0552 -0.8042
  645MOL0     H87033   3.774   8.491   2.116  0.5971 -0.4192 -0.7511
  645MOL0     H87034   3.751   8.535   2.294 -1.1411 -0.2732 -1.0089
  645MOL0     H87035   3.616   8.416   1.970 -0.7679  1.4802 -2.1812
  645MOL0     H87036   3.309   8.427   1.740  2.6678 -0.3970 -3.8752
  645MOL0     H87037   3.430   8.541   1.773 -2.4660  0.1551  0.2856
  645MOL0     H87038   3.472   8.372   1.742 -0.2164  2.0169 -2.0142
  645MOL0     H87039   3.021   8.187   1.850 -0.7489 -1.7558  0.3019
  645MOL0     H87040   2.826   8.130   1.743  3.1846  1.0667 -0.6961
  645MOL0     H87041   2.616   8.222   1.581 -1.5329 -0.6076 -1.2288
  645MOL0     H87042   2.599   8.078   1.678 -0.9750 -0.8103 -1.6648
  645MOL0     H87043   2.381   8.269   1.616  0.9749  1.6220  1.2583
  645MOL0     H87044   2.404   8.097   1.551 -0.7568 -0.1415  0.5165
  645MOL0     H87045   2.343   8.180   1.829  2.5345  0.9238 -1.9315
  645MOL0     H87046   2.397   8.019   1.795  0.3653 -0.9261  0.2525
  645MOL0     H87047   2.206   7.980   1.661  0.9841  0.9115 -0.8966
  645MOL0     H87048   2.159   8.021   1.822 -2.3293 -2.0470 -1.6794
  645MOL0     H87049   2.151   8.233   1.616  0.4476 -2.3837 -0.2334
  645MOL0     H87050   2.126   8.259   1.783  3.0718  0.4608  0.0637
  645MOL0     H87051   1.962   8.090   1.571 -0.8144  2.5887 -0.6933
  645MOL0     H87052   1.948   8.055   1.744  2.5045 -1.9375  0.2853
  645MOL0     H87053   1.898   8.306   1.588  0.1588 -0.3493  0.3089
  645MOL0     H87054   1.853   8.285   1.769  2.4167 -0.7717  0.7839
  645MOL0     H87055   1.653   8.257   1.644 -1.4482  0.0679 -2.5457
  645MOL0     H87056   1.719   8.099   1.689  0.9369  0.4709  1.1463
  645MOL0     H87057   2.624   8.476   1.920  0.2000  0.1920  1.3036
  645MOL0     H87058   2.842   8.505   2.066  0.8488 -0.4163  0.0206
  645MOL0     H87059   3.204   8.369   2.219  0.7940  1.1203  2.2993
  645MOL0     H87060   3.412   8.325   2.327 -3.8860 -2.2793 -0.9216
  645MOL0     H87061   5.221   9.605   2.308 -1.2636  0.1115  0.1339
  645MOL0     H87062   5.415   9.725   2.403 -0.4400 -0.0136  0.5787
  645MOL0     H87063   5.893   9.734   2.415  1.2134 -3.1000  2.3466
  645MOL0     H87064   6.053   9.900   2.483 -0.6656 -0.0468 -1.6192
  645MOL0     H87065   6.112  10.100   2.521  1.1178  0.0430  0.1211
  645MOL0     H87066   6.172  10.198   2.656  0.4936 -0.7608  2.0997
  645MOL0     H87067   6.320  10.030   2.548 -2.3336  4.9262 -0.6200
  645MOL0     H87068   6.222   9.898   2.625 -2.2584  0.8781 -1.0900
  645MOL0     H87069   6.287   9.925   2.840  0.7146 -1.1018 -0.5062
  645MOL0     H87070   6.346  10.091   2.810  0.9457  1.0538 -0.7952
  645MOL0     H87071   6.520  10.017   2.675  2.0692 -0.7231 -1.1339
  645MOL0     H87072   6.477   9.845   2.701 -3.2718  0.8779 -1.6901
  645MOL0     H87073   6.670   9.954   3.076  0.1282  0.1764 -1.1537
  645MOL0     H87074   5.853   9.923   2.871  1.4618  1.0441  0.4650
  645MOL0     H87075   5.688   9.777   2.780 -1.4737 -0.4576 -1.5015
  646MOL0     O87076   6.269   0.936   9.398  0.4254  0.5631 -0.6769
  646MOL0     C87077   6.330   0.911   9.290  2.0491 -0.3171  0.0846
  646MOL0     O87078   6.275   0.874   9.174 -0.7155  0.7395 -0.4560
  646MOL0     C87079   6.144   0.838   9.166 -1.1016  0.2120  0.0047
  646MOL0     C87080   6.071   0.887   9.055  0.4416 -0.1727  0.0970
  646MOL0     C87081   5.932   0.864   9.048 -0.1576 -0.6401  0.6631
  646MOL0     C87082   5.866   0.801   9.148 -0.6171  0.3265  0.1728
  646MOL0     O87083   5.728   0.794   9.146  0.2294 -0.4391  0.3505
  646MOL0     C87084   5.643   0.755   9.256 -0.2097  0.0737  0.6730
  646MOL0     C87085   5.623   0.863   9.356 -0.9259 -0.8259 -0.1017
  646MOL0     C87086   5.559   0.987   9.298  0.4568 -0.3277 -0.1758
  646MOL0     C87087   5.569   1.100   9.407 -0.3088  0.8061  0.8309
  646MOL0     C87088   5.481   1.217   9.373  0.1754  0.1876 -0.2967
  646MOL0     C87089   5.491   1.337   9.465  0.0580  0.0237  0.2038
  646MOL0     C87090   5.364   1.425   9.450  0.0131  0.7793  0.7976
  646MOL0     C87091   5.385   1.542   9.539  0.6989  0.1140 -0.3483
  646MOL0     N87092   5.357   1.500   9.680 -0.0216  0.3184 -0.1224
  646MOL0     C87093   5.454   1.488   9.792 -0.4090  0.6573  0.0472
  646MOL0     C87094   5.382   1.432   9.896 -0.8727  0.9819 -0.3570
  646MOL0     C87095   5.446   1.381  10.020  0.7207 -0.1335  0.2316
  646MOL0     C87096   5.487   1.494  10.120 -0.2379 -0.9588 -1.0622
  646MOL0     C87097   5.364   1.541  10.207 -0.2920 -0.0628 -0.5912
  646MOL0     C87098   5.279   1.440  10.275  0.8724  0.1730 -0.5237
  646MOL0     O87099   5.172   1.511  10.344  0.4851 -0.1582 -0.1702
  646MOL0     C87100   5.041   1.517  10.292 -0.1676  0.4094  0.4644
  646MOL0     C87101   5.024   1.500  10.158  0.4077  0.1052 -0.2106
  646MOL0     C87102   4.893   1.507  10.099 -0.3243  0.2127 -1.1911
  646MOL0     C87103   4.882   1.487   9.949 -0.5850  0.1986  0.4141
  646MOL0     C87104   4.779   1.543  10.179  0.0409  0.9354  0.8166
  646MOL0     C87105   4.636   1.549  10.144  0.3576 -0.7956  0.1152
  646MOL0     O87106   4.608   1.546  10.014 -0.3386 -0.0449  0.4205
  646MOL0     C87107   4.486   1.506   9.974 -0.2887 -0.0273  0.4927
  646MOL0     C87108   4.416   1.588   9.893 -0.0230  0.5875 -0.2685
  646MOL0     C87109   4.280   1.557   9.853  0.7096  0.4011 -0.3420
  646MOL0     C87110   4.219   1.455   9.904  0.7758  0.0777 -0.1428
  646MOL0     O87111   4.086   1.450   9.864  0.3912 -0.5575  0.2620
  646MOL0     C87112   4.013   1.331   9.890  0.2094 -0.2902 -0.4136
  646MOL0     C87113   3.864   1.348   9.846  0.5862  0.0092  0.0086
  646MOL0     C87114   3.785   1.226   9.907  0.1798 -0.5373  0.8217
  646MOL0     C87115   3.635   1.247   9.918 -0.0017  0.3415  0.1760
  646MOL0     C87116   3.567   1.127   9.975  0.6451 -0.7127 -0.2966
  646MOL0     C87117   3.413   1.148   9.997 -0.9517  0.2682  0.3623
  646MOL0     C87118   3.352   1.026  10.067 -0.0161  0.6267 -1.2669
  646MOL0     C87119   3.198   1.031  10.049  0.2820  0.4442 -0.1707
  646MOL0    Cl87120   3.139   1.157  10.165  0.0066 -0.0606 -0.0071
  646MOL0     C87121   4.285   1.364   9.982 -0.5061  0.1833 -1.4089
  646MOL0     C87122   4.420   1.383  10.012 -0.1608 -0.1248 -0.0810
  646MOL0     O87123   4.548   1.543  10.234 -0.3048  0.1380 -0.1801
  646MOL0     C87124   4.799   1.564  10.318 -0.0681  0.8861 -0.0551
  646MOL0     C87125   4.930   1.561  10.371 -0.4698  0.4116  0.2398
  646MOL0     N87126   5.253   1.423   9.859 -0.3066 -1.1093 -0.1313
  646MOL0     N87127   5.238   1.452   9.737  0.3940 -0.7995 -0.6888
  646MOL0     C87128   5.940   0.746   9.255  0.5081  0.4257 -0.5053
  646MOL0     C87129   6.077   0.764   9.266 -0.5303  0.5321  0.6352
  646MOL0     C87130   6.483   0.918   9.293  0.3783  0.2444  0.1668
  646MOL0     C87131   6.562   0.899   9.176  0.3362  0.7640  0.1271
  646MOL0     C87132   6.700   0.914   9.184 -0.2786  0.6202 -0.4103
  646MOL0     C87133   6.765   0.922   9.309 -0.3951  0.2680  0.7377
  646MOL0     O87134   6.898   0.926   9.335  0.6516 -1.0873 -0.2184
  646MOL0     C87135   6.994   0.926   9.237 -0.1786 -0.3523  0.3578
  646MOL0     C87136   7.140   0.947   9.271  0.6528  0.9852  0.1134
  646MOL0     C87137   7.222   0.927   9.138  0.1399  0.9342  1.1657
  646MOL0     C87138   7.358   1.001   9.155 -0.2424 -1.0274 -0.2699
  646MOL0     C87139   7.429   1.043   9.029  0.5738  0.2369 -0.3242
  646MOL0     C87140   7.482   1.062   8.920 -0.1613 -0.2917  0.2676
  646MOL0     C87141   6.688   0.917   9.424  0.4673 -0.3868 -0.2998
  646MOL0     C87142   6.540   0.919   9.418  0.3240 -0.2529 -0.2716
  646MOL0     H87143   6.130   0.952   8.991  2.8386 -0.7355  1.6000
  646MOL0     H87144   5.877   0.905   8.964  2.2317  2.4671  0.4255
  646MOL0     H87145   5.545   0.734   9.211  0.7671 -0.7596 -1.1906
  646MOL0     H87146   5.670   0.666   9.313 -2.9023 -1.1364  0.1993
  646MOL0     H87147   5.567   0.819   9.439 -2.0153 -1.1524 -0.9826
  646MOL0     H87148   5.722   0.891   9.394 -1.3089  0.6360 -0.1321
  646MOL0     H87149   5.612   1.020   9.208 -0.7165  0.9902 -0.4295
  646MOL0     H87150   5.454   0.974   9.269  0.5584 -0.6889 -0.3891
  646MOL0     H87151   5.533   1.058   9.501  0.8986 -1.0740  0.5060
  646MOL0     H87152   5.675   1.123   9.426  0.1915 -0.8102  0.1760
  646MOL0     H87153   5.509   1.239   9.269  0.2558 -2.0231 -0.7910
  646MOL0     H87154   5.383   1.169   9.379  0.8434 -1.1105  0.9305
  646MOL0     H87155   5.509   1.316   9.571 -0.0406  0.4773  0.3113
  646MOL0     H87156   5.572   1.400   9.429 -0.8834  2.2124  1.7161
  646MOL0     H87157   5.365   1.462   9.347 -2.3683  1.4186  0.9506
  646MOL0     H87158   5.268   1.377   9.468  0.2436 -0.4458 -1.0416
  646MOL0     H87159   5.306   1.612   9.511 -0.4368 -1.2430 -0.6355
  646MOL0     H87160   5.482   1.593   9.530  0.1451  1.4140  0.6495
  646MOL0     H87161   5.559   1.512   9.796  0.0338 -1.2412  1.3121
  646MOL0     H87162   5.393   1.310  10.084  1.3951 -0.8311  0.0305
  646MOL0     H87163   5.533   1.318  10.000  0.0445 -1.6825  1.8511
  646MOL0     H87164   5.539   1.569  10.059  4.1075 -2.8861 -0.1099
  646MOL0     H87165   5.553   1.463  10.201  0.1134  2.1240 -0.0271
  646MOL0     H87166   5.307   1.603  10.137 -2.8831  0.0431  1.4901
  646MOL0     H87167   5.407   1.611  10.279  0.2788  0.7019 -1.6324
  646MOL0     H87168   5.344   1.391  10.348 -1.0549  0.2469  1.3565
  646MOL0     H87169   5.249   1.352  10.217  0.9421  0.6260 -1.2618
  646MOL0     H87170   5.107   1.480  10.092  0.3375  0.5794 -0.4426
  646MOL0     H87171   4.976   1.491   9.894 -0.8501 -2.4451 -0.3597
  646MOL0     H87172   4.814   1.409   9.914 -1.0104  1.0788 -0.8233
  646MOL0     H87173   4.836   1.575   9.902 -1.2900  0.2774  1.2236
  646MOL0     H87174   4.453   1.686   9.864 -1.7449  1.8880  1.5894
  646MOL0     H87175   4.226   1.612   9.777 -0.9630  0.5817  0.9067
  646MOL0     H87176   4.066   1.254   9.832  3.7550 -0.0894  2.2099
  646MOL0     H87177   4.017   1.298   9.994 -1.0253  1.0416  0.0857
  646MOL0     H87178   3.821   1.442   9.881 -0.2905  0.1877 -1.4802
  646MOL0     H87179   3.845   1.341   9.738 -0.6214 -1.5200  0.2966
  646MOL0     H87180   3.820   1.194  10.006 -1.6826 -2.1899  1.0169
  646MOL0     H87181   3.799   1.141   9.839  0.1141  1.3922 -1.7605
  646MOL0     H87182   3.615   1.333   9.983 -3.5580  1.3416 -1.9834
  646MOL0     H87183   3.599   1.271   9.817 -0.4408  0.0315  0.2612
  646MOL0     H87184   3.602   1.098  10.075  0.1059  2.3033  0.8615
  646MOL0     H87185   3.585   1.041   9.910 -1.4517 -1.4233 -0.0008
  646MOL0     H87186   3.403   1.247  10.043 -0.4450  1.1986 -1.4412
  646MOL0     H87187   3.365   1.157   9.899  0.2822  1.6003 -0.1495
  646MOL0     H87188   3.379   1.033  10.173 -3.7399  1.9030 -0.2632
  646MOL0     H87189   3.371   0.928  10.022 -2.1187 -0.3890 -0.0667
  646MOL0     H87190   3.152   0.934  10.069  0.0277  0.1773 -1.9401
  646MOL0     H87191   3.175   1.057   9.945  1.2557 -1.0849 -0.8045
  646MOL0     H87192   4.219   1.292  10.029 -1.4602  2.3001  0.7276
  646MOL0     H87193   4.481   1.321  10.077 -0.3642 -0.7255 -0.4599
  646MOL0     H87194   4.721   1.589  10.389 -1.0885 -2.2751  0.0766
  646MOL0     H87195   4.943   1.606  10.469  0.5692 -2.4923  1.5621
  646MOL0     H87196   5.881   0.693   9.329 -0.3221  4.0592  1.6763
  646MOL0     H87197   6.134   0.720   9.347 -2.2741 -2.8667  0.1702
  646MOL0     H87198   6.522   0.896   9.075  4.0671  1.7752 -1.5598
  646MOL0     H87199   6.762   0.912   9.095  2.5262  0.6927  1.4111
  646MOL0     H87200   6.992   0.831   9.182  1.5802  0.2568 -0.8585
  646MOL0     H87201   6.965   1.002   9.163  0.4291 -1.8953 -1.5685
  646MOL0     H87202   7.164   0.863   9.337 -1.5660  0.1606 -0.0529
  646MOL0     H87203   7.160   1.037   9.329 -0.1043  1.0023  0.3578
  646MOL0     H87204   7.164   0.977   9.060 -1.3359 -0.7095  1.1601
  646MOL0     H87205   7.241   0.822   9.113 -0.6774  1.1802 -0.6417
  646MOL0     H87206   7.423   0.952   9.228  0.3165 -1.7900 -1.2528
  646MOL0     H87207   7.333   1.091   9.211 -1.1485 -1.2113 -0.3613
  646MOL0     H87208   7.547   1.076   8.836 -0.1280  2.2327  0.6153
  646MOL0     H87209   6.739   0.922   9.519  0.7241  0.0718 -0.4570
  646MOL0     H87210   6.483   0.930   9.509 -1.6021 -1.6041 -1.2331
  647MOL0     O87211   8.657   8.675  11.217  0.3510 -0.1648 -0.2617
  647MOL0     C87212   8.662   8.646  11.101  0.8676  0.3988 -0.2342
  647MOL0     O87213   8.557   8.617  11.015 -0.2395 -0.1213  0.4363
  647MOL0     C87214   8.431   8.626  11.066  0.5104 -0.7018  0.1391
  647MOL0     C87215   8.355   8.747  11.056  0.4679  0.2493 -0.6141
  647MOL0     C87216   8.222   8.738  11.093 -0.0764  0.6850  0.2014
  647MOL0     C87217   8.166   8.623  11.156 -0.2917  0.1554 -0.5131
  647MOL0     O87218   8.036   8.643  11.202  0.2273 -0.1113  0.1070
  647MOL0     C87219   7.955   8.528  11.232 -0.5123  0.4408  0.1653
  647MOL0     C87220   7.900   8.473  11.103  0.3900  1.6040  0.2537
  647MOL0     C87221   7.860   8.596  11.005  0.3909  0.6724 -0.5971
  647MOL0     C87222   7.740   8.552  10.917 -0.6314 -0.7683  0.3365
  647MOL0     C87223   7.793   8.472  10.790 -1.4750  0.0972 -0.2035
  647MOL0     C87224   7.693   8.393  10.700  0.0487 -0.1067  0.3331
  647MOL0     C87225   7.771   8.335  10.587  0.5632  0.2769  0.3662
  647MOL0     C87226   7.682   8.256  10.480 -0.7814 -0.6201  0.2110
  647MOL0     N87227   7.758   8.181  10.379  0.1276 -0.5088  0.4287
  647MOL0     C87228   7.818   8.233  10.263  0.4362 -0.1178 -0.2725
  647MOL0     C87229   7.872   8.125  10.207 -0.5051 -0.8624 -0.4938
  647MOL0     C87230   7.951   8.129  10.078  0.0978  0.0307 -0.7823
  647MOL0     C87231   7.969   8.265  10.015  0.2478 -0.1008 -0.5277
  647MOL0     C87232   8.058   8.356  10.098 -1.7490 -1.3148 -0.1958
  647MOL0     C87233   8.149   8.454  10.037  0.4874 -0.2335  0.1764
  647MOL0     O87234   8.227   8.497  10.144 -0.0802 -0.3782 -0.6945
  647MOL0     C87235   8.351   8.551  10.110  0.2646  0.1871 -0.5537
  647MOL0     C87236   8.401   8.570   9.979 -0.3244  0.3839  0.1354
  647MOL0     C87237   8.520   8.638   9.956  0.2652  0.4116  0.1283
  647MOL0     C87238   8.557   8.638   9.810  0.8153 -0.1003 -1.5664
  647MOL0     C87239   8.602   8.689  10.059  0.5891 -0.3422  0.2977
  647MOL0     C87240   8.738   8.759  10.032  0.5629  0.4430  0.3149
  647MOL0     O87241   8.822   8.754  10.131  0.4857 -0.4458  0.1238
  647MOL0     C87242   8.958   8.753  10.110  0.5156  0.6990  0.5438
  647MOL0     C87243   9.016   8.683  10.002 -0.4227  0.2445  0.6483
  647MOL0     C87244   9.158   8.673  10.009  0.5891  1.3373  0.0077
  647MOL0     C87245   9.238   8.730  10.104  0.9990 -0.8143 -0.4931
  647MOL0     O87246   9.374   8.722  10.099 -0.8564  0.4125 -0.2180
  647MOL0     C87247   9.455   8.831  10.158 -0.5796  0.9173  0.6476
  647MOL0     C87248   9.599   8.825  10.108 -0.0795 -0.1634 -0.0835
  647MOL0     C87249   9.662   8.684  10.130 -0.7340 -0.4924 -0.8418
  647MOL0     C87250   9.812   8.695  10.100  0.1219 -0.3029 -0.2155
  647MOL0     C87251   9.895   8.578  10.153  0.1000  0.0241  0.1757
  647MOL0     C87252  10.010   8.542  10.056 -0.4674 -0.0361  0.3075
  647MOL0     C87253  10.039   8.392  10.040 -0.0161  0.1774 -0.6333
  647MOL0     C87254  10.155   8.352   9.948 -0.4806  0.3460 -0.0426
  647MOL0    Cl87255  10.314   8.424   9.994 -0.0091  0.0048 -0.4102
  647MOL0     C87256   9.167   8.800  10.204  0.4453  0.4718 -0.5523
  647MOL0     C87257   9.028   8.807  10.216 -0.0921 -0.1944  0.5588
  647MOL0     O87258   8.764   8.797   9.918  0.4182  0.1928  0.2834
  647MOL0     C87259   8.546   8.678  10.191  0.0978 -0.3796  0.2408
  647MOL0     C87260   8.419   8.614  10.208 -0.2277 -0.3475  0.4207
  647MOL0     N87261   7.843   8.015  10.286  0.0836  0.1511 -0.5820
  647MOL0     N87262   7.776   8.047  10.380  0.2240  0.3885  0.0983
  647MOL0     C87263   8.242   8.505  11.144 -0.1434 -0.3425 -0.6896
  647MOL0     C87264   8.380   8.510  11.109 -0.0807  0.8958 -0.2712
  647MOL0     C87265   8.800   8.629  11.049  0.3383 -0.0660  0.3533
  647MOL0     C87266   8.823   8.581  10.926  0.6960 -0.9088 -0.0245
  647MOL0     C87267   8.952   8.562  10.879  0.4924  0.5719 -0.4749
  647MOL0     C87268   9.068   8.587  10.960 -0.0098 -0.0890 -0.7069
  647MOL0     O87269   9.197   8.582  10.911  0.1149  0.2305  0.4180
  647MOL0     C87270   9.306   8.555  10.996 -0.3232  0.3980  0.4944
  647MOL0     C87271   9.401   8.471  10.909  0.2637  0.4554  0.4696
  647MOL0     C87272   9.458   8.559  10.793  0.2737 -0.5580 -1.5758
  647MOL0     C87273   9.531   8.470  10.682  0.8668  0.3460  0.5656
  647MOL0     C87274   9.604   8.544  10.583 -0.1348 -0.1658  0.1818
  647MOL0     C87275   9.674   8.594  10.496  0.0083  0.3795 -0.3317
  647MOL0     C87276   9.047   8.626  11.089  1.0656  0.3003 -0.2620
  647MOL0     C87277   8.916   8.639  11.134  0.0665  0.8001 -0.2113
  647MOL0     H87278   8.385   8.841  11.012 -1.6708  2.6744  2.5585
  647MOL0     H87279   8.151   8.819  11.082  0.6323  1.7587  2.7500
  647MOL0     H87280   8.016   8.460  11.292 -0.0071 -1.0205 -1.9057
  647MOL0     H87281   7.866   8.563  11.285  1.7024  1.9005  3.2307
  647MOL0     H87282   7.980   8.416  11.055  1.7111  4.2816 -0.9449
  647MOL0     H87283   7.815   8.406  11.123  0.1488  2.1519  1.1341
  647MOL0     H87284   7.825   8.680  11.065 -0.6434  0.0052 -0.2522
  647MOL0     H87285   7.943   8.634  10.944  0.7588  0.4379 -0.2499
  647MOL0     H87286   7.656   8.509  10.973 -2.8457  5.4854  2.7070
  647MOL0     H87287   7.701   8.648  10.880  0.8194 -0.0227  0.6586
  647MOL0     H87288   7.835   8.540  10.715  0.0951  1.2016  1.5786
  647MOL0     H87289   7.860   8.392  10.824  0.1265  2.0351  1.4414
  647MOL0     H87290   7.625   8.324  10.752 -1.0535  0.3727 -0.4245
  647MOL0     H87291   7.628   8.474  10.666  1.0517  0.0036 -1.3662
  647MOL0     H87292   7.822   8.407  10.523  2.2007 -0.6877  0.5338
  647MOL0     H87293   7.847   8.265  10.623 -1.1271 -1.1176  1.3610
  647MOL0     H87294   7.622   8.334  10.433  0.6197  1.3423  1.5515
  647MOL0     H87295   7.613   8.197  10.541  0.9986 -4.6658 -1.2866
  647MOL0     H87296   7.819   8.335  10.227 -2.0868 -0.1475 -0.6153
  647MOL0     H87297   8.047   8.086  10.108  0.4867  0.5616 -1.2651
  647MOL0     H87298   7.907   8.067   9.999 -2.9780  0.6573  0.2886
  647MOL0     H87299   7.875   8.318   9.998  0.5383 -0.5417 -4.4007
  647MOL0     H87300   8.005   8.249   9.913 -1.1005 -2.4008 -0.7041
  647MOL0     H87301   8.129   8.283  10.137  0.2115  1.1076  1.0184
  647MOL0     H87302   8.004   8.404  10.180 -1.2946  0.3049 -0.8154
  647MOL0     H87303   8.084   8.537  10.011  0.3356  0.1644  1.7121
  647MOL0     H87304   8.202   8.411   9.952 -0.0762 -2.2905  0.8109
  647MOL0     H87305   8.344   8.538   9.892 -1.5956  2.3929  0.1523
  647MOL0     H87306   8.543   8.739   9.771  0.1714  1.2438  1.8341
  647MOL0     H87307   8.661   8.605   9.800  0.6226 -0.7547 -1.4737
  647MOL0     H87308   8.498   8.562   9.758  1.1353 -0.9480 -0.7243
  647MOL0     H87309   8.952   8.648   9.922 -2.1158 -0.4933  2.2636
  647MOL0     H87310   9.202   8.618   9.927 -2.6640 -2.7187  0.6451
  647MOL0     H87311   9.419   8.928  10.123 -1.1506  0.6986  0.6188
  647MOL0     H87312   9.447   8.828  10.267 -0.9670 -0.0854  0.6035
  647MOL0     H87313   9.607   8.855  10.003  2.4602  1.0418  0.3874
  647MOL0     H87314   9.652   8.911  10.151 -0.8521  0.5373 -0.4938
  647MOL0     H87315   9.629   8.610  10.057  3.4424 -1.0912 -2.4386
  647MOL0     H87316   9.644   8.648  10.232  0.7457  0.9820 -0.0032
  647MOL0     H87317   9.812   8.691   9.991 -2.1294  1.8262 -0.3791
  647MOL0     H87318   9.857   8.786  10.139  0.9446 -1.6553  2.1856
  647MOL0     H87319   9.834   8.487  10.158  0.3825 -0.3445 -2.2119
  647MOL0     H87320   9.938   8.598  10.252 -2.0808  1.5787  0.8924
  647MOL0     H87321   9.999   8.567   9.950  0.9384  0.7144  0.3066
  647MOL0     H87322  10.105   8.590  10.084 -0.2857  0.3266 -0.8761
  647MOL0     H87323   9.945   8.342  10.016  0.2170 -0.0100 -1.1642
  647MOL0     H87324  10.056   8.358  10.143  0.7378 -0.1468 -0.8610
  647MOL0     H87325  10.144   8.378   9.842 -2.1339 -0.0430  0.0136
  647MOL0     H87326  10.156   8.243   9.950  0.7444  0.3121 -1.1763
  647MOL0     H87327   9.219   8.847  10.288 -1.6827 -0.2885  1.2999
  647MOL0     H87328   8.980   8.872  10.289 -0.3840  0.2823 -0.0385
  647MOL0     H87329   8.597   8.723  10.276  0.8183  0.3390 -0.5534
  647MOL0     H87330   8.374   8.612  10.306  2.2292 -4.6296  1.7219
  647MOL0     H87331   8.206   8.412  11.189  2.0726 -1.4274 -1.0073
  647MOL0     H87332   8.432   8.415  11.104 -1.2403  0.2803 -1.0937
  647MOL0     H87333   8.750   8.568  10.848 -0.6550  4.2167  0.0414
  647MOL0     H87334   8.967   8.525  10.778  3.0692  1.1508 -0.3651
  647MOL0     H87335   9.343   8.654  11.025  1.7111 -0.4848  1.1120
  647MOL0     H87336   9.269   8.500  11.084 -0.5916 -0.3243 -0.0555
  647MOL0     H87337   9.350   8.384  10.867  1.9623 -1.1596  1.6006
  647MOL0     H87338   9.483   8.427  10.967  1.5096  2.1872  0.0863
  647MOL0     H87339   9.528   8.634  10.830  1.7231 -0.9166 -3.4535
  647MOL0     H87340   9.370   8.610  10.753 -1.5744 -0.3030  2.3021
  647MOL0     H87341   9.451   8.420  10.626 -1.5539  3.4163  1.0513
  647MOL0     H87342   9.603   8.401  10.728  0.5779 -0.1663  0.2685
  647MOL0     H87343   9.743   8.645  10.432 -0.0442 -0.2637 -0.9211
  647MOL0     H87344   9.136   8.651  11.146  1.1370 -2.4515  0.9982
  647MOL0     H87345   8.913   8.666  11.239  0.2077  2.3515 -0.5849
  648MOL0     O87346  10.747  10.648   7.058  0.5607  0.0037  0.7629
  648MOL0     C87347  10.720  10.595   7.166 -0.1536 -0.1438  0.5337
  648MOL0     O87348  10.599  10.603   7.223 -0.2619 -0.0131  0.1979
  648MOL0     C87349  10.485  10.645   7.165  0.7781  0.1316  0.9758
  648MOL0     C87350  10.382  10.687   7.246 -0.0338  0.2394 -0.2777
  648MOL0     C87351  10.255  10.722   7.190  0.8171  0.3944 -0.6045
  648MOL0     C87352  10.231  10.714   7.052 -0.1533 -0.8587  0.5089
  648MOL0     O87353  10.116  10.759   6.996  0.0186 -0.0068  0.2989
  648MOL0     C87354  10.018  10.653   6.972 -1.0469  0.0880  0.0286
  648MOL0     C87355   9.923  10.688   6.862 -0.5058  0.3706 -0.3493
  648MOL0     C87356   9.803  10.589   6.843  0.9822 -0.4083  0.3343
  648MOL0     C87357   9.719  10.573   6.977  0.0640 -0.0518 -0.1689
  648MOL0     C87358   9.561  10.561   6.939  0.1591  0.0714 -0.6853
  648MOL0     C87359   9.479  10.554   7.079 -0.3707 -0.5792  0.7374
  648MOL0     C87360   9.334  10.552   7.059  0.0974 -0.2436 -0.3647
  648MOL0     C87361   9.300  10.677   6.972 -0.5203 -0.2155  0.7359
  648MOL0     N87362   9.159  10.718   6.989  0.0958 -0.7104 -0.6102
  648MOL0     C87363   9.061  10.723   6.889  1.3087  1.1163  0.9340
  648MOL0     C87364   8.954  10.778   6.943 -0.3623 -0.3995 -0.2755
  648MOL0     C87365   8.820  10.807   6.875 -0.2292 -0.2772 -0.1132
  648MOL0     C87366   8.782  10.952   6.873  0.3491 -0.1684  0.5379
  648MOL0     C87367   8.631  10.961   6.836  0.5968  0.2609 -0.6171
  648MOL0     C87368   8.572  11.102   6.830 -0.2902 -0.2692 -1.1082
  648MOL0     O87369   8.437  11.092   6.779 -0.5078  0.1486  0.4319
  648MOL0     C87370   8.344  11.186   6.812 -0.1449 -0.8949 -0.3988
  648MOL0     C87371   8.209  11.160   6.770  0.2804  0.5685  0.3106
  648MOL0     C87372   8.111  11.254   6.772 -0.0653  0.4818 -0.1694
  648MOL0     C87373   7.975  11.208   6.711 -0.0443 -0.0666  0.1145
  648MOL0     C87374   8.141  11.389   6.812  0.6578 -0.4693 -0.0185
  648MOL0     C87375   8.059  11.516   6.792 -0.7074 -0.2045  0.0612
  648MOL0     O87376   7.937  11.496   6.740 -0.3587 -0.1529  0.4259
  648MOL0     C87377   7.849  11.604   6.751 -0.0720  0.2737  0.2209
  648MOL0     C87378   7.769  11.628   6.862 -0.0910 -0.7669  0.2660
  648MOL0     C87379   7.678  11.738   6.869  0.9261  0.7436 -0.6369
  648MOL0     C87380   7.652  11.815   6.758  0.7459 -0.0010 -0.4124
  648MOL0     O87381   7.547  11.901   6.762  0.1377  0.7171  0.8619
  648MOL0     C87382   7.543  12.003   6.660 -0.0451 -0.1454 -0.0232
  648MOL0     C87383   7.423  12.097   6.684  1.2547 -0.2392 -0.4932
  648MOL0     C87384   7.294  12.035   6.700 -0.1102  0.2393 -0.2708
  648MOL0     C87385   7.240  11.963   6.568 -0.4402  0.3219 -0.2391
  648MOL0     C87386   7.090  11.984   6.544 -0.5509 -0.2161  0.6091
  648MOL0     C87387   6.992  11.931   6.648 -0.1241 -0.5011  0.5766
  648MOL0     C87388   7.033  11.797   6.715  0.8780 -0.4197  0.7503
  648MOL0     C87389   6.913  11.705   6.731  0.4869  1.1334 -0.4323
  648MOL0    Cl87390   6.852  11.638   6.569  0.4448  0.1805 -0.0059
  648MOL0     C87391   7.727  11.789   6.648  0.3416  0.1283  0.3042
  648MOL0     C87392   7.828  11.682   6.646  0.9614  0.0787  0.4568
  648MOL0     O87393   8.111  11.629   6.821  0.2575  0.0904 -0.9169
  648MOL0     C87394   8.268  11.414   6.864  0.2236 -0.4254  1.0657
  648MOL0     C87395   8.367  11.311   6.869 -0.1075  0.8023  0.2565
  648MOL0     N87396   8.984  10.812   7.073  0.3055 -0.0423  0.3423
  648MOL0     N87397   9.101  10.759   7.100  0.4586 -0.1955 -0.3749
  648MOL0     C87398  10.333  10.663   6.967 -0.0959  1.0941 -0.2104
  648MOL0     C87399  10.457  10.627   7.022 -0.6216  0.5956 -0.8157
  648MOL0     C87400  10.825  10.530   7.238  0.0975 -0.3026  0.1605
  648MOL0     C87401  10.964  10.577   7.230 -0.1341  0.6154  0.4417
  648MOL0     C87402  11.064  10.499   7.278  0.1733  0.1467 -0.5218
  648MOL0     C87403  11.033  10.380   7.350  0.0143 -0.4048 -0.2070
  648MOL0     O87404  11.123  10.291   7.400 -0.9416  0.5168 -0.3886
  648MOL0     C87405  11.262  10.324   7.406 -0.3323  0.1526  0.4834
  648MOL0     C87406  11.308  10.419   7.518 -0.5574  0.6347  0.3884
  648MOL0     C87407  11.463  10.449   7.541  0.3946  1.2905  0.5439
  648MOL0     C87408  11.551  10.322   7.557  0.5275  0.2390 -0.4452
  648MOL0     C87409  11.521  10.205   7.644 -0.0051  0.0969  0.6818
  648MOL0     C87410  11.500  10.098   7.698 -0.2102  0.3387  0.0398
  648MOL0     C87411  10.893  10.341   7.361  1.2646  0.5006 -0.7723
  648MOL0     C87412  10.792  10.411   7.302 -0.2398 -0.4864 -0.4053
  648MOL0     H87413  10.406  10.697   7.351  0.3770 -2.2101 -0.0959
  648MOL0     H87414  10.172  10.758   7.252  1.1101  0.4831 -0.2600
  648MOL0     H87415  10.056  10.553   6.950 -1.2920  0.0737 -0.3397
  648MOL0     H87416   9.962  10.646   7.066  0.1261  1.0958  0.8385
  648MOL0     H87417   9.882  10.789   6.877 -2.1337  0.1703 -2.9384
  648MOL0     H87418   9.981  10.694   6.770 -1.2873 -1.7391 -1.0363
  648MOL0     H87419   9.735  10.634   6.770 -1.2686 -0.4157  2.3269
  648MOL0     H87420   9.839  10.491   6.810  3.4075  0.6810 -0.5287
  648MOL0     H87421   9.755  10.485   7.031 -2.1796 -0.1265  1.3458
  648MOL0     H87422   9.737  10.663   7.036 -1.7430  2.5355 -3.2431
  648MOL0     H87423   9.540  10.649   6.877  0.2573 -0.5893 -1.6857
  648MOL0     H87424   9.536  10.481   6.868  0.8491 -0.6641 -0.1156
  648MOL0     H87425   9.508  10.468   7.140 -0.9114 -0.0974  1.6850
  648MOL0     H87426   9.508  10.642   7.137  1.3284 -0.2183 -0.5760
  648MOL0     H87427   9.305  10.460   7.008  2.3700 -0.5128 -1.2910
  648MOL0     H87428   9.278  10.547   7.153  0.1920 -3.1012 -0.3794
  648MOL0     H87429   9.323  10.637   6.873  0.7412 -2.6708  1.9429
  648MOL0     H87430   9.367  10.761   6.993 -0.2850 -0.7946  2.5128
  648MOL0     H87431   9.070  10.697   6.784 -3.0508  2.0930  0.1340
  648MOL0     H87432   8.822  10.762   6.775 -0.6813 -1.2617  0.3080
  648MOL0     H87433   8.743  10.756   6.933  0.9100 -2.2896 -0.2427
  648MOL0     H87434   8.845  11.011   6.806 -1.7653 -0.0422 -1.4571
  648MOL0     H87435   8.787  10.983   6.978 -2.3694 -3.6331  1.8944
  648MOL0     H87436   8.571  10.906   6.909 -0.1089  2.8076  0.8189
  648MOL0     H87437   8.619  10.916   6.737 -0.4200  0.4075 -0.5742
  648MOL0     H87438   8.632  11.163   6.763  0.7717 -0.9747 -0.8240
  648MOL0     H87439   8.584  11.131   6.935  4.5604 -0.9838 -1.2445
  648MOL0     H87440   8.183  11.062   6.732  3.2695  0.2245 -1.1340
  648MOL0     H87441   7.971  11.100   6.691 -1.9732 -0.1364  0.6187
  648MOL0     H87442   7.895  11.227   6.784 -1.6522  1.4691 -1.8987
  648MOL0     H87443   7.949  11.271   6.625 -1.5030 -0.8338 -0.0373
  648MOL0     H87444   7.783  11.577   6.957 -0.6376  0.5666  1.0825
  648MOL0     H87445   7.611  11.763   6.950  2.7730  2.0538  0.5471
  648MOL0     H87446   7.625  12.075   6.656 -1.7846  2.0680  1.1382
  648MOL0     H87447   7.546  11.951   6.564  2.9797 -1.8093  0.8659
  648MOL0     H87448   7.440  12.147   6.779 -1.3501  0.0714 -0.1198
  648MOL0     H87449   7.410  12.174   6.607 -1.3142 -1.8480 -1.8321
  648MOL0     H87450   7.224  12.115   6.726 -0.9218 -0.3379 -0.6428
  648MOL0     H87451   7.299  11.967   6.786  2.0266  0.6497 -0.0337
  648MOL0     H87452   7.293  11.987   6.475 -0.5767 -3.8540 -1.6083
  648MOL0     H87453   7.266  11.858   6.583 -0.4207  0.5201  1.2877
  648MOL0     H87454   7.065  11.924   6.456 -1.4763  0.6730  0.2431
  648MOL0     H87455   7.072  12.090   6.522  1.2954 -0.0281 -0.1873
  648MOL0     H87456   7.003  12.000   6.732 -0.2018 -0.5565  0.6323
  648MOL0     H87457   6.895  11.935   6.596  0.4471 -0.3643 -0.4982
  648MOL0     H87458   7.085  11.819   6.809  1.1049 -3.3367  1.3957
  648MOL0     H87459   7.104  11.741   6.654 -0.4921  1.0508 -2.4617
  648MOL0     H87460   6.827  11.735   6.793  1.5878 -1.8717  2.9300
  648MOL0     H87461   6.952  11.628   6.799  0.8492  1.8554  0.1917
  648MOL0     H87462   7.722  11.842   6.554  2.3574 -2.5268 -1.4666
  648MOL0     H87463   7.895  11.660   6.564  0.3367  0.2561 -0.1117
  648MOL0     H87464   8.309  11.504   6.910  5.7737 -2.6481  1.3691
  648MOL0     H87465   8.469  11.337   6.894 -0.2959 -0.4237  2.5082
  648MOL0     H87466  10.315  10.676   6.861 -2.8218  2.1485  0.2995
  648MOL0     H87467  10.520  10.573   6.952 -1.1289  1.4842 -1.9894
  648MOL0     H87468  11.001  10.667   7.181  2.2083 -0.8157 -0.6219
  648MOL0     H87469  11.162  10.532   7.244  0.6033 -1.5477 -1.0646
  648MOL0     H87470  11.310  10.230   7.434 -1.2009 -0.0974  1.1763
  648MOL0     H87471  11.303  10.352   7.308 -2.2407 -1.4871 -0.8579
  648MOL0     H87472  11.266  10.404   7.618  2.0043  1.4275  1.6861
  648MOL0     H87473  11.277  10.518   7.483 -2.3421 -0.7897 -2.4323
  648MOL0     H87474  11.461  10.503   7.636 -3.6937 -0.1552  1.4806
  648MOL0     H87475  11.499  10.512   7.458 -0.0606  2.6306  1.3369
  648MOL0     H87476  11.643  10.360   7.600 -0.8847  3.4102  0.0676
  648MOL0     H87477  11.575  10.293   7.454  2.7287  2.2425 -0.5811
  648MOL0     H87478  11.475  10.000   7.733 -3.3780  1.4773  1.3222
  648MOL0     H87479  10.878  10.243   7.406  0.6408 -0.5348 -3.1040
  648MOL0     H87480  10.693  10.366   7.301  0.7453 -2.8801  0.9278
  649MOL0     O87481   5.873   7.543   0.332  0.1615  0.0733 -0.1181
  649MOL0     C87482   5.904   7.653   0.301 -0.4714  0.3308  0.0636
  649MOL0     O87483   5.821   7.752   0.262  0.0562  0.0554 -0.2127
  649MOL0     C87484   5.689   7.739   0.239  0.6448  0.6773 -0.8503
  649MOL0     C87485   5.628   7.767   0.116 -0.9785 -0.5262  0.9150
  649MOL0     C87486   5.492   7.762   0.097  0.2537  0.5721  0.2862
  649MOL0     C87487   5.410   7.711   0.202  0.3867  0.5762 -0.9961
  649MOL0     O87488   5.270   7.723   0.207  0.3241  0.9525  0.7844
  649MOL0     C87489   5.212   7.801   0.096 -0.8195  0.1440 -0.5884
  649MOL0     C87490   5.063   7.832   0.111 -0.5571 -0.0729 -0.1483
  649MOL0     C87491   4.991   7.797  -0.019  0.0269  0.6170  0.4636
  649MOL0     C87492   4.849   7.835  -0.009 -0.6127 -0.1448  0.8638
  649MOL0     C87493   4.765   7.793  -0.135 -0.3367 -0.2745 -0.1183
  649MOL0     C87494   4.621   7.791  -0.107  0.3508  0.6640 -0.6436
  649MOL0     C87495   4.569   7.653  -0.084 -0.4779  0.5079  0.0528
  649MOL0     C87496   4.552   7.586  -0.226  0.1253  0.5625  0.0461
  649MOL0     N87497   4.456   7.472  -0.220 -1.0491  0.0307 -0.3958
  649MOL0     C87498   4.481   7.355  -0.156  0.5273  0.1854 -0.2238
  649MOL0     C87499   4.357   7.296  -0.147 -0.4195  0.6607  0.5760
  649MOL0     C87500   4.307   7.174  -0.065 -0.2423 -0.1149  0.0731
  649MOL0     C87501   4.229   7.070  -0.143  0.0239 -0.3008 -0.6859
  649MOL0     C87502   4.287   6.939  -0.125 -0.4441 -0.5939 -0.2777
  649MOL0     C87503   4.195   6.819  -0.164 -0.2191 -0.0354  0.2126
  649MOL0     O87504   4.164   6.819  -0.303 -0.1396  0.1903 -1.1436
  649MOL0     C87505   4.049   6.760  -0.344 -0.8380 -0.8094 -0.0806
  649MOL0     C87506   3.963   6.833  -0.425  0.5141 -0.5271  0.1037
  649MOL0     C87507   3.831   6.793  -0.454 -0.1371 -1.1966 -0.0273
  649MOL0     C87508   3.741   6.869  -0.540  0.9785  1.0065 -0.4816
  649MOL0     C87509   3.790   6.671  -0.385 -0.0032  1.0555  0.6090
  649MOL0     C87510   3.653   6.606  -0.410  0.3646  0.6818  0.8187
  649MOL0     O87511   3.554   6.700  -0.407 -0.3349 -0.0409 -0.6649
  649MOL0     C87512   3.415   6.667  -0.408  0.6895 -0.8121 -0.0187
  649MOL0     C87513   3.356   6.571  -0.481 -0.3949  1.1580  0.6239
  649MOL0     C87514   3.213   6.557  -0.470 -0.5826 -0.4401 -0.3118
  649MOL0     C87515   3.125   6.631  -0.390  0.3111  0.6005 -0.2201
  649MOL0     O87516   2.988   6.607  -0.391  0.1180 -0.8783 -0.3017
  649MOL0     C87517   2.939   6.473  -0.428 -0.1258  0.5589 -0.2517
  649MOL0     C87518   2.895   6.484  -0.575 -0.2069 -0.5797  0.0604
  649MOL0     C87519   2.772   6.565  -0.592  1.3126 -0.4558  0.4321
  649MOL0     C87520   2.671   6.476  -0.666  0.0190  0.4266  0.3769
  649MOL0     C87521   2.531   6.542  -0.663  0.2507  0.8870  0.5749
  649MOL0     C87522   2.456   6.551  -0.532  0.6191 -0.4725 -0.6478
  649MOL0     C87523   2.318   6.610  -0.544  0.3430  0.0565 -0.3391
  649MOL0     C87524   2.320   6.765  -0.564 -0.6265 -0.6343 -0.4816
  649MOL0    Cl87525   2.366   6.852  -0.416 -0.0565 -0.6205 -0.4829
  649MOL0     C87526   3.191   6.720  -0.305 -0.1735 -0.0355  0.5845
  649MOL0     C87527   3.334   6.743  -0.321 -0.4952 -0.5695  0.5063
  649MOL0     O87528   3.639   6.486  -0.389  0.1086 -0.1335 -1.1504
  649MOL0     C87529   3.878   6.600  -0.307  0.3992  0.5824 -0.1681
  649MOL0     C87530   4.006   6.644  -0.278  0.0688 -0.2941  0.0128
  649MOL0     N87531   4.268   7.375  -0.219 -0.6163  0.1207 -0.0056
  649MOL0     N87532   4.326   7.485  -0.248 -0.2099  0.8124  0.2098
  649MOL0     C87533   5.474   7.687   0.320  0.4880  0.3160 -0.3922
  649MOL0     C87534   5.609   7.693   0.350 -0.0021 -0.1505  0.6970
  649MOL0     C87535   6.046   7.687   0.340 -0.6790 -0.7246 -0.5626
  649MOL0     C87536   6.131   7.598   0.422  0.5562 -0.5881  0.6278
  649MOL0     C87537   6.258   7.640   0.464 -0.3054  0.8103 -0.0573
  649MOL0     C87538   6.307   7.765   0.433 -0.2362 -0.9552  0.0821
  649MOL0     O87539   6.424   7.814   0.490  0.1827  0.2803 -0.2225
  649MOL0     C87540   6.543   7.739   0.459 -0.3395 -0.2983  0.3016
  649MOL0     C87541   6.667   7.831   0.472  0.0258 -0.4004 -0.5400
  649MOL0     C87542   6.801   7.753   0.447 -0.0976  0.8161 -0.3958
  649MOL0     C87543   6.936   7.821   0.470 -0.2630 -0.2379  0.6186
  649MOL0     C87544   6.960   7.848   0.612  0.4264 -0.3262  0.4356
  649MOL0     C87545   6.970   7.879   0.727  0.8694 -0.7728  0.4341
  649MOL0     C87546   6.231   7.856   0.351  0.5417 -0.6376 -0.2546
  649MOL0     C87547   6.107   7.809   0.304 -0.2796 -0.3317 -0.7932
  649MOL0     H87548   5.699   7.793   0.038 -1.0814 -2.1428  0.2558
  649MOL0     H87549   5.453   7.794   0.001 -0.6542  2.1344  1.1207
  649MOL0     H87550   5.269   7.891   0.073  1.5853 -0.8057  1.2880
  649MOL0     H87551   5.236   7.732   0.015 -0.8487 -1.2236  0.5215
  649MOL0     H87552   5.030   7.766   0.192  3.2866  0.1523  1.7929
  649MOL0     H87553   5.055   7.935   0.147 -1.4025 -0.2483  0.1985
  649MOL0     H87554   5.023   7.849  -0.110 -4.5701  0.9319 -1.2335
  649MOL0     H87555   4.993   7.689  -0.030  2.5132  0.5634  0.8250
  649MOL0     H87556   4.818   7.778   0.079 -0.2805  2.8251  3.0229
  649MOL0     H87557   4.828   7.940   0.008 -3.2181 -0.1687 -1.4793
  649MOL0     H87558   4.787   7.871  -0.209 -3.1578 -0.8326 -1.7173
  649MOL0     H87559   4.798   7.707  -0.194 -0.6490 -1.5904  1.5743
  649MOL0     H87560   4.596   7.854  -0.020 -1.6026 -0.4469 -0.3512
  649MOL0     H87561   4.562   7.840  -0.185  2.1434  4.1738 -0.0293
  649MOL0     H87562   4.635   7.601  -0.013  0.6716  2.1156  0.2214
  649MOL0     H87563   4.472   7.663  -0.034 -0.5055  0.5284 -0.0048
  649MOL0     H87564   4.643   7.540  -0.267 -0.5487 -3.1010  2.1776
  649MOL0     H87565   4.526   7.661  -0.301  0.8243 -1.1152 -1.9890
  649MOL0     H87566   4.575   7.326  -0.111 -0.2670 -0.9833  0.7396
  649MOL0     H87567   4.395   7.125  -0.021  0.7880 -0.2505 -2.0205
  649MOL0     H87568   4.241   7.214   0.012 -0.3000 -1.3606  0.7095
  649MOL0     H87569   4.222   7.088  -0.250 -1.9206 -3.7186 -1.2815
  649MOL0     H87570   4.125   7.064  -0.108  1.1671 -1.5263  2.9930
  649MOL0     H87571   4.312   6.918  -0.021 -3.4703  0.8588  0.8366
  649MOL0     H87572   4.386   6.944  -0.173  0.6892  1.1461  2.0421
  649MOL0     H87573   4.104   6.818  -0.103 -0.2379  0.9058  0.2100
  649MOL0     H87574   4.247   6.725  -0.144  0.7271  0.0541 -1.5984
  649MOL0     H87575   3.990   6.930  -0.464 -2.1959  0.4663  0.5108
  649MOL0     H87576   3.670   6.933  -0.486 -0.2071  0.2550 -1.1263
  649MOL0     H87577   3.801   6.938  -0.602 -0.8032  2.1917 -0.9723
  649MOL0     H87578   3.675   6.805  -0.600  2.5351 -0.7177 -0.4220
  649MOL0     H87579   3.399   6.496  -0.546 -1.3611 -0.3934  1.6775
  649MOL0     H87580   3.173   6.491  -0.545 -1.2396 -1.4370  0.8782
  649MOL0     H87581   3.025   6.406  -0.419 -0.9468 -0.9349 -2.4570
  649MOL0     H87582   2.864   6.418  -0.372  1.0590 -1.8998 -0.9541
  649MOL0     H87583   2.972   6.533  -0.635 -2.6762  1.6804 -1.4928
  649MOL0     H87584   2.880   6.390  -0.630 -3.2432  0.7752 -1.6417
  649MOL0     H87585   2.792   6.653  -0.654 -2.0967 -0.6528 -1.1706
  649MOL0     H87586   2.734   6.593  -0.494  4.0510 -1.7322  1.9852
  649MOL0     H87587   2.708   6.452  -0.766 -2.9468  1.5975 -1.1226
  649MOL0     H87588   2.666   6.379  -0.615  3.1571  0.7952  1.6294
  649MOL0     H87589   2.469   6.482  -0.730 -0.8989  2.3073  0.3093
  649MOL0     H87590   2.536   6.642  -0.707  1.6195  1.4098  1.8569
  649MOL0     H87591   2.455   6.450  -0.489  3.2010 -1.7140 -3.1396
  649MOL0     H87592   2.513   6.622  -0.471  0.1191  3.2064 -4.0663
  649MOL0     H87593   2.266   6.593  -0.450  1.2469  1.9427  0.5529
  649MOL0     H87594   2.256   6.568  -0.624 -1.6980 -0.1869  1.3086
  649MOL0     H87595   2.213   6.789  -0.572 -0.6370  1.5022  3.4668
  649MOL0     H87596   2.383   6.801  -0.645 -2.4177  0.1080 -1.6201
  649MOL0     H87597   3.134   6.778  -0.234 -0.9175 -0.2134  0.1418
  649MOL0     H87598   3.381   6.826  -0.269 -0.6591  0.5477 -1.0605
  649MOL0     H87599   3.852   6.520  -0.238 -0.2617  2.5470  1.9706
  649MOL0     H87600   4.070   6.591  -0.210  1.7705  2.5969  0.8335
  649MOL0     H87601   5.408   7.676   0.405 -0.3317  1.0463 -0.9163
  649MOL0     H87602   5.638   7.686   0.454  0.2866 -1.6187  0.5443
  649MOL0     H87603   6.082   7.503   0.436 -0.1059 -0.4426 -0.5382
  649MOL0     H87604   6.310   7.568   0.526 -0.2526 -0.4049 -1.4675
  649MOL0     H87605   6.553   7.647   0.517 -2.5570 -0.9828 -0.3087
  649MOL0     H87606   6.544   7.704   0.356 -0.7282 -2.8084  1.0925
  649MOL0     H87607   6.660   7.875   0.571  0.8105 -1.3969 -0.0155
  649MOL0     H87608   6.674   7.905   0.392  0.8621 -0.6890 -0.7545
  649MOL0     H87609   6.795   7.723   0.342 -1.5505  1.2362 -0.4475
  649MOL0     H87610   6.794   7.665   0.511  2.7303  0.3069 -0.6396
  649MOL0     H87611   6.942   7.912   0.409  1.4735 -0.4742  0.3821
  649MOL0     H87612   7.009   7.750   0.431  1.1150  0.6885  1.4146
  649MOL0     H87613   6.972   7.888   0.834  1.5887 -3.8158  0.7639
  649MOL0     H87614   6.265   7.958   0.339 -1.1590  0.2182  1.5733
  649MOL0     H87615   6.049   7.875   0.241  0.2239  1.3802  0.4494
  650MOL0     O87616  10.248   3.269   0.905 -0.2001 -0.0386 -0.0290
  650MOL0     C87617  10.263   3.195   0.997  0.5782  0.6035 -0.1655
  650MOL0     O87618  10.269   3.229   1.136  0.5719  0.6385 -0.8325
  650MOL0     C87619  10.251   3.358   1.183 -0.4773  0.1173 -0.4508
  650MOL0     C87620  10.163   3.459   1.132  0.1431  0.4611  0.7330
  650MOL0     C87621  10.152   3.588   1.186 -0.1677 -0.6835 -0.4946
  650MOL0     C87622  10.219   3.613   1.303 -0.3574  0.2825 -0.2852
  650MOL0     O87623  10.228   3.731   1.369  0.6422  0.4964 -0.1644
  650MOL0     C87624  10.153   3.845   1.314  0.4515 -0.0086  0.3799
  650MOL0     C87625  10.201   3.984   1.379 -0.7439 -0.7196 -0.0582
  650MOL0     C87626  10.336   4.038   1.317  1.0026  0.6097  0.0636
  650MOL0     C87627  10.325   4.131   1.192  0.3874  0.3534 -0.5067
  650MOL0     C87628  10.459   4.158   1.129  0.5886  0.2192  0.2902
  650MOL0     C87629  10.567   4.229   1.224  0.7991  1.1249  0.0012
  650MOL0     C87630  10.690   4.267   1.149  0.8209  0.0432 -0.2179
  650MOL0     C87631  10.673   4.396   1.070  0.3634 -0.6056  0.0128
  650MOL0     N87632  10.779   4.400   0.972  0.2041  0.0259  0.6968
  650MOL0     C87633  10.900   4.457   1.004 -0.1900  0.0736 -0.6730
  650MOL0     C87634  10.959   4.487   0.886  0.0111 -0.0873  0.4205
  650MOL0     C87635  11.103   4.532   0.868  0.1968 -0.1195 -0.2378
  650MOL0     C87636  11.108   4.691   0.855  0.9736 -0.5434 -0.3999
  650MOL0     C87637  11.029   4.764   0.969 -0.2456  0.3994  0.1457
  650MOL0     C87638  11.057   4.916   0.958 -0.3363  0.6966 -0.8100
  650MOL0     O87639  10.970   4.992   1.043  0.3121 -0.1081  0.1601
  650MOL0     C87640  10.862   5.060   0.998  0.2445 -0.0422  0.4892
  650MOL0     C87641  10.824   5.077   0.859 -0.0426 -0.6878 -0.0743
  650MOL0     C87642  10.703   5.142   0.836  0.0829  0.0356  0.0790
  650MOL0     C87643  10.677   5.164   0.696 -0.5280 -0.3421  0.1149
  650MOL0     C87644  10.619   5.192   0.927 -1.2519 -1.1351 -0.7858
  650MOL0     C87645  10.476   5.237   0.911 -0.5315  0.0268  0.5312
  650MOL0     O87646  10.409   5.287   1.022  0.0153  0.0752  0.3334
  650MOL0     C87647  10.280   5.324   1.004  0.0781  0.0283 -0.7069
  650MOL0     C87648  10.172   5.258   0.947  0.0173  0.4623  0.2767
  650MOL0     C87649  10.035   5.307   0.943  0.6923  0.0521  0.2761
  650MOL0     C87650  10.002   5.424   1.014 -0.2882  0.3641 -0.0998
  650MOL0     O87651   9.876   5.485   1.016 -0.0705 -0.8533  0.6264
  650MOL0     C87652   9.777   5.444   0.919 -0.1412  0.4976  0.3786
  650MOL0     C87653   9.644   5.526   0.950 -0.6711  0.4223  0.1022
  650MOL0     C87654   9.580   5.510   1.082 -0.4294  0.5467  0.3544
  650MOL0     C87655   9.437   5.556   1.091  0.1031 -0.0312  0.0638
  650MOL0     C87656   9.379   5.558   1.239 -0.0229  0.1492 -0.3755
  650MOL0     C87657   9.256   5.651   1.247  0.3532  0.8626 -0.4656
  650MOL0     C87658   9.176   5.642   1.372  0.1298  0.5297  0.2372
  650MOL0     C87659   9.075   5.754   1.390  0.0946 -0.3220 -0.0207
  650MOL0    Cl87660   8.988   5.711   1.535 -0.1337  0.4431 -0.5569
  650MOL0     C87661  10.104   5.485   1.084 -0.6566 -0.5711  0.4318
  650MOL0     C87662  10.240   5.439   1.076 -0.4483 -0.0642 -0.3727
  650MOL0     O87663  10.422   5.213   0.799  0.9579 -0.0703  0.6393
  650MOL0     C87664  10.671   5.199   1.062 -0.3298 -0.3258  0.0661
  650MOL0     C87665  10.779   5.116   1.097  1.0996  0.3366 -0.0638
  650MOL0     N87666  10.879   4.455   0.795 -0.2996  0.3661  0.6067
  650MOL0     N87667  10.768   4.415   0.838 -0.7708  0.5512  0.2480
  650MOL0     C87668  10.303   3.511   1.360  0.4497  0.7968  0.1645
  650MOL0     C87669  10.319   3.386   1.299 -0.1182 -0.6045  0.1339
  650MOL0     C87670  10.275   3.053   0.959  1.1367 -0.5553  0.4870
  650MOL0     C87671  10.272   2.952   1.054  0.4279  1.0762  0.1870
  650MOL0     C87672  10.282   2.821   1.015 -0.7678 -0.0464 -0.1953
  650MOL0     C87673  10.293   2.786   0.884 -0.0987 -0.6007 -0.3402
  650MOL0     O87674  10.322   2.657   0.844  0.3459  0.1101  0.2905
  650MOL0     C87675  10.226   2.555   0.866 -0.3679  0.0004  0.1099
  650MOL0     C87676  10.165   2.511   0.733 -0.3653  0.3445  0.4188
  650MOL0     C87677  10.066   2.398   0.746 -0.1473  0.6916  0.0922
  650MOL0     C87678   9.931   2.431   0.813 -0.7758 -0.3127 -0.4442
  650MOL0     C87679   9.853   2.514   0.720  0.5268  0.2172  0.4714
  650MOL0     C87680   9.791   2.581   0.635 -1.1343  0.0552 -0.6007
  650MOL0     C87681  10.300   2.893   0.787 -0.7380  0.0615 -0.6182
  650MOL0     C87682  10.294   3.023   0.825  0.4603  0.2936 -0.6300
  650MOL0     H87683  10.103   3.421   1.050  1.5208  0.8101 -0.4823
  650MOL0     H87684  10.089   3.662   1.138 -0.4337 -2.1287 -2.4963
  650MOL0     H87685  10.163   3.854   1.206  2.8242 -1.2222  0.4137
  650MOL0     H87686  10.047   3.835   1.337 -0.1321  2.5265 -0.9407
  650MOL0     H87687  10.131   4.067   1.359 -0.5064 -0.8909 -1.7987
  650MOL0     H87688  10.208   3.973   1.487 -0.7878 -0.6777 -0.0509
  650MOL0     H87689  10.372   4.104   1.396  2.5420 -0.3691  0.2311
  650MOL0     H87690  10.402   3.953   1.297 -0.5676 -1.5075  2.9992
  650MOL0     H87691  10.270   4.065   1.124  0.8113  1.9308 -2.4504
  650MOL0     H87692  10.276   4.228   1.202 -1.6574 -0.3322 -2.9662
  650MOL0     H87693  10.492   4.060   1.093 -4.7913 -1.9867  0.4486
  650MOL0     H87694  10.433   4.223   1.044 -0.7304  2.9680  2.6369
  650MOL0     H87695  10.520   4.320   1.262  1.3288  0.7599  1.5960
  650MOL0     H87696  10.600   4.168   1.309  0.3379 -0.0768 -0.6533
  650MOL0     H87697  10.774   4.277   1.218  0.6941  0.9915 -0.1777
  650MOL0     H87698  10.710   4.186   1.079  0.7394 -1.1836  1.1423
  650MOL0     H87699  10.687   4.479   1.141  2.1057  0.0675 -1.0519
  650MOL0     H87700  10.577   4.397   1.019 -0.1191  0.1928  0.8974
  650MOL0     H87701  10.943   4.473   1.103 -0.3172 -1.7873 -0.2960
  650MOL0     H87702  11.166   4.507   0.954  1.6873  1.6215 -0.7384
  650MOL0     H87703  11.150   4.475   0.787  2.1578 -0.8560  1.3168
  650MOL0     H87704  11.063   4.723   0.760 -0.7094  0.3540  0.6634
  650MOL0     H87705  11.213   4.721   0.863  0.9963 -0.6220 -0.3969
  650MOL0     H87706  11.062   4.726   1.066  0.9530 -1.7034 -1.0070
  650MOL0     H87707  10.920   4.761   0.957 -0.2620  2.9808 -1.0425
  650MOL0     H87708  11.039   4.950   0.855  0.1273 -0.2932 -1.2339
  650MOL0     H87709  11.162   4.944   0.964 -0.5738  1.6587 -1.0012
  650MOL0     H87710  10.889   5.055   0.775  0.4856  0.5940 -0.0366
  650MOL0     H87711  10.610   5.081   0.674  0.7766 -0.7224 -3.0716
  650MOL0     H87712  10.632   5.262   0.676 -0.0209 -0.1396 -0.0773
  650MOL0     H87713  10.764   5.154   0.630  0.7000  0.0630  1.6210
  650MOL0     H87714  10.186   5.158   0.907  0.7469 -0.2361  2.1739
  650MOL0     H87715   9.951   5.269   0.886  1.2459 -0.8128  0.0162
  650MOL0     H87716   9.816   5.461   0.818  0.6558 -0.6058  0.4748
  650MOL0     H87717   9.756   5.337   0.922  0.8409  0.1571 -2.3140
  650MOL0     H87718   9.655   5.635   0.945  2.1698  0.1403 -1.6304
  650MOL0     H87719   9.575   5.501   0.868 -1.1374 -0.8935  0.8800
  650MOL0     H87720   9.643   5.567   1.151  0.8915  0.5771 -0.8369
  650MOL0     H87721   9.580   5.406   1.117 -0.5733  0.5344  0.3161
  650MOL0     H87722   9.437   5.660   1.055 -0.8552  0.3116  1.0148
  650MOL0     H87723   9.378   5.498   1.019 -1.3641  1.5304 -0.0692
  650MOL0     H87724   9.460   5.595   1.303 -0.5889  0.5949  0.0919
  650MOL0     H87725   9.350   5.461   1.281  0.1043 -0.1069 -0.8680
  650MOL0     H87726   9.292   5.754   1.236 -1.4743  1.6779  0.7180
  650MOL0     H87727   9.183   5.613   1.175 -1.8695  0.4165  1.8896
  650MOL0     H87728   9.242   5.631   1.459 -0.1813 -1.7780  0.2474
  650MOL0     H87729   9.110   5.554   1.366  2.5314 -1.3681  0.2953
  650MOL0     H87730   9.010   5.755   1.302 -2.0344 -1.4389  1.4490
  650MOL0     H87731   9.125   5.851   1.392 -0.3547 -0.0482 -1.1499
  650MOL0     H87732  10.086   5.576   1.141 -0.7395  0.0906 -0.6301
  650MOL0     H87733  10.320   5.493   1.125 -0.5296  0.2118 -0.5389
  650MOL0     H87734  10.603   5.234   1.139 -0.2816 -0.4292  0.1557
  650MOL0     H87735  10.784   5.104   1.205 -1.8926 -0.8318  0.0640
  650MOL0     H87736  10.354   3.523   1.455  0.1911  0.6237  0.3270
  650MOL0     H87737  10.378   3.314   1.355  1.3934  1.9664  2.1072
  650MOL0     H87738  10.267   2.981   1.159  0.1265 -0.6139  0.6603
  650MOL0     H87739  10.289   2.744   1.090  2.4537 -0.9337 -1.2224
  650MOL0     H87740  10.285   2.473   0.909  0.9683  0.8961  0.0356
  650MOL0     H87741  10.144   2.584   0.932 -1.0211  1.1483 -1.1529
  650MOL0     H87742  10.249   2.475   0.674  0.2923 -0.3676  1.7591
  650MOL0     H87743  10.118   2.599   0.686 -0.0247  0.2106 -0.1773
  650MOL0     H87744  10.107   2.309   0.795 -0.6887  0.2371 -0.2670
  650MOL0     H87745  10.036   2.376   0.643 -0.1149  0.9533  0.0259
  650MOL0     H87746   9.941   2.468   0.915 -1.7748 -5.9323  2.1224
  650MOL0     H87747   9.881   2.337   0.838 -1.7577  0.2594 -0.2310
  650MOL0     H87748   9.739   2.647   0.568 -0.5821 -0.5421 -1.6588
  650MOL0     H87749  10.299   2.877   0.680 -0.9941 -1.5050 -0.4136
  650MOL0     H87750  10.283   3.105   0.756 -5.8540  0.6428  0.2356
  651MOL0     O87751   0.934   5.997   4.302 -0.3627  0.7081  0.2219
  651MOL0     C87752   0.953   6.116   4.333 -0.5779  0.3948  0.0551
  651MOL0     O87753   0.865   6.194   4.401 -0.3767 -0.4938 -0.8879
  651MOL0     C87754   0.756   6.140   4.453  1.0910 -0.7949 -0.6084
  651MOL0     C87755   0.643   6.124   4.376  0.0449  1.2239 -0.6001
  651MOL0     C87756   0.526   6.076   4.432  0.7319  0.6197 -0.2088
  651MOL0     C87757   0.516   6.040   4.562 -0.2736 -0.5940  0.5341
  651MOL0     O87758   0.390   6.015   4.613 -0.3770  0.0428 -0.0299
  651MOL0     C87759   0.382   5.948   4.745  0.0752  0.5093  0.2352
  651MOL0     C87760   0.361   6.063   4.843 -0.0702 -0.0934 -0.1917
  651MOL0     C87761   0.325   5.998   4.972 -0.6782 -0.2639 -0.2828
  651MOL0     C87762   0.277   6.107   5.072  0.2784 -0.3661 -0.6192
  651MOL0     C87763   0.243   6.042   5.205  0.2011  0.6284  0.1072
  651MOL0     C87764   0.117   6.108   5.268  0.5817  0.4441  0.0483
  651MOL0     C87765   0.084   6.033   5.401 -0.3916  0.4518 -1.1597
  651MOL0     C87766  -0.064   6.053   5.451 -0.3411 -0.8220 -0.2731
  651MOL0     N87767  -0.087   6.187   5.494  0.1087  0.5204 -0.2523
  651MOL0     C87768  -0.185   6.261   5.431  0.8911 -0.3432  0.0469
  651MOL0     C87769  -0.179   6.376   5.500  0.0229  0.7690  0.2026
  651MOL0     C87770  -0.265   6.494   5.473  0.9453 -0.4493  0.2997
  651MOL0     C87771  -0.330   6.565   5.595  0.7100 -0.7447 -0.5605
  651MOL0     C87772  -0.389   6.476   5.711  0.3156  0.1504  0.6533
  651MOL0     C87773  -0.493   6.375   5.650  0.5395  0.0096  0.6558
  651MOL0     O87774  -0.597   6.346   5.746  0.7457  0.4973  0.2652
  651MOL0     C87775  -0.722   6.309   5.693 -0.3863 -0.5012  0.6083
  651MOL0     C87776  -0.751   6.269   5.565 -0.0147 -0.6134  0.0500
  651MOL0     C87777  -0.880   6.247   5.517 -0.4042 -0.4305  0.2692
  651MOL0     C87778  -0.892   6.198   5.375 -0.0382  0.7292  0.6186
  651MOL0     C87779  -0.996   6.261   5.601  0.5554 -0.9441  0.6439
  651MOL0     C87780  -1.134   6.227   5.555 -0.0025 -0.1068 -0.0857
  651MOL0     O87781  -1.157   6.234   5.421  0.1580  0.6971 -0.2737
  651MOL0     C87782  -1.275   6.178   5.380 -0.0074  0.5643  0.6595
  651MOL0     C87783  -1.281   6.038   5.377  0.6790 -0.3718  0.5647
  651MOL0     C87784  -1.395   5.976   5.323 -0.2962  0.0524 -0.0593
  651MOL0     C87785  -1.505   6.050   5.279 -0.0903  0.3756 -0.2437
  651MOL0     O87786  -1.611   5.981   5.245  0.2643  0.8097  0.3372
  651MOL0     C87787  -1.739   6.038   5.205  0.3574 -0.0826  0.6981
  651MOL0     C87788  -1.732   6.059   5.051 -0.3472  0.2267  0.0178
  651MOL0     C87789  -1.867   6.096   5.010  0.1820 -0.3383 -0.1771
  651MOL0     C87790  -1.892   6.077   4.861  0.4862  0.3701  0.3457
  651MOL0     C87791  -2.036   6.116   4.828  0.1656  0.5019 -0.3229
  651MOL0     C87792  -2.077   6.058   4.698  0.2532  0.0998  0.2145
  651MOL0     C87793  -2.221   6.098   4.651  0.0555 -0.1053  0.0416
  651MOL0     C87794  -2.225   6.088   4.501 -0.0579 -0.0851 -0.4647
  651MOL0    Cl87795  -2.394   6.120   4.439  0.0182  0.1845 -0.4717
  651MOL0     C87796  -1.492   6.184   5.279  0.3115  0.4445 -0.1023
  651MOL0     C87797  -1.379   6.251   5.324 -0.0520  0.6346 -0.0727
  651MOL0     O87798  -1.215   6.186   5.647 -0.0306 -0.3913  0.3150
  651MOL0     C87799  -0.970   6.302   5.733 -0.3662  0.4854  0.4363
  651MOL0     C87800  -0.834   6.325   5.774 -0.4659 -0.3290 -0.3011
  651MOL0     N87801  -0.078   6.373   5.590 -0.2189 -0.3556 -0.2173
  651MOL0     N87802  -0.022   6.263   5.582  0.0197 -0.4326 -0.3970
  651MOL0     C87803   0.631   6.051   4.643  0.2628 -0.8258 -0.0147
  651MOL0     C87804   0.748   6.100   4.586 -0.4905 -0.1008  0.3332
  651MOL0     C87805   1.085   6.171   4.323  0.3087  0.1976 -0.9905
  651MOL0     C87806   1.194   6.111   4.259  1.0069  0.0220 -0.1830
  651MOL0     C87807   1.317   6.162   4.250 -0.0535 -0.4616  0.4238
  651MOL0     C87808   1.353   6.285   4.301 -0.5197  1.4219 -0.4661
  651MOL0     O87809   1.483   6.335   4.282  0.4674  0.2129  0.3928
  651MOL0     C87810   1.559   6.294   4.174  0.5779  0.2207 -0.5600
  651MOL0     C87811   1.680   6.398   4.183  0.4949 -1.1570  0.3269
  651MOL0     C87812   1.766   6.387   4.056 -0.4250 -0.3212  0.4115
  651MOL0     C87813   1.868   6.277   4.069  0.3433 -0.6428 -0.3373
  651MOL0     C87814   1.971   6.278   3.963 -0.0898 -0.3943  0.3632
  651MOL0     C87815   2.055   6.303   3.869 -0.1923 -0.3576 -0.2556
  651MOL0     C87816   1.255   6.343   4.386 -0.3262  0.5976  1.3440
  651MOL0     C87817   1.121   6.288   4.394  1.0353  0.1954 -0.0826
  651MOL0     H87818   0.653   6.155   4.273 -0.0075  1.5290 -0.5131
  651MOL0     H87819   0.438   6.070   4.368  0.6437 -3.1616  0.0444
  651MOL0     H87820   0.305   5.871   4.759  1.8889 -1.1603  1.5891
  651MOL0     H87821   0.474   5.893   4.767  1.5470  3.5564  2.3270
  651MOL0     H87822   0.456   6.118   4.842 -0.1367  0.0204 -0.2509
  651MOL0     H87823   0.282   6.135   4.819 -0.4819 -1.1303 -2.1683
  651MOL0     H87824   0.248   5.921   4.963  0.0881 -1.1229  0.3524
  651MOL0     H87825   0.416   5.946   5.003  1.7184  1.7070 -3.3509
  651MOL0     H87826   0.343   6.190   5.096 -1.1614  0.6298  0.0379
  651MOL0     H87827   0.186   6.153   5.032 -0.1314  0.1996  0.8819
  651MOL0     H87828   0.226   5.936   5.188 -0.1717  0.5493  0.9294
  651MOL0     H87829   0.323   6.062   5.277 -0.3080  1.9608  0.3330
  651MOL0     H87830   0.133   6.216   5.280 -0.3074  0.7708 -1.4302
  651MOL0     H87831   0.039   6.094   5.193  0.5674  1.4674 -0.1364
  651MOL0     H87832   0.085   5.928   5.373  0.5642  0.5019 -1.3249
  651MOL0     H87833   0.151   6.045   5.486  2.6026  1.7990 -3.5400
  651MOL0     H87834  -0.079   5.990   5.539  0.8476 -1.3690 -0.4435
  651MOL0     H87835  -0.132   6.023   5.371 -0.8240  0.5103 -0.3860
  651MOL0     H87836  -0.264   6.229   5.365 -2.1285  3.3021  1.4974
  651MOL0     H87837  -0.208   6.560   5.407 -0.1330 -1.5489 -1.8298
  651MOL0     H87838  -0.351   6.456   5.418 -0.4254  4.2363 -1.2826
  651MOL0     H87839  -0.406   6.628   5.547  0.1367 -0.7622  0.3027
  651MOL0     H87840  -0.257   6.631   5.644 -0.8336 -0.7476  1.8830
  651MOL0     H87841  -0.438   6.542   5.782  0.0108 -0.9869  1.5372
  651MOL0     H87842  -0.310   6.418   5.760  0.5595  1.4487  1.8616
  651MOL0     H87843  -0.440   6.280   5.639  1.0916  0.3136  0.6724
  651MOL0     H87844  -0.536   6.411   5.556 -0.5239  3.2025  2.2258
  651MOL0     H87845  -0.683   6.251   5.483 -1.4017  0.0415 -1.2835
  651MOL0     H87846  -0.933   6.097   5.379 -0.2469  0.7657 -0.4763
  651MOL0     H87847  -0.957   6.257   5.311 -0.6752 -0.5581  0.0355
  651MOL0     H87848  -0.794   6.174   5.333 -1.0518 -1.9361 -0.4440
  651MOL0     H87849  -1.193   5.983   5.407  1.2890 -0.3802 -1.0994
  651MOL0     H87850  -1.397   5.867   5.320  1.7562 -0.0175 -0.1694
  651MOL0     H87851  -1.812   5.966   5.243 -1.0273  1.6378  1.4169
  651MOL0     H87852  -1.749   6.133   5.259 -0.5960 -0.7216  1.6805
  651MOL0     H87853  -1.655   6.132   5.029  0.6654 -0.2824  1.7435
  651MOL0     H87854  -1.706   5.969   4.994 -1.4001  0.6054 -1.1097
  651MOL0     H87855  -1.886   6.199   5.042  0.0834 -0.4283  0.0588
  651MOL0     H87856  -1.934   6.026   5.062 -0.6258 -0.9313 -1.9279
  651MOL0     H87857  -1.829   6.146   4.805 -1.9045  0.6670 -2.1834
  651MOL0     H87858  -1.874   5.973   4.832  0.9480  0.3708  0.6134
  651MOL0     H87859  -2.050   6.223   4.813  0.6526  0.8744  1.5974
  651MOL0     H87860  -2.095   6.079   4.913  0.5123  0.9254  0.1059
  651MOL0     H87861  -2.005   6.084   4.620  0.4885 -0.1068  0.3633
  651MOL0     H87862  -2.077   5.949   4.707  2.1445  0.0401 -0.1402
  651MOL0     H87863  -2.244   6.202   4.675 -1.2955 -0.0218 -1.4503
  651MOL0     H87864  -2.293   6.028   4.694 -0.9174  0.1872 -1.0473
  651MOL0     H87865  -2.189   5.992   4.464  0.6034  0.5142 -1.4369
  651MOL0     H87866  -2.156   6.161   4.457  2.2241 -1.8482 -0.0138
  651MOL0     H87867  -1.566   6.239   5.222 -0.3366  0.1560  0.4354
  651MOL0     H87868  -1.387   6.359   5.338  0.5960  0.7182 -0.3261
  651MOL0     H87869  -1.051   6.314   5.805  1.2190  1.6706  2.1226
  651MOL0     H87870  -0.816   6.339   5.880  0.6332  2.7113 -0.7735
  651MOL0     H87871   0.626   6.020   4.747 -2.2044  0.9789  0.4898
  651MOL0     H87872   0.842   6.113   4.639 -0.1009 -0.5164 -0.2420
  651MOL0     H87873   1.176   6.014   4.213  0.6727  0.8277 -1.8069
  651MOL0     H87874   1.400   6.110   4.203 -0.1979  2.1753 -3.1195
  651MOL0     H87875   1.586   6.188   4.189  0.7629  0.3962  0.4630
  651MOL0     H87876   1.506   6.312   4.081 -0.7152 -0.9132 -0.0771
  651MOL0     H87877   1.744   6.382   4.270  1.6018  0.5457 -0.1051
  651MOL0     H87878   1.636   6.498   4.193  0.3804 -1.2117  0.3708
  651MOL0     H87879   1.826   6.478   4.062  0.5097 -0.9551  1.0463
  651MOL0     H87880   1.710   6.394   3.963  0.8893 -1.4698 -0.5169
  651MOL0     H87881   1.818   6.180   4.075 -0.9668 -0.1928 -2.6398
  651MOL0     H87882   1.922   6.288   4.163 -1.0690 -1.1915  0.5696
  651MOL0     H87883   2.124   6.331   3.792  2.4474  2.5710  2.8942
  651MOL0     H87884   1.265   6.436   4.442 -3.8877  0.4068  2.5872
  651MOL0     H87885   1.053   6.353   4.447  1.5595  0.9235 -0.2749
  652MOL0     O87886   7.699   0.952   9.691  0.6785  0.4884  0.5690
  652MOL0     C87887   7.691   0.905   9.807  0.6618  0.4979 -0.5871
  652MOL0     O87888   7.577   0.891   9.888  0.1351  0.5458  0.5100
  652MOL0     C87889   7.469   0.931   9.824 -0.0352  0.3262  0.8151
  652MOL0     C87890   7.431   1.064   9.855  0.6672 -0.7924 -0.8804
  652MOL0     C87891   7.309   1.122   9.798  0.2521  0.1135 -0.6864
  652MOL0     C87892   7.244   1.049   9.702  0.0627  0.0575  0.4311
  652MOL0     O87893   7.115   1.078   9.662 -1.0223 -0.8432  0.0912
  652MOL0     C87894   7.114   1.209   9.602  0.1014  0.3790 -0.3709
  652MOL0     C87895   6.980   1.239   9.541  0.6509  0.4003 -0.6529
  652MOL0     C87896   6.958   1.378   9.490  0.3910  0.8360 -0.3077
  652MOL0     C87897   7.063   1.431   9.391 -0.6755 -0.4580  0.4800
  652MOL0     C87898   7.052   1.574   9.357 -0.6988  0.1259 -0.3789
  652MOL0     C87899   6.940   1.609   9.263 -0.2253  0.2892  0.3367
  652MOL0     C87900   6.913   1.759   9.243 -0.3144 -0.9356  0.0188
  652MOL0     C87901   6.807   1.765   9.133 -0.9716  0.1926  0.5814
  652MOL0     N87902   6.736   1.887   9.125  0.0658 -0.8669  0.9244
  652MOL0     C87903   6.636   1.918   9.209  0.4981  0.3442 -0.3565
  652MOL0     C87904   6.556   2.006   9.144  0.1920  0.4739  0.6578
  652MOL0     C87905   6.428   2.060   9.197  0.0299  0.2078 -0.1991
  652MOL0     C87906   6.456   2.161   9.311  0.9302  0.3870  0.1407
  652MOL0     C87907   6.540   2.289   9.278 -0.1578  0.0241 -0.8250
  652MOL0     C87908   6.460   2.373   9.181 -0.4862  0.5982  0.2197
  652MOL0     O87909   6.338   2.411   9.233  0.0291  0.0538  0.2169
  652MOL0     C87910   6.249   2.494   9.160 -0.2119 -0.1049  0.0962
  652MOL0     C87911   6.285   2.561   9.035 -0.4258  1.3940 -0.0084
  652MOL0     C87912   6.188   2.645   8.973 -0.9975 -0.2233  0.0167
  652MOL0     C87913   6.243   2.720   8.854 -0.1224 -0.9177 -0.2100
  652MOL0     C87914   6.060   2.659   9.025  0.0107 -0.2348  0.3449
  652MOL0     C87915   5.951   2.737   8.962  0.7225 -0.0784  0.8969
  652MOL0     O87916   5.839   2.776   9.034 -0.0699 -0.0874  0.3247
  652MOL0     C87917   5.762   2.867   8.976 -0.1567 -1.3900  0.5508
  652MOL0     C87918   5.694   2.846   8.853 -0.8651  0.6706 -0.3742
  652MOL0     C87919   5.634   2.955   8.791 -0.1199  0.4190  0.2429
  652MOL0     C87920   5.616   3.080   8.858  0.0575  0.3864  0.3541
  652MOL0     O87921   5.543   3.185   8.811 -0.1929 -0.6673 -0.1318
  652MOL0     C87922   5.461   3.160   8.693  0.1666 -0.6891 -0.1775
  652MOL0     C87923   5.354   3.266   8.665 -0.0027 -0.1511 -0.4335
  652MOL0     C87924   5.254   3.258   8.776 -0.4490 -0.5379 -0.7785
  652MOL0     C87925   5.141   3.371   8.776  0.4281  0.2465  0.3868
  652MOL0     C87926   5.074   3.378   8.913 -0.1046 -0.1035  0.6570
  652MOL0     C87927   4.998   3.246   8.944 -0.5717  0.0720  0.2942
  652MOL0     C87928   4.903   3.254   9.060  0.2044 -0.3780 -0.0220
  652MOL0     C87929   4.776   3.330   9.012 -0.3808 -0.4784 -0.4833
  652MOL0    Cl87930   4.648   3.316   9.139  0.0778  0.2248  0.1945
  652MOL0     C87931   5.671   3.095   8.979  1.0332 -0.0017 -0.2131
  652MOL0     C87932   5.746   2.992   9.031  0.4330 -0.0682  0.3983
  652MOL0     O87933   5.970   2.761   8.844  0.0014 -0.1045  0.2080
  652MOL0     C87934   6.029   2.585   9.138  1.1233 -0.4591 -0.8777
  652MOL0     C87935   6.118   2.506   9.204 -0.7689  0.7840 -0.6492
  652MOL0     N87936   6.615   2.039   9.031  0.6805  0.0483 -0.5755
  652MOL0     N87937   6.712   1.960   9.003  0.4754 -0.1239 -0.0590
  652MOL0     C87938   7.298   0.927   9.651 -0.4014  0.3908  0.6104
  652MOL0     C87939   7.401   0.867   9.718  0.4909 -0.1033  0.7118
  652MOL0     C87940   7.812   0.861   9.874 -0.8381  0.4368  0.0321
  652MOL0     C87941   7.928   0.830   9.795  0.5451  0.6907  0.0653
  652MOL0     C87942   8.044   0.782   9.855 -0.5339  0.3814 -0.4077
  652MOL0     C87943   8.058   0.758   9.989  0.0820 -0.9582 -0.0856
  652MOL0     O87944   8.178   0.715  10.031  0.5844  0.4442 -0.5959
  652MOL0     C87945   8.183   0.617  10.139 -0.3398 -0.1883 -0.0451
  652MOL0     C87946   8.223   0.687  10.268  0.3883  0.9623  0.4073
  652MOL0     C87947   8.370   0.713  10.262 -0.7712 -0.3536 -0.4152
  652MOL0     C87948   8.430   0.781  10.381  0.6599 -0.2564  1.0522
  652MOL0     C87949   8.439   0.685  10.487  0.2458  0.2415 -0.6824
  652MOL0     C87950   8.450   0.602  10.576  0.3826  0.7479  0.2923
  652MOL0     C87951   7.938   0.785  10.070 -1.8584 -0.8486  0.0711
  652MOL0     C87952   7.817   0.833  10.016  0.0275 -0.0135  0.0361
  652MOL0     H87953   7.485   1.118   9.932  0.7219 -0.6253 -1.0346
  652MOL0     H87954   7.262   1.213   9.831 -0.5740  0.0332 -1.5685
  652MOL0     H87955   7.128   1.294   9.669 -1.6278 -0.0370  0.5631
  652MOL0     H87956   7.189   1.220   9.522  0.6215 -3.6616 -0.6246
  652MOL0     H87957   6.979   1.170   9.456  1.3085  1.2037 -1.3313
  652MOL0     H87958   6.902   1.219   9.614 -1.8880  0.9216 -3.0273
  652MOL0     H87959   6.857   1.389   9.450 -0.4955  0.0293  1.5763
  652MOL0     H87960   6.945   1.439   9.579 -0.4356  0.7997 -0.3934
  652MOL0     H87961   7.157   1.428   9.448 -0.9193  1.9741  1.1025
  652MOL0     H87962   7.068   1.373   9.299 -1.0749  1.5630 -0.8668
  652MOL0     H87963   7.034   1.634   9.446 -2.1976 -0.6983 -0.0989
  652MOL0     H87964   7.148   1.609   9.319 -1.5034 -1.6052 -4.6350
  652MOL0     H87965   6.941   1.555   9.168 -5.0720  1.2324 -0.5425
  652MOL0     H87966   6.853   1.569   9.317  0.6760 -0.8551  0.9802
  652MOL0     H87967   6.871   1.808   9.331 -2.3902 -1.2359 -0.7532
  652MOL0     H87968   6.998   1.823   9.216  0.4128 -0.9002  2.1755
  652MOL0     H87969   6.730   1.689   9.136  0.1505 -0.9742  0.6616
  652MOL0     H87970   6.862   1.758   9.039 -0.6378  4.5346  0.2399
  652MOL0     H87971   6.611   1.869   9.303  1.1942 -0.6873 -0.6853
  652MOL0     H87972   6.372   2.110   9.117  1.8628  1.0595 -1.0146
  652MOL0     H87973   6.372   1.981   9.247  1.4852  0.5249  2.0929
  652MOL0     H87974   6.505   2.111   9.395  1.1450 -0.9263 -0.7229
  652MOL0     H87975   6.365   2.200   9.359  0.8315 -2.2372  2.3786
  652MOL0     H87976   6.631   2.264   9.222 -0.9268  0.2687 -2.2056
  652MOL0     H87977   6.585   2.349   9.358  3.3415  0.1251 -2.6429
  652MOL0     H87978   6.452   2.309   9.093  1.3826 -2.3757  2.0227
  652MOL0     H87979   6.505   2.471   9.163 -2.3368  1.7568  1.4947
  652MOL0     H87980   6.382   2.540   8.991 -1.8907 -0.6568 -2.5206
  652MOL0     H87981   6.205   2.680   8.760 -3.1162  1.6226 -0.2566
  652MOL0     H87982   6.210   2.825   8.849 -1.8296 -1.4189 -0.1759
  652MOL0     H87983   6.351   2.705   8.866 -0.4244 -1.2862  2.7088
  652MOL0     H87984   5.692   2.748   8.807 -1.3810  0.0355  0.9510
  652MOL0     H87985   5.592   2.939   8.692 -0.1916 -0.3211  0.3839
  652MOL0     H87986   5.519   3.154   8.600  0.0325  0.1024 -0.3214
  652MOL0     H87987   5.405   3.066   8.697 -1.9663  0.5484  1.1992
  652MOL0     H87988   5.392   3.368   8.647 -2.2468  1.0406  1.1901
  652MOL0     H87989   5.306   3.231   8.573  0.2451  0.3247 -0.7560
  652MOL0     H87990   5.310   3.276   8.868  0.8721 -0.9306 -1.4806
  652MOL0     H87991   5.208   3.159   8.771  0.3646 -0.9765  0.1178
  652MOL0     H87992   5.180   3.472   8.756 -2.5260  0.8297 -3.6946
  652MOL0     H87993   5.061   3.355   8.702 -0.7589 -1.1679  1.9119
  652MOL0     H87994   5.008   3.464   8.895  1.5888  1.5010  1.8179
  652MOL0     H87995   5.131   3.393   9.005 -1.7503  0.3020  1.6491
  652MOL0     H87996   4.946   3.212   8.854 -1.0339  2.2490 -0.3106
  652MOL0     H87997   5.078   3.174   8.966 -0.1789  0.6799  0.8979
  652MOL0     H87998   4.949   3.302   9.147  3.0968 -1.0197 -1.0688
  652MOL0     H87999   4.867   3.152   9.068  0.8270 -0.6044 -0.0298
  652MOL0     H88000   4.751   3.292   8.912 -2.0815 -1.6205  0.3458
  652MOL0     H88001   4.801   3.436   9.003 -1.3905 -0.2106 -0.1879
  652MOL0     H88002   5.651   3.186   9.035 -3.5709 -1.3210  0.7041
  652MOL0     H88003   5.783   2.998   9.133 -0.2690  0.8549  0.6098
  652MOL0     H88004   5.929   2.595   9.178  0.7168 -0.3639 -1.8659
  652MOL0     H88005   6.092   2.468   9.302 -1.5880  0.4443 -0.9799
  652MOL0     H88006   7.252   0.880   9.564  1.9233 -2.5190  0.8165
  652MOL0     H88007   7.421   0.775   9.665 -0.3217  0.6493 -0.9483
  652MOL0     H88008   7.923   0.836   9.687  1.4436 -0.9907 -0.0939
  652MOL0     H88009   8.132   0.757   9.798 -1.1712 -1.3827 -0.6904
  652MOL0     H88010   8.089   0.564  10.153  0.7096 -1.6577  2.1168
  652MOL0     H88011   8.260   0.542  10.118  0.6373  1.0576 -1.1335
  652MOL0     H88012   8.227   0.625  10.359  0.7039 -0.1771 -0.3660
  652MOL0     H88013   8.168   0.780  10.280 -0.2103  0.6911 -0.1877
  652MOL0     H88014   8.386   0.771  10.171  0.8776 -1.2641 -0.7625
  652MOL0     H88015   8.430   0.622  10.253  1.0176  0.3257  2.8381
  652MOL0     H88016   8.357   0.859  10.407  0.9407  1.2754 -2.2664
  652MOL0     H88017   8.529   0.827  10.373 -0.3714  1.7185 -4.1233
  652MOL0     H88018   8.448   0.514  10.638 -1.6743 -0.2811 -1.1107
  652MOL0     H88019   7.949   0.773  10.178 -0.4381  0.5410  0.1198
  652MOL0     H88020   7.730   0.855  10.077 -0.1678  0.3230 -0.3592
  653MOL0     O88021   2.350  11.120  10.333 -0.3863 -0.0282  0.3623
  653MOL0     C88022   2.384  11.019  10.398 -0.4105  0.2383  0.1354
  653MOL0     O88023   2.300  10.946  10.477  0.4582 -0.0049 -0.1039
  653MOL0     C88024   2.176  10.991  10.502  0.4964 -0.1372  0.0565
  653MOL0     C88025   2.129  10.968  10.632  0.6751 -0.5071  0.2571
  653MOL0     C88026   1.994  10.994  10.672 -0.7145 -0.1988 -0.1694
  653MOL0     C88027   1.904  11.043  10.577  0.6401  0.4176  0.4001
  653MOL0     O88028   1.769  11.067  10.600  0.0551 -0.9279  0.0237
  653MOL0     C88029   1.711  10.966  10.687 -0.2798 -0.7910  0.1591
  653MOL0     C88030   1.559  10.960  10.652 -1.0490 -0.5871 -0.4417
  653MOL0     C88031   1.482  10.851  10.715 -0.0171  0.1025  0.2746
  653MOL0     C88032   1.337  10.859  10.667  0.6708 -0.4602 -0.4332
  653MOL0     C88033   1.245  10.775  10.757  0.2542 -0.7413 -0.0173
  653MOL0     C88034   1.290  10.637  10.778 -0.0894 -0.9998 -0.1353
  653MOL0     C88035   1.182  10.539  10.834 -0.0849  0.1895  0.3007
  653MOL0     C88036   1.226  10.395  10.835 -0.1118  0.3893 -0.2587
  653MOL0     N88037   1.104  10.307  10.853  0.3349  0.1449 -0.3266
  653MOL0     C88038   1.053  10.282  10.973  1.1159 -0.0242 -0.3076
  653MOL0     C88039   0.951  10.193  10.951 -0.6259  0.7409 -0.4120
  653MOL0     C88040   0.877  10.140  11.070 -0.3639 -0.4204  0.1202
  653MOL0     C88041   0.828  10.000  11.059  0.7486  0.0137 -0.1216
  653MOL0     C88042   0.935   9.891  11.059  0.2368 -0.2997 -0.8491
  653MOL0     C88043   1.026   9.870  11.178 -0.0460  0.4373 -0.6020
  653MOL0     O88044   1.126   9.780  11.145  0.0149 -0.0596  0.2149
  653MOL0     C88045   1.237   9.771  11.221 -0.1806 -1.2195  0.6529
  653MOL0     C88046   1.344   9.713  11.170 -0.2912  0.7197  0.4102
  653MOL0     C88047   1.472   9.698  11.228  0.4562  0.7323  1.2742
  653MOL0     C88048   1.572   9.626  11.158  0.2881  0.0075 -0.0456
  653MOL0     C88049   1.493   9.768  11.361  0.8961 -0.3659  0.1419
  653MOL0     C88050   1.625   9.781  11.432  0.0144 -0.9484 -0.0199
  653MOL0     O88051   1.730   9.727  11.373 -0.4540  0.3815  0.1747
  653MOL0     C88052   1.860   9.761  11.414 -0.5030 -0.7784  0.3379
  653MOL0     C88053   1.960   9.669  11.423 -0.3194  0.1536 -0.0529
  653MOL0     C88054   2.085   9.706  11.467  0.0408  0.9619 -0.0801
  653MOL0     C88055   2.128   9.835  11.481 -0.0384  0.6134  0.7609
  653MOL0     O88056   2.260   9.844  11.524 -0.6740 -1.8314  0.2734
  653MOL0     C88057   2.334   9.956  11.454 -0.1795  0.5632 -0.3737
  653MOL0     C88058   2.485   9.956  11.458 -0.1501  0.2689  0.4865
  653MOL0     C88059   2.539   9.920  11.593 -0.0216  0.3316  0.1924
  653MOL0     C88060   2.518  10.027  11.698 -0.4960 -0.8508 -1.2072
  653MOL0     C88061   2.545   9.985  11.841 -0.0597 -0.2297  0.2644
  653MOL0     C88062   2.455   9.870  11.896  0.2242 -0.7823 -0.0099
  653MOL0     C88063   2.305   9.896  11.888  0.2827  0.0546 -0.2572
  653MOL0     C88064   2.235   9.772  11.926  0.5229 -0.5619 -0.7021
  653MOL0    Cl88065   2.242   9.646  11.791 -0.4556  0.1140 -0.2766
  653MOL0     C88066   2.033   9.932  11.474  0.4425  0.0083 -0.3792
  653MOL0     C88067   1.902   9.898  11.426  0.2609  0.3209 -0.1445
  653MOL0     O88068   1.627   9.864  11.521 -0.7118 -0.1577  0.7689
  653MOL0     C88069   1.377   9.817  11.426  0.1373 -0.5519  0.6035
  653MOL0     C88070   1.259   9.826  11.347 -0.6395  0.0007 -0.0707
  653MOL0     N88071   0.938  10.167  10.818  0.6966  0.0174 -0.1108
  653MOL0     N88072   1.025  10.242  10.762  0.5608 -0.0300  0.3920
  653MOL0     C88073   1.957  11.068  10.446  0.4302 -0.8096  0.1399
  653MOL0     C88074   2.087  11.035  10.408  0.8784  0.8964 -0.4733
  653MOL0     C88075   2.518  10.958  10.382 -1.1181 -0.5772  0.7479
  653MOL0     C88076   2.589  10.888  10.475  0.4124  0.2671 -0.9515
  653MOL0     C88077   2.720  10.846  10.450  0.2306 -0.5144  0.5971
  653MOL0     C88078   2.785  10.887  10.328 -0.1591 -0.3121  0.4410
  653MOL0     O88079   2.915  10.861  10.293 -0.1326  0.0928  0.5645
  653MOL0     C88080   2.996  10.767  10.367 -0.2600  0.1345 -0.0195
  653MOL0     C88081   3.145  10.772  10.301  0.9225 -0.4019  0.4677
  653MOL0     C88082   3.243  10.659  10.345  0.8275 -1.0641 -0.3071
  653MOL0     C88083   3.259  10.649  10.495 -0.6474  0.3578 -0.2116
  653MOL0     C88084   3.331  10.773  10.536  0.0410 -0.0167  0.6015
  653MOL0     C88085   3.391  10.873  10.566  0.1755  0.3659  0.7516
  653MOL0     C88086   2.722  10.947  10.230 -0.6410  0.2311  0.1578
  653MOL0     C88087   2.594  10.992  10.263  0.6754 -0.1296  0.3579
  653MOL0     H88088   2.194  10.929  10.709  0.2215  2.0118  2.0340
  653MOL0     H88089   1.960  10.965  10.771  1.3150  0.0311  0.6514
  653MOL0     H88090   1.760  10.870  10.671  0.0956 -0.4825 -0.6342
  653MOL0     H88091   1.734  10.992  10.790 -0.0905 -0.1415 -0.0414
  653MOL0     H88092   1.492  11.037  10.692 -1.1413 -0.7686 -0.2473
  653MOL0     H88093   1.551  10.970  10.543  0.5744  1.2125 -0.4569
  653MOL0     H88094   1.514  10.750  10.685 -1.4644  0.0855 -1.4074
  653MOL0     H88095   1.487  10.850  10.824 -0.2531 -0.7908  0.2854
  653MOL0     H88096   1.296  10.960  10.675 -0.8989 -1.0741 -0.4296
  653MOL0     H88097   1.334  10.823  10.564  3.9621 -0.2532 -0.7132
  653MOL0     H88098   1.252  10.823  10.856 -0.2161 -1.9152  0.6111
  653MOL0     H88099   1.140  10.784  10.730 -0.0443  0.2996  1.3332
  653MOL0     H88100   1.328  10.596  10.684  3.0016 -0.3312  0.7152
  653MOL0     H88101   1.376  10.640  10.845 -0.4103 -0.0222  0.2416
  653MOL0     H88102   1.163  10.568  10.938 -0.4317 -1.4843  0.7279
  653MOL0     H88103   1.090  10.541  10.776 -0.0106  0.3078  0.1851
  653MOL0     H88104   1.287  10.373  10.923 -2.6042  0.6088  1.6564
  653MOL0     H88105   1.276  10.362  10.743  0.7043 -0.8688  0.5970
  653MOL0     H88106   1.093  10.324  11.064  2.2282  1.6435 -1.4930
  653MOL0     H88107   0.944  10.156  11.154  1.4736  0.1087 -1.3876
  653MOL0     H88108   0.796  10.213  11.086 -1.0655 -1.3358  0.8397
  653MOL0     H88109   0.761   9.996  10.973 -0.0883 -1.5080  0.5623
  653MOL0     H88110   0.768   9.980  11.148 -2.3951 -1.2683 -2.3373
  653MOL0     H88111   1.008   9.920  10.982 -0.5585 -1.0086 -1.9060
  653MOL0     H88112   0.889   9.793  11.043  1.8378 -2.7720  6.1728
  653MOL0     H88113   0.960   9.824  11.253 -2.2559 -0.4992 -2.9610
  653MOL0     H88114   1.063   9.967  11.212 -0.5407  0.1833  0.7293
  653MOL0     H88115   1.324   9.674  11.071 -3.5294 -0.0532  1.2623
  653MOL0     H88116   1.660   9.691  11.156  0.6875 -0.5168  0.2674
  653MOL0     H88117   1.595   9.533  11.211  0.7574  0.6968  0.9935
  653MOL0     H88118   1.547   9.601  11.055  0.1768  2.0904 -0.5711
  653MOL0     H88119   1.942   9.563  11.405 -2.0388  0.2088  1.1291
  653MOL0     H88120   2.155   9.627  11.493 -2.3579 -0.2992  3.0935
  653MOL0     H88121   2.302   9.943  11.350 -2.3651  0.9039  0.2116
  653MOL0     H88122   2.296  10.056  11.478  0.0155  0.4554  0.3993
  653MOL0     H88123   2.516   9.881  11.384 -2.3903  0.5188 -0.7833
  653MOL0     H88124   2.524  10.052  11.422 -1.4710  0.7922  0.4037
  653MOL0     H88125   2.647   9.908  11.579  0.5415  1.7505  2.7773
  653MOL0     H88126   2.504   9.821  11.624 -0.2310  0.5194  0.5623
  653MOL0     H88127   2.576  10.119  11.683 -1.3956  0.6374  2.8836
  653MOL0     H88128   2.413  10.056  11.689  0.2072  1.4999 -2.6227
  653MOL0     H88129   2.540  10.062  11.918  1.3579 -0.6289  0.7857
  653MOL0     H88130   2.648   9.947  11.842  0.4042 -0.0321 -5.4598
  653MOL0     H88131   2.487   9.776  11.848 -0.6607 -1.1696  0.1363
  653MOL0     H88132   2.488   9.864  12.000  3.2926  2.0709 -0.6398
  653MOL0     H88133   2.271   9.913  11.785  0.1014  0.0223 -0.2044
  653MOL0     H88134   2.280   9.981  11.952 -0.8861  1.0079 -1.8912
  653MOL0     H88135   2.128   9.789  11.941  1.1043  2.6461  0.6211
  653MOL0     H88136   2.273   9.731  12.020  0.4929 -1.2463 -0.9837
  653MOL0     H88137   2.065  10.034  11.491  3.7338 -0.5228 -2.4870
  653MOL0     H88138   1.836   9.983  11.413 -3.1342 -2.2175 -0.9862
  653MOL0     H88139   1.379   9.868  11.522  0.4348 -0.5653  0.6057
  653MOL0     H88140   1.169   9.874  11.384 -0.9126  0.2060 -0.9772
  653MOL0     H88141   1.884  11.098  10.371  3.7188 -0.3116 -3.1491
  653MOL0     H88142   2.107  11.039  10.301 -0.6289  0.7437 -0.7834
  653MOL0     H88143   2.542  10.853  10.567  1.2742 -2.1139 -1.3477
  653MOL0     H88144   2.775  10.782  10.519  0.5882  2.4432  3.2633
  653MOL0     H88145   3.015  10.792  10.472  1.1105  2.1799 -0.6951
  653MOL0     H88146   2.947  10.670  10.359 -0.4476  0.3741 -2.2672
  653MOL0     H88147   3.170  10.876  10.322 -2.3972  0.5604  0.2094
  653MOL0     H88148   3.131  10.756  10.193 -3.1291 -2.4395  1.0863
  653MOL0     H88149   3.334  10.667  10.284  0.4241 -3.1890 -1.2730
  653MOL0     H88150   3.206  10.566  10.302  0.1292 -1.0351  0.2243
  653MOL0     H88151   3.334  10.572  10.514 -0.9981  0.3791  1.3622
  653MOL0     H88152   3.166  10.630  10.550 -0.9249  2.5388  0.1659
  653MOL0     H88153   3.433  10.972  10.568  1.7691 -0.0783 -2.9211
  653MOL0     H88154   2.762  10.968  10.131 -0.3982  0.0652  0.2214
  653MOL0     H88155   2.536  11.050  10.193 -3.7215 -2.5175  1.6231
  654MOL0     O88156   8.476   8.339   3.394 -1.0199  0.0235  0.2208
  654MOL0     C88157   8.412   8.393   3.484  0.0740 -0.9196  1.1608
  654MOL0     O88158   8.456   8.476   3.575 -0.2322  0.2537 -0.4781
  654MOL0     C88159   8.583   8.534   3.564 -0.4763  0.2820 -0.2457
  654MOL0     C88160   8.591   8.666   3.524 -0.0832  0.0341  0.8816
  654MOL0     C88161   8.718   8.711   3.470  0.1247  0.7329 -0.5098
  654MOL0     C88162   8.837   8.629   3.478  0.1539  0.0000  0.5758
  654MOL0     O88163   8.959   8.683   3.430 -0.3871  0.2848 -0.7484
  654MOL0     C88164   9.082   8.605   3.421 -0.6731 -0.2596 -0.4064
  654MOL0     C88165   9.157   8.624   3.560  0.0350  0.0378 -0.5139
  654MOL0     C88166   9.309   8.606   3.542  0.6286 -0.1806  0.1377
  654MOL0     C88167   9.394   8.637   3.668 -0.6806  0.2677  0.9158
  654MOL0     C88168   9.535   8.573   3.674 -0.5715 -0.0273  0.0758
  654MOL0     C88169   9.646   8.655   3.596  0.2817 -0.2318  0.3437
  654MOL0     C88170   9.783   8.580   3.601  0.8152 -0.1101  0.7047
  654MOL0     C88171   9.864   8.622   3.723  0.8080  0.3923  1.0799
  654MOL0     N88172   9.992   8.553   3.720 -0.4136 -0.2661  0.6451
  654MOL0     C88173  10.103   8.586   3.643  0.5150 -0.0740 -0.2662
  654MOL0     C88174  10.190   8.506   3.700 -0.5950  0.3581 -0.0087
  654MOL0     C88175  10.337   8.496   3.665  0.3767  0.2048 -0.4744
  654MOL0     C88176  10.415   8.619   3.701 -0.0013  0.0471 -0.1906
  654MOL0     C88177  10.459   8.631   3.844 -0.6643  0.5225  0.1357
  654MOL0     C88178  10.357   8.648   3.950  0.7074 -0.3450  0.0296
  654MOL0     O88179  10.287   8.778   3.932  0.0729  0.1002  0.3692
  654MOL0     C88180  10.159   8.804   3.970 -0.6044  0.0469  0.6636
  654MOL0     C88181  10.089   8.719   4.050  0.0326  0.5791 -0.2352
  654MOL0     C88182   9.956   8.746   4.088 -0.4992  1.3798 -0.4485
  654MOL0     C88183   9.889   8.645   4.178 -0.6517  0.3186  0.6124
  654MOL0     C88184   9.892   8.863   4.044  0.6796  0.4466  0.4569
  654MOL0     C88185   9.747   8.902   4.045  0.5873 -1.0810  0.2543
  654MOL0     O88186   9.691   8.981   3.946 -0.0569 -0.0709 -0.2368
  654MOL0     C88187   9.557   8.994   3.923 -0.2952  0.0222 -0.9913
  654MOL0     C88188   9.464   8.882   3.908  0.5086 -0.1048  0.7492
  654MOL0     C88189   9.326   8.897   3.886  0.4494 -0.1266  0.4273
  654MOL0     C88190   9.277   9.026   3.864  0.1124 -0.5699  0.2042
  654MOL0     O88191   9.141   9.076   3.849 -0.0492 -0.1671 -0.1438
  654MOL0     C88192   9.032   8.979   3.868 -0.7182 -0.6598  0.4736
  654MOL0     C88193   8.907   9.062   3.849 -0.4826 -0.1495 -0.4436
  654MOL0     C88194   8.787   8.979   3.804  0.3008  0.0433 -0.3134
  654MOL0     C88195   8.660   9.061   3.812  0.2705 -0.7816  0.3650
  654MOL0     C88196   8.544   8.966   3.779  0.3335  0.7694  0.6515
  654MOL0     C88197   8.404   9.020   3.795 -0.4304  0.1885  0.0515
  654MOL0     C88198   8.303   8.935   3.717  0.2716  0.4774  0.5086
  654MOL0     C88199   8.246   8.811   3.775  0.3996 -0.2189 -0.1459
  654MOL0    Cl88200   8.184   8.826   3.936  0.3910  0.0823  0.0226
  654MOL0     C88201   9.364   9.135   3.869 -0.0099 -0.7050 -0.5599
  654MOL0     C88202   9.501   9.122   3.909 -0.1533  0.1406  0.4715
  654MOL0     O88203   9.685   8.851   4.135 -0.6102 -0.2273 -0.0816
  654MOL0     C88204   9.968   8.948   3.968 -0.5716 -0.9458  1.1880
  654MOL0     C88205  10.097   8.925   3.938 -0.1440 -0.7079  0.0647
  654MOL0     N88206  10.130   8.419   3.788 -0.1827 -0.0041 -0.1855
  654MOL0     N88207  10.011   8.457   3.808  0.4315  0.0519 -0.1378
  654MOL0     C88208   8.821   8.498   3.537 -0.0928 -0.3880 -0.0851
  654MOL0     C88209   8.692   8.449   3.569 -0.1066 -0.3301 -0.3811
  654MOL0     C88210   8.265   8.359   3.490  0.2359  0.3670 -0.0536
  654MOL0     C88211   8.195   8.397   3.606 -0.9514 -0.1091  0.0324
  654MOL0     C88212   8.052   8.398   3.609 -0.3004  1.0438  0.0706
  654MOL0     C88213   7.988   8.342   3.499 -0.8958  0.5686  1.1011
  654MOL0     O88214   7.854   8.328   3.491  1.0796 -0.1255  0.3859
  654MOL0     C88215   7.809   8.193   3.535 -0.5465 -0.3808  0.4065
  654MOL0     C88216   7.656   8.173   3.515 -0.3277 -0.8578  1.2812
  654MOL0     C88217   7.618   8.023   3.495  0.2228 -0.5102 -0.1080
  654MOL0     C88218   7.465   7.999   3.461  0.6053 -0.4830  0.3049
  654MOL0     C88219   7.372   8.024   3.572 -0.2349  0.3972  0.1737
  654MOL0     C88220   7.292   8.038   3.663 -0.1639 -0.1727  0.1764
  654MOL0     C88221   8.058   8.299   3.385  1.3592 -0.7028  1.3326
  654MOL0     C88222   8.197   8.310   3.377  0.1630  0.5920  0.5137
  654MOL0     H88223   8.500   8.725   3.527  0.2089  0.5398  0.0094
  654MOL0     H88224   8.714   8.810   3.426 -1.0253  2.0335  2.2458
  654MOL0     H88225   9.059   8.502   3.392 -1.9986  0.1126 -0.7779
  654MOL0     H88226   9.149   8.645   3.344  1.1814 -0.2320  1.1560
  654MOL0     H88227   9.132   8.725   3.594  3.0114  0.7169 -0.0470
  654MOL0     H88228   9.114   8.549   3.628  0.6787 -0.3618 -0.5392
  654MOL0     H88229   9.322   8.500   3.521 -2.2173 -0.1306 -2.4050
  654MOL0     H88230   9.343   8.664   3.456  1.5585 -0.6635  0.1680
  654MOL0     H88231   9.395   8.746   3.684 -2.7291  0.1209  2.5800
  654MOL0     H88232   9.337   8.596   3.751 -0.4486 -0.6928  0.6063
  654MOL0     H88233   9.572   8.559   3.776  0.3149 -1.9205 -0.4639
  654MOL0     H88234   9.529   8.474   3.627  0.3327 -0.9649  1.8141
  654MOL0     H88235   9.611   8.660   3.493  1.5398 -0.0536 -0.0922
  654MOL0     H88236   9.662   8.758   3.631  0.7450  0.5208 -1.9266
  654MOL0     H88237   9.764   8.473   3.604 -1.3854  0.2362  0.7499
  654MOL0     H88238   9.825   8.603   3.502 -0.4566 -4.2667 -1.0132
  654MOL0     H88239   9.801   8.601   3.810  1.1123 -0.9864  0.9932
  654MOL0     H88240   9.887   8.729   3.715 -0.9076  0.8593  1.9770
  654MOL0     H88241  10.119   8.667   3.573 -0.5572 -1.0673 -1.7158
  654MOL0     H88242  10.379   8.409   3.718  1.7058  0.8067 -0.5101
  654MOL0     H88243  10.339   8.476   3.558 -1.0334 -1.7465 -0.1915
  654MOL0     H88244  10.364   8.711   3.672 -0.1078 -0.5925 -2.1842
  654MOL0     H88245  10.504   8.596   3.641  2.3354  3.8440  1.4558
  654MOL0     H88246  10.533   8.711   3.852  0.8192 -0.9106  1.3209
  654MOL0     H88247  10.513   8.539   3.871  1.4807  1.2305 -1.4968
  654MOL0     H88248  10.413   8.661   4.043 -0.8236  3.3211  0.6106
  654MOL0     H88249  10.288   8.563   3.959  0.0239  0.0818 -0.9514
  654MOL0     H88250  10.143   8.636   4.094 -1.1710 -0.0888  0.0169
  654MOL0     H88251   9.958   8.561   4.193 -0.5971  0.1538 -0.5021
  654MOL0     H88252   9.879   8.692   4.276 -0.2166 -0.5870  1.1005
  654MOL0     H88253   9.790   8.611   4.146 -0.4501 -1.1557  1.4847
  654MOL0     H88254   9.498   8.784   3.940  0.1009 -0.1983  0.9004
  654MOL0     H88255   9.251   8.820   3.871 -1.4880  1.7295  0.0668
  654MOL0     H88256   9.039   8.908   3.785  1.0984  0.3837 -0.3114
  654MOL0     H88257   9.039   8.930   3.966 -1.6860  0.2314  1.0071
  654MOL0     H88258   8.880   9.112   3.942 -1.1798 -1.3809  0.0430
  654MOL0     H88259   8.919   9.136   3.769 -0.4327  0.1275 -0.1795
  654MOL0     H88260   8.792   8.880   3.849 -0.0239 -1.8295 -4.0570
  654MOL0     H88261   8.798   8.955   3.698  1.0269  1.5318 -0.6060
  654MOL0     H88262   8.647   9.096   3.914  4.0449 -1.3481  1.1672
  654MOL0     H88263   8.668   9.138   3.735 -2.3382 -0.0529  0.7268
  654MOL0     H88264   8.548   8.880   3.847 -4.9070  0.0443  0.5053
  654MOL0     H88265   8.552   8.938   3.674  0.3905 -1.2235  1.1457
  654MOL0     H88266   8.390   9.031   3.903 -1.4043  0.0553 -0.0547
  654MOL0     H88267   8.400   9.120   3.749  0.3591 -0.2004 -0.9031
  654MOL0     H88268   8.338   8.903   3.618  0.1748 -1.9058  1.1778
  654MOL0     H88269   8.212   8.995   3.705 -1.2521 -1.8985 -0.7811
  654MOL0     H88270   8.315   8.726   3.775  0.4922 -0.1765 -1.5609
  654MOL0     H88271   8.172   8.773   3.703  0.9092  2.5550 -2.3545
  654MOL0     H88272   9.326   9.235   3.852  0.4379 -0.5651 -0.7379
  654MOL0     H88273   9.565   9.207   3.928  0.9407 -0.7343  0.8349
  654MOL0     H88274   9.929   9.036   3.919  1.8264 -0.5116 -0.1023
  654MOL0     H88275  10.138   9.005   3.877 -2.4678  1.9032  1.6752
  654MOL0     H88276   8.913   8.443   3.557 -0.1317 -0.7232 -0.7913
  654MOL0     H88277   8.672   8.345   3.594 -0.1514 -0.6714 -1.7930
  654MOL0     H88278   8.246   8.426   3.697  2.0215  0.2763 -1.6173
  654MOL0     H88279   7.988   8.444   3.684  3.6145  1.1922  3.7547
  654MOL0     H88280   7.872   8.126   3.477  0.5871  0.4852  0.5968
  654MOL0     H88281   7.829   8.177   3.642 -3.0571 -0.8642  0.8612
  654MOL0     H88282   7.641   8.236   3.427  3.1654 -0.3607  0.8827
  654MOL0     H88283   7.610   8.213   3.605  2.1916 -1.1841  2.7907
  654MOL0     H88284   7.648   7.963   3.582  3.9642  0.8442 -0.2709
  654MOL0     H88285   7.679   7.984   3.414 -0.6034 -0.6567 -0.6697
  654MOL0     H88286   7.462   7.894   3.431  0.7715 -0.1881 -0.8027
  654MOL0     H88287   7.437   8.070   3.383  0.1252  0.0950  0.9944
  654MOL0     H88288   7.227   8.050   3.748  0.3094 -0.2283  0.5499
  654MOL0     H88289   7.996   8.273   3.299  0.0365  3.2020  0.8953
  654MOL0     H88290   8.259   8.297   3.289  0.2583  0.7967  0.5516
  655MOL0     O88291   3.201   8.008   7.728 -0.4975  0.8168 -0.3277
  655MOL0     C88292   3.204   7.959   7.837  0.2898 -0.6935 -0.5826
  655MOL0     O88293   3.090   7.956   7.922 -0.3055  0.2183 -0.1091
  655MOL0     C88294   2.978   8.027   7.879  0.6280 -0.3287 -0.5583
  655MOL0     C88295   2.900   7.986   7.768 -0.1647 -0.2665 -0.3698
  655MOL0     C88296   2.788   8.052   7.723  0.0833  0.1374 -0.7231
  655MOL0     C88297   2.748   8.159   7.789  0.0613  0.5761 -0.7619
  655MOL0     O88298   2.628   8.219   7.754 -0.2433 -0.4248  0.3559
  655MOL0     C88299   2.623   8.366   7.767  0.7726 -0.2370 -0.7845
  655MOL0     C88300   2.495   8.402   7.693  0.2321  0.7053  0.0695
  655MOL0     C88301   2.482   8.555   7.673 -0.1758 -0.4268 -0.4669
  655MOL0     C88302   2.362   8.601   7.586 -0.4984 -0.0084 -0.6715
  655MOL0     C88303   2.237   8.585   7.663 -0.3316  0.4413 -0.5356
  655MOL0     C88304   2.123   8.635   7.577 -0.8809 -0.2828 -0.3732
  655MOL0     C88305   1.983   8.631   7.629 -0.1468 -0.3846 -0.9478
  655MOL0     C88306   1.977   8.709   7.764  0.8166  0.8645  0.0800
  655MOL0     N88307   1.843   8.687   7.821 -0.3385 -0.4805 -0.6702
  655MOL0     C88308   1.763   8.794   7.848  1.1476 -0.5196  0.4300
  655MOL0     C88309   1.674   8.758   7.940 -0.2909  0.7198  0.2163
  655MOL0     C88310   1.574   8.847   8.018 -0.1919  0.3975  0.2805
  655MOL0     C88311   1.424   8.806   7.993  0.4219 -0.3016  0.0775
  655MOL0     C88312   1.373   8.837   7.853 -1.0590 -0.1534 -0.3701
  655MOL0     C88313   1.227   8.794   7.825 -0.3462 -0.0839  0.0122
  655MOL0     O88314   1.230   8.652   7.822  0.1328 -0.1021  0.1311
  655MOL0     C88315   1.162   8.584   7.919  0.1042 -0.3292  0.3396
  655MOL0     C88316   1.138   8.629   8.052 -0.6939 -0.2916 -0.3513
  655MOL0     C88317   1.070   8.552   8.139 -0.0029 -0.0980 -0.1969
  655MOL0     C88318   1.042   8.605   8.280  0.2036  1.1111 -0.6568
  655MOL0     C88319   1.037   8.420   8.103  0.0546 -0.3221  0.2796
  655MOL0     C88320   0.957   8.328   8.189 -0.0665  0.8113  0.5274
  655MOL0     O88321   0.875   8.239   8.118  0.1838 -0.0565 -0.4171
  655MOL0     C88322   0.767   8.186   8.185 -0.2924  0.4931  0.2949
  655MOL0     C88323   0.789   8.075   8.272 -0.8027 -0.3522 -0.1257
  655MOL0     C88324   0.682   8.014   8.335  0.6933  0.3401 -0.6020
  655MOL0     C88325   0.544   8.046   8.302  1.1539  0.2554  0.9628
  655MOL0     O88326   0.429   7.975   8.341 -0.2397  0.7960 -0.4368
  655MOL0     C88327   0.365   8.009   8.461 -0.3421  0.3376 -0.2755
  655MOL0     C88328   0.220   8.059   8.424 -0.5949 -0.4515  0.3808
  655MOL0     C88329   0.143   8.071   8.551 -0.2893  0.4156 -0.0947
  655MOL0     C88330   0.005   8.127   8.524 -0.3668  0.0748  0.1443
  655MOL0     C88331  -0.096   8.086   8.632  0.3764  0.2743 -0.7667
  655MOL0     C88332  -0.236   8.134   8.599 -0.0481 -0.8779  0.2279
  655MOL0     C88333  -0.252   8.283   8.617  0.3741  0.6571 -1.2369
  655MOL0     C88334  -0.392   8.320   8.649  0.0764  1.5615  0.2109
  655MOL0    Cl88335  -0.436   8.266   8.817  0.0193  0.1251  0.0963
  655MOL0     C88336   0.527   8.150   8.208 -0.5582 -0.5428 -0.2952
  655MOL0     C88337   0.634   8.216   8.152  0.0496 -1.0017 -0.0552
  655MOL0     O88338   0.975   8.336   8.304  0.4724  0.3189 -0.5494
  655MOL0     C88339   1.062   8.376   7.972  0.1822  0.5627 -0.2072
  655MOL0     C88340   1.125   8.463   7.882  0.9616 -0.0069  0.2963
  655MOL0     N88341   1.703   8.628   7.975  0.0342 -0.3357 -0.3798
  655MOL0     N88342   1.807   8.582   7.904 -0.6872 -0.2426 -0.1635
  655MOL0     C88343   2.820   8.213   7.898  0.0466 -0.4889 -0.5310
  655MOL0     C88344   2.934   8.146   7.941 -0.0488 -0.5711 -0.5436
  655MOL0     C88345   3.317   7.884   7.887 -0.5685  0.1851 -0.3422
  655MOL0     C88346   3.308   7.772   7.985  0.5744  0.0889 -0.3937
  655MOL0     C88347   3.424   7.710   8.033 -0.4571 -0.2559 -0.2439
  655MOL0     C88348   3.547   7.749   7.981 -0.5316  0.0687 -0.3642
  655MOL0     O88349   3.664   7.692   8.028 -0.0319  0.0105  0.6283
  655MOL0     C88350   3.790   7.752   8.004 -0.3317 -0.7672 -0.2905
  655MOL0     C88351   3.898   7.696   8.104 -0.5476 -0.4015  0.1298
  655MOL0     C88352   3.847   7.686   8.251  0.5493 -0.5712 -0.1178
  655MOL0     C88353   3.947   7.689   8.363 -0.3377  0.0254  0.1185
  655MOL0     C88354   4.085   7.645   8.343 -0.1914  0.7453 -0.2908
  655MOL0     C88355   4.205   7.614   8.339  0.9077 -0.8715 -0.1391
  655MOL0     C88356   3.552   7.848   7.878  0.2017  0.2778 -0.2639
  655MOL0     C88357   3.438   7.920   7.841 -0.6374  0.2600  0.2244
  655MOL0     H88358   2.930   7.899   7.710  0.0206 -1.0732  0.8798
  655MOL0     H88359   2.730   8.015   7.639 -0.8008  0.5416 -0.3081
  655MOL0     H88360   2.617   8.388   7.874 -1.0714 -0.5348 -0.8004
  655MOL0     H88361   2.708   8.421   7.725  2.4939 -2.5008 -0.4592
  655MOL0     H88362   2.516   8.355   7.596  0.1794  3.4441 -1.3895
  655MOL0     H88363   2.418   8.357   7.755  0.4348  1.2520  0.7239
  655MOL0     H88364   2.459   8.582   7.776  1.4939  0.0125 -0.1894
  655MOL0     H88365   2.564   8.613   7.629 -1.9184  1.9847 -0.7916
  655MOL0     H88366   2.372   8.706   7.558  0.5797 -0.0716 -0.5494
  655MOL0     H88367   2.344   8.540   7.498 -0.1896 -1.9264  0.5310
  655MOL0     H88368   2.226   8.477   7.681  0.5685  0.8480  3.7074
  655MOL0     H88369   2.243   8.633   7.761 -1.5353  0.9256 -0.6817
  655MOL0     H88370   2.135   8.738   7.542 -2.5457  0.3138  0.6904
  655MOL0     H88371   2.121   8.574   7.487 -0.8893 -0.4112 -0.2864
  655MOL0     H88372   1.915   8.673   7.554  0.9053  1.5834 -0.8619
  655MOL0     H88373   1.954   8.531   7.664 -1.1460  0.2044 -0.0354
  655MOL0     H88374   1.982   8.816   7.744 -0.5217  0.8802 -0.2962
  655MOL0     H88375   2.048   8.657   7.829  1.1307  0.9190 -0.2127
  655MOL0     H88376   1.761   8.894   7.806  0.4602 -0.7331 -0.0692
  655MOL0     H88377   1.595   8.856   8.125  0.7629  2.5390 -0.0409
  655MOL0     H88378   1.591   8.952   7.994 -2.9190  0.6447 -1.0155
  655MOL0     H88379   1.358   8.858   8.063 -1.0817 -1.6412 -0.2595
  655MOL0     H88380   1.415   8.697   8.005 -0.9666 -0.0864  1.2424
  655MOL0     H88381   1.444   8.801   7.778 -1.8514  0.1784 -1.3008
  655MOL0     H88382   1.381   8.946   7.850  0.2873 -0.2278 -3.6464
  655MOL0     H88383   1.204   8.831   7.725 -1.0520  1.6287  0.7599
  655MOL0     H88384   1.159   8.849   7.891 -1.6618 -0.3374 -1.1027
  655MOL0     H88385   1.167   8.726   8.092  0.1862  0.1912 -2.0494
  655MOL0     H88386   1.107   8.545   8.344 -1.0624  0.8322  0.4064
  655MOL0     H88387   1.067   8.711   8.283 -0.5074  1.2637  0.4817
  655MOL0     H88388   0.938   8.589   8.311  1.2091 -2.9038  1.3662
  655MOL0     H88389   0.893   8.052   8.293 -0.4289  1.2980 -0.0582
  655MOL0     H88390   0.702   7.933   8.405  1.0465  2.6107  2.1153
  655MOL0     H88391   0.357   7.917   8.521  1.4662 -0.5630 -1.3161
  655MOL0     H88392   0.422   8.089   8.509 -2.3200  2.3050 -1.0218
  655MOL0     H88393   0.230   8.155   8.373 -1.2634 -2.1826 -3.3396
  655MOL0     H88394   0.170   7.992   8.354  0.7768 -0.0430 -1.0417
  655MOL0     H88395   0.192   8.131   8.629 -1.9372 -0.5368  1.7535
  655MOL0     H88396   0.143   7.969   8.590 -0.5138  0.6769  0.6024
  655MOL0     H88397  -0.000   8.235   8.507 -4.3429 -0.1035 -0.6238
  655MOL0     H88398  -0.036   8.082   8.434  0.9151  2.0450 -1.5231
  655MOL0     H88399  -0.061   8.114   8.732  1.0301  0.0418 -0.9282
  655MOL0     H88400  -0.106   7.978   8.621 -2.0730  0.4006 -0.2956
  655MOL0     H88401  -0.259   8.108   8.495  0.2473  1.7770 -0.5849
  655MOL0     H88402  -0.305   8.082   8.665 -0.7124 -1.7182 -1.0704
  655MOL0     H88403  -0.234   8.339   8.525  3.0653  1.4348 -0.3188
  655MOL0     H88404  -0.178   8.307   8.694  1.4078 -0.1950 -1.9395
  655MOL0     H88405  -0.452   8.273   8.571 -0.4078 -0.1146  1.5261
  655MOL0     H88406  -0.406   8.428   8.647  0.3457  1.7507  3.4820
  655MOL0     H88407   0.431   8.187   8.174  0.3392  1.2077 -1.0301
  655MOL0     H88408   0.622   8.299   8.083 -0.4695 -0.8052  0.2715
  655MOL0     H88409   1.047   8.273   7.941  1.5155 -0.5452  2.5442
  655MOL0     H88410   1.147   8.430   7.781 -0.3062 -1.0577  0.3428
  655MOL0     H88411   2.798   8.302   7.956 -0.5335 -0.0229 -1.4272
  655MOL0     H88412   2.973   8.174   8.038  2.6347  0.5106 -1.8512
  655MOL0     H88413   3.209   7.746   8.020  0.1477  0.2979 -1.4112
  655MOL0     H88414   3.435   7.631   8.107  1.4152 -1.1107 -1.3546
  655MOL0     H88415   3.827   7.741   7.902  1.4449  0.2019  0.2159
  655MOL0     H88416   3.774   7.860   8.018 -4.0935 -1.1880 -0.2493
  655MOL0     H88417   3.986   7.760   8.102  0.3013 -1.5546 -0.7024
  655MOL0     H88418   3.937   7.596   8.082 -0.8559 -1.2261  2.9057
  655MOL0     H88419   3.790   7.593   8.261 -1.9507  0.9754  0.8125
  655MOL0     H88420   3.769   7.762   8.262 -0.8529 -1.4378 -3.1864
  655MOL0     H88421   3.905   7.630   8.445  1.9470 -1.1956  0.4784
  655MOL0     H88422   3.941   7.792   8.400 -1.2867 -0.8165  2.5374
  655MOL0     H88423   4.310   7.593   8.327  0.5699 -3.1395  0.4685
  655MOL0     H88424   3.647   7.874   7.834 -0.2577  0.5014 -1.1519
  655MOL0     H88425   3.447   7.997   7.766 -0.7653 -0.9629 -1.0815
  656MOL0     O88426   1.689   1.711   3.631 -1.0583  0.6727  0.0754
  656MOL0     C88427   1.615   1.775   3.562  0.1561 -0.5476 -1.4389
  656MOL0     O88428   1.479   1.782   3.569 -0.3164  0.7722  0.1097
  656MOL0     C88429   1.408   1.698   3.657 -0.1882 -0.1301  0.3882
  656MOL0     C88430   1.273   1.733   3.670  1.0453 -0.1126 -0.2520
  656MOL0     C88431   1.189   1.664   3.757 -0.0315  0.1864  0.3639
  656MOL0     C88432   1.237   1.546   3.817  0.4365 -0.0767 -0.8035
  656MOL0     O88433   1.164   1.474   3.904  0.2263  0.1277  0.9996
  656MOL0     C88434   1.022   1.460   3.868  0.9417  0.5156  0.3538
  656MOL0     C88435   0.965   1.357   3.967 -0.3919  0.8122  0.0677
  656MOL0     C88436   0.814   1.362   3.948 -0.3513  0.0602 -0.0578
  656MOL0     C88437   0.759   1.229   4.004  0.1229  0.4306 -0.0188
  656MOL0     C88438   0.612   1.212   3.983 -0.1315 -0.2159  0.6076
  656MOL0     C88439   0.539   1.288   4.101  0.2438 -0.0246  1.1258
  656MOL0     C88440   0.385   1.272   4.099  0.6461  0.6923  0.1596
  656MOL0     C88441   0.316   1.291   3.964  0.0217  0.4890 -0.5553
  656MOL0     N88442   0.298   1.427   3.936 -0.2501  0.0383 -0.3360
  656MOL0     C88443   0.300   1.480   3.809 -0.4931 -0.1856 -0.8759
  656MOL0     C88444   0.242   1.597   3.824  0.0859 -0.9195 -0.2064
  656MOL0     C88445   0.219   1.692   3.709 -1.2928 -0.0221  0.1570
  656MOL0     C88446   0.092   1.658   3.636  0.0414 -0.2750 -0.7165
  656MOL0     C88447  -0.032   1.682   3.714 -0.1842 -1.0039 -0.0732
  656MOL0     C88448  -0.042   1.822   3.782  0.1193  0.1141 -0.6978
  656MOL0     O88449  -0.177   1.840   3.827  0.8370  0.5063  0.1215
  656MOL0     C88450  -0.215   1.800   3.952  0.2256 -0.2346 -0.0380
  656MOL0     C88451  -0.343   1.822   3.988 -0.6653 -0.9297 -0.4005
  656MOL0     C88452  -0.398   1.798   4.120 -0.2014 -0.1980  0.5557
  656MOL0     C88453  -0.538   1.842   4.155 -0.3996 -0.7073 -0.0519
  656MOL0     C88454  -0.311   1.736   4.209  1.0023 -0.2476 -0.8589
  656MOL0     C88455  -0.349   1.703   4.347 -0.3365  0.0114  1.0537
  656MOL0     O88456  -0.312   1.574   4.381  0.1764  0.1347 -1.1165
  656MOL0     C88457  -0.318   1.530   4.507  0.6554 -0.2240  0.3521
  656MOL0     C88458  -0.215   1.539   4.594 -0.1453 -0.2933  0.5632
  656MOL0     C88459  -0.234   1.491   4.731 -0.1926  0.1920  0.2536
  656MOL0     C88460  -0.354   1.443   4.774 -0.1135 -0.7461  0.2346
  656MOL0     O88461  -0.376   1.400   4.900  0.5427 -0.0361 -0.2535
  656MOL0     C88462  -0.268   1.392   4.990  0.6305 -0.5786 -0.1251
  656MOL0     C88463  -0.300   1.342   5.127 -0.5047  0.2068 -0.8974
  656MOL0     C88464  -0.377   1.206   5.121 -0.0228 -0.0297  0.4585
  656MOL0     C88465  -0.403   1.148   5.265 -0.4183  0.1364  0.6733
  656MOL0     C88466  -0.487   1.020   5.255  0.4956  0.0425 -0.4728
  656MOL0     C88467  -0.516   0.948   5.394 -0.2099  0.4070 -0.2726
  656MOL0     C88468  -0.654   0.883   5.397 -0.3380  0.0273  0.8804
  656MOL0     C88469  -0.691   0.792   5.272  0.5376 -0.1327 -0.4043
  656MOL0    Cl88470  -0.549   0.700   5.220  0.3762 -0.2616 -0.1371
  656MOL0     C88471  -0.464   1.443   4.686 -1.1177 -0.4155 -0.2000
  656MOL0     C88472  -0.440   1.477   4.549 -0.5801  0.0052  0.2829
  656MOL0     O88473  -0.379   1.790   4.416  0.2787  0.3624 -0.1563
  656MOL0     C88474  -0.183   1.694   4.169  0.7449 -0.3057 -0.5394
  656MOL0     C88475  -0.131   1.732   4.043  0.1938 -0.1460  0.5366
  656MOL0     N88476   0.206   1.616   3.955 -0.7588  0.3863 -1.0307
  656MOL0     N88477   0.244   1.513   4.024 -0.2315 -0.0385  0.7371
  656MOL0     C88478   1.365   1.505   3.801  0.2686 -0.0012 -0.0345
  656MOL0     C88479   1.451   1.582   3.717 -1.0155 -0.0348 -0.7609
  656MOL0     C88480   1.687   1.846   3.446 -0.0238 -0.2147 -0.7822
  656MOL0     C88481   1.825   1.867   3.434  0.1840 -0.0210 -0.9579
  656MOL0     C88482   1.869   1.948   3.321 -0.0661 -0.2336 -0.6155
  656MOL0     C88483   1.784   1.993   3.215  0.9854  0.1208 -1.0362
  656MOL0     O88484   1.827   2.063   3.099  0.3308  0.3835 -0.1177
  656MOL0     C88485   1.968   2.066   3.076  0.7568 -0.2262  0.3447
  656MOL0     C88486   2.018   2.140   2.954  0.1251 -0.7869  1.0451
  656MOL0     C88487   1.987   2.298   2.971 -0.8733 -0.3009  0.2968
  656MOL0     C88488   2.091   2.382   2.889 -0.5793 -0.3064 -0.5475
  656MOL0     C88489   2.079   2.522   2.885  0.3707  0.2018 -0.3032
  656MOL0     C88490   2.051   2.641   2.890  0.4380 -0.3038  1.4802
  656MOL0     C88491   1.653   1.965   3.225 -0.3339  0.2113 -0.1319
  656MOL0     C88492   1.606   1.889   3.336  0.4899  0.7111  0.1189
  656MOL0     H88493   1.254   1.836   3.640  2.0891 -0.4110 -2.0887
  656MOL0     H88494   1.089   1.705   3.769 -0.3716  0.0044 -1.5999
  656MOL0     H88495   0.965   1.553   3.881  0.1273  0.6728 -3.3085
  656MOL0     H88496   1.013   1.416   3.769 -1.4188 -1.5551  1.3651
  656MOL0     H88497   1.016   1.262   3.951  0.3751  1.2886 -0.3922
  656MOL0     H88498   0.981   1.395   4.069 -0.8373  2.1747 -0.3429
  656MOL0     H88499   0.767   1.439   4.009  0.6358  0.6495 -0.0184
  656MOL0     H88500   0.789   1.376   3.842  3.4334  2.5508 -0.8004
  656MOL0     H88501   0.804   1.150   3.943  0.8473  1.5436 -0.9682
  656MOL0     H88502   0.790   1.221   4.109 -0.1989  1.3405  0.1561
  656MOL0     H88503   0.582   1.265   3.892  2.3837  0.7731  0.2587
  656MOL0     H88504   0.596   1.105   3.972  1.2241 -0.1713 -3.5985
  656MOL0     H88505   0.560   1.231   4.193 -0.2749 -0.5929  0.8999
  656MOL0     H88506   0.564   1.395   4.107 -0.6104  0.4995 -2.5544
  656MOL0     H88507   0.364   1.169   4.129  0.9170 -0.4012 -3.0463
  656MOL0     H88508   0.343   1.339   4.175  1.8332  0.0600  1.4174
  656MOL0     H88509   0.216   1.246   3.973  1.4576 -2.9339 -0.1214
  656MOL0     H88510   0.360   1.240   3.877 -1.6294  0.8522 -1.6560
  656MOL0     H88511   0.343   1.435   3.720 -1.4056 -3.2994  0.1357
  656MOL0     H88512   0.227   1.795   3.744  0.9010 -0.3170  0.6471
  656MOL0     H88513   0.302   1.687   3.638 -0.3277  1.6087  1.1121
  656MOL0     H88514   0.092   1.552   3.607  0.6046 -0.5992  0.4221
  656MOL0     H88515   0.083   1.725   3.550  1.5454  1.2947  0.2945
  656MOL0     H88516  -0.055   1.601   3.783 -4.5621  0.9807  1.0933
  656MOL0     H88517  -0.114   1.668   3.642 -0.7299 -1.5160  0.6465
  656MOL0     H88518  -0.026   1.888   3.696 -0.1330  1.0999 -0.0014
  656MOL0     H88519   0.041   1.843   3.850 -0.0548  1.1460 -0.7838
  656MOL0     H88520  -0.402   1.878   3.917 -0.5916 -0.1554  0.1385
  656MOL0     H88521  -0.559   1.940   4.111 -0.6949  0.8493  3.2588
  656MOL0     H88522  -0.606   1.763   4.120 -0.3384  0.3765 -2.9143
  656MOL0     H88523  -0.556   1.844   4.263 -0.7756 -2.8856 -0.0288
  656MOL0     H88524  -0.115   1.569   4.563  0.1786 -1.7245  0.1714
  656MOL0     H88525  -0.149   1.504   4.797  0.3763  1.4522 -0.6859
  656MOL0     H88526  -0.184   1.333   4.953  0.4127 -1.1021  0.2167
  656MOL0     H88527  -0.227   1.492   5.011  2.2421 -1.6481  2.2369
  656MOL0     H88528  -0.205   1.328   5.178 -0.8668 -0.5042 -0.3906
  656MOL0     H88529  -0.359   1.410   5.191 -0.5383 -1.1816  0.6163
  656MOL0     H88530  -0.310   1.139   5.066 -2.0937 -0.8478 -1.2095
  656MOL0     H88531  -0.466   1.219   5.060  1.0077  1.5866 -0.7867
  656MOL0     H88532  -0.306   1.124   5.310  0.1165 -0.6084 -0.8115
  656MOL0     H88533  -0.449   1.233   5.318 -0.2587  0.4892  0.2495
  656MOL0     H88534  -0.433   0.946   5.196  0.4884  1.2395 -2.0275
  656MOL0     H88535  -0.588   1.036   5.215  0.1642 -0.4675  0.1456
  656MOL0     H88536  -0.435   0.876   5.408  0.5139  0.6988 -2.5340
  656MOL0     H88537  -0.508   1.016   5.479 -3.8134  0.2015  0.3841
  656MOL0     H88538  -0.728   0.964   5.387 -1.6401 -1.2754 -0.8156
  656MOL0     H88539  -0.663   0.825   5.489  0.7185 -1.3224  0.1712
  656MOL0     H88540  -0.727   0.862   5.196 -0.2059  0.4892  0.4986
  656MOL0     H88541  -0.778   0.729   5.292 -0.4475  1.1094 -0.6550
  656MOL0     H88542  -0.561   1.408   4.718 -0.3478 -1.3463  1.2331
  656MOL0     H88543  -0.524   1.477   4.480 -0.7696  0.8925  0.5071
  656MOL0     H88544  -0.117   1.654   4.246  0.5001 -0.0333 -0.1880
  656MOL0     H88545  -0.029   1.702   4.019  0.2634 -0.4368  1.1801
  656MOL0     H88546   1.401   1.416   3.851  0.8548 -0.4430 -1.2142
  656MOL0     H88547   1.547   1.533   3.701 -0.8583  0.7486 -2.3265
  656MOL0     H88548   1.899   1.829   3.505 -0.1952 -1.2756 -1.2169
  656MOL0     H88549   1.977   1.958   3.321 -0.1700  1.6958  1.5578
  656MOL0     H88550   2.019   2.117   3.159  1.9215 -0.8693  0.0395
  656MOL0     H88551   1.999   1.962   3.070 -1.8895 -1.0504 -0.3156
  656MOL0     H88552   1.960   2.101   2.870  0.3028  0.2670  0.4017
  656MOL0     H88553   2.125   2.130   2.933  0.4588  3.6326 -0.5457
  656MOL0     H88554   1.996   2.324   3.077  1.4912 -0.3662  0.1656
  656MOL0     H88555   1.886   2.324   2.937 -0.1195  3.4141  0.5591
  656MOL0     H88556   2.104   2.353   2.785  2.5276 -0.1092 -0.3308
  656MOL0     H88557   2.196   2.361   2.915 -1.1757 -1.7832  0.9042
  656MOL0     H88558   2.034   2.745   2.873 -0.2107 -0.8274 -1.5852
  656MOL0     H88559   1.583   1.982   3.144 -0.9862 -2.5127 -0.2573
  656MOL0     H88560   1.499   1.884   3.352  0.2048  1.6449 -1.2592
  657MOL0     O88561   6.306  10.405   9.889  0.1530 -0.4531  0.4207
  657MOL0     C88562   6.254  10.355   9.990 -0.1385  0.4409 -0.1910
  657MOL0     O88563   6.117  10.336  10.008 -0.0822  0.8814  0.4586
  657MOL0     C88564   6.023  10.333   9.911  1.4767 -0.6870  0.1845
  657MOL0     C88565   5.882  10.334   9.946 -0.1983  1.6961  0.4852
  657MOL0     C88566   5.769  10.343   9.864 -0.2319  0.6226 -0.8658
  657MOL0     C88567   5.792  10.354   9.726  0.2412  0.1124  0.1359
  657MOL0     O88568   5.696  10.381   9.635  0.3283  0.0490  0.2354
  657MOL0     C88569   5.702  10.312   9.510 -0.1905 -0.2401  0.5658
  657MOL0     C88570   5.574  10.316   9.430  0.3174  0.1583 -0.6972
  657MOL0     C88571   5.465  10.246   9.517  0.8233 -0.6737 -0.7182
  657MOL0     C88572   5.316  10.265   9.450 -0.3049 -0.2576 -0.0365
  657MOL0     C88573   5.209  10.229   9.553  0.0597 -0.1519 -0.6262
  657MOL0     C88574   5.075  10.265   9.488 -0.4038  0.1228 -0.1235
  657MOL0     C88575   4.959  10.223   9.580  1.2764 -0.0205  0.3155
  657MOL0     C88576   4.926  10.076   9.595 -0.1222 -0.5081 -0.3213
  657MOL0     N88577   4.873  10.029   9.467 -0.6089  0.0144 -0.3681
  657MOL0     C88578   4.740  10.024   9.437 -0.1020  0.3175 -0.6286
  657MOL0     C88579   4.742   9.985   9.309  0.8454  0.9902 -0.1834
  657MOL0     C88580   4.620   9.949   9.228  0.7142 -0.8315 -0.5526
  657MOL0     C88581   4.530  10.069   9.204  0.1053  0.3291 -0.2464
  657MOL0     C88582   4.574  10.161   9.086 -0.3877 -0.0988  0.4822
  657MOL0     C88583   4.720  10.213   9.122  0.0689 -0.3170  0.5507
  657MOL0     O88584   4.742  10.331   9.051 -0.4836 -0.2313  0.5167
  657MOL0     C88585   4.869  10.387   9.066 -0.1502  0.5834  1.0182
  657MOL0     C88586   4.897  10.507   8.989 -0.6421  0.6159  0.1236
  657MOL0     C88587   5.018  10.587   9.002 -0.0086 -0.0614  0.4303
  657MOL0     C88588   5.029  10.716   8.917  0.5310  0.1363 -0.2075
  657MOL0     C88589   5.126  10.530   9.082 -0.2133  0.5046 -0.4903
  657MOL0     C88590   5.264  10.596   9.090 -0.0097  0.6680 -0.0081
  657MOL0     O88591   5.361  10.510   9.135  0.6911  0.1156 -0.3421
  657MOL0     C88592   5.497  10.543   9.121  0.4343 -0.4334 -0.0892
  657MOL0     C88593   5.585  10.438   9.093  0.2434 -0.2957  1.5229
  657MOL0     C88594   5.717  10.455   9.077  0.4301 -0.3558 -0.0684
  657MOL0     C88595   5.783  10.580   9.088  0.2113  0.8483 -0.2384
  657MOL0     O88596   5.915  10.598   9.079  0.4353 -0.3314  0.7817
  657MOL0     C88597   6.014  10.500   9.089  0.5689 -0.9000 -0.1848
  657MOL0     C88598   6.146  10.573   9.071 -0.2311 -0.0826 -0.3778
  657MOL0     C88599   6.260  10.465   9.083 -0.0554 -0.7450 -0.7647
  657MOL0     C88600   6.394  10.538   9.092 -0.5119  0.4387  0.3807
  657MOL0     C88601   6.508  10.432   9.070 -0.1210  1.0747 -0.5735
  657MOL0     C88602   6.639  10.494   9.058  0.6436  0.0443 -0.2258
  657MOL0     C88603   6.744  10.389   9.066 -0.1742 -0.8733  0.1621
  657MOL0     C88604   6.886  10.449   9.023 -0.3040 -0.4012  0.8833
  657MOL0    Cl88605   6.921  10.457   8.845  0.5213 -0.4104  0.2411
  657MOL0     C88606   5.701  10.693   9.120  0.6103  0.4593 -0.1079
  657MOL0     C88607   5.556  10.677   9.137 -0.7303  0.6902 -0.3216
  657MOL0     O88608   5.280  10.710   9.051  0.4891 -0.2330  0.2883
  657MOL0     C88609   5.100  10.408   9.147 -0.0117 -0.4323 -0.5213
  657MOL0     C88610   4.977  10.338   9.147  0.6197 -0.1997 -0.5775
  657MOL0     N88611   4.870   9.956   9.263 -0.5993  0.6949  0.0557
  657MOL0     N88612   4.951   9.990   9.358  0.0110  0.2331  0.7978
  657MOL0     C88613   5.934  10.343   9.688  1.5663  0.8044  0.4190
  657MOL0     C88614   6.043  10.336   9.770 -0.3631  0.0651 -0.0154
  657MOL0     C88615   6.349  10.353  10.099  0.8016  0.6369  0.4422
  657MOL0     C88616   6.483  10.333  10.066 -0.0583  0.2482  0.0340
  657MOL0     C88617   6.579  10.325  10.164  0.4608 -0.4739 -0.2924
  657MOL0     C88618   6.538  10.334  10.301 -0.9057  0.5538  0.0322
  657MOL0     O88619   6.624  10.330  10.407  0.5649 -0.8173 -0.8027
  657MOL0     C88620   6.767  10.352  10.396  0.2300  0.4506 -0.3933
  657MOL0     C88621   6.837  10.300  10.526 -0.0092 -0.1812 -0.1006
  657MOL0     C88622   6.811  10.388  10.651 -0.6043  0.5600  0.5484
  657MOL0     C88623   6.828  10.303  10.781 -0.6129 -0.1048  0.1370
  657MOL0     C88624   6.953  10.220  10.801  0.2984  0.0707  0.3429
  657MOL0     C88625   7.057  10.163  10.785 -0.5156 -0.1449  0.6908
  657MOL0     C88626   6.402  10.349  10.325 -0.2110 -0.5267 -0.2809
  657MOL0     C88627   6.301  10.359  10.229 -0.3407  0.0113  0.8733
  657MOL0     H88628   5.848  10.316  10.048 -3.2046 -0.2296 -0.7316
  657MOL0     H88629   5.663  10.350   9.886 -0.1712 -0.9678  0.0672
  657MOL0     H88630   5.784  10.367   9.464  1.2781 -0.1974  3.0817
  657MOL0     H88631   5.736  10.208   9.515 -2.2920 -1.2408 -2.7806
  657MOL0     H88632   5.545  10.420   9.412  3.2696  1.3405  0.6562
  657MOL0     H88633   5.592  10.260   9.338  2.0499  1.1493 -1.0102
  657MOL0     H88634   5.494  10.141   9.528 -0.5179 -1.1562 -1.5698
  657MOL0     H88635   5.461  10.302   9.611 -0.8493  0.8471 -1.6488
  657MOL0     H88636   5.314  10.364   9.405 -0.9451  0.4609  1.5291
  657MOL0     H88637   5.309  10.191   9.369  3.2296 -0.0557 -0.6872
  657MOL0     H88638   5.224  10.122   9.568  0.7075 -0.1792 -1.4007
  657MOL0     H88639   5.221  10.288   9.644 -2.8669  3.0129 -2.0716
  657MOL0     H88640   5.079  10.372   9.465  1.8705 -0.4373 -2.9110
  657MOL0     H88641   5.072  10.210   9.393  2.7736  0.6976 -0.6588
  657MOL0     H88642   4.984  10.271   9.675  0.5409  2.0063 -0.4486
  657MOL0     H88643   4.866  10.264   9.539  2.0080  0.4041 -0.9651
  657MOL0     H88644   4.849  10.053   9.669  0.4802 -1.2999  0.0749
  657MOL0     H88645   5.018  10.026   9.625 -0.9870  0.0688  3.8915
  657MOL0     H88646   4.648  10.052   9.489 -1.0344  0.7431 -2.4382
  657MOL0     H88647   4.646   9.910   9.130 -1.8478 -0.0440 -1.6086
  657MOL0     H88648   4.564   9.865   9.269 -2.0417 -0.6054 -3.4975
  657MOL0     H88649   4.524  10.114   9.304  2.3052 -2.0448  1.0840
  657MOL0     H88650   4.433  10.027   9.177  0.8495 -1.8923  0.2688
  657MOL0     H88651   4.505  10.245   9.078 -1.4794 -0.7306  2.4825
  657MOL0     H88652   4.553  10.105   8.995 -0.5127 -0.1493  0.5422
  657MOL0     H88653   4.794  10.135   9.100  1.1828  1.0002 -0.5996
  657MOL0     H88654   4.725  10.239   9.228 -2.5509 -2.6059  1.3486
  657MOL0     H88655   4.816  10.546   8.930 -0.7929 -0.2532 -0.2700
  657MOL0     H88656   4.933  10.729   8.867 -0.9197 -2.4448  1.6428
  657MOL0     H88657   5.034  10.793   8.994 -1.9334 -2.2517  2.6047
  657MOL0     H88658   5.113  10.708   8.847 -0.9111 -0.0462 -1.9749
  657MOL0     H88659   5.543  10.339   9.077 -0.0770 -0.2687  2.1559
  657MOL0     H88660   5.762  10.361   9.045 -1.5621 -0.4950 -2.8374
  657MOL0     H88661   6.000  10.452   9.186  0.4055  0.0158  0.2593
  657MOL0     H88662   6.007  10.434   9.002  2.9051 -0.8724 -0.4761
  657MOL0     H88663   6.145  10.621   8.973 -0.5563 -3.2095 -2.0234
  657MOL0     H88664   6.161  10.649   9.148  0.8735 -0.4676 -0.1982
  657MOL0     H88665   6.253  10.388   9.006  0.2794  0.2482 -1.8135
  657MOL0     H88666   6.244  10.411   9.177 -0.1661 -2.4974 -1.7604
  657MOL0     H88667   6.389  10.614   9.013 -0.2484 -0.2051 -0.2603
  657MOL0     H88668   6.416  10.588   9.187  2.0866  1.5271 -0.7047
  657MOL0     H88669   6.498  10.362   8.986 -0.1175  0.0105  0.2864
  657MOL0     H88670   6.516  10.382   9.167 -0.8747  0.2902 -0.9030
  657MOL0     H88671   6.643  10.553   8.966  1.5124  3.7333  1.9911
  657MOL0     H88672   6.655  10.569   9.136  0.9624  0.3837 -0.6161
  657MOL0     H88673   6.716  10.307   8.998 -2.2362  2.0374 -2.8196
  657MOL0     H88674   6.765  10.353   9.167 -1.2637 -0.6940  0.4621
  657MOL0     H88675   6.959  10.376   9.058  1.2074  0.1519 -0.9691
  657MOL0     H88676   6.903  10.543   9.077 -0.0191 -0.6361  1.2059
  657MOL0     H88677   5.748  10.791   9.129  0.5015  0.5734 -0.7138
  657MOL0     H88678   5.491  10.762   9.158  1.2124  2.3117 -0.5559
  657MOL0     H88679   5.182  10.373   9.209  1.2710  1.6867 -0.9234
  657MOL0     H88680   4.965  10.249   9.207 -1.8428 -1.2169 -2.3823
  657MOL0     H88681   5.941  10.327   9.581 -1.5403  0.8406  0.1302
  657MOL0     H88682   6.140  10.322   9.722 -0.2417  2.6958 -0.7084
  657MOL0     H88683   6.526  10.332   9.966  1.1087  1.5849  0.4956
  657MOL0     H88684   6.681  10.325  10.126 -0.3341 -0.8051 -2.5752
  657MOL0     H88685   6.806  10.307  10.304  0.2822 -0.3085 -0.0087
  657MOL0     H88686   6.773  10.461  10.395 -0.4277  0.5053  0.3359
  657MOL0     H88687   6.943  10.302  10.497  0.3157 -2.7744  0.6813
  657MOL0     H88688   6.807  10.196  10.542 -0.8097  0.1020  0.2797
  657MOL0     H88689   6.712  10.432  10.656 -0.3471  1.0201  1.8163
  657MOL0     H88690   6.881  10.470  10.631  0.7157 -0.3924  1.1426
  657MOL0     H88691   6.739  10.241  10.771 -0.6631 -0.1428  0.7779
  657MOL0     H88692   6.808  10.364  10.870  1.3708  0.9017 -0.0456
  657MOL0     H88693   7.158  10.129  10.777  0.9327  3.0839  2.9328
  657MOL0     H88694   6.375  10.379  10.426 -1.9675  1.4352 -1.2476
  657MOL0     H88695   6.204  10.380  10.271 -0.3257 -0.7951  1.3330
  658MOL0     O88696   5.358   3.926   6.586  0.4461 -0.8969 -0.6732
  658MOL0     C88697   5.408   3.892   6.480 -0.7416  0.1222 -0.3631
  658MOL0     O88698   5.338   3.867   6.365 -0.5505  0.2192 -0.5493
  658MOL0     C88699   5.203   3.842   6.374  0.7417 -0.1950 -1.0242
  658MOL0     C88700   5.158   3.727   6.453 -0.4645  0.2810  0.0384
  658MOL0     C88701   5.028   3.686   6.445  0.1923 -0.6672  0.2770
  658MOL0     C88702   4.937   3.743   6.354  0.3462  0.4372  0.7955
  658MOL0     O88703   4.815   3.686   6.354  0.1713  0.2319  0.8522
  658MOL0     C88704   4.714   3.757   6.285  1.5847 -0.3320  0.6887
  658MOL0     C88705   4.678   3.882   6.356  1.6337 -1.3386 -0.0388
  658MOL0     C88706   4.547   3.948   6.305 -0.7218  0.1659 -0.2870
  658MOL0     C88707   4.585   4.050   6.189 -0.0890 -0.5712  0.3823
  658MOL0     C88708   4.476   4.073   6.080  0.0680  0.7641  0.1134
  658MOL0     C88709   4.352   4.143   6.128 -0.0549 -1.0907 -0.4300
  658MOL0     C88710   4.224   4.123   6.036  0.2609  0.3095  0.3364
  658MOL0     C88711   4.238   4.175   5.893  0.3773 -0.1734  0.7416
  658MOL0     N88712   4.105   4.194   5.827  0.5660 -1.2083 -0.4093
  658MOL0     C88713   4.040   4.103   5.749  0.2418  0.4617 -0.4444
  658MOL0     C88714   3.926   4.172   5.711  0.6374  0.6536 -0.6601
  658MOL0     C88715   3.812   4.119   5.621 -0.0753 -0.0738 -0.7609
  658MOL0     C88716   3.684   4.184   5.657  0.8103 -0.1725 -0.1999
  658MOL0     C88717   3.565   4.177   5.561 -0.5770  0.3183 -0.1732
  658MOL0     C88718   3.464   4.268   5.613  0.0125 -0.3078  0.4087
  658MOL0     O88719   3.340   4.267   5.546  1.3636 -0.0317  1.0102
  658MOL0     C88720   3.223   4.326   5.595 -0.2144  0.4838  0.7300
  658MOL0     C88721   3.111   4.338   5.506 -0.2386  1.0654 -1.5972
  658MOL0     C88722   2.979   4.366   5.552  0.6462 -0.1937  0.4632
  658MOL0     C88723   2.881   4.348   5.438 -0.6313 -0.2768 -0.0952
  658MOL0     C88724   2.953   4.397   5.696 -0.5639  0.1480 -0.2633
  658MOL0     C88725   2.822   4.441   5.747 -0.9425  0.4710 -0.0607
  658MOL0     O88726   2.805   4.439   5.879  0.3771  0.4135  0.2232
  658MOL0     C88727   2.685   4.469   5.926  0.2118 -0.5028 -0.5160
  658MOL0     C88728   2.663   4.597   5.963 -0.2583  0.2947  0.6504
  658MOL0     C88729   2.540   4.641   6.005  0.9484 -0.1362 -1.1370
  658MOL0     C88730   2.434   4.550   5.999  0.5133  0.2845  0.0540
  658MOL0     O88731   2.303   4.597   6.024 -0.4400  0.0283 -0.1858
  658MOL0     C88732   2.194   4.509   6.037  0.5733 -0.5031 -0.5430
  658MOL0     C88733   2.074   4.592   6.051 -0.2063  0.3086  0.2878
  658MOL0     C88734   1.941   4.522   6.080  0.1012 -0.0258  0.1146
  658MOL0     C88735   1.820   4.611   6.113  0.5040 -0.5209 -0.1572
  658MOL0     C88736   1.700   4.514   6.141 -0.2886 -0.3558 -0.0060
  658MOL0     C88737   1.566   4.592   6.172 -0.4271  0.0583  0.2600
  658MOL0     C88738   1.546   4.650   6.314  0.3157  0.8086 -0.1948
  658MOL0     C88739   1.402   4.697   6.342 -0.0870 -0.2148 -0.8152
  658MOL0    Cl88740   1.311   4.577   6.437  0.9446 -0.0678 -0.2362
  658MOL0     C88741   2.450   4.413   5.962 -0.2485  0.3834  0.2413
  658MOL0     C88742   2.583   4.372   5.929 -0.5195  0.0643  1.0238
  658MOL0     O88743   2.742   4.488   5.665  0.7474 -0.7507  0.4163
  658MOL0     C88744   3.067   4.396   5.779  0.0465 -0.9781 -0.5940
  658MOL0     C88745   3.195   4.351   5.728 -0.1140 -0.9720 -0.2419
  658MOL0     N88746   3.931   4.299   5.758  0.3890 -0.7059 -1.1692
  658MOL0     N88747   4.039   4.319   5.828  0.5420  0.5746  0.3048
  658MOL0     C88748   4.980   3.844   6.274 -0.7360 -0.1232 -0.2131
  658MOL0     C88749   5.117   3.894   6.282  0.7305 -0.0512 -0.6548
  658MOL0     C88750   5.551   3.927   6.453 -0.1492 -0.2567  0.3396
  658MOL0     C88751   5.621   3.887   6.341 -0.6209  0.5970  0.2925
  658MOL0     C88752   5.751   3.926   6.309  0.8059  1.3945 -0.6694
  658MOL0     C88753   5.817   3.986   6.410  0.0936  0.6492  0.1098
  658MOL0     O88754   5.956   4.002   6.395 -0.6383 -0.8947 -0.6015
  658MOL0     C88755   6.024   4.065   6.505  0.2074 -0.5023 -0.9630
  658MOL0     C88756   6.171   4.058   6.470 -1.1491  1.0510  0.2626
  658MOL0     C88757   6.230   4.157   6.360 -0.4896  0.2879 -0.5936
  658MOL0     C88758   6.384   4.144   6.356 -0.7071 -0.6173  0.1322
  658MOL0     C88759   6.453   4.169   6.482  0.5887 -0.5830 -0.3972
  658MOL0     C88760   6.518   4.197   6.580  0.7182  0.8871  0.2225
  658MOL0     C88761   5.754   4.041   6.521 -1.0204  0.5592 -0.2943
  658MOL0     C88762   5.617   4.010   6.541 -1.0357 -0.2183 -0.4167
  658MOL0     H88763   5.229   3.683   6.522 -0.5497  0.2992  0.1374
  658MOL0     H88764   4.990   3.618   6.521 -2.5459 -0.5076 -0.8184
  658MOL0     H88765   4.746   3.778   6.182  0.4134  0.0437  0.3753
  658MOL0     H88766   4.634   3.684   6.266 -0.9620  3.0656 -3.4819
  658MOL0     H88767   4.661   3.843   6.457 -0.1332  1.6449  0.9340
  658MOL0     H88768   4.763   3.949   6.344 -0.9053  2.1651 -0.0851
  658MOL0     H88769   4.475   3.875   6.267 -1.2383  0.4721  0.0897
  658MOL0     H88770   4.493   3.988   6.392  0.2842 -1.3152  1.0665
  658MOL0     H88771   4.602   4.149   6.231 -0.3000  0.2540 -1.3712
  658MOL0     H88772   4.676   4.017   6.138  1.6983 -0.2991  3.1759
  658MOL0     H88773   4.528   4.137   6.008  0.1974  0.0151 -0.4712
  658MOL0     H88774   4.456   3.974   6.038  0.3516  0.4539  0.7030
  658MOL0     H88775   4.325   4.118   6.231  0.7330  1.8430  0.6042
  658MOL0     H88776   4.367   4.246   6.162 -3.3093 -1.1201  1.5725
  658MOL0     H88777   4.212   4.014   6.031  0.8452  0.2455  0.2910
  658MOL0     H88778   4.131   4.165   6.075 -1.3813 -1.5951 -1.2983
  658MOL0     H88779   4.291   4.105   5.826 -1.7181 -1.0355 -0.1033
  658MOL0     H88780   4.291   4.270   5.902  0.2033 -0.0331  0.3118
  658MOL0     H88781   4.069   4.001   5.726  0.8766  0.4071  0.5708
  658MOL0     H88782   3.841   4.137   5.517 -0.8811  1.9987 -0.6705
  658MOL0     H88783   3.806   4.011   5.637  2.4190  0.1453  2.8988
  658MOL0     H88784   3.699   4.292   5.660 -1.3612  0.4260 -4.1819
  658MOL0     H88785   3.652   4.135   5.750 -0.6279  0.0687 -0.5385
  658MOL0     H88786   3.534   4.073   5.556  0.4922 -0.0990  1.2301
  658MOL0     H88787   3.584   4.218   5.462 -1.6703  1.7925  0.1798
  658MOL0     H88788   3.506   4.369   5.613  2.4354 -1.1789 -2.4652
  658MOL0     H88789   3.443   4.239   5.717 -0.0718  1.8896  1.0582
  658MOL0     H88790   3.127   4.307   5.403 -1.2249 -1.0456 -1.1615
  658MOL0     H88791   2.915   4.308   5.342 -0.3408  1.0919 -0.5914
  658MOL0     H88792   2.807   4.275   5.472  0.8080 -0.8928  1.9048
  658MOL0     H88793   2.823   4.439   5.419 -0.2314  0.2107  0.9022
  658MOL0     H88794   2.741   4.672   5.951  1.3192 -0.9824  2.4291
  658MOL0     H88795   2.517   4.743   6.033  2.5639 -0.1469  0.3897
  658MOL0     H88796   2.173   4.448   5.949 -0.4407 -0.0477 -0.6365
  658MOL0     H88797   2.208   4.441   6.121  1.4019 -1.3393 -1.3368
  658MOL0     H88798   2.097   4.661   6.132  2.2051 -0.8706  0.6801
  658MOL0     H88799   2.062   4.642   5.954  0.6914  2.3573  1.1654
  658MOL0     H88800   1.976   4.458   6.161  3.0444  1.6599  0.3164
  658MOL0     H88801   1.912   4.450   6.004 -2.7397  0.2845  0.7670
  658MOL0     H88802   1.840   4.665   6.207  0.3116 -0.6415 -0.0458
  658MOL0     H88803   1.803   4.681   6.031  1.5790 -0.2416 -0.1573
  658MOL0     H88804   1.728   4.458   6.230  2.2578 -0.7239 -0.9457
  658MOL0     H88805   1.693   4.443   6.058  0.8261 -2.8097  1.8992
  658MOL0     H88806   1.550   4.674   6.101  0.2999  0.5704  0.6725
  658MOL0     H88807   1.484   4.525   6.143 -0.0389  0.9884 -3.5970
  658MOL0     H88808   1.624   4.726   6.333  2.1578 -0.5889 -1.7310
  658MOL0     H88809   1.577   4.567   6.377 -0.6473  0.4543 -0.1790
  658MOL0     H88810   1.347   4.727   6.253  1.4279  0.6487 -1.4952
  658MOL0     H88811   1.404   4.790   6.400  1.7096 -1.0634  0.5803
  658MOL0     H88812   2.371   4.340   5.964  0.6177 -0.6017 -0.4322
  658MOL0     H88813   2.625   4.272   5.921  2.9749  1.3389  1.4434
  658MOL0     H88814   3.043   4.433   5.878 -1.6833 -0.1608 -1.2840
  658MOL0     H88815   3.270   4.329   5.803 -1.0719  0.8691  1.3278
  658MOL0     H88816   4.921   3.887   6.194 -0.2593 -1.3559 -1.2493
  658MOL0     H88817   5.151   3.971   6.213 -0.3953  1.7089  0.6495
  658MOL0     H88818   5.568   3.818   6.276 -1.0511  1.3389 -0.1471
  658MOL0     H88819   5.799   3.905   6.213 -1.3763 -0.6456 -1.3975
  658MOL0     H88820   5.996   4.171   6.503 -0.6205 -0.6770  0.1911
  658MOL0     H88821   6.003   4.017   6.601  1.4409 -1.5266 -1.1776
  658MOL0     H88822   6.199   3.955   6.447 -1.4348  1.0703 -0.1850
  658MOL0     H88823   6.218   4.078   6.567 -0.7542  2.0192 -0.1204
  658MOL0     H88824   6.210   4.263   6.381  2.0866  0.5145  1.1365
  658MOL0     H88825   6.191   4.120   6.265  0.1838 -0.6412 -0.5117
  658MOL0     H88826   6.424   4.213   6.282  0.8891 -2.2973 -0.6317
  658MOL0     H88827   6.425   4.054   6.309  3.0193  0.3164  1.2732
  658MOL0     H88828   6.571   4.229   6.667  1.0627 -2.7288  1.4967
  658MOL0     H88829   5.802   4.094   6.603 -3.3393  0.4579  1.2353
  658MOL0     H88830   5.576   4.060   6.629  4.1320 -0.1284  2.3422
  659MOL0     O88831   1.810   8.989   9.262 -0.0545 -0.3464  0.0497
  659MOL0     C88832   1.847   8.876   9.238  1.2022  0.1499 -0.0848
  659MOL0     O88833   1.782   8.758   9.281 -0.7127 -0.5637 -0.1671
  659MOL0     C88834   1.649   8.759   9.324  0.2520 -0.1629  0.1328
  659MOL0     C88835   1.615   8.667   9.428 -0.8813  0.8873  1.2765
  659MOL0     C88836   1.486   8.650   9.478 -0.3329  0.2026  0.0433
  659MOL0     C88837   1.391   8.752   9.447  0.0223  0.5583  0.7209
  659MOL0     O88838   1.270   8.755   9.502 -0.0569 -0.2485 -0.2410
  659MOL0     C88839   1.192   8.642   9.457 -0.4978  0.4738 -0.1639
  659MOL0     C88840   1.049   8.669   9.486 -0.2047 -0.0024 -0.4077
  659MOL0     C88841   1.017   8.664   9.642  0.2901 -0.6516  0.0180
  659MOL0     C88842   0.865   8.679   9.665 -0.0862 -0.3216  0.5650
  659MOL0     C88843   0.841   8.699   9.816 -0.4283 -0.2258  0.6265
  659MOL0     C88844   0.710   8.612   9.860 -0.3909 -0.7314  0.2863
  659MOL0     C88845   0.687   8.616  10.008  0.4900  0.1720 -0.7324
  659MOL0     C88846   0.541   8.596  10.048 -0.6337 -0.4901 -1.0847
  659MOL0     N88847   0.523   8.604  10.202 -0.1981 -0.6806  0.0500
  659MOL0     C88848   0.460   8.507  10.281 -1.5164  0.6547 -0.4876
  659MOL0     C88849   0.452   8.565  10.402  0.4701  1.0628  0.8057
  659MOL0     C88850   0.389   8.493  10.520 -0.1080 -0.7807  0.1234
  659MOL0     C88851   0.267   8.418  10.471 -0.6798 -1.0098 -0.1304
  659MOL0     C88852   0.165   8.387  10.591  0.0271 -0.1771 -0.1947
  659MOL0     C88853   0.061   8.286  10.552 -0.2997  0.2119  0.9192
  659MOL0     O88854  -0.029   8.340  10.449  0.6192 -0.1352  0.0299
  659MOL0     C88855  -0.144   8.388  10.502  0.8258  0.2077  0.7672
  659MOL0     C88856  -0.183   8.515  10.463 -0.6033  1.1361 -0.6678
  659MOL0     C88857  -0.299   8.565  10.510  0.6572 -0.0567 -0.1365
  659MOL0     C88858  -0.331   8.702  10.453  0.1015  0.0693  0.5590
  659MOL0     C88859  -0.388   8.487  10.593  0.3478  0.5224 -0.5134
  659MOL0     C88860  -0.512   8.531  10.655  0.0078  0.9851 -0.1740
  659MOL0     O88861  -0.559   8.654  10.623 -0.1945  0.2530 -0.0954
  659MOL0     C88862  -0.695   8.689  10.646 -0.4835 -0.1951  0.3253
  659MOL0     C88863  -0.801   8.613  10.712  0.1586  0.1052 -0.8938
  659MOL0     C88864  -0.927   8.668  10.728 -0.1600 -1.0515  0.6801
  659MOL0     C88865  -0.957   8.799  10.684 -0.0651 -0.5789  0.7287
  659MOL0     O88866  -1.080   8.850  10.699 -0.3706  0.4257 -0.1123
  659MOL0     C88867  -1.105   8.988  10.732  0.3294 -0.1039 -0.3029
  659MOL0     C88868  -1.239   8.993  10.805  1.1705  0.3403 -0.6447
  659MOL0     C88869  -1.320   9.123  10.805 -0.2657  0.2911 -0.4349
  659MOL0     C88870  -1.454   9.121  10.878 -0.5274  1.4219 -0.3566
  659MOL0     C88871  -1.518   9.256  10.885  0.1788  0.4059 -0.0964
  659MOL0     C88872  -1.666   9.253  10.945  0.5806 -0.4980 -0.3989
  659MOL0     C88873  -1.710   9.406  10.962 -0.4234 -0.1003  0.5910
  659MOL0     C88874  -1.844   9.421  11.032  0.5442 -0.8657  0.0747
  659MOL0    Cl88875  -1.819   9.376  11.212  0.6482 -0.0032 -0.1936
  659MOL0     C88876  -0.851   8.871  10.630 -0.1622 -0.3477  0.2658
  659MOL0     C88877  -0.733   8.817  10.606  0.5080 -0.2372 -0.7657
  659MOL0     O88878  -0.572   8.448  10.726  0.7418 -0.2981 -0.4157
  659MOL0     C88879  -0.338   8.363  10.638 -0.9378  0.2538 -0.7252
  659MOL0     C88880  -0.222   8.310  10.586 -0.4215  0.2185  0.1585
  659MOL0     N88881   0.481   8.695  10.387 -0.2214  0.3046  0.4174
  659MOL0     N88882   0.524   8.723  10.267 -0.9008 -0.4521 -0.2101
  659MOL0     C88883   1.424   8.854   9.354 -0.0331  0.3486 -0.5410
  659MOL0     C88884   1.547   8.857   9.288 -0.2374  0.6798 -0.2440
  659MOL0     C88885   1.967   8.877   9.135  0.3316  1.3141 -0.2798
  659MOL0     C88886   2.039   8.989   9.093 -0.0556 -0.1884  0.5169
  659MOL0     C88887   2.145   8.968   9.006 -0.7179  0.2242  0.0676
  659MOL0     C88888   2.194   8.844   8.972 -0.3181  0.0018  0.9183
  659MOL0     O88889   2.317   8.823   8.907  0.2173  0.9314  0.2300
  659MOL0     C88890   2.428   8.891   8.957 -0.3512  0.5726  0.2607
  659MOL0     C88891   2.499   8.785   9.041  0.2980 -0.0563  0.3175
  659MOL0     C88892   2.585   8.828   9.149  1.0889 -0.3940  0.3576
  659MOL0     C88893   2.510   8.900   9.256  0.6199 -0.0180 -0.1669
  659MOL0     C88894   2.603   8.923   9.368  0.7942 -0.5808  0.0447
  659MOL0     C88895   2.677   8.929   9.467  0.0355  0.0319 -0.2805
  659MOL0     C88896   2.133   8.739   9.024  0.6811 -0.1968 -0.5875
  659MOL0     C88897   2.013   8.748   9.099 -0.1112  0.0560 -0.5077
  659MOL0     H88898   1.687   8.589   9.450  0.7982  0.9718 -2.9471
  659MOL0     H88899   1.457   8.561   9.534  1.3475 -0.7673 -0.5506
  659MOL0     H88900   1.208   8.636   9.349  1.4343  2.1180 -0.0334
  659MOL0     H88901   1.233   8.554   9.509  1.2143  0.2630 -1.7588
  659MOL0     H88902   1.030   8.769   9.446  1.0813  0.2745 -0.3567
  659MOL0     H88903   0.983   8.590   9.449 -2.0805  1.5540 -0.5658
  659MOL0     H88904   1.059   8.571   9.681  0.4759  0.3121  2.2672
  659MOL0     H88905   1.062   8.751   9.691 -0.1638 -0.1308 -0.4792
  659MOL0     H88906   0.829   8.766   9.609  0.2401 -1.2304 -1.1355
  659MOL0     H88907   0.816   8.587   9.633 -0.2604  0.8705 -2.9999
  659MOL0     H88908   0.927   8.663   9.873 -1.3018 -0.5996  1.7466
  659MOL0     H88909   0.828   8.805   9.839 -1.5829  0.6663 -3.2851
  659MOL0     H88910   0.624   8.653   9.808  0.2446 -0.2279 -0.3901
  659MOL0     H88911   0.727   8.511   9.821  0.7069  0.4459 -2.5137
  659MOL0     H88912   0.752   8.547  10.063 -0.7960 -0.3928  0.1251
  659MOL0     H88913   0.702   8.717  10.046 -1.2746 -0.5899  2.3137
  659MOL0     H88914   0.506   8.496  10.018 -1.9157  0.2569 -2.1986
  659MOL0     H88915   0.482   8.676  10.002  1.6189  2.1430  0.3465
  659MOL0     H88916   0.437   8.402  10.267  1.7085 -0.2696  0.1973
  659MOL0     H88917   0.454   8.415  10.560  0.7610  0.2963  0.8754
  659MOL0     H88918   0.359   8.560  10.602 -1.5220 -0.0722 -0.9243
  659MOL0     H88919   0.299   8.321  10.434 -0.1390 -1.8495  2.3567
  659MOL0     H88920   0.210   8.471  10.393  0.0058  0.8483  0.5840
  659MOL0     H88921   0.114   8.476  10.630 -1.2320 -1.1230  0.4219
  659MOL0     H88922   0.225   8.331  10.664  2.0888  0.6401 -1.1902
  659MOL0     H88923   0.004   8.238  10.632  1.3268  0.2906  2.1954
  659MOL0     H88924   0.117   8.203  10.507 -2.4850 -1.0808  0.4666
  659MOL0     H88925  -0.116   8.573  10.401 -0.1722  3.2875  1.6589
  659MOL0     H88926  -0.379   8.768  10.526  1.1562  1.2734  0.1859
  659MOL0     H88927  -0.240   8.745  10.411  0.8712  0.3061  2.3854
  659MOL0     H88928  -0.397   8.689  10.366 -0.9269  1.7325  1.0510
  659MOL0     H88929  -0.806   8.512  10.751 -1.0265  0.0787 -1.0714
  659MOL0     H88930  -1.011   8.611  10.767 -1.5430  0.3349 -0.1730
  659MOL0     H88931  -1.030   9.040  10.792 -0.3113 -1.0569  1.3892
  659MOL0     H88932  -1.114   9.045  10.639 -0.5737 -0.5655 -0.5096
  659MOL0     H88933  -1.306   8.925  10.751  1.7800 -1.1919  0.4449
  659MOL0     H88934  -1.225   8.957  10.907 -2.2357  0.7660  0.0943
  659MOL0     H88935  -1.350   9.153  10.705  1.9804  0.7290 -1.0409
  659MOL0     H88936  -1.257   9.201  10.850  0.0163 -0.6784  0.9345
  659MOL0     H88937  -1.515   9.045  10.827  4.1371 -1.1359 -2.7325
  659MOL0     H88938  -1.450   9.099  10.986 -2.1744  3.5565  0.2118
  659MOL0     H88939  -1.518   9.288  10.780 -0.1615  1.8621  0.3193
  659MOL0     H88940  -1.462   9.338  10.932  1.7353 -0.0056 -1.1587
  659MOL0     H88941  -1.735   9.197  10.882  0.7325 -0.5281 -0.5403
  659MOL0     H88942  -1.671   9.209  11.045 -1.3977  0.1074 -0.1969
  659MOL0     H88943  -1.722   9.439  10.858  0.9074 -1.0244  0.1099
  659MOL0     H88944  -1.640   9.475  11.012 -2.1701  1.9942  0.3042
  659MOL0     H88945  -1.932   9.368  10.996 -3.0774  4.1950  0.4598
  659MOL0     H88946  -1.883   9.523  11.038  0.6385 -0.9082  1.7833
  659MOL0     H88947  -0.859   8.976  10.606 -0.9024 -0.4713 -0.0680
  659MOL0     H88948  -0.669   8.887  10.552  0.3176  0.4551 -0.1066
  659MOL0     H88949  -0.389   8.317  10.722  1.6303 -0.0454  0.7543
  659MOL0     H88950  -0.200   8.204  10.592  0.0938 -0.0872 -3.9836
  659MOL0     H88951   1.341   8.921   9.336 -1.6335 -2.0595 -2.8672
  659MOL0     H88952   1.572   8.938   9.220 -1.8214  3.1991  1.9419
  659MOL0     H88953   2.006   9.091   9.114  0.1239 -0.0499  0.1501
  659MOL0     H88954   2.203   9.057   8.984 -0.8445  0.6959  1.5339
  659MOL0     H88955   2.489   8.926   8.873  1.0698 -0.5425  0.7776
  659MOL0     H88956   2.410   8.975   9.025 -0.9868 -2.3372  4.0021
  659MOL0     H88957   2.550   8.720   8.969 -1.1854 -1.2359  0.2806
  659MOL0     H88958   2.420   8.723   9.084  0.3315 -0.9631 -0.8544
  659MOL0     H88959   2.667   8.891   9.111  0.3111  0.5903  0.2772
  659MOL0     H88960   2.624   8.743   9.205  1.1133 -1.2514 -0.9273
  659MOL0     H88961   2.429   8.837   9.296 -0.4695  0.2220 -1.8853
  659MOL0     H88962   2.461   8.989   9.216 -0.9896 -0.2493  1.1856
  659MOL0     H88963   2.743   8.926   9.552  1.9792 -1.7606 -1.7328
  659MOL0     H88964   2.176   8.643   8.997 -0.2841 -1.0191  0.6619
  659MOL0     H88965   1.963   8.654   9.122 -0.4565 -0.1939 -2.1839
  660MOL0     O88966   1.906   7.125   1.810 -0.0352  0.3285  0.2618
  660MOL0     C88967   1.993   7.145   1.725  0.0444  0.7187  0.0159
  660MOL0     O88968   2.020   7.067   1.614  0.0553 -0.0997  0.3774
  660MOL0     C88969   1.930   6.972   1.581  0.2129  0.0363 -0.0605
  660MOL0     C88970   1.794   7.007   1.543 -0.1955  0.6030 -0.0021
  660MOL0     C88971   1.700   6.908   1.533 -0.3925 -0.5726  0.0694
  660MOL0     C88972   1.735   6.774   1.550 -0.0657  0.7701 -0.4981
  660MOL0     O88973   1.626   6.692   1.530 -0.5515  0.2731 -0.4535
  660MOL0     C88974   1.626   6.563   1.595 -0.2851 -1.6016 -0.5019
  660MOL0     C88975   1.508   6.480   1.556  0.4739  0.0726 -0.7248
  660MOL0     C88976   1.533   6.332   1.573 -0.3252 -0.0275 -0.9902
  660MOL0     C88977   1.448   6.253   1.477 -0.3371 -0.7526  0.3054
  660MOL0     C88978   1.453   6.107   1.512 -0.5962  0.3026 -0.1747
  660MOL0     C88979   1.395   6.021   1.403  0.6391 -0.3331  0.5510
  660MOL0     C88980   1.483   6.028   1.260  0.4852 -0.3008 -1.1410
  660MOL0     C88981   1.617   5.943   1.270 -0.7327 -0.4561 -0.2088
  660MOL0     N88982   1.598   5.795   1.284 -1.0506 -0.0981 -0.5464
  660MOL0     C88983   1.598   5.736   1.405 -0.3231  0.0706  0.9860
  660MOL0     C88984   1.568   5.606   1.370 -0.2135  0.0475 -0.7433
  660MOL0     C88985   1.538   5.488   1.464 -0.6382 -1.2058  0.1516
  660MOL0     C88986   1.663   5.438   1.520 -0.2289  1.4906 -0.4544
  660MOL0     C88987   1.668   5.293   1.579 -0.5675 -0.0493 -0.7668
  660MOL0     C88988   1.548   5.257   1.662 -0.2412 -0.5876 -0.0643
  660MOL0     O88989   1.428   5.232   1.587 -0.0044  1.0170 -0.0980
  660MOL0     C88990   1.324   5.211   1.669 -0.0493  0.3599 -0.5683
  660MOL0     C88991   1.275   5.301   1.762  0.5987 -0.0152  0.5310
  660MOL0     C88992   1.172   5.274   1.852 -0.1659 -0.2569 -0.1580
  660MOL0     C88993   1.136   5.388   1.942 -0.2129 -0.2121  0.2183
  660MOL0     C88994   1.118   5.138   1.860  0.2598 -0.6840 -0.6837
  660MOL0     C88995   1.022   5.090   1.963 -0.2129  0.5610 -1.2262
  660MOL0     O88996   0.951   4.978   1.947  0.5346 -0.6744  0.3533
  660MOL0     C88997   0.871   4.923   2.049 -0.2205 -0.3313 -0.7339
  660MOL0     C88998   0.741   4.955   2.080 -1.3910 -0.7400  0.2830
  660MOL0     C88999   0.676   4.899   2.181  0.7929  0.4825 -0.4584
  660MOL0     C89000   0.737   4.811   2.275  0.2291 -0.0215 -0.3030
  660MOL0     O89001   0.678   4.741   2.378 -0.2622  0.2063  0.3189
  660MOL0     C89002   0.537   4.767   2.404  1.1542 -0.4164  0.5018
  660MOL0     C89003   0.475   4.662   2.506 -0.7895  0.3855 -0.2610
  660MOL0     C89004   0.524   4.686   2.650 -0.2729 -0.0961 -0.1608
  660MOL0     C89005   0.492   4.826   2.716  0.3417 -0.6110  0.3264
  660MOL0     C89006   0.340   4.865   2.699  0.0345  0.4980 -0.3998
  660MOL0     C89007   0.254   4.773   2.790  0.0762 -0.2168  0.6853
  660MOL0     C89008   0.113   4.822   2.811  0.5071  0.1240  0.3719
  660MOL0     C89009   0.012   4.704   2.792 -0.8270 -0.1994 -0.1826
  660MOL0    Cl89010   0.063   4.544   2.869  0.1524  0.1876  0.0877
  660MOL0     C89011   0.868   4.773   2.244 -0.5453 -0.2488  0.1530
  660MOL0     C89012   0.930   4.827   2.132 -0.7052 -0.3833 -0.1362
  660MOL0     O89013   1.016   5.160   2.065  0.1308  0.2888 -0.0012
  660MOL0     C89014   1.163   5.042   1.759 -0.2143 -0.9972  0.5358
  660MOL0     C89015   1.259   5.088   1.666 -0.5466  0.2598  0.1297
  660MOL0     N89016   1.556   5.596   1.235 -0.0559 -0.5801  0.4762
  660MOL0     N89017   1.563   5.716   1.187 -0.6373  0.2462  0.5509
  660MOL0     C89018   1.865   6.738   1.583  0.1395  0.3473 -0.5397
  660MOL0     C89019   1.962   6.841   1.601 -0.2873  0.9071  0.2767
  660MOL0     C89020   2.077   7.270   1.745 -0.2071 -0.0505  0.0367
  660MOL0     C89021   2.185   7.285   1.654 -0.0616  0.5171 -0.5201
  660MOL0     C89022   2.266   7.392   1.668  0.8672 -0.7896 -0.4850
  660MOL0     C89023   2.234   7.493   1.759 -0.7385  0.8769  0.0256
  660MOL0     O89024   2.311   7.610   1.769  0.7101  0.3129  0.1710
  660MOL0     C89025   2.455   7.579   1.764  0.0279 -0.0344 -0.2800
  660MOL0     C89026   2.499   7.481   1.865  0.2744  0.4070 -0.3355
  660MOL0     C89027   2.449   7.527   2.008  0.4697  0.2894  0.5515
  660MOL0     C89028   2.487   7.412   2.106  0.6828  0.6312 -0.1479
  660MOL0     C89029   2.417   7.287   2.090  0.6924  0.2467 -0.3881
  660MOL0     C89030   2.338   7.195   2.078  0.1666  0.4426 -0.1034
  660MOL0     C89031   2.132   7.475   1.846  0.2629  0.4987 -0.0288
  660MOL0     C89032   2.053   7.364   1.846  0.2466 -0.3518  0.3688
  660MOL0     H89033   1.771   7.107   1.506 -0.2017  0.4383 -0.4464
  660MOL0     H89034   1.600   6.933   1.500  0.1803  0.1553 -1.1691
  660MOL0     H89035   1.713   6.503   1.565 -0.2036 -2.6542  1.6442
  660MOL0     H89036   1.624   6.580   1.703 -1.0555 -1.1208 -0.5843
  660MOL0     H89037   1.425   6.518   1.617  1.0371  0.2512 -0.0651
  660MOL0     H89038   1.487   6.500   1.451 -0.6344  0.0671 -0.5188
  660MOL0     H89039   1.639   6.311   1.555  0.0720 -0.8268  1.7381
  660MOL0     H89040   1.520   6.299   1.677 -1.3426  0.7637 -0.8545
  660MOL0     H89041   1.345   6.287   1.462  0.4175  0.5494 -2.8001
  660MOL0     H89042   1.484   6.271   1.375 -1.0316 -1.9707 -0.1732
  660MOL0     H89043   1.559   6.084   1.526 -1.3148 -1.7603  3.0125
  660MOL0     H89044   1.401   6.085   1.606 -1.5069 -2.5052 -1.2399
  660MOL0     H89045   1.384   5.915   1.431 -0.3289 -0.0022  1.4812
  660MOL0     H89046   1.297   6.066   1.389 -0.1479 -1.0795  3.0469
  660MOL0     H89047   1.426   5.998   1.171  0.8561  0.9833 -1.8323
  660MOL0     H89048   1.513   6.130   1.234 -0.7556  0.2507 -0.4917
  660MOL0     H89049   1.667   5.988   1.356 -1.4468 -0.0658  0.0037
  660MOL0     H89050   1.675   5.941   1.177 -1.2092  0.6762 -0.5460
  660MOL0     H89051   1.621   5.785   1.499  1.8081  1.1337 -0.0278
  660MOL0     H89052   1.463   5.522   1.535  0.4585  0.2545  0.6446
  660MOL0     H89053   1.500   5.399   1.412 -2.4602 -1.6584  2.1032
  660MOL0     H89054   1.711   5.511   1.587  1.2586 -0.3120  0.5523
  660MOL0     H89055   1.728   5.435   1.432 -1.2955  2.8858 -1.3254
  660MOL0     H89056   1.751   5.279   1.648 -1.9539 -0.7753  0.8247
  660MOL0     H89057   1.684   5.216   1.503  2.1778 -0.2512 -0.0850
  660MOL0     H89058   1.538   5.337   1.736  0.4290 -3.3343  3.3215
  660MOL0     H89059   1.576   5.169   1.721  0.1067 -1.6538 -1.7486
  660MOL0     H89060   1.327   5.397   1.761 -1.3150  1.0766 -0.5641
  660MOL0     H89061   1.201   5.390   2.029 -0.1290 -0.8224  0.1712
  660MOL0     H89062   1.159   5.486   1.899  3.5522 -0.4214  1.4261
  660MOL0     H89063   1.031   5.383   1.973  0.0960 -2.6607  1.0478
  660MOL0     H89064   0.698   5.032   2.016  1.8298 -1.1636 -2.6406
  660MOL0     H89065   0.570   4.915   2.194  0.4065 -0.1735 -2.4128
  660MOL0     H89066   0.529   4.864   2.453 -1.9191 -0.4840  0.2932
  660MOL0     H89067   0.472   4.765   2.316 -1.0822  1.6607  1.9925
  660MOL0     H89068   0.366   4.674   2.509 -0.5425  2.8186  0.3134
  660MOL0     H89069   0.497   4.563   2.465 -2.1190  0.6733 -1.7838
  660MOL0     H89070   0.632   4.669   2.648 -0.6608 -3.0886 -1.2403
  660MOL0     H89071   0.482   4.603   2.708 -1.3355  0.5575  0.0465
  660MOL0     H89072   0.522   4.834   2.821  1.4260  1.8478 -0.1093
  660MOL0     H89073   0.554   4.901   2.666  3.1125 -3.0622 -0.2468
  660MOL0     H89074   0.300   4.854   2.599 -0.2901  0.3941 -0.2594
  660MOL0     H89075   0.341   4.973   2.717  2.2850  0.7034 -1.3270
  660MOL0     H89076   0.249   4.674   2.744 -1.4024 -0.0214  0.3836
  660MOL0     H89077   0.304   4.760   2.886  1.1107  0.1348  0.2092
  660MOL0     H89078   0.078   4.891   2.734  1.6197  0.5555  0.2384
  660MOL0     H89079   0.115   4.869   2.910  0.0583  0.6345  0.1406
  660MOL0     H89080   0.005   4.694   2.683  0.4916 -0.9746 -0.2100
  660MOL0     H89081  -0.086   4.729   2.834 -0.2431  1.2043  0.3851
  660MOL0     H89082   0.938   4.718   2.306 -0.2159 -1.6643 -1.4139
  660MOL0     H89083   1.035   4.801   2.119 -0.2805  0.2935  1.5362
  660MOL0     H89084   1.150   4.934   1.765  1.2611 -1.3285 -1.3107
  660MOL0     H89085   1.307   5.010   1.607  0.5263  0.7917  0.2780
  660MOL0     H89086   1.895   6.635   1.571  0.1157  0.4216 -1.2440
  660MOL0     H89087   2.064   6.816   1.630  0.3128  1.3933 -1.3308
  660MOL0     H89088   2.217   7.217   1.575  1.0681  1.9385 -1.3552
  660MOL0     H89089   2.348   7.398   1.598  1.3801 -1.0599  0.0862
  660MOL0     H89090   2.486   7.557   1.662 -0.5587 -0.2161 -0.4229
  660MOL0     H89091   2.496   7.674   1.802  3.3606 -1.2535 -0.5028
  660MOL0     H89092   2.608   7.483   1.864  0.2953  1.9600  1.0507
  660MOL0     H89093   2.457   7.383   1.840 -0.6186  0.0181  2.3162
  660MOL0     H89094   2.340   7.539   2.006  0.0912 -2.3460 -2.4048
  660MOL0     H89095   2.496   7.624   2.027  1.5509  0.4733 -2.4992
  660MOL0     H89096   2.471   7.451   2.207 -1.7733  0.3015 -0.3434
  660MOL0     H89097   2.590   7.375   2.097  1.1795  1.5648  1.3630
  660MOL0     H89098   2.275   7.115   2.045  3.4141 -3.2829  1.8597
  660MOL0     H89099   2.119   7.563   1.908  0.2362  1.7389 -1.7111
  660MOL0     H89100   1.989   7.341   1.931  2.4789 -1.6030  1.8271
  661MOL0     O89101   3.592   3.809   7.113  0.4489 -0.3272 -0.4049
  661MOL0     C89102   3.647   3.766   7.216 -0.6748 -0.5756 -0.6600
  661MOL0     O89103   3.604   3.776   7.342  0.1143 -0.5061  0.2811
  661MOL0     C89104   3.474   3.828   7.355 -0.0642  0.6277 -0.6155
  661MOL0     C89105   3.369   3.755   7.297  0.3119 -0.3833 -0.1152
  661MOL0     C89106   3.241   3.794   7.322  0.7478 -0.0942  0.2292
  661MOL0     C89107   3.205   3.906   7.409 -1.4165  0.7533 -0.0378
  661MOL0     O89108   3.079   3.922   7.435  0.1347  0.0794  0.6752
  661MOL0     C89109   3.023   4.056   7.463 -0.6738 -0.3634  0.2733
  661MOL0     C89110   2.990   4.112   7.333 -1.1989  0.0148 -0.1777
  661MOL0     C89111   2.854   4.060   7.292 -0.4641 -0.0532  0.3365
  661MOL0     C89112   2.750   4.160   7.353 -0.0869 -0.4006 -0.1769
  661MOL0     C89113   2.608   4.114   7.318  0.5470  0.2478 -0.4008
  661MOL0     C89114   2.485   4.194   7.375 -0.4257 -0.5515  0.0302
  661MOL0     C89115   2.490   4.335   7.327 -0.1589  0.4773 -0.3013
  661MOL0     C89116   2.361   4.410   7.388 -0.4944 -0.5716  0.3026
  661MOL0     N89117   2.230   4.369   7.333  0.1186 -0.0739  0.2654
  661MOL0     C89118   2.211   4.343   7.200  0.5383  0.2329  0.2770
  661MOL0     C89119   2.075   4.324   7.186 -0.6564 -0.9983  0.0610
  661MOL0     C89120   1.986   4.275   7.073  0.4266 -0.1512 -0.0322
  661MOL0     C89121   1.912   4.371   6.970  0.2000  0.6155 -0.2590
  661MOL0     C89122   2.011   4.476   6.932  0.5850  0.1406 -0.1794
  661MOL0     C89123   2.130   4.433   6.853  1.0773  0.1798  0.5372
  661MOL0     O89124   2.177   4.548   6.781  0.4939  0.2151 -0.2560
  661MOL0     C89125   2.313   4.563   6.776  0.5408 -0.2397 -0.0325
  661MOL0     C89126   2.374   4.459   6.707 -0.0462  0.0923 -1.2404
  661MOL0     C89127   2.510   4.458   6.676  0.0735 -0.6666 -0.0829
  661MOL0     C89128   2.565   4.339   6.600  0.2797  0.2837 -0.2972
  661MOL0     C89129   2.592   4.567   6.723  0.2764  0.2447 -0.1278
  661MOL0     C89130   2.738   4.574   6.712  0.6831 -0.0760 -0.0517
  661MOL0     O89131   2.803   4.473   6.649 -0.2239 -0.0936 -0.0579
  661MOL0     C89132   2.936   4.461   6.625  0.6493  0.1616  0.1891
  661MOL0     C89133   3.041   4.539   6.699  0.1694  0.3654  0.1432
  661MOL0     C89134   3.176   4.510   6.671 -0.3137 -0.1073  0.3069
  661MOL0     C89135   3.224   4.404   6.587 -0.4654  0.8426  0.2457
  661MOL0     O89136   3.355   4.363   6.574  0.5788  0.2562  0.1267
  661MOL0     C89137   3.463   4.457   6.598 -0.7772  0.7725 -0.9811
  661MOL0     C89138   3.477   4.551   6.481 -0.6582 -1.2742  0.2658
  661MOL0     C89139   3.618   4.607   6.464 -1.0697  0.0824 -0.2905
  661MOL0     C89140   3.725   4.511   6.429 -0.1587  0.6813 -0.0583
  661MOL0     C89141   3.847   4.522   6.524 -0.8896 -0.2258  0.7172
  661MOL0     C89142   3.946   4.406   6.502 -0.1230 -0.6877  0.2027
  661MOL0     C89143   4.006   4.394   6.361  0.2039  0.1859 -0.1741
  661MOL0     C89144   4.157   4.360   6.363 -0.4460  0.7176 -0.1071
  661MOL0    Cl89145   4.186   4.198   6.428  0.5003  0.2929  0.2960
  661MOL0     C89146   3.123   4.331   6.518  0.7481  0.2055 -0.9893
  661MOL0     C89147   2.984   4.354   6.544 -0.1179  0.6869  0.6162
  661MOL0     O89148   2.791   4.675   6.757  0.1995  0.7002  0.0821
  661MOL0     C89149   2.532   4.665   6.804  0.9260  0.0961  0.1863
  661MOL0     C89150   2.391   4.668   6.836  0.3499 -0.0191  0.0788
  661MOL0     N89151   2.028   4.336   7.313 -0.0675  0.2424  0.3830
  661MOL0     N89152   2.117   4.369   7.398  0.1570 -0.3996  0.7657
  661MOL0     C89153   3.313   3.978   7.453 -0.1872  0.0361 -0.1401
  661MOL0     C89154   3.445   3.940   7.430  0.2485  0.3132  0.0311
  661MOL0     C89155   3.783   3.705   7.215  0.5831  0.3845  1.5010
  661MOL0     C89156   3.826   3.658   7.094 -0.0761  0.6452  0.2862
  661MOL0     C89157   3.944   3.580   7.104  0.1716 -0.4211 -0.6504
  661MOL0     C89158   4.025   3.556   7.216 -0.0789  0.0677  0.1748
  661MOL0     O89159   4.157   3.514   7.186  0.2233  0.7574  0.1147
  661MOL0     C89160   4.248   3.622   7.181 -0.0118 -0.3380  0.4000
  661MOL0     C89161   4.342   3.631   7.304 -0.1899 -0.4725  0.6181
  661MOL0     C89162   4.420   3.765   7.305  0.4465 -0.3658 -0.1802
  661MOL0     C89163   4.511   3.784   7.421  0.0774  0.3595 -0.3747
  661MOL0     C89164   4.589   3.908   7.397  0.1444 -0.1077  1.1846
  661MOL0     C89165   4.660   4.009   7.371  0.1182 -0.6930 -0.5689
  661MOL0     C89166   3.982   3.605   7.338 -0.3811 -0.5506 -0.7354
  661MOL0     C89167   3.860   3.678   7.332  0.1383  0.0791  0.5606
  661MOL0     H89168   3.380   3.660   7.247 -0.8502 -1.3778  1.4280
  661MOL0     H89169   3.159   3.739   7.276 -0.1085  0.2428  1.3114
  661MOL0     H89170   2.936   4.040   7.528 -0.9339  3.0454  0.9066
  661MOL0     H89171   3.091   4.119   7.521  0.9916 -1.4676 -0.4127
  661MOL0     H89172   2.992   4.221   7.345  3.6260  0.0626  0.4974
  661MOL0     H89173   3.062   4.095   7.252 -2.6487  0.9635 -1.7528
  661MOL0     H89174   2.845   4.062   7.183 -1.0103 -0.2596  0.3753
  661MOL0     H89175   2.841   3.959   7.331 -0.2806  0.3420  1.4762
  661MOL0     H89176   2.765   4.176   7.460 -1.5813  0.5144 -0.0859
  661MOL0     H89177   2.774   4.253   7.300  1.1469 -0.8538 -0.4529
  661MOL0     H89178   2.608   4.120   7.209  0.4405  2.4786 -0.3148
  661MOL0     H89179   2.599   4.009   7.347  3.1160 -0.4441 -1.8473
  661MOL0     H89180   2.397   4.138   7.344 -1.3728  0.9966 -0.1969
  661MOL0     H89181   2.486   4.191   7.484  0.6517 -1.7637  0.0163
  661MOL0     H89182   2.579   4.385   7.366 -0.0778  0.7276 -0.7972
  661MOL0     H89183   2.508   4.351   7.220  2.3727  1.6590  0.2261
  661MOL0     H89184   2.365   4.517   7.365  3.4988 -0.6032  0.0908
  661MOL0     H89185   2.367   4.399   7.496  0.2960  2.2679  0.6303
  661MOL0     H89186   2.277   4.327   7.115 -1.7777  2.1405 -2.0497
  661MOL0     H89187   2.046   4.201   7.021 -0.9672 -2.3302  1.3125
  661MOL0     H89188   1.918   4.203   7.119  1.8105 -0.5864  1.4598
  661MOL0     H89189   1.814   4.398   7.010 -1.1513 -1.5351 -1.8843
  661MOL0     H89190   1.885   4.316   6.880  0.6955  1.1875 -0.7629
  661MOL0     H89191   2.048   4.529   7.020 -1.7701 -1.4873  1.9315
  661MOL0     H89192   1.948   4.553   6.886 -0.9654 -0.5029  0.7942
  661MOL0     H89193   2.106   4.362   6.773 -0.6713  2.1553 -0.8149
  661MOL0     H89194   2.201   4.398   6.928  0.3378 -0.5439  0.9151
  661MOL0     H89195   2.306   4.390   6.658  0.2308  0.3550 -2.0149
  661MOL0     H89196   2.499   4.254   6.617  1.1911 -0.5896 -0.9860
  661MOL0     H89197   2.574   4.360   6.493  0.3919  0.4173 -0.2624
  661MOL0     H89198   2.658   4.296   6.639 -0.3397 -0.8318  0.0172
  661MOL0     H89199   3.006   4.615   6.769 -1.1632 -0.2571  0.1852
  661MOL0     H89200   3.249   4.569   6.727 -0.6177 -1.1087  1.8145
  661MOL0     H89201   3.444   4.519   6.686  0.7406 -0.2252  0.1197
  661MOL0     H89202   3.553   4.398   6.618 -1.8279 -1.5585 -2.6868
  661MOL0     H89203   3.433   4.512   6.389  0.4318  0.3252 -0.9952
  661MOL0     H89204   3.412   4.639   6.493 -0.9516 -1.7612  2.8036
  661MOL0     H89205   3.653   4.660   6.553  0.0935  2.1628 -1.8688
  661MOL0     H89206   3.623   4.683   6.385 -2.3136 -0.2258 -0.6829
  661MOL0     H89207   3.686   4.409   6.428 -0.1771  0.6272  2.0996
  661MOL0     H89208   3.757   4.538   6.328  0.4451  2.4934  0.5809
  661MOL0     H89209   3.813   4.517   6.628  1.7616 -0.7846  1.6474
  661MOL0     H89210   3.891   4.621   6.518 -1.9218  0.4437  3.0816
  661MOL0     H89211   4.024   4.420   6.578 -0.5148  3.2800  0.0738
  661MOL0     H89212   3.897   4.309   6.511  2.5885 -2.0465  2.1096
  661MOL0     H89213   4.017   4.490   6.308  3.2312 -1.0265 -2.0109
  661MOL0     H89214   3.959   4.319   6.297  1.8517  0.4322 -1.7702
  661MOL0     H89215   4.205   4.448   6.407 -0.5970  0.8187 -0.1470
  661MOL0     H89216   4.182   4.354   6.257 -2.5245  0.6938 -0.6428
  661MOL0     H89217   3.156   4.243   6.462  0.7723  1.2501 -2.6969
  661MOL0     H89218   2.921   4.281   6.493  0.0522  0.6942  0.3958
  661MOL0     H89219   2.590   4.746   6.847  0.8397  0.8299 -1.0348
  661MOL0     H89220   2.353   4.750   6.896  1.6819  0.9561 -0.3824
  661MOL0     H89221   3.300   4.069   7.510  1.7227  1.2085 -1.4555
  661MOL0     H89222   3.538   3.978   7.471  0.4125 -0.2107  0.1609
  661MOL0     H89223   3.781   3.672   6.996 -2.3711 -0.6216  1.0719
  661MOL0     H89224   3.985   3.552   7.007 -3.0779 -0.3315 -2.1618
  661MOL0     H89225   4.322   3.614   7.101  0.6797  0.2377  0.9593
  661MOL0     H89226   4.196   3.718   7.169  1.1512  0.0794 -1.9021
  661MOL0     H89227   4.409   3.545   7.308  0.3176 -0.3851 -3.0141
  661MOL0     H89228   4.278   3.629   7.393 -0.4712  1.3482  0.4950
  661MOL0     H89229   4.338   3.837   7.311  2.3020  1.7823  0.5922
  661MOL0     H89230   4.467   3.774   7.207  2.6877  0.9891  0.9319
  661MOL0     H89231   4.580   3.700   7.429  0.6875  1.0041  1.9833
  661MOL0     H89232   4.456   3.790   7.516  0.0493  1.2955 -0.4378
  661MOL0     H89233   4.731   4.086   7.348  2.6600 -1.8453  2.5279
  661MOL0     H89234   4.032   3.608   7.434 -2.9640 -0.8232  0.7227
  661MOL0     H89235   3.818   3.716   7.425  1.0467 -0.7791  1.3281
  662MOL0     O89236  10.002  10.405   9.314  0.1338  0.4165 -0.5705
  662MOL0     C89237  10.123  10.400   9.297  0.4393  0.2607 -0.9136
  662MOL0     O89238  10.184  10.363   9.184  0.3690  0.1606  0.0267
  662MOL0     C89239  10.112  10.313   9.075 -0.3114 -0.0683  0.1079
  662MOL0     C89240  10.063  10.393   8.978 -0.3319  0.5152  0.2084
  662MOL0     C89241  10.004  10.342   8.865 -0.3656  0.3633  0.6088
  662MOL0     C89242  10.001  10.204   8.849  0.0243  0.1423  0.0175
  662MOL0     O89243   9.914  10.153   8.759 -0.0743 -0.0492  0.1859
  662MOL0     C89244   9.920  10.208   8.626  0.6365  0.5610 -0.0459
  662MOL0     C89245   9.892  10.094   8.534 -0.4966  1.1734  1.0173
  662MOL0     C89246   9.738  10.051   8.534  0.3155 -0.2607 -0.0858
  662MOL0     C89247   9.696  10.000   8.407  0.0573 -1.2118 -0.1088
  662MOL0     C89248   9.548   9.997   8.390 -1.0803  0.4844 -0.2041
  662MOL0     C89249   9.484   9.891   8.488  0.3708 -0.2966  0.3874
  662MOL0     C89250   9.343   9.853   8.444  0.2636  0.5297 -0.5728
  662MOL0     C89251   9.240   9.961   8.484 -0.0912  0.2904 -0.2461
  662MOL0     N89252   9.105   9.936   8.454  0.6466  0.1954 -0.2802
  662MOL0     C89253   9.000  10.009   8.510 -0.0326  0.3676 -0.0586
  662MOL0     C89254   8.880   9.949   8.473 -0.1697 -1.0004  0.5907
  662MOL0     C89255   8.746  10.020   8.502  0.2571 -0.0345 -0.1011
  662MOL0     C89256   8.697  10.069   8.358 -0.5415 -0.3332 -0.8669
  662MOL0     C89257   8.555  10.139   8.371 -0.2905 -0.0161  0.2850
  662MOL0     C89258   8.443  10.071   8.442  0.5551  0.0749 -0.3219
  662MOL0     O89259   8.397   9.973   8.357  0.4724  0.0128  0.5774
  662MOL0     C89260   8.265  10.003   8.323  0.2086  1.0430  0.3387
  662MOL0     C89261   8.167   9.902   8.353 -0.8205  0.0559 -0.1890
  662MOL0     C89262   8.032   9.917   8.320  0.4695  0.0592 -0.6912
  662MOL0     C89263   7.936   9.804   8.345 -0.0787  0.3432 -0.3052
  662MOL0     C89264   7.993  10.043   8.262 -0.3305 -0.1297  0.2663
  662MOL0     C89265   7.855  10.077   8.247  0.7072 -1.3010  0.2066
  662MOL0     O89266   7.817  10.121   8.119  0.6523 -0.0681  0.5404
  662MOL0     C89267   7.676  10.119   8.087 -0.4056 -0.5092  0.3760
  662MOL0     C89268   7.579  10.026   8.130 -0.2383  0.0349 -0.0460
  662MOL0     C89269   7.441  10.044   8.102 -0.1826  0.3952 -0.3128
  662MOL0     C89270   7.402  10.154   8.017  0.4006 -0.1638 -0.5064
  662MOL0     O89271   7.280  10.204   7.987  0.7318 -0.8721 -0.1351
  662MOL0     C89272   7.156  10.132   8.018  0.5782  0.4624 -0.1740
  662MOL0     C89273   7.032  10.225   8.009 -1.1446  0.2646  0.0892
  662MOL0     C89274   7.011  10.286   7.860 -0.1989  0.1201  0.0968
  662MOL0     C89275   6.903  10.402   7.859 -0.5058  0.0898  0.2538
  662MOL0     C89276   6.762  10.349   7.829 -0.0008  0.7804 -0.2422
  662MOL0     C89277   6.670  10.444   7.778  0.7564 -0.3924  0.3788
  662MOL0     C89278   6.535  10.382   7.733  0.0559  0.3702  0.0070
  662MOL0     C89279   6.441  10.351   7.856 -0.1685 -1.1334  0.7588
  662MOL0    Cl89280   6.290  10.263   7.797  0.5834  0.5074  0.2144
  662MOL0     C89281   7.502  10.231   7.975  1.0278 -0.1583  0.5527
  662MOL0     C89282   7.633  10.218   8.004 -0.2693  0.0316 -0.0129
  662MOL0     O89283   7.785  10.081   8.339  0.1510 -0.2155 -0.5392
  662MOL0     C89284   8.092  10.136   8.219 -0.2791 -0.4709  0.3371
  662MOL0     C89285   8.220  10.122   8.258 -0.9030  0.2551 -0.2854
  662MOL0     N89286   8.911   9.838   8.398  0.6929  0.2063  0.6992
  662MOL0     N89287   9.047   9.831   8.387 -0.0820  0.8499  0.0063
  662MOL0     C89288  10.043  10.121   8.947  0.6890  0.5377 -0.2966
  662MOL0     C89289  10.097  10.178   9.062 -0.4169 -1.0632 -0.8438
  662MOL0     C89290  10.216  10.425   9.414 -0.7209 -0.2738  0.8620
  662MOL0     C89291  10.360  10.453   9.395 -0.1329  0.0979 -0.8779
  662MOL0     C89292  10.457  10.461   9.499  0.5337  0.1658 -0.5226
  662MOL0     C89293  10.401  10.433   9.629 -0.0240  1.0330 -0.6786
  662MOL0     O89294  10.486  10.428   9.735  0.2311 -0.1582 -0.1819
  662MOL0     C89295  10.628  10.420   9.720 -0.6432  0.5015 -0.5232
  662MOL0     C89296  10.690  10.353   9.842  0.2245 -0.2620  0.1624
  662MOL0     C89297  10.721  10.455   9.954  0.2444 -0.8860 -0.3063
  662MOL0     C89298  10.854  10.522   9.930  0.1827  0.8645  0.0814
  662MOL0     C89299  10.884  10.627  10.021  0.5399 -0.2223 -0.3497
  662MOL0     C89300  10.908  10.726  10.083 -0.4626  0.1491 -0.0177
  662MOL0     C89301  10.265  10.427   9.647 -0.0628 -0.6369 -0.8386
  662MOL0     C89302  10.174  10.420   9.546  0.5196 -0.0727 -0.1747
  662MOL0     H89303  10.069  10.501   8.991  3.9880  0.2741  2.0370
  662MOL0     H89304   9.969  10.410   8.788 -2.1136 -0.7262  0.3835
  662MOL0     H89305   9.845  10.287   8.620  1.9936  1.9005 -0.0913
  662MOL0     H89306  10.011  10.264   8.601 -0.3167  2.2114 -0.0010
  662MOL0     H89307   9.926  10.117   8.432  1.4258  3.4851  2.0538
  662MOL0     H89308   9.952  10.005   8.553  1.5888  1.5305 -2.8017
  662MOL0     H89309   9.723   9.976   8.613  1.3625  0.5623  0.9194
  662MOL0     H89310   9.662  10.128   8.552 -0.0179 -0.7079  0.4551
  662MOL0     H89311   9.741  10.057   8.324  0.0683 -2.4416 -0.9839
  662MOL0     H89312   9.742   9.900   8.403  1.0520 -0.8095  0.9037
  662MOL0     H89313   9.506  10.098   8.386  2.2061  1.9733 -0.6248
  662MOL0     H89314   9.526   9.960   8.289  0.2390 -1.7659  0.2658
  662MOL0     H89315   9.542   9.799   8.478  0.9244  0.1435 -0.5662
  662MOL0     H89316   9.475   9.932   8.588 -0.1622 -0.9886  0.6329
  662MOL0     H89317   9.330   9.835   8.337 -2.6553 -2.4125  0.1093
  662MOL0     H89318   9.315   9.764   8.501  1.8768 -0.7268 -1.6462
  662MOL0     H89319   9.274  10.059   8.449  1.3437 -0.0301  0.1903
  662MOL0     H89320   9.247   9.970   8.593 -0.0969  0.2618 -0.2435
  662MOL0     H89321   9.000  10.099   8.571 -0.6754  0.1565  0.2552
  662MOL0     H89322   8.675   9.948   8.542  1.8881 -1.0460  1.0800
  662MOL0     H89323   8.751  10.103   8.573 -0.1544  0.2956 -0.4512
  662MOL0     H89324   8.687   9.981   8.294 -0.7402  0.3308 -1.7822
  662MOL0     H89325   8.766  10.134   8.301 -2.5501 -0.8923 -4.1944
  662MOL0     H89326   8.521  10.169   8.272  1.4967 -0.2613 -0.4487
  662MOL0     H89327   8.574  10.232   8.426  3.5427 -0.9450  0.8428
  662MOL0     H89328   8.370  10.145   8.474  1.3007  0.5419  0.3162
  662MOL0     H89329   8.484  10.029   8.535  1.0634 -0.1933 -0.6587
  662MOL0     H89330   8.204   9.820   8.413 -2.3348 -0.1221  0.5485
  662MOL0     H89331   7.898   9.802   8.448  4.4814  0.9631  1.5991
  662MOL0     H89332   7.849   9.808   8.278 -2.6678  0.8721  2.8024
  662MOL0     H89333   7.991   9.711   8.330 -0.6455 -0.7860  3.4630
  662MOL0     H89334   7.615   9.951   8.201  2.5040  1.9868  0.8173
  662MOL0     H89335   7.360   9.978   8.134  1.0491 -0.9077  0.2569
  662MOL0     H89336   7.149  10.042   7.956  1.7216  0.0775  0.2296
  662MOL0     H89337   7.159  10.103   8.124 -3.4260  4.7555  1.4688
  662MOL0     H89338   6.939  10.181   8.045 -0.0498 -1.7062  0.6476
  662MOL0     H89339   7.059  10.304   8.081  2.2920 -1.2439  0.6460
  662MOL0     H89340   6.992  10.201   7.793  0.2988  0.1577 -0.0915
  662MOL0     H89341   7.107  10.332   7.834  0.7904 -0.7020  2.0934
  662MOL0     H89342   6.900  10.454   7.956  1.2194 -1.0322  0.9466
  662MOL0     H89343   6.935  10.473   7.783  1.7454 -2.0030 -0.8686
  662MOL0     H89344   6.711  10.317   7.920 -0.5229  2.5877  0.1580
  662MOL0     H89345   6.764  10.266   7.758 -1.3434 -0.3677  0.9993
  662MOL0     H89346   6.656  10.523   7.852  1.1587  0.5965 -0.5737
  662MOL0     H89347   6.730  10.485   7.696  1.5502 -3.4557 -0.7147
  662MOL0     H89348   6.569  10.285   7.694  0.1883 -0.8195  2.7818
  662MOL0     H89349   6.481  10.437   7.656 -2.0781  0.5554  1.5558
  662MOL0     H89350   6.411  10.450   7.890  0.9508 -0.3837 -0.3631
  662MOL0     H89351   6.492  10.292   7.933  1.5981 -0.2801  0.3036
  662MOL0     H89352   7.470  10.319   7.920 -0.2123  0.8226  2.7316
  662MOL0     H89353   7.702  10.283   7.952 -1.5676 -0.9366 -3.1785
  662MOL0     H89354   8.067  10.234   8.181 -1.2842 -0.5992  0.6244
  662MOL0     H89355   8.284  10.207   8.235 -3.0007  1.9090 -0.3097
  662MOL0     H89356  10.028  10.014   8.940  1.0467  0.4251  0.4863
  662MOL0     H89357  10.138  10.116   9.141 -0.5006  0.3890  0.4063
  662MOL0     H89358  10.398  10.480   9.297  0.3953  0.2130 -0.6450
  662MOL0     H89359  10.563  10.483   9.490  1.1050 -0.6023  2.9457
  662MOL0     H89360  10.645  10.352   9.636 -0.6062  1.7073 -1.5235
  662MOL0     H89361  10.681  10.510   9.687 -4.1597  3.3612  0.8709
  662MOL0     H89362  10.788  10.307   9.826 -0.8775 -1.9696 -2.3932
  662MOL0     H89363  10.618  10.282   9.883  1.9597 -0.5987  2.9370
  662MOL0     H89364  10.721  10.411  10.054 -1.5528  0.7630  0.4763
  662MOL0     H89365  10.635  10.522   9.959  1.6125  1.0375 -1.2380
  662MOL0     H89366  10.849  10.577   9.836 -3.3433  2.5489  1.0653
  662MOL0     H89367  10.934  10.448   9.934 -0.6442 -0.0169  0.8983
  662MOL0     H89368  10.938  10.804  10.150  1.4055  0.9702 -1.7281
  662MOL0     H89369  10.234  10.422   9.751  0.1402 -1.4700 -0.8124
  662MOL0     H89370  10.069  10.411   9.573  0.5650  2.0318  0.9620
  663MOL0     O89371   2.833  11.247  10.773  0.4762  0.1194  0.1075
  663MOL0     C89372   2.833  11.203  10.656  0.0422 -0.4145 -1.3465
  663MOL0     O89373   2.725  11.183  10.578 -0.1871 -0.5640 -0.6222
  663MOL0     C89374   2.597  11.227  10.627  0.2504  0.0716 -0.7629
  663MOL0     C89375   2.534  11.338  10.564 -0.5028 -1.0238  0.4825
  663MOL0     C89376   2.394  11.362  10.588 -0.3438 -0.2739 -0.1952
  663MOL0     C89377   2.313  11.282  10.676  0.1686 -0.2026 -0.3296
  663MOL0     O89378   2.178  11.285  10.686  0.2849 -0.0356 -0.0396
  663MOL0     C89379   2.112  11.412  10.669 -0.4540 -0.4389  0.7211
  663MOL0     C89380   1.967  11.400  10.706  0.8972 -0.5287  0.7825
  663MOL0     C89381   1.889  11.534  10.680 -0.2743 -0.0501 -0.0632
  663MOL0     C89382   1.757  11.525  10.755 -0.0854 -0.4438  0.3747
  663MOL0     C89383   1.670  11.402  10.703  0.0006 -0.8412 -0.4390
  663MOL0     C89384   1.524  11.416  10.725 -0.2087 -0.7502 -0.5696
  663MOL0     C89385   1.489  11.452  10.866  0.2880 -0.1550 -0.4164
  663MOL0     C89386   1.347  11.405  10.905 -0.7181 -0.2766 -0.2027
  663MOL0     N89387   1.248  11.436  10.803 -0.5635  0.2100  0.4294
  663MOL0     C89388   1.206  11.556  10.753 -0.3942 -0.1990  1.2455
  663MOL0     C89389   1.125  11.526  10.649 -0.1653 -0.1918 -0.6128
  663MOL0     C89390   1.051  11.621  10.561 -0.6947 -0.5980  0.1330
  663MOL0     C89391   0.905  11.591  10.542  0.0476 -0.0580  0.9028
  663MOL0     C89392   0.850  11.680  10.428  0.7476  0.1059 -0.0135
  663MOL0     C89393   0.831  11.820  10.485  0.0132 -0.2129 -0.1537
  663MOL0     O89394   0.788  11.902  10.382 -0.0692  0.3431  0.8409
  663MOL0     C89395   0.655  11.907  10.343  0.2323 -0.5226  0.8371
  663MOL0     C89396   0.639  11.988  10.235  0.0426  0.1108 -0.0755
  663MOL0     C89397   0.503  12.013  10.189  0.6940  0.3890 -0.7398
  663MOL0     C89398   0.494  12.124  10.089  0.1850  0.5262  0.2984
  663MOL0     C89399   0.394  11.945  10.252 -0.4515 -0.5766  0.2193
  663MOL0     C89400   0.252  11.987  10.229  0.8438  0.4933  0.2565
  663MOL0     O89401   0.162  11.932  10.321 -0.1587 -0.1494 -0.3474
  663MOL0     C89402   0.029  11.966  10.319 -0.5155 -0.7457 -0.8241
  663MOL0     C89403  -0.012  12.098  10.305  0.4464 -0.0351  0.0573
  663MOL0     C89404  -0.152  12.119  10.285  0.0133  0.4083 -0.8558
  663MOL0     C89405  -0.249  12.018  10.291 -0.3657  0.8630  0.4755
  663MOL0     O89406  -0.379  12.064  10.260 -0.6851 -0.3171  0.0269
  663MOL0     C89407  -0.472  11.963  10.217  0.3226  0.4123 -0.5564
  663MOL0     C89408  -0.604  12.027  10.173 -0.0693  0.1488 -0.4810
  663MOL0     C89409  -0.718  11.931  10.135  0.2836 -0.8936  0.1140
  663MOL0     C89410  -0.835  12.015  10.083 -0.5461  0.0961  0.6323
  663MOL0     C89411  -0.963  11.949  10.069  0.2793 -0.2942  0.0653
  663MOL0     C89412  -1.074  12.044  10.019  0.2450  0.7441 -0.6628
  663MOL0     C89413  -1.210  11.963  10.044  0.3912  0.0614  0.2763
  663MOL0     C89414  -1.335  12.030   9.999 -0.0392 -0.0164 -0.0276
  663MOL0    Cl89415  -1.310  12.088   9.825  0.3987 -0.0611 -0.3312
  663MOL0     C89416  -0.201  11.896  10.319 -1.0268  1.2378 -0.2380
  663MOL0     C89417  -0.066  11.866  10.333 -0.1508  0.1089 -0.0915
  663MOL0     O89418   0.216  12.069  10.144 -0.0872 -0.1980 -0.3056
  663MOL0     C89419   0.428  11.848  10.358 -0.3495  0.6119  0.4362
  663MOL0     C89420   0.556  11.838  10.406  1.2991 -0.1693  0.9020
  663MOL0     N89421   1.102  11.388  10.652  0.0695 -0.6007  0.0574
  663MOL0     N89422   1.172  11.335  10.743  0.3993 -0.3644  0.2037
  663MOL0     C89423   2.383  11.182  10.748 -1.0796 -0.8941  0.4384
  663MOL0     C89424   2.524  11.154  10.725  0.3422 -0.0384  0.1676
  663MOL0     C89425   2.966  11.190  10.605  0.7932  0.1297 -0.1855
  663MOL0     C89426   2.988  11.124  10.480  0.5490 -0.5328 -0.1036
  663MOL0     C89427   3.112  11.127  10.423  0.4470 -0.4025  1.2183
  663MOL0     C89428   3.224  11.187  10.486 -0.9426  0.1906 -0.3686
  663MOL0     O89429   3.355  11.169  10.450  0.2841 -0.4491 -0.3048
  663MOL0     C89430   3.390  11.117  10.328  0.0955  0.4317 -0.1683
  663MOL0     C89431   3.539  11.129  10.294 -0.7389 -0.0210 -1.1449
  663MOL0     C89432   3.589  11.270  10.267  0.9643  0.0591 -0.0486
  663MOL0     C89433   3.525  11.346  10.147 -0.4691  0.0591  0.0077
  663MOL0     C89434   3.567  11.486  10.144  0.3159 -0.6132 -0.1172
  663MOL0     C89435   3.590  11.609  10.154  1.2725  0.8147 -0.3963
  663MOL0     C89436   3.211  11.236  10.614 -0.1773  0.0043  0.2052
  663MOL0     C89437   3.085  11.236  10.672  0.0951 -0.5401 -0.0759
  663MOL0     H89438   2.583  11.406  10.495  2.4499 -0.1325  3.2110
  663MOL0     H89439   2.358  11.450  10.535  0.5304  0.2649  0.0760
  663MOL0     H89440   2.160  11.488  10.730  2.1446 -0.4838 -1.0777
  663MOL0     H89441   2.122  11.455  10.569 -1.2801  0.6671  1.0938
  663MOL0     H89442   1.926  11.319  10.645 -0.7497  0.0672  1.0458
  663MOL0     H89443   1.941  11.382  10.811 -1.3489 -0.1639  0.3253
  663MOL0     H89444   1.948  11.615  10.724  1.6112 -1.0379 -0.6486
  663MOL0     H89445   1.874  11.558  10.574 -2.3257 -1.3698 -0.1327
  663MOL0     H89446   1.775  11.514  10.862  0.3690  0.1167  0.3621
  663MOL0     H89447   1.705  11.618  10.731  1.9644  1.7797  3.7103
  663MOL0     H89448   1.689  11.387  10.596  0.1553  0.4038 -0.5979
  663MOL0     H89449   1.701  11.317  10.765  2.5153 -1.3091 -2.1497
  663MOL0     H89450   1.483  11.488  10.653  0.9889  2.7926  1.9901
  663MOL0     H89451   1.467  11.326  10.700 -3.8004  0.7767  1.2437
  663MOL0     H89452   1.564  11.423  10.939  1.9911  3.4152 -0.5395
  663MOL0     H89453   1.479  11.561  10.874  2.1243  0.0969 -1.1468
  663MOL0     H89454   1.317  11.449  11.001  2.0027  2.5414 -0.4717
  663MOL0     H89455   1.342  11.298  10.931  0.6978 -0.1566  0.7392
  663MOL0     H89456   1.219  11.661  10.778 -2.8463  0.5632 -0.2487
  663MOL0     H89457   1.063  11.726  10.589 -1.7317 -0.7772  1.3504
  663MOL0     H89458   1.090  11.612  10.459 -1.4683  2.1275 -0.4863
  663MOL0     H89459   0.845  11.597  10.633  0.6207  0.4527  1.2498
  663MOL0     H89460   0.911  11.486  10.511  3.0320  0.7461 -1.8940
  663MOL0     H89461   0.755  11.628  10.413  0.8699 -2.0406  4.7375
  663MOL0     H89462   0.922  11.685  10.345  1.1181  0.3511  0.3172
  663MOL0     H89463   0.926  11.856  10.525  0.9438 -0.5939 -1.9397
  663MOL0     H89464   0.766  11.831  10.573 -0.4361 -1.4359 -0.3115
  663MOL0     H89465   0.724  12.044  10.198 -0.6682  1.7662  0.6993
  663MOL0     H89466   0.410  12.120  10.020 -0.5603  0.9122  1.1543
  663MOL0     H89467   0.476  12.220  10.138 -0.9024 -0.6373  2.3337
  663MOL0     H89468   0.587  12.116  10.033  0.2066  0.9171  0.2775
  663MOL0     H89469   0.059  12.180  10.301  0.9770 -0.5438 -2.9231
  663MOL0     H89470  -0.186  12.215  10.245  1.9388  1.2587 -0.5417
  663MOL0     H89471  -0.427  11.920  10.127  0.7192  1.4899 -0.8888
  663MOL0     H89472  -0.492  11.893  10.299 -1.6008 -2.1972 -3.0151
  663MOL0     H89473  -0.641  12.099  10.246 -2.8809  1.0820 -2.6562
  663MOL0     H89474  -0.574  12.085  10.085  0.5869  1.3164  0.4834
  663MOL0     H89475  -0.737  11.877  10.228  1.7176  2.0229  2.2579
  663MOL0     H89476  -0.684  11.858  10.061 -1.3892 -1.6030  0.0102
  663MOL0     H89477  -0.841  12.109  10.138 -2.3025 -0.9494  2.3374
  663MOL0     H89478  -0.800  12.052   9.986 -1.1454  0.9665  0.7345
  663MOL0     H89479  -1.008  11.911  10.161 -1.5958 -0.4987 -0.8722
  663MOL0     H89480  -0.945  11.872   9.993  0.5240  0.5886 -0.7838
  663MOL0     H89481  -1.076  12.137  10.076  2.6556  0.1792  0.5223
  663MOL0     H89482  -1.055  12.050   9.911  3.4857 -1.6319 -0.3940
  663MOL0     H89483  -1.225  11.936  10.148  0.3660  0.4001  0.3617
  663MOL0     H89484  -1.213  11.875   9.979  3.4664  0.2427 -0.2914
  663MOL0     H89485  -1.373  12.113  10.060  0.9733  0.3553  0.1093
  663MOL0     H89486  -1.426  11.969  10.004  0.0656 -0.1102  0.7567
  663MOL0     H89487  -0.276  11.818  10.331 -0.5996  0.6329 -1.4056
  663MOL0     H89488  -0.017  11.774  10.362  0.5390  1.3477  3.2250
  663MOL0     H89489   0.352  11.789  10.408  0.8046 -0.6176  0.7716
  663MOL0     H89490   0.575  11.770  10.488 -0.3745 -0.5797  1.0033
  663MOL0     H89491   2.327  11.119  10.817  2.6322 -3.4353  1.4836
  663MOL0     H89492   2.570  11.070  10.777  0.5756 -0.4195 -0.6450
  663MOL0     H89493   2.905  11.093  10.417  1.9585 -1.8391 -1.4119
  663MOL0     H89494   3.129  11.095  10.321  1.6098  1.3454  0.8189
  663MOL0     H89495   3.356  11.013  10.324 -3.9627  1.6070 -0.4744
  663MOL0     H89496   3.326  11.158  10.250  0.5320 -2.9248 -2.5066
  663MOL0     H89497   3.555  11.070  10.204 -1.8638  0.0568 -1.4150
  663MOL0     H89498   3.597  11.089  10.378 -3.6696  0.2337  1.1946
  663MOL0     H89499   3.690  11.259  10.226  0.8103  1.1420 -0.7771
  663MOL0     H89500   3.600  11.331  10.357 -2.0792  0.2143  0.3097
  663MOL0     H89501   3.416  11.351  10.153 -0.9723 -0.7221 -4.6244
  663MOL0     H89502   3.542  11.294  10.052  1.7501 -0.1525  0.4793
  663MOL0     H89503   3.617  11.713  10.157  0.9219  0.9757 -1.9194
  663MOL0     H89504   3.290  11.275  10.677  0.1801  1.2947 -1.0047
  663MOL0     H89505   3.075  11.269  10.775  1.4784 -0.8196  0.1596
  664MOL0     O89506   0.983   1.232   0.755 -0.3252  0.0225 -0.2133
  664MOL0     C89507   1.001   1.180   0.865 -0.1652  0.5118  1.1726
  664MOL0     O89508   0.912   1.107   0.933 -0.6770  0.1201 -0.0195
  664MOL0     C89509   0.776   1.113   0.899  0.4722  0.3208  0.1368
  664MOL0     C89510   0.696   1.130   1.008 -0.1693  0.5518  0.3899
  664MOL0     C89511   0.556   1.119   0.990  0.6916  0.1365  0.2973
  664MOL0     C89512   0.509   1.093   0.861  0.6075 -0.3722 -0.3383
  664MOL0     O89513   0.380   1.086   0.832 -0.2330  0.2223  0.3148
  664MOL0     C89514   0.284   1.119   0.932 -0.2771  1.3040  0.4947
  664MOL0     C89515   0.139   1.084   0.885 -0.3909  0.0588  0.1393
  664MOL0     C89516   0.048   1.200   0.938  0.0842  0.8720  0.3248
  664MOL0     C89517  -0.105   1.161   0.936 -0.2145 -0.4086 -0.0024
  664MOL0     C89518  -0.163   1.121   0.798 -0.0592  0.7855 -0.1836
  664MOL0     C89519  -0.311   1.094   0.818 -0.4348  0.3480 -0.2007
  664MOL0     C89520  -0.378   1.028   0.699 -0.2457  0.4691 -0.6011
  664MOL0     C89521  -0.366   1.115   0.579  0.3814  0.4770 -0.4237
  664MOL0     N89522  -0.478   1.082   0.475  0.1826 -0.9027 -0.5360
  664MOL0     C89523  -0.591   1.163   0.445 -0.0507  1.1370 -0.0905
  664MOL0     C89524  -0.672   1.085   0.369 -0.5521  0.6447 -0.2556
  664MOL0     C89525  -0.809   1.117   0.321 -0.7389 -0.6586 -0.1353
  664MOL0     C89526  -0.829   1.092   0.167  1.4455  0.0551 -0.1955
  664MOL0     C89527  -0.951   1.183   0.116  0.1116  0.5488 -0.6014
  664MOL0     C89528  -0.968   1.181  -0.036 -0.2733  1.0641 -0.7545
  664MOL0     O89529  -1.071   1.279  -0.059  0.0046  0.3768  0.3589
  664MOL0     C89530  -1.212   1.247  -0.042 -0.5102 -0.5253  0.0153
  664MOL0     C89531  -1.302   1.340  -0.100  0.3503  0.1219 -0.8120
  664MOL0     C89532  -1.442   1.338  -0.070 -0.1719 -0.5423 -0.0231
  664MOL0     C89533  -1.516   1.449  -0.136  0.3262  0.0222  0.0578
  664MOL0     C89534  -1.497   1.233   0.005 -0.7519  0.5020 -0.7280
  664MOL0     C89535  -1.643   1.205   0.036 -0.2432 -0.1237  0.8346
  664MOL0     O89536  -1.729   1.295  -0.021 -0.8071  0.4724 -0.0917
  664MOL0     C89537  -1.862   1.263  -0.031 -0.1958  0.0859 -1.0141
  664MOL0     C89538  -1.913   1.250  -0.161  0.1507  0.1267  0.0022
  664MOL0     C89539  -2.047   1.219  -0.174  0.7435 -0.3606  0.6517
  664MOL0     C89540  -2.133   1.216  -0.065  0.0510 -0.0133 -0.7611
  664MOL0     O89541  -2.271   1.204  -0.078  0.1252 -0.1653 -0.1731
  664MOL0     C89542  -2.343   1.133   0.021 -0.8658 -0.3363  0.3003
  664MOL0     C89543  -2.486   1.098  -0.011 -0.3281  0.4536  0.3485
  664MOL0     C89544  -2.569   1.037   0.103 -0.7232 -1.0719 -0.8408
  664MOL0     C89545  -2.706   0.983   0.051  0.4240 -1.0367 -0.1171
  664MOL0     C89546  -2.804   0.959   0.167  0.4444 -0.1033 -0.3171
  664MOL0     C89547  -2.936   0.898   0.120 -0.6369 -0.2342 -0.5052
  664MOL0     C89548  -3.028   0.836   0.225  0.3078 -0.5573 -0.2564
  664MOL0     C89549  -3.169   0.884   0.192 -0.2704  0.0847  0.3315
  664MOL0    Cl89550  -3.268   0.813   0.054 -0.1220 -0.0863 -0.0317
  664MOL0     C89551  -2.081   1.223   0.066  0.3179 -0.1894  0.1451
  664MOL0     C89552  -1.943   1.242   0.078  1.3447 -0.1665 -0.1555
  664MOL0     O89553  -1.671   1.106   0.092 -0.7425 -0.0427 -1.0245
  664MOL0     C89554  -1.407   1.139   0.059 -0.3864 -0.2898  0.5895
  664MOL0     C89555  -1.268   1.142   0.032  0.5541 -0.4663 -0.3639
  664MOL0     N89556  -0.615   0.965   0.355  0.6994  0.0993  0.1747
  664MOL0     N89557  -0.505   0.958   0.419 -0.1335 -0.0398  1.2185
  664MOL0     C89558   0.594   1.073   0.756  0.1894  0.3059 -0.7442
  664MOL0     C89559   0.730   1.089   0.771  0.2505  0.3927 -0.2614
  664MOL0     C89560   1.139   1.179   0.907  0.5109 -0.4365 -0.9666
  664MOL0     C89561   1.164   1.148   1.035 -0.0328  0.0068  0.2490
  664MOL0     C89562   1.297   1.160   1.087  0.7043 -0.4800 -0.5632
  664MOL0     C89563   1.410   1.182   1.009  0.5121  0.1636  0.2245
  664MOL0     O89564   1.537   1.180   1.047  0.4250 -0.1527  0.6457
  664MOL0     C89565   1.572   1.154   1.187 -0.0680 -0.5662 -0.4529
  664MOL0     C89566   1.630   1.012   1.192  0.8611 -1.1195 -0.1497
  664MOL0     C89567   1.519   0.909   1.191  0.4972 -0.5012  0.1364
  664MOL0     C89568   1.589   0.768   1.192  0.2318 -1.1516  0.2434
  664MOL0     C89569   1.629   0.738   1.338  0.7846 -0.1638 -0.4630
  664MOL0     C89570   1.647   0.709   1.454 -1.6491  0.5177  0.4850
  664MOL0     C89571   1.376   1.208   0.867  0.2374  0.0316  0.6093
  664MOL0     C89572   1.243   1.219   0.823 -0.2974 -0.5930 -0.7029
  664MOL0     H89573   0.727   1.124   1.111 -2.4724 -3.5291  1.0562
  664MOL0     H89574   0.498   1.138   1.080  3.2377  2.7467  1.5617
  664MOL0     H89575   0.311   1.065   1.022 -0.7264 -0.1661 -0.2248
  664MOL0     H89576   0.286   1.227   0.953 -2.1905  1.7733 -1.3458
  664MOL0     H89577   0.138   1.075   0.776  0.9298 -2.0646  0.2273
  664MOL0     H89578   0.113   0.986   0.927  1.9290  0.0727  1.8586
  664MOL0     H89579   0.075   1.219   1.042  0.1941  0.6631  0.3347
  664MOL0     H89580   0.069   1.278   0.864 -1.3766  0.7055 -0.3063
  664MOL0     H89581  -0.108   1.082   1.011 -0.6871 -0.5079 -0.1212
  664MOL0     H89582  -0.158   1.251   0.970  2.2622  2.3851 -2.8205
  664MOL0     H89583  -0.144   1.195   0.720 -1.3563  0.2213 -1.0653
  664MOL0     H89584  -0.118   1.026   0.766 -2.0093  0.7818 -3.2901
  664MOL0     H89585  -0.319   1.038   0.911  1.9507  0.2611  0.0036
  664MOL0     H89586  -0.352   1.195   0.824  1.3048  1.0076  0.9612
  664MOL0     H89587  -0.326   0.933   0.684  1.9673  1.5274  0.0338
  664MOL0     H89588  -0.483   1.009   0.724 -0.1521  1.7518  0.8883
  664MOL0     H89589  -0.269   1.102   0.532 -0.0646 -1.9984 -0.8058
  664MOL0     H89590  -0.380   1.218   0.613  3.7948  0.5636  1.0962
  664MOL0     H89591  -0.629   1.259   0.478  0.4639  1.9902 -1.8331
  664MOL0     H89592  -0.881   1.054   0.374 -0.3646  1.0610  2.6232
  664MOL0     H89593  -0.841   1.220   0.338 -3.6179 -1.1193 -1.9593
  664MOL0     H89594  -0.855   0.988   0.144 -0.3805 -0.2046  2.5853
  664MOL0     H89595  -0.740   1.134   0.118  1.9996  0.5551  1.1919
  664MOL0     H89596  -0.925   1.283   0.150  0.2342 -0.2375  1.8164
  664MOL0     H89597  -1.037   1.161   0.179  2.2991 -0.7408  2.1316
  664MOL0     H89598  -0.996   1.078  -0.058  0.9244  0.5682 -0.0290
  664MOL0     H89599  -0.880   1.199  -0.099  0.9618  1.7035  1.0602
  664MOL0     H89600  -1.252   1.420  -0.155  1.0630  0.8395  0.8141
  664MOL0     H89601  -1.594   1.490  -0.072  0.0774 -0.6569  0.1939
  664MOL0     H89602  -1.451   1.527  -0.178 -1.7326  1.2420 -1.0068
  664MOL0     H89603  -1.571   1.413  -0.223  1.2766  0.9388 -0.9674
  664MOL0     H89604  -1.855   1.265  -0.252 -0.6883 -0.6222 -0.6705
  664MOL0     H89605  -2.096   1.208  -0.270 -0.2371  1.0229  0.9613
  664MOL0     H89606  -2.286   1.041   0.033 -1.2636 -1.1607 -3.1831
  664MOL0     H89607  -2.346   1.193   0.113 -0.6445 -1.8477  1.3225
  664MOL0     H89608  -2.537   1.189  -0.042 -2.3903 -0.4094  1.0231
  664MOL0     H89609  -2.475   1.039  -0.102  2.8510  2.1657 -0.5366
  664MOL0     H89610  -2.579   1.107   0.187  2.4034 -3.0086  1.3490
  664MOL0     H89611  -2.513   0.958   0.154 -0.6952  0.6348  2.0470
  664MOL0     H89612  -2.753   1.052  -0.019 -1.9687 -1.9614  0.4610
  664MOL0     H89613  -2.702   0.889  -0.005 -1.1988 -1.6641  0.7561
  664MOL0     H89614  -2.819   1.052   0.222  1.6460 -0.3717  0.4983
  664MOL0     H89615  -2.765   0.887   0.239 -0.2337  0.1461  0.3113
  664MOL0     H89616  -2.988   0.986   0.082  0.6867  1.3265  1.1782
  664MOL0     H89617  -2.918   0.823   0.042  1.0447 -2.0279  1.4697
  664MOL0     H89618  -3.012   0.876   0.325 -3.6412 -0.0861  0.3376
  664MOL0     H89619  -3.027   0.726   0.224  0.7546 -0.5639 -1.8337
  664MOL0     H89620  -3.172   0.992   0.175 -3.3226 -0.2508 -2.3635
  664MOL0     H89621  -3.232   0.882   0.282 -4.0821  0.5976 -2.0833
  664MOL0     H89622  -2.141   1.227   0.156  0.0109 -0.2298 -0.0597
  664MOL0     H89623  -1.888   1.240   0.171  0.0087 -0.1307  0.6606
  664MOL0     H89624  -1.445   1.045   0.099 -1.7436 -0.5641 -1.2290
  664MOL0     H89625  -1.207   1.059   0.065  1.1568 -0.8622 -2.2942
  664MOL0     H89626   0.548   1.045   0.662 -0.8292  0.3242 -0.2710
  664MOL0     H89627   0.790   1.068   0.683 -2.6327 -1.1531 -2.0166
  664MOL0     H89628   1.078   1.143   1.102  1.5802 -0.9566  2.3660
  664MOL0     H89629   1.319   1.131   1.189  0.7287  2.3815  0.3094
  664MOL0     H89630   1.651   1.222   1.220  0.7083 -1.6457 -0.0294
  664MOL0     H89631   1.494   1.187   1.256 -0.1676  2.9322 -2.0589
  664MOL0     H89632   1.678   0.999   1.289  1.0354  0.6748  0.0291
  664MOL0     H89633   1.699   1.003   1.107 -0.1307  1.8022 -1.3804
  664MOL0     H89634   1.465   0.927   1.098  1.6174  1.5241 -0.1786
  664MOL0     H89635   1.440   0.918   1.266  0.4711  2.4737 -0.1207
  664MOL0     H89636   1.684   0.760   1.139  0.5464 -0.9052  0.7559
  664MOL0     H89637   1.526   0.688   1.155  0.2541 -1.2308  0.3739
  664MOL0     H89638   1.644   0.694   1.561  0.3998  1.4975  0.7363
  664MOL0     H89639   1.453   1.244   0.800  0.0456  3.2142  1.9001
  664MOL0     H89640   1.209   1.259   0.728 -3.9591  2.0715  1.4252
  665MOL0     O89641   8.176   9.606  11.324 -0.9560  0.5504 -0.1352
  665MOL0     C89642   8.270   9.693  11.344  1.5370  0.3733 -0.6335
  665MOL0     O89643   8.253   9.816  11.411  0.2503  0.9683 -0.7887
  665MOL0     C89644   8.140   9.824  11.486 -0.8039 -0.1933 -0.2891
  665MOL0     C89645   8.014   9.813  11.423  0.2171  0.1091 -0.1806
  665MOL0     C89646   7.896   9.820  11.492 -0.4582  1.0364  0.6799
  665MOL0     C89647   7.903   9.831  11.632  1.1428  0.1138 -0.8286
  665MOL0     O89648   7.794   9.848  11.706  0.3801  0.3926 -0.4538
  665MOL0     C89649   7.659   9.837  11.647 -0.5350  1.0458  0.3733
  665MOL0     C89650   7.557   9.814  11.755  0.0818  0.0348 -0.2214
  665MOL0     C89651   7.423   9.766  11.699 -0.0479 -0.1474  0.2373
  665MOL0     C89652   7.309   9.727  11.803  0.0716  0.0040  0.4754
  665MOL0     C89653   7.191   9.654  11.755  0.3844  0.5632 -0.9476
  665MOL0     C89654   7.100   9.744  11.669 -0.0590  0.3860 -0.1300
  665MOL0     C89655   6.975   9.672  11.636  0.9105  0.0485  0.0473
  665MOL0     C89656   6.915   9.740  11.520  0.3330 -0.3245  0.8525
  665MOL0     N89657   6.790   9.668  11.485 -0.6817  0.2254  0.3560
  665MOL0     C89658   6.727   9.676  11.362  0.6091  0.4712  0.3761
  665MOL0     C89659   6.626   9.580  11.376  0.4910  0.7361 -0.7386
  665MOL0     C89660   6.521   9.563  11.277 -0.6287 -0.7045  0.6018
  665MOL0     C89661   6.454   9.701  11.252 -0.5574  0.0255  0.4953
  665MOL0     C89662   6.327   9.699  11.175 -0.1705 -0.2549  0.7849
  665MOL0     C89663   6.226   9.609  11.253 -0.8089  0.2788 -0.7295
  665MOL0     O89664   6.099   9.644  11.184 -0.1091  0.1587 -0.5231
  665MOL0     C89665   5.983   9.586  11.230  0.0547  0.4132 -0.2836
  665MOL0     C89666   5.973   9.478  11.316  0.4217  0.0394 -0.1622
  665MOL0     C89667   5.856   9.420  11.354 -0.3981  0.3019  0.5400
  665MOL0     C89668   5.863   9.290  11.423 -0.0018 -0.4991 -0.4455
  665MOL0     C89669   5.738   9.478  11.305  0.0712  0.4621 -0.1412
  665MOL0     C89670   5.598   9.422  11.310 -0.1026  0.0755  1.1747
  665MOL0     O89671   5.499   9.489  11.229 -0.1310  0.0266  0.4516
  665MOL0     C89672   5.383   9.425  11.205 -1.0048 -0.7494  0.4868
  665MOL0     C89673   5.375   9.294  11.158  0.2830 -0.0712 -0.2272
  665MOL0     C89674   5.266   9.240  11.097  0.3682 -0.3687  0.2904
  665MOL0     C89675   5.151   9.328  11.076 -0.4968  1.0298  0.2789
  665MOL0     O89676   5.040   9.273  11.023 -0.4664 -0.7180 -1.1062
  665MOL0     C89677   4.948   9.366  10.974  0.2371 -0.7247 -0.5103
  665MOL0     C89678   4.859   9.301  10.869 -0.0582  0.5769 -0.3870
  665MOL0     C89679   4.726   9.373  10.848  1.1307  0.9336 -0.1569
  665MOL0     C89680   4.640   9.395  10.976  0.2330  0.4082  1.1752
  665MOL0     C89681   4.489   9.405  10.959 -0.0783 -0.4371 -0.3259
  665MOL0     C89682   4.440   9.465  11.084  0.5061 -0.4437 -0.2264
  665MOL0     C89683   4.284   9.471  11.087  0.4133 -0.7638  0.3587
  665MOL0     C89684   4.225   9.508  11.231 -0.0536  0.8426 -0.7856
  665MOL0    Cl89685   4.045   9.493  11.252 -1.0277 -0.1659 -0.0251
  665MOL0     C89686   5.158   9.458  11.138 -0.6867  0.7719 -0.4563
  665MOL0     C89687   5.274   9.507  11.206  0.3649  0.1000  0.4018
  665MOL0     O89688   5.588   9.315  11.363  0.1701  0.5315  0.0981
  665MOL0     C89689   5.756   9.593  11.217  0.0292 -0.3327 -0.4672
  665MOL0     C89690   5.874   9.646  11.174  0.2366  0.5008  0.1233
  665MOL0     N89691   6.626   9.534  11.506  0.1987 -0.1657  0.5657
  665MOL0     N89692   6.716   9.587  11.566 -0.4545 -0.1957 -1.0352
  665MOL0     C89693   8.028   9.851  11.693  0.1640  0.0086 -0.6990
  665MOL0     C89694   8.144   9.842  11.622  0.1343  0.2752 -0.0383
  665MOL0     C89695   8.403   9.673  11.280  0.4754  0.3592  0.0854
  665MOL0     C89696   8.496   9.774  11.267 -0.3470 -0.3292  0.9734
  665MOL0     C89697   8.621   9.759  11.205 -0.6012  0.4417  0.0162
  665MOL0     C89698   8.658   9.623  11.156  0.8787 -0.2914  1.0074
  665MOL0     O89699   8.785   9.598  11.100 -0.1713 -0.5414 -0.6633
  665MOL0     C89700   8.880   9.563  11.203 -0.9027  0.7274  0.4445
  665MOL0     C89701   9.014   9.532  11.139  0.2963  0.1762  0.0761
  665MOL0     C89702   9.008   9.419  11.033 -0.6950 -0.2029  0.7492
  665MOL0     C89703   9.148   9.379  10.970 -0.1131 -0.4654 -0.3237
  665MOL0     C89704   9.210   9.491  10.898  0.7260  0.0383 -0.2750
  665MOL0     C89705   9.256   9.587  10.838  0.1925 -0.6189  0.3174
  665MOL0     C89706   8.562   9.520  11.155  0.2788 -0.3682 -0.5146
  665MOL0     C89707   8.440   9.549  11.229  0.7812  1.4089 -0.9739
  665MOL0     H89708   8.013   9.788  11.317  1.2809  0.8303 -0.3882
  665MOL0     H89709   7.801   9.810  11.440  0.6895 -0.9058 -1.1956
  665MOL0     H89710   7.640   9.919  11.577 -2.5142 -1.0084 -1.6379
  665MOL0     H89711   7.661   9.745  11.588  2.5146  0.7200  0.7998
  665MOL0     H89712   7.597   9.748  11.833  1.1415  2.9893  1.9438
  665MOL0     H89713   7.545   9.908  11.809 -1.0940 -0.4883  0.4650
  665MOL0     H89714   7.382   9.853  11.647  1.2617  0.5777  0.3638
  665MOL0     H89715   7.439   9.689  11.623  0.0745  1.3581 -1.3176
  665MOL0     H89716   7.352   9.662  11.880  0.5299  0.3526  0.5162
  665MOL0     H89717   7.268   9.811  11.860 -4.1291 -1.2828 -0.2651
  665MOL0     H89718   7.218   9.568  11.692  3.4512  0.8845 -0.2178
  665MOL0     H89719   7.143   9.609  11.842  2.3643  0.9101  0.3679
  665MOL0     H89720   7.083   9.834  11.729  0.7558  0.4546  0.0057
  665MOL0     H89721   7.155   9.771  11.579  2.3335  0.7547  1.3521
  665MOL0     H89722   6.998   9.569  11.608  1.0417 -0.4857  1.9852
  665MOL0     H89723   6.912   9.676  11.725  0.3973  0.6816 -0.3255
  665MOL0     H89724   6.986   9.750  11.437 -0.0258 -3.5519  0.0212
  665MOL0     H89725   6.892   9.839  11.560 -0.6824 -0.2768  0.1960
  665MOL0     H89726   6.747   9.724  11.267 -2.6342 -0.1576 -0.7449
  665MOL0     H89727   6.561   9.518  11.186  2.4929  2.8305  0.0187
  665MOL0     H89728   6.452   9.494  11.327  0.9184 -2.3967  0.4890
  665MOL0     H89729   6.522   9.763  11.193 -1.3312 -1.8759 -2.5805
  665MOL0     H89730   6.433   9.749  11.349  1.6262  0.3292  0.8873
  665MOL0     H89731   6.350   9.649  11.080  0.5426  1.2278  0.1426
  665MOL0     H89732   6.287   9.800  11.164 -1.2673 -0.7234  0.3927
  665MOL0     H89733   6.218   9.649  11.355  1.0496 -1.4163  0.1549
  665MOL0     H89734   6.240   9.500  11.249  0.3923  0.4428 -1.2301
  665MOL0     H89735   6.065   9.434  11.354  1.2398 -0.3624 -2.4793
  665MOL0     H89736   5.847   9.217  11.343 -0.5450 -0.7226 -0.1459
  665MOL0     H89737   5.956   9.276  11.478 -0.6048 -2.3337  0.1786
  665MOL0     H89738   5.792   9.278  11.506  0.8321 -1.0861  0.1871
  665MOL0     H89739   5.467   9.236  11.155  1.0419  1.1261 -2.3777
  665MOL0     H89740   5.256   9.135  11.072 -1.1888 -0.5482  1.4938
  665MOL0     H89741   4.890   9.398  11.060 -0.2937  2.7779 -1.9926
  665MOL0     H89742   5.004   9.443  10.920  2.6253 -0.9061  1.5146
  665MOL0     H89743   4.917   9.306  10.776  0.2878  2.7763 -0.1116
  665MOL0     H89744   4.845   9.198  10.902 -1.2165  0.8250 -0.0774
  665MOL0     H89745   4.670   9.322  10.768  3.5949 -2.2936 -0.0385
  665MOL0     H89746   4.743   9.473  10.808 -4.4668  1.7389 -1.3827
  665MOL0     H89747   4.649   9.309  11.043 -3.3029 -1.0228  0.0250
  665MOL0     H89748   4.676   9.487  11.022  1.3556  0.4797  0.1767
  665MOL0     H89749   4.439   9.308  10.956 -0.8118 -0.1081  0.7967
  665MOL0     H89750   4.466   9.470  10.874  1.2511 -1.3070 -1.4055
  665MOL0     H89751   4.459   9.410  11.176 -2.8497  1.5488  1.8729
  665MOL0     H89752   4.478   9.568  11.090 -0.0007 -0.3446  2.2396
  665MOL0     H89753   4.245   9.377  11.047  2.9474 -1.5666 -0.4339
  665MOL0     H89754   4.256   9.558  11.027  0.5477 -0.4297  0.7717
  665MOL0     H89755   4.245   9.613  11.255 -0.5709  0.9099 -0.6344
  665MOL0     H89756   4.270   9.442  11.305  0.3122  2.1067  0.1734
  665MOL0     H89757   5.084   9.538  11.132  0.3946  2.1989  2.8509
  665MOL0     H89758   5.282   9.608  11.244  2.7848  0.2116 -0.2528
  665MOL0     H89759   5.662   9.641  11.190 -1.1257 -1.6643  0.9735
  665MOL0     H89760   5.895   9.728  11.106 -1.8510  1.1001  0.1439
  665MOL0     H89761   8.039   9.865  11.800  0.1609 -3.0732 -0.2080
  665MOL0     H89762   8.242   9.852  11.669 -0.0724  0.3026  0.3935
  665MOL0     H89763   8.477   9.877  11.298  2.5210  0.6290 -0.0808
  665MOL0     H89764   8.701   9.832  11.201 -0.4573  0.4176  1.6836
  665MOL0     H89765   8.886   9.647  11.273  1.6544 -0.4091  1.7542
  665MOL0     H89766   8.841   9.471  11.249 -2.3641 -0.2121 -2.4389
  665MOL0     H89767   9.093   9.513  11.212  0.2180  0.5042  0.2485
  665MOL0     H89768   9.041   9.628  11.095  0.2867  1.2227  2.2378
  665MOL0     H89769   8.943   9.455  10.952 -0.0248  0.2257  0.3897
  665MOL0     H89770   8.963   9.327  11.070 -1.8264 -0.7485 -1.7543
  665MOL0     H89771   9.141   9.291  10.905  3.1434 -2.2397  1.4481
  665MOL0     H89772   9.216   9.335  11.044  0.6241 -0.5049 -1.0120
  665MOL0     H89773   9.293   9.679  10.798 -0.8781  1.8019  4.2509
  665MOL0     H89774   8.579   9.423  11.109 -3.0623 -2.5192  2.2514
  665MOL0     H89775   8.360   9.476  11.234  2.0842  0.0290  0.9655
  666MOL0     O89776   9.931  10.597   7.593 -0.5458 -0.5468 -0.3703
  666MOL0     C89777   9.978  10.534   7.496  0.6943 -0.4196 -0.0778
  666MOL0     O89778   9.930  10.530   7.370 -0.3657  0.5556  0.0609
  666MOL0     C89779   9.829  10.616   7.352  0.6393  0.0574 -0.3103
  666MOL0     C89780   9.848  10.744   7.312 -0.5151 -0.2419  0.4840
  666MOL0     C89781   9.751  10.841   7.314 -0.4173 -0.0902  0.6031
  666MOL0     C89782   9.625  10.801   7.346 -0.5266  0.2506 -0.4342
  666MOL0     O89783   9.540  10.903   7.324  0.2956  0.2368 -0.4035
  666MOL0     C89784   9.423  10.894   7.391  0.3303  0.0025 -0.4482
  666MOL0     C89785   9.337  11.007   7.330  0.0332  0.2798  0.2821
  666MOL0     C89786   9.209  11.007   7.421  0.5255  0.7311 -0.6442
  666MOL0     C89787   9.091  11.067   7.339  0.6990  0.3369 -0.6281
  666MOL0     C89788   8.970  11.110   7.425 -0.8096  0.2897 -0.3884
  666MOL0     C89789   8.861  11.189   7.350  0.6278 -0.0639 -0.1041
  666MOL0     C89790   8.736  11.202   7.433  0.5499  0.3486 -0.8932
  666MOL0     C89791   8.649  11.073   7.411  0.4374  0.4631 -1.5469
  666MOL0     N89792   8.519  11.107   7.341  0.1808 -0.1042 -0.5132
  666MOL0     C89793   8.392  11.106   7.399 -0.5256 -0.1690  0.1472
  666MOL0     C89794   8.304  11.155   7.315 -0.2625 -0.3295  1.1308
  666MOL0     C89795   8.161  11.164   7.332 -0.2442  0.7373  0.2332
  666MOL0     C89796   8.082  11.256   7.231  0.3960  0.2361 -0.2335
  666MOL0     C89797   7.947  11.288   7.278  1.0800  0.2960 -0.1292
  666MOL0     C89798   7.853  11.173   7.301  0.0279  0.0977  0.3754
  666MOL0     O89799   7.709  11.197   7.300 -0.5423  0.4824 -0.0093
  666MOL0     C89800   7.639  11.242   7.188 -0.0285  0.2147 -0.7277
  666MOL0     C89801   7.519  11.301   7.227 -0.8588  0.5549  0.8318
  666MOL0     C89802   7.438  11.356   7.128 -0.2792 -0.2745  1.0049
  666MOL0     C89803   7.300  11.410   7.160 -0.5449  1.0190 -0.2754
  666MOL0     C89804   7.485  11.365   6.998  0.1107  0.5845  0.2665
  666MOL0     C89805   7.415  11.439   6.893  0.3205 -0.3462  0.1865
  666MOL0     O89806   7.436  11.393   6.770  0.2229 -0.2781  0.4253
  666MOL0     C89807   7.386  11.471   6.667  0.3353  0.3994  0.5024
  666MOL0     C89808   7.245  11.476   6.639 -0.6110  0.1778  0.4261
  666MOL0     C89809   7.207  11.548   6.524  0.1656 -0.2702  0.5271
  666MOL0     C89810   7.298  11.607   6.442  0.5969 -0.3135  0.1770
  666MOL0     O89811   7.253  11.671   6.332  0.5026 -0.1816  0.4325
  666MOL0     C89812   7.195  11.585   6.232 -0.2552  0.7349  0.0565
  666MOL0     C89813   7.234  11.633   6.097 -0.2920  0.5241  0.6986
  666MOL0     C89814   7.125  11.709   6.027 -0.0410 -0.8630 -0.4529
  666MOL0     C89815   7.174  11.723   5.879  0.5337 -0.9457 -0.1554
  666MOL0     C89816   7.088  11.825   5.811  1.1105 -0.0020 -0.3209
  666MOL0     C89817   7.074  11.815   5.653 -0.3099 -0.3275 -0.1259
  666MOL0     C89818   7.000  11.939   5.604 -0.0098 -0.6350 -0.0975
  666MOL0     C89819   6.951  11.926   5.453 -1.0173  0.0643 -0.0509
  666MOL0    Cl89820   6.838  12.048   5.398  0.3384  0.1747 -0.7736
  666MOL0     C89821   7.439  11.600   6.470  0.6767  0.1484  0.1516
  666MOL0     C89822   7.484  11.526   6.578 -0.0597 -0.9749 -0.0707
  666MOL0     O89823   7.373  11.553   6.919  0.4341 -0.5359  0.1819
  666MOL0     C89824   7.602  11.293   6.963 -0.2883  0.5059 -0.4841
  666MOL0     C89825   7.678  11.228   7.053 -0.2626  0.3901  0.2834
  666MOL0     N89826   8.382  11.182   7.197 -0.2398  0.2738 -0.6062
  666MOL0     N89827   8.511  11.146   7.213  0.7135 -0.6037 -0.3304
  666MOL0     C89828   9.602  10.668   7.376  0.3879 -0.9684 -0.6110
  666MOL0     C89829   9.700  10.570   7.380  0.0861  0.6060 -0.1215
  666MOL0     C89830  10.080  10.439   7.528 -0.0821 -0.0284  0.7587
  666MOL0     C89831  10.205  10.453   7.468 -0.3744  0.2008 -0.0955
  666MOL0     C89832  10.309  10.376   7.506 -0.4331  0.3038  0.7239
  666MOL0     C89833  10.296  10.280   7.610 -0.0557 -0.2463  0.0420
  666MOL0     O89834  10.398  10.205   7.666 -0.4557  0.2670 -0.2430
  666MOL0     C89835  10.534  10.214   7.624 -0.5479 -0.5072  0.0778
  666MOL0     C89836  10.563  10.165   7.482 -0.7943  0.0193  0.0483
  666MOL0     C89837  10.506  10.026   7.458  0.0275  0.6812 -0.3121
  666MOL0     C89838  10.503   9.990   7.311  1.3435  0.2986  0.2753
  666MOL0     C89839  10.638  10.020   7.252  0.5755  0.2631 -0.5390
  666MOL0     C89840  10.746  10.065   7.217 -0.7940  0.0886  0.5625
  666MOL0     C89841  10.170  10.262   7.666  0.2239 -0.5576  0.4323
  666MOL0     C89842  10.060  10.342   7.627  0.0531  1.0583 -0.3121
  666MOL0     H89843   9.948  10.775   7.284 -0.3619  0.1686  1.4337
  666MOL0     H89844   9.782  10.942   7.288 -0.7039 -0.1337  0.0770
  666MOL0     H89845   9.367  10.801   7.377  0.1456 -0.0786  0.7634
  666MOL0     H89846   9.433  10.911   7.498 -0.5093 -2.2262  0.0518
  666MOL0     H89847   9.387  11.104   7.322 -0.9875  0.9843  2.0172
  666MOL0     H89848   9.320  10.964   7.230 -0.0965 -0.2690  0.5379
  666MOL0     H89849   9.160  10.913   7.448  1.8314  0.3712  0.6295
  666MOL0     H89850   9.224  11.060   7.515  2.8967  0.0352 -0.5618
  666MOL0     H89851   9.136  11.157   7.295  1.2937  1.2078  1.5873
  666MOL0     H89852   9.065  11.002   7.255  2.7111  1.7865 -2.4982
  666MOL0     H89853   8.929  11.026   7.481  2.0327  1.3839  3.8564
  666MOL0     H89854   9.006  11.177   7.504 -0.5668  0.7079 -0.8512
  666MOL0     H89855   8.903  11.287   7.328  0.8367  0.7703  3.3361
  666MOL0     H89856   8.840  11.138   7.256 -0.3101 -1.5348  0.8499
  666MOL0     H89857   8.760  11.218   7.539  2.0709 -2.2047 -0.7676
  666MOL0     H89858   8.679  11.286   7.394  1.4158  1.2600 -0.2622
  666MOL0     H89859   8.637  11.033   7.513  0.6122  1.3070 -1.1836
  666MOL0     H89860   8.691  10.987   7.358  0.2791 -2.1573  2.1421
  666MOL0     H89861   8.373  11.091   7.505 -1.2199  4.8787  0.9959
  666MOL0     H89862   8.133  11.059   7.326  4.2491 -0.7736  1.8055
  666MOL0     H89863   8.150  11.191   7.437 -0.9874 -0.3539  0.4515
  666MOL0     H89864   8.061  11.203   7.137 -2.9025  2.0804 -0.7085
  666MOL0     H89865   8.146  11.337   7.196 -0.3638  0.7530 -0.4725
  666MOL0     H89866   7.906  11.360   7.206  0.7941  2.0337  1.6935
  666MOL0     H89867   7.953  11.343   7.372  0.8653  1.9263 -1.0225
  666MOL0     H89868   7.879  11.133   7.400 -2.9049 -0.1247  1.1373
  666MOL0     H89869   7.881  11.101   7.223  2.6120  2.2392 -0.8157
  666MOL0     H89870   7.490  11.306   7.331 -0.4389 -0.4022  1.0001
  666MOL0     H89871   7.246  11.377   7.250 -1.8674 -1.8589 -1.9828
  666MOL0     H89872   7.295  11.519   7.163 -3.1929  1.0300 -2.1881
  666MOL0     H89873   7.240  11.381   7.074 -0.9791  0.9673  0.0390
  666MOL0     H89874   7.170  11.422   6.696 -1.2128 -0.0377 -0.5340
  666MOL0     H89875   7.103  11.560   6.495  1.1312  1.3737 -2.6218
  666MOL0     H89876   7.240  11.487   6.249  0.0388  0.8600  0.0068
  666MOL0     H89877   7.089  11.560   6.237 -0.1429  0.3220  0.4760
  666MOL0     H89878   7.322  11.697   6.111 -0.5262  1.5367 -1.9911
  666MOL0     H89879   7.261  11.547   6.035  3.3756  2.6308 -1.0012
  666MOL0     H89880   7.116  11.805   6.079 -0.4323  1.0191 -3.7040
  666MOL0     H89881   7.032  11.655   6.044 -1.1474  0.0046 -3.1736
  666MOL0     H89882   7.279  11.752   5.885  0.6189 -1.2470 -0.1697
  666MOL0     H89883   7.174  11.635   5.813  1.8027 -0.7748 -0.4146
  666MOL0     H89884   7.130  11.921   5.842  0.7631 -0.2309  0.9187
  666MOL0     H89885   6.989  11.813   5.855  2.0321 -1.2813  1.4762
  666MOL0     H89886   7.174  11.815   5.611 -1.2700 -0.2527 -2.5691
  666MOL0     H89887   7.021  11.722   5.630  0.5800 -0.3159 -2.3988
  666MOL0     H89888   7.063  12.025   5.582  0.8043 -1.7687 -2.5673
  666MOL0     H89889   6.914  11.968   5.664  0.9770  1.7278  0.2662
  666MOL0     H89890   6.904  11.827   5.445 -1.1961  0.1493 -0.0590
  666MOL0     H89891   7.039  11.925   5.388 -1.6997  2.8667 -1.1705
  666MOL0     H89892   7.514  11.640   6.403  0.7911  0.9972  0.7588
  666MOL0     H89893   7.586  11.495   6.601  0.2467  0.7400  1.0297
  666MOL0     H89894   7.640  11.296   6.862  1.4273 -0.2041  0.1018
  666MOL0     H89895   7.774  11.182   7.031  0.6122  1.6621  1.3392
  666MOL0     H89896   9.502  10.635   7.404  1.0701 -0.6955  2.6156
  666MOL0     H89897   9.677  10.467   7.405 -1.1402 -0.4607 -4.7501
  666MOL0     H89898  10.218  10.548   7.417 -2.1394 -0.1019 -1.1731
  666MOL0     H89899  10.405  10.403   7.465 -0.1234 -1.5321  0.1447
  666MOL0     H89900  10.562  10.318   7.642 -0.6934 -0.7204  1.6823
  666MOL0     H89901  10.601  10.164   7.695  0.4949  1.1718  0.3316
  666MOL0     H89902  10.671  10.167   7.471 -1.0018 -1.1227 -3.5765
  666MOL0     H89903  10.520  10.228   7.403  1.0053  0.7654 -0.3739
  666MOL0     H89904  10.400  10.014   7.485 -0.5469  1.0349 -2.2849
  666MOL0     H89905  10.568   9.953   7.510  0.4694  1.4638  0.2931
  666MOL0     H89906  10.432  10.054   7.259  0.2678 -1.4742 -0.5519
  666MOL0     H89907  10.466   9.887   7.301  1.3395  0.2777  0.5129
  666MOL0     H89908  10.844  10.101   7.195 -1.5304  2.5140  1.0191
  666MOL0     H89909  10.177  10.190   7.748 -1.0999 -1.4453 -0.2029
  666MOL0     H89910   9.972  10.328   7.688  0.5947 -4.6096 -0.2412
  667MOL0     O89911   9.043   9.458   9.037  0.1217  0.2290  0.6601
  667MOL0     C89912   9.025   9.428   9.151  0.0875 -0.4423 -0.6138
  667MOL0     O89913   9.124   9.439   9.248  0.3599 -0.3245 -0.2653
  667MOL0     C89914   9.254   9.447   9.211 -0.8649  0.2953  0.0911
  667MOL0     C89915   9.340   9.539   9.268  0.0991 -0.3126  0.6313
  667MOL0     C89916   9.485   9.535   9.238 -0.0737  0.6117 -0.1732
  667MOL0     C89917   9.532   9.437   9.148 -1.1090  0.4688 -0.0204
  667MOL0     O89918   9.673   9.430   9.153  0.5024 -0.6887  1.0467
  667MOL0     C89919   9.742   9.344   9.060  0.8171 -0.3073  0.5397
  667MOL0     C89920   9.838   9.437   8.990  0.0198 -0.6211  0.5870
  667MOL0     C89921   9.775   9.552   8.912  0.6237  0.4314 -0.1930
  667MOL0     C89922   9.655   9.518   8.827 -0.5306 -0.5020 -0.1561
  667MOL0     C89923   9.613   9.647   8.748 -0.2862  0.4591  0.5635
  667MOL0     C89924   9.558   9.758   8.831  0.4838 -0.3019  0.1793
  667MOL0     C89925   9.417   9.738   8.880 -0.4911  0.6481  0.3732
  667MOL0     C89926   9.361   9.861   8.955 -0.6263  0.3193 -0.1936
  667MOL0     N89927   9.218   9.869   8.939 -0.6692 -0.8342  0.5558
  667MOL0     C89928   9.115   9.778   8.953 -1.2338  0.4421  0.3320
  667MOL0     C89929   9.006   9.838   8.909  0.3682 -0.9916  0.4766
  667MOL0     C89930   8.867   9.792   8.914  0.6724 -0.0735 -0.4495
  667MOL0     C89931   8.808   9.852   9.045  0.0512 -0.4506  0.7497
  667MOL0     C89932   8.649   9.842   9.040  0.2713  0.4994 -0.2520
  667MOL0     C89933   8.591   9.922   9.158  1.1076  0.0394  0.1481
  667MOL0     O89934   8.449   9.930   9.141  0.5748 -0.6282 -0.0755
  667MOL0     C89935   8.370   9.818   9.142  0.6334 -0.2581 -0.0497
  667MOL0     C89936   8.247   9.815   9.073 -0.9652 -0.8271 -0.6075
  667MOL0     C89937   8.171   9.700   9.078  0.8204  0.2976 -0.0157
  667MOL0     C89938   8.039   9.701   9.016 -0.3698  0.0897  0.9528
  667MOL0     C89939   8.218   9.589   9.149  0.9961  0.2712 -0.1712
  667MOL0     C89940   8.147   9.458   9.157  0.0208 -0.5818 -0.2632
  667MOL0     O89941   8.213   9.342   9.135 -0.4501  0.0818 -0.0068
  667MOL0     C89942   8.150   9.226   9.104  1.0313  0.5617 -1.5342
  667MOL0     C89943   8.243   9.121   9.104  0.8218  0.7945  0.1638
  667MOL0     C89944   8.209   8.993   9.068  0.1042 -0.3391  0.2405
  667MOL0     C89945   8.074   8.961   9.040  0.0971 -1.2659  0.0176
  667MOL0     O89946   8.057   8.846   8.975 -0.0321 -0.0855  0.2409
  667MOL0     C89947   8.041   8.724   9.049 -0.9280  0.1849 -0.2872
  667MOL0     C89948   8.003   8.618   8.945 -0.7875  0.0609  0.1237
  667MOL0     C89949   8.101   8.602   8.830 -1.2728  0.4743  0.0983
  667MOL0     C89950   8.244   8.582   8.883 -0.2091 -0.5851  0.6484
  667MOL0     C89951   8.337   8.555   8.761 -1.2295 -0.2028 -0.8709
  667MOL0     C89952   8.340   8.639   8.641  0.1889 -0.3803 -1.1566
  667MOL0     C89953   8.398   8.782   8.671  0.9346  0.8915 -0.0785
  667MOL0     C89954   8.378   8.877   8.544 -0.1820 -0.1981  0.8058
  667MOL0    Cl89955   8.491   8.826   8.413  0.0334 -0.5185  0.0237
  667MOL0     C89956   7.974   9.060   9.058 -0.5561  0.8949  0.7212
  667MOL0     C89957   8.011   9.194   9.098 -0.9071 -0.3236  0.0533
  667MOL0     O89958   8.034   9.460   9.210  0.3243  0.3178 -0.6580
  667MOL0     C89959   8.332   9.594   9.221 -0.2768 -0.3852  0.1785
  667MOL0     C89960   8.408   9.711   9.220  0.2551  0.2005 -0.0268
  667MOL0     N89961   9.034   9.958   8.851 -0.0574  0.9427  0.2441
  667MOL0     N89962   9.162   9.980   8.877  0.3521  0.5528  0.2685
  667MOL0     C89963   9.437   9.349   9.089  0.2885  0.3537  0.1668
  667MOL0     C89964   9.305   9.342   9.128 -0.3181 -0.6550  0.0078
  667MOL0     C89965   8.895   9.370   9.192  0.6143  0.4034  0.2932
  667MOL0     C89966   8.769   9.391   9.123 -0.9355  0.0035  0.2923
  667MOL0     C89967   8.648   9.339   9.169 -0.4144 -1.3915 -0.6856
  667MOL0     C89968   8.642   9.263   9.284  0.2192  0.1992  1.0404
  667MOL0     O89969   8.518   9.212   9.313 -0.0132 -0.5829  0.0036
  667MOL0     C89970   8.505   9.176   9.453  0.1741  0.7943  0.0336
  667MOL0     C89971   8.352   9.162   9.486  0.3763  1.1823  0.4664
  667MOL0     C89972   8.320   9.123   9.630  0.0832 -0.2828  0.1687
  667MOL0     C89973   8.406   9.000   9.676 -0.7460  0.1112  0.5205
  667MOL0     C89974   8.337   8.937   9.790  0.8003 -0.3825  0.9564
  667MOL0     C89975   8.278   8.879   9.881 -0.2189  0.9322 -1.3142
  667MOL0     C89976   8.761   9.238   9.349 -0.3963 -0.5318  0.3833
  667MOL0     C89977   8.886   9.287   9.303  0.1400 -0.2778 -0.0747
  667MOL0     H89978   9.298   9.613   9.335 -0.4023  1.8534 -1.9655
  667MOL0     H89979   9.558   9.596   9.290  0.9649 -1.9755  1.6558
  667MOL0     H89980   9.810   9.277   9.113  1.2098 -0.0685  0.3470
  667MOL0     H89981   9.686   9.282   8.989  1.0493 -0.4797  0.5045
  667MOL0     H89982   9.905   9.486   9.060 -1.8218  3.0881 -0.0408
  667MOL0     H89983   9.899   9.378   8.920  0.8437 -0.1959  0.9385
  667MOL0     H89984   9.744   9.631   8.981 -0.4471 -0.2887  0.1757
  667MOL0     H89985   9.847   9.591   8.839  0.7843 -2.4079 -1.6700
  667MOL0     H89986   9.687   9.446   8.751  1.0208 -0.8730  0.7839
  667MOL0     H89987   9.574   9.484   8.891  0.8380  2.5270  3.5879
  667MOL0     H89988   9.697   9.701   8.704  1.1448 -1.9648  0.1271
  667MOL0     H89989   9.540   9.613   8.674  0.8586 -0.5143 -0.1475
  667MOL0     H89990   9.616   9.785   8.920 -0.5754 -0.8292  1.0542
  667MOL0     H89991   9.557   9.843   8.763  0.4868 -0.8342 -0.4937
  667MOL0     H89992   9.350   9.707   8.800  0.5639 -2.7570  0.6638
  667MOL0     H89993   9.415   9.663   8.959  1.5228 -2.8280 -2.5933
  667MOL0     H89994   9.414   9.956   8.939 -0.9194  0.5401  0.1296
  667MOL0     H89995   9.378   9.838   9.060 -0.1698  0.2226 -0.2856
  667MOL0     H89996   9.115   9.683   9.005 -2.8775 -0.2610 -0.8837
  667MOL0     H89997   8.812   9.836   8.830  0.8422 -0.6129 -0.8445
  667MOL0     H89998   8.856   9.684   8.904 -0.5703  0.1990 -3.0227
  667MOL0     H89999   8.850   9.951   9.066  1.4872 -0.4168 -1.9131
  667MOL0     H90000   8.842   9.794   9.132 -3.5573 -1.1999  1.8082
  667MOL0     H90001   8.630   9.736   9.057  0.1979  0.4813 -0.4490
  667MOL0     H90002   8.606   9.871   8.944  2.1315  1.9500 -0.7069
  667MOL0     H90003   8.627  10.022   9.134  1.0534 -0.2167 -1.0644
  667MOL0     H90004   8.616   9.902   9.262  1.6947  5.2140  1.2516
  667MOL0     H90005   8.236   9.901   9.007  0.4149  0.6149  0.9479
  667MOL0     H90006   8.025   9.622   8.942  0.3893 -1.1422  2.0813
  667MOL0     H90007   7.964   9.676   9.092 -0.6099 -1.5315  0.2189
  667MOL0     H90008   8.014   9.794   8.963  0.5141 -0.6802 -0.9318
  667MOL0     H90009   8.350   9.141   9.109  1.2919 -0.8716 -1.8346
  667MOL0     H90010   8.285   8.917   9.055  0.9007  0.3977  0.4812
  667MOL0     H90011   8.120   8.691   9.117 -2.8913 -0.2494  1.8987
  667MOL0     H90012   7.964   8.734   9.126 -0.5040 -0.8299  0.2898
  667MOL0     H90013   7.987   8.525   9.000  1.3941 -0.7038 -0.4598
  667MOL0     H90014   7.915   8.650   8.887  0.1354  1.4381 -0.5732
  667MOL0     H90015   8.092   8.683   8.757 -1.4401 -1.0962 -1.7075
  667MOL0     H90016   8.083   8.505   8.783  1.6134  0.9855 -2.3957
  667MOL0     H90017   8.290   8.676   8.915  0.1193  0.8513 -3.4189
  667MOL0     H90018   8.242   8.510   8.965 -1.2165  0.1011  1.2552
  667MOL0     H90019   8.325   8.452   8.726 -0.3151 -0.3386 -0.8202
  667MOL0     H90020   8.436   8.554   8.807 -1.5792  1.3821  0.0078
  667MOL0     H90021   8.402   8.598   8.561 -0.1642 -0.5501 -1.3440
  667MOL0     H90022   8.238   8.645   8.603  0.5967 -1.7546 -2.5857
  667MOL0     H90023   8.504   8.769   8.693  0.9389 -1.2821 -1.1247
  667MOL0     H90024   8.346   8.835   8.752  1.7154  0.3580  0.7904
  667MOL0     H90025   8.404   8.979   8.574  3.7293 -1.1214  1.1512
  667MOL0     H90026   8.275   8.881   8.509  0.2261 -0.2887 -0.4395
  667MOL0     H90027   7.873   9.028   9.036  0.6296 -2.2294 -0.7621
  667MOL0     H90028   7.939   9.274   9.112  2.5731  2.8397  1.5548
  667MOL0     H90029   8.364   9.507   9.279  1.4497  0.9073  1.2718
  667MOL0     H90030   8.504   9.717   9.270  0.5533 -0.5083 -0.4917
  667MOL0     H90031   9.482   9.273   9.025  1.5660 -0.7081  2.2144
  667MOL0     H90032   9.237   9.268   9.088 -0.0200 -1.4069  0.8640
  667MOL0     H90033   8.781   9.448   9.031 -0.8820  0.7159  0.7293
  667MOL0     H90034   8.548   9.360   9.132 -0.7212  2.1768  1.6176
  667MOL0     H90035   8.556   9.080   9.468 -0.3503  0.3223 -1.0774
  667MOL0     H90036   8.545   9.242   9.530 -0.6647  2.8852 -1.2434
  667MOL0     H90037   8.300   9.095   9.416  0.9633  0.1679  0.9882
  667MOL0     H90038   8.303   9.259   9.472 -1.8969  0.4526  2.5958
  667MOL0     H90039   8.217   9.086   9.625  0.2895 -0.9102  0.3725
  667MOL0     H90040   8.330   9.213   9.690  3.6961  0.2891 -1.0585
  667MOL0     H90041   8.510   9.027   9.694 -0.8788  1.7196 -0.8560
  667MOL0     H90042   8.423   8.930   9.594  0.8137  1.7113 -0.6109
  667MOL0     H90043   8.217   8.843   9.961  1.2631  0.4566 -0.3570
  667MOL0     H90044   8.771   9.171   9.434  0.6035  0.3305  0.9602
  667MOL0     H90045   8.977   9.268   9.358  0.5948 -1.7903 -1.2509
  668MOL0     O90046   3.396   7.164   1.031  0.1325 -0.4283 -0.1152
  668MOL0     C90047   3.461   7.064   1.044 -0.4042 -0.0941 -0.3810
  668MOL0     O90048   3.431   6.955   0.969 -0.2985  0.7860  1.0236
  668MOL0     C90049   3.306   6.928   0.905 -0.2295 -0.5643 -0.5620
  668MOL0     C90050   3.309   6.832   0.808 -0.3395  0.2194  0.1643
  668MOL0     C90051   3.182   6.784   0.747  0.3143 -0.1027  0.7457
  668MOL0     C90052   3.064   6.846   0.789 -0.1026  0.0103 -0.1897
  668MOL0     O90053   2.946   6.816   0.726 -0.5633 -0.7956 -0.0273
  668MOL0     C90054   2.907   6.929   0.637  1.0278  0.3020  0.4131
  668MOL0     C90055   2.785   6.885   0.553  0.3326  0.3735 -0.0497
  668MOL0     C90056   2.670   6.849   0.651  0.0294 -0.6432  0.3407
  668MOL0     C90057   2.551   6.781   0.578 -1.0955  0.1809  0.0451
  668MOL0     C90058   2.476   6.866   0.477  0.1702 -0.2652  0.0785
  668MOL0     C90059   2.375   6.778   0.397 -0.4095  0.5750 -0.4869
  668MOL0     C90060   2.333   6.831   0.254  0.0728 -0.8688  0.4856
  668MOL0     C90061   2.238   6.949   0.267 -0.1448 -0.1132 -0.3893
  668MOL0     N90062   2.156   6.989   0.153  0.2074 -0.1965 -0.0068
  668MOL0     C90063   2.118   7.120   0.132 -0.0347 -0.3577  0.6507
  668MOL0     C90064   2.034   7.116   0.028 -0.4550  0.7662 -0.5644
  668MOL0     C90065   1.969   7.239  -0.032  0.6403 -0.0343 -0.6434
  668MOL0     C90066   1.926   7.211  -0.182 -0.3033 -0.0157 -0.1840
  668MOL0     C90067   1.904   7.340  -0.274 -0.1109  0.5885 -0.2134
  668MOL0     C90068   1.770   7.402  -0.227 -0.0285 -0.0408 -0.9405
  668MOL0     O90069   1.767   7.524  -0.303 -0.1660  0.3249  0.2439
  668MOL0     C90070   1.634   7.560  -0.338 -0.8340  0.8617 -0.5772
  668MOL0     C90071   1.617   7.637  -0.454 -0.4074 -0.0984 -0.1374
  668MOL0     C90072   1.491   7.680  -0.504  0.1050  0.3548  0.3675
  668MOL0     C90073   1.485   7.764  -0.637  0.2139  0.1821  0.1090
  668MOL0     C90074   1.375   7.632  -0.432  0.8062  0.7049  0.3557
  668MOL0     C90075   1.231   7.678  -0.476 -0.1792  0.3925 -0.2678
  668MOL0     O90076   1.128   7.599  -0.437  0.5968 -0.0293  0.0323
  668MOL0     C90077   1.004   7.656  -0.469 -0.7585 -0.2370 -0.2648
  668MOL0     C90078   0.936   7.716  -0.365  0.5759  0.3083  0.5591
  668MOL0     C90079   0.813   7.776  -0.395  0.3045  0.6554  0.9073
  668MOL0     C90080   0.746   7.745  -0.517  0.1857 -0.4057  0.4829
  668MOL0     O90081   0.610   7.748  -0.535 -0.4592  0.3330 -0.3757
  668MOL0     C90082   0.538   7.777  -0.413  0.5646  0.4909 -0.7866
  668MOL0     C90083   0.386   7.773  -0.453  0.5212 -0.0764  0.3688
  668MOL0     C90084   0.299   7.803  -0.334 -0.1078 -0.5097  0.1936
  668MOL0     C90085   0.165   7.833  -0.402 -0.4597 -0.1555 -0.9227
  668MOL0     C90086   0.057   7.813  -0.299 -0.4541 -1.1361  1.1618
  668MOL0     C90087  -0.078   7.849  -0.351  1.0483  0.1098 -0.3653
  668MOL0     C90088  -0.194   7.844  -0.250 -0.3799 -0.1270 -0.1610
  668MOL0     C90089  -0.333   7.873  -0.303  0.3465  0.2269  0.0534
  668MOL0    Cl90090  -0.314   8.018  -0.408  0.4528  0.8140  0.4266
  668MOL0     C90091   0.817   7.683  -0.614 -1.2491 -0.3264 -0.1463
  668MOL0     C90092   0.948   7.640  -0.595 -0.2557 -0.3557  0.5730
  668MOL0     O90093   1.217   7.784  -0.531 -0.2780 -0.6897  0.1509
  668MOL0     C90094   1.387   7.547  -0.316 -0.7750 -1.0167  0.2757
  668MOL0     C90095   1.515   7.519  -0.265  0.1608  0.1349  0.5283
  668MOL0     N90096   2.011   6.980   0.010  0.1079 -0.0940 -0.2927
  668MOL0     N90097   2.087   6.907   0.070 -0.6691  0.4336 -0.1014
  668MOL0     C90098   3.062   6.935   0.900 -0.0531 -0.0590  0.4809
  668MOL0     C90099   3.185   6.975   0.956  0.3463 -0.7386  0.4842
  668MOL0     C90100   3.573   7.073   1.143  0.1724  0.9575  0.1437
  668MOL0     C90101   3.654   6.959   1.176  0.7620  0.2873  0.0583
  668MOL0     C90102   3.759   6.968   1.269 -0.1924  0.2604 -0.2708
  668MOL0     C90103   3.777   7.078   1.348 -0.0070 -0.1119  0.2212
  668MOL0     O90104   3.871   7.081   1.440  0.1799 -1.0077 -0.3588
  668MOL0     C90105   3.894   7.205   1.513  0.3998 -0.6542 -0.1340
  668MOL0     C90106   4.013   7.193   1.606  0.1705 -0.9915  0.4443
  668MOL0     C90107   4.026   7.327   1.694 -0.3655 -0.6688 -0.8154
  668MOL0     C90108   4.132   7.301   1.802  0.0589  0.3817  0.6955
  668MOL0     C90109   4.086   7.205   1.902  0.3373  0.1629  0.6251
  668MOL0     C90110   4.025   7.133   1.976  0.0389  0.4491 -0.4301
  668MOL0     C90111   3.689   7.186   1.324  0.4975 -0.0704 -0.7538
  668MOL0     C90112   3.594   7.187   1.222  0.1878  0.5631  0.5493
  668MOL0     H90113   3.406   6.786   0.792  1.1651  2.0943  3.0511
  668MOL0     H90114   3.189   6.709   0.669  2.7102  1.8999 -1.1603
  668MOL0     H90115   2.873   7.016   0.693 -1.3247 -1.0220  1.1822
  668MOL0     H90116   2.990   6.955   0.571  1.0761  0.2012  0.4339
  668MOL0     H90117   2.769   6.952   0.468  3.1778  2.0889  0.6541
  668MOL0     H90118   2.812   6.791   0.502  0.1530  1.5739 -2.4870
  668MOL0     H90119   2.701   6.785   0.735 -2.4520  0.9830  2.6650
  668MOL0     H90120   2.630   6.939   0.697  0.9859  1.0898 -2.0547
  668MOL0     H90121   2.594   6.701   0.517 -0.2151  0.7367 -0.0736
  668MOL0     H90122   2.481   6.741   0.653  1.3514 -5.5415 -0.1826
  668MOL0     H90123   2.416   6.936   0.534 -0.8711 -0.4775 -0.7309
  668MOL0     H90124   2.540   6.925   0.410 -0.9255  1.9715  0.9206
  668MOL0     H90125   2.434   6.687   0.380  2.3987  2.0758  0.5599
  668MOL0     H90126   2.294   6.755   0.467 -0.8474  2.2401 -0.4086
  668MOL0     H90127   2.413   6.871   0.192 -1.7490 -0.1160 -1.5099
  668MOL0     H90128   2.285   6.753   0.195  0.8253 -1.0600  0.1197
  668MOL0     H90129   2.291   7.037   0.305 -1.0324  0.1449  0.2844
  668MOL0     H90130   2.181   6.903   0.348  0.2337 -1.3963 -0.8179
  668MOL0     H90131   2.162   7.212   0.169 -2.5740  0.5232  1.7192
  668MOL0     H90132   1.882   7.265   0.029 -0.2042 -1.2139 -1.3109
  668MOL0     H90133   2.032   7.328  -0.022  3.9557 -2.4509  3.3576
  668MOL0     H90134   1.839   7.144  -0.180  1.6083 -2.6214  0.8144
  668MOL0     H90135   1.998   7.140  -0.224 -0.8007  0.1014 -1.2845
  668MOL0     H90136   1.907   7.310  -0.379  1.6111 -0.9564  0.2313
  668MOL0     H90137   1.986   7.412  -0.259 -1.6249  2.2422  0.4557
  668MOL0     H90138   1.777   7.410  -0.118 -0.6241 -2.0521 -0.7091
  668MOL0     H90139   1.689   7.334  -0.253 -3.4336  3.8961 -1.5430
  668MOL0     H90140   1.701   7.668  -0.514 -0.8496  2.1957  0.3408
  668MOL0     H90141   1.445   7.866  -0.629  3.2458  1.7822 -2.7600
  668MOL0     H90142   1.586   7.775  -0.677 -0.3363 -1.8562 -2.0739
  668MOL0     H90143   1.426   7.696  -0.699  2.6823 -3.2189  1.1932
  668MOL0     H90144   0.974   7.723  -0.263  0.2171  0.3425  0.6909
  668MOL0     H90145   0.765   7.831  -0.316 -0.1430  1.8745 -0.1709
  668MOL0     H90146   0.555   7.713  -0.326 -2.3868 -2.9838 -2.4895
  668MOL0     H90147   0.558   7.879  -0.378 -0.6380 -1.2797  6.7891
  668MOL0     H90148   0.370   7.843  -0.536  2.1829 -1.0912 -0.8678
  668MOL0     H90149   0.358   7.675  -0.490 -2.2018  1.2345 -1.3767
  668MOL0     H90150   0.329   7.894  -0.282 -0.2162 -1.2328  1.5539
  668MOL0     H90151   0.303   7.720  -0.263  2.8477 -2.3654 -1.9042
  668MOL0     H90152   0.169   7.935  -0.443 -0.9116  0.2645  0.0376
  668MOL0     H90153   0.140   7.767  -0.485  1.5686  1.3668 -2.9100
  668MOL0     H90154   0.086   7.867  -0.209  0.2721 -1.7344  1.2914
  668MOL0     H90155   0.054   7.710  -0.262 -1.2587 -0.9058  1.7847
  668MOL0     H90156  -0.066   7.944  -0.404  1.1315 -0.7942 -2.0658
  668MOL0     H90157  -0.112   7.777  -0.427 -4.0423 -0.6272  2.1784
  668MOL0     H90158  -0.179   7.916  -0.169  0.0002 -2.2039  1.7347
  668MOL0     H90159  -0.196   7.741  -0.212  1.5119 -0.7719 -1.6318
  668MOL0     H90160  -0.402   7.877  -0.219  0.3773  0.1344  0.0826
  668MOL0     H90161  -0.361   7.789  -0.367  1.5546 -1.0298  1.1085
  668MOL0     H90162   0.760   7.659  -0.703  1.2024 -1.8560 -1.3950
  668MOL0     H90163   1.010   7.596  -0.673 -1.1865  1.4734 -1.3186
  668MOL0     H90164   1.299   7.511  -0.264 -1.2955  0.8258  0.7565
  668MOL0     H90165   1.519   7.464  -0.171  1.5197 -0.3741  0.1931
  668MOL0     H90166   2.970   6.978   0.938 -0.3354  1.3154 -1.5826
  668MOL0     H90167   3.169   7.046   1.037 -3.5267 -1.9580  1.0276
  668MOL0     H90168   3.647   6.870   1.115  1.9021  3.2466 -4.9929
  668MOL0     H90169   3.827   6.884   1.272 -0.0030  0.3820 -1.0051
  668MOL0     H90170   3.922   7.277   1.436  0.4502  1.2612  1.5701
  668MOL0     H90171   3.807   7.243   1.567 -0.0494 -0.0406 -1.2553
  668MOL0     H90172   4.108   7.172   1.556 -0.3400 -1.6404 -0.2683
  668MOL0     H90173   3.991   7.103   1.664 -0.0758 -1.9776 -1.1389
  668MOL0     H90174   3.924   7.350   1.725 -0.9533 -0.9736 -2.4550
  668MOL0     H90175   4.063   7.411   1.634 -1.4957  0.5884  0.1745
  668MOL0     H90176   4.159   7.398   1.844  0.9857  0.3039  0.2912
  668MOL0     H90177   4.229   7.269   1.763 -0.3841  0.6706 -0.7057
  668MOL0     H90178   3.955   7.086   2.043  3.3464 -0.1915  2.9033
  668MOL0     H90179   3.699   7.276   1.384 -2.4947 -0.1809  0.0803
  668MOL0     H90180   3.536   7.276   1.200  2.5876  2.0605 -0.1419
  669MOL0     O90181   0.774   1.202   7.386 -0.2780 -0.3813 -0.2308
  669MOL0     C90182   0.801   1.175   7.266  0.3843 -0.9866 -0.5191
  669MOL0     O90183   0.705   1.158   7.169 -0.0671  0.1216 -0.2250
  669MOL0     C90184   0.566   1.161   7.199 -0.7778 -0.4196 -0.7529
  669MOL0     C90185   0.498   1.262   7.278  1.2171 -0.1214  0.7712
  669MOL0     C90186   0.356   1.271   7.286  0.0869  0.3573 -0.4785
  669MOL0     C90187   0.278   1.174   7.221  0.3335 -0.1121  0.7616
  669MOL0     O90188   0.142   1.166   7.227 -1.1791  0.0280  0.5348
  669MOL0     C90189   0.095   1.039   7.268  1.0591 -0.3844  0.2132
  669MOL0     C90190  -0.044   1.056   7.333  0.5843  0.2191  0.8714
  669MOL0     C90191  -0.154   1.099   7.239  0.2044  0.4776 -0.0367
  669MOL0     C90192  -0.277   1.152   7.314 -0.2411  0.1595 -0.2781
  669MOL0     C90193  -0.318   1.075   7.437  0.2451  0.1824 -0.7412
  669MOL0     C90194  -0.417   1.164   7.522  0.4223 -0.0609 -0.2891
  669MOL0     C90195  -0.549   1.197   7.452 -0.1634 -0.5668  0.1511
  669MOL0     C90196  -0.627   1.079   7.408  0.0672 -0.5188 -0.2718
  669MOL0     N90197  -0.771   1.100   7.359 -0.6773  0.6563 -0.3046
  669MOL0     C90198  -0.873   1.009   7.371  0.4038 -0.1842  0.2015
  669MOL0     C90199  -0.968   1.058   7.298  0.3373 -0.4855 -1.0181
  669MOL0     C90200  -1.100   0.992   7.281  0.2349 -0.3264 -0.0750
  669MOL0     C90201  -1.219   1.089   7.275 -0.1364  0.0981 -0.0870
  669MOL0     C90202  -1.269   1.140   7.414 -0.4174  0.4946 -0.5540
  669MOL0     C90203  -1.405   1.204   7.399  0.1893  0.8475  0.1979
  669MOL0     O90204  -1.507   1.106   7.379  0.9421  0.6229 -0.2201
  669MOL0     C90205  -1.633   1.157   7.361  0.0844 -0.1534  0.4906
  669MOL0     C90206  -1.660   1.289   7.355 -0.3171 -0.8002  0.5593
  669MOL0     C90207  -1.789   1.345   7.338  0.0354 -0.1689  0.6193
  669MOL0     C90208  -1.805   1.488   7.286  0.2135 -0.6110  0.1400
  669MOL0     C90209  -1.904   1.256   7.348 -0.1100  0.6076  0.8212
  669MOL0     C90210  -2.046   1.296   7.333  0.5711 -0.0266  0.2940
  669MOL0     O90211  -2.140   1.194   7.335  0.5564  0.0890  0.5439
  669MOL0     C90212  -2.273   1.222   7.337  0.7275 -0.0120 -0.6200
  669MOL0     C90213  -2.346   1.279   7.230 -0.8613 -0.5421 -0.2247
  669MOL0     C90214  -2.486   1.282   7.240 -0.0662 -0.3467  0.1042
  669MOL0     C90215  -2.549   1.228   7.346  0.0859 -0.1902 -0.8582
  669MOL0     O90216  -2.686   1.210   7.336 -0.3296  0.3911  0.3049
  669MOL0     C90217  -2.769   1.252   7.446 -0.1964 -0.7684 -0.2482
  669MOL0     C90218  -2.917   1.245   7.406  0.5066  0.9882 -0.3192
  669MOL0     C90219  -2.964   1.359   7.320  0.4355 -1.1410  0.5830
  669MOL0     C90220  -3.099   1.320   7.243  0.1645 -0.0017  0.2822
  669MOL0     C90221  -3.228   1.333   7.321 -0.1562  0.4839  0.1122
  669MOL0     C90222  -3.342   1.276   7.236  0.2055 -0.1387 -0.3796
  669MOL0     C90223  -3.475   1.253   7.316 -0.5019 -0.4591 -0.1414
  669MOL0     C90224  -3.596   1.221   7.226 -0.4170  0.4274 -0.9119
  669MOL0    Cl90225  -3.739   1.210   7.333  0.1371 -0.2604 -0.3330
  669MOL0     C90226  -2.479   1.191   7.464 -0.6581  0.0039 -1.3959
  669MOL0     C90227  -2.336   1.189   7.456 -0.7245 -0.4178 -1.1763
  669MOL0     O90228  -2.073   1.416   7.329 -0.4793 -0.0205 -0.0552
  669MOL0     C90229  -1.877   1.118   7.365  0.2608  1.0038 -0.3396
  669MOL0     C90230  -1.744   1.070   7.365 -0.1538 -0.3480 -0.0418
  669MOL0     N90231  -0.931   1.180   7.255  0.5846  0.1347  0.1734
  669MOL0     N90232  -0.812   1.202   7.281 -0.2469  0.7111  0.5533
  669MOL0     C90233   0.344   1.072   7.147 -0.6486 -0.5096  0.5221
  669MOL0     C90234   0.483   1.073   7.125 -0.2052  0.6919 -0.3737
  669MOL0     C90235   0.947   1.160   7.240  0.2023 -0.9533  0.2074
  669MOL0     C90236   0.987   1.065   7.146  0.4174  0.0882  0.0819
  669MOL0     C90237   1.122   1.062   7.120 -0.2542  0.0603 -0.0455
  669MOL0     C90238   1.214   1.147   7.174  0.4487 -0.3212  0.2103
  669MOL0     O90239   1.344   1.134   7.151  0.3190 -0.4697 -1.1658
  669MOL0     C90240   1.409   1.080   7.268  0.6546 -0.2199  0.0618
  669MOL0     C90241   1.554   1.034   7.238  0.2190 -0.1043  0.3802
  669MOL0     C90242   1.655   1.153   7.224  0.4588 -0.3085 -0.0449
  669MOL0     C90243   1.790   1.116   7.168  0.1079  0.2869 -0.2294
  669MOL0     C90244   1.878   1.233   7.159 -0.9421 -0.1089 -0.8420
  669MOL0     C90245   1.960   1.321   7.156  0.4518  0.0967 -0.1842
  669MOL0     C90246   1.168   1.240   7.266 -0.4562 -0.3759  0.5735
  669MOL0     C90247   1.043   1.248   7.293  0.1627 -0.0293 -0.1493
  669MOL0     H90248   0.554   1.341   7.328 -0.0515  0.4519  1.3468
  669MOL0     H90249   0.309   1.354   7.338  1.6388  2.9736 -2.9518
  669MOL0     H90250   0.090   0.965   7.188  0.1089  1.1842 -1.2748
  669MOL0     H90251   0.156   0.996   7.348  0.1395 -0.7752  0.7235
  669MOL0     H90252  -0.075   0.953   7.353 -0.2117  0.0124 -1.1799
  669MOL0     H90253  -0.041   1.118   7.424  5.6757  1.8179 -0.0857
  669MOL0     H90254  -0.107   1.171   7.173  1.5140 -1.2604 -1.0853
  669MOL0     H90255  -0.185   1.015   7.175  0.6145 -1.7009  2.4329
  669MOL0     H90256  -0.252   1.257   7.334  3.6938 -0.8909  1.1636
  669MOL0     H90257  -0.367   1.143   7.251 -2.7154 -0.7770  3.1025
  669MOL0     H90258  -0.361   0.981   7.402 -1.3815  0.5230  0.2598
  669MOL0     H90259  -0.238   1.043   7.504 -0.0909  2.0758  0.6577
  669MOL0     H90260  -0.439   1.112   7.616 -0.9842  1.8668  0.5109
  669MOL0     H90261  -0.365   1.255   7.552 -0.4577  1.3115 -2.7330
  669MOL0     H90262  -0.614   1.247   7.524 -1.8439 -0.2811 -1.4822
  669MOL0     H90263  -0.545   1.269   7.369 -2.5326  0.3908  0.7771
  669MOL0     H90264  -0.639   1.000   7.483 -0.2467 -2.5693 -2.3528
  669MOL0     H90265  -0.573   1.029   7.327 -0.1140  0.4297 -0.9939
  669MOL0     H90266  -0.872   0.921   7.435  0.6657 -0.0841  0.3370
  669MOL0     H90267  -1.091   0.949   7.181 -1.4084  0.7095 -0.7090
  669MOL0     H90268  -1.118   0.909   7.349  0.2552  1.9166  2.8750
  669MOL0     H90269  -1.298   1.037   7.220  0.6137  0.6151 -1.7174
  669MOL0     H90270  -1.194   1.177   7.215  0.3279 -1.5186 -2.4422
  669MOL0     H90271  -1.206   1.225   7.442 -1.4443  1.1911 -0.3103
  669MOL0     H90272  -1.275   1.072   7.499 -0.4513  3.7685  2.2953
  669MOL0     H90273  -1.406   1.279   7.319 -0.9612  0.8203  0.1693
  669MOL0     H90274  -1.427   1.249   7.496 -0.6432 -1.2024  1.0226
  669MOL0     H90275  -1.592   1.373   7.357 -0.5834 -0.5802  0.3421
  669MOL0     H90276  -1.853   1.554   7.359  1.6470  0.7360 -0.1004
  669MOL0     H90277  -1.712   1.544   7.273  0.2931  0.1804  3.3458
  669MOL0     H90278  -1.865   1.498   7.196  0.9645  3.0103 -0.0958
  669MOL0     H90279  -2.306   1.296   7.130 -2.3341 -0.9961 -0.9294
  669MOL0     H90280  -2.543   1.305   7.150  0.6699 -0.2893 -0.3596
  669MOL0     H90281  -2.748   1.200   7.540 -0.2252  0.5081  0.4876
  669MOL0     H90282  -2.739   1.356   7.466  1.0065 -1.3688  1.3163
  669MOL0     H90283  -2.925   1.143   7.368  2.1477 -0.2830  2.4095
  669MOL0     H90284  -2.968   1.236   7.502  0.5531 -3.3805 -0.4900
  669MOL0     H90285  -2.889   1.394   7.249  0.8247  1.2057  2.0532
  669MOL0     H90286  -2.991   1.438   7.390  0.5276 -0.2380 -0.3666
  669MOL0     H90287  -3.109   1.374   7.149 -3.0990 -3.2928 -1.5191
  669MOL0     H90288  -3.099   1.213   7.219  0.6140  0.2558 -0.9320
  669MOL0     H90289  -3.243   1.440   7.336 -0.5192  0.6246 -1.1133
  669MOL0     H90290  -3.215   1.288   7.420  0.6619  0.6214  0.0757
  669MOL0     H90291  -3.357   1.344   7.152 -2.7784  0.9586  0.9304
  669MOL0     H90292  -3.313   1.181   7.190  0.7503 -0.1074 -0.1164
  669MOL0     H90293  -3.497   1.341   7.377  1.8409 -1.7299  2.8002
  669MOL0     H90294  -3.456   1.169   7.384 -2.5953  1.3123  2.8889
  669MOL0     H90295  -3.574   1.131   7.168  1.9238  1.5460 -1.9078
  669MOL0     H90296  -3.598   1.295   7.146 -1.8735 -0.5958 -1.8597
  669MOL0     H90297  -2.529   1.142   7.548  0.2832  1.9081  0.3722
  669MOL0     H90298  -2.273   1.145   7.532  1.3081 -1.6617 -3.4312
  669MOL0     H90299  -1.956   1.044   7.370 -0.5912  1.8397 -1.0432
  669MOL0     H90300  -1.729   0.963   7.373 -1.5908 -0.4534  2.3804
  669MOL0     H90301   0.287   0.998   7.090  1.0314  0.5442 -2.7615
  669MOL0     H90302   0.526   1.004   7.053 -3.7640  1.5791 -3.7035
  669MOL0     H90303   0.922   0.990   7.101  2.5770 -2.7032  1.2737
  669MOL0     H90304   1.179   0.993   7.059 -1.2776  0.1264 -1.1045
  669MOL0     H90305   1.414   1.153   7.349  2.1149  0.0478 -0.2457
  669MOL0     H90306   1.354   0.994   7.308 -1.5854  1.5239  0.9426
  669MOL0     H90307   1.566   0.971   7.149 -0.0280 -1.3563  1.2020
  669MOL0     H90308   1.590   0.974   7.322 -0.2522  0.4392  0.9771
  669MOL0     H90309   1.675   1.203   7.319 -1.1678  0.8638 -0.2917
  669MOL0     H90310   1.608   1.221   7.152  1.0666 -0.9196 -1.0477
  669MOL0     H90311   1.786   1.068   7.069 -0.5827 -1.1360  0.4607
  669MOL0     H90312   1.843   1.040   7.225  2.5399  1.5156 -0.7020
  669MOL0     H90313   2.013   1.413   7.167 -1.1440  1.2243 -1.3592
  669MOL0     H90314   1.240   1.295   7.325  0.0150 -1.2160  0.7990
  669MOL0     H90315   1.016   1.320   7.370 -1.1058 -0.8653  0.2260
  670MOL0     O90316   0.401   5.960   9.908 -0.5043  0.6840  0.0371
  670MOL0     C90317   0.421   6.061   9.843 -1.2605 -0.3699  0.0018
  670MOL0     O90318   0.347   6.102   9.738  0.1132  0.9044  0.2234
  670MOL0     C90319   0.257   6.006   9.685  0.3615  0.0242 -0.3845
  670MOL0     C90320   0.136   5.982   9.758 -0.0539  0.0230 -0.2200
  670MOL0     C90321   0.035   5.899   9.699 -0.3045  0.2535 -0.1993
  670MOL0     C90322   0.057   5.843   9.575  0.5485 -0.6751 -0.6699
  670MOL0     O90323  -0.051   5.781   9.511  0.4455  0.5865  0.5077
  670MOL0     C90324  -0.176   5.748   9.585 -0.3317 -1.4210  0.1741
  670MOL0     C90325  -0.279   5.708   9.483  0.5504  1.0885 -0.0550
  670MOL0     C90326  -0.405   5.651   9.549 -0.4393 -0.2760  0.1158
  670MOL0     C90327  -0.410   5.499   9.540  0.1449 -0.0538  0.3553
  670MOL0     C90328  -0.514   5.436   9.627  0.1741 -0.0715 -0.7527
  670MOL0     C90329  -0.450   5.383   9.752  0.0625 -0.6301  1.0827
  670MOL0     C90330  -0.542   5.311   9.852  0.4476 -0.3219  0.2912
  670MOL0     C90331  -0.461   5.227   9.956 -0.9841 -0.2254 -0.0721
  670MOL0     N90332  -0.328   5.286   9.977 -0.0498  0.5482 -0.5126
  670MOL0     C90333  -0.296   5.399  10.058 -0.5507  0.0883  0.0677
  670MOL0     C90334  -0.164   5.424  10.028  0.3755 -0.1775 -0.0925
  670MOL0     C90335  -0.083   5.543  10.060  0.3694  1.1187  0.2386
  670MOL0     C90336  -0.000   5.604   9.946 -0.2201 -0.6707  1.2312
  670MOL0     C90337   0.139   5.532   9.927 -0.6617  0.6023  0.9060
  670MOL0     C90338   0.236   5.600   9.835  0.0801 -0.0988 -0.2662
  670MOL0     O90339   0.357   5.525   9.823 -0.0057 -0.7225 -0.6678
  670MOL0     C90340   0.455   5.591   9.760 -0.2102 -0.1364  1.5891
  670MOL0     C90341   0.469   5.578   9.620  0.6875  0.7030  0.0698
  670MOL0     C90342   0.569   5.649   9.544 -0.0904  0.7259 -0.3499
  670MOL0     C90343   0.584   5.618   9.395  0.3184 -0.7893 -0.2528
  670MOL0     C90344   0.638   5.749   9.608 -0.2550 -0.1993  0.2793
  670MOL0     C90345   0.733   5.842   9.548  0.7521  1.7139  0.2423
  670MOL0     O90346   0.825   5.898   9.622  0.3144 -0.0399  0.0346
  670MOL0     C90347   0.952   5.908   9.572 -0.0080 -0.2535 -0.4613
  670MOL0     C90348   1.010   5.803   9.490  0.0582 -0.2810 -0.3754
  670MOL0     C90349   1.145   5.822   9.457 -0.4668 -0.1174 -0.5182
  670MOL0     C90350   1.219   5.933   9.496  0.1853 -0.4995 -0.4646
  670MOL0     O90351   1.352   5.935   9.458  0.0820  0.4186 -0.2650
  670MOL0     C90352   1.447   6.026   9.516  0.4862  0.1497 -0.8679
  670MOL0     C90353   1.584   6.020   9.452  0.2283 -0.1710  0.0051
  670MOL0     C90354   1.697   6.074   9.540 -0.5508  0.0958 -0.0610
  670MOL0     C90355   1.827   6.091   9.454  0.4424  0.0794  0.3638
  670MOL0     C90356   1.879   5.959   9.391  0.6782 -0.1929  0.2716
  670MOL0     C90357   1.887   5.840   9.485 -0.0515  0.0997  0.0935
  670MOL0     C90358   1.954   5.717   9.422  0.0669 -0.8156  0.9197
  670MOL0     C90359   2.049   5.650   9.516  0.3786  0.0462 -0.6401
  670MOL0    Cl90360   1.955   5.586   9.665  0.1802  0.3919 -0.2376
  670MOL0     C90361   1.159   6.035   9.575 -0.1413 -1.0591  0.4451
  670MOL0     C90362   1.025   6.018   9.616 -0.9024 -0.3310  0.4551
  670MOL0     O90363   0.731   5.860   9.430  0.8651  0.4127 -0.5600
  670MOL0     C90364   0.623   5.770   9.745 -0.6692  0.2336 -0.1778
  670MOL0     C90365   0.542   5.687   9.821  1.1885  0.2574  0.3003
  670MOL0     N90366  -0.115   5.318   9.952 -0.4162 -0.0145  0.1510
  670MOL0     N90367  -0.212   5.241   9.913 -0.2112 -0.0287  0.2400
  670MOL0     C90368   0.171   5.877   9.501  0.0977 -0.1602 -0.1154
  670MOL0     C90369   0.281   5.950   9.558 -0.4707 -0.0419 -0.0833
  670MOL0     C90370   0.542   6.145   9.866 -0.7826 -0.5987  0.5079
  670MOL0     C90371   0.604   6.235   9.766  0.5363  0.7676 -0.2668
  670MOL0     C90372   0.708   6.317   9.804 -0.0880  0.5472  0.6207
  670MOL0     C90373   0.772   6.292   9.928  0.4464  0.9856  0.6484
  670MOL0     O90374   0.889   6.357   9.972  0.0601 -0.2704  0.6586
  670MOL0     C90375   0.935   6.459   9.882 -1.6614  0.0341 -0.6139
  670MOL0     C90376   1.085   6.496   9.900 -0.6924 -0.9886 -0.2326
  670MOL0     C90377   1.118   6.591   9.786 -0.1260  0.3126 -0.8685
  670MOL0     C90378   1.268   6.621   9.788 -0.3422  0.3738 -0.3380
  670MOL0     C90379   1.293   6.682   9.915 -0.6058  0.2456  0.7335
  670MOL0     C90380   1.323   6.741  10.018 -0.2284  0.2112  0.7654
  670MOL0     C90381   0.723   6.188  10.015 -0.0108  0.0006  0.7915
  670MOL0     C90382   0.607   6.123   9.989 -0.4640  0.5539  0.3705
  670MOL0     H90383   0.122   6.025   9.856  1.7440 -1.8465  0.9538
  670MOL0     H90384  -0.044   5.880   9.770 -1.2912  1.3822 -0.9608
  670MOL0     H90385  -0.147   5.664   9.649  0.8106 -0.9929  0.2444
  670MOL0     H90386  -0.213   5.834   9.641  0.7226  0.1312 -1.4011
  670MOL0     H90387  -0.301   5.798   9.425  0.2256  1.2138  0.2585
  670MOL0     H90388  -0.247   5.632   9.412 -1.6372 -0.7133  0.7661
  670MOL0     H90389  -0.398   5.677   9.655 -0.5830 -1.8386  0.5280
  670MOL0     H90390  -0.494   5.693   9.500  0.7614  2.1088 -0.1259
  670MOL0     H90391  -0.421   5.478   9.433  0.5090 -0.9490  0.4811
  670MOL0     H90392  -0.307   5.470   9.565 -0.1306 -0.8462  0.6005
  670MOL0     H90393  -0.594   5.502   9.663  0.8316  0.0117  0.6131
  670MOL0     H90394  -0.552   5.342   9.584  1.4916 -1.6100  1.2804
  670MOL0     H90395  -0.381   5.302   9.727 -2.7259 -3.5019  1.9428
  670MOL0     H90396  -0.402   5.462   9.810  4.4319 -3.1581  1.3497
  670MOL0     H90397  -0.617   5.371   9.905  0.5709 -2.3813  2.9935
  670MOL0     H90398  -0.606   5.239   9.800 -0.9464  1.7653 -1.0504
  670MOL0     H90399  -0.453   5.122   9.926  1.5112  0.1326 -0.8723
  670MOL0     H90400  -0.518   5.240  10.048  0.3490  2.1301  0.4873
  670MOL0     H90401  -0.356   5.465  10.120 -0.1590  0.5619 -0.0468
  670MOL0     H90402  -0.162   5.602  10.106 -1.9389 -2.9625  2.0970
  670MOL0     H90403  -0.014   5.514  10.140  0.5967 -2.7256 -1.1175
  670MOL0     H90404   0.019   5.707   9.976 -0.0553 -0.4880  0.5301
  670MOL0     H90405  -0.064   5.593   9.858  1.8951 -2.1250 -0.2105
  670MOL0     H90406   0.122   5.431   9.887  0.1015  0.9460 -0.3200
  670MOL0     H90407   0.187   5.526  10.025 -1.3072 -1.1225  1.1549
  670MOL0     H90408   0.254   5.701   9.873  1.9713 -0.1682 -0.8430
  670MOL0     H90409   0.193   5.597   9.735 -1.5436 -3.5560  0.4106
  670MOL0     H90410   0.399   5.505   9.579 -2.2595  2.7699  1.0884
  670MOL0     H90411   0.538   5.701   9.342  2.2960  1.2107  0.9585
  670MOL0     H90412   0.686   5.604   9.358  1.1643  1.8102  0.8600
  670MOL0     H90413   0.524   5.528   9.379 -2.7167  0.8381  1.2728
  670MOL0     H90414   0.957   5.711   9.468 -2.8503  1.7950 -2.7853
  670MOL0     H90415   1.192   5.748   9.392  1.1424  2.5178 -2.5954
  670MOL0     H90416   1.409   6.126   9.493 -4.9777 -1.9375 -2.4818
  670MOL0     H90417   1.442   6.013   9.625 -2.4120 -0.0782 -0.9330
  670MOL0     H90418   1.608   5.918   9.422  1.4614 -0.2651  1.2588
  670MOL0     H90419   1.578   6.088   9.366 -1.0307  0.6032  0.6805
  670MOL0     H90420   1.725   6.005   9.620  0.5749 -0.2955 -0.7704
  670MOL0     H90421   1.666   6.173   9.574  1.4371  0.8562 -0.3215
  670MOL0     H90422   1.814   6.165   9.374 -1.9274  1.0108  1.5170
  670MOL0     H90423   1.895   6.131   9.529  1.5356  0.4244 -0.7798
  670MOL0     H90424   1.979   5.982   9.354  0.3397  0.1162 -0.4533
  670MOL0     H90425   1.811   5.933   9.310 -0.6074  0.0951  1.2354
  670MOL0     H90426   1.937   5.868   9.578 -0.6354  0.0385  0.4308
  670MOL0     H90427   1.783   5.819   9.512 -0.2922 -0.1116 -0.9810
  670MOL0     H90428   2.002   5.735   9.325 -0.0411 -1.1864  0.7958
  670MOL0     H90429   1.877   5.644   9.394 -0.7337  0.7563 -1.3027
  670MOL0     H90430   2.114   5.723   9.565 -0.1409 -0.4919  0.8989
  670MOL0     H90431   2.110   5.573   9.469 -1.8721 -1.7559 -0.7846
  670MOL0     H90432   1.222   6.121   9.596 -1.3879  0.7245 -2.4441
  670MOL0     H90433   0.963   6.086   9.673 -2.1698 -0.9540 -0.1436
  670MOL0     H90434   0.690   5.841   9.792  0.0649  0.1453 -1.0551
  670MOL0     H90435   0.532   5.708   9.927 -0.6322 -1.3921  0.5202
  670MOL0     H90436   0.178   5.836   9.401 -0.3743  1.5140 -0.8702
  670MOL0     H90437   0.366   5.974   9.497  0.5714 -0.7642  1.0313
  670MOL0     H90438   0.559   6.242   9.668  3.3873  2.3659 -1.5765
  670MOL0     H90439   0.741   6.381   9.723  2.3507  1.1539  1.9877
  670MOL0     H90440   0.933   6.424   9.778  0.3011  0.9927 -1.0168
  670MOL0     H90441   0.862   6.538   9.897  0.3734  1.6828  1.2134
  670MOL0     H90442   1.155   6.412   9.893  1.0228  0.3934 -0.4259
  670MOL0     H90443   1.104   6.548   9.994 -1.5087  0.7329 -0.9901
  670MOL0     H90444   1.065   6.687   9.789 -3.1524 -1.2651  1.4497
  670MOL0     H90445   1.094   6.532   9.698  0.3484 -1.0754 -0.1041
  670MOL0     H90446   1.299   6.684   9.704  0.1359  1.7628  0.8446
  670MOL0     H90447   1.323   6.527   9.776 -1.7656 -0.1820 -3.5092
  670MOL0     H90448   1.351   6.794  10.107  3.3782  1.9184 -1.2086
  670MOL0     H90449   0.768   6.176  10.113  1.0648 -1.2571  0.1541
  670MOL0     H90450   0.556   6.064  10.065 -2.5421  1.4615 -0.2532
  671MOL0     O90451  11.133   7.297   5.372 -0.1972  0.2604  0.1774
  671MOL0     C90452  11.213   7.334   5.451 -0.0723  0.0915  0.7192
  671MOL0     O90453  11.195   7.425   5.538  0.0523  0.3501 -0.4179
  671MOL0     C90454  11.086   7.506   5.523  0.0659 -0.1373  0.1373
  671MOL0     C90455  11.086   7.609   5.429  0.3805  0.3626  0.5629
  671MOL0     C90456  10.973   7.690   5.417  0.0324 -0.6215 -0.1770
  671MOL0     C90457  10.867   7.664   5.502 -0.2120 -0.5961  0.6060
  671MOL0     O90458  10.765   7.755   5.493 -0.3190  0.1309 -0.3357
  671MOL0     C90459  10.645   7.744   5.570  0.1270  0.1159 -0.6175
  671MOL0     C90460  10.574   7.880   5.560 -0.3816  0.5589  0.9391
  671MOL0     C90461  10.443   7.880   5.644  0.0163 -0.0405 -0.0103
  671MOL0     C90462  10.472   7.916   5.790  0.1513  0.2753 -0.2459
  671MOL0     C90463  10.359   7.889   5.890 -0.2119  0.3052 -0.7659
  671MOL0     C90464  10.347   7.733   5.923 -0.0060 -0.2041 -0.5165
  671MOL0     C90465  10.213   7.664   5.956 -0.0747 -0.2740  1.1489
  671MOL0     C90466  10.117   7.746   6.046 -0.1208  0.6918  0.5846
  671MOL0     N90467   9.992   7.670   6.066 -0.1073  0.3635 -0.4633
  671MOL0     C90468   9.976   7.554   6.146 -0.0911 -0.6587 -0.1750
  671MOL0     C90469   9.843   7.529   6.142 -0.6616 -0.1565 -0.4707
  671MOL0     C90470   9.775   7.415   6.203  0.5808 -0.9870  0.2939
  671MOL0     C90471   9.688   7.344   6.103 -0.0822 -0.2901 -0.2670
  671MOL0     C90472   9.535   7.354   6.119 -0.8787 -0.4709 -1.1209
  671MOL0     C90473   9.471   7.330   5.985  0.1888 -0.6734  0.8232
  671MOL0     O90474   9.325   7.321   5.995 -0.0194 -0.0246 -0.2445
  671MOL0     C90475   9.245   7.338   5.882  0.9610 -0.2631  0.1461
  671MOL0     C90476   9.284   7.346   5.749 -0.1260  0.1980  0.4791
  671MOL0     C90477   9.185   7.362   5.650 -0.5796 -0.3382 -0.5645
  671MOL0     C90478   9.238   7.389   5.504 -0.2556 -0.2526 -0.7031
  671MOL0     C90479   9.048   7.361   5.677 -0.6487  1.1739 -0.3390
  671MOL0     C90480   8.938   7.379   5.577  0.4939  0.5795  0.5446
  671MOL0     O90481   8.819   7.376   5.621 -0.4727 -0.2788 -0.0003
  671MOL0     C90482   8.713   7.419   5.547 -0.9020 -0.1836  0.3438
  671MOL0     C90483   8.719   7.540   5.470 -0.6870  0.0086  0.5913
  671MOL0     C90484   8.612   7.586   5.403  0.6135 -0.5107  0.0771
  671MOL0     C90485   8.489   7.519   5.403  0.4317  0.0116 -0.8267
  671MOL0     O90486   8.385   7.577   5.339  0.1235  0.1425  0.1089
  671MOL0     C90487   8.263   7.494   5.326 -0.7526 -0.6740  0.2049
  671MOL0     C90488   8.169   7.581   5.265  1.2194 -0.2122  0.4246
  671MOL0     C90489   8.050   7.487   5.200 -0.1890  1.0046  0.3693
  671MOL0     C90490   7.949   7.583   5.138  0.1784  0.1485  0.1029
  671MOL0     C90491   7.872   7.507   5.032 -0.4635 -0.1474  0.0797
  671MOL0     C90492   7.774   7.597   4.965  0.1651  0.7209  0.7157
  671MOL0     C90493   7.670   7.518   4.881 -1.1718  0.4039 -0.7595
  671MOL0     C90494   7.597   7.618   4.797 -0.0956  0.3451  0.8682
  671MOL0    Cl90495   7.495   7.715   4.911  0.6255  0.0472 -0.6611
  671MOL0     C90496   8.478   7.397   5.483 -0.4864 -0.5372  0.2308
  671MOL0     C90497   8.592   7.354   5.555 -0.2439 -0.6315 -0.4876
  671MOL0     O90498   8.975   7.386   5.454 -0.0768  0.7495  0.0297
  671MOL0     C90499   9.004   7.341   5.819 -0.0666  0.4162  0.5546
  671MOL0     C90500   9.101   7.330   5.915 -0.0007 -0.5355  0.1010
  671MOL0     N90501   9.780   7.631   6.077  0.4083 -1.2080  0.6474
  671MOL0     N90502   9.869   7.717   6.037  0.1428 -0.1882 -0.0769
  671MOL0     C90503  10.873   7.566   5.599 -0.3665  0.7788  0.0584
  671MOL0     C90504  10.981   7.478   5.611  1.1536  0.7209 -0.5797
  671MOL0     C90505  11.345   7.273   5.439  0.7312  0.0639 -0.5396
  671MOL0     C90506  11.382   7.184   5.335  0.7692  0.9593  0.3321
  671MOL0     C90507  11.508   7.136   5.325 -0.6527 -0.5357 -0.1046
  671MOL0     C90508  11.612   7.179   5.415  0.2548  0.4943  0.1370
  671MOL0     O90509  11.734   7.123   5.386  0.3738  0.2357 -0.5395
  671MOL0     C90510  11.840   7.143   5.479  0.2632  0.0370  0.4740
  671MOL0     C90511  11.918   7.280   5.454  0.2515 -0.1356 -0.0731
  671MOL0     C90512  11.969   7.302   5.318 -0.5670 -0.1664  1.1433
  671MOL0     C90513  12.054   7.442   5.317  0.0913 -0.0575 -1.0072
  671MOL0     C90514  11.982   7.565   5.355  0.0376  0.1011 -0.2108
  671MOL0     C90515  11.932   7.664   5.399 -0.0670  0.2140 -0.0013
  671MOL0     C90516  11.578   7.255   5.519  0.8102  0.7383 -0.4605
  671MOL0     C90517  11.441   7.296   5.535 -0.6457 -0.1784 -0.2465
  671MOL0     H90518  11.178   7.635   5.377 -0.3510  2.2647  0.1231
  671MOL0     H90519  10.973   7.774   5.348  0.5671 -0.9362 -0.5679
  671MOL0     H90520  10.599   7.649   5.540  1.6233 -0.6004 -0.6963
  671MOL0     H90521  10.662   7.717   5.675 -2.9917 -2.7473 -0.6537
  671MOL0     H90522  10.643   7.957   5.595 -0.8121  0.4840  1.9861
  671MOL0     H90523  10.557   7.901   5.454 -0.7321 -1.1046  0.6393
  671MOL0     H90524  10.368   7.951   5.607 -0.9137 -1.3098 -0.6361
  671MOL0     H90525  10.393   7.783   5.635 -0.3485  0.2655 -1.6045
  671MOL0     H90526  10.561   7.860   5.820  1.5812  2.9535  0.9286
  671MOL0     H90527  10.498   8.022   5.801 -0.5278  0.3855  0.3886
  671MOL0     H90528  10.379   7.946   5.981 -3.4359 -0.1427  0.3428
  671MOL0     H90529  10.274   7.939   5.843 -1.7988  1.7421  3.2288
  671MOL0     H90530  10.400   7.677   5.845 -0.2926 -3.0478  1.2072
  671MOL0     H90531  10.401   7.719   6.017  1.4776 -2.3934 -1.5734
  671MOL0     H90532  10.160   7.654   5.861 -1.9381  2.2690  1.8302
  671MOL0     H90533  10.227   7.559   5.985  1.1698 -0.6612 -0.7234
  671MOL0     H90534  10.096   7.847   6.011 -1.7097 -0.3904 -1.8271
  671MOL0     H90535  10.157   7.743   6.148 -1.8721 -4.8320  1.4385
  671MOL0     H90536  10.051   7.497   6.201  1.6543  1.9127  0.2860
  671MOL0     H90537   9.850   7.342   6.233 -1.0924 -2.2886  1.4748
  671MOL0     H90538   9.723   7.442   6.294  0.4003  1.4241 -0.4525
  671MOL0     H90539   9.709   7.239   6.127  2.2232  0.6468  2.4549
  671MOL0     H90540   9.715   7.377   6.002 -4.4344  2.7271 -0.6999
  671MOL0     H90541   9.503   7.451   6.157  0.9934 -0.2510  0.0561
  671MOL0     H90542   9.504   7.281   6.195  1.2729 -1.3160 -0.9601
  671MOL0     H90543   9.514   7.251   5.922 -1.0183  1.1062 -2.4947
  671MOL0     H90544   9.484   7.422   5.928 -2.8591 -1.0505 -0.7178
  671MOL0     H90545   9.389   7.341   5.722 -0.4418 -1.6365 -0.5928
  671MOL0     H90546   9.348   7.384   5.500 -0.0770  0.7376  1.3701
  671MOL0     H90547   9.202   7.320   5.428 -0.5426  1.7894 -2.5055
  671MOL0     H90548   9.203   7.487   5.470 -2.7554  0.3707  2.9986
  671MOL0     H90549   8.809   7.600   5.476 -1.1819  0.7634  0.6132
  671MOL0     H90550   8.624   7.678   5.346  2.9699 -0.3071  0.7863
  671MOL0     H90551   8.292   7.405   5.269 -0.8705 -1.6942  1.6881
  671MOL0     H90552   8.222   7.459   5.420 -1.3367 -1.8235 -0.4606
  671MOL0     H90553   8.127   7.638   5.348  1.3392 -0.6919  0.8142
  671MOL0     H90554   8.211   7.645   5.187 -0.2495  0.6816  0.3235
  671MOL0     H90555   8.001   7.433   5.282  1.7259  0.7317  1.3944
  671MOL0     H90556   8.086   7.414   5.127 -0.0181  0.3599  1.0857
  671MOL0     H90557   7.880   7.618   5.215 -0.7101 -3.2170  0.9830
  671MOL0     H90558   7.995   7.678   5.109 -0.1819  1.2948  3.0047
  671MOL0     H90559   7.816   7.426   5.079 -5.0824  1.8832 -1.2277
  671MOL0     H90560   7.936   7.459   4.958  0.4404 -0.1961  0.8751
  671MOL0     H90561   7.716   7.657   5.036 -1.5916  1.6753 -1.3949
  671MOL0     H90562   7.825   7.673   4.905 -1.4113 -0.2806 -2.0830
  671MOL0     H90563   7.607   7.455   4.945  0.1081  1.0016  1.1756
  671MOL0     H90564   7.714   7.443   4.815  0.1431 -0.6162  1.1785
  671MOL0     H90565   7.538   7.561   4.725  1.4786 -2.4119  1.6046
  671MOL0     H90566   7.675   7.679   4.751  2.0065 -1.7751  1.4229
  671MOL0     H90567   8.387   7.338   5.489 -0.0363 -1.1565  1.2593
  671MOL0     H90568   8.607   7.273   5.626  0.3380 -0.4663 -0.4177
  671MOL0     H90569   8.899   7.323   5.838 -0.7578  1.2377 -2.0854
  671MOL0     H90570   9.070   7.314   6.018  0.5769  0.8055  0.5007
  671MOL0     H90571  10.795   7.546   5.672 -0.6946  1.5790 -0.0662
  671MOL0     H90572  10.990   7.406   5.692 -0.3611  1.8287  0.6501
  671MOL0     H90573  11.315   7.161   5.253  1.5152 -3.2265  0.6721
  671MOL0     H90574  11.529   7.085   5.232 -0.5680  0.5698 -0.7034
  671MOL0     H90575  11.801   7.142   5.582  0.7297  0.8457  0.6633
  671MOL0     H90576  11.915   7.064   5.471  2.1817  1.4381  3.1923
  671MOL0     H90577  11.998   7.291   5.528 -0.7153 -0.2807  1.0225
  671MOL0     H90578  11.846   7.361   5.462 -0.2481 -0.3688 -1.7982
  671MOL0     H90579  11.884   7.302   5.249 -0.2742  0.5673  0.7733
  671MOL0     H90580  12.037   7.221   5.290  0.7806  1.2929 -0.0362
  671MOL0     H90581  12.094   7.453   5.216 -1.1826  0.1930 -1.5129
  671MOL0     H90582  12.144   7.437   5.379  0.6088 -0.3245 -1.7615
  671MOL0     H90583  11.883   7.750   5.441 -1.2987 -0.5665  0.2261
  671MOL0     H90584  11.647   7.284   5.598 -0.4898  3.6882 -0.3066
  671MOL0     H90585  11.412   7.350   5.625 -0.6608  0.0224 -0.3731
  672MOL0     O90586   4.652   5.665   9.566  0.1020 -0.4050  0.3832
  672MOL0     C90587   4.762   5.710   9.534 -0.1561  0.2433 -0.6911
  672MOL0     O90588   4.778   5.814   9.454 -0.6843 -0.0921  0.2703
  672MOL0     C90589   4.671   5.887   9.424  0.4444 -1.8815  0.2032
  672MOL0     C90590   4.597   5.843   9.317  0.2488 -0.9080  0.4806
  672MOL0     C90591   4.498   5.933   9.253  0.3686 -0.2807 -0.8597
  672MOL0     C90592   4.462   6.055   9.314 -0.7308  1.2959 -0.8745
  672MOL0     O90593   4.363   6.127   9.262 -0.1158 -0.7481  0.0057
  672MOL0     C90594   4.313   6.242   9.334  0.1427  0.2089  0.0835
  672MOL0     C90595   4.188   6.289   9.268 -0.3765  0.7252  1.1017
  672MOL0     C90596   4.238   6.359   9.131 -0.0075  1.0290  0.2433
  672MOL0     C90597   4.144   6.478   9.092 -0.4272  0.0614  0.4559
  672MOL0     C90598   4.002   6.458   9.033  0.1323  0.0413  0.3154
  672MOL0     C90599   4.007   6.316   8.951  1.2490 -0.2228  0.4014
  672MOL0     C90600   3.873   6.305   8.872  0.2081 -0.8683  0.4539
  672MOL0     C90601   3.752   6.296   8.960  0.4629 -0.1407 -0.4990
  672MOL0     N90602   3.627   6.257   8.887 -0.5393 -0.0320  0.0613
  672MOL0     C90603   3.600   6.133   8.829  1.1191 -0.1919 -0.0975
  672MOL0     C90604   3.478   6.152   8.768  0.0529 -0.3394 -0.0773
  672MOL0     C90605   3.398   6.036   8.714 -0.5325  0.0869 -0.1851
  672MOL0     C90606   3.249   6.055   8.718 -0.1183  0.5018 -0.2503
  672MOL0     C90607   3.205   6.050   8.867  0.5524 -0.5345  0.2488
  672MOL0     C90608   3.052   6.060   8.876  0.0297 -0.4219  0.9138
  672MOL0     O90609   2.995   5.935   8.851  0.3938  0.1827 -0.5823
  672MOL0     C90610   2.863   5.931   8.817  0.6854 -1.1137 -0.2509
  672MOL0     C90611   2.770   5.966   8.905 -0.1013  0.0739 -0.0919
  672MOL0     C90612   2.629   5.966   8.870 -0.6707  0.0207  0.0484
  672MOL0     C90613   2.530   5.977   8.979 -0.2393 -0.6683  0.4610
  672MOL0     C90614   2.598   5.927   8.735  0.0710 -0.5661 -0.3082
  672MOL0     C90615   2.461   5.909   8.682 -0.3751 -0.5127 -0.0358
  672MOL0     O90616   2.374   6.011   8.704  1.1087  0.1913  0.8048
  672MOL0     C90617   2.235   6.004   8.657 -0.6911 -0.6508 -1.0758
  672MOL0     C90618   2.164   5.893   8.636  0.4823  0.2649 -0.4948
  672MOL0     C90619   2.029   5.901   8.596  0.0077  0.5854  0.7000
  672MOL0     C90620   1.967   6.021   8.565 -0.2814 -0.1789 -0.8977
  672MOL0     O90621   1.834   6.049   8.538 -0.5954  0.1018  0.9471
  672MOL0     C90622   1.747   5.951   8.579  0.6999 -0.6779 -0.4961
  672MOL0     C90623   1.598   5.994   8.548 -1.1103  0.5605 -0.2647
  672MOL0     C90624   1.504   5.889   8.566  0.1529  0.5647 -0.3014
  672MOL0     C90625   1.359   5.929   8.524  0.1288 -0.4925  0.5873
  672MOL0     C90626   1.249   5.833   8.561 -0.0700 -0.0751 -0.5766
  672MOL0     C90627   1.113   5.890   8.504 -0.5287 -0.4288  0.1649
  672MOL0     C90628   0.997   5.849   8.596  0.2161 -0.0065 -0.0021
  672MOL0     C90629   0.869   5.912   8.548  0.5851 -0.0026 -0.1167
  672MOL0    Cl90630   0.717   5.848   8.631 -0.5179 -0.4710  0.0757
  672MOL0     C90631   2.037   6.134   8.599 -0.4579 -0.4924 -0.0149
  672MOL0     C90632   2.166   6.122   8.645  0.2798  0.2244  0.7261
  672MOL0     O90633   2.444   5.810   8.612 -1.2439  0.2578  0.3980
  672MOL0     C90634   2.699   5.887   8.651  0.1297  0.3777  0.4025
  672MOL0     C90635   2.832   5.891   8.690  0.0592 -0.4719  0.0435
  672MOL0     N90636   3.443   6.281   8.790 -0.3388 -0.0770  0.1238
  672MOL0     N90637   3.522   6.336   8.871 -0.3257 -1.0624 -0.0305
  672MOL0     C90638   4.534   6.090   9.436  0.4914 -0.2315  0.3418
  672MOL0     C90639   4.636   6.011   9.489  0.7739 -0.6755  0.3838
  672MOL0     C90640   4.886   5.648   9.594  0.3929 -0.6564  0.3730
  672MOL0     C90641   5.014   5.716   9.616  0.1771  0.5072  1.3302
  672MOL0     C90642   5.120   5.650   9.675  1.0232 -0.0905 -0.8346
  672MOL0     C90643   5.109   5.512   9.693 -0.9424  0.1179 -0.0761
  672MOL0     O90644   5.221   5.431   9.727  0.1159 -0.9387 -0.1427
  672MOL0     C90645   5.345   5.492   9.708 -0.8935 -0.5753  0.0927
  672MOL0     C90646   5.463   5.395   9.696 -0.3080  0.3480 -0.0941
  672MOL0     C90647   5.575   5.459   9.777  0.2535  0.1621  0.4430
  672MOL0     C90648   5.695   5.359   9.780  0.3171 -0.6380  0.4317
  672MOL0     C90649   5.753   5.348   9.647 -0.6406  0.5262 -0.7563
  672MOL0     C90650   5.793   5.336   9.531  0.1774  0.0168 -0.4211
  672MOL0     C90651   4.996   5.441   9.668  0.2416  0.3503  0.0716
  672MOL0     C90652   4.886   5.516   9.628  0.3445 -0.2833 -0.1589
  672MOL0     H90653   4.619   5.751   9.264  3.4221 -0.0484  0.1360
  672MOL0     H90654   4.448   5.900   9.162 -1.8697  1.8948 -0.5462
  672MOL0     H90655   4.289   6.205   9.435  0.1462 -1.1994 -0.4093
  672MOL0     H90656   4.393   6.316   9.341  0.8599 -0.6394  1.3129
  672MOL0     H90657   4.115   6.210   9.245 -1.3574  2.0878 -0.7027
  672MOL0     H90658   4.138   6.359   9.335 -3.9439 -1.6135  1.1810
  672MOL0     H90659   4.335   6.404   9.152  1.4808 -2.5106  1.8213
  672MOL0     H90660   4.260   6.278   9.061 -3.4344 -0.5654  0.7826
  672MOL0     H90661   4.131   6.551   9.172 -1.1549 -0.5603  0.9125
  672MOL0     H90662   4.203   6.534   9.019 -3.6723  3.7507  0.3260
  672MOL0     H90663   3.921   6.458   9.106 -1.3055  4.2520 -1.0220
  672MOL0     H90664   3.978   6.541   8.966 -0.8846 -3.7120 -4.4913
  672MOL0     H90665   4.093   6.307   8.884  0.7433 -3.8401  0.0254
  672MOL0     H90666   4.022   6.235   9.023  0.6808 -0.3454  0.3831
  672MOL0     H90667   3.862   6.387   8.800  0.8145 -1.1014  0.0804
  672MOL0     H90668   3.877   6.218   8.806  0.5547  0.7701 -1.8353
  672MOL0     H90669   3.729   6.388   9.016 -1.7294 -0.5980 -0.5719
  672MOL0     H90670   3.771   6.215   9.030 -0.2688 -0.9557 -1.2226
  672MOL0     H90671   3.657   6.041   8.824  2.2556  0.5174 -0.8276
  672MOL0     H90672   3.431   6.024   8.610 -0.3025  2.4926 -0.4468
  672MOL0     H90673   3.419   5.941   8.764  0.4892  1.8826  3.1346
  672MOL0     H90674   3.203   5.975   8.659 -1.8947  0.7304  0.7745
  672MOL0     H90675   3.219   6.148   8.668 -2.9852 -1.6562 -2.9749
  672MOL0     H90676   3.249   6.130   8.927 -2.5283  1.5380 -0.0282
  672MOL0     H90677   3.223   5.950   8.908 -2.5292 -0.8608  1.0309
  672MOL0     H90678   3.035   6.134   8.797  2.1393  0.3306  1.0994
  672MOL0     H90679   3.012   6.099   8.970  1.8673  3.5012  0.3038
  672MOL0     H90680   2.795   5.984   9.009 -0.1025 -1.8365  0.2711
  672MOL0     H90681   2.577   5.985   9.077  3.2135 -0.0178 -1.0888
  672MOL0     H90682   2.477   6.071   8.961  0.9667  0.0702  0.6731
  672MOL0     H90683   2.459   5.894   8.974 -0.1886 -0.6410 -2.3033
  672MOL0     H90684   2.207   5.800   8.672 -0.0686  0.2380  0.1011
  672MOL0     H90685   1.972   5.810   8.591 -0.5536  0.9819 -3.2265
  672MOL0     H90686   1.767   5.854   8.533  1.5059 -2.3263  2.9758
  672MOL0     H90687   1.757   5.942   8.687 -1.1403  0.8372 -0.1252
  672MOL0     H90688   1.559   6.079   8.605 -4.5135  0.3763 -2.0702
  672MOL0     H90689   1.602   6.024   8.442  1.4258 -0.4583 -0.5481
  672MOL0     H90690   1.493   5.875   8.674  2.4197 -3.2534 -0.3806
  672MOL0     H90691   1.550   5.798   8.526  0.0973  0.7289 -0.7451
  672MOL0     H90692   1.339   6.018   8.585  1.9451 -0.2398  0.8623
  672MOL0     H90693   1.362   5.952   8.417  0.0249 -1.4731  0.3679
  672MOL0     H90694   1.238   5.830   8.669 -2.1548  0.2826 -0.7442
  672MOL0     H90695   1.261   5.735   8.515  0.3018  0.4643 -1.6823
  672MOL0     H90696   1.117   5.999   8.499  0.5859 -0.5062 -0.8425
  672MOL0     H90697   1.100   5.850   8.403 -1.9179  2.2001 -0.7615
  672MOL0     H90698   1.007   5.876   8.701 -2.8080  0.1414  0.3570
  672MOL0     H90699   0.994   5.739   8.592 -2.9162 -0.0747  1.1226
  672MOL0     H90700   0.847   5.892   8.443 -1.0977  2.7617 -0.3741
  672MOL0     H90701   0.872   6.021   8.554 -5.8326  0.6079 -1.3718
  672MOL0     H90702   1.989   6.230   8.589  0.8412  0.1091 -0.8288
  672MOL0     H90703   2.210   6.216   8.678 -0.0815  1.2705 -1.5717
  672MOL0     H90704   2.677   5.856   8.549 -1.8875 -1.2688  1.2700
  672MOL0     H90705   2.904   5.859   8.616  1.4561  3.7473 -0.7293
  672MOL0     H90706   4.509   6.181   9.488 -0.3873  0.1317 -0.6812
  672MOL0     H90707   4.696   6.040   9.574 -1.1128  1.5676  1.0591
  672MOL0     H90708   5.017   5.819   9.581 -1.1577  0.5037  1.1413
  672MOL0     H90709   5.211   5.708   9.686  0.9559 -0.4258  2.1356
  672MOL0     H90710   5.342   5.541   9.610 -1.0466  0.5748  0.6634
  672MOL0     H90711   5.357   5.549   9.800 -0.8109 -0.6253  0.1139
  672MOL0     H90712   5.490   5.379   9.591  1.1318  0.3696  0.2532
  672MOL0     H90713   5.445   5.293   9.732  2.3238 -0.1232  0.0405
  672MOL0     H90714   5.536   5.486   9.876 -0.6498 -0.3545  0.2394
  672MOL0     H90715   5.606   5.553   9.730 -0.7039 -0.1012 -0.7733
  672MOL0     H90716   5.668   5.258   9.812 -1.3089 -0.6405 -0.8241
  672MOL0     H90717   5.770   5.396   9.852 -0.2953  0.6076  0.4672
  672MOL0     H90718   5.825   5.320   9.429  3.6475  4.5792 -0.3685
  672MOL0     H90719   4.993   5.335   9.693 -0.9078  0.7886  2.0019
  672MOL0     H90720   4.796   5.456   9.617  2.1873 -3.1331 -0.7075
  673MOL0     O90721  10.955  10.462   2.325 -0.2560 -0.3660  1.4507
  673MOL0     C90722  10.984  10.426   2.436  1.3223  0.1886  0.3999
  673MOL0     O90723  10.921  10.469   2.550 -0.0166  0.2704 -0.3354
  673MOL0     C90724  10.820  10.557   2.549  0.0266  0.2738  0.6044
  673MOL0     C90725  10.691  10.530   2.611 -0.0502  0.1956  0.7021
  673MOL0     C90726  10.595  10.628   2.626  0.8945 -0.1971 -0.5927
  673MOL0     C90727  10.611  10.755   2.572 -0.4730 -0.5426  0.4453
  673MOL0     O90728  10.503  10.841   2.570  0.5292 -0.2698  0.6968
  673MOL0     C90729  10.466  10.898   2.442 -0.2871 -0.4090 -0.6291
  673MOL0     C90730  10.315  10.910   2.449  0.5132 -0.3862  0.0075
  673MOL0     C90731  10.248  10.970   2.314 -0.9151 -0.1731 -0.1365
  673MOL0     C90732  10.212  10.852   2.225 -0.0666 -0.7764  0.2342
  673MOL0     C90733  10.194  10.893   2.076  0.1820  0.6234 -0.0303
  673MOL0     C90734  10.084  10.997   2.069 -0.3155  0.1702 -0.3499
  673MOL0     C90735  10.038  11.030   1.926  0.4260 -0.4547  0.2711
  673MOL0     C90736  10.011  10.913   1.844  0.6680  0.6130 -0.1728
  673MOL0     N90737   9.887  10.835   1.893  0.5556 -0.1102  0.2520
  673MOL0     C90738   9.890  10.710   1.951 -0.0437  0.1902 -0.6692
  673MOL0     C90739   9.761  10.686   1.978 -0.0927 -0.1521 -0.0507
  673MOL0     C90740   9.697  10.557   2.038 -0.1039 -0.5687 -0.4608
  673MOL0     C90741   9.795  10.480   2.124 -0.0946 -0.0421  0.2002
  673MOL0     C90742   9.819  10.549   2.258  0.3285  0.1381 -0.6317
  673MOL0     C90743   9.712  10.518   2.365  0.6398  0.7823 -0.4757
  673MOL0     O90744   9.598  10.590   2.330  0.5900  0.1165  0.0204
  673MOL0     C90745   9.502  10.620   2.425 -0.3223  0.8063  0.1054
  673MOL0     C90746   9.495  10.572   2.557 -0.9144 -0.7468 -0.1914
  673MOL0     C90747   9.384  10.616   2.634 -0.7065  0.1068  0.3675
  673MOL0     C90748   9.374  10.565   2.773 -0.5196 -0.2652 -0.0565
  673MOL0     C90749   9.283  10.704   2.581  0.0368  0.0501 -0.4805
  673MOL0     C90750   9.175  10.753   2.665 -1.0007  0.2720  0.1855
  673MOL0     O90751   9.213  10.828   2.779  0.8310  0.1712  0.2249
  673MOL0     C90752   9.113  10.874   2.861 -0.0508  0.0824 -0.0777
  673MOL0     C90753   9.052  10.996   2.854  0.5572 -0.6871  0.2985
  673MOL0     C90754   8.957  11.039   2.955 -0.5919 -0.0197 -0.2371
  673MOL0     C90755   8.926  10.959   3.057  0.1799  0.2272 -0.2178
  673MOL0     O90756   8.840  11.013   3.159  0.1044  0.4607  0.2870
  673MOL0     C90757   8.807  10.940   3.279 -0.6343 -0.2242 -0.0763
  673MOL0     C90758   8.682  10.867   3.251 -0.0745 -0.4344  0.3098
  673MOL0     C90759   8.574  10.963   3.219 -0.2240  0.2255  0.2191
  673MOL0     C90760   8.438  10.896   3.212  0.8479 -0.2464  0.7214
  673MOL0     C90761   8.323  11.001   3.174 -0.3436 -0.0970 -0.8801
  673MOL0     C90762   8.179  10.952   3.191 -0.7237 -0.6707 -0.4583
  673MOL0     C90763   8.062  11.058   3.163  0.1675  0.2206 -0.3088
  673MOL0     C90764   7.926  10.993   3.151 -0.6454 -0.2508  0.9162
  673MOL0    Cl90765   7.913  10.908   2.992 -0.0340  0.1056  0.0624
  673MOL0     C90766   8.982  10.826   3.067  0.4883 -0.4255  0.4979
  673MOL0     C90767   9.078  10.793   2.971  0.6868 -0.2235  0.7938
  673MOL0     O90768   9.063  10.728   2.631  1.1090  0.8176  0.0635
  673MOL0     C90769   9.286  10.732   2.451 -0.5488  0.3567  1.6708
  673MOL0     C90770   9.394  10.691   2.367  0.1348  0.2396  0.3634
  673MOL0     N90771   9.682  10.801   1.943  0.1657 -0.0249  0.0008
  673MOL0     N90772   9.767  10.891   1.900 -0.4480  0.7336  0.3280
  673MOL0     C90773  10.727  10.778   2.499 -1.2689  0.2355  0.0774
  673MOL0     C90774  10.836  10.681   2.491  0.9182 -0.5128  0.3191
  673MOL0     C90775  11.093  10.337   2.462  0.0400 -0.6289 -0.2348
  673MOL0     C90776  11.200  10.338   2.374  1.0576  0.3879 -0.4993
  673MOL0     C90777  11.316  10.260   2.398 -0.0084  0.3552 -1.1651
  673MOL0     C90778  11.324  10.181   2.517 -0.1890 -0.1818  0.4039
  673MOL0     O90779  11.423  10.101   2.550 -0.2042 -0.2703  0.3431
  673MOL0     C90780  11.548  10.110   2.486 -0.6773  0.5670 -0.2704
  673MOL0     C90781  11.646  10.030   2.571  0.1525  0.5871 -0.4510
  673MOL0     C90782  11.789  10.045   2.511 -0.1747 -0.1455  0.3955
  673MOL0     C90783  11.878   9.914   2.524  0.6663  0.6025  0.4385
  673MOL0     C90784  12.019   9.938   2.506 -0.2823 -0.1690 -0.6749
  673MOL0     C90785  12.141   9.962   2.488  0.7740  0.6592  0.1459
  673MOL0     C90786  11.215  10.179   2.599 -1.1729 -0.4718 -0.3106
  673MOL0     C90787  11.104  10.248   2.575  0.3691 -0.0625  0.1208
  673MOL0     H90788  10.674  10.430   2.650 -1.3184 -0.5902 -1.6617
  673MOL0     H90789  10.502  10.611   2.680  1.7850 -0.9897  0.7650
  673MOL0     H90790  10.506  11.000   2.449  1.6476 -1.2314  4.8081
  673MOL0     H90791  10.496  10.838   2.356 -3.6988 -5.1111  1.0676
  673MOL0     H90792  10.270  10.815   2.478 -2.7878  0.2473 -2.3994
  673MOL0     H90793  10.279  10.983   2.523  0.2066 -0.5681  0.0412
  673MOL0     H90794  10.158  11.027   2.339 -1.4566 -1.1353  0.1735
  673MOL0     H90795  10.317  11.041   2.267 -0.3906  0.3440  1.3577
  673MOL0     H90796  10.289  10.778   2.248  0.0883 -0.0863  2.1654
  673MOL0     H90797  10.120  10.811   2.267  0.1243  0.5426  2.0755
  673MOL0     H90798  10.290  10.931   2.039  0.3110 -0.8347 -1.3333
  673MOL0     H90799  10.179  10.795   2.028 -1.3783  0.2591  1.1416
  673MOL0     H90800   9.989  10.967   2.115 -0.0814  0.3509  0.2586
  673MOL0     H90801  10.118  11.089   2.117 -1.5157  0.4113  0.0790
  673MOL0     H90802   9.958  11.104   1.920  0.3828 -0.5433 -0.3880
  673MOL0     H90803  10.119  11.087   1.878 -0.8235  2.5692  1.4998
  673MOL0     H90804  10.099  10.849   1.833 -1.3435 -2.6219  1.0434
  673MOL0     H90805   9.988  10.934   1.739  0.1055  0.9078  0.0038
  673MOL0     H90806   9.973  10.645   1.973 -0.0909  0.3150 -0.1042
  673MOL0     H90807   9.605  10.582   2.092  1.3998  0.4832  1.7886
  673MOL0     H90808   9.648  10.493   1.964  0.3195 -1.7810  0.2709
  673MOL0     H90809   9.891  10.477   2.071 -1.3182  0.8099 -2.2189
  673MOL0     H90810   9.764  10.376   2.130 -0.5205 -0.0021 -1.0524
  673MOL0     H90811   9.828  10.657   2.242 -0.1333  0.2974  0.1448
  673MOL0     H90812   9.915  10.507   2.290 -0.6389 -1.6764  0.0330
  673MOL0     H90813   9.745  10.531   2.468  0.3109  0.1434 -0.2882
  673MOL0     H90814   9.676  10.416   2.350  2.3467  0.2084 -0.8860
  673MOL0     H90815   9.573  10.513   2.604  1.7513  1.7626 -1.1523
  673MOL0     H90816   9.457  10.609   2.830  0.3853  0.9584 -2.1828
  673MOL0     H90817   9.278  10.581   2.821 -0.5274  1.8834 -0.6618
  673MOL0     H90818   9.400  10.459   2.767 -1.2565 -0.4936  0.7119
  673MOL0     H90819   9.083  11.063   2.774 -5.6811  0.4499 -1.7059
  673MOL0     H90820   8.925  11.143   2.959 -1.1725 -0.0256 -2.8819
  673MOL0     H90821   8.888  10.880   3.320  0.4666  1.2551  0.0117
  673MOL0     H90822   8.780  11.016   3.353  1.2689  1.6259 -1.1535
  673MOL0     H90823   8.696  10.800   3.166 -0.4281  2.2126 -1.9593
  673MOL0     H90824   8.659  10.804   3.338  3.1829 -0.2890  1.4190
  673MOL0     H90825   8.588  11.022   3.128 -2.3167 -2.8802 -2.3440
  673MOL0     H90826   8.575  11.032   3.304 -0.8148  2.4940 -1.5207
  673MOL0     H90827   8.435  10.812   3.142  3.5568  1.4719 -1.6404
  673MOL0     H90828   8.412  10.850   3.308  2.1111  0.0898  1.2311
  673MOL0     H90829   8.343  11.025   3.069  0.0756  1.1293 -0.5375
  673MOL0     H90830   8.337  11.093   3.232  1.3098  0.1979 -1.6893
  673MOL0     H90831   8.167  10.866   3.124  2.9444 -0.4128 -1.6220
  673MOL0     H90832   8.171  10.918   3.295  1.3277 -0.0259 -0.0571
  673MOL0     H90833   8.086  11.106   3.067 -0.5244 -1.2248 -1.2416
  673MOL0     H90834   8.063  11.132   3.244 -0.5769  1.6668 -1.5697
  673MOL0     H90835   7.852  11.073   3.140 -0.0605  0.0561 -1.2208
  673MOL0     H90836   7.899  10.937   3.240  0.6967  1.8736  2.7799
  673MOL0     H90837   8.951  10.755   3.143 -1.8955  0.4371  0.4403
  673MOL0     H90838   9.113  10.691   2.964 -1.6924 -0.9935 -1.4259
  673MOL0     H90839   9.213  10.793   2.400  2.3482  0.4598 -2.9867
  673MOL0     H90840   9.393  10.711   2.261 -0.3230  0.6535  0.4440
  673MOL0     H90841  10.728  10.871   2.444 -1.8006 -0.4781 -1.1904
  673MOL0     H90842  10.927  10.705   2.436  1.8609 -0.0584  2.0278
  673MOL0     H90843  11.183  10.404   2.290 -1.2771  0.1755 -0.2546
  673MOL0     H90844  11.395  10.254   2.324  0.6169  1.2356 -0.5799
  673MOL0     H90845  11.551  10.060   2.389 -0.4010  2.5051 -1.3106
  673MOL0     H90846  11.584  10.213   2.485 -1.5924  1.2795  5.4346
  673MOL0     H90847  11.618   9.925   2.569  1.4919  0.1347  1.8403
  673MOL0     H90848  11.636  10.061   2.675 -0.0700  2.2310 -0.9267
  673MOL0     H90849  11.847  10.128   2.551 -0.7953 -0.0555  1.1315
  673MOL0     H90850  11.776  10.079   2.408 -2.6545  2.5483  1.4513
  673MOL0     H90851  11.851   9.844   2.445  2.8030  2.4576 -2.1104
  673MOL0     H90852  11.863   9.863   2.620  1.6624 -3.2552 -1.2669
  673MOL0     H90853  12.245   9.977   2.472  1.2891  2.6824  4.3098
  673MOL0     H90854  11.223  10.134   2.697  1.6485  2.3902  0.9251
  673MOL0     H90855  11.025  10.219   2.643  2.1672 -1.1204  1.8683
  674MOL0     O90856   3.282   4.796   0.640 -0.2516  0.4082  0.0321
  674MOL0     C90857   3.289   4.679   0.604  0.9458  0.9874  0.2475
  674MOL0     O90858   3.185   4.596   0.558 -0.1126 -0.0205 -0.0692
  674MOL0     C90859   3.056   4.639   0.571  0.5060  0.3404  0.3595
  674MOL0     C90860   2.998   4.699   0.683 -0.5215  0.1999 -0.8115
  674MOL0     C90861   2.862   4.718   0.695  0.5883  0.7188  0.5639
  674MOL0     C90862   2.777   4.679   0.583  0.4357 -0.2400  0.5760
  674MOL0     O90863   2.637   4.702   0.587 -0.4653 -0.3337  0.7513
  674MOL0     C90864   2.571   4.751   0.699 -0.2420 -0.0446 -0.7165
  674MOL0     C90865   2.421   4.769   0.661 -0.1108  0.1368  0.0204
  674MOL0     C90866   2.319   4.801   0.780  0.4058 -0.3511  1.6933
  674MOL0     C90867   2.178   4.746   0.737 -0.8471 -0.0893 -0.5375
  674MOL0     C90868   2.088   4.758   0.869  0.5947 -1.1619  0.7480
  674MOL0     C90869   1.950   4.718   0.844  0.4818 -0.6032  0.4419
  674MOL0     C90870   1.862   4.753   0.958 -0.9659  0.2923  0.5540
  674MOL0     C90871   1.717   4.699   0.952  0.2434  1.0324 -0.5801
  674MOL0     N90872   1.640   4.710   1.080 -0.4857  0.2944  0.3078
  674MOL0     C90873   1.568   4.818   1.125 -0.4499  0.4222  0.4201
  674MOL0     C90874   1.515   4.788   1.245  0.7812  0.3677 -0.4126
  674MOL0     C90875   1.441   4.876   1.338 -0.1770  0.0107  0.3220
  674MOL0     C90876   1.291   4.854   1.344  0.6121  0.3999  0.8586
  674MOL0     C90877   1.276   4.723   1.415  0.4739  0.2806 -0.4082
  674MOL0     C90878   1.116   4.697   1.435  1.0762  0.1030  0.2666
  674MOL0     O90879   1.043   4.806   1.498 -0.3098  0.4534  0.2850
  674MOL0     C90880   0.923   4.773   1.561 -0.1480  0.4761  0.3092
  674MOL0     C90881   0.857   4.647   1.568  0.2827  0.3201 -0.9111
  674MOL0     C90882   0.743   4.629   1.649  0.1317 -0.0114 -0.1715
  674MOL0     C90883   0.675   4.488   1.647  0.0063  0.3947  0.6127
  674MOL0     C90884   0.690   4.739   1.722 -0.5650  0.1114 -0.3673
  674MOL0     C90885   0.569   4.722   1.808 -0.6095 -0.3668  0.4051
  674MOL0     O90886   0.552   4.604   1.866  0.0349  0.0700  0.4403
  674MOL0     C90887   0.441   4.592   1.937  0.3923 -0.4114 -0.7152
  674MOL0     C90888   0.435   4.635   2.073  0.4785 -0.7701 -0.5332
  674MOL0     C90889   0.314   4.619   2.145  0.4945  0.9754 -0.2699
  674MOL0     C90890   0.202   4.565   2.084  0.4709  0.5306 -0.5061
  674MOL0     O90891   0.086   4.550   2.150  0.0379  0.1243  0.8387
  674MOL0     C90892  -0.013   4.449   2.107 -0.4282  0.2326  0.1976
  674MOL0     C90893  -0.093   4.395   2.227  0.4283  0.0431 -0.7189
  674MOL0     C90894  -0.229   4.455   2.233  0.7614  0.4399  0.0951
  674MOL0     C90895  -0.310   4.434   2.372 -0.4642  0.2810 -0.2662
  674MOL0     C90896  -0.444   4.503   2.373  0.3411 -0.2003  0.4339
  674MOL0     C90897  -0.518   4.469   2.496  0.3075  0.4163 -0.1766
  674MOL0     C90898  -0.644   4.545   2.517 -0.3303 -0.9003  1.3768
  674MOL0     C90899  -0.741   4.481   2.621  0.0469  0.0087  0.3074
  674MOL0    Cl90900  -0.684   4.462   2.790 -0.2378 -0.1136 -0.2323
  674MOL0     C90901   0.213   4.530   1.951 -0.7693 -0.6061  0.6585
  674MOL0     C90902   0.330   4.532   1.886 -0.9615  0.4241 -0.5894
  674MOL0     O90903   0.497   4.817   1.819 -0.0679  0.1290  0.0676
  674MOL0     C90904   0.743   4.864   1.696  0.1090  0.2121 -0.6442
  674MOL0     C90905   0.858   4.879   1.619  0.3348  0.0046 -0.6989
  674MOL0     N90906   1.562   4.662   1.270 -0.2342 -0.2995 -0.0452
  674MOL0     N90907   1.631   4.612   1.178  0.1320  0.6984  0.2917
  674MOL0     C90908   2.837   4.629   0.464  1.1942 -0.6267  0.6876
  674MOL0     C90909   2.972   4.596   0.463  0.0819 -0.4667 -0.2516
  674MOL0     C90910   3.425   4.617   0.613 -0.3380  0.5545  0.7894
  674MOL0     C90911   3.545   4.691   0.601 -0.3278  0.0161  0.0047
  674MOL0     C90912   3.680   4.626   0.619 -0.3873 -0.0861 -0.4510
  674MOL0     C90913   3.680   4.493   0.652  0.3399 -0.4534 -0.3439
  674MOL0     O90914   3.801   4.426   0.699  0.6800 -1.2772 -0.2685
  674MOL0     C90915   3.931   4.465   0.650 -0.3640 -0.3818  0.4217
  674MOL0     C90916   4.048   4.374   0.718  0.0833 -0.4067  0.6575
  674MOL0     C90917   4.027   4.225   0.684 -0.0723  0.3294 -0.4644
  674MOL0     C90918   4.165   4.150   0.690  0.4727 -0.5690 -0.7810
  674MOL0     C90919   4.234   4.166   0.817  0.4890  0.1266  0.4524
  674MOL0     C90920   4.291   4.178   0.921  0.3568  0.5882  0.1404
  674MOL0     C90921   3.555   4.430   0.656 -0.0756  0.0533  0.2813
  674MOL0     C90922   3.440   4.485   0.627  0.6586  0.8093 -0.8683
  674MOL0     H90923   3.061   4.717   0.770 -1.0358 -0.6619 -0.2458
  674MOL0     H90924   2.826   4.759   0.789  0.7487  1.5173  0.2835
  674MOL0     H90925   2.571   4.676   0.779 -0.6623 -0.0956 -0.7606
  674MOL0     H90926   2.617   4.843   0.735  1.0159 -1.4944  1.6840
  674MOL0     H90927   2.424   4.845   0.582  1.8738  0.5988  0.4863
  674MOL0     H90928   2.389   4.677   0.611 -1.2259  1.0264 -0.9886
  674MOL0     H90929   2.342   4.750   0.874 -1.7793 -2.2538  1.2805
  674MOL0     H90930   2.329   4.909   0.797  1.4129  0.4836 -2.9111
  674MOL0     H90931   2.138   4.804   0.653 -0.4172 -1.6688 -1.8917
  674MOL0     H90932   2.183   4.639   0.713  2.1569 -0.5429  1.6370
  674MOL0     H90933   2.120   4.706   0.960 -1.5522 -0.0192  2.2408
  674MOL0     H90934   2.094   4.863   0.899 -1.4769 -0.2408 -1.6630
  674MOL0     H90935   1.904   4.775   0.763  0.0982  0.8348  1.6160
  674MOL0     H90936   1.944   4.612   0.818  2.0474 -0.4460 -0.6535
  674MOL0     H90937   1.901   4.713   1.052 -0.0445 -1.4206 -0.4983
  674MOL0     H90938   1.851   4.862   0.960  0.4450  0.4395  2.2571
  674MOL0     H90939   1.728   4.593   0.928  0.4899  1.4092 -2.2802
  674MOL0     H90940   1.654   4.737   0.870 -0.2470 -3.5455 -2.6218
  674MOL0     H90941   1.551   4.914   1.078 -0.5811  0.8123  1.2385
  674MOL0     H90942   1.498   4.872   1.432 -0.9066 -0.1054  0.7730
  674MOL0     H90943   1.464   4.977   1.305  0.8473  0.5109  2.3820
  674MOL0     H90944   1.246   4.844   1.245  1.5037 -3.4156  0.6952
  674MOL0     H90945   1.238   4.934   1.397 -2.1020 -0.9251  0.3255
  674MOL0     H90946   1.309   4.732   1.519  2.5064  1.4397 -1.1093
  674MOL0     H90947   1.321   4.635   1.369  1.6674  1.1180 -0.8880
  674MOL0     H90948   1.106   4.610   1.501 -0.0150  0.2072  0.2498
  674MOL0     H90949   1.072   4.669   1.339  1.2197  0.8411 -0.0194
  674MOL0     H90950   0.892   4.566   1.505  3.8302  1.4774 -0.6897
  674MOL0     H90951   0.718   4.424   1.724 -0.1520 -0.0815  0.3102
  674MOL0     H90952   0.567   4.493   1.630 -0.0994  0.3147  1.2363
  674MOL0     H90953   0.699   4.442   1.550  2.1988  0.6231  0.9993
  674MOL0     H90954   0.528   4.666   2.118 -0.7786 -0.7865  2.2616
  674MOL0     H90955   0.303   4.640   2.251 -2.0720  2.6090 -0.7589
  674MOL0     H90956  -0.083   4.488   2.033  0.6993  2.2958  0.1362
  674MOL0     H90957   0.046   4.364   2.072 -0.7450 -1.2086  2.8490
  674MOL0     H90958  -0.109   4.287   2.223 -0.0493  0.1062 -0.6553
  674MOL0     H90959  -0.041   4.412   2.322 -1.7180 -1.0033  0.7420
  674MOL0     H90960  -0.293   4.414   2.155  0.1650 -0.8192  1.2166
  674MOL0     H90961  -0.219   4.563   2.217  0.0276  0.8933  2.2954
  674MOL0     H90962  -0.330   4.327   2.383  2.0820 -0.1950  0.3209
  674MOL0     H90963  -0.243   4.474   2.449 -1.1749  2.5253 -0.7402
  674MOL0     H90964  -0.504   4.481   2.285  0.7621 -0.9560  0.3210
  674MOL0     H90965  -0.417   4.609   2.367 -0.4202 -0.0380 -0.2893
  674MOL0     H90966  -0.542   4.362   2.498 -1.6662  0.8290  0.3571
  674MOL0     H90967  -0.458   4.486   2.586 -1.2075 -0.9234  1.1799
  674MOL0     H90968  -0.697   4.555   2.422 -0.7875  0.7246  1.7876
  674MOL0     H90969  -0.618   4.648   2.543  0.9859  0.8984 -5.1692
  674MOL0     H90970  -0.761   4.384   2.575 -1.5927  0.4059  0.1329
  674MOL0     H90971  -0.830   4.544   2.618 -0.4056 -0.4759  2.1538
  674MOL0     H90972   0.121   4.484   1.916 -1.7328  0.3601  1.8016
  674MOL0     H90973   0.327   4.486   1.788 -4.0978 -0.2405 -0.2748
  674MOL0     H90974   0.703   4.955   1.740 -0.5426 -1.1880  1.8766
  674MOL0     H90975   0.897   4.979   1.603  0.3711 -0.1754 -1.8225
  674MOL0     H90976   2.784   4.590   0.377  0.3064 -0.2522  1.0500
  674MOL0     H90977   3.010   4.556   0.369 -5.6446 -2.7351 -2.0295
  674MOL0     H90978   3.544   4.795   0.570  0.2530  0.5158  1.5557
  674MOL0     H90979   3.771   4.680   0.595 -0.8681  0.1095 -1.8728
  674MOL0     H90980   3.947   4.460   0.542  4.1675  1.6979  0.7394
  674MOL0     H90981   3.948   4.570   0.675  0.9308 -1.2364  3.7319
  674MOL0     H90982   4.057   4.395   0.825 -3.7293  0.1175  1.0029
  674MOL0     H90983   4.139   4.396   0.661 -0.6653 -1.9577 -1.2381
  674MOL0     H90984   4.000   4.228   0.579 -2.0474 -0.7461 -0.0222
  674MOL0     H90985   3.947   4.183   0.746  1.5764  0.4397  1.8975
  674MOL0     H90986   4.238   4.201   0.626 -1.6137  0.7486 -2.2549
  674MOL0     H90987   4.149   4.045   0.663  0.6550 -0.5583 -0.9296
  674MOL0     H90988   4.328   4.191   1.021 -0.8679 -1.2723  0.8903
  674MOL0     H90989   3.546   4.328   0.694 -2.6380  0.9178  2.2971
  674MOL0     H90990   3.352   4.425   0.646  1.7439  0.3471  4.1043
  675MOL0     O90991   4.819   1.471   5.599  0.5438 -0.3321  0.1232
  675MOL0     C90992   4.870   1.422   5.502 -0.5439 -0.0762  0.5141
  675MOL0     O90993   4.809   1.343   5.406  0.8373 -0.1447 -0.2542
  675MOL0     C90994   4.685   1.287   5.438 -0.8977 -0.6126  0.6125
  675MOL0     C90995   4.583   1.322   5.355  0.3787  0.9982  0.0769
  675MOL0     C90996   4.455   1.267   5.375  0.1083 -0.0398  0.3404
  675MOL0     C90997   4.433   1.174   5.478  0.1856  0.0435 -0.0713
  675MOL0     O90998   4.298   1.141   5.491 -1.2791 -0.2557  0.1146
  675MOL0     C90999   4.267   1.042   5.585  0.0690 -0.3701 -0.4162
  675MOL0     C91000   4.122   0.996   5.595 -0.1551 -0.1310 -0.4501
  675MOL0     C91001   4.079   0.926   5.470 -0.7248 -0.1668 -0.1823
  675MOL0     C91002   3.933   0.902   5.460  0.1506 -0.4102 -0.6992
  675MOL0     C91003   3.904   0.791   5.353 -0.7708 -0.4482 -0.2787
  675MOL0     C91004   3.755   0.783   5.327  0.2452  0.8399 -1.1516
  675MOL0     C91005   3.708   0.633   5.290  0.6947 -0.2562 -0.5341
  675MOL0     C91006   3.676   0.555   5.410  0.2295  0.1486 -0.3540
  675MOL0     N91007   3.548   0.605   5.471 -0.4686  0.2362 -0.2863
  675MOL0     C91008   3.424   0.602   5.411  0.3241 -0.0380 -0.9510
  675MOL0     C91009   3.353   0.690   5.484  0.3813 -0.2822  0.0351
  675MOL0     C91010   3.220   0.738   5.454  0.5925 -0.1898  0.1949
  675MOL0     C91011   3.125   0.732   5.568  0.0719  0.4398 -0.1130
  675MOL0     C91012   2.984   0.770   5.523 -0.9217 -0.4208 -1.4834
  675MOL0     C91013   2.892   0.785   5.649  0.1649  0.5543  0.4847
  675MOL0     O91014   2.764   0.837   5.599  0.2210  0.7762  0.2473
  675MOL0     C91015   2.651   0.849   5.670 -0.6375 -0.5761 -0.4866
  675MOL0     C91016   2.545   0.902   5.606  1.0626 -0.8829  1.4738
  675MOL0     C91017   2.431   0.941   5.675  0.1060  0.6462  0.3627
  675MOL0     C91018   2.312   0.985   5.598 -0.1860  1.2881  0.1546
  675MOL0     C91019   2.425   0.921   5.818  0.1155  0.6831  0.4459
  675MOL0     C91020   2.299   0.916   5.902 -0.1139 -0.1944 -0.5739
  675MOL0     O91021   2.315   0.904   6.037  0.2223  0.7599  0.6644
  675MOL0     C91022   2.203   0.880   6.109  0.0580 -0.2033 -0.5029
  675MOL0     C91023   2.142   0.753   6.107  0.1664 -0.5580  0.5552
  675MOL0     C91024   2.038   0.717   6.194 -0.5785 -0.1529 -0.8006
  675MOL0     C91025   1.994   0.804   6.299  0.0942 -0.1564 -0.7423
  675MOL0     O91026   1.895   0.779   6.393  0.9474  0.4135 -0.0085
  675MOL0     C91027   1.769   0.719   6.355  0.5134 -0.2945  0.7481
  675MOL0     C91028   1.649   0.773   6.431  0.4577 -0.8771 -0.3596
  675MOL0     C91029   1.512   0.726   6.384 -0.1208 -0.1408 -0.3450
  675MOL0     C91030   1.493   0.573   6.378  0.5087 -0.5734 -0.6369
  675MOL0     C91031   1.357   0.535   6.309 -1.0862 -0.3952  1.2310
  675MOL0     C91032   1.371   0.537   6.157  0.5324 -0.7242 -0.0376
  675MOL0     C91033   1.239   0.486   6.093 -0.6658 -0.5267  0.1788
  675MOL0     C91034   1.237   0.526   5.936 -0.3531  0.0490 -0.2600
  675MOL0    Cl91035   1.223   0.704   5.914 -0.0778  0.0766  0.0567
  675MOL0     C91036   2.059   0.921   6.307 -0.5674 -0.1202 -0.2606
  675MOL0     C91037   2.154   0.963   6.223 -0.9642  0.0516  0.6497
  675MOL0     O91038   2.189   0.934   5.849  0.0110 -0.0638  0.0786
  675MOL0     C91039   2.541   0.879   5.878  0.6963 -0.2805 -0.0326
  675MOL0     C91040   2.649   0.846   5.806 -0.3744 -0.7995 -0.0975
  675MOL0     N91041   3.432   0.728   5.594 -0.0442 -0.2522  1.0146
  675MOL0     N91042   3.550   0.686   5.583  1.0102  0.5322  0.1343
  675MOL0     C91043   4.543   1.133   5.553 -0.2201  0.0863 -0.1807
  675MOL0     C91044   4.668   1.195   5.533 -0.8095  0.5341  0.1636
  675MOL0     C91045   5.004   1.466   5.462  0.3404 -0.7908  0.5380
  675MOL0     C91046   5.081   1.402   5.361 -0.7363 -1.1803  0.2075
  675MOL0     C91047   5.201   1.448   5.316  0.3895  0.4369 -0.1435
  675MOL0     C91048   5.253   1.563   5.376 -0.3877  0.6382 -0.3870
  675MOL0     O91049   5.371   1.616   5.342 -0.3903  0.6186 -1.0528
  675MOL0     C91050   5.427   1.599   5.213 -0.4388 -0.1300 -0.0459
  675MOL0     C91051   5.553   1.695   5.214 -0.7008 -1.3427 -0.5212
  675MOL0     C91052   5.657   1.644   5.121  0.4106  0.9062  0.4259
  675MOL0     C91053   5.773   1.746   5.104  0.6161 -0.0631 -0.0154
  675MOL0     C91054   5.860   1.706   4.990 -0.7347  0.3921  0.0897
  675MOL0     C91055   5.934   1.688   4.894 -0.0789 -0.5904  1.2780
  675MOL0     C91056   5.179   1.631   5.473  0.4121  0.0553 -0.6467
  675MOL0     C91057   5.056   1.585   5.521  1.0718  0.2080 -0.2143
  675MOL0     H91058   4.604   1.403   5.285  0.0990  0.3815 -0.7400
  675MOL0     H91059   4.376   1.311   5.314  1.3156 -0.5021 -1.6352
  675MOL0     H91060   4.330   0.958   5.555 -0.2282 -2.3461  3.8641
  675MOL0     H91061   4.288   1.075   5.687  3.7396  1.9693 -1.6829
  675MOL0     H91062   4.118   0.933   5.684 -1.1507  1.8583  0.9804
  675MOL0     H91063   4.057   1.082   5.614  3.2735  2.4399  0.4222
  675MOL0     H91064   4.120   0.991   5.392  0.7929 -0.6538  0.1655
  675MOL0     H91065   4.130   0.829   5.460 -2.0812 -0.9974  0.6099
  675MOL0     H91066   3.889   0.871   5.556 -0.6794  1.1104 -0.5465
  675MOL0     H91067   3.879   0.993   5.432  0.4153 -0.3357 -0.9712
  675MOL0     H91068   3.960   0.821   5.264  0.8305 -1.4005  0.3635
  675MOL0     H91069   3.944   0.698   5.395 -2.2635 -0.9929 -0.0213
  675MOL0     H91070   3.705   0.814   5.419  0.4431 -2.4851  0.2183
  675MOL0     H91071   3.735   0.860   5.252 -1.6203 -1.0935 -2.7610
  675MOL0     H91072   3.625   0.642   5.219  0.4153 -0.8191 -0.2877
  675MOL0     H91073   3.785   0.586   5.228  3.4012 -1.0401  3.1070
  675MOL0     H91074   3.763   0.553   5.476 -1.5451  0.1681  2.1029
  675MOL0     H91075   3.652   0.448   5.400 -3.2420  0.5064  2.3483
  675MOL0     H91076   3.384   0.545   5.327  1.6725 -0.0698 -1.5886
  675MOL0     H91077   3.220   0.842   5.421 -0.6621  0.5013  2.1976
  675MOL0     H91078   3.168   0.679   5.378 -1.6050  0.8095  0.8662
  675MOL0     H91079   3.160   0.812   5.635 -0.7243  0.5554  0.1830
  675MOL0     H91080   3.123   0.637   5.623  0.2068  1.9181  2.6742
  675MOL0     H91081   2.944   0.688   5.462 -0.9422 -0.5386 -1.3142
  675MOL0     H91082   2.994   0.864   5.470  0.1341  1.5156  1.8692
  675MOL0     H91083   2.933   0.850   5.727 -1.2898  0.1491  1.6414
  675MOL0     H91084   2.874   0.691   5.701 -0.9801  1.0921  1.1055
  675MOL0     H91085   2.549   0.909   5.498 -2.5910  1.6973  1.3343
  675MOL0     H91086   2.351   1.032   5.507 -1.4185  1.1979 -0.4330
  675MOL0     H91087   2.252   0.899   5.566  1.6340  0.7922 -2.2476
  675MOL0     H91088   2.254   1.066   5.642  0.5643  1.9455 -0.0469
  675MOL0     H91089   2.188   0.681   6.041  1.2846 -0.0745  0.7759
  675MOL0     H91090   1.995   0.618   6.186  0.8106 -0.9803  1.1273
  675MOL0     H91091   1.756   0.739   6.248  1.6313  0.8000  0.7887
  675MOL0     H91092   1.779   0.611   6.369  0.5332 -0.6030 -1.3240
  675MOL0     H91093   1.687   0.738   6.528  0.5718 -1.9789 -0.7890
  675MOL0     H91094   1.655   0.882   6.425 -0.4947 -0.7774  0.3427
  675MOL0     H91095   1.511   0.767   6.283  0.6816  0.2182 -0.2189
  675MOL0     H91096   1.437   0.773   6.448 -1.1635 -0.2095 -1.4855
  675MOL0     H91097   1.571   0.524   6.319  0.1714 -0.8974 -0.8194
  675MOL0     H91098   1.483   0.537   6.480 -0.3488  3.5000  0.8895
  675MOL0     H91099   1.275   0.604   6.329 -0.1623  1.1133  0.0077
  675MOL0     H91100   1.319   0.439   6.344  1.2116 -1.2868  1.4877
  675MOL0     H91101   1.392   0.640   6.127 -1.8418 -0.0609  0.4128
  675MOL0     H91102   1.461   0.480   6.130  1.2281  0.2919  0.0849
  675MOL0     H91103   1.159   0.540   6.144  1.8922  2.5727  1.2258
  675MOL0     H91104   1.232   0.378   6.111 -0.9430 -0.3280  1.3206
  675MOL0     H91105   1.154   0.479   5.883  0.4019 -1.0349 -0.5232
  675MOL0     H91106   1.327   0.493   5.882  0.3519 -0.0835  0.9408
  675MOL0     H91107   2.046   0.982   6.396  2.2342  1.1072 -0.5829
  675MOL0     H91108   2.202   1.059   6.239 -2.7200  0.7821  1.9205
  675MOL0     H91109   2.543   0.856   5.984  0.1026  0.3383  0.1161
  675MOL0     H91110   2.745   0.826   5.855  0.4625 -0.0390 -1.3741
  675MOL0     H91111   4.531   1.065   5.637  4.7835 -0.8885  0.0336
  675MOL0     H91112   4.752   1.160   5.591 -0.4443 -0.8431 -1.1468
  675MOL0     H91113   5.040   1.307   5.328 -2.5774 -0.2595 -0.2830
  675MOL0     H91114   5.249   1.400   5.232 -1.6101 -1.0715 -0.4946
  675MOL0     H91115   5.450   1.493   5.199  1.7060  0.5006 -1.8445
  675MOL0     H91116   5.359   1.622   5.131 -1.6188 -1.0912  0.6200
  675MOL0     H91117   5.597   1.706   5.313  1.4714 -1.1247 -1.4374
  675MOL0     H91118   5.520   1.793   5.180  2.7762  0.5323  1.0292
  675MOL0     H91119   5.610   1.616   5.026  1.9183  2.0156 -0.7010
  675MOL0     H91120   5.683   1.546   5.163 -1.6876  1.8758  4.5266
  675MOL0     H91121   5.816   1.745   5.204 -0.2339  0.1682  0.3644
  675MOL0     H91122   5.731   1.844   5.080  1.0871  0.0595 -0.3463
  675MOL0     H91123   6.000   1.678   4.810  1.0104  0.6380  1.9636
  675MOL0     H91124   5.211   1.722   5.524  0.5559 -0.2759 -0.1408
  675MOL0     H91125   5.004   1.627   5.607  0.1285  1.0131 -1.1645
  676MOL0     O91126   4.661   3.953   5.306 -0.1193 -0.1727 -0.3892
  676MOL0     C91127   4.750   4.011   5.239  1.2272  0.2977  0.4162
  676MOL0     O91128   4.730   4.103   5.137  0.3107  0.3948 -0.0074
  676MOL0     C91129   4.611   4.115   5.075 -0.0666  0.2641 -0.3990
  676MOL0     C91130   4.532   3.993   5.056  0.8157 -0.7036  0.2413
  676MOL0     C91131   4.412   3.999   4.983  1.0919 -0.1842 -0.6223
  676MOL0     C91132   4.375   4.118   4.924 -0.1094  0.1450  0.4853
  676MOL0     O91133   4.252   4.140   4.858  0.0748 -0.2412  0.3888
  676MOL0     C91134   4.192   4.030   4.787 -0.6633 -0.4041 -0.3678
  676MOL0     C91135   4.089   4.094   4.696  0.1838  0.4017  0.1802
  676MOL0     C91136   4.017   3.997   4.598  0.3135 -0.1545  1.2097
  676MOL0     C91137   3.901   4.054   4.515  0.4018 -0.7432  0.2934
  676MOL0     C91138   3.813   3.965   4.428 -0.4285  0.0976 -0.2418
  676MOL0     C91139   3.770   3.852   4.518  0.0987  0.0287 -0.3269
  676MOL0     C91140   3.674   3.752   4.454 -0.1865  0.1088 -0.4578
  676MOL0     C91141   3.621   3.653   4.553  0.2101 -0.8710  0.3894
  676MOL0     N91142   3.726   3.569   4.620  0.0224 -0.1544 -0.0675
  676MOL0     C91143   3.728   3.548   4.750  0.2969 -0.2428 -0.2232
  676MOL0     C91144   3.851   3.490   4.764 -0.3494 -0.2255 -0.1339
  676MOL0     C91145   3.932   3.464   4.892  0.2769  0.7127 -0.1534
  676MOL0     C91146   4.036   3.582   4.905 -0.3270 -0.3023 -0.8386
  676MOL0     C91147   4.071   3.607   5.055 -0.0158 -0.5042 -0.1094
  676MOL0     C91148   3.970   3.702   5.122  1.2121  0.4097 -0.4863
  676MOL0     O91149   3.849   3.638   5.143 -0.7984  0.1377 -0.6678
  676MOL0     C91150   3.727   3.674   5.078 -0.0326 -0.1887  0.2436
  676MOL0     C91151   3.706   3.795   5.006 -0.7098  0.6899 -0.1967
  676MOL0     C91152   3.578   3.819   4.943  0.2353  0.2744 -0.7071
  676MOL0     C91153   3.565   3.952   4.867  0.5113 -0.0865 -0.2403
  676MOL0     C91154   3.472   3.731   4.976 -0.8065 -0.3655  0.3808
  676MOL0     C91155   3.336   3.761   4.920 -0.6513 -0.8312  0.1449
  676MOL0     O91156   3.244   3.744   5.015  0.2227  0.4679 -0.1199
  676MOL0     C91157   3.116   3.769   4.973  0.1940 -0.5057  0.1644
  676MOL0     C91158   3.074   3.897   4.927  0.2233 -0.1121 -0.4155
  676MOL0     C91159   2.939   3.921   4.891  1.3223  0.1756 -0.7679
  676MOL0     C91160   2.843   3.814   4.891  0.2361 -0.3153 -0.0187
  676MOL0     O91161   2.711   3.835   4.860 -0.2881  0.1576 -0.3355
  676MOL0     C91162   2.663   3.967   4.843  0.2987 -0.4139  0.5616
  676MOL0     C91163   2.516   3.966   4.831  0.6288  0.3975  1.0754
  676MOL0     C91164   2.436   3.918   4.947 -0.2985  0.0835  0.0236
  676MOL0     C91165   2.288   3.949   4.934 -0.1034  0.6348 -0.0359
  676MOL0     C91166   2.193   3.859   5.011  0.2179  1.2924 -0.7799
  676MOL0     C91167   2.046   3.900   5.004 -0.6123  0.8419 -0.5929
  676MOL0     C91168   1.960   3.792   5.056  0.2724 -0.0842 -0.1482
  676MOL0     C91169   1.822   3.784   4.997 -0.2833  0.1387 -0.5300
  676MOL0    Cl91170   1.759   3.948   4.975  0.2089 -0.1839 -0.5821
  676MOL0     C91171   2.891   3.693   4.931 -0.5023  0.5994  0.4754
  676MOL0     C91172   3.026   3.666   4.967 -0.0281  0.2336  0.1566
  676MOL0     O91173   3.319   3.777   4.800  0.2013  0.3089 -0.0618
  676MOL0     C91174   3.495   3.615   5.049 -0.7273  0.4492  0.7941
  676MOL0     C91175   3.618   3.590   5.105  0.0575  0.3735 -0.7519
  676MOL0     N91176   3.914   3.480   4.641 -0.1848 -0.0339  0.6321
  676MOL0     N91177   3.839   3.520   4.551  0.4540  1.3430 -0.8431
  676MOL0     C91178   4.457   4.233   4.938  0.3740  0.8390  0.1678
  676MOL0     C91179   4.569   4.228   5.021  0.2147 -0.4235  0.1808
  676MOL0     C91180   4.882   3.987   5.300 -0.2016  0.3087  0.4063
  676MOL0     C91181   4.908   3.879   5.387 -0.1407  0.2190 -0.3353
  676MOL0     C91182   5.029   3.864   5.451 -0.6119  0.2808  0.3785
  676MOL0     C91183   5.127   3.963   5.437 -0.4043  0.5397  0.8445
  676MOL0     O91184   5.247   3.957   5.513  0.4181 -0.1724  0.2613
  676MOL0     C91185   5.304   3.829   5.545 -0.3439 -0.4317 -0.0813
  676MOL0     C91186   5.452   3.834   5.534  0.4219  0.6131  0.2862
  676MOL0     C91187   5.529   3.948   5.608 -0.2720  0.5180  0.2717
  676MOL0     C91188   5.679   3.930   5.605  0.2608 -0.5866 -0.1449
  676MOL0     C91189   5.749   3.955   5.479  0.4034 -0.5229 -0.8155
  676MOL0     C91190   5.816   3.987   5.379 -0.9965 -0.2303 -0.6051
  676MOL0     C91191   5.103   4.068   5.347  0.6447 -0.0626 -0.5541
  676MOL0     C91192   4.988   4.073   5.273 -0.6926  0.3152 -0.1291
  676MOL0     H91193   4.554   3.892   5.089 -1.6359 -0.6840  2.2232
  676MOL0     H91194   4.348   3.915   4.956 -0.9502  1.7983 -2.2588
  676MOL0     H91195   4.258   3.968   4.725  3.6577  1.1943  2.1961
  676MOL0     H91196   4.145   3.964   4.861 -0.7612 -0.5243 -0.5363
  676MOL0     H91197   4.012   4.139   4.759  0.1623 -0.1734  0.5722
  676MOL0     H91198   4.131   4.171   4.630 -0.6108  0.6828 -0.0134
  676MOL0     H91199   4.080   3.948   4.523 -1.5568 -1.8194  0.6493
  676MOL0     H91200   3.976   3.918   4.661 -1.1602 -0.6089 -0.2617
  676MOL0     H91201   3.835   4.109   4.583 -1.8276  0.1742 -2.4117
  676MOL0     H91202   3.940   4.130   4.447 -0.9827  0.2043  0.5161
  676MOL0     H91203   3.726   4.015   4.384  0.2436  2.0738  0.5767
  676MOL0     H91204   3.874   3.917   4.351 -1.5102  0.4064 -1.3175
  676MOL0     H91205   3.858   3.800   4.555 -0.2362  0.7186  1.5673
  676MOL0     H91206   3.715   3.900   4.600 -1.2443  0.5817 -1.5023
  676MOL0     H91207   3.584   3.800   4.415 -0.3924  0.3359  0.2722
  676MOL0     H91208   3.713   3.710   4.361 -3.0293  0.3838 -1.8950
  676MOL0     H91209   3.544   3.595   4.501  0.9311 -1.5549  0.0770
  676MOL0     H91210   3.567   3.707   4.632 -0.3251  2.9624 -2.3215
  676MOL0     H91211   3.652   3.564   4.826  1.6520  1.3989  0.8553
  676MOL0     H91212   3.866   3.460   4.979  0.2789  2.5746 -0.0313
  676MOL0     H91213   3.988   3.370   4.885  0.7958  1.1347 -2.0674
  676MOL0     H91214   4.007   3.678   4.861  0.8033 -0.3157 -1.6485
  676MOL0     H91215   4.121   3.549   4.845 -0.7134 -3.1658  0.0143
  676MOL0     H91216   4.167   3.659   5.046 -0.7719  0.7663 -1.0563
  676MOL0     H91217   4.075   3.511   5.108  1.1385  0.0752  0.8976
  676MOL0     H91218   3.970   3.792   5.061  0.2294  1.1988  0.6280
  676MOL0     H91219   4.007   3.737   5.219 -0.9376 -0.2856  0.6546
  676MOL0     H91220   3.782   3.873   5.007  0.8674 -0.7243  2.6613
  676MOL0     H91221   3.470   3.999   4.894 -0.8924 -2.2719 -1.1043
  676MOL0     H91222   3.647   4.022   4.885  0.1983  0.7470 -1.7892
  676MOL0     H91223   3.550   3.938   4.759  3.2795 -0.6465 -0.6082
  676MOL0     H91224   3.136   3.986   4.924 -0.0313  0.0340 -1.9539
  676MOL0     H91225   2.919   4.024   4.862  1.4974 -0.3465 -2.9094
  676MOL0     H91226   2.693   4.029   4.928  0.0935 -0.1700  0.4572
  676MOL0     H91227   2.715   3.999   4.753  1.4302 -2.7566  0.2918
  676MOL0     H91228   2.491   4.072   4.815  1.0974  0.4731  0.8159
  676MOL0     H91229   2.492   3.897   4.749 -2.9401 -0.3283  2.5450
  676MOL0     H91230   2.472   3.973   5.034 -1.2253  0.0800  0.4211
  676MOL0     H91231   2.447   3.809   4.953 -1.8036 -0.8062 -6.0499
  676MOL0     H91232   2.286   4.052   4.972  2.0524 -0.6433  4.2584
  676MOL0     H91233   2.264   3.949   4.828  1.3166  0.6656 -0.3797
  676MOL0     H91234   2.226   3.847   5.114  0.4974 -1.3844 -1.0957
  676MOL0     H91235   2.210   3.766   4.955  0.5050  0.6932  0.2713
  676MOL0     H91236   2.021   3.990   5.062 -3.7909 -0.2325 -0.0753
  676MOL0     H91237   2.025   3.920   4.899 -0.7482 -0.3138 -0.7967
  676MOL0     H91238   1.953   3.810   5.164  1.3786 -0.3076 -0.0244
  676MOL0     H91239   2.005   3.694   5.038 -0.7295 -0.2265 -2.0736
  676MOL0     H91240   1.754   3.721   5.056  0.1194  0.0226 -0.1867
  676MOL0     H91241   1.833   3.740   4.898 -1.4886  1.0643 -1.1108
  676MOL0     H91242   2.814   3.617   4.930 -5.2697  4.7966  2.0054
  676MOL0     H91243   3.064   3.574   5.009  0.5651  0.0738 -0.7091
  676MOL0     H91244   3.407   3.555   5.068 -0.3701 -0.8952 -1.3779
  676MOL0     H91245   3.635   3.494   5.151  2.7618  1.1801  0.1036
  676MOL0     H91246   4.440   4.335   4.905 -2.3674  0.4705  0.2167
  676MOL0     H91247   4.613   4.321   5.055 -1.0451  0.4747 -0.5714
  676MOL0     H91248   4.826   3.818   5.424 -0.3474  0.7112  0.0281
  676MOL0     H91249   5.039   3.780   5.519 -0.3994  0.9856  1.2300
  676MOL0     H91250   5.289   3.793   5.647  1.8014 -1.8676 -0.2130
  676MOL0     H91251   5.257   3.748   5.487 -1.7466  0.6968 -0.5881
  676MOL0     H91252   5.482   3.822   5.429  0.0871 -1.5323  0.3778
  676MOL0     H91253   5.489   3.742   5.581  0.1751  0.6728  0.5949
  676MOL0     H91254   5.508   3.936   5.715  2.8831 -1.3361  0.8354
  676MOL0     H91255   5.503   4.042   5.559 -2.0889 -2.3853 -5.2688
  676MOL0     H91256   5.693   3.825   5.629  2.6132 -0.3722 -0.3151
  676MOL0     H91257   5.734   3.986   5.682  1.5426 -2.3211  0.2641
  676MOL0     H91258   5.875   4.008   5.292  1.5245  0.1132  1.0887
  676MOL0     H91259   5.177   4.146   5.341  1.5816 -0.2964  4.1007
  676MOL0     H91260   4.978   4.168   5.223  2.4690  0.8796  0.1086
  677MOL0     O91261  10.410  10.045  10.582 -0.7505 -0.7385 -0.0686
  677MOL0     C91262  10.441   9.948  10.511  0.5530 -0.1939  0.3276
  677MOL0     O91263  10.358   9.895  10.424  1.0290 -0.0560 -0.0197
  677MOL0     C91264  10.215   9.900  10.412 -0.9680 -0.5509 -0.4413
  677MOL0     C91265  10.158   9.855  10.292  0.5086  0.0584 -0.8594
  677MOL0     C91266  10.016   9.829  10.292 -0.8265 -0.3642 -0.1552
  677MOL0     C91267   9.933   9.869  10.398 -0.1586  0.2966  0.1118
  677MOL0     O91268   9.792   9.854  10.390 -0.2973 -0.0078  0.3642
  677MOL0     C91269   9.704   9.940  10.464 -0.2383 -0.2078  0.7082
  677MOL0     C91270   9.566   9.915  10.414 -0.1452  0.0574  0.0966
  677MOL0     C91271   9.470   9.991  10.505  0.5187 -0.9777  0.1974
  677MOL0     C91272   9.337  10.003  10.438  0.7058  0.5251 -0.1871
  677MOL0     C91273   9.263   9.863  10.462  0.2371  0.1824  0.2727
  677MOL0     C91274   9.111   9.895  10.451  0.8519 -0.1435  0.1966
  677MOL0     C91275   9.021   9.780  10.502  0.6891 -0.5219  0.0120
  677MOL0     C91276   8.997   9.769  10.654 -0.1707  0.1163  0.3770
  677MOL0     N91277   8.907   9.869  10.714 -0.6993  1.0276 -0.4194
  677MOL0     C91278   8.784   9.846  10.769  0.0971 -0.2863  0.1149
  677MOL0     C91279   8.729   9.968  10.796 -0.0697  0.2682  0.0672
  677MOL0     C91280   8.608  10.003  10.867  0.7717 -0.1841  0.8317
  677MOL0     C91281   8.489   9.902  10.886 -0.4019 -0.2271  0.1153
  677MOL0     C91282   8.369   9.974  10.946  0.9759  0.8342 -0.8639
  677MOL0     C91283   8.258   9.877  10.985 -0.3961 -0.1853  0.9861
  677MOL0     O91284   8.159   9.956  11.044 -0.2681  0.1570  0.3453
  677MOL0     C91285   8.030   9.913  11.076 -1.1833 -0.7731  0.1811
  677MOL0     C91286   7.946  10.018  11.113  0.0038 -0.2141  0.6422
  677MOL0     C91287   7.818   9.992  11.146  0.3348 -0.2586 -0.5357
  677MOL0     C91288   7.743  10.100  11.218 -0.1571  0.1668  0.4657
  677MOL0     C91289   7.768   9.864  11.140  0.5654  0.0236 -1.2883
  677MOL0     C91290   7.622   9.835  11.163 -0.7357  0.0292  0.6169
  677MOL0     O91291   7.541   9.843  11.054  0.5884 -0.5422 -0.5030
  677MOL0     C91292   7.409   9.870  11.075 -0.0453 -0.7537 -0.1863
  677MOL0     C91293   7.355   9.944  11.185  0.7322  0.2749  0.9921
  677MOL0     C91294   7.220   9.961  11.200 -0.0800  0.2884 -0.5453
  677MOL0     C91295   7.129   9.920  11.097  0.8414 -0.3927 -0.8209
  677MOL0     O91296   6.993   9.948  11.087 -0.9977 -0.3377  0.2454
  677MOL0     C91297   6.946  10.068  11.157 -0.4302 -0.1976 -0.4537
  677MOL0     C91298   6.812  10.109  11.104  0.6454  0.0236  0.0979
  677MOL0     C91299   6.706  10.049  11.199 -0.4556 -0.1121  0.3784
  677MOL0     C91300   6.561  10.108  11.199  0.3456  0.3756  0.2014
  677MOL0     C91301   6.479  10.060  11.072  0.0483  0.1645 -0.1338
  677MOL0     C91302   6.505  10.139  10.951  0.2021  0.3916  0.9121
  677MOL0     C91303   6.373  10.143  10.869  0.1085  0.5949  1.0705
  677MOL0     C91304   6.406  10.227  10.746  0.1043  0.4614 -0.4046
  677MOL0    Cl91305   6.285  10.190  10.616  0.0387  0.3467  0.1061
  677MOL0     C91306   7.178   9.842  10.993 -0.4861 -0.3182  0.9166
  677MOL0     C91307   7.316   9.811  10.990 -0.0691 -1.0522  1.2693
  677MOL0     O91308   7.588   9.792  11.269 -0.7523 -0.1391 -0.3249
  677MOL0     C91309   7.845   9.757  11.102  0.7504  0.5185 -0.2780
  677MOL0     C91310   7.981   9.781  11.064  0.3288 -0.5852  0.8986
  677MOL0     N91311   8.817  10.063  10.731  0.0987  0.5177 -0.2354
  677MOL0     N91312   8.923   9.999  10.687 -0.2150 -0.3146 -0.3407
  677MOL0     C91313   9.993   9.925  10.516  0.0926 -0.4092  1.3622
  677MOL0     C91314  10.139   9.931  10.522  0.6586  0.5122  1.0896
  677MOL0     C91315  10.589   9.919  10.499  0.1082  0.7006  0.8489
  677MOL0     C91316  10.634   9.810  10.422  0.5885  0.4005  0.8350
  677MOL0     C91317  10.768   9.790  10.393 -0.3992 -0.4566 -1.1265
  677MOL0     C91318  10.870   9.868  10.453  0.2574 -0.6458  0.0499
  677MOL0     O91319  11.000   9.820  10.427 -0.2682 -0.5258  0.0871
  677MOL0     C91320  11.086   9.845  10.534 -0.8450  0.1968 -0.4827
  677MOL0     C91321  11.176   9.730  10.511 -0.4886  0.0390  0.1207
  677MOL0     C91322  11.298   9.735  10.606  0.0366 -0.3287  0.3710
  677MOL0     C91323  11.389   9.619  10.562  0.5254 -0.1841  0.2635
  677MOL0     C91324  11.517   9.630  10.630  0.5062 -0.4695  0.6004
  677MOL0     C91325  11.621   9.658  10.675 -1.1720  0.2448 -0.0582
  677MOL0     C91326  10.828   9.974  10.535  0.0351 -0.2510  0.1497
  677MOL0     C91327  10.686  10.003  10.554 -0.7158 -0.0554 -0.3449
  677MOL0     H91328  10.224   9.833  10.209 -1.3758 -1.5791 -2.0209
  677MOL0     H91329   9.961   9.792  10.206 -1.0139 -0.3806 -0.0307
  677MOL0     H91330   9.715   9.912  10.569 -3.2276  1.3774  1.5832
  677MOL0     H91331   9.731  10.045  10.456  0.5445 -0.5532 -3.1244
  677MOL0     H91332   9.560   9.953  10.312  1.1457  0.4467  0.1543
  677MOL0     H91333   9.548   9.808  10.402 -1.2819  0.2077  0.3591
  677MOL0     H91334   9.458   9.941  10.601 -5.6053 -1.1188 -0.2497
  677MOL0     H91335   9.513  10.090  10.521 -1.2543 -0.0793 -0.4079
  677MOL0     H91336   9.296  10.086  10.496  0.3047  0.2847 -0.1244
  677MOL0     H91337   9.327  10.028  10.332  1.1207 -2.9888 -1.1658
  677MOL0     H91338   9.278   9.792  10.381 -0.5204 -1.8170  1.7921
  677MOL0     H91339   9.289   9.812  10.555 -0.6443 -2.3414 -0.7948
  677MOL0     H91340   9.098   9.987  10.509 -1.5141 -0.2977  0.0318
  677MOL0     H91341   9.079   9.924  10.350  0.1545  1.2769  0.7856
  677MOL0     H91342   8.921   9.793  10.459  0.4331 -1.8340  0.1786
  677MOL0     H91343   9.067   9.687  10.469  0.8547  0.5668 -3.1765
  677MOL0     H91344   9.091   9.783  10.709 -1.0368  3.8850  1.1587
  677MOL0     H91345   8.955   9.670  10.672 -1.6282  0.7525  0.6046
  677MOL0     H91346   8.723   9.757  10.782 -1.4822  0.9165  1.5628
  677MOL0     H91347   8.648  10.021  10.967 -0.9191  0.0383  1.4833
  677MOL0     H91348   8.565  10.097  10.831 -1.3492 -1.3970  0.0190
  677MOL0     H91349   8.531   9.831  10.957  1.7739 -0.3702 -1.2522
  677MOL0     H91350   8.461   9.840  10.801 -1.8249 -0.9796  1.0793
  677MOL0     H91351   8.334  10.048  10.873 -1.2995  0.6472 -0.0550
  677MOL0     H91352   8.388  10.024  11.042 -3.3805 -0.0054  0.7065
  677MOL0     H91353   8.302   9.807  11.056 -0.9587  0.9544  2.5339
  677MOL0     H91354   8.224   9.810  10.906 -0.2352 -0.1688  0.8999
  677MOL0     H91355   7.973  10.123  11.112 -0.6194  0.0030 -2.1158
  677MOL0     H91356   7.684  10.161  11.148  0.0268 -0.0770  0.0958
  677MOL0     H91357   7.672  10.068  11.295 -0.1833  4.1868  2.3835
  677MOL0     H91358   7.798  10.171  11.280 -1.2780  2.1545 -0.6920
  677MOL0     H91359   7.424   9.992  11.253 -1.9653  2.4975  2.3781
  677MOL0     H91360   7.189  10.004  11.295  0.4058 -0.1091 -0.1987
  677MOL0     H91361   6.941  10.051  11.265  3.7639  0.4285 -0.0179
  677MOL0     H91362   7.017  10.150  11.144  1.2844 -1.5577 -0.1052
  677MOL0     H91363   6.809  10.218  11.099  0.8785 -0.0223 -1.7257
  677MOL0     H91364   6.789  10.076  11.002 -2.0020 -0.8511  0.9101
  677MOL0     H91365   6.734  10.076  11.301 -0.7603  0.2315  0.3728
  677MOL0     H91366   6.700   9.940  11.192  0.9775 -0.1153 -3.9271
  677MOL0     H91367   6.517  10.076  11.294 -0.3811  0.7262 -0.0059
  677MOL0     H91368   6.567  10.217  11.202  0.6204  0.3359  1.3846
  677MOL0     H91369   6.373  10.072  11.097  0.3129  1.0379  0.6315
  677MOL0     H91370   6.485   9.951  11.066 -1.4303 -0.0330  1.1375
  677MOL0     H91371   6.543  10.241  10.962 -2.2750  1.3632  0.9827
  677MOL0     H91372   6.580  10.083  10.894 -2.6241  0.2110 -3.0625
  677MOL0     H91373   6.292  10.192  10.925 -1.6512 -0.7112 -0.2007
  677MOL0     H91374   6.328  10.046  10.843 -1.9769  1.8089 -0.1567
  677MOL0     H91375   6.502  10.195  10.705 -1.7445 -3.6172 -2.1779
  677MOL0     H91376   6.400  10.333  10.769 -0.7066  0.2954  0.2134
  677MOL0     H91377   7.112   9.807  10.914  0.7450  1.3749 -0.9692
  677MOL0     H91378   7.356   9.748  10.911  0.1315 -1.0831  1.3956
  677MOL0     H91379   7.802   9.659  11.085 -0.6339  1.3594 -1.9554
  677MOL0     H91380   8.045   9.700  11.032  0.2759 -1.3011  2.5089
  677MOL0     H91381   9.927   9.959  10.594 -3.3995  0.8807 -1.8163
  677MOL0     H91382  10.187   9.975  10.609 -0.4787  1.7962  1.0887
  677MOL0     H91383  10.572   9.729  10.386  0.6765  0.5338  0.3834
  677MOL0     H91384  10.800   9.701  10.341  0.6982 -0.4433 -0.5119
  677MOL0     H91385  11.138   9.940  10.519  1.8437 -0.9585  0.9411
  677MOL0     H91386  11.045   9.849  10.635 -0.8391  2.4073 -0.5199
  677MOL0     H91387  11.215   9.750  10.410  1.7950  1.2405  1.1588
  677MOL0     H91388  11.123   9.636  10.526  0.1006 -0.1458  1.1393
  677MOL0     H91389  11.273   9.730  10.712 -4.7009  0.6411 -0.4694
  677MOL0     H91390  11.344   9.834  10.609 -1.6049  0.5146  4.1252
  677MOL0     H91391  11.404   9.621  10.454  0.7138  0.6153  0.2988
  677MOL0     H91392  11.339   9.531  10.604 -1.5094 -0.1007 -1.8339
  677MOL0     H91393  11.719   9.680  10.715 -2.3868 -0.2784  3.6291
  677MOL0     H91394  10.900  10.038  10.584 -2.2282  1.8426  0.9059
  677MOL0     H91395  10.654  10.088  10.614  1.5813  1.0684 -0.6265
  678MOL0     O91396   0.799   2.611   9.035 -0.1821 -0.1392  0.4071
  678MOL0     C91397   0.805   2.514   9.116 -0.2940 -0.2807 -0.3038
  678MOL0     O91398   0.708   2.496   9.212 -0.0094 -0.2227  0.5166
  678MOL0     C91399   0.612   2.590   9.211 -0.3999  0.7612 -0.4229
  678MOL0     C91400   0.476   2.536   9.225  0.0227 -0.6242 -0.9019
  678MOL0     C91401   0.363   2.617   9.245 -0.0964  0.0791  0.5786
  678MOL0     C91402   0.386   2.754   9.254  0.4454 -0.2615  0.5872
  678MOL0     O91403   0.274   2.831   9.259 -0.3363 -0.7128  0.2575
  678MOL0     C91404   0.281   2.974   9.243  0.5366 -0.2786  0.5677
  678MOL0     C91405   0.129   3.005   9.247 -0.5821  0.3651 -0.0170
  678MOL0     C91406   0.106   3.150   9.258 -0.8996 -0.9718 -0.7725
  678MOL0     C91407  -0.035   3.174   9.312 -0.0997 -0.4185 -0.2966
  678MOL0     C91408  -0.060   3.326   9.321 -0.3416  0.6043  0.3750
  678MOL0     C91409  -0.202   3.356   9.358 -0.4065 -0.3319  0.0029
  678MOL0     C91410  -0.296   3.371   9.236 -0.6039 -0.3277 -0.2582
  678MOL0     C91411  -0.432   3.424   9.293 -0.5466  0.7854  0.8068
  678MOL0     N91412  -0.512   3.479   9.184  0.2235  0.1373 -0.2249
  678MOL0     C91413  -0.484   3.595   9.127 -0.3337 -0.3293  0.8683
  678MOL0     C91414  -0.593   3.606   9.043  0.1636  0.0893  0.4267
  678MOL0     C91415  -0.610   3.732   8.964 -0.1936 -1.0425  0.3935
  678MOL0     C91416  -0.750   3.767   8.903  0.1438  0.1878 -0.2175
  678MOL0     C91417  -0.857   3.800   9.016  0.2987  0.0950  0.9988
  678MOL0     C91418  -0.995   3.823   8.959  1.0555  0.2524  0.0988
  678MOL0     O91419  -1.040   3.703   8.884 -0.1088  0.1625  0.8613
  678MOL0     C91420  -1.167   3.716   8.849  0.6475  0.5746  0.8548
  678MOL0     C91421  -1.266   3.664   8.925  0.4737 -0.1905  0.2629
  678MOL0     C91422  -1.401   3.675   8.885  0.2048 -0.7640  0.0889
  678MOL0     C91423  -1.496   3.606   8.988  0.3114  0.2719  0.5233
  678MOL0     C91424  -1.438   3.752   8.773 -0.8603 -0.1011  0.3079
  678MOL0     C91425  -1.578   3.799   8.738  0.2102  0.5435 -0.6716
  678MOL0     O91426  -1.596   3.850   8.615 -0.3078 -0.4539 -0.3439
  678MOL0     C91427  -1.721   3.878   8.585 -0.9026 -0.0578 -0.0307
  678MOL0     C91428  -1.800   3.972   8.650 -0.5204  1.4740 -0.5986
  678MOL0     C91429  -1.925   4.000   8.599  0.7050  0.4641 -0.3141
  678MOL0     C91430  -1.972   3.915   8.492 -0.7426 -0.9652  0.4097
  678MOL0     O91431  -2.103   3.941   8.450  0.2435  0.0422  0.0958
  678MOL0     C91432  -2.162   3.847   8.357 -0.0485  0.8849 -0.5353
  678MOL0     C91433  -2.306   3.879   8.335 -0.0217 -0.5222 -0.0870
  678MOL0     C91434  -2.335   4.007   8.259 -1.3596 -0.7076 -0.2361
  678MOL0     C91435  -2.490   4.019   8.251  0.7919 -0.1518 -0.8932
  678MOL0     C91436  -2.534   4.158   8.202  0.5263 -0.9078  0.6124
  678MOL0     C91437  -2.493   4.211   8.062  0.3114 -0.1155 -0.4113
  678MOL0     C91438  -2.543   4.112   7.953 -1.3759  0.2509 -0.2346
  678MOL0     C91439  -2.530   4.171   7.818 -0.4246  0.4182  0.2457
  678MOL0    Cl91440  -2.585   4.066   7.686  0.0861 -0.0448  0.8080
  678MOL0     C91441  -1.894   3.816   8.426 -0.3008 -0.2055  1.2645
  678MOL0     C91442  -1.768   3.795   8.477 -0.1887  0.0706 -0.4617
  678MOL0     O91443  -1.671   3.777   8.818  0.1633 -0.4577  0.1811
  678MOL0     C91444  -1.331   3.775   8.686  0.2601 -0.2813 -0.1076
  678MOL0     C91445  -1.198   3.756   8.721  0.1500 -0.0178 -0.1375
  678MOL0     N91446  -0.692   3.505   9.069  0.6542 -0.0652  0.4316
  678MOL0     N91447  -0.636   3.428   9.151  0.4418  0.1441 -0.4284
  678MOL0     C91448   0.511   2.807   9.221  0.6575 -0.3916 -0.3810
  678MOL0     C91449   0.625   2.727   9.204 -0.2181  0.7482 -0.3315
  678MOL0     C91450   0.929   2.428   9.111  0.4041  0.1150 -0.6036
  678MOL0     C91451   1.023   2.455   9.008  0.4991 -0.2962 -0.9534
  678MOL0     C91452   1.143   2.383   9.008  0.4213  0.2942  0.4243
  678MOL0     C91453   1.163   2.277   9.109 -0.2588 -0.4334  0.2492
  678MOL0     O91454   1.266   2.203   9.100  0.0743 -0.4504  0.8694
  678MOL0     C91455   1.353   2.186   9.210  0.2105  0.0064  0.2416
  678MOL0     C91456   1.452   2.307   9.220  0.7995 -1.2338 -0.6377
  678MOL0     C91457   1.566   2.322   9.133  0.1332 -0.1432  0.0538
  678MOL0     C91458   1.655   2.437   9.187  0.7180  0.8670  0.9372
  678MOL0     C91459   1.787   2.412   9.124  0.3080 -0.6789  0.7548
  678MOL0     C91460   1.898   2.408   9.082 -0.2724  0.1864 -0.4275
  678MOL0     C91461   1.061   2.252   9.200 -1.1078  0.7575  0.7948
  678MOL0     C91462   0.956   2.332   9.204  0.1367  0.6806 -0.6624
  678MOL0     H91463   0.458   2.429   9.222 -2.2441 -0.5672  3.3142
  678MOL0     H91464   0.270   2.567   9.274  0.3929 -1.9536 -1.0798
  678MOL0     H91465   0.343   3.019   9.321 -1.6244  3.0303  0.5781
  678MOL0     H91466   0.320   3.000   9.144  1.6635  0.8442  1.2901
  678MOL0     H91467   0.100   2.963   9.150  3.3720  1.9924 -2.1608
  678MOL0     H91468   0.095   2.960   9.340  2.9015 -1.3111  0.6046
  678MOL0     H91469   0.174   3.204   9.324 -0.9051 -1.1556 -0.6150
  678MOL0     H91470   0.123   3.191   9.158 -1.9710 -1.1448 -1.0425
  678MOL0     H91471  -0.097   3.134   9.231  1.3086  1.2992 -2.3401
  678MOL0     H91472  -0.051   3.135   9.413 -0.4434  0.7939  0.1469
  678MOL0     H91473  -0.001   3.351   9.410 -0.7661 -0.6538  1.0326
  678MOL0     H91474  -0.018   3.384   9.238  3.7851 -0.9498  1.1572
  678MOL0     H91475  -0.246   3.272   9.413 -2.1603  0.7105  0.2592
  678MOL0     H91476  -0.202   3.446   9.421  2.7964  0.1690 -0.5523
  678MOL0     H91477  -0.265   3.452   9.169 -2.4478  1.8706  1.4312
  678MOL0     H91478  -0.302   3.277   9.180 -1.3203 -0.2166 -0.3764
  678MOL0     H91479  -0.423   3.513   9.356 -0.9131  2.3121 -1.1844
  678MOL0     H91480  -0.492   3.345   9.339 -0.0068  0.1547  0.4493
  678MOL0     H91481  -0.394   3.653   9.146  2.0106 -2.8194 -1.6576
  678MOL0     H91482  -0.575   3.811   9.031 -2.9703 -0.6499  1.5280
  678MOL0     H91483  -0.541   3.734   8.879 -0.5908  0.1158  0.0806
  678MOL0     H91484  -0.803   3.688   8.848  2.5770 -0.2823 -2.0627
  678MOL0     H91485  -0.747   3.855   8.837 -2.4380  1.7783  1.6209
  678MOL0     H91486  -0.824   3.884   9.077  1.3434 -0.7271  1.6216
  678MOL0     H91487  -0.879   3.720   9.088 -2.9605  1.9322  2.2152
  678MOL0     H91488  -1.010   3.914   8.900  1.2714  0.7146  0.7455
  678MOL0     H91489  -1.059   3.820   9.048  0.7926 -1.2559 -0.1019
  678MOL0     H91490  -1.225   3.623   9.017  0.4119 -0.3855  0.2033
  678MOL0     H91491  -1.546   3.684   9.047 -2.8579  0.1627 -1.7624
  678MOL0     H91492  -1.571   3.549   8.932  0.2231  1.7930 -0.9907
  678MOL0     H91493  -1.442   3.536   9.053  1.3664 -1.5906 -2.1945
  678MOL0     H91494  -1.758   4.021   8.737  0.4563 -0.2933 -0.0224
  678MOL0     H91495  -1.984   4.083   8.638  2.6680  0.7413  2.2970
  678MOL0     H91496  -2.103   3.834   8.266 -0.0403 -0.1181 -0.3947
  678MOL0     H91497  -2.158   3.750   8.408  2.9522 -0.1490 -2.4619
  678MOL0     H91498  -2.355   3.794   8.286  1.7140 -0.7185 -1.6128
  678MOL0     H91499  -2.350   3.892   8.435 -2.9922 -0.1297 -1.3387
  678MOL0     H91500  -2.293   4.007   8.158 -3.1840  1.2159 -1.0821
  678MOL0     H91501  -2.291   4.093   8.311 -0.7043  0.0684 -2.0030
  678MOL0     H91502  -2.523   3.947   8.177  3.2636 -0.3215 -1.9373
  678MOL0     H91503  -2.529   4.013   8.353  1.9567  1.0778 -0.3215
  678MOL0     H91504  -2.493   4.228   8.276  2.3766  0.7448 -1.7968
  678MOL0     H91505  -2.643   4.161   8.213  0.5019 -1.4963  0.6014
  678MOL0     H91506  -2.541   4.309   8.057  3.3905  1.7999  2.7983
  678MOL0     H91507  -2.384   4.220   8.066  0.5284 -1.0418 -2.7622
  678MOL0     H91508  -2.644   4.073   7.968 -1.9444  0.6079 -2.6976
  678MOL0     H91509  -2.478   4.024   7.954 -1.5978  0.0887  0.5141
  678MOL0     H91510  -2.426   4.205   7.817 -0.2872  0.1146  1.7538
  678MOL0     H91511  -2.589   4.263   7.807  2.1091  2.0321 -1.0145
  678MOL0     H91512  -1.925   3.744   8.351 -1.3273  1.9652 -0.5053
  678MOL0     H91513  -1.708   3.722   8.425  1.4754  1.4792 -0.6069
  678MOL0     H91514  -1.351   3.818   8.588 -2.2726  2.3079  1.3763
  678MOL0     H91515  -1.120   3.775   8.648 -1.0717 -1.0602 -1.7510
  678MOL0     H91516   0.526   2.915   9.223  1.7864 -0.5171  1.9131
  678MOL0     H91517   0.720   2.774   9.181 -1.0188  2.1562 -0.9310
  678MOL0     H91518   1.010   2.531   8.932  0.6530  1.7121  0.9233
  678MOL0     H91519   1.218   2.408   8.934  0.9762  2.3635  1.5814
  678MOL0     H91520   1.305   2.174   9.307 -0.4248 -0.9226 -0.1782
  678MOL0     H91521   1.415   2.096   9.195  0.9687  0.8587 -2.4011
  678MOL0     H91522   1.505   2.281   9.312 -1.2572  0.7126  1.2357
  678MOL0     H91523   1.401   2.400   9.247  0.9435 -1.2979 -0.1242
  678MOL0     H91524   1.536   2.347   9.031  0.9984  1.0710  0.0614
  678MOL0     H91525   1.624   2.230   9.123 -0.0654 -0.5375  2.1133
  678MOL0     H91526   1.679   2.423   9.293  4.1699 -0.1006  0.1481
  678MOL0     H91527   1.609   2.530   9.152 -0.1364 -0.5583 -2.1214
  678MOL0     H91528   1.997   2.411   9.041  0.2620  2.8005  0.8672
  678MOL0     H91529   1.089   2.187   9.282  1.8214  0.5983 -0.2193
  678MOL0     H91530   0.881   2.307   9.279  4.2615 -1.8392  3.1262
  679MOL0     O91531   4.667   7.479   0.201  0.5580 -0.2131 -0.6178
  679MOL0     C91532   4.602   7.524   0.290  0.2982  1.0156  0.1978
  679MOL0     O91533   4.647   7.600   0.401  0.3589 -0.0915 -0.4170
  679MOL0     C91534   4.783   7.615   0.433  0.1093 -0.4057  0.3888
  679MOL0     C91535   4.893   7.570   0.348  0.2846 -0.1255 -0.8517
  679MOL0     C91536   5.026   7.595   0.392  0.6142 -0.1994  0.0745
  679MOL0     C91537   5.057   7.647   0.522 -0.9036  0.7651  1.1481
  679MOL0     O91538   5.193   7.671   0.538  0.2575 -0.1700  0.0725
  679MOL0     C91539   5.239   7.709   0.668 -0.3475  0.0077  0.5508
  679MOL0     C91540   5.393   7.697   0.686 -0.9778  0.5931  0.7701
  679MOL0     C91541   5.444   7.549   0.683  0.1107 -0.3998 -0.3197
  679MOL0     C91542   5.592   7.546   0.709  0.2186  0.0373 -0.1833
  679MOL0     C91543   5.682   7.440   0.635 -0.2269  0.0318 -0.3420
  679MOL0     C91544   5.827   7.423   0.695  0.3956 -0.0618  0.7298
  679MOL0     C91545   5.908   7.314   0.628  0.2361 -1.3052 -0.5768
  679MOL0     C91546   6.045   7.282   0.696  0.1260  0.5978 -0.2003
  679MOL0     N91547   6.114   7.180   0.621  0.0263  0.8114  0.1121
  679MOL0     C91548   6.070   7.045   0.592 -0.5540 -0.0681  0.0846
  679MOL0     C91549   6.178   6.981   0.529 -0.0799  0.1040  0.1337
  679MOL0     C91550   6.195   6.841   0.487  0.1386 -0.4171  0.1025
  679MOL0     C91551   6.238   6.750   0.606  0.0929 -0.3371 -0.0598
  679MOL0     C91552   6.225   6.593   0.584 -0.0013  0.6232 -0.1936
  679MOL0     C91553   6.268   6.549   0.444  0.4203  0.7123 -0.5660
  679MOL0     O91554   6.266   6.404   0.438  0.7505  0.0802 -0.2403
  679MOL0     C91555   6.169   6.360   0.349 -0.1991 -0.0880 -0.0853
  679MOL0     C91556   6.211   6.258   0.263  0.3666  0.7615  0.8444
  679MOL0     C91557   6.124   6.195   0.176 -0.7754  0.0830  0.2272
  679MOL0     C91558   6.174   6.077   0.093 -0.3355  0.3368  1.3006
  679MOL0     C91559   5.985   6.238   0.171 -0.0702  0.4031 -0.0248
  679MOL0     C91560   5.881   6.187   0.080  0.4682  0.6308 -0.6291
  679MOL0     O91561   5.789   6.272   0.036 -0.8386 -0.2616  0.4313
  679MOL0     C91562   5.661   6.243  -0.004  0.0326  0.7228  0.3793
  679MOL0     C91563   5.556   6.321   0.042 -0.4355  0.4247  0.5798
  679MOL0     C91564   5.426   6.305  -0.010 -0.4900 -0.3294  1.1765
  679MOL0     C91565   5.395   6.200  -0.098 -0.0450  0.4740  0.3842
  679MOL0     O91566   5.264   6.163  -0.133 -0.5309  0.1869 -0.7349
  679MOL0     C91567   5.176   6.276  -0.140 -0.1309 -0.1381 -0.6777
  679MOL0     C91568   5.041   6.241  -0.214 -0.1321 -0.5151 -1.8947
  679MOL0     C91569   5.055   6.229  -0.365 -0.5605  0.1067 -0.0717
  679MOL0     C91570   4.908   6.234  -0.415  0.6031 -0.7630  0.1143
  679MOL0     C91571   4.890   6.181  -0.565  0.4498  0.1617 -0.5124
  679MOL0     C91572   4.770   6.239  -0.638 -0.3063  0.0141  0.5173
  679MOL0     C91573   4.794   6.379  -0.690  0.3390  0.0346  0.6732
  679MOL0     C91574   4.662   6.435  -0.752 -0.0155 -0.6952 -0.6728
  679MOL0    Cl91575   4.623   6.348  -0.907 -0.6322  0.2589  0.2921
  679MOL0     C91576   5.501   6.120  -0.137  0.3093  0.2765  0.1690
  679MOL0     C91577   5.628   6.146  -0.094 -0.5420 -0.1057  0.3438
  679MOL0     O91578   5.893   6.071   0.045 -0.3246 -0.1025 -0.5492
  679MOL0     C91579   5.947   6.347   0.255 -0.2268 -0.4513  0.2766
  679MOL0     C91580   6.038   6.401   0.345  0.3740 -0.0877 -0.0528
  679MOL0     N91581   6.274   7.082   0.513  0.4003  0.2297  0.0675
  679MOL0     N91582   6.240   7.198   0.565 -0.4078 -0.3659 -0.1524
  679MOL0     C91583   4.951   7.673   0.611  0.0590  0.2783  0.6874
  679MOL0     C91584   4.814   7.651   0.569  0.5363 -0.9425  0.4957
  679MOL0     C91585   4.454   7.526   0.279  0.5563  0.5220 -0.3859
  679MOL0     C91586   4.387   7.477   0.165 -0.2825  0.6029 -0.2241
  679MOL0     C91587   4.250   7.484   0.142  0.1816  0.4401 -0.2052
  679MOL0     C91588   4.164   7.533   0.246 -0.6793 -0.5936 -0.2200
  679MOL0     O91589   4.030   7.536   0.252  0.3429 -0.0605 -0.4568
  679MOL0     C91590   3.964   7.438   0.172  1.1849  0.9563  0.0594
  679MOL0     C91591   3.817   7.428   0.228  0.1347 -0.2801  0.7042
  679MOL0     C91592   3.727   7.557   0.211  0.8513 -0.5299 -0.7135
  679MOL0     C91593   3.597   7.533   0.287 -0.4298 -0.0428 -0.5038
  679MOL0     C91594   3.517   7.420   0.221  0.1891 -0.1691 -0.3882
  679MOL0     C91595   3.451   7.337   0.160  0.3186 -0.0862  0.5332
  679MOL0     C91596   4.231   7.592   0.359 -0.7104 -0.0217  0.0260
  679MOL0     C91597   4.373   7.588   0.376  0.7878 -0.1176  0.6371
  679MOL0     H91598   4.880   7.516   0.255 -2.0589 -1.5817  0.2325
  679MOL0     H91599   5.102   7.564   0.321 -0.3161  0.1716 -1.1056
  679MOL0     H91600   5.218   7.816   0.677 -1.1713 -0.1092  0.1550
  679MOL0     H91601   5.194   7.653   0.751  0.3962 -0.1854  0.8309
  679MOL0     H91602   5.434   7.761   0.607 -1.5630  1.1955  0.9406
  679MOL0     H91603   5.426   7.745   0.779  1.6161 -1.7075  1.1676
  679MOL0     H91604   5.386   7.493   0.757 -1.1156 -0.1806 -1.0917
  679MOL0     H91605   5.419   7.506   0.586 -1.6617  0.4515 -0.2736
  679MOL0     H91606   5.629   7.648   0.694 -1.0384  0.4611 -0.5083
  679MOL0     H91607   5.600   7.526   0.816 -1.4855 -0.7019 -0.1735
  679MOL0     H91608   5.626   7.346   0.637 -0.6212  0.1906 -2.2749
  679MOL0     H91609   5.696   7.464   0.529  1.8734 -0.1822 -0.1485
  679MOL0     H91610   5.884   7.517   0.688 -0.1752  0.1728 -1.2716
  679MOL0     H91611   5.818   7.402   0.802  3.8630  4.6030  2.3347
  679MOL0     H91612   5.855   7.218   0.633  2.0866 -2.2869  1.7262
  679MOL0     H91613   5.924   7.353   0.526 -0.0068 -0.2727 -0.2329
  679MOL0     H91614   6.034   7.254   0.802  2.4189  2.7364  0.7064
  679MOL0     H91615   6.105   7.373   0.697 -0.5030  1.0335  1.6745
  679MOL0     H91616   5.970   7.006   0.605 -0.2327 -0.9549 -0.0120
  679MOL0     H91617   6.100   6.807   0.445  0.4044 -1.1940  0.1224
  679MOL0     H91618   6.267   6.831   0.405 -0.2755 -0.7886 -0.2175
  679MOL0     H91619   6.185   6.780   0.697 -0.1741  0.3833 -0.4510
  679MOL0     H91620   6.345   6.769   0.622 -0.2371  0.6528  1.1697
  679MOL0     H91621   6.122   6.559   0.597  1.1292 -3.2523 -0.2015
  679MOL0     H91622   6.285   6.559   0.669 -0.0819  1.0160  0.0243
  679MOL0     H91623   6.374   6.572   0.428  0.6027 -0.8696 -1.9316
  679MOL0     H91624   6.209   6.603   0.369  1.2618  0.9994 -1.0326
  679MOL0     H91625   6.318   6.247   0.270  0.1230 -0.7613  4.0970
  679MOL0     H91626   6.113   5.992   0.125 -0.9092 -1.6075 -3.9600
  679MOL0     H91627   6.159   6.091  -0.014  1.4877  1.7633  1.1922
  679MOL0     H91628   6.276   6.043   0.116  0.0576 -0.5292 -1.3854
  679MOL0     H91629   5.571   6.396   0.119 -1.1474 -2.5904  3.9466
  679MOL0     H91630   5.354   6.377   0.026  1.0322  1.6819  0.4089
  679MOL0     H91631   5.142   6.312  -0.042  0.8538 -0.2355 -0.2910
  679MOL0     H91632   5.230   6.359  -0.186 -3.2674  3.9772  2.2656
  679MOL0     H91633   5.017   6.152  -0.155  1.5797  0.2612  0.0940
  679MOL0     H91634   4.969   6.320  -0.193  0.7826  0.8332 -3.5644
  679MOL0     H91635   5.106   6.139  -0.400 -1.3963 -1.1251  1.7693
  679MOL0     H91636   5.107   6.316  -0.406 -1.4360  0.2864 -0.8606
  679MOL0     H91637   4.837   6.174  -0.357  1.2430  1.6436  3.6444
  679MOL0     H91638   4.878   6.339  -0.419  0.5907 -0.7782 -0.2201
  679MOL0     H91639   4.879   6.072  -0.562 -0.1762  0.2391  1.0593
  679MOL0     H91640   4.981   6.212  -0.618 -0.0811  0.2177 -1.3969
  679MOL0     H91641   4.745   6.175  -0.723  2.3108 -1.4012  0.7379
  679MOL0     H91642   4.680   6.238  -0.575 -0.6677  0.8056  0.0400
  679MOL0     H91643   4.862   6.376  -0.776 -0.8702 -1.1313 -0.2880
  679MOL0     H91644   4.832   6.447  -0.614  0.0410  0.2244  0.6521
  679MOL0     H91645   4.663   6.543  -0.769 -0.9177 -0.3315  1.3012
  679MOL0     H91646   4.582   6.425  -0.678 -1.0904 -0.1088 -1.7253
  679MOL0     H91647   5.486   6.025  -0.187  0.2876  0.7657 -0.7715
  679MOL0     H91648   5.712   6.082  -0.120  0.5597  2.2423 -2.4684
  679MOL0     H91649   5.850   6.395   0.260  0.1940  0.4933 -0.3352
  679MOL0     H91650   6.000   6.481   0.407  2.7448  0.6276  0.5820
  679MOL0     H91651   4.978   7.715   0.707 -0.6149  3.9621 -0.5753
  679MOL0     H91652   4.730   7.678   0.633 -0.4029  2.5188 -1.8941
  679MOL0     H91653   4.449   7.446   0.081  0.3631 -0.0366  0.4758
  679MOL0     H91654   4.214   7.451   0.045 -2.4845 -0.9060  1.1228
  679MOL0     H91655   3.958   7.476   0.070  1.9681  1.3597  0.1568
  679MOL0     H91656   4.011   7.339   0.171  0.1263  0.4452 -0.2096
  679MOL0     H91657   3.812   7.401   0.334 -1.5091  3.0027  1.5739
  679MOL0     H91658   3.765   7.352   0.168 -1.5239  0.6933  0.8613
  679MOL0     H91659   3.708   7.585   0.107 -0.4426  2.0311  0.1136
  679MOL0     H91660   3.774   7.646   0.255 -2.8224  0.3146  2.0727
  679MOL0     H91661   3.540   7.627   0.286 -1.9219 -0.9247 -0.6737
  679MOL0     H91662   3.618   7.509   0.391  0.4020 -1.0379 -0.8861
  679MOL0     H91663   3.387   7.264   0.114 -0.1631 -0.1942  1.3458
  679MOL0     H91664   4.161   7.644   0.424 -1.5281  0.2832 -1.0582
  679MOL0     H91665   4.420   7.620   0.469 -2.7028 -1.0382  2.9086
  680MOL0     O91666   1.096   0.290   9.259 -0.0321  0.5217  0.3866
  680MOL0     C91667   1.141   0.377   9.330  0.6046 -0.2333  0.1153
  680MOL0     O91668   1.060   0.458   9.406 -0.1756 -0.0640 -0.2171
  680MOL0     C91669   0.927   0.456   9.399  0.1140  0.2462 -0.9015
  680MOL0     C91670   0.854   0.465   9.279 -0.5443  0.3522  0.5878
  680MOL0     C91671   0.712   0.449   9.279  0.6006 -0.0074 -0.2419
  680MOL0     C91672   0.649   0.437   9.405 -0.3669 -0.8095  0.8957
  680MOL0     O91673   0.511   0.431   9.396 -0.3640  0.1241  0.6189
  680MOL0     C91674   0.459   0.304   9.448 -0.6295  0.6535 -0.3583
  680MOL0     C91675   0.307   0.311   9.444  0.2787  0.6179 -0.1872
  680MOL0     C91676   0.243   0.171   9.436 -0.3423  0.1961  0.1880
  680MOL0     C91677   0.132   0.137   9.531 -0.0033  0.0989  0.1280
  680MOL0     C91678   0.079  -0.000   9.514 -0.5454 -0.0028 -0.4419
  680MOL0     C91679   0.039  -0.077   9.644  0.1910 -0.0577 -0.2981
  680MOL0     C91680  -0.066  -0.008   9.728 -0.4522  0.0807  0.3230
  680MOL0     C91681  -0.188   0.008   9.639  0.2727  0.3380 -0.0643
  680MOL0     N91682  -0.284   0.066   9.731 -0.0082 -0.1237  0.1347
  680MOL0     C91683  -0.387  -0.008   9.795 -0.1287 -0.6100  0.0061
  680MOL0     C91684  -0.458   0.092   9.856 -0.2924 -0.0122 -0.2310
  680MOL0     C91685  -0.571   0.057   9.939 -0.2067  0.0332 -0.9164
  680MOL0     C91686  -0.695   0.149   9.908 -0.1463 -0.4259  0.7022
  680MOL0     C91687  -0.741   0.151   9.762 -0.1308  0.3137 -0.1192
  680MOL0     C91688  -0.868   0.238   9.753 -0.1446 -0.5928  0.6096
  680MOL0     O91689  -0.989   0.159   9.763 -0.9465  0.6994  0.6851
  680MOL0     C91690  -1.110   0.215   9.764  0.8532  0.8169 -0.0539
  680MOL0     C91691  -1.210   0.127   9.816  0.3521 -0.9594  1.2460
  680MOL0     C91692  -1.348   0.165   9.820  0.0326 -0.0039  0.1576
  680MOL0     C91693  -1.445   0.063   9.877  0.8022 -0.2887 -1.0041
  680MOL0     C91694  -1.386   0.294   9.775 -0.5743  0.0479 -0.0240
  680MOL0     C91695  -1.524   0.335   9.772 -0.9968  0.9674 -0.0571
  680MOL0     O91696  -1.607   0.247   9.714  0.4351  0.3385 -0.1291
  680MOL0     C91697  -1.743   0.252   9.738 -0.2116 -0.2630  1.1797
  680MOL0     C91698  -1.826   0.312   9.641  0.4756  0.4436  0.4862
  680MOL0     C91699  -1.962   0.317   9.660 -0.4168  1.1458 -0.4367
  680MOL0     C91700  -2.021   0.260   9.773  0.8825  1.1191  0.7018
  680MOL0     O91701  -2.157   0.269   9.775  0.2319  0.1348 -0.2699
  680MOL0     C91702  -2.222   0.266   9.901 -0.2786  0.4084  0.5627
  680MOL0     C91703  -2.369   0.300   9.887 -0.7620  0.0489 -0.3128
  680MOL0     C91704  -2.443   0.314  10.021  0.0128  0.6983 -0.0263
  680MOL0     C91705  -2.600   0.338  10.002 -0.7728 -0.7167  0.6639
  680MOL0     C91706  -2.676   0.383  10.128  0.2710  0.4821 -0.2026
  680MOL0     C91707  -2.672   0.288  10.240 -0.3901 -0.8674 -0.4793
  680MOL0     C91708  -2.784   0.318  10.349 -0.1788  0.0300 -0.4038
  680MOL0     C91709  -2.770   0.252  10.479 -1.0143  1.0610  0.2089
  680MOL0    Cl91710  -2.750   0.078  10.439 -0.2590 -0.1532 -0.1735
  680MOL0     C91711  -1.941   0.202   9.870 -0.3801  0.0322  0.2177
  680MOL0     C91712  -1.802   0.197   9.847  0.0384  0.3139 -0.5401
  680MOL0     O91713  -1.558   0.433   9.834  0.2130  0.3223  0.1824
  680MOL0     C91714  -1.293   0.377   9.712  0.2471 -0.1230  0.5383
  680MOL0     C91715  -1.155   0.339   9.717  0.2183 -0.4094  0.4062
  680MOL0     N91716  -0.389   0.212   9.848 -0.6838 -0.2356  0.3710
  680MOL0     N91717  -0.294   0.195   9.758  0.2038 -0.6551 -0.1127
  680MOL0     C91718   0.715   0.452   9.528 -0.1028  0.0902  0.0936
  680MOL0     C91719   0.855   0.444   9.516  0.4554  0.2831  0.0703
  680MOL0     C91720   1.277   0.417   9.322 -0.2610  0.1701 -0.5764
  680MOL0     C91721   1.326   0.529   9.396 -0.0498  0.2319  0.8642
  680MOL0     C91722   1.460   0.556   9.412  0.3168 -0.2038  1.0864
  680MOL0     C91723   1.556   0.467   9.361 -0.0057  0.0096  0.8486
  680MOL0     O91724   1.687   0.489   9.382 -0.6176  0.1510  0.4634
  680MOL0     C91725   1.748   0.616   9.367  0.0560 -0.6013 -0.6161
  680MOL0     C91726   1.889   0.615   9.423 -0.2807  0.4281  0.9639
  680MOL0     C91727   1.976   0.516   9.349 -0.3766 -0.7823 -0.6356
  680MOL0     C91728   2.119   0.564   9.371  0.0590  0.1279  0.0207
  680MOL0     C91729   2.210   0.469   9.317 -0.3148  0.1311  0.2718
  680MOL0     C91730   2.284   0.386   9.263 -0.0032 -0.2253 -0.0014
  680MOL0     C91731   1.515   0.357   9.290 -0.3631 -0.3046 -0.8542
  680MOL0     C91732   1.379   0.330   9.271  0.2477  0.2344 -0.0252
  680MOL0     H91733   0.899   0.471   9.181 -2.1646 -1.4622 -0.3228
  680MOL0     H91734   0.658   0.441   9.185  2.4382 -0.6715 -1.2965
  680MOL0     H91735   0.499   0.223   9.386  1.2283  1.1149  0.1742
  680MOL0     H91736   0.482   0.282   9.552 -2.2839  0.0849 -0.0779
  680MOL0     H91737   0.267   0.358   9.535  1.7290 -2.7749  2.4106
  680MOL0     H91738   0.264   0.371   9.363  0.9826  0.4509 -0.6939
  680MOL0     H91739   0.214   0.165   9.330 -0.8161  1.9151  0.1860
  680MOL0     H91740   0.317   0.093   9.453 -0.5614  0.0799  0.6256
  680MOL0     H91741   0.166   0.153   9.634 -0.3791  1.8817  0.0077
  680MOL0     H91742   0.048   0.206   9.520 -1.6491 -1.3412  2.5313
  680MOL0     H91743   0.004   0.022   9.437 -1.4000  2.7447  1.0592
  680MOL0     H91744   0.145  -0.066   9.457 -0.5226 -0.2754 -0.1013
  680MOL0     H91745  -0.005  -0.174   9.617 -1.3625 -0.1420  2.2335
  680MOL0     H91746   0.128  -0.101   9.703  0.2694 -1.3073 -0.8782
  680MOL0     H91747  -0.094  -0.070   9.814 -1.4386  0.6256  0.4096
  680MOL0     H91748  -0.029   0.090   9.759 -0.5855  0.0938  0.4438
  680MOL0     H91749  -0.234  -0.079   9.589 -1.0241  0.3760  0.9854
  680MOL0     H91750  -0.170   0.076   9.556  3.5577  0.5058  0.6577
  680MOL0     H91751  -0.400  -0.116   9.787 -0.1848 -0.7616  1.8367
  680MOL0     H91752  -0.603  -0.045   9.918  0.8422 -0.3675 -0.6310
  680MOL0     H91753  -0.556   0.072  10.046 -1.2847  0.0221 -0.7570
  680MOL0     H91754  -0.671   0.247   9.951  1.9733 -1.8167  3.0007
  680MOL0     H91755  -0.782   0.110   9.962 -1.6711 -1.2944 -2.1919
  680MOL0     H91756  -0.769   0.046   9.745 -0.8612  0.2993  1.0582
  680MOL0     H91757  -0.657   0.177   9.696  0.3492  0.5771  0.5848
  680MOL0     H91758  -0.862   0.279   9.652  0.6410  1.9388  1.5909
  680MOL0     H91759  -0.860   0.310   9.835 -0.6397  0.8167 -0.5332
  680MOL0     H91760  -1.180   0.028   9.849  3.2612  0.0104  1.8364
  680MOL0     H91761  -1.401  -0.012   9.942 -3.5632 -0.4237  2.1931
  680MOL0     H91762  -1.509   0.122   9.944  2.6039 -1.5822  2.0491
  680MOL0     H91763  -1.507   0.010   9.804  0.1966  1.2898 -1.6939
  680MOL0     H91764  -1.788   0.353   9.548 -1.1019 -0.6224 -0.6749
  680MOL0     H91765  -2.020   0.368   9.584 -0.2534  1.6576 -0.2266
  680MOL0     H91766  -2.217   0.163   9.938  3.1641 -0.5210 -1.9864
  680MOL0     H91767  -2.159   0.328   9.966  3.5714 -0.9960 -1.4942
  680MOL0     H91768  -2.373   0.397   9.836  0.4315 -0.4453 -1.3786
  680MOL0     H91769  -2.426   0.229   9.826  0.6320 -0.5333 -0.9766
  680MOL0     H91770  -2.395   0.395  10.076  0.3499  0.2749  0.3004
  680MOL0     H91771  -2.427   0.231  10.090 -1.5468  0.0815 -0.3502
  680MOL0     H91772  -2.613   0.407   9.918 -0.8282  0.8798  1.9313
  680MOL0     H91773  -2.638   0.245   9.959  0.3359 -2.3003  2.8957
  680MOL0     H91774  -2.779   0.412  10.105  1.3559  4.6468 -0.5528
  680MOL0     H91775  -2.632   0.480  10.151 -0.1694  0.3771  1.1921
  680MOL0     H91776  -2.678   0.189  10.196  2.1565 -0.7190 -1.3399
  680MOL0     H91777  -2.572   0.290  10.285  0.5840  2.1109 -2.4592
  680MOL0     H91778  -2.881   0.298  10.303 -1.2970  0.0158  1.8197
  680MOL0     H91779  -2.776   0.426  10.364 -3.3629  0.0092  2.4293
  680MOL0     H91780  -2.845   0.274  10.557  1.4838  1.3374  2.6951
  680MOL0     H91781  -2.680   0.290  10.527 -1.3364  1.5273  0.4544
  680MOL0     H91782  -1.976   0.141   9.953 -0.6252  1.2283  1.0181
  680MOL0     H91783  -1.745   0.136   9.916  0.0605 -0.5146 -1.2812
  680MOL0     H91784  -1.332   0.468   9.667 -3.1375 -1.8236 -0.2647
  680MOL0     H91785  -1.071   0.399   9.686  0.5641 -1.4659 -0.7546
  680MOL0     H91786   0.646   0.466   9.611 -0.9744  2.5310 -0.9411
  680MOL0     H91787   0.908   0.450   9.611  0.0016 -0.6747  0.3910
  680MOL0     H91788   1.251   0.602   9.427 -1.9989 -0.0961 -2.5611
  680MOL0     H91789   1.493   0.650   9.453  3.6882 -1.4914  1.6749
  680MOL0     H91790   1.766   0.634   9.261  1.9032  2.0867  0.0296
  680MOL0     H91791   1.687   0.701   9.400 -0.4143 -0.3195 -2.1340
  680MOL0     H91792   1.888   0.591   9.530  0.9595  1.9030  1.3482
  680MOL0     H91793   1.920   0.720   9.414 -2.1700  1.1451  2.2775
  680MOL0     H91794   1.948   0.514   9.243 -1.0742 -3.0575 -0.4495
  680MOL0     H91795   1.958   0.413   9.381  0.9263 -0.4008  1.4928
  680MOL0     H91796   2.134   0.583   9.478  1.6647 -2.5473  0.3472
  680MOL0     H91797   2.131   0.660   9.320 -2.5731 -0.5824 -2.2138
  680MOL0     H91798   2.360   0.335   9.206  0.8821 -0.5037  1.3887
  680MOL0     H91799   1.585   0.289   9.241 -0.1433 -0.4226 -0.3880
  680MOL0     H91800   1.347   0.244   9.214 -1.5521  1.1412 -0.4469
  681MOL0     O91801   6.053   4.232   3.988  0.6800  0.5322  0.5766
  681MOL0     C91802   6.114   4.169   4.068 -0.0513  0.7079 -0.6546
  681MOL0     O91803   6.060   4.089   4.160  0.2715  0.1597  0.0642
  681MOL0     C91804   5.926   4.063   4.157  0.2615 -0.0988  0.5660
  681MOL0     C91805   5.884   3.952   4.076 -0.2165 -0.0159 -0.1343
  681MOL0     C91806   5.753   3.935   4.037 -0.0279  0.9294  0.5668
  681MOL0     C91807   5.656   4.015   4.085 -0.9030  0.1255 -0.4371
  681MOL0     O91808   5.528   4.013   4.054  0.4489 -0.3488 -0.1896
  681MOL0     C91809   5.492   3.945   3.934 -0.5028 -0.0735  0.6780
  681MOL0     C91810   5.336   3.949   3.905  0.1230  0.4562  0.1485
  681MOL0     C91811   5.301   3.880   3.771 -0.0491  0.4143  0.4965
  681MOL0     C91812   5.153   3.854   3.773  0.0053  0.2660  0.2396
  681MOL0     C91813   5.116   3.753   3.658  1.0267  0.8655 -0.4321
  681MOL0     C91814   4.963   3.764   3.616 -0.8221 -0.1398  0.1563
  681MOL0     C91815   4.935   3.713   3.476  0.0211  1.6897 -0.2364
  681MOL0     C91816   4.946   3.563   3.459 -0.8028 -0.0002 -1.0288
  681MOL0     N91817   4.831   3.497   3.526  0.0088 -0.3011 -0.0625
  681MOL0     C91818   4.715   3.494   3.463 -0.4522 -0.8428  0.3079
  681MOL0     C91819   4.650   3.402   3.531  0.3959  0.1230  0.7961
  681MOL0     C91820   4.512   3.374   3.470  0.2449  0.1074  0.1805
  681MOL0     C91821   4.418   3.303   3.575  0.0383  0.2592 -0.4700
  681MOL0     C91822   4.380   3.403   3.687  0.8758 -0.0848  0.0395
  681MOL0     C91823   4.262   3.352   3.768  0.3014  0.2296  1.3205
  681MOL0     O91824   4.145   3.332   3.679 -0.1629 -0.5382 -0.7624
  681MOL0     C91825   4.033   3.267   3.722 -0.3299  0.1686  0.0292
  681MOL0     C91826   3.930   3.276   3.637 -0.5082 -0.0729  0.7513
  681MOL0     C91827   3.807   3.218   3.672 -0.0941 -1.0620 -0.6596
  681MOL0     C91828   3.686   3.263   3.583 -1.0785 -0.1257  0.5049
  681MOL0     C91829   3.800   3.143   3.793  0.1126 -0.8824  0.6378
  681MOL0     C91830   3.670   3.082   3.834  0.6722  0.1918 -0.4625
  681MOL0     O91831   3.675   2.953   3.869  0.2654 -0.5948  0.0045
  681MOL0     C91832   3.563   2.893   3.925 -0.0071 -0.2602  0.5767
  681MOL0     C91833   3.551   2.754   3.901 -0.9085 -0.1001  0.2874
  681MOL0     C91834   3.454   2.674   3.948 -0.3487 -1.0205 -0.0727
  681MOL0     C91835   3.362   2.735   4.037 -0.3004  0.0421  0.3891
  681MOL0     O91836   3.270   2.658   4.104  0.2546 -0.5050  0.5422
  681MOL0     C91837   3.211   2.553   4.026 -0.2487  0.0774  0.4546
  681MOL0     C91838   3.084   2.531   4.098  0.4713 -0.2120 -0.1561
  681MOL0     C91839   2.984   2.652   4.094  0.3941 -0.2620  0.3398
  681MOL0     C91840   2.853   2.614   4.169  0.1762 -0.0139 -1.0309
  681MOL0     C91841   2.756   2.733   4.188  0.1381  0.2761  0.1747
  681MOL0     C91842   2.709   2.810   4.063 -0.2757  0.6111 -0.7496
  681MOL0     C91843   2.634   2.717   3.961  0.6559 -1.0848 -0.4772
  681MOL0     C91844   2.559   2.803   3.867  0.1664 -0.1134  0.5397
  681MOL0    Cl91845   2.521   2.702   3.723  0.4220 -0.3676  0.2544
  681MOL0     C91846   3.365   2.875   4.059 -0.2518  0.0709  0.6807
  681MOL0     C91847   3.471   2.950   4.010 -0.8066 -0.9514  1.5933
  681MOL0     O91848   3.569   3.151   3.823 -0.6970  0.0870 -0.3467
  681MOL0     C91849   3.915   3.133   3.867 -1.1268 -0.0786  0.1085
  681MOL0     C91850   4.029   3.197   3.842  0.0790  0.1471  0.7198
  681MOL0     N91851   4.723   3.352   3.635  0.3124  0.2921 -0.1874
  681MOL0     N91852   4.841   3.409   3.637  0.0089  0.1105 -0.6273
  681MOL0     C91853   5.698   4.116   4.176  0.4488 -0.2855 -0.2388
  681MOL0     C91854   5.830   4.143   4.209  0.2898 -0.0002 -0.2333
  681MOL0     C91855   6.267   4.177   4.062  0.8529  0.0714  1.1919
  681MOL0     C91856   6.351   4.093   4.136  0.2285 -0.4921  0.5121
  681MOL0     C91857   6.485   4.086   4.120 -0.2168  0.1737  0.3765
  681MOL0     C91858   6.552   4.153   4.016  0.8476  0.5259  0.7841
  681MOL0     O91859   6.689   4.146   4.033  0.4875  0.0197 -0.7302
  681MOL0     C91860   6.778   4.191   3.930 -0.1737 -0.2624 -0.0097
  681MOL0     C91861   6.864   4.078   3.874 -0.1545 -0.8253  0.2263
  681MOL0     C91862   6.961   4.030   3.983 -0.4601 -0.0561 -1.2441
  681MOL0     C91863   7.058   3.925   3.935 -0.7633  0.6635 -1.2578
  681MOL0     C91864   6.997   3.796   3.890 -0.4499  0.5151  0.3913
  681MOL0     C91865   6.950   3.691   3.845  0.1164  0.2561 -0.6015
  681MOL0     C91866   6.471   4.229   3.929  0.3345  0.8225 -0.1736
  681MOL0     C91867   6.333   4.247   3.956 -0.2220  0.3777 -0.9843
  681MOL0     H91868   5.951   3.872   4.047  0.1239 -0.1084  0.8529
  681MOL0     H91869   5.730   3.853   3.969 -0.2724  1.5218 -0.0772
  681MOL0     H91870   5.547   3.980   3.847  1.2054 -1.1140  1.2957
  681MOL0     H91871   5.520   3.840   3.947 -2.5123 -0.9528 -1.4621
  681MOL0     H91872   5.295   3.901   3.994  0.5654 -1.4265 -0.6133
  681MOL0     H91873   5.313   4.056   3.901 -0.6953  0.2557 -1.5249
  681MOL0     H91874   5.335   3.945   3.689  1.0207  1.1877  1.5287
  681MOL0     H91875   5.360   3.788   3.758 -1.2257 -0.0831 -2.1639
  681MOL0     H91876   5.128   3.804   3.867 -0.9815  1.6409  0.7301
  681MOL0     H91877   5.092   3.944   3.765 -1.0591 -0.2835  1.6636
  681MOL0     H91878   5.182   3.768   3.572  1.9099  0.0691  0.0831
  681MOL0     H91879   5.137   3.650   3.689  2.2552  2.0014  3.0085
  681MOL0     H91880   4.915   3.694   3.685  1.2577 -1.7118  0.1388
  681MOL0     H91881   4.925   3.866   3.627 -1.0952  0.0107 -1.7910
  681MOL0     H91882   4.829   3.735   3.458 -1.4813 -3.6705  0.1681
  681MOL0     H91883   4.997   3.761   3.400 -0.3572 -1.6143 -2.8583
  681MOL0     H91884   5.040   3.540   3.511 -1.8932 -0.2136  0.9752
  681MOL0     H91885   4.947   3.539   3.353 -1.7749  2.9776 -1.7883
  681MOL0     H91886   4.681   3.547   3.375 -2.8637 -2.6836  0.0283
  681MOL0     H91887   4.456   3.458   3.426 -0.2377 -0.6671 -0.7298
  681MOL0     H91888   4.528   3.309   3.383 -0.8175  1.6813 -1.2503
  681MOL0     H91889   4.475   3.221   3.620 -3.7047 -2.0621  0.5108
  681MOL0     H91890   4.337   3.245   3.531  1.8946 -3.3349  0.4428
  681MOL0     H91891   4.363   3.500   3.639 -1.8726  0.5247  2.0368
  681MOL0     H91892   4.473   3.409   3.745  2.1009  2.2670 -1.9612
  681MOL0     H91893   4.233   3.413   3.854  0.4990 -1.1520  2.3831
  681MOL0     H91894   4.300   3.256   3.803 -1.5708 -1.9901 -2.2009
  681MOL0     H91895   3.937   3.336   3.547  0.1233 -0.6031  0.4386
  681MOL0     H91896   3.634   3.185   3.526 -1.9185  1.9036 -1.6317
  681MOL0     H91897   3.611   3.309   3.648 -1.2710  0.0685  0.1458
  681MOL0     H91898   3.708   3.336   3.505 -0.7556 -1.8059 -1.0483
  681MOL0     H91899   3.628   2.710   3.839 -1.5399  0.7592 -1.1548
  681MOL0     H91900   3.444   2.568   3.929  0.1300 -1.1816  0.5773
  681MOL0     H91901   3.175   2.572   3.924 -0.3349 -1.0529  0.2547
  681MOL0     H91902   3.273   2.463   4.032  0.3035  0.3010 -1.3793
  681MOL0     H91903   3.037   2.448   4.044  1.1130 -1.5032  1.1892
  681MOL0     H91904   3.100   2.502   4.203  0.3923  0.1721 -0.0359
  681MOL0     H91905   2.958   2.685   3.993  0.3063  1.5277  0.9203
  681MOL0     H91906   3.034   2.732   4.150 -1.4543  0.3460  1.2044
  681MOL0     H91907   2.793   2.543   4.110 -2.3423  1.0581  0.0895
  681MOL0     H91908   2.887   2.571   4.263 -0.4288  0.4458 -0.5972
  681MOL0     H91909   2.810   2.805   4.250 -1.5480  0.6636  1.2710
  681MOL0     H91910   2.674   2.691   4.247  1.9528  0.4593  3.0056
  681MOL0     H91911   2.632   2.878   4.101 -1.3608  0.5842 -2.7690
  681MOL0     H91912   2.788   2.855   4.002  0.8761 -1.7983 -1.1369
  681MOL0     H91913   2.568   2.645   4.011 -0.2182  1.4230  2.2410
  681MOL0     H91914   2.701   2.655   3.900 -2.1570 -4.7467 -0.2492
  681MOL0     H91915   2.626   2.875   3.819 -2.4418  0.5930 -2.3887
  681MOL0     H91916   2.474   2.855   3.911 -0.7888 -0.9616 -0.2501
  681MOL0     H91917   3.280   2.907   4.118  0.1093 -1.7859  2.3183
  681MOL0     H91918   3.469   3.057   4.027 -0.9213 -0.8032  0.6782
  681MOL0     H91919   3.909   3.079   3.961 -0.3029 -2.2940 -1.0481
  681MOL0     H91920   4.109   3.198   3.915 -0.4984  1.7234  1.3952
  681MOL0     H91921   5.631   4.192   4.215  1.1700 -0.3036  1.1064
  681MOL0     H91922   5.849   4.240   4.253 -2.0073  1.4517 -2.2293
  681MOL0     H91923   6.302   4.031   4.211 -0.9941  1.6152  1.5514
  681MOL0     H91924   6.535   4.019   4.189  0.9785  0.2023 -0.4361
  681MOL0     H91925   6.723   4.238   3.848 -0.7795  0.3169  0.7221
  681MOL0     H91926   6.845   4.265   3.974  0.4308 -0.8884  0.1503
  681MOL0     H91927   6.927   4.115   3.792  0.2810 -1.8602  0.0730
  681MOL0     H91928   6.796   4.003   3.832  1.2632 -1.8864 -0.2580
  681MOL0     H91929   6.909   3.991   4.071  1.4758  0.4253  0.1567
  681MOL0     H91930   7.015   4.118   4.019 -0.2897 -0.6627  0.0153
  681MOL0     H91931   7.127   3.907   4.017 -0.0124  0.1394 -1.9916
  681MOL0     H91932   7.107   3.968   3.847 -0.4250  2.3595 -0.2853
  681MOL0     H91933   6.909   3.602   3.801 -1.6705  0.3837  0.7169
  681MOL0     H91934   6.521   4.285   3.851  0.1653 -0.4847 -1.2696
  681MOL0     H91935   6.282   4.302   3.877 -1.4661 -2.2148 -2.1187
  682MOL0     O91936   2.050   9.457   1.110  0.3118  0.1626  0.2567
  682MOL0     C91937   2.071   9.458   0.984 -0.1601 -0.0387  0.4773
  682MOL0     O91938   1.983   9.443   0.880 -1.0503 -0.2969 -1.0152
  682MOL0     C91939   1.848   9.439   0.904  0.7743  0.1992  0.0215
  682MOL0     C91940   1.752   9.513   0.832 -0.0927 -0.4580  0.9567
  682MOL0     C91941   1.614   9.484   0.841 -0.6934 -0.5654  0.7878
  682MOL0     C91942   1.568   9.403   0.943 -0.5175  0.2503 -0.2786
  682MOL0     O91943   1.435   9.383   0.964 -0.0709 -0.1823  0.1826
  682MOL0     C91944   1.356   9.334   0.855 -0.8834 -0.6205 -0.1429
  682MOL0     C91945   1.218   9.394   0.872 -0.4975 -0.0532  0.6033
  682MOL0     C91946   1.112   9.354   0.767 -1.4613 -0.3155  1.2251
  682MOL0     C91947   0.984   9.431   0.781  1.3042 -0.0281 -0.2156
  682MOL0     C91948   0.883   9.411   0.660  0.7214  0.7476  0.2193
  682MOL0     C91949   0.743   9.475   0.677 -0.6950 -1.3292 -0.3065
  682MOL0     C91950   0.674   9.516   0.542 -0.1979 -0.2112 -0.2584
  682MOL0     C91951   0.663   9.675   0.508 -0.6551 -0.2290 -0.1633
  682MOL0     N91952   0.604   9.702   0.370  0.3331  1.7469 -0.5814
  682MOL0     C91953   0.547   9.617   0.273  0.9237  0.0592 -0.6908
  682MOL0     C91954   0.539   9.685   0.158  0.1920 -0.0337 -0.6469
  682MOL0     C91955   0.528   9.637   0.022 -0.2510 -0.5715 -0.6905
  682MOL0     C91956   0.664   9.620  -0.042  0.4902  0.3932  0.0665
  682MOL0     C91957   0.662   9.572  -0.192  0.0194 -0.5079 -0.6104
  682MOL0     C91958   0.592   9.670  -0.287  0.3764 -0.8735 -0.2298
  682MOL0     O91959   0.448   9.649  -0.311 -0.1853 -0.2757  0.2044
  682MOL0     C91960   0.368   9.749  -0.360  0.1581 -0.6299 -0.2185
  682MOL0     C91961   0.424   9.872  -0.405 -0.2277 -0.0234  0.7707
  682MOL0     C91962   0.342   9.974  -0.456 -0.7297 -0.2006 -0.4212
  682MOL0     C91963   0.409  10.104  -0.501 -0.5034 -0.0746  0.3558
  682MOL0     C91964   0.205   9.964  -0.451  0.1566  0.3502  0.4149
  682MOL0     C91965   0.102  10.062  -0.486 -1.1112 -0.3460  0.4455
  682MOL0     O91966   0.003  10.026  -0.576 -0.6289 -0.8141 -0.3545
  682MOL0     C91967  -0.105  10.103  -0.579  0.5044 -0.0952  0.2109
  682MOL0     C91968  -0.225  10.047  -0.541  0.1759  0.1606 -0.7210
  682MOL0     C91969  -0.342  10.123  -0.551 -0.2215 -0.1029 -0.9453
  682MOL0     C91970  -0.349  10.252  -0.612 -0.2343 -0.0393 -0.2927
  682MOL0     O91971  -0.469  10.321  -0.610  0.2434  0.3883  0.7899
  682MOL0     C91972  -0.516  10.362  -0.485 -0.2822  0.3335  0.5020
  682MOL0     C91973  -0.654  10.435  -0.500  0.0370 -0.0377  0.0145
  682MOL0     C91974  -0.767  10.356  -0.584 -0.6051 -0.1196 -0.1104
  682MOL0     C91975  -0.882  10.462  -0.604 -0.6990  0.4463  0.1903
  682MOL0     C91976  -0.968  10.410  -0.721  0.4020  0.9863 -0.5192
  682MOL0     C91977  -1.091  10.491  -0.742  0.0484 -0.3671  0.3205
  682MOL0     C91978  -1.154  10.458  -0.879  0.5204 -0.1371  0.0343
  682MOL0     C91979  -1.182  10.314  -0.908  0.2437  0.5227  0.0076
  682MOL0    Cl91980  -1.271  10.311  -1.066  0.2793 -0.0421  0.2206
  682MOL0     C91981  -0.229  10.303  -0.646  0.1141  0.0846  0.3618
  682MOL0     C91982  -0.110  10.234  -0.634 -0.2269 -0.4963 -0.9021
  682MOL0     O91983   0.127  10.175  -0.450 -0.8307  0.2391 -0.2119
  682MOL0     C91984   0.152   9.838  -0.410 -0.1355  0.3306 -0.1988
  682MOL0     C91985   0.233   9.737  -0.360 -0.3590  0.3971 -0.2607
  682MOL0     N91986   0.561   9.822   0.196 -0.3857  0.0640 -0.0313
  682MOL0     N91987   0.605   9.827   0.315 -0.6412 -0.3348  0.9667
  682MOL0     C91988   1.664   9.319   1.009 -0.0353  0.1675 -0.3225
  682MOL0     C91989   1.797   9.335   0.987  0.6434  0.6716 -0.1974
  682MOL0     C91990   2.191   9.510   0.935  0.3588 -0.7779 -0.0683
  682MOL0     C91991   2.267   9.596   1.015 -0.8723  0.5749  0.8661
  682MOL0     C91992   2.383   9.651   0.954  0.3407  0.6364 -0.1644
  682MOL0     C91993   2.445   9.599   0.839 -0.1922  0.1073 -0.1622
  682MOL0     O91994   2.566   9.635   0.789 -0.2546 -0.6472  0.3356
  682MOL0     C91995   2.651   9.727   0.859 -0.2110 -0.1518  0.5639
  682MOL0     C91996   2.793   9.713   0.815  0.5387 -0.5605 -0.6197
  682MOL0     C91997   2.894   9.768   0.925  0.0704  0.8723  0.0523
  682MOL0     C91998   2.888   9.922   0.971 -0.1054 -0.5230 -0.0815
  682MOL0     C91999   2.909  10.010   0.859 -0.0284  0.0217  1.2444
  682MOL0     C92000   2.925  10.083   0.765  0.1484  0.1708 -0.0020
  682MOL0     C92001   2.371   9.510   0.772  0.0405  0.2389  0.8453
  682MOL0     C92002   2.245   9.466   0.814 -0.0562  0.0681 -0.5662
  682MOL0     H92003   1.787   9.594   0.769 -1.1739  0.6354  1.7203
  682MOL0     H92004   1.547   9.534   0.771 -0.1057 -0.2183  0.4606
  682MOL0     H92005   1.396   9.359   0.757  0.6797 -0.2219  0.5715
  682MOL0     H92006   1.358   9.224   0.859 -0.2443 -0.6490 -1.1287
  682MOL0     H92007   1.186   9.359   0.971 -1.6041  0.5453  0.4798
  682MOL0     H92008   1.238   9.502   0.869 -1.9954  0.3393  2.6002
  682MOL0     H92009   1.152   9.367   0.667 -2.1821  1.7263  1.1595
  682MOL0     H92010   1.089   9.249   0.789 -1.4196 -0.2878  1.3976
  682MOL0     H92011   0.931   9.405   0.874 -1.7767 -0.1735 -1.8866
  682MOL0     H92012   1.009   9.537   0.780 -1.5656  0.7321 -0.2283
  682MOL0     H92013   0.931   9.448   0.569  2.9727  0.2521  1.1200
  682MOL0     H92014   0.856   9.305   0.657 -2.5557  1.2724  3.8737
  682MOL0     H92015   0.669   9.416   0.731 -4.1618  2.4412 -0.3832
  682MOL0     H92016   0.756   9.568   0.733 -1.6949 -0.4490 -1.4845
  682MOL0     H92017   0.737   9.480   0.461  3.3359  3.4417  0.4997
  682MOL0     H92018   0.587   9.450   0.534  0.9427 -1.8179  0.1931
  682MOL0     H92019   0.760   9.717   0.534  1.0585 -3.4986 -0.7863
  682MOL0     H92020   0.586   9.712   0.576  0.5418  0.5043  0.8310
  682MOL0     H92021   0.558   9.509   0.276  0.6653  0.0317 -0.6810
  682MOL0     H92022   0.478   9.540   0.026 -1.6467  0.1188  2.8010
  682MOL0     H92023   0.475   9.716  -0.031  0.9437  1.2795  0.7493
  682MOL0     H92024   0.711   9.539   0.016 -0.7639 -0.9062 -0.6636
  682MOL0     H92025   0.720   9.714  -0.040 -0.9923  1.5847 -3.7633
  682MOL0     H92026   0.606   9.478  -0.190 -1.2221  0.1896  2.1128
  682MOL0     H92027   0.765   9.548  -0.221  0.1593 -0.5227 -0.1214
  682MOL0     H92028   0.648   9.646  -0.377  1.9419  1.6915 -0.0325
  682MOL0     H92029   0.620   9.768  -0.248 -0.0714 -1.3931  1.5346
  682MOL0     H92030   0.531   9.890  -0.402 -0.7031  3.3076  1.9850
  682MOL0     H92031   0.433  10.160  -0.410  3.4371 -2.4326  0.9828
  682MOL0     H92032   0.509  10.084  -0.541 -0.9910 -2.8197  0.3202
  682MOL0     H92033   0.348  10.162  -0.572 -0.1447 -0.5017 -0.3077
  682MOL0     H92034  -0.234   9.950  -0.495  0.2758  0.4786 -0.0101
  682MOL0     H92035  -0.433  10.090  -0.501  2.0437 -4.2353  0.8885
  682MOL0     H92036  -0.531  10.272  -0.423 -0.0364 -0.7225 -0.9181
  682MOL0     H92037  -0.457  10.441  -0.439 -0.5999  1.4933 -1.0216
  682MOL0     H92038  -0.688  10.444  -0.397  3.4215 -3.1030  1.6675
  682MOL0     H92039  -0.627  10.533  -0.540  2.1699 -0.2128  0.8576
  682MOL0     H92040  -0.802  10.267  -0.530 -0.7897 -0.1748 -0.3245
  682MOL0     H92041  -0.729  10.334  -0.683  0.7324  4.3398 -0.8246
  682MOL0     H92042  -0.951  10.488  -0.523 -3.8332 -0.9808 -1.8300
  682MOL0     H92043  -0.835  10.557  -0.629  0.6871 -0.2642 -0.0006
  682MOL0     H92044  -0.999  10.307  -0.701 -0.2825  1.3338  0.2837
  682MOL0     H92045  -0.914  10.411  -0.816  1.0267 -0.8081 -0.2159
  682MOL0     H92046  -1.163  10.489  -0.660 -0.9969  2.1994 -0.4405
  682MOL0     H92047  -1.061  10.595  -0.753  1.1913 -0.8453 -1.6904
  682MOL0     H92048  -1.091  10.493  -0.962 -1.7962 -1.7663 -2.6149
  682MOL0     H92049  -1.240  10.524  -0.887  1.2360  0.5785 -3.3140
  682MOL0     H92050  -1.237  10.261  -0.830  1.2832  1.0389  1.1051
  682MOL0     H92051  -1.089  10.257  -0.917 -1.3439 -2.6577  1.8937
  682MOL0     H92052  -0.229  10.406  -0.681 -2.1340  0.0414  0.0892
  682MOL0     H92053  -0.016  10.283  -0.657  0.3593 -1.7093 -1.1840
  682MOL0     H92054   0.047   9.812  -0.420 -0.2363  0.6170  0.1178
  682MOL0     H92055   0.182   9.646  -0.330  0.0670  0.0459 -0.5903
  682MOL0     H92056   1.629   9.255   1.090  1.0039 -0.1253 -0.1003
  682MOL0     H92057   1.876   9.278   1.034  1.0099 -1.9319 -3.5962
  682MOL0     H92058   2.220   9.640   1.103 -0.1654  3.6434 -0.1465
  682MOL0     H92059   2.417   9.727   1.023 -3.1322 -0.0822  2.6569
  682MOL0     H92060   2.617   9.830   0.846  0.9983 -0.0661 -2.7217
  682MOL0     H92061   2.644   9.704   0.966  2.4343 -2.8105  0.3120
  682MOL0     H92062   2.807   9.756   0.715 -0.7243 -0.3352 -0.7217
  682MOL0     H92063   2.811   9.606   0.808  2.4669 -0.2529 -1.1229
  682MOL0     H92064   3.000   9.751   0.905  0.0930  1.7996 -0.6354
  682MOL0     H92065   2.870   9.705   1.011  0.1466 -0.1716 -0.6731
  682MOL0     H92066   2.955   9.940   1.056 -1.8264 -0.4792  1.3125
  682MOL0     H92067   2.787   9.945   1.004 -0.0662  0.3297 -0.5368
  682MOL0     H92068   2.945  10.152   0.685  1.8050 -0.8966 -0.5683
  682MOL0     H92069   2.411   9.466   0.681 -1.8511 -0.6513  0.3971
  682MOL0     H92070   2.193   9.399   0.746  0.0632 -0.8435  0.2188
  683MOL0     O92071   3.328   2.770   1.687  0.1213  0.4079 -0.4532
  683MOL0     C92072   3.259   2.779   1.589 -0.1849  0.6851  0.4316
  683MOL0     O92073   3.139   2.712   1.573  0.5793  0.3124 -0.4043
  683MOL0     C92074   3.081   2.631   1.671 -0.6675  0.5073 -0.5691
  683MOL0     C92075   2.951   2.665   1.724  0.2179  0.7361 -0.1507
  683MOL0     C92076   2.889   2.592   1.831 -0.3971 -0.4734  0.1940
  683MOL0     C92077   2.968   2.482   1.887  0.3659  0.3348  0.3862
  683MOL0     O92078   2.898   2.410   1.983  0.2284 -0.2604  0.7667
  683MOL0     C92079   2.912   2.275   1.990 -0.7638 -0.2573 -0.0899
  683MOL0     C92080   2.807   2.225   2.092 -0.0638  0.1728 -1.2461
  683MOL0     C92081   2.656   2.232   2.062 -0.1361  0.6727  0.2644
  683MOL0     C92082   2.596   2.144   2.167  0.8321 -0.6973  0.3780
  683MOL0     C92083   2.446   2.162   2.159 -0.2713 -0.2014  0.9896
  683MOL0     C92084   2.373   2.114   2.291  0.3528 -0.3009  0.5685
  683MOL0     C92085   2.219   2.157   2.275 -0.1134 -0.0981  0.0555
  683MOL0     C92086   2.129   2.057   2.197  0.1069 -0.2604  0.6591
  683MOL0     N92087   1.993   2.122   2.180  0.3970  0.1211  0.8193
  683MOL0     C92088   1.952   2.251   2.150 -0.2392  0.0995 -0.1848
  683MOL0     C92089   1.815   2.253   2.145 -0.4980  0.1062  0.2243
  683MOL0     C92090   1.724   2.359   2.105 -0.4670 -0.0714  0.6188
  683MOL0     C92091   1.576   2.327   2.129 -0.4363 -0.0152 -0.1423
  683MOL0     C92092   1.523   2.334   2.268 -0.6354 -0.7542  0.5871
  683MOL0     C92093   1.366   2.314   2.285  0.1046 -0.3118 -0.2628
  683MOL0     O92094   1.327   2.378   2.406 -0.1945  0.4987 -0.4791
  683MOL0     C92095   1.212   2.337   2.465 -1.2173  0.0388  0.0349
  683MOL0     C92096   1.200   2.222   2.541 -0.2812  1.1492  0.2481
  683MOL0     C92097   1.087   2.189   2.614 -0.0778  0.0296  0.8050
  683MOL0     C92098   1.073   2.056   2.688  0.1060  0.1034 -0.9862
  683MOL0     C92099   0.975   2.271   2.597  0.4715 -0.1877  0.5380
  683MOL0     C92100   0.838   2.243   2.647  0.5083  0.1213 -1.2028
  683MOL0     O92101   0.823   2.215   2.775  0.0596  0.0369 -0.3155
  683MOL0     C92102   0.694   2.178   2.808 -0.5413 -0.0013 -0.0408
  683MOL0     C92103   0.650   2.040   2.824  0.0580 -1.2064  0.2518
  683MOL0     C92104   0.525   2.016   2.865 -0.2091  0.3602  0.6561
  683MOL0     C92105   0.437   2.112   2.912  0.3389  0.0717 -0.5521
  683MOL0     O92106   0.315   2.076   2.967  0.1345  0.3977  0.9224
  683MOL0     C92107   0.198   2.166   2.947 -0.2030  0.4405  0.5394
  683MOL0     C92108   0.090   2.084   2.890  0.5556 -0.9861  0.2735
  683MOL0     C92109  -0.033   2.182   2.849 -0.6453  0.6391  0.3136
  683MOL0     C92110  -0.163   2.104   2.801 -0.0791  0.2045  0.2831
  683MOL0     C92111  -0.273   2.195   2.756  0.0805 -0.7165 -0.4298
  683MOL0     C92112  -0.413   2.131   2.776  0.3898  0.0515  0.3324
  683MOL0     C92113  -0.519   2.226   2.718  1.2522 -0.2944  0.1925
  683MOL0     C92114  -0.656   2.178   2.754  0.6538 -0.4265  0.2637
  683MOL0    Cl92115  -0.794   2.278   2.679  0.0846  0.4456  0.3618
  683MOL0     C92116   0.470   2.248   2.893 -0.5662 -0.1822  0.6193
  683MOL0     C92117   0.599   2.287   2.841  0.1439  0.0997  0.1818
  683MOL0     O92118   0.747   2.268   2.566 -0.6695  0.0289 -0.6236
  683MOL0     C92119   0.987   2.389   2.519 -0.4030  0.0273 -0.0090
  683MOL0     C92120   1.105   2.424   2.458  0.5248  0.1859  0.0925
  683MOL0     N92121   1.776   2.119   2.176 -0.6756 -0.2628 -0.6286
  683MOL0     N92122   1.880   2.044   2.194 -0.6192  0.3859 -0.3422
  683MOL0     C92123   3.091   2.445   1.832  0.1032 -0.0439  0.0501
  683MOL0     C92124   3.153   2.519   1.727 -0.2087 -0.4861  0.3328
  683MOL0     C92125   3.296   2.861   1.482 -0.2416  0.3705  0.3061
  683MOL0     C92126   3.416   2.932   1.484 -0.5964 -0.8536  0.4689
  683MOL0     C92127   3.453   3.010   1.376  0.1174 -0.2718 -0.2136
  683MOL0     C92128   3.372   3.032   1.264  0.3347 -0.6753  0.4641
  683MOL0     O92129   3.406   3.120   1.159  0.3902 -0.3874 -0.2095
  683MOL0     C92130   3.530   3.186   1.155  0.3479 -0.7044 -0.7903
  683MOL0     C92131   3.528   3.318   1.237  0.2692 -0.1644  0.1844
  683MOL0     C92132   3.638   3.405   1.172 -0.8886 -0.5778 -0.6147
  683MOL0     C92133   3.664   3.529   1.262 -0.2420  0.2696  0.0587
  683MOL0     C92134   3.536   3.604   1.266  0.1360 -0.3013 -0.1713
  683MOL0     C92135   3.429   3.664   1.267 -0.1161 -0.1003  0.7207
  683MOL0     C92136   3.250   2.961   1.261 -0.1231  0.5170 -0.0786
  683MOL0     C92137   3.215   2.869   1.363 -0.9996 -0.7963 -1.1545
  683MOL0     H92138   2.893   2.752   1.694 -1.4703  0.6291  2.5079
  683MOL0     H92139   2.793   2.613   1.877  0.5166 -0.3367  2.1051
  683MOL0     H92140   2.906   2.231   1.891  1.5599 -0.0756 -0.3496
  683MOL0     H92141   3.006   2.252   2.042  0.0132  0.8132 -0.9801
  683MOL0     H92142   2.838   2.122   2.108  1.6868  0.4762 -2.4450
  683MOL0     H92143   2.827   2.283   2.183 -0.0663 -2.4463  0.5481
  683MOL0     H92144   2.611   2.332   2.070 -1.1660  0.1700  1.1596
  683MOL0     H92145   2.638   2.192   1.962 -1.2674 -1.4230  1.2352
  683MOL0     H92146   2.614   2.038   2.145  1.9489 -0.8064  1.6998
  683MOL0     H92147   2.627   2.171   2.268  1.3367 -0.6256  0.2068
  683MOL0     H92148   2.421   2.266   2.135  3.2965  0.6407  0.2296
  683MOL0     H92149   2.409   2.096   2.080  1.0381 -0.3077  0.4345
  683MOL0     H92150   2.374   2.006   2.306  0.6667 -0.2251  1.1521
  683MOL0     H92151   2.430   2.152   2.377  2.1426 -1.1264 -0.2087
  683MOL0     H92152   2.176   2.181   2.373  1.4686 -0.2419  0.8142
  683MOL0     H92153   2.214   2.255   2.225  0.5713 -0.6156 -1.0744
  683MOL0     H92154   2.127   1.957   2.241 -1.8434 -0.9717 -0.8885
  683MOL0     H92155   2.167   2.034   2.097 -0.2686 -1.4188  0.7720
  683MOL0     H92156   2.021   2.333   2.134  1.9852 -1.2509  1.7611
  683MOL0     H92157   1.755   2.453   2.154 -0.4487 -0.1135  0.6892
  683MOL0     H92158   1.733   2.385   1.999 -3.1525 -0.5741  0.2021
  683MOL0     H92159   1.557   2.225   2.092  0.8703 -0.3019 -0.0556
  683MOL0     H92160   1.533   2.404   2.064  1.0261  1.5283  0.6732
  683MOL0     H92161   1.551   2.434   2.303 -0.5668  1.0042 -3.8791
  683MOL0     H92162   1.576   2.267   2.336 -1.2431 -0.5684  1.2594
  683MOL0     H92163   1.352   2.206   2.297  0.5917 -0.4437 -0.8290
  683MOL0     H92164   1.310   2.355   2.201  0.7698  0.2814 -0.4258
  683MOL0     H92165   1.280   2.149   2.549 -0.3485  1.3054  4.4082
  683MOL0     H92166   1.166   1.999   2.696  0.1263  0.0329 -1.6604
  683MOL0     H92167   1.035   2.070   2.790  1.9897  1.5660 -0.4181
  683MOL0     H92168   0.993   2.003   2.636 -0.6231  0.5066 -0.3075
  683MOL0     H92169   0.717   1.957   2.803 -1.0277 -1.5875 -2.0648
  683MOL0     H92170   0.498   1.914   2.893 -1.5964 -0.0247 -1.8251
  683MOL0     H92171   0.169   2.214   3.041  0.2679 -0.1056  0.9682
  683MOL0     H92172   0.224   2.244   2.875 -1.0977 -1.1667 -1.6291
  683MOL0     H92173   0.123   2.030   2.801 -1.3152 -3.5180  0.9875
  683MOL0     H92174   0.046   2.013   2.961 -1.1333  0.6929  0.9860
  683MOL0     H92175   0.003   2.254   2.774 -2.0630 -0.7211 -1.7687
  683MOL0     H92176  -0.050   2.252   2.932  2.4921  1.2561  0.5686
  683MOL0     H92177  -0.132   2.022   2.736  0.4418  0.0596  0.7062
  683MOL0     H92178  -0.196   2.061   2.896  2.3480 -3.0887 -0.2138
  683MOL0     H92179  -0.252   2.205   2.649  3.8462  0.6340  0.2784
  683MOL0     H92180  -0.271   2.291   2.807 -0.4867 -1.3359  0.7846
  683MOL0     H92181  -0.434   2.029   2.741 -0.2353 -0.1819  1.3379
  683MOL0     H92182  -0.441   2.125   2.882  1.0499 -1.1921  0.4599
  683MOL0     H92183  -0.507   2.241   2.610 -0.0489 -0.7483 -0.0383
  683MOL0     H92184  -0.501   2.323   2.764  0.5859 -0.2100  0.2803
  683MOL0     H92185  -0.658   2.180   2.864  3.8010  0.0045  0.3866
  683MOL0     H92186  -0.680   2.074   2.730 -3.9716 -0.1538  2.4191
  683MOL0     H92187   0.409   2.328   2.934  0.0395 -0.2656  1.7371
  683MOL0     H92188   0.634   2.389   2.826 -0.1819  0.1743 -0.0749
  683MOL0     H92189   0.909   2.464   2.507  0.5375  0.7834 -1.8281
  683MOL0     H92190   1.113   2.520   2.407 -1.8263  0.7507  0.6916
  683MOL0     H92191   3.151   2.367   1.878  1.6380  0.8597 -0.3220
  683MOL0     H92192   3.250   2.488   1.688 -0.9293  1.0795 -3.0789
  683MOL0     H92193   3.488   2.935   1.565  0.6994  0.8137 -0.6722
  683MOL0     H92194   3.552   3.053   1.385  0.0857 -0.6124  2.6628
  683MOL0     H92195   3.608   3.122   1.196  0.1960 -0.7730 -0.6092
  683MOL0     H92196   3.550   3.212   1.050 -3.2849  2.4244 -0.9306
  683MOL0     H92197   3.540   3.288   1.342 -0.5682 -0.9749  0.0639
  683MOL0     H92198   3.432   3.367   1.219  1.5401  2.0925 -0.8289
  683MOL0     H92199   3.614   3.438   1.071 -1.0021 -0.2109 -0.4685
  683MOL0     H92200   3.738   3.361   1.170 -1.1891 -1.6107  2.3604
  683MOL0     H92201   3.742   3.591   1.219 -1.5449  1.8145 -0.1685
  683MOL0     H92202   3.690   3.500   1.365  1.9703 -3.3662 -1.3248
  683MOL0     H92203   3.330   3.704   1.269  0.2762  0.9217  0.3907
  683MOL0     H92204   3.183   2.969   1.176  0.1292 -4.3876 -0.9800
  683MOL0     H92205   3.127   2.807   1.350  0.5539 -3.1682 -1.0686
  684MOL0     O92206   0.571   2.595   8.624 -0.9293  0.1526  0.3962
  684MOL0     C92207   0.637   2.657   8.712 -0.5006 -0.4282 -0.4501
  684MOL0     O92208   0.586   2.733   8.809  0.1066  0.3818  0.1618
  684MOL0     C92209   0.449   2.755   8.812  0.3655 -0.2032  0.8765
  684MOL0     C92210   0.375   2.725   8.920  0.0676  0.9772 -0.4773
  684MOL0     C92211   0.238   2.743   8.929  0.0020  0.2969  0.2120
  684MOL0     C92212   0.177   2.793   8.816  0.1254 -0.4013 -0.9950
  684MOL0     O92213   0.048   2.783   8.824  0.1067 -0.3811  0.9066
  684MOL0     C92214  -0.026   2.795   8.698  0.2387 -0.2810 -0.4759
  684MOL0     C92215  -0.180   2.785   8.718  0.3401 -0.0763 -0.0597
  684MOL0     C92216  -0.267   2.781   8.589 -0.4580  0.7151  0.4774
  684MOL0     C92217  -0.247   2.644   8.526  0.1081 -0.4938 -0.0343
  684MOL0     C92218  -0.367   2.590   8.450 -0.3422  0.2295  0.0854
  684MOL0     C92219  -0.317   2.468   8.373 -0.0863 -1.1014  0.7274
  684MOL0     C92220  -0.419   2.418   8.266 -0.3566  0.5798 -0.0068
  684MOL0     C92221  -0.387   2.272   8.221 -0.3684 -0.9795  1.2897
  684MOL0     N92222  -0.242   2.266   8.173  0.4180 -0.1873  0.7996
  684MOL0     C92223  -0.135   2.242   8.253 -0.5244  0.7845  0.3883
  684MOL0     C92224  -0.028   2.270   8.173  0.2704  0.0504 -0.1610
  684MOL0     C92225   0.114   2.247   8.203 -0.4681  0.5654 -0.1356
  684MOL0     C92226   0.175   2.369   8.280  0.8156  0.4159  0.3654
  684MOL0     C92227   0.294   2.346   8.375  0.4001 -0.0393  0.2073
  684MOL0     C92228   0.358   2.471   8.424  0.2202  0.2487 -0.5589
  684MOL0     O92229   0.402   2.551   8.317 -0.7846 -0.2480 -0.3308
  684MOL0     C92230   0.533   2.531   8.270  0.5991 -0.1953 -0.4954
  684MOL0     C92231   0.586   2.633   8.184  0.1237  0.8274 -0.7565
  684MOL0     C92232   0.719   2.631   8.150 -0.1335  0.4881 -0.6977
  684MOL0     C92233   0.771   2.764   8.087 -0.3351  0.4833 -0.2691
  684MOL0     C92234   0.797   2.511   8.176  0.3166 -0.2506 -0.1145
  684MOL0     C92235   0.935   2.504   8.123 -0.2024 -0.2678 -0.2314
  684MOL0     O92236   1.023   2.430   8.191  0.5663 -0.1853  0.0787
  684MOL0     C92237   1.157   2.448   8.161 -0.4166  0.1839  0.2518
  684MOL0     C92238   1.220   2.559   8.115 -0.5417  0.2485  0.9889
  684MOL0     C92239   1.357   2.557   8.068  0.3975  0.6378  0.0903
  684MOL0     C92240   1.434   2.440   8.080  0.1282 -0.2063  0.9083
  684MOL0     O92241   1.567   2.433   8.049 -0.7870 -0.4839  0.5782
  684MOL0     C92242   1.643   2.555   8.065 -0.1349  0.5795 -0.4419
  684MOL0     C92243   1.791   2.511   8.062 -0.7050  0.2890  0.2249
  684MOL0     C92244   1.829   2.438   7.936 -0.7320  0.0061  0.1422
  684MOL0     C92245   1.982   2.388   7.931 -0.1995  0.0006 -0.3951
  684MOL0     C92246   2.021   2.327   7.788  0.3252  0.1229  0.0680
  684MOL0     C92247   2.159   2.260   7.812  0.1269 -0.1996 -0.9372
  684MOL0     C92248   2.222   2.223   7.680  0.0074  0.1438 -0.7804
  684MOL0     C92249   2.365   2.173   7.696  0.3206 -0.2170  0.3878
  684MOL0    Cl92250   2.413   2.086   7.559 -0.7567  0.8152  0.0046
  684MOL0     C92251   1.368   2.326   8.127 -1.1357 -0.0350  0.0600
  684MOL0     C92252   1.235   2.330   8.163  0.5309 -0.9117  0.1886
  684MOL0     O92253   0.954   2.539   8.005  0.0509 -0.8324 -0.1825
  684MOL0     C92254   0.752   2.418   8.266  0.6228  0.5968  0.1405
  684MOL0     C92255   0.616   2.423   8.309 -0.0292 -0.0274 -0.4809
  684MOL0     N92256  -0.081   2.320   8.054 -0.4972  0.0962 -0.0789
  684MOL0     N92257  -0.205   2.306   8.049  0.2752 -0.4031 -0.3926
  684MOL0     C92258   0.249   2.841   8.700 -0.5919 -0.1596  0.7166
  684MOL0     C92259   0.385   2.827   8.711  0.0033 -0.2006  0.6354
  684MOL0     C92260   0.779   2.657   8.706 -0.4969  0.0334 -1.5586
  684MOL0     C92261   0.855   2.750   8.782 -0.1546 -0.3063  0.0192
  684MOL0     C92262   0.995   2.760   8.769  0.7456  0.4141 -0.4125
  684MOL0     C92263   1.066   2.662   8.691  0.2072 -0.1027  0.2034
  684MOL0     O92264   1.200   2.650   8.672 -0.1553 -0.5706  0.3885
  684MOL0     C92265   1.293   2.748   8.744  0.8771  0.0867 -0.6706
  684MOL0     C92266   1.447   2.741   8.708 -0.4206  0.6165 -0.5468
  684MOL0     C92267   1.472   2.825   8.588  0.1267  0.5111  0.3018
  684MOL0     C92268   1.483   2.738   8.469  0.7296  0.0984  0.0894
  684MOL0     C92269   1.616   2.672   8.456 -0.3650  0.2634  0.7985
  684MOL0     C92270   1.728   2.616   8.455 -0.4898 -0.8295 -0.4356
  684MOL0     C92271   0.988   2.562   8.632 -0.5404  0.1868  0.0578
  684MOL0     C92272   0.848   2.552   8.635  0.4183 -0.5971  0.2636
  684MOL0     H92273   0.414   2.669   9.006  0.7890  3.5122  0.9415
  684MOL0     H92274   0.193   2.723   9.025  2.1303 -0.3491  1.1458
  684MOL0     H92275  -0.003   2.894   8.656  1.4050  1.1430  3.1383
  684MOL0     H92276  -0.006   2.720   8.621 -0.2162  1.2870 -2.1901
  684MOL0     H92277  -0.208   2.699   8.780 -0.7243 -0.3509 -0.9011
  684MOL0     H92278  -0.209   2.871   8.779 -2.9869 -0.3388 -1.0677
  684MOL0     H92279  -0.374   2.799   8.607 -0.0580  2.0202  1.7459
  684MOL0     H92280  -0.231   2.860   8.522  1.3740 -0.8703 -0.4911
  684MOL0     H92281  -0.168   2.647   8.450 -1.9794 -1.7718 -2.4228
  684MOL0     H92282  -0.212   2.566   8.594  0.1481 -0.4160  0.0342
  684MOL0     H92283  -0.443   2.565   8.525  2.1442 -0.0643  2.7127
  684MOL0     H92284  -0.405   2.668   8.384  0.3585  2.3538  2.0349
  684MOL0     H92285  -0.233   2.509   8.317  0.0005  0.6155  2.0493
  684MOL0     H92286  -0.278   2.397   8.446 -0.9935 -0.8558  1.4807
  684MOL0     H92287  -0.521   2.412   8.306 -0.2832  0.5809  0.1841
  684MOL0     H92288  -0.415   2.478   8.175  5.0686  1.0854  0.2110
  684MOL0     H92289  -0.450   2.241   8.138  3.4236 -1.3777 -1.7295
  684MOL0     H92290  -0.401   2.196   8.298 -1.6917 -2.3489 -0.2418
  684MOL0     H92291  -0.120   2.214   8.357 -0.3983  2.8961  0.9696
  684MOL0     H92292   0.109   2.160   8.269  0.2564  2.4086  2.5053
  684MOL0     H92293   0.169   2.218   8.114 -3.0002 -1.2335 -1.2291
  684MOL0     H92294   0.092   2.426   8.323 -0.6939 -1.9696  0.8039
  684MOL0     H92295   0.207   2.435   8.199  0.1658  0.7020  0.3401
  684MOL0     H92296   0.367   2.276   8.332  0.4181  0.2640 -0.2683
  684MOL0     H92297   0.251   2.289   8.458 -0.6703 -1.3723 -1.2059
  684MOL0     H92298   0.427   2.444   8.504 -2.3783 -0.7621  1.5115
  684MOL0     H92299   0.278   2.521   8.480 -0.8881 -1.6536 -0.3329
  684MOL0     H92300   0.518   2.713   8.159  0.1165  0.8155 -0.7757
  684MOL0     H92301   0.727   2.855   8.129  1.1885  1.2657 -0.2830
  684MOL0     H92302   0.880   2.774   8.095 -0.3702 -0.1818  1.6770
  684MOL0     H92303   0.741   2.771   7.982 -3.5401 -1.5348  0.3923
  684MOL0     H92304   1.158   2.647   8.107  1.6548  1.7221 -1.4210
  684MOL0     H92305   1.394   2.658   8.049  0.0144  0.9944  1.1660
  684MOL0     H92306   1.619   2.618   7.979 -1.8302  0.5860  0.0051
  684MOL0     H92307   1.618   2.598   8.163 -1.7388 -1.8555  0.2976
  684MOL0     H92308   1.866   2.590   8.065  0.3576 -0.6578 -0.3531
  684MOL0     H92309   1.805   2.456   8.155 -4.0639  3.3689  2.8234
  684MOL0     H92310   1.807   2.495   7.845  1.4893  1.1589  0.2597
  684MOL0     H92311   1.759   2.354   7.931 -1.8284  0.5934  3.2933
  684MOL0     H92312   2.055   2.468   7.949  0.1685 -0.0726 -1.5118
  684MOL0     H92313   2.008   2.304   7.996  1.3013 -2.3143 -3.6976
  684MOL0     H92314   2.026   2.404   7.710  0.9326  2.0684  1.9457
  684MOL0     H92315   1.954   2.246   7.758  1.7275 -1.8184  1.9412
  684MOL0     H92316   2.222   2.325   7.873 -2.1829 -0.4988  2.0436
  684MOL0     H92317   2.150   2.174   7.878 -1.6121  1.4046  1.0643
  684MOL0     H92318   2.218   2.313   7.618 -0.0841  0.9774  0.4137
  684MOL0     H92319   2.169   2.132   7.650 -1.5162  0.3583  1.0799
  684MOL0     H92320   2.377   2.119   7.790 -0.6663  2.0181  1.8953
  684MOL0     H92321   2.429   2.262   7.699  1.7148 -1.1991  1.8919
  684MOL0     H92322   1.439   2.244   8.136 -0.9394  0.0980 -0.2518
  684MOL0     H92323   1.182   2.240   8.191 -1.5908  0.8199  2.0671
  684MOL0     H92324   0.813   2.334   8.297 -0.1099 -0.9936 -2.4820
  684MOL0     H92325   0.578   2.335   8.360  0.2040  0.0628 -0.1502
  684MOL0     H92326   0.196   2.888   8.617 -0.1996  0.0976  0.6064
  684MOL0     H92327   0.448   2.872   8.635  2.3003 -2.1811  1.2363
  684MOL0     H92328   0.811   2.832   8.838  3.2393  1.3882  0.4614
  684MOL0     H92329   1.045   2.838   8.826 -1.6865 -0.2408  2.9563
  684MOL0     H92330   1.255   2.849   8.727 -2.8119 -1.4633 -2.8340
  684MOL0     H92331   1.263   2.723   8.847 -1.4593 -4.1560 -2.1029
  684MOL0     H92332   1.486   2.639   8.718  3.2356  1.9924  1.5044
  684MOL0     H92333   1.496   2.796   8.789  0.8954  0.7116 -1.3659
  684MOL0     H92334   1.569   2.874   8.601  0.6148  0.5813 -2.7222
  684MOL0     H92335   1.394   2.900   8.571  0.0187  0.4344  0.4583
  684MOL0     H92336   1.482   2.807   8.384 -4.1487 -0.3922 -0.5577
  684MOL0     H92337   1.404   2.662   8.463  1.3639 -0.6689  1.0681
  684MOL0     H92338   1.829   2.582   8.457  0.3604  1.5040 -0.3893
  684MOL0     H92339   1.048   2.498   8.568  1.0636  1.2657  0.3952
  684MOL0     H92340   0.797   2.482   8.571 -0.2826  0.5911 -0.5183
  685MOL0     O92341   8.514   0.860   4.149 -0.0178 -0.4822 -0.0038
  685MOL0     C92342   8.551   0.973   4.119 -0.3502 -0.0406  0.9990
  685MOL0     O92343   8.463   1.077   4.099 -0.1400 -0.2095  0.1411
  685MOL0     C92344   8.334   1.057   4.100  0.5837  0.1486  0.5259
  685MOL0     C92345   8.279   1.024   4.220  0.3676  0.0236 -0.1966
  685MOL0     C92346   8.143   1.004   4.231  0.4352 -0.2991 -0.1666
  685MOL0     C92347   8.059   1.025   4.116 -0.1625 -0.5317  0.4676
  685MOL0     O92348   7.930   1.015   4.148  0.3717  0.0165 -0.2109
  685MOL0     C92349   7.842   1.103   4.075 -0.1234 -0.4849 -1.4226
  685MOL0     C92350   7.702   1.091   4.138  0.2142 -0.0180  0.0371
  685MOL0     C92351   7.605   1.165   4.047  0.1845  0.0159 -0.0540
  685MOL0     C92352   7.460   1.139   4.105 -0.2812  0.5321  0.7529
  685MOL0     C92353   7.356   1.199   4.013  0.1758 -0.3301 -0.9677
  685MOL0     C92354   7.348   1.114   3.884  0.6392  0.9349 -0.8605
  685MOL0     C92355   7.214   1.142   3.806 -0.2041  1.1725  0.8361
  685MOL0     C92356   7.224   1.077   3.674  0.1035 -0.1446  0.8135
  685MOL0     N92357   7.089   1.092   3.609  0.7456  0.1150  0.4018
  685MOL0     C92358   6.998   0.985   3.591 -0.3828  0.4370  0.0797
  685MOL0     C92359   6.919   1.034   3.500 -0.4241  0.6011 -0.2409
  685MOL0     C92360   6.794   0.958   3.457 -0.5560  0.1278 -0.0095
  685MOL0     C92361   6.690   0.978   3.561 -0.0561  0.0301  0.0070
  685MOL0     C92362   6.567   0.905   3.516 -0.4559  0.0082  0.0255
  685MOL0     C92363   6.454   0.930   3.607  0.4762 -0.2465 -0.1936
  685MOL0     O92364   6.371   0.812   3.622 -0.0056 -0.0313  0.3849
  685MOL0     C92365   6.239   0.821   3.666 -1.0675  0.1073  1.1649
  685MOL0     C92366   6.183   0.918   3.740  0.0976  0.3553 -0.5745
  685MOL0     C92367   6.047   0.918   3.773  1.9499 -0.4101  0.7315
  685MOL0     C92368   6.004   1.029   3.865 -1.0087 -0.1331  0.0304
  685MOL0     C92369   5.966   0.813   3.732  1.0211 -0.1719  0.6476
  685MOL0     C92370   5.823   0.799   3.776 -0.6632 -0.1863  0.1437
  685MOL0     O92371   5.754   0.912   3.785  0.4841  0.2159  0.1728
  685MOL0     C92372   5.629   0.909   3.843 -0.2997  0.4031  0.9722
  685MOL0     C92373   5.529   0.819   3.795  0.4090 -0.6306  1.0297
  685MOL0     C92374   5.410   0.811   3.858 -0.1862  1.1776  0.2724
  685MOL0     C92375   5.384   0.884   3.974 -0.2171 -0.4652  0.1241
  685MOL0     O92376   5.266   0.860   4.039 -0.0473  0.4164 -0.4529
  685MOL0     C92377   5.226   0.950   4.138 -0.0601 -0.0601 -0.6319
  685MOL0     C92378   5.090   0.906   4.198 -1.0962  0.1906  0.0369
  685MOL0     C92379   4.979   0.915   4.084  0.1095 -0.4839 -0.6056
  685MOL0     C92380   4.847   0.850   4.127  0.9420  0.0767  0.0516
  685MOL0     C92381   4.725   0.914   4.059  0.7864 -0.7507 -0.2137
  685MOL0     C92382   4.594   0.837   4.110 -0.3025 -0.2267  1.4841
  685MOL0     C92383   4.485   0.884   4.017 -0.9796  0.6688  0.3384
  685MOL0     C92384   4.349   0.836   4.066  1.1011  0.2623 -0.9070
  685MOL0    Cl92385   4.343   0.661   4.025 -0.2441 -0.0396  0.1656
  685MOL0     C92386   5.483   0.962   4.017 -0.0368 -1.3682 -0.4728
  685MOL0     C92387   5.610   0.980   3.953 -0.0760  0.1282 -0.1224
  685MOL0     O92388   5.791   0.686   3.816 -0.5632 -0.1351  0.7552
  685MOL0     C92389   6.023   0.716   3.653 -0.1747 -0.2768  0.3944
  685MOL0     C92390   6.159   0.722   3.621 -0.7093 -0.2518  0.5530
  685MOL0     N92391   6.962   1.151   3.448  0.0829 -0.1240  0.3586
  685MOL0     N92392   7.060   1.191   3.521 -0.1175  0.3116 -0.0167
  685MOL0     C92393   8.121   1.058   3.992 -0.6318  0.0891  0.1883
  685MOL0     C92394   8.252   1.088   3.991 -0.1027 -0.6246 -0.4803
  685MOL0     C92395   8.702   0.985   4.093 -0.0714 -0.4812  0.4440
  685MOL0     C92396   8.754   1.110   4.051 -0.1703 -0.4627 -0.6228
  685MOL0     C92397   8.879   1.134   4.006 -0.3172  0.2324  0.3617
  685MOL0     C92398   8.966   1.029   4.009 -0.8893 -0.4126  0.3515
  685MOL0     O92399   9.091   1.043   3.961 -1.3825 -0.4349  0.1113
  685MOL0     C92400   9.113   1.107   3.837  0.2988  0.7289  0.8324
  685MOL0     C92401   9.262   1.156   3.814 -0.8120  0.8884 -0.0291
  685MOL0     C92402   9.315   1.273   3.902  0.6634  0.0757  0.7018
  685MOL0     C92403   9.456   1.326   3.863  0.5222 -0.7395  0.2877
  685MOL0     C92404   9.554   1.222   3.858  0.1301  0.4098 -0.2596
  685MOL0     C92405   9.646   1.141   3.863  0.1802  0.7803  0.1658
  685MOL0     C92406   8.930   0.901   4.058 -0.1803 -0.0054 -0.3687
  685MOL0     C92407   8.794   0.878   4.090 -0.1208 -0.5646  0.3925
  685MOL0     H92408   8.338   1.005   4.309 -1.4536 -2.1103  0.6314
  685MOL0     H92409   8.111   0.969   4.329 -0.4628  0.6608 -0.1057
  685MOL0     H92410   7.887   1.202   4.089 -1.0322 -0.4672  2.8328
  685MOL0     H92411   7.840   1.073   3.970  1.8690 -1.7646 -1.1508
  685MOL0     H92412   7.684   0.985   4.154  2.6281 -0.2753  1.5536
  685MOL0     H92413   7.694   1.134   4.239 -0.3014  1.3523 -0.5666
  685MOL0     H92414   7.633   1.270   4.045  0.9604 -0.1805  0.1614
  685MOL0     H92415   7.617   1.125   3.946 -0.5478  0.4177 -0.3088
  685MOL0     H92416   7.450   1.034   4.135 -1.6118  0.6418  0.7551
  685MOL0     H92417   7.456   1.208   4.189  0.2509  1.9597 -0.3318
  685MOL0     H92418   7.259   1.194   4.062  1.5965 -0.8761  2.0215
  685MOL0     H92419   7.371   1.301   3.975 -1.0292 -0.0403 -0.6877
  685MOL0     H92420   7.431   1.140   3.818  1.1883 -1.2471 -1.1171
  685MOL0     H92421   7.353   1.009   3.915  2.1405  1.6388  1.5427
  685MOL0     H92422   7.129   1.101   3.862 -0.0426 -1.3242 -0.5636
  685MOL0     H92423   7.195   1.249   3.794 -1.2885  0.9974  0.9132
  685MOL0     H92424   7.245   0.971   3.691 -0.0875 -0.3011  0.0870
  685MOL0     H92425   7.301   1.120   3.610  0.0552  1.2372  1.6511
  685MOL0     H92426   6.994   0.897   3.655 -0.4137  0.1081 -0.3614
  685MOL0     H92427   6.756   0.993   3.361 -0.2106 -4.0715 -1.8856
  685MOL0     H92428   6.814   0.851   3.444 -0.1310  0.1488  0.4190
  685MOL0     H92429   6.676   1.084   3.585  2.4103 -0.1957  2.9798
  685MOL0     H92430   6.721   0.926   3.652 -1.5643 -1.3927 -0.2541
  685MOL0     H92431   6.583   0.797   3.505  2.4942 -0.0498  3.3531
  685MOL0     H92432   6.548   0.940   3.414  1.7549  0.3069 -0.3256
  685MOL0     H92433   6.399   1.010   3.557  2.8175  1.9956  0.5503
  685MOL0     H92434   6.487   0.967   3.705  1.3588  0.3390 -0.6886
  685MOL0     H92435   6.246   0.995   3.783 -1.7701  0.2350  2.6714
  685MOL0     H92436   5.981   1.122   3.811 -3.4744  0.3388  1.7077
  685MOL0     H92437   5.912   1.014   3.922  0.2509 -2.4494  1.6190
  685MOL0     H92438   6.087   1.045   3.934 -1.8340 -2.9253  1.8034
  685MOL0     H92439   5.548   0.754   3.710 -1.3829 -0.7227  0.6655
  685MOL0     H92440   5.333   0.739   3.831 -0.1871  1.7289 -1.2865
  685MOL0     H92441   5.304   0.934   4.213  0.0801 -0.3753 -0.8413
  685MOL0     H92442   5.226   1.056   4.114  0.6274 -0.0703 -0.6964
  685MOL0     H92443   5.103   0.814   4.254 -0.0499 -0.2210 -0.8431
  685MOL0     H92444   5.062   0.989   4.264  1.7309  0.8622  0.4951
  685MOL0     H92445   5.016   0.875   3.989  2.3947 -1.3197  0.5688
  685MOL0     H92446   4.965   1.022   4.061 -1.3965 -0.9850 -2.3456
  685MOL0     H92447   4.856   0.745   4.096 -3.0374 -1.7202  3.9962
  685MOL0     H92448   4.827   0.852   4.234 -2.4998  3.5220 -0.4185
  685MOL0     H92449   4.726   0.896   3.951 -1.2795  2.2584 -0.8717
  685MOL0     H92450   4.714   1.022   4.068 -0.3509 -0.7375 -1.4553
  685MOL0     H92451   4.613   0.730   4.104 -0.1043 -0.1280 -1.0586
  685MOL0     H92452   4.573   0.868   4.212 -3.1094 -2.0813  1.5695
  685MOL0     H92453   4.515   0.849   3.918 -2.0719  0.3439  0.1132
  685MOL0     H92454   4.486   0.993   4.024 -1.0601  0.6431  0.7402
  685MOL0     H92455   4.272   0.895   4.015  1.2807  1.4418  0.1243
  685MOL0     H92456   4.326   0.850   4.172 -0.9329  0.7755 -1.3802
  685MOL0     H92457   5.461   1.022   4.105  0.9709 -1.0535 -0.4241
  685MOL0     H92458   5.686   1.053   3.978  0.2738 -0.7417  1.4797
  685MOL0     H92459   5.951   0.640   3.622 -2.7660  2.5388 -1.0606
  685MOL0     H92460   6.195   0.645   3.554 -0.8186  1.7416 -1.9755
  685MOL0     H92461   8.058   1.063   3.904  0.6268 -1.9057 -0.9159
  685MOL0     H92462   8.292   1.116   3.894 -0.9679 -0.3975 -0.7761
  685MOL0     H92463   8.681   1.190   4.053  1.6554  1.2588 -0.0428
  685MOL0     H92464   8.925   1.229   3.980  0.6806 -0.9519 -2.6446
  685MOL0     H92465   9.080   1.050   3.749  1.7337  0.1197  0.6644
  685MOL0     H92466   9.042   1.190   3.829 -0.4778  0.0026 -0.1029
  685MOL0     H92467   9.258   1.179   3.707 -0.9618 -0.8355 -0.4277
  685MOL0     H92468   9.324   1.066   3.823 -0.4079  1.0090 -1.3773
  685MOL0     H92469   9.304   1.252   4.009 -0.3704 -1.1194  0.3836
  685MOL0     H92470   9.248   1.356   3.877 -2.2007 -3.0183 -3.0987
  685MOL0     H92471   9.489   1.405   3.931  0.2758  0.2067 -0.6632
  685MOL0     H92472   9.445   1.369   3.763 -0.1422 -0.1086  0.6194
  685MOL0     H92473   9.731   1.077   3.866 -1.3211 -1.5701 -2.4756
  685MOL0     H92474   8.992   0.813   4.044 -1.5485 -1.0129 -0.3119
  685MOL0     H92475   8.758   0.781   4.124 -0.3143 -0.0322  1.7713
  686MOL0     O92476   6.123   7.583   5.454  0.1826 -0.1728 -0.3589
  686MOL0     C92477   6.179   7.656   5.534 -0.1046  0.6873  0.1758
  686MOL0     O92478   6.129   7.706   5.648  0.2924 -0.3118  0.3449
  686MOL0     C92479   6.002   7.685   5.683  0.2091 -0.7378 -0.7494
  686MOL0     C92480   5.937   7.561   5.676  0.4363  0.4078 -0.0333
  686MOL0     C92481   5.812   7.547   5.736 -0.7991 -0.1464 -0.1139
  686MOL0     C92482   5.768   7.648   5.819  0.1006  0.9504 -0.0159
  686MOL0     O92483   5.646   7.619   5.877 -0.4993 -0.4509 -0.3277
  686MOL0     C92484   5.604   7.702   5.988  1.0968 -0.1980 -0.1002
  686MOL0     C92485   5.471   7.640   6.044  0.0292 -0.2903  0.9422
  686MOL0     C92486   5.405   7.736   6.141 -0.0405  0.7389  0.3138
  686MOL0     C92487   5.497   7.826   6.236  0.3179 -0.6582 -0.5623
  686MOL0     C92488   5.413   7.924   6.322 -0.8306  0.3184 -0.3050
  686MOL0     C92489   5.515   8.030   6.376 -0.0027  0.8666 -0.2018
  686MOL0     C92490   5.447   8.165   6.360  0.0477  0.0132 -0.3647
  686MOL0     C92491   5.358   8.192   6.474  0.4322  0.3923 -0.0877
  686MOL0     N92492   5.312   8.339   6.471 -0.5127  0.3735 -0.6762
  686MOL0     C92493   5.219   8.401   6.387 -0.4196  0.6178  0.3156
  686MOL0     C92494   5.194   8.520   6.447  0.9387 -0.4875  1.1201
  686MOL0     C92495   5.114   8.635   6.397 -0.3321  0.1118  0.5373
  686MOL0     C92496   4.962   8.632   6.418  0.2148  0.6749  0.5372
  686MOL0     C92497   4.893   8.539   6.322 -0.0135  0.0396 -0.2733
  686MOL0     C92498   4.749   8.507   6.364  0.3247 -0.0559  0.1768
  686MOL0     O92499   4.679   8.429   6.260 -0.2227 -0.5953 -0.2442
  686MOL0     C92500   4.538   8.434   6.251 -0.6185  0.6390  0.1419
  686MOL0     C92501   4.476   8.333   6.181  0.0918 -0.1854  0.6174
  686MOL0     C92502   4.340   8.316   6.170  0.3873  0.6422  1.2902
  686MOL0     C92503   4.293   8.194   6.087 -0.4932  0.6266  0.0001
  686MOL0     C92504   4.258   8.409   6.226  0.5412  0.4184  0.6232
  686MOL0     C92505   4.108   8.417   6.210 -0.3148  0.0949  0.1867
  686MOL0     O92506   4.054   8.512   6.288  0.1698 -0.4247  0.4657
  686MOL0     C92507   3.930   8.564   6.264  0.0872  0.1909 -0.7157
  686MOL0     C92508   3.815   8.481   6.241  0.0303  0.4038 -0.1010
  686MOL0     C92509   3.689   8.539   6.202 -1.0674  0.2756  0.9116
  686MOL0     C92510   3.670   8.676   6.206  0.1489 -0.0927 -0.0141
  686MOL0     O92511   3.563   8.748   6.155  0.1290  0.1632  0.4434
  686MOL0     C92512   3.438   8.704   6.212  0.5996 -0.6609  0.1353
  686MOL0     C92513   3.326   8.786   6.134  0.1811  1.0485 -0.9035
  686MOL0     C92514   3.359   8.932   6.119  0.1806 -1.1289  0.4521
  686MOL0     C92515   3.236   9.028   6.106  0.1196  0.7418 -0.2935
  686MOL0     C92516   3.294   9.172   6.083  0.1740  0.0851 -0.2066
  686MOL0     C92517   3.175   9.278   6.063  0.2248 -0.9737  0.7439
  686MOL0     C92518   3.219   9.427   6.064  0.7774  0.0504 -0.2364
  686MOL0     C92519   3.301   9.471   6.184 -0.3563 -0.2396  0.4252
  686MOL0    Cl92520   3.342   9.647   6.172  0.0075 -0.1077  0.2034
  686MOL0     C92521   3.778   8.763   6.246 -0.2746 -0.1098  0.6893
  686MOL0     C92522   3.910   8.705   6.276  0.4957  0.1346 -0.2162
  686MOL0     O92523   4.058   8.370   6.109  0.1316 -0.0299 -0.3779
  686MOL0     C92524   4.317   8.516   6.297  0.8813  0.6613 -0.3729
  686MOL0     C92525   4.453   8.528   6.315 -0.4025 -0.6454 -0.3448
  686MOL0     N92526   5.264   8.532   6.560  0.1984  0.9172  0.4011
  686MOL0     N92527   5.342   8.430   6.563  0.6878 -0.2548  0.1272
  686MOL0     C92528   5.821   7.776   5.823  0.1719 -0.2418 -0.1087
  686MOL0     C92529   5.946   7.796   5.755  0.1432  0.4511 -0.3063
  686MOL0     C92530   6.332   7.679   5.497 -0.3409 -0.6790 -0.4167
  686MOL0     C92531   6.390   7.652   5.369  0.1417 -0.0657 -0.1788
  686MOL0     C92532   6.521   7.664   5.350 -0.4107 -0.3360  0.9761
  686MOL0     C92533   6.605   7.700   5.457 -0.2191 -0.1062 -0.7899
  686MOL0     O92534   6.740   7.715   5.446  0.0650 -0.1048 -0.1053
  686MOL0     C92535   6.795   7.668   5.324  0.2384 -0.4094 -1.0554
  686MOL0     C92536   6.951   7.679   5.332 -0.3188  0.3504 -0.5710
  686MOL0     C92537   6.993   7.826   5.358  0.6777  0.6480  0.3688
  686MOL0     C92538   7.143   7.839   5.358 -0.0846 -0.6211 -0.4843
  686MOL0     C92539   7.184   7.972   5.410  0.6810  0.2375  0.4214
  686MOL0     C92540   7.224   8.070   5.461  0.2399  0.7149  0.1554
  686MOL0     C92541   6.552   7.723   5.578  0.2145  0.5669 -0.2675
  686MOL0     C92542   6.412   7.717   5.603 -0.0677  1.1014 -0.0915
  686MOL0     H92543   5.981   7.486   5.612 -0.6958  1.5715 -2.3053
  686MOL0     H92544   5.768   7.448   5.735 -1.3405  0.0843  0.5865
  686MOL0     H92545   5.675   7.703   6.071 -0.5173 -1.8015  1.3871
  686MOL0     H92546   5.585   7.801   5.946  0.5473 -1.5145 -3.2414
  686MOL0     H92547   5.405   7.627   5.959 -0.9207  2.0829  1.2365
  686MOL0     H92548   5.490   7.548   6.101 -0.9391 -0.6908  0.6289
  686MOL0     H92549   5.337   7.811   6.099  0.9401  1.8843  0.7216
  686MOL0     H92550   5.348   7.675   6.212 -1.3407  0.4016 -0.9708
  686MOL0     H92551   5.553   7.754   6.296  0.3967 -0.9292 -0.9567
  686MOL0     H92552   5.561   7.884   6.168 -0.5647 -0.1267 -0.9526
  686MOL0     H92553   5.325   7.957   6.266 -2.5228  2.4554  3.2462
  686MOL0     H92554   5.368   7.878   6.411 -1.8431 -0.6638 -1.3031
  686MOL0     H92555   5.526   8.019   6.484 -4.2963  1.2527  0.4627
  686MOL0     H92556   5.612   8.024   6.326  1.0860  0.9614  1.7968
  686MOL0     H92557   5.521   8.245   6.354  1.4292 -1.1844  0.1386
  686MOL0     H92558   5.392   8.159   6.266  1.0579 -0.5492 -0.9320
  686MOL0     H92559   5.420   8.172   6.562  1.2467 -0.7233 -0.8885
  686MOL0     H92560   5.280   8.115   6.473  0.2349  0.5710  0.8474
  686MOL0     H92561   5.177   8.355   6.299  3.5337 -1.2194 -0.8283
  686MOL0     H92562   5.153   8.729   6.437  0.1285 -0.5586  1.6742
  686MOL0     H92563   5.141   8.649   6.292  1.5735 -0.4756  0.9116
  686MOL0     H92564   4.924   8.734   6.415 -2.8252 -0.3586  1.1025
  686MOL0     H92565   4.950   8.600   6.521  3.5520  1.7592  1.4018
  686MOL0     H92566   4.945   8.443   6.314  1.3875  0.7097  0.3190
  686MOL0     H92567   4.886   8.585   6.223  2.6795  0.0483 -0.5489
  686MOL0     H92568   4.696   8.602   6.375  0.4443  0.2647 -1.6024
  686MOL0     H92569   4.754   8.454   6.459 -0.0215  2.2440  1.5673
  686MOL0     H92570   4.546   8.271   6.125  0.1240 -1.6522  2.2018
  686MOL0     H92571   4.267   8.224   5.985 -0.6373 -1.0267 -0.4727
  686MOL0     H92572   4.365   8.113   6.094 -1.1730  0.1438  4.6777
  686MOL0     H92573   4.199   8.157   6.130  0.2102 -1.0215  0.1945
  686MOL0     H92574   3.826   8.373   6.251  1.9970  0.5664 -0.1756
  686MOL0     H92575   3.616   8.465   6.173 -0.2325 -0.6116  1.0352
  686MOL0     H92576   3.407   8.602   6.189 -2.1713  0.8034 -3.6531
  686MOL0     H92577   3.440   8.722   6.320  0.8200 -1.3805  0.2578
  686MOL0     H92578   3.316   8.742   6.034 -1.6678 -2.2549  0.5622
  686MOL0     H92579   3.231   8.765   6.185  0.8209 -0.9047 -0.4466
  686MOL0     H92580   3.412   8.941   6.024 -2.6582 -0.9533 -1.2256
  686MOL0     H92581   3.430   8.973   6.191  0.7344  1.9749 -1.6495
  686MOL0     H92582   3.185   9.001   6.014 -4.5470 -0.0210  2.2270
  686MOL0     H92583   3.167   9.022   6.191  1.2944  0.9059  0.7184
  686MOL0     H92584   3.346   9.162   5.987 -0.6575 -0.7950 -0.5891
  686MOL0     H92585   3.362   9.200   6.164 -0.4947 -4.1722  2.1612
  686MOL0     H92586   3.121   9.249   5.973 -0.2133  2.3131 -0.1491
  686MOL0     H92587   3.115   9.264   6.153  2.0730 -2.3596  1.8451
  686MOL0     H92588   3.126   9.486   6.066 -0.1678 -1.3956  0.4839
  686MOL0     H92589   3.280   9.423   5.974 -0.8971 -3.6025 -1.4020
  686MOL0     H92590   3.394   9.415   6.178 -1.1922 -1.5739 -1.1030
  686MOL0     H92591   3.241   9.453   6.273 -1.7238  0.6515 -0.2750
  686MOL0     H92592   3.760   8.870   6.245  3.2867  0.5981 -1.0664
  686MOL0     H92593   3.984   8.767   6.324  1.8402 -2.4824  1.3102
  686MOL0     H92594   4.260   8.600   6.336  0.8313  1.3691 -1.8848
  686MOL0     H92595   4.490   8.626   6.346 -2.8821 -0.2314  1.6433
  686MOL0     H92596   5.768   7.855   5.875 -0.3698 -2.0058  2.1728
  686MOL0     H92597   5.997   7.892   5.749 -0.8321  0.9575 -0.6998
  686MOL0     H92598   6.329   7.596   5.300  0.5571 -2.2815  1.1399
  686MOL0     H92599   6.558   7.643   5.250  0.7933  1.2018  1.0709
  686MOL0     H92600   6.761   7.568   5.297 -1.9638 -0.1175  0.3868
  686MOL0     H92601   6.750   7.734   5.249 -2.0796  3.2002  3.0516
  686MOL0     H92602   6.998   7.652   5.237  1.9593  1.3610  0.1937
  686MOL0     H92603   6.991   7.622   5.417  0.7039  0.4558 -0.9635
  686MOL0     H92604   6.947   7.852   5.454 -2.1299 -2.1561 -0.0482
  686MOL0     H92605   6.944   7.885   5.281  0.4994  1.3217  0.9835
  686MOL0     H92606   7.190   7.818   5.261  0.2156 -0.5746 -0.3508
  686MOL0     H92607   7.182   7.755   5.417  1.1339  0.6707  0.6258
  686MOL0     H92608   7.262   8.164   5.496  0.1974  0.5154  0.7471
  686MOL0     H92609   6.623   7.738   5.657  1.1045  3.6665 -1.5013
  686MOL0     H92610   6.367   7.718   5.702  1.6857  0.6627  0.7615
  687MOL0     O92611   6.915   5.363   3.237  0.8186  0.1521  0.1386
  687MOL0     C92612   6.839   5.349   3.334  0.1379 -0.2670  0.5233
  687MOL0     O92613   6.867   5.385   3.465  0.0946  0.0576  0.0651
  687MOL0     C92614   6.979   5.459   3.500  1.1805  0.1327 -0.4554
  687MOL0     C92615   7.025   5.444   3.631 -0.7469 -0.1028 -0.5901
  687MOL0     C92616   7.139   5.508   3.678 -0.3408  0.0395  0.2565
  687MOL0     C92617   7.204   5.599   3.587 -0.0023  0.0557 -0.2201
  687MOL0     O92618   7.325   5.665   3.611 -0.6220  0.1668  0.1457
  687MOL0     C92619   7.378   5.663   3.750 -0.3198 -0.6288  0.5420
  687MOL0     C92620   7.529   5.695   3.740 -0.3599 -0.0544  0.0699
  687MOL0     C92621   7.548   5.850   3.731  0.2560 -0.2256  0.1990
  687MOL0     C92622   7.685   5.898   3.687 -0.0293  0.2051 -0.5667
  687MOL0     C92623   7.708   6.056   3.675  0.8040 -0.3735  0.8158
  687MOL0     C92624   7.742   6.128   3.795 -0.0874  0.2489 -0.3574
  687MOL0     C92625   7.801   6.264   3.768 -0.0485 -0.6636  0.2046
  687MOL0     C92626   7.811   6.352   3.884  0.1150 -0.2721  0.1765
  687MOL0     N92627   7.876   6.287   3.998  0.1698  1.2152 -0.5024
  687MOL0     C92628   7.837   6.179   4.078 -0.4629 -0.1836  0.1227
  687MOL0     C92629   7.941   6.166   4.163 -0.3235  0.9798 -0.2680
  687MOL0     C92630   7.947   6.062   4.265  0.6841 -0.5057  0.2293
  687MOL0     C92631   7.942   5.924   4.210  0.0922 -0.3681 -0.6613
  687MOL0     C92632   8.028   5.903   4.080 -0.6153  0.6083  0.1031
  687MOL0     C92633   7.978   5.763   4.031  0.0418 -0.4915  0.3045
  687MOL0     O92634   8.050   5.739   3.908 -0.3587  0.1200 -0.1539
  687MOL0     C92635   7.985   5.676   3.810 -0.1947  0.9350 -0.1235
  687MOL0     C92636   8.028   5.695   3.676 -0.2189  0.6714 -0.2922
  687MOL0     C92637   7.974   5.633   3.568 -0.2075 -0.5565  0.2666
  687MOL0     C92638   8.032   5.663   3.426 -0.7514  0.3993 -0.2595
  687MOL0     C92639   7.872   5.543   3.585 -0.3985  0.6380  0.3097
  687MOL0     C92640   7.808   5.455   3.486  0.8317 -0.1678 -0.0199
  687MOL0     O92641   7.674   5.438   3.504 -0.0747  0.3084 -0.1719
  687MOL0     C92642   7.597   5.372   3.414  0.0556  0.2485  0.7670
  687MOL0     C92643   7.633   5.268   3.322 -0.1326 -0.3880 -0.1613
  687MOL0     C92644   7.549   5.220   3.225 -0.2138 -0.7988 -0.1870
  687MOL0     C92645   7.422   5.256   3.226  0.0839 -0.0036  0.6446
  687MOL0     O92646   7.335   5.202   3.131 -0.7306  0.4688 -0.6038
  687MOL0     C92647   7.211   5.148   3.173  0.2797  0.8387 -0.5354
  687MOL0     C92648   7.149   5.063   3.058 -0.9616  0.4356 -1.0452
  687MOL0     C92649   7.011   5.010   3.110 -0.0198  0.6667  0.6713
  687MOL0     C92650   6.966   4.905   3.007 -0.7390  0.5888 -0.7711
  687MOL0     C92651   6.853   4.816   3.067 -0.4193  0.7778  0.0159
  687MOL0     C92652   6.717   4.886   3.048  0.3859 -0.0458  0.7404
  687MOL0     C92653   6.635   4.833   2.921 -1.1379  0.0874  0.0427
  687MOL0     C92654   6.498   4.906   2.895 -0.8608 -0.0518  0.3260
  687MOL0    Cl92655   6.371   4.851   2.998 -0.1884  0.2301 -0.5061
  687MOL0     C92656   7.377   5.357   3.318 -0.6251 -0.1900 -0.2778
  687MOL0     C92657   7.466   5.414   3.406 -0.1798 -0.0784 -0.0031
  687MOL0     O92658   7.861   5.429   3.381  0.1345  0.3527  0.6303
  687MOL0     C92659   7.823   5.522   3.713 -0.7983  0.2172  0.1513
  687MOL0     C92660   7.873   5.588   3.824 -0.2893 -0.1197  0.1279
  687MOL0     N92661   8.035   6.260   4.137  0.0141  0.6996  0.0678
  687MOL0     N92662   7.996   6.321   4.031 -1.2672 -0.6130  0.7126
  687MOL0     C92663   7.149   5.626   3.460 -0.3003 -0.2321 -0.1144
  687MOL0     C92664   7.042   5.551   3.418  0.4491  0.3641 -0.2605
  687MOL0     C92665   6.707   5.281   3.320 -0.8093  0.5837  0.5015
  687MOL0     C92666   6.646   5.266   3.195 -0.5889 -0.6095 -0.2913
  687MOL0     C92667   6.519   5.205   3.174 -0.0516 -1.3074  0.1356
  687MOL0     C92668   6.468   5.137   3.288 -0.9184  0.5571  0.1509
  687MOL0     O92669   6.353   5.067   3.257 -0.7741 -0.3461  0.1075
  687MOL0     C92670   6.284   4.997   3.364 -0.3398  0.4685  0.8895
  687MOL0     C92671   6.150   4.959   3.311 -0.3078  0.3279 -0.4352
  687MOL0     C92672   6.064   5.080   3.297  0.8904 -0.0107  0.4500
  687MOL0     C92673   5.924   5.050   3.231 -0.1656 -0.2432 -0.3934
  687MOL0     C92674   5.823   5.124   3.308 -0.1571 -0.7220 -0.0446
  687MOL0     C92675   5.764   5.204   3.371  0.2116  0.4599  0.9391
  687MOL0     C92676   6.537   5.136   3.413 -0.1253  0.2121  0.2029
  687MOL0     C92677   6.651   5.206   3.430  0.9163  0.2311 -0.0476
  687MOL0     H92678   6.990   5.364   3.695  0.4903 -1.2918 -1.3352
  687MOL0     H92679   7.178   5.485   3.777 -0.8343 -1.3240  0.1468
  687MOL0     H92680   7.335   5.744   3.809 -2.7338 -2.6159  1.6524
  687MOL0     H92681   7.371   5.565   3.798 -0.5117 -0.9229 -0.0757
  687MOL0     H92682   7.590   5.651   3.820  2.6299 -1.7305 -2.8597
  687MOL0     H92683   7.572   5.642   3.654 -0.7877 -0.3852  0.0582
  687MOL0     H92684   7.472   5.882   3.659 -1.2459  0.1972  1.8979
  687MOL0     H92685   7.518   5.895   3.825 -1.7004 -1.4492  0.2276
  687MOL0     H92686   7.761   5.870   3.760 -1.8334  4.3945  3.3678
  687MOL0     H92687   7.694   5.853   3.588  0.9076  0.4109 -0.5783
  687MOL0     H92688   7.785   6.084   3.602 -1.2977  1.5755 -0.7999
  687MOL0     H92689   7.617   6.106   3.639  0.2768 -1.9482 -0.1267
  687MOL0     H92690   7.657   6.134   3.864  1.5117  1.9104  1.5744
  687MOL0     H92691   7.826   6.068   3.829  0.3502 -0.0582 -1.8939
  687MOL0     H92692   7.897   6.254   3.716  0.7407 -3.9911  1.9439
  687MOL0     H92693   7.730   6.313   3.701  2.3898  1.2396 -1.1435
  687MOL0     H92694   7.710   6.387   3.907  0.3382  0.0577  0.6695
  687MOL0     H92695   7.863   6.444   3.858 -1.8941  0.6090 -0.9784
  687MOL0     H92696   7.745   6.122   4.068 -1.5515  1.5368 -0.1194
  687MOL0     H92697   8.043   6.077   4.313  1.1340 -1.4308 -0.3497
  687MOL0     H92698   7.863   6.074   4.334 -0.6562  0.8879 -1.5324
  687MOL0     H92699   7.844   5.883   4.185 -0.1935  0.4326 -0.8698
  687MOL0     H92700   7.987   5.863   4.289  0.9118  1.3713  0.2689
  687MOL0     H92701   8.134   5.896   4.108 -0.8052 -0.1520  0.6673
  687MOL0     H92702   8.016   5.977   4.000 -2.0988  1.6777  1.2689
  687MOL0     H92703   7.870   5.769   4.015  0.3494  0.6406 -1.7709
  687MOL0     H92704   8.002   5.687   4.106  2.3975 -1.2326 -1.0769
  687MOL0     H92705   8.115   5.759   3.663 -1.1119  1.7814 -1.0051
  687MOL0     H92706   7.947   5.691   3.363  1.0274  2.2244 -1.9811
  687MOL0     H92707   8.104   5.745   3.436 -0.8947  0.4661  0.2570
  687MOL0     H92708   8.085   5.576   3.386  0.3487  0.4846  0.9427
  687MOL0     H92709   7.730   5.220   3.329  0.2492  0.4584  0.3619
  687MOL0     H92710   7.578   5.147   3.150 -0.4450  0.5893 -1.7060
  687MOL0     H92711   7.219   5.072   3.252 -3.3618  2.2582  1.4678
  687MOL0     H92712   7.145   5.229   3.208 -0.2967  0.8835 -1.7075
  687MOL0     H92713   7.128   5.114   2.964 -5.0585  1.2195  0.0603
  687MOL0     H92714   7.219   4.979   3.052 -0.5364  0.3757  2.4502
  687MOL0     H92715   6.935   5.088   3.119 -2.1316 -1.0969 -0.9573
  687MOL0     H92716   7.024   4.973   3.212  1.0811  0.2200  0.3795
  687MOL0     H92717   6.940   4.953   2.912  2.4114 -0.7241 -2.4474
  687MOL0     H92718   7.046   4.838   2.976  1.7721  2.1531  1.8427
  687MOL0     H92719   6.872   4.793   3.173 -4.1312 -1.2293  0.4305
  687MOL0     H92720   6.853   4.721   3.013  1.5292  0.9056 -0.2712
  687MOL0     H92721   6.641   4.863   3.124 -2.2060  0.3551 -1.5483
  687MOL0     H92722   6.725   4.995   3.038  2.0429 -0.3065 -1.7542
  687MOL0     H92723   6.621   4.726   2.936  0.7513 -0.1992  0.0037
  687MOL0     H92724   6.680   4.858   2.824 -1.8657  0.1469 -0.2908
  687MOL0     H92725   6.473   4.877   2.792  2.4980 -1.0440 -0.3164
  687MOL0     H92726   6.513   5.014   2.900 -0.3096 -0.1899  4.2704
  687MOL0     H92727   7.277   5.401   3.326  0.3643  2.3323 -0.7546
  687MOL0     H92728   7.438   5.492   3.476  4.0758  0.3745  1.4816
  687MOL0     H92729   7.755   5.440   3.732 -0.3151 -0.1103  0.4833
  687MOL0     H92730   7.838   5.553   3.920  1.0989 -1.2782  0.2580
  687MOL0     H92731   7.189   5.693   3.384  0.6231 -1.3826 -0.6781
  687MOL0     H92732   7.000   5.572   3.320  2.6338  0.7579 -1.1679
  687MOL0     H92733   6.684   5.315   3.107 -3.3443  3.4932  0.5265
  687MOL0     H92734   6.458   5.203   3.084  0.3805  0.3257 -0.2292
  687MOL0     H92735   6.338   4.905   3.387  0.8276  0.6433 -0.9658
  687MOL0     H92736   6.280   5.072   3.444  1.0392  2.3083 -0.6695
  687MOL0     H92737   6.105   4.897   3.389 -2.0729  0.2670 -1.4614
  687MOL0     H92738   6.173   4.907   3.218  3.4048 -3.2230  2.0875
  687MOL0     H92739   6.115   5.143   3.224  2.8918  1.0788  2.7005
  687MOL0     H92740   6.050   5.136   3.389  3.2458  1.5613 -0.0688
  687MOL0     H92741   5.897   4.944   3.238  1.8933 -0.7704  0.1262
  687MOL0     H92742   5.924   5.068   3.123  0.1795  0.4932 -0.2776
  687MOL0     H92743   5.707   5.266   3.438 -3.0908 -1.9641  0.6190
  687MOL0     H92744   6.511   5.072   3.496  0.1378 -1.1497 -0.7235
  687MOL0     H92745   6.696   5.216   3.528 -1.1414 -1.2418  1.1100
  688MOL0     O92746   5.850   7.520   2.324 -1.0313 -0.0519 -0.0853
  688MOL0     C92747   5.949   7.447   2.327 -0.3819  0.1825 -0.0352
  688MOL0     O92748   5.954   7.323   2.279  0.0696  0.0799  0.6784
  688MOL0     C92749   5.853   7.285   2.196 -0.3521  0.2914 -0.1557
  688MOL0     C92750   5.871   7.228   2.068  0.7175 -0.5917  0.5422
  688MOL0     C92751   5.755   7.183   1.993  0.2029  0.8491 -1.1511
  688MOL0     C92752   5.625   7.175   2.048 -0.0910  0.7056 -0.2251
  688MOL0     O92753   5.517   7.115   1.988 -0.2099  0.4719 -0.3446
  688MOL0     C92754   5.520   7.065   1.852  0.9697  0.4061  0.4329
  688MOL0     C92755   5.393   6.974   1.829  0.3821 -0.1974  0.6557
  688MOL0     C92756   5.256   7.050   1.816  0.2739 -0.2607 -0.2223
  688MOL0     C92757   5.145   6.971   1.748  0.3451  0.1920  0.5794
  688MOL0     C92758   5.013   7.052   1.770  0.0728  0.7309 -0.7592
  688MOL0     C92759   4.930   7.063   1.647  0.2041 -0.7278 -0.0303
  688MOL0     C92760   4.904   6.935   1.569  0.1829 -0.1875  0.3418
  688MOL0     C92761   4.791   6.966   1.462  0.3377  0.9813 -0.7646
  688MOL0     N92762   4.658   6.993   1.529  0.1056  0.1936 -0.2180
  688MOL0     C92763   4.585   6.888   1.587 -0.3154 -0.1161 -0.0515
  688MOL0     C92764   4.472   6.954   1.625 -0.1031  1.4067 -0.7330
  688MOL0     C92765   4.337   6.891   1.668 -0.1585  0.0334 -0.1316
  688MOL0     C92766   4.314   6.834   1.815 -0.0047  0.1834  0.2683
  688MOL0     C92767   4.172   6.776   1.820  0.0097  0.3670  0.1493
  688MOL0     C92768   4.154   6.724   1.965 -0.0789  0.0895  0.2085
  688MOL0     O92769   4.017   6.721   1.999  0.4787  0.0592  0.4191
  688MOL0     C92770   3.983   6.715   2.133  0.4095  0.7946 -0.0187
  688MOL0     C92771   3.885   6.628   2.185 -0.2376 -0.6875  0.0160
  688MOL0     C92772   3.843   6.640   2.317 -0.1018  0.2021 -0.6473
  688MOL0     C92773   3.732   6.547   2.362  0.9585  0.2903 -0.7028
  688MOL0     C92774   3.903   6.726   2.405  0.6057 -0.3582 -1.0887
  688MOL0     C92775   3.911   6.722   2.557 -0.4423 -0.9958 -0.6638
  688MOL0     O92776   4.007   6.795   2.629 -0.1291  0.7627  0.0719
  688MOL0     C92777   4.024   6.781   2.767  0.1659  0.8486  0.4791
  688MOL0     C92778   4.021   6.652   2.835 -1.3519 -0.2247 -0.2015
  688MOL0     C92779   4.067   6.647   2.966  0.7966  0.7070  1.3016
  688MOL0     C92780   4.105   6.761   3.040 -0.2273 -0.4598 -0.4979
  688MOL0     O92781   4.159   6.740   3.165 -0.4857  0.6341 -0.1153
  688MOL0     C92782   4.117   6.840   3.260  0.0439 -1.0726 -0.8731
  688MOL0     C92783   4.194   6.817   3.397  0.6630  0.1371 -0.0178
  688MOL0     C92784   4.109   6.751   3.502  0.1621  0.6926 -0.2735
  688MOL0     C92785   4.018   6.866   3.556 -0.3930  0.0720  0.3890
  688MOL0     C92786   3.881   6.825   3.615 -0.3564  0.7732 -0.3926
  688MOL0     C92787   3.900   6.713   3.715 -0.3837  0.1890  0.2618
  688MOL0     C92788   3.769   6.676   3.786 -1.0413  0.2352  0.7087
  688MOL0     C92789   3.788   6.557   3.888  0.6428  0.5628  0.3349
  688MOL0    Cl92790   3.839   6.620   4.045  0.8143  0.1123 -0.1343
  688MOL0     C92791   4.099   6.882   2.977  0.2696  0.2783 -0.8365
  688MOL0     C92792   4.054   6.891   2.843 -0.6125  0.4551  0.5150
  688MOL0     O92793   3.834   6.646   2.606  0.5866 -0.3527 -0.7435
  688MOL0     C92794   4.000   6.820   2.356  0.0103 -0.3625  0.1991
  688MOL0     C92795   4.033   6.808   2.223  0.2487  0.1309  1.0434
  688MOL0     N92796   4.501   7.087   1.608 -0.1043  0.5978 -0.0354
  688MOL0     N92797   4.603   7.114   1.540  0.0782 -0.3882  0.0420
  688MOL0     C92798   5.613   7.221   2.178 -0.2047  1.2802 -0.7100
  688MOL0     C92799   5.721   7.283   2.245  0.6089  0.0100 -0.1733
  688MOL0     C92800   6.070   7.499   2.394 -0.1471  0.5332  1.1382
  688MOL0     C92801   6.190   7.423   2.397  0.1926  0.3454 -0.6414
  688MOL0     C92802   6.301   7.481   2.463 -0.6470 -0.1671  0.8010
  688MOL0     C92803   6.301   7.607   2.514  0.6563 -0.3054  0.5755
  688MOL0     O92804   6.414   7.659   2.564 -0.2793 -0.1314 -0.1825
  688MOL0     C92805   6.504   7.570   2.630  0.0947 -0.4673 -0.8703
  688MOL0     C92806   6.576   7.652   2.734 -0.6967  0.0893  1.0712
  688MOL0     C92807   6.689   7.569   2.797 -0.1870 -0.4100  0.0816
  688MOL0     C92808   6.755   7.645   2.911 -0.5876  0.3266 -0.4044
  688MOL0     C92809   6.832   7.760   2.870 -0.6301  0.3289 -0.4754
  688MOL0     C92810   6.902   7.858   2.850  0.3800 -0.0872  0.0007
  688MOL0     C92811   6.181   7.671   2.508  0.1993  0.2504 -0.6417
  688MOL0     C92812   6.071   7.624   2.442  0.1192 -0.6837  1.1805
  688MOL0     H92813   5.970   7.232   2.023  0.4728 -1.4381 -0.1029
  688MOL0     H92814   5.776   7.139   1.896  1.0846 -0.4302 -0.4113
  688MOL0     H92815   5.531   7.144   1.778 -3.2888  0.3247 -0.5646
  688MOL0     H92816   5.606   6.998   1.843  1.5272  1.2668 -0.7570
  688MOL0     H92817   5.407   6.907   1.744  0.1044 -0.1872  0.6016
  688MOL0     H92818   5.382   6.904   1.913  1.5197 -0.0475  0.9386
  688MOL0     H92819   5.217   7.087   1.911 -0.1782  0.3760 -0.6510
  688MOL0     H92820   5.277   7.134   1.749  0.1944 -0.1415 -0.0979
  688MOL0     H92821   5.167   6.951   1.642  3.3451  0.1259  1.1251
  688MOL0     H92822   5.136   6.876   1.801 -0.1007 -1.6747 -2.5807
  688MOL0     H92823   4.958   7.003   1.851  1.9745 -1.2378 -0.5562
  688MOL0     H92824   5.031   7.152   1.811  0.4729 -0.6768  2.9321
  688MOL0     H92825   4.831   7.098   1.679  0.8927  0.5733  0.7523
  688MOL0     H92826   4.979   7.139   1.585  1.8808 -0.3847  1.6417
  688MOL0     H92827   4.987   6.898   1.508  0.4709 -3.0798  2.2371
  688MOL0     H92828   4.878   6.853   1.637  0.0051  0.2193  0.7724
  688MOL0     H92829   4.797   6.879   1.396  0.0853 -0.5275  1.1438
  688MOL0     H92830   4.829   7.049   1.400  0.9043  1.3633  0.0770
  688MOL0     H92831   4.605   6.781   1.591 -0.9259 -0.2207  0.3153
  688MOL0     H92832   4.256   6.964   1.655 -0.4153 -0.5407 -2.0229
  688MOL0     H92833   4.325   6.806   1.601 -4.6932  1.2805 -1.2531
  688MOL0     H92834   4.321   6.919   1.885 -0.4156 -1.8947  2.9932
  688MOL0     H92835   4.387   6.756   1.837 -0.3719 -0.6379 -1.3166
  688MOL0     H92836   4.164   6.700   1.742  1.1340 -0.3916  0.7350
  688MOL0     H92837   4.096   6.852   1.806 -1.6772 -1.3583 -0.4704
  688MOL0     H92838   4.209   6.787   2.036  1.5986 -0.9928 -0.0762
  688MOL0     H92839   4.187   6.620   1.976 -0.5568  0.0175  1.0302
  688MOL0     H92840   3.827   6.570   2.115 -0.1052  0.6563 -1.2652
  688MOL0     H92841   3.669   6.511   2.280 -1.0894  1.4997  0.2659
  688MOL0     H92842   3.779   6.464   2.416 -0.4136  0.2747  0.5369
  688MOL0     H92843   3.659   6.599   2.426 -0.4006 -2.3936  0.1097
  688MOL0     H92844   3.999   6.557   2.788  0.8281 -1.3836  1.0007
  688MOL0     H92845   4.078   6.549   3.012  3.3102  0.4734  0.3423
  688MOL0     H92846   4.134   6.941   3.222 -3.7985 -0.5729 -1.6684
  688MOL0     H92847   4.009   6.851   3.271 -0.0742  0.7782 -3.1193
  688MOL0     H92848   4.284   6.758   3.377  2.3321  2.1535  1.1494
  688MOL0     H92849   4.249   6.906   3.429 -0.0968  1.0743 -1.2449
  688MOL0     H92850   4.169   6.713   3.585  0.1593  0.1489 -0.5169
  688MOL0     H92851   4.051   6.666   3.464  0.8228 -0.7105  1.7254
  688MOL0     H92852   4.081   6.924   3.624  0.9047 -0.4211 -0.3454
  688MOL0     H92853   3.994   6.941   3.479  1.5010  1.3715  0.9981
  688MOL0     H92854   3.811   6.796   3.536 -0.2593 -1.0077  0.1191
  688MOL0     H92855   3.832   6.903   3.674 -0.9930 -1.3074  2.0001
  688MOL0     H92856   3.948   6.624   3.674 -0.0804 -0.9498  2.8599
  688MOL0     H92857   3.965   6.754   3.793  1.0179  1.3278 -1.4385
  688MOL0     H92858   3.697   6.653   3.706  0.9355  0.4815 -1.2324
  688MOL0     H92859   3.740   6.762   3.846  1.1586  0.1022  2.0679
  688MOL0     H92860   3.857   6.480   3.852 -0.8140 -1.0985  0.9120
  688MOL0     H92861   3.685   6.521   3.899  0.8043  0.7944  3.2588
  688MOL0     H92862   4.128   6.981   3.011 -1.1688  0.2330  0.6426
  688MOL0     H92863   4.030   6.978   2.783  2.2651 -1.4327 -3.9210
  688MOL0     H92864   4.064   6.883   2.418  2.4764 -2.0880 -0.4288
  688MOL0     H92865   4.104   6.882   2.187 -2.0338  0.9925 -2.1628
  688MOL0     H92866   5.513   7.225   2.220 -1.3625  0.3407 -3.1296
  688MOL0     H92867   5.714   7.333   2.342  3.4012  1.5147 -0.6554
  688MOL0     H92868   6.207   7.325   2.352  2.8727 -1.0983  3.0505
  688MOL0     H92869   6.394   7.426   2.473  0.4032  1.4224  0.2103
  688MOL0     H92870   6.449   7.487   2.676  1.3457 -2.1629 -2.2923
  688MOL0     H92871   6.579   7.521   2.567  1.5923  0.6258  0.0049
  688MOL0     H92872   6.507   7.695   2.808 -1.4679  0.0406  0.3893
  688MOL0     H92873   6.622   7.738   2.684 -2.2520  1.2148  1.4765
  688MOL0     H92874   6.761   7.537   2.720  0.0480 -1.8957  0.8833
  688MOL0     H92875   6.643   7.481   2.843  1.1735 -0.9821  0.3839
  688MOL0     H92876   6.829   7.573   2.947 -0.7511  1.0471  1.4421
  688MOL0     H92877   6.686   7.681   2.986  1.2791  2.6292  0.3359
  688MOL0     H92878   6.943   7.956   2.841 -3.6913  1.6618 -1.4965
  688MOL0     H92879   6.173   7.766   2.561  0.2440  1.5770 -2.8947
  688MOL0     H92880   5.977   7.678   2.452  0.4947  0.0815  0.6297
  689MOL0     O92881   5.699  10.118  10.200  0.4873  0.0974  0.2623
  689MOL0     C92882   5.755  10.100  10.305 -0.2866  0.9281 -1.3887
  689MOL0     O92883   5.698  10.095  10.430  0.4908  0.0105 -0.2479
  689MOL0     C92884   5.564  10.124  10.445  0.8230  0.3853  2.2048
  689MOL0     C92885   5.479  10.040  10.525 -0.4102  0.7505  0.2813
  689MOL0     C92886   5.343  10.076  10.547  0.1737  0.8347 -0.1007
  689MOL0     C92887   5.284  10.187  10.487 -0.5217  0.5030  0.0789
  689MOL0     O92888   5.148  10.203  10.486  0.1985  0.8002 -0.3660
  689MOL0     C92889   5.089  10.301  10.573  0.2765 -0.0456  0.7705
  689MOL0     C92890   4.938  10.302  10.524 -0.6008  0.1827  0.6864
  689MOL0     C92891   4.856  10.411  10.585  0.3286 -0.1821 -0.0678
  689MOL0     C92892   4.734  10.425  10.485 -1.5205  0.7000  0.2737
  689MOL0     C92893   4.608  10.488  10.535  0.1896  0.3371  0.3979
  689MOL0     C92894   4.530  10.383  10.618 -0.1514  0.2580 -0.4990
  689MOL0     C92895   4.397  10.456  10.644  0.5819 -0.4494 -0.9060
  689MOL0     C92896   4.359  10.454  10.786  0.3439  0.1712 -0.4957
  689MOL0     N92897   4.214  10.489  10.813 -0.0981  0.2943 -0.5491
  689MOL0     C92898   4.171  10.517  10.937 -0.1695 -0.0387  0.6434
  689MOL0     C92899   4.035  10.514  10.928 -0.2711 -0.0071  0.0780
  689MOL0     C92900   3.934  10.551  11.037 -1.2408  0.0454  0.9220
  689MOL0     C92901   3.919  10.702  11.061 -0.6052 -0.3653  0.9088
  689MOL0     C92902   3.840  10.789  10.970 -1.0322 -0.2577  0.9911
  689MOL0     C92903   3.695  10.751  10.949 -0.9114  0.3187  0.3266
  689MOL0     O92904   3.628  10.858  10.892  0.0084 -0.1875 -0.1002
  689MOL0     C92905   3.560  10.958  10.963 -0.8694  0.1245 -0.7898
  689MOL0     C92906   3.595  10.994  11.096  0.3408 -0.7394  0.0908
  689MOL0     C92907   3.511  11.084  11.167 -0.9872 -0.0093 -0.3001
  689MOL0     C92908   3.564  11.136  11.298  0.1207 -0.0205  0.6636
  689MOL0     C92909   3.395  11.138  11.109 -0.3069 -0.6557  0.2620
  689MOL0     C92910   3.302  11.223  11.180  0.0666 -0.1692  0.2794
  689MOL0     O92911   3.254  11.328  11.109  0.0936  0.4049  0.0510
  689MOL0     C92912   3.153  11.402  11.166 -0.2834  1.1906  0.4713
  689MOL0     C92913   3.023  11.380  11.125 -0.0361  0.2216 -0.9321
  689MOL0     C92914   2.918  11.463  11.181 -0.3617  0.2841  0.3771
  689MOL0     C92915   2.952  11.554  11.280 -0.0467  0.3928  0.9968
  689MOL0     O92916   2.857  11.615  11.352  0.3045 -0.1068  0.4849
  689MOL0     C92917   2.716  11.625  11.309 -0.6154  0.3984  0.0048
  689MOL0     C92918   2.659  11.728  11.412  0.6529 -0.0182  1.1878
  689MOL0     C92919   2.506  11.746  11.381  0.2143  0.3352  0.9308
  689MOL0     C92920   2.438  11.859  11.456 -0.2369  0.1047  0.5525
  689MOL0     C92921   2.294  11.898  11.420  0.1285 -0.4964  0.5230
  689MOL0     C92922   2.199  11.782  11.440  1.0620  0.0233 -0.3363
  689MOL0     C92923   2.047  11.818  11.438 -0.1689  0.1747  0.9436
  689MOL0     C92924   1.959  11.699  11.459 -0.5187  0.7714 -0.5108
  689MOL0    Cl92925   1.791  11.738  11.478  0.4801  1.0871  0.0170
  689MOL0     C92926   3.086  11.576  11.316 -0.0851 -0.3994  0.0003
  689MOL0     C92927   3.188  11.497  11.257 -0.4561 -0.0906  0.3876
  689MOL0     O92928   3.263  11.192  11.295  0.6199  0.5537  0.7340
  689MOL0     C92929   3.368  11.106  10.973  0.0482  0.4948 -0.3337
  689MOL0     C92930   3.454  11.023  10.896  0.9899  0.9379 -0.3308
  689MOL0     N92931   4.013  10.488  10.793  0.3571  0.2022  0.4254
  689MOL0     N92932   4.117  10.473  10.726  0.5027  0.6792  0.6918
  689MOL0     C92933   5.369  10.276  10.416  1.0573  0.7046 -0.5656
  689MOL0     C92934   5.501  10.237  10.387 -0.5715 -0.4750  0.3133
  689MOL0     C92935   5.900  10.070  10.305 -0.4234 -0.2317  1.0425
  689MOL0     C92936   5.967  10.038  10.422 -0.1690 -0.4022  0.4439
  689MOL0     C92937   6.099  10.001  10.417 -0.3436  0.3001 -0.4401
  689MOL0     C92938   6.172   9.995  10.301 -0.3030  0.0041 -0.1545
  689MOL0     O92939   6.308   9.976  10.315 -0.0218 -0.2212 -0.3418
  689MOL0     C92940   6.389   9.952  10.194  0.3576  1.0275 -0.3119
  689MOL0     C92941   6.537   9.933  10.241  0.2088  0.3592  0.6123
  689MOL0     C92942   6.631   9.948  10.126 -0.3306  0.8233  0.0454
  689MOL0     C92943   6.764  10.003  10.178  0.0628  0.3759  0.6052
  689MOL0     C92944   6.881   9.963  10.092  0.0078  0.2462 -0.8253
  689MOL0     C92945   6.974   9.921  10.020  0.2160 -0.0661  0.6892
  689MOL0     C92946   6.106  10.029  10.181 -1.2744  0.1607  0.3058
  689MOL0     C92947   5.971  10.061  10.180  0.3143 -0.2008 -0.0964
  689MOL0     H92948   5.528   9.951  10.565  2.0779  0.8183 -2.2837
  689MOL0     H92949   5.291  10.012  10.618  1.7373 -1.8542 -1.2296
  689MOL0     H92950   5.104  10.281  10.680  0.9724  3.3697  1.4380
  689MOL0     H92951   5.120  10.403  10.550  1.1889 -1.0204 -3.0441
  689MOL0     H92952   4.940  10.327  10.417 -2.5236  0.7094  0.7285
  689MOL0     H92953   4.887  10.206  10.536 -1.4074 -0.1058 -3.5324
  689MOL0     H92954   4.827  10.380  10.685  0.7753  1.0201  0.4531
  689MOL0     H92955   4.902  10.510  10.594  0.0327  0.2988 -2.8867
  689MOL0     H92956   4.771  10.492  10.407 -0.5676  0.9546  0.9240
  689MOL0     H92957   4.713  10.329  10.438 -1.0085  0.5610  0.3199
  689MOL0     H92958   4.633  10.571  10.602 -0.8760  1.0228 -0.0315
  689MOL0     H92959   4.549  10.523  10.450  1.4276 -0.1936 -0.7156
  689MOL0     H92960   4.519  10.288  10.565  0.8244  1.1129 -2.3551
  689MOL0     H92961   4.581  10.362  10.712 -6.2761  0.7672  3.4528
  689MOL0     H92962   4.394  10.562  10.617  2.0924 -0.2384 -0.3430
  689MOL0     H92963   4.321  10.410  10.580  1.5684  0.7870 -3.0804
  689MOL0     H92964   4.422  10.523  10.843 -2.1927  1.2797  1.1563
  689MOL0     H92965   4.367  10.350  10.820 -1.2628  0.1686 -0.0046
  689MOL0     H92966   4.225  10.542  11.029 -0.4437 -0.4960  0.9296
  689MOL0     H92967   3.838  10.509  11.005 -0.2397 -1.9195  0.3541
  689MOL0     H92968   3.973  10.508  11.130  3.6265 -1.4246 -1.5015
  689MOL0     H92969   4.025  10.732  11.069 -0.3020 -1.7295  2.5701
  689MOL0     H92970   3.878  10.717  11.161  0.3676  1.2801  1.1076
  689MOL0     H92971   3.893  10.797  10.874  0.2703 -0.9515  1.6348
  689MOL0     H92972   3.837  10.889  11.015 -2.3797  1.0332 -1.7022
  689MOL0     H92973   3.646  10.724  11.043 -1.4153 -0.2276 -0.0865
  689MOL0     H92974   3.683  10.669  10.877 -3.1252  2.4650 -1.9699
  689MOL0     H92975   3.685  10.956  11.142  1.1914  2.4229  1.2748
  689MOL0     H92976   3.506  11.109  11.387 -0.9153 -0.4971 -0.1361
  689MOL0     H92977   3.664  11.093  11.314  0.6665  1.2336  0.6968
  689MOL0     H92978   3.579  11.243  11.281 -2.1215 -0.0367 -2.1668
  689MOL0     H92979   3.009  11.307  11.046  1.4426 -1.4782  0.3316
  689MOL0     H92980   2.814  11.444  11.155 -0.5989 -2.3527  2.7956
  689MOL0     H92981   2.717  11.676  11.212  0.7668  2.0734  0.8357
  689MOL0     H92982   2.675  11.523  11.311  0.1005  0.0846 -0.9430
  689MOL0     H92983   2.654  11.681  11.511 -0.7287  0.3574  1.3166
  689MOL0     H92984   2.710  11.825  11.417  2.0134 -0.4461 -1.7693
  689MOL0     H92985   2.454  11.661  11.426 -0.2474  0.6635  1.0197
  689MOL0     H92986   2.484  11.756  11.274  0.0163  1.6398  1.0767
  689MOL0     H92987   2.444  11.835  11.562  4.0635 -2.1308  0.0269
  689MOL0     H92988   2.492  11.954  11.443 -1.3715  0.8035  0.8342
  689MOL0     H92989   2.291  11.930  11.315 -1.5711  1.3288  1.0644
  689MOL0     H92990   2.281  11.991  11.475  0.1762 -0.2936  0.1960
  689MOL0     H92991   2.214  11.698  11.372  1.6026  0.5793 -0.9097
  689MOL0     H92992   2.224  11.737  11.537 -1.2547  1.4825  1.0512
  689MOL0     H92993   2.009  11.869  11.349 -1.7694  0.5654  1.8088
  689MOL0     H92994   2.022  11.883  11.523 -0.5233 -0.1705  1.1078
  689MOL0     H92995   1.992  11.658  11.555 -0.1614 -0.3173 -1.0778
  689MOL0     H92996   1.962  11.623  11.380 -0.9772  0.2091  0.0032
  689MOL0     H92997   3.110  11.645  11.396 -1.5824  0.3430 -0.1723
  689MOL0     H92998   3.293  11.506  11.280 -0.5595 -0.9654  1.2499
  689MOL0     H92999   3.287  11.147  10.914 -0.7446 -2.9029 -1.8371
  689MOL0     H93000   3.431  10.988  10.796  1.0570  1.3747 -0.5026
  689MOL0     H93001   5.330  10.376  10.397  0.7541  0.5864 -0.5701
  689MOL0     H93002   5.560  10.303  10.325  0.9198  1.5644  3.6071
  689MOL0     H93003   5.922  10.030  10.520 -0.4667 -0.1303  0.3326
  689MOL0     H93004   6.148   9.978  10.511  0.6105  1.4748 -0.6183
  689MOL0     H93005   6.366   9.858  10.142 -1.3251 -0.6469  3.0805
  689MOL0     H93006   6.389  10.033  10.121  0.9095  0.8047 -0.5615
  689MOL0     H93007   6.549   9.832  10.280 -2.1641 -0.2571 -0.0750
  689MOL0     H93008   6.557  10.012  10.314  2.0894 -0.1861  0.7440
  689MOL0     H93009   6.581  10.019  10.059 -1.4610  1.9948  2.0213
  689MOL0     H93010   6.638   9.852  10.074 -2.4565  1.1799 -1.0245
  689MOL0     H93011   6.778   9.951  10.274 -2.0188 -0.2167  0.6423
  689MOL0     H93012   6.756  10.108  10.206  1.4687  1.4905 -2.7103
  689MOL0     H93013   7.054   9.881   9.961 -0.5897  0.7656 -1.0346
  689MOL0     H93014   6.163  10.020  10.089  0.3332  1.2696  1.1444
  689MOL0     H93015   5.914  10.083  10.090  3.2861 -1.5207 -2.4757
  690MOL0     O93016   7.621   2.097   3.988  0.6889 -0.0779 -0.2302
  690MOL0     C93017   7.666   2.020   3.910 -0.9156  0.4992  0.8891
  690MOL0     O93018   7.589   1.945   3.811 -0.1034 -0.6463 -0.0191
  690MOL0     C93019   7.465   1.983   3.772  0.7083  0.4056  0.3214
  690MOL0     C93020   7.435   2.116   3.742 -0.0345 -0.2383 -0.3326
  690MOL0     C93021   7.302   2.146   3.695 -0.3659  0.1661  0.3661
  690MOL0     C93022   7.205   2.048   3.675  0.3472  0.3568  0.5322
  690MOL0     O93023   7.087   2.083   3.619 -0.0072  0.2489 -0.5396
  690MOL0     C93024   6.978   2.027   3.698  0.1506  0.7800 -0.4998
  690MOL0     C93025   6.842   2.043   3.623 -0.4837 -0.6698 -1.0071
  690MOL0     C93026   6.724   2.013   3.712 -1.4329  0.2405  0.2229
  690MOL0     C93027   6.607   2.026   3.619  0.0330  0.3871 -0.1350
  690MOL0     C93028   6.484   1.974   3.676  0.1154  0.7326 -0.0004
  690MOL0     C93029   6.360   2.033   3.600  0.2746  0.5511  0.0755
  690MOL0     C93030   6.232   1.979   3.653  0.0343  0.0684 -0.1826
  690MOL0     C93031   6.118   2.048   3.582 -0.6729 -0.3165 -0.6274
  690MOL0     N93032   5.993   1.981   3.623  0.5704 -0.4300  1.1501
  690MOL0     C93033   5.955   1.952   3.748 -0.7065 -0.3001  0.2672
  690MOL0     C93034   5.841   1.881   3.734  1.2020 -0.1104 -0.2643
  690MOL0     C93035   5.749   1.830   3.846 -0.1841 -0.6859  0.0770
  690MOL0     C93036   5.822   1.784   3.978  0.5448  0.1308  0.1901
  690MOL0     C93037   5.714   1.735   4.081 -0.3404 -0.8394 -0.8363
  690MOL0     C93038   5.611   1.629   4.034 -0.5094  0.3134 -0.1622
  690MOL0     O93039   5.510   1.688   3.957 -0.1593  0.0033 -0.1941
  690MOL0     C93040   5.388   1.678   4.017 -0.5410  0.9987 -0.2559
  690MOL0     C93041   5.364   1.710   4.150 -0.1743  0.2521 -0.7054
  690MOL0     C93042   5.237   1.688   4.207  0.7483  0.0821 -1.4716
  690MOL0     C93043   5.222   1.727   4.347  0.7228  1.0753 -1.3296
  690MOL0     C93044   5.131   1.623   4.137  0.0214 -0.8107 -0.4059
  690MOL0     C93045   5.003   1.588   4.191  0.4632 -0.2249  0.0759
  690MOL0     O93046   4.926   1.484   4.130  0.1673  0.7708 -0.4057
  690MOL0     C93047   4.792   1.464   4.156  0.3412 -0.2577  0.4194
  690MOL0     C93048   4.745   1.342   4.180  0.0136 -0.1851  0.1256
  690MOL0     C93049   4.603   1.318   4.198 -0.2775 -0.1777 -0.3308
  690MOL0     C93050   4.509   1.419   4.175  1.0476 -0.7507 -0.9858
  690MOL0     O93051   4.381   1.379   4.194 -0.4116  0.1782 -0.6453
  690MOL0     C93052   4.274   1.473   4.169 -0.5360 -0.7520 -0.1585
  690MOL0     C93053   4.141   1.405   4.214  1.1151  0.6699 -0.0188
  690MOL0     C93054   4.083   1.312   4.108 -0.7367  0.3610  0.3642
  690MOL0     C93055   3.933   1.290   4.122 -0.1217  0.3247 -0.6493
  690MOL0     C93056   3.886   1.198   4.007 -0.4794 -0.2170 -0.1026
  690MOL0     C93057   3.744   1.158   4.031  0.0537  0.6577 -0.5082
  690MOL0     C93058   3.691   1.078   3.911  1.4450  0.5219 -0.2167
  690MOL0     C93059   3.541   1.051   3.917 -0.5625  0.3783  0.7147
  690MOL0    Cl93060   3.493   0.989   4.083  0.1885  0.1342 -0.1251
  690MOL0     C93061   4.557   1.547   4.141  0.3064 -0.4330 -0.2416
  690MOL0     C93062   4.700   1.574   4.134 -0.1013  0.0522 -0.5475
  690MOL0     O93063   4.955   1.671   4.278  0.5197 -0.4696 -0.3416
  690MOL0     C93064   5.158   1.592   4.007  0.4778  0.0006  0.3754
  690MOL0     C93065   5.287   1.617   3.944 -0.2563  0.8169 -1.3321
  690MOL0     N93066   5.812   1.876   3.598  0.0114  0.7644  0.2015
  690MOL0     N93067   5.908   1.928   3.530 -0.1256 -0.7174 -0.5736
  690MOL0     C93068   7.247   1.918   3.700 -0.4364 -0.1168  0.6403
  690MOL0     C93069   7.370   1.884   3.751 -0.7460  0.3261 -0.1133
  690MOL0     C93070   7.817   1.980   3.917  0.3326 -0.2314 -0.0683
  690MOL0     C93071   7.872   1.883   3.834 -0.1440  0.8603  1.0779
  690MOL0     C93072   8.005   1.848   3.871  0.7358  0.8629  0.2610
  690MOL0     C93073   8.078   1.906   3.968  0.0779 -0.6178 -0.1436
  690MOL0     O93074   8.205   1.863   3.974 -0.1490  1.1430  0.1152
  690MOL0     C93075   8.280   1.889   4.094  0.2329  0.0695 -0.1204
  690MOL0     C93076   8.397   1.793   4.096  0.4003 -0.2615  0.2059
  690MOL0     C93077   8.486   1.795   3.967  0.0053  0.0880 -0.2244
  690MOL0     C93078   8.583   1.675   3.966  0.1475 -0.2062 -0.3090
  690MOL0     C93079   8.516   1.551   3.975 -0.0642  0.6990  0.3775
  690MOL0     C93080   8.452   1.449   3.966 -0.4563  0.2295  0.1117
  690MOL0     C93081   8.014   2.005   4.047  0.3444 -0.1185  0.5851
  690MOL0     C93082   7.878   2.036   4.028  0.3758  0.1248  0.0698
  690MOL0     H93083   7.502   2.202   3.737 -0.9943  0.5571  0.0703
  690MOL0     H93084   7.292   2.245   3.651 -0.6433  0.1449  0.3806
  690MOL0     H93085   6.984   1.920   3.717 -0.7128  0.8541  0.2615
  690MOL0     H93086   6.975   2.072   3.797  1.8757 -0.6984  0.2865
  690MOL0     H93087   6.833   2.150   3.601  0.7630 -0.3692 -0.1539
  690MOL0     H93088   6.844   1.985   3.530 -0.6675 -2.0491 -0.1837
  690MOL0     H93089   6.717   1.908   3.742  1.6468 -0.6477 -1.7596
  690MOL0     H93090   6.719   2.084   3.795 -0.8239  0.7478 -0.1673
  690MOL0     H93091   6.588   2.131   3.596  2.4609  0.6763 -1.0439
  690MOL0     H93092   6.630   1.975   3.526 -1.7215 -0.4409 -0.1723
  690MOL0     H93093   6.484   1.865   3.679  1.7679  0.7362  1.4716
  690MOL0     H93094   6.475   2.008   3.779 -2.2144  0.0541  0.0840
  690MOL0     H93095   6.364   2.141   3.616  1.0740  0.5002  0.2722
  690MOL0     H93096   6.366   2.007   3.494 -2.2033 -0.9986  0.2506
  690MOL0     H93097   6.237   1.873   3.626 -1.5201 -0.3452  1.0804
  690MOL0     H93098   6.226   1.989   3.761 -0.0465 -0.0156 -0.1789
  690MOL0     H93099   6.124   2.025   3.475  1.6353  2.2331 -1.1528
  690MOL0     H93100   6.103   2.152   3.611 -1.8868 -0.2792 -1.3163
  690MOL0     H93101   5.996   1.983   3.844 -1.5196 -3.2483  1.6968
  690MOL0     H93102   5.679   1.912   3.865 -0.1130  0.1846 -2.9255
  690MOL0     H93103   5.686   1.752   3.801  0.8144 -0.6035 -1.5424
  690MOL0     H93104   5.886   1.862   4.020 -1.3227  1.4133  0.8240
  690MOL0     H93105   5.885   1.699   3.951  2.4182  1.7519 -0.7730
  690MOL0     H93106   5.669   1.811   4.145  1.7680 -1.1444  1.1602
  690MOL0     H93107   5.782   1.690   4.154  1.7389  3.0981 -0.0263
  690MOL0     H93108   5.571   1.577   4.121 -3.3768 -0.5990 -1.8638
  690MOL0     H93109   5.664   1.556   3.972  1.7014 -0.3719  2.3529
  690MOL0     H93110   5.446   1.757   4.204 -0.4745 -1.9825  1.9425
  690MOL0     H93111   5.159   1.814   4.369 -0.9289 -0.2500 -0.6386
  690MOL0     H93112   5.176   1.639   4.393 -2.6878  3.2171 -0.2507
  690MOL0     H93113   5.318   1.736   4.399  0.0613 -2.1745  0.7168
  690MOL0     H93114   4.811   1.257   4.189 -1.5610 -1.1492  4.9416
  690MOL0     H93115   4.568   1.215   4.194  1.6424 -0.8350 -2.6454
  690MOL0     H93116   4.276   1.558   4.238 -0.2815 -1.4566  0.7271
  690MOL0     H93117   4.269   1.512   4.067 -2.4850 -0.6939 -0.0806
  690MOL0     H93118   4.155   1.350   4.307 -1.4755  0.4378  0.3117
  690MOL0     H93119   4.067   1.482   4.236  0.8686  0.7644 -1.1044
  690MOL0     H93120   4.133   1.216   4.089 -1.1062  0.6167 -2.3691
  690MOL0     H93121   4.093   1.357   4.008 -1.7640 -1.7594 -0.7586
  690MOL0     H93122   3.927   1.249   4.223  1.1833 -0.0982 -0.7333
  690MOL0     H93123   3.867   1.376   4.111 -2.9867 -1.6214  0.0057
  690MOL0     H93124   3.943   1.106   3.996  0.2690  0.1071  0.8688
  690MOL0     H93125   3.901   1.263   3.920  1.4847  0.0065  0.3616
  690MOL0     H93126   3.742   1.097   4.122  0.7815  0.1396 -0.8340
  690MOL0     H93127   3.686   1.250   4.043 -4.0246 -1.6738 -0.8456
  690MOL0     H93128   3.748   0.984   3.909  1.0156  0.1774  1.9398
  690MOL0     H93129   3.709   1.132   3.817 -0.9399 -1.0459 -1.7057
  690MOL0     H93130   3.519   0.985   3.832 -1.3344  1.0581  0.3700
  690MOL0     H93131   3.502   1.152   3.903 -1.2019  0.3838  2.2715
  690MOL0     H93132   4.498   1.635   4.119  2.0045  0.9127  0.3442
  690MOL0     H93133   4.724   1.679   4.115  2.8414 -0.4279  0.0248
  690MOL0     H93134   5.085   1.533   3.953  0.0190  1.0054 -0.1432
  690MOL0     H93135   5.303   1.579   3.843  0.4736 -1.7831 -0.3040
  690MOL0     H93136   7.177   1.840   3.672  0.1224 -0.8127  1.1419
  690MOL0     H93137   7.398   1.781   3.774  0.0860  0.3700 -0.8830
  690MOL0     H93138   7.821   1.843   3.746  0.9222  1.8739 -0.0486
  690MOL0     H93139   8.064   1.784   3.805  0.1622  0.1510  0.4342
  690MOL0     H93140   8.316   1.992   4.099 -1.0841  0.6647 -1.9077
  690MOL0     H93141   8.217   1.871   4.182 -2.9178  2.2095 -1.7454
  690MOL0     H93142   8.347   1.696   4.109 -1.5750  0.8582  1.5732
  690MOL0     H93143   8.464   1.815   4.180  0.2869 -1.1322  0.5351
  690MOL0     H93144   8.531   1.894   3.954 -1.0377  0.3863 -1.8653
  690MOL0     H93145   8.417   1.773   3.886 -2.2394  1.4360  1.2197
  690MOL0     H93146   8.647   1.685   4.054  0.3164  1.1355 -0.5715
  690MOL0     H93147   8.648   1.680   3.878  2.2956  1.6043  1.2544
  690MOL0     H93148   8.387   1.365   3.958 -1.0131  0.6189  0.4615
  690MOL0     H93149   8.064   2.060   4.126  2.4789 -0.3585 -0.5462
  690MOL0     H93150   7.823   2.097   4.099  0.1496 -1.1802  1.0627
  691MOL0     O93151   8.248   3.983   6.004 -0.0643  0.2861  1.4216
  691MOL0     C93152   8.355   4.029   6.034  0.2442  0.5408 -0.6182
  691MOL0     O93153   8.376   4.151   6.091 -0.3387 -0.6103 -0.0025
  691MOL0     C93154   8.307   4.267   6.072  0.2848 -0.1962 -0.7455
  691MOL0     C93155   8.329   4.365   6.167 -0.3490 -0.5808 -0.8593
  691MOL0     C93156   8.261   4.491   6.156 -0.6728 -0.9078  0.3912
  691MOL0     C93157   8.186   4.523   6.047  0.7400  0.7835  0.2389
  691MOL0     O93158   8.140   4.653   6.027  0.3977  0.7709 -0.3654
  691MOL0     C93159   8.065   4.689   5.909  0.6005  0.6502 -0.5214
  691MOL0     C93160   8.013   4.827   5.933  1.4267  0.1130  0.1220
  691MOL0     C93161   7.864   4.826   5.889 -0.1638 -0.3047  0.3285
  691MOL0     C93162   7.796   4.959   5.932 -0.0491 -0.1627  0.3293
  691MOL0     C93163   7.831   5.083   5.841 -0.1609  0.6939 -0.0967
  691MOL0     C93164   7.785   5.213   5.897  0.6930 -0.1370  0.6100
  691MOL0     C93165   7.754   5.318   5.791  0.0331  0.9506  0.4395
  691MOL0     C93166   7.719   5.449   5.855 -0.2832 -0.1313  0.8375
  691MOL0     N93167   7.603   5.450   5.944 -0.3161  0.5711 -0.5033
  691MOL0     C93168   7.474   5.401   5.926  0.4938 -1.0513  0.2936
  691MOL0     C93169   7.405   5.420   6.048  0.1618 -0.7565  0.1200
  691MOL0     C93170   7.260   5.379   6.068  0.0705  0.4057 -0.0228
  691MOL0     C93171   7.173   5.444   5.959 -0.6082  0.6706  0.0789
  691MOL0     C93172   7.026   5.404   5.961 -0.7276 -0.0808 -0.2854
  691MOL0     C93173   6.964   5.420   5.826  0.3939 -0.8921 -0.0206
  691MOL0     O93174   6.929   5.563   5.813 -0.3645 -0.6492  0.3145
  691MOL0     C93175   6.834   5.594   5.718  0.2117 -0.0932 -0.2047
  691MOL0     C93176   6.776   5.715   5.726 -0.4640 -1.0238  0.6249
  691MOL0     C93177   6.656   5.752   5.666  0.2110  0.9120  0.7361
  691MOL0     C93178   6.615   5.898   5.684 -0.6072  0.3362  0.1865
  691MOL0     C93179   6.592   5.663   5.582  0.5277  0.1249  0.6924
  691MOL0     C93180   6.457   5.687   5.507 -0.4458 -0.7991 -0.3606
  691MOL0     O93181   6.401   5.587   5.443 -0.0318  0.9692 -0.5517
  691MOL0     C93182   6.261   5.586   5.427  0.1428 -0.7730 -0.0611
  691MOL0     C93183   6.176   5.604   5.537  0.4758  0.2001  0.1215
  691MOL0     C93184   6.035   5.610   5.520  0.3973  0.6816 -0.4827
  691MOL0     C93185   5.977   5.618   5.391 -0.4909 -0.0124 -0.1093
  691MOL0     O93186   5.839   5.616   5.391  0.0847 -0.1359  0.3254
  691MOL0     C93187   5.769   5.568   5.271  0.4959 -0.3168 -0.5245
  691MOL0     C93188   5.621   5.614   5.264 -0.0007  0.4285 -0.2750
  691MOL0     C93189   5.604   5.752   5.322  0.3335 -0.1515  0.2951
  691MOL0     C93190   5.455   5.801   5.308 -0.1862 -0.6202  0.3455
  691MOL0     C93191   5.347   5.708   5.366  0.6735  0.3610  0.8085
  691MOL0     C93192   5.218   5.772   5.352  0.9777 -0.4403 -0.1638
  691MOL0     C93193   5.102   5.677   5.405  0.1303 -0.4284  0.1969
  691MOL0     C93194   4.972   5.742   5.438  0.9098 -0.7032  0.9896
  691MOL0    Cl93195   4.888   5.642   5.552 -0.1858  0.0709 -0.2521
  691MOL0     C93196   6.067   5.619   5.282 -0.0422 -0.2915  0.5849
  691MOL0     C93197   6.206   5.601   5.298  0.4064 -0.0029  0.2950
  691MOL0     O93198   6.397   5.790   5.529  0.6976  0.2135 -0.0949
  691MOL0     C93199   6.656   5.538   5.556 -0.4796  0.5047 -0.0953
  691MOL0     C93200   6.772   5.501   5.633  0.0094  0.0138  0.4009
  691MOL0     N93201   7.495   5.480   6.135  0.8873 -0.7299 -0.5269
  691MOL0     N93202   7.612   5.493   6.075  0.4979 -0.0346  1.2699
  691MOL0     C93203   8.162   4.420   5.958 -0.0378  0.0624 -0.5368
  691MOL0     C93204   8.212   4.294   5.969 -0.4261  0.5610 -1.1525
  691MOL0     C93205   8.475   3.939   6.019  1.0842  0.7749  0.6597
  691MOL0     C93206   8.459   3.824   5.943  0.2873  0.6024 -0.9240
  691MOL0     C93207   8.562   3.735   5.946  0.4364  0.6015  1.0254
  691MOL0     C93208   8.678   3.741   6.010 -0.3354  0.8891  0.1003
  691MOL0     O93209   8.771   3.640   6.001 -1.0802 -0.0566  0.2693
  691MOL0     C93210   8.901   3.653   6.067 -0.0705  0.2452  0.8509
  691MOL0     C93211   8.973   3.519   6.064  0.5026  0.2155  1.0248
  691MOL0     C93212   8.987   3.465   5.916  0.0592  0.0731  0.0675
  691MOL0     C93213   9.089   3.355   5.912 -0.4832  0.0807 -0.3426
  691MOL0     C93214   9.091   3.301   5.779 -0.8028 -0.2442 -0.1717
  691MOL0     C93215   9.086   3.262   5.658 -0.5423  0.0849 -0.9780
  691MOL0     C93216   8.699   3.855   6.076  1.4412  0.1933 -0.7922
  691MOL0     C93217   8.599   3.954   6.087 -0.1182  0.3165  0.1381
  691MOL0     H93218   8.402   4.351   6.246  4.5116  2.0759 -4.3203
  691MOL0     H93219   8.280   4.578   6.218  0.4034  2.1533 -3.7907
  691MOL0     H93220   8.126   4.678   5.819  0.1691 -0.0314 -0.7420
  691MOL0     H93221   7.977   4.626   5.894 -1.2843  3.1446 -0.6567
  691MOL0     H93222   8.016   4.841   6.041 -0.1045 -3.3747  0.7387
  691MOL0     H93223   8.074   4.904   5.885  1.9314 -0.2982  0.1058
  691MOL0     H93224   7.853   4.806   5.782 -0.1546  1.5498 -0.0541
  691MOL0     H93225   7.821   4.741   5.942  1.4547 -1.4440 -0.1165
  691MOL0     H93226   7.688   4.950   5.919 -0.2227  1.7722  0.1591
  691MOL0     H93227   7.814   4.978   6.038 -0.3257  0.4469  0.2697
  691MOL0     H93228   7.940   5.083   5.830  0.0171 -0.0773  1.4468
  691MOL0     H93229   7.788   5.069   5.742  0.6616  2.0212 -0.6665
  691MOL0     H93230   7.699   5.188   5.960 -0.3354 -0.8683 -1.0192
  691MOL0     H93231   7.866   5.260   5.954  2.3601  0.3817 -2.0075
  691MOL0     H93232   7.840   5.324   5.724 -0.4430  2.5737 -0.0576
  691MOL0     H93233   7.671   5.283   5.728  0.1965  0.6007  0.4122
  691MOL0     H93234   7.707   5.526   5.778 -2.0715 -1.8752 -0.7270
  691MOL0     H93235   7.814   5.468   5.905  0.6404 -1.3301 -0.4058
  691MOL0     H93236   7.426   5.356   5.841  0.4674  1.7017 -1.2557
  691MOL0     H93237   7.251   5.272   6.084  1.6150  0.5717  2.3260
  691MOL0     H93238   7.240   5.423   6.166  3.7792  1.2064  0.4999
  691MOL0     H93239   7.214   5.419   5.861 -1.9580 -0.4378 -0.2437
  691MOL0     H93240   7.171   5.554   5.966  0.7681  0.6806  0.6196
  691MOL0     H93241   6.976   5.472   6.030  0.9486  1.8623 -0.8982
  691MOL0     H93242   7.007   5.299   5.986 -1.4799 -0.5313 -2.5006
  691MOL0     H93243   6.874   5.358   5.817  0.4031 -0.8982 -0.0715
  691MOL0     H93244   7.027   5.376   5.748 -0.1133 -3.7267  1.0561
  691MOL0     H93245   6.820   5.783   5.798  2.3818 -2.0195 -0.0349
  691MOL0     H93246   6.573   5.934   5.590  0.3993 -0.8990 -0.7807
  691MOL0     H93247   6.545   5.921   5.765 -1.2081 -1.8932  0.3636
  691MOL0     H93248   6.707   5.956   5.697 -1.2073  1.2541  0.4077
  691MOL0     H93249   6.227   5.595   5.632  2.8725  2.3189 -0.8583
  691MOL0     H93250   5.973   5.633   5.606  1.2596  3.1001 -0.4381
  691MOL0     H93251   5.812   5.606   5.178  1.5312  1.6071  0.6590
  691MOL0     H93252   5.777   5.459   5.265  2.2054 -0.5512  3.1044
  691MOL0     H93253   5.603   5.614   5.156  0.8744  2.6892 -0.4774
  691MOL0     H93254   5.564   5.539   5.318  0.6023 -0.3493 -0.7036
  691MOL0     H93255   5.667   5.820   5.263  2.4522 -2.1004  0.1740
  691MOL0     H93256   5.641   5.747   5.425  1.3737 -2.5807 -0.1369
  691MOL0     H93257   5.456   5.899   5.358  2.5768 -1.3570  1.9692
  691MOL0     H93258   5.432   5.819   5.203 -0.7695 -0.9517  0.4109
  691MOL0     H93259   5.364   5.692   5.473  0.9233  0.0549  0.7258
  691MOL0     H93260   5.353   5.604   5.333  0.3162  0.8468 -0.8788
  691MOL0     H93261   5.218   5.863   5.413  0.6146 -1.5441  1.5603
  691MOL0     H93262   5.199   5.800   5.248 -0.9478  1.1666  0.5454
  691MOL0     H93263   5.140   5.620   5.490  3.2381  1.0650 -0.0306
  691MOL0     H93264   5.082   5.598   5.332 -0.7827 -0.6189  0.6447
  691MOL0     H93265   4.927   5.757   5.339  0.7407 -1.6271  0.9234
  691MOL0     H93266   4.991   5.841   5.482 -1.7323  1.5052 -2.2800
  691MOL0     H93267   6.028   5.628   5.181  0.7771 -1.6633  0.1178
  691MOL0     H93268   6.272   5.589   5.212  0.0572  1.0907 -0.1354
  691MOL0     H93269   6.621   5.466   5.483 -1.7056  2.2487 -1.3206
  691MOL0     H93270   6.825   5.408   5.620  0.6749  0.0587  2.3781
  691MOL0     H93271   8.096   4.431   5.873 -0.4066 -0.5889 -0.3429
  691MOL0     H93272   8.191   4.218   5.894  2.2832 -1.5478  0.0159
  691MOL0     H93273   8.362   3.804   5.898 -1.0694  1.4121  1.4874
  691MOL0     H93274   8.552   3.647   5.883  2.2422  0.0445  1.4463
  691MOL0     H93275   8.960   3.713   5.997 -1.8856  1.5810  0.3774
  691MOL0     H93276   8.899   3.701   6.165  0.2540  1.5105  0.2636
  691MOL0     H93277   8.903   3.447   6.107  0.5515  1.2673  3.0323
  691MOL0     H93278   9.061   3.519   6.131  0.8446 -1.5273  0.6222
  691MOL0     H93279   9.037   3.538   5.851  0.9969 -1.3291 -0.8655
  691MOL0     H93280   8.891   3.449   5.867  0.5005 -0.5057 -0.6378
  691MOL0     H93281   9.068   3.269   5.976 -0.2941  0.5577  0.3813
  691MOL0     H93282   9.186   3.399   5.938  0.3879 -0.4119 -2.5205
  691MOL0     H93283   9.065   3.234   5.557  1.5327  0.9979 -1.7332
  691MOL0     H93284   8.789   3.873   6.134  0.8311  0.9648 -0.0543
  691MOL0     H93285   8.616   4.043   6.146  3.1451  0.1559 -0.4199
  692MOL0     O93286   1.116   5.095   3.623  0.5140  0.3632  0.4198
  692MOL0     C93287   1.065   5.005   3.554  0.6016 -0.7719 -0.0416
  692MOL0     O93288   0.939   5.002   3.497  0.0166 -0.2581 -0.5697
  692MOL0     C93289   0.856   5.107   3.541 -0.9068  0.4792  0.0616
  692MOL0     C93290   0.808   5.136   3.667  0.2636 -0.2287 -0.1096
  692MOL0     C93291   0.718   5.239   3.689 -0.3663  0.5458 -0.4367
  692MOL0     C93292   0.646   5.294   3.580 -0.1290 -0.2262  0.0552
  692MOL0     O93293   0.545   5.389   3.588 -0.2950  0.4529 -0.7291
  692MOL0     C93294   0.493   5.419   3.719 -0.3965  0.4725  0.0020
  692MOL0     C93295   0.379   5.510   3.715  0.1092  0.6942 -0.3278
  692MOL0     C93296   0.415   5.647   3.664 -0.2149  0.4815 -1.2511
  692MOL0     C93297   0.291   5.737   3.698  0.4421 -0.3642  0.5095
  692MOL0     C93298   0.309   5.887   3.659 -0.4034 -0.0844 -0.6858
  692MOL0     C93299   0.321   5.920   3.509  0.2986 -0.1096  0.2474
  692MOL0     C93300   0.182   5.914   3.432  0.1918  0.8524 -0.6710
  692MOL0     C93301   0.061   5.977   3.509 -0.4149 -0.4872 -0.0593
  692MOL0     N93302  -0.056   5.949   3.435  0.2688  0.3525  0.2259
  692MOL0     C93303  -0.131   5.832   3.459 -0.7573 -0.4044 -0.1574
  692MOL0     C93304  -0.254   5.847   3.401  0.1839 -0.8708  0.2625
  692MOL0     C93305  -0.366   5.746   3.404 -0.2338  0.5335 -0.5892
  692MOL0     C93306  -0.482   5.794   3.478  0.6871 -0.3277  0.3302
  692MOL0     C93307  -0.560   5.889   3.393  0.0539 -0.2438  0.5892
  692MOL0     C93308  -0.714   5.887   3.391 -0.7474 -0.6550 -0.1995
  692MOL0     O93309  -0.764   5.768   3.322  0.5797 -0.2041  0.1355
  692MOL0     C93310  -0.904   5.744   3.329 -0.1860  0.5777 -0.1645
  692MOL0     C93311  -0.943   5.652   3.227  0.7149  0.4725 -0.1650
  692MOL0     C93312  -1.080   5.609   3.223 -0.6927 -0.4255  0.2887
  692MOL0     C93313  -1.126   5.512   3.111 -0.1919  0.1885  0.4697
  692MOL0     C93314  -1.175   5.660   3.314 -0.2578  0.2718  0.0170
  692MOL0     C93315  -1.327   5.638   3.303  0.2011 -0.4634  0.3984
  692MOL0     O93316  -1.384   5.589   3.185  0.0509 -0.2087  0.5192
  692MOL0     C93317  -1.521   5.561   3.195  0.5135 -0.2523  0.4044
  692MOL0     C93318  -1.560   5.426   3.184 -0.0225 -0.6812  0.3531
  692MOL0     C93319  -1.697   5.389   3.178 -0.5082  0.2554 -0.6159
  692MOL0     C93320  -1.789   5.488   3.181 -0.0833 -0.9955  0.0537
  692MOL0     O93321  -1.919   5.450   3.194 -0.1950  0.0521 -0.7959
  692MOL0     C93322  -2.025   5.539   3.158 -0.7205 -0.6883 -0.3001
  692MOL0     C93323  -2.042   5.540   3.006  0.6796  0.2068  0.9821
  692MOL0     C93324  -2.152   5.641   2.968  0.0874  0.1561 -0.4765
  692MOL0     C93325  -2.289   5.571   2.971 -0.6015 -0.5892 -0.6153
  692MOL0     C93326  -2.398   5.679   2.967  0.4496 -0.9516 -0.1000
  692MOL0     C93327  -2.534   5.615   2.961 -0.4437 -0.4282 -0.5788
  692MOL0     C93328  -2.588   5.595   3.103 -0.0515  0.6181 -0.1204
  692MOL0     C93329  -2.728   5.530   3.106 -0.0036 -0.1594 -0.4592
  692MOL0    Cl93330  -2.855   5.646   3.076 -0.1315 -0.2834  0.1470
  692MOL0     C93331  -1.748   5.625   3.187 -0.1544 -0.9036 -0.2987
  692MOL0     C93332  -1.616   5.664   3.192 -0.0715 -0.0883  0.0234
  692MOL0     O93333  -1.395   5.674   3.392  0.0359  0.2281 -0.0603
  692MOL0     C93334  -1.131   5.734   3.430  0.5569  0.0001  0.5983
  692MOL0     C93335  -0.997   5.781   3.432  0.1086  0.1383  0.1735
  692MOL0     N93336  -0.258   5.980   3.359  0.2473  0.4822 -0.5899
  692MOL0     N93337  -0.147   6.039   3.386  0.2441  0.5417  0.1099
  692MOL0     C93338   0.691   5.262   3.451  1.1745  0.3329 -0.3132
  692MOL0     C93339   0.793   5.161   3.432  0.5205  0.1204  0.0764
  692MOL0     C93340   1.157   4.901   3.509 -0.4859 -0.0929  0.5321
  692MOL0     C93341   1.115   4.801   3.424 -0.9636 -0.8571 -0.5018
  692MOL0     C93342   1.202   4.716   3.357 -1.0436 -0.0717  0.0226
  692MOL0     C93343   1.339   4.720   3.374  0.0249 -0.1827  1.1634
  692MOL0     O93344   1.417   4.622   3.312  0.0967 -0.4191  0.2721
  692MOL0     C93345   1.563   4.630   3.302  1.0718 -0.7188 -0.3088
  692MOL0     C93346   1.596   4.496   3.238  0.5816 -0.6082  0.5476
  692MOL0     C93347   1.606   4.511   3.089  0.2767  0.1720  0.7823
  692MOL0     C93348   1.616   4.376   3.010  0.0903  0.3697  0.5485
  692MOL0     C93349   1.626   4.397   2.870  0.7469 -0.9029  0.4255
  692MOL0     C93350   1.622   4.440   2.754 -0.0620 -0.6963 -0.1842
  692MOL0     C93351   1.391   4.817   3.464  0.9157  0.7783  0.1369
  692MOL0     C93352   1.301   4.897   3.533 -0.2087  0.2850  0.5147
  692MOL0     H93353   0.855   5.110   3.761  1.0275 -0.3826 -0.5249
  692MOL0     H93354   0.696   5.253   3.795  2.3035 -3.3672  0.8912
  692MOL0     H93355   0.462   5.326   3.767  1.5255 -0.1331  0.1693
  692MOL0     H93356   0.571   5.460   3.784  0.7668 -2.1115  0.3593
  692MOL0     H93357   0.298   5.467   3.656  0.8470  1.0082 -1.6218
  692MOL0     H93358   0.349   5.530   3.818 -0.3286  1.1958 -0.5491
  692MOL0     H93359   0.496   5.700   3.716  0.3331 -0.0274 -1.5812
  692MOL0     H93360   0.434   5.643   3.557  0.0529  3.5862 -1.4110
  692MOL0     H93361   0.207   5.701   3.638  3.6860 -3.8825 -2.4383
  692MOL0     H93362   0.267   5.727   3.804  1.4458  1.0526  0.9006
  692MOL0     H93363   0.240   5.956   3.709  1.3310  1.2635 -0.0244
  692MOL0     H93364   0.407   5.914   3.701  1.6609 -4.0503 -2.3683
  692MOL0     H93365   0.360   6.022   3.495  2.2510  0.2247  5.8946
  692MOL0     H93366   0.390   5.855   3.456  1.5388  1.8600 -0.6925
  692MOL0     H93367   0.196   5.960   3.334 -1.9602 -1.1059 -1.9987
  692MOL0     H93368   0.163   5.808   3.416 -1.9175  0.8670  1.1005
  692MOL0     H93369   0.070   6.086   3.517 -1.2645 -0.3556 -0.7693
  692MOL0     H93370   0.063   5.937   3.611 -0.6182  0.0389  0.1615
  692MOL0     H93371  -0.096   5.744   3.513  2.6488  0.1886 -1.1103
  692MOL0     H93372  -0.390   5.723   3.300 -0.0064  2.6101 -1.1416
  692MOL0     H93373  -0.328   5.658   3.457 -1.0174  1.0713  0.9399
  692MOL0     H93374  -0.452   5.825   3.578  2.7990  0.6528 -0.5387
  692MOL0     H93375  -0.544   5.705   3.493 -2.0458  1.9541  5.0103
  692MOL0     H93376  -0.533   5.881   3.287 -0.9013  1.3874  0.1719
  692MOL0     H93377  -0.536   5.990   3.428 -2.7931  1.9186 -2.9579
  692MOL0     H93378  -0.753   5.971   3.332  0.5581  0.0503 -0.0918
  692MOL0     H93379  -0.751   5.901   3.493 -1.1172  0.4748 -0.4751
  692MOL0     H93380  -0.859   5.638   3.159  0.7966  3.4918 -0.8555
  692MOL0     H93381  -1.167   5.559   3.021  1.6274  2.3074  0.6717
  692MOL0     H93382  -1.038   5.452   3.087  0.4458  0.6982  1.4552
  692MOL0     H93383  -1.199   5.435   3.137  0.0199 -0.1507  0.0737
  692MOL0     H93384  -1.493   5.340   3.182 -1.6034 -1.9952  1.2461
  692MOL0     H93385  -1.731   5.286   3.176  0.6875 -0.2257  1.3923
  692MOL0     H93386  -2.108   5.495   3.214  2.0428 -3.3289  2.0639
  692MOL0     H93387  -2.009   5.637   3.204 -0.5877 -1.1252  0.6073
  692MOL0     H93388  -1.948   5.568   2.959 -0.0467  1.0542 -0.0310
  692MOL0     H93389  -2.066   5.443   2.960 -1.2822  1.6100 -1.2342
  692MOL0     H93390  -2.133   5.690   2.872  0.8001  1.4362  0.2847
  692MOL0     H93391  -2.147   5.723   3.040 -1.9353 -0.7936  0.8346
  692MOL0     H93392  -2.298   5.511   2.880 -1.0086 -2.4780  0.6323
  692MOL0     H93393  -2.292   5.508   3.060  0.9520 -1.0642 -0.8658
  692MOL0     H93394  -2.384   5.736   2.875 -1.7510  2.1307  1.3087
  692MOL0     H93395  -2.385   5.749   3.049  1.2193 -0.7849 -0.3574
  692MOL0     H93396  -2.606   5.679   2.910  0.6310  1.1928 -0.1390
  692MOL0     H93397  -2.528   5.518   2.911  1.5139 -1.1614  0.9456
  692MOL0     H93398  -2.589   5.682   3.170  0.6622  0.7198 -0.2390
  692MOL0     H93399  -2.521   5.519   3.143  1.0326  1.0513 -1.0725
  692MOL0     H93400  -2.750   5.494   3.207  1.1262 -3.8044 -1.3643
  692MOL0     H93401  -2.735   5.444   3.039  1.3554  2.8475 -4.9321
  692MOL0     H93402  -1.816   5.709   3.199  0.9041 -0.3194  2.3038
  692MOL0     H93403  -1.598   5.768   3.218  3.0146 -0.1633 -1.4128
  692MOL0     H93404  -1.202   5.772   3.503  0.4754 -0.2730  0.6606
  692MOL0     H93405  -0.956   5.847   3.507  3.5178  1.1839 -2.3754
  692MOL0     H93406   0.643   5.316   3.370  1.4225 -0.9176 -1.3368
  692MOL0     H93407   0.823   5.151   3.328 -0.9345  1.9862 -0.5969
  692MOL0     H93408   1.009   4.793   3.402 -1.0157  1.7117 -1.5137
  692MOL0     H93409   1.161   4.642   3.289  0.8463 -2.3057  1.1619
  692MOL0     H93410   1.594   4.705   3.229 -0.4947  0.2547 -0.0151
  692MOL0     H93411   1.608   4.650   3.399  0.5948  0.2465 -0.2735
  692MOL0     H93412   1.526   4.417   3.267  0.8068 -0.9051  0.2960
  692MOL0     H93413   1.698   4.487   3.278  0.5077  1.2370  1.2127
  692MOL0     H93414   1.691   4.572   3.057 -2.5039  2.3731 -3.4001
  692MOL0     H93415   1.521   4.571   3.054  0.5238  0.4981  0.7388
  692MOL0     H93416   1.530   4.310   3.026 -1.6677  2.0364 -1.5236
  692MOL0     H93417   1.710   4.325   3.035 -0.6107 -0.7157  1.0493
  692MOL0     H93418   1.624   4.468   2.650  1.0077  0.0837  0.0256
  692MOL0     H93419   1.497   4.821   3.488  0.5344  0.5788  1.9934
  692MOL0     H93420   1.341   4.959   3.613  2.7513 -0.3952 -0.3191
  693MOL0     O93421   1.861  10.668   0.991  0.2891 -0.0106 -0.7013
  693MOL0     C93422   1.946  10.589   0.964 -0.0952  0.1664  0.8526
  693MOL0     O93423   1.949  10.458   1.005  0.4504 -0.3885  0.5564
  693MOL0     C93424   1.843  10.380   1.021  1.6924 -1.0618  0.2032
  693MOL0     C93425   1.716  10.400   0.963 -0.7934 -0.4281 -0.3158
  693MOL0     C93426   1.612  10.313   0.986 -0.4148  0.1230 -0.0826
  693MOL0     C93427   1.624  10.198   1.063 -0.3833 -0.4705 -0.1063
  693MOL0     O93428   1.542  10.093   1.042  0.5969 -1.0802 -0.2610
  693MOL0     C93429   1.413  10.118   1.100 -0.5043  0.5131 -0.0093
  693MOL0     C93430   1.334   9.997   1.051 -0.6308 -0.5003 -0.6095
  693MOL0     C93431   1.408   9.873   1.097  0.3779  0.2129  0.1025
  693MOL0     C93432   1.314   9.747   1.083 -0.0995  0.4414 -0.0628
  693MOL0     C93433   1.229   9.719   1.215  0.0153 -0.3979 -0.2981
  693MOL0     C93434   1.163   9.585   1.192 -0.7217 -0.7298 -0.8519
  693MOL0     C93435   1.032   9.590   1.114 -0.4063 -0.3355 -0.3966
  693MOL0     C93436   0.913   9.644   1.198  0.5237  0.1776 -0.0536
  693MOL0     N93437   0.784   9.626   1.127 -0.1250  0.4810 -0.0776
  693MOL0     C93438   0.696   9.527   1.144  0.6917 -0.0626  0.1006
  693MOL0     C93439   0.578   9.556   1.085  0.8447  0.3188  0.9145
  693MOL0     C93440   0.468   9.457   1.080 -0.3441 -0.6203  0.3864
  693MOL0     C93441   0.354   9.495   0.985  0.1545 -0.3433  0.4679
  693MOL0     C93442   0.389   9.497   0.839 -0.1625 -0.5057 -0.6336
  693MOL0     C93443   0.266   9.532   0.751 -0.3949 -0.5683  0.4352
  693MOL0     O93444   0.299   9.540   0.610 -0.8308 -0.1094 -0.3025
  693MOL0     C93445   0.187   9.542   0.521  0.7952 -0.5521 -0.4112
  693MOL0     C93446   0.211   9.530   0.380  0.6850  0.1859  0.6334
  693MOL0     C93447   0.112   9.548   0.280 -0.2431  0.0592 -0.0901
  693MOL0     C93448   0.160   9.572   0.132 -0.4117 -0.0389  0.3181
  693MOL0     C93449  -0.025   9.548   0.322 -0.3975  0.1655 -0.3972
  693MOL0     C93450  -0.135   9.564   0.231 -1.3792  0.8585 -0.6796
  693MOL0     O93451  -0.255   9.522   0.278  0.0760 -0.4656  0.2924
  693MOL0     C93452  -0.359   9.553   0.200  0.7085 -0.4456  1.2488
  693MOL0     C93453  -0.413   9.684   0.205 -0.0735  0.5245 -0.1331
  693MOL0     C93454  -0.531   9.730   0.145 -0.1125  0.3025  0.6384
  693MOL0     C93455  -0.611   9.631   0.081  0.3752 -0.5938 -0.1276
  693MOL0     O93456  -0.733   9.665   0.016 -0.6809 -0.4047  0.7624
  693MOL0     C93457  -0.737   9.636  -0.122 -1.3989  0.3694 -0.3609
  693MOL0     C93458  -0.863   9.701  -0.182  0.2610 -1.0688  0.4874
  693MOL0     C93459  -0.879   9.671  -0.328  0.4265  0.2209  0.4705
  693MOL0     C93460  -0.802   9.779  -0.414 -0.1085  0.7557 -0.6053
  693MOL0     C93461  -0.771   9.728  -0.555 -0.0021 -0.3273  0.1247
  693MOL0     C93462  -0.663   9.612  -0.555  0.3811  0.3700  0.1182
  693MOL0     C93463  -0.591   9.593  -0.690  0.2176 -0.0245 -0.2513
  693MOL0     C93464  -0.482   9.490  -0.682  0.3627  0.9406  0.2282
  693MOL0    Cl93465  -0.359   9.527  -0.546 -0.0601  0.2798  0.4245
  693MOL0     C93466  -0.570   9.496   0.086 -0.5158  0.0662  0.2988
  693MOL0     C93467  -0.451   9.459   0.143 -0.1761  0.5141 -0.4069
  693MOL0     O93468  -0.114   9.616   0.123 -0.6143 -0.7112  0.1681
  693MOL0     C93469  -0.050   9.563   0.462  0.2517 -0.0142 -0.1006
  693MOL0     C93470   0.053   9.564   0.558 -0.9389 -0.3220  0.1874
  693MOL0     N93471   0.596   9.674   1.022  0.1795  0.3542  0.0084
  693MOL0     N93472   0.714   9.717   1.061 -0.5104 -1.1081  1.4942
  693MOL0     C93473   1.749  10.176   1.117 -0.4429  0.4749 -0.2798
  693MOL0     C93474   1.862  10.266   1.102  0.2786  0.9034  0.4883
  693MOL0     C93475   2.055  10.637   0.878  0.2178 -0.2526 -0.3404
  693MOL0     C93476   2.098  10.570   0.758  0.6946 -0.0107 -0.3497
  693MOL0     C93477   2.190  10.625   0.681 -0.2528 -1.0221  0.1403
  693MOL0     C93478   2.263  10.734   0.721 -0.2861 -0.1435 -0.7251
  693MOL0     O93479   2.372  10.786   0.675 -0.1535 -0.7687  0.8317
  693MOL0     C93480   2.435  10.732   0.557 -0.3822 -0.0457  1.1303
  693MOL0     C93481   2.565  10.821   0.528 -0.6422 -0.2327  0.1215
  693MOL0     C93482   2.611  10.818   0.377 -0.3416 -0.4177 -0.0184
  693MOL0     C93483   2.721  10.916   0.332 -0.5970 -0.0753  0.1605
  693MOL0     C93484   2.833  10.900   0.417 -0.1322 -0.1585 -1.1011
  693MOL0     C93485   2.932  10.894   0.483 -0.1916 -0.8937 -0.6778
  693MOL0     C93486   2.236  10.798   0.843 -0.0118  0.4753  0.2136
  693MOL0     C93487   2.126  10.751   0.915  0.3905  0.0867  0.7347
  693MOL0     H93488   1.696  10.489   0.905 -3.4334 -0.1534  0.8831
  693MOL0     H93489   1.517  10.327   0.934  0.6475 -0.2935 -2.2573
  693MOL0     H93490   1.411  10.130   1.209 -0.0839 -2.3710  0.3984
  693MOL0     H93491   1.369  10.208   1.057  2.3837  2.8638  1.5746
  693MOL0     H93492   1.234   9.997   1.096 -0.8642  1.1988 -1.0381
  693MOL0     H93493   1.332   9.997   0.942  0.4481  1.3069 -0.6700
  693MOL0     H93494   1.496   9.855   1.034 -0.9797 -3.6525 -0.9543
  693MOL0     H93495   1.443   9.877   1.200  0.7065 -3.1699  0.2493
  693MOL0     H93496   1.254   9.754   0.991 -0.4489 -1.2093 -0.0012
  693MOL0     H93497   1.377   9.661   1.059 -2.4383 -1.0043 -1.5301
  693MOL0     H93498   1.297   9.715   1.300  0.8922 -0.6795 -0.9961
  693MOL0     H93499   1.154   9.797   1.231 -2.2841 -2.8878  2.0253
  693MOL0     H93500   1.235   9.515   1.149  1.0735  0.6060 -0.1295
  693MOL0     H93501   1.138   9.539   1.288  0.5828 -0.6460 -0.4567
  693MOL0     H93502   1.041   9.643   1.019  0.5043  2.5822  1.1810
  693MOL0     H93503   1.004   9.485   1.114 -1.6083 -0.2262  4.0981
  693MOL0     H93504   0.927   9.749   1.227 -0.3257 -0.7562  4.6621
  693MOL0     H93505   0.910   9.587   1.292 -1.1081  0.9361  0.3823
  693MOL0     H93506   0.712   9.436   1.202  0.5122  1.2662  2.3511
  693MOL0     H93507   0.520   9.365   1.050 -0.7330 -1.2376  1.5356
  693MOL0     H93508   0.423   9.441   1.178  1.0521  0.7880  1.3059
  693MOL0     H93509   0.324   9.594   1.022  0.1542 -0.5212  0.9571
  693MOL0     H93510   0.272   9.423   0.995 -1.7861  1.5476 -0.9218
  693MOL0     H93511   0.433   9.401   0.810 -0.7363 -1.0365  0.2228
  693MOL0     H93512   0.457   9.582   0.826 -0.5497  0.0662  0.9103
  693MOL0     H93513   0.210   9.619   0.787  0.7279  0.4945 -0.3106
  693MOL0     H93514   0.203   9.443   0.763 -1.1958 -0.2912 -1.3126
  693MOL0     H93515   0.311   9.498   0.351 -0.0017 -1.7412  0.3245
  693MOL0     H93516   0.103   9.506   0.065 -2.8263  2.4049 -0.2255
  693MOL0     H93517   0.144   9.675   0.097 -2.7114  0.8848  3.6370
  693MOL0     H93518   0.267   9.566   0.109 -0.9270 -1.7965 -2.0559
  693MOL0     H93519  -0.355   9.757   0.261 -0.2884  1.8043 -1.5184
  693MOL0     H93520  -0.569   9.831   0.156 -0.6611  0.2360 -0.5055
  693MOL0     H93521  -0.639   9.661  -0.164  0.3442 -0.2590  3.0112
  693MOL0     H93522  -0.747   9.529  -0.141 -0.0403 -0.0112  0.9269
  693MOL0     H93523  -0.941   9.659  -0.118 -0.4094 -0.3658  0.1471
  693MOL0     H93524  -0.870   9.807  -0.157  0.5941 -0.9568  0.1094
  693MOL0     H93525  -0.982   9.679  -0.365  0.0434 -0.0661  1.4479
  693MOL0     H93526  -0.844   9.569  -0.345  0.1968  0.1479  0.4230
  693MOL0     H93527  -0.859   9.871  -0.397 -0.7274  0.4126 -0.8119
  693MOL0     H93528  -0.708   9.796  -0.360 -0.3734 -0.0743  0.1567
  693MOL0     H93529  -0.712   9.809  -0.597  1.9891 -0.7280  1.9915
  693MOL0     H93530  -0.861   9.706  -0.613 -0.7900  2.0650  0.3285
  693MOL0     H93531  -0.589   9.629  -0.477 -0.3638 -1.4162  1.2574
  693MOL0     H93532  -0.726   9.526  -0.533  2.0861 -0.8852  0.2622
  693MOL0     H93533  -0.536   9.684  -0.718  2.0542 -0.9294  0.3072
  693MOL0     H93534  -0.663   9.574  -0.771 -0.7627  2.6479 -0.1410
  693MOL0     H93535  -0.442   9.468  -0.782 -3.5692 -2.8562 -0.8289
  693MOL0     H93536  -0.531   9.396  -0.653 -2.4293  1.7998 -1.3395
  693MOL0     H93537  -0.624   9.412   0.043 -0.9918  1.1481 -1.3298
  693MOL0     H93538  -0.442   9.350   0.141 -1.1010  0.4278 -1.7749
  693MOL0     H93539  -0.152   9.570   0.498  0.7746 -1.2337  1.7131
  693MOL0     H93540   0.030   9.599   0.658  0.5635  4.8841 -0.9850
  693MOL0     H93541   1.771  10.079   1.161  3.5374  1.7541  0.9472
  693MOL0     H93542   1.957  10.240   1.148 -0.9598 -3.0382  1.2006
  693MOL0     H93543   2.039  10.484   0.726  0.5145  0.1405 -0.4218
  693MOL0     H93544   2.218  10.580   0.586 -1.5998  0.7309 -1.1605
  693MOL0     H93545   2.454  10.626   0.573 -3.5627 -1.3687 -2.4723
  693MOL0     H93546   2.377  10.740   0.465  0.4334  1.4335  0.7156
  693MOL0     H93547   2.646  10.773   0.583 -0.4393 -0.5092 -0.4111
  693MOL0     H93548   2.546  10.922   0.566 -4.9088 -0.0514 -1.8631
  693MOL0     H93549   2.520  10.847   0.324 -0.4666  0.6948  0.7772
  693MOL0     H93550   2.631  10.714   0.347 -2.4126 -0.7422 -0.4245
  693MOL0     H93551   2.671  11.013   0.340  0.3909  0.5221 -0.6904
  693MOL0     H93552   2.754  10.900   0.229  0.6375  0.2629  0.4967
  693MOL0     H93553   3.019  10.899   0.546 -2.0003  1.9766  1.8780
  693MOL0     H93554   2.270  10.899   0.859  0.7097  0.9294 -3.2658
  693MOL0     H93555   2.100  10.806   1.004 -2.4012  1.8781 -1.0124
  694MOL0     O93556   0.197  10.247   0.883  0.0487 -0.7283 -0.1813
  694MOL0     C93557   0.171  10.352   0.938  0.1591 -0.0962  0.2037
  694MOL0     O93558   0.062  10.382   1.011  0.3810  0.1929 -0.1569
  694MOL0     C93559  -0.057  10.321   0.992  0.2552  0.4108 -0.2232
  694MOL0     C93560  -0.104  10.270   0.870  0.4314  0.0280  0.2057
  694MOL0     C93561  -0.236  10.218   0.848  1.0093 -0.4723  0.3666
  694MOL0     C93562  -0.323  10.201   0.956 -0.4418  0.3059 -0.7430
  694MOL0     O93563  -0.453  10.157   0.949  0.1158 -0.2487 -1.0611
  694MOL0     C93564  -0.531  10.127   0.834  0.0275 -0.2163 -0.5672
  694MOL0     C93565  -0.659  10.066   0.883 -0.4052 -0.2463 -0.8913
  694MOL0     C93566  -0.757  10.055   0.768  0.0974 -0.2403  0.7605
  694MOL0     C93567  -0.820  10.189   0.721  0.3552 -0.1719  0.3049
  694MOL0     C93568  -0.917  10.256   0.827 -0.8262 -0.5551  0.7055
  694MOL0     C93569  -1.062  10.227   0.791 -0.1389 -0.4732  0.1286
  694MOL0     C93570  -1.151  10.275   0.909 -0.2055  0.5810 -0.4748
  694MOL0     C93571  -1.232  10.398   0.865  0.2439  0.1747 -1.1406
  694MOL0     N93572  -1.342  10.376   0.768  0.3578 -0.2668 -0.1903
  694MOL0     C93573  -1.424  10.259   0.751  0.0787 -0.2616 -0.1436
  694MOL0     C93574  -1.500  10.287   0.640  0.0476  0.5028  0.1866
  694MOL0     C93575  -1.617  10.204   0.593 -1.0353  0.1766  0.3929
  694MOL0     C93576  -1.752  10.271   0.626  0.2801  0.6805  0.4665
  694MOL0     C93577  -1.828  10.333   0.508 -0.5367  0.4517  1.1236
  694MOL0     C93578  -1.977  10.344   0.547  0.6242  0.7047  0.3930
  694MOL0     O93579  -2.036  10.211   0.553 -0.0319  0.6445  0.1516
  694MOL0     C93580  -2.156  10.190   0.621  0.2516 -0.1452  0.3431
  694MOL0     C93581  -2.178  10.062   0.664 -0.3350  0.7488 -0.1650
  694MOL0     C93582  -2.298  10.031   0.717 -0.3122 -0.1914 -0.3425
  694MOL0     C93583  -2.306   9.893   0.763 -0.2715  0.7871 -0.1108
  694MOL0     C93584  -2.400  10.125   0.715 -0.0271  0.2286 -0.7316
  694MOL0     C93585  -2.540  10.083   0.747 -0.0711 -0.2773 -0.2579
  694MOL0     O93586  -2.583   9.977   0.677  0.0492  0.4926  0.2617
  694MOL0     C93587  -2.713   9.931   0.692  0.2912 -0.9937  0.9610
  694MOL0     C93588  -2.717   9.794   0.729  0.2968  0.1998 -0.1682
  694MOL0     C93589  -2.843   9.729   0.734 -0.0495  0.4899  0.6732
  694MOL0     C93590  -2.966   9.791   0.704 -0.2810 -0.5625 -0.2286
  694MOL0     O93591  -3.087   9.733   0.725 -0.0821  0.2280 -0.1029
  694MOL0     C93592  -3.095   9.609   0.796  1.0180 -0.0404  0.1853
  694MOL0     C93593  -3.243   9.567   0.807 -0.0670  0.4895 -0.4271
  694MOL0     C93594  -3.315   9.543   0.679 -0.2258  0.2295  0.0283
  694MOL0     C93595  -3.458   9.508   0.704  1.0914  1.5141 -0.6175
  694MOL0     C93596  -3.555   9.626   0.720 -0.2296 -0.3017 -0.1734
  694MOL0     C93597  -3.687   9.587   0.785 -0.3792  0.2634  0.3074
  694MOL0     C93598  -3.667   9.571   0.933  0.2199  0.5880 -0.7385
  694MOL0     C93599  -3.787   9.620   1.020 -0.2098 -0.5738 -0.1674
  694MOL0    Cl93600  -3.807   9.793   0.995 -0.4144 -0.2265  0.1889
  694MOL0     C93601  -2.952   9.923   0.642 -0.6268 -0.4605 -0.2109
  694MOL0     C93602  -2.825   9.990   0.634 -0.2512 -0.0679  0.4008
  694MOL0     O93603  -2.605  10.156   0.819  0.6568  0.1778 -0.3934
  694MOL0     C93604  -2.368  10.266   0.700  0.0411  0.2280 -0.8404
  694MOL0     C93605  -2.246  10.305   0.650  0.3582 -0.1339 -0.5123
  694MOL0     N93606  -1.474  10.413   0.589  0.3253  0.4351  0.0777
  694MOL0     N93607  -1.375  10.454   0.655  0.0209 -0.3588 -0.6494
  694MOL0     C93608  -0.282  10.257   1.079 -0.1283 -0.5645 -0.2057
  694MOL0     C93609  -0.152  10.306   1.097 -0.0481 -0.6981 -0.0111
  694MOL0     C93610   0.283  10.445   0.954  0.6204 -0.2766 -0.2973
  694MOL0     C93611   0.396  10.448   0.867  0.0152  0.2661 -0.2677
  694MOL0     C93612   0.507  10.529   0.904 -0.2349 -0.3471  0.5082
  694MOL0     C93613   0.500  10.621   1.005 -0.2605  0.2004 -0.0726
  694MOL0     O93614   0.620  10.674   1.048 -0.3866 -0.7848  1.4392
  694MOL0     C93615   0.603  10.800   1.120 -0.5795  0.2435  0.3092
  694MOL0     C93616   0.560  10.918   1.029 -0.3058  0.5721 -0.2861
  694MOL0     C93617   0.646  10.939   0.909 -0.0567 -0.5261  0.1897
  694MOL0     C93618   0.604  11.066   0.841  0.7387 -0.4464 -0.1048
  694MOL0     C93619   0.705  11.116   0.743  0.3272  0.0620 -0.4649
  694MOL0     C93620   0.778  11.162   0.664  0.4115 -0.4877 -0.5437
  694MOL0     C93621   0.385  10.621   1.085 -0.4822 -0.3715  0.9510
  694MOL0     C93622   0.276  10.540   1.051  0.1644  0.9220 -0.5654
  694MOL0     H93623  -0.040  10.273   0.782  0.5399 -0.1362  0.2776
  694MOL0     H93624  -0.266  10.181   0.751  3.0284  1.3292 -1.0387
  694MOL0     H93625  -0.542  10.221   0.780 -0.8180  1.0740  1.7039
  694MOL0     H93626  -0.478  10.054   0.773  1.3977 -1.1059  1.5679
  694MOL0     H93627  -0.642   9.962   0.915 -3.3455 -0.0519  1.7876
  694MOL0     H93628  -0.703  10.124   0.965 -0.8889  1.6318 -2.4190
  694MOL0     H93629  -0.704  10.015   0.681 -4.7381  1.2090 -3.3293
  694MOL0     H93630  -0.839   9.984   0.781 -1.4679  1.0590 -1.3121
  694MOL0     H93631  -0.738  10.258   0.697 -1.4840  0.8547 -3.9481
  694MOL0     H93632  -0.869  10.175   0.624  3.2411  0.2524 -1.3480
  694MOL0     H93633  -0.887  10.237   0.930 -0.3627  0.2241  0.7187
  694MOL0     H93634  -0.905  10.363   0.810  3.5854 -1.0772 -0.6262
  694MOL0     H93635  -1.094  10.281   0.702  0.2309  0.0783  0.3307
  694MOL0     H93636  -1.078  10.119   0.782  0.3652 -0.9521  3.7579
  694MOL0     H93637  -1.216  10.194   0.942 -0.3602  1.4631  1.4821
  694MOL0     H93638  -1.081  10.309   0.985 -0.4318  1.8610 -0.8230
  694MOL0     H93639  -1.166  10.472   0.819 -1.0833  0.9519 -1.8685
  694MOL0     H93640  -1.266  10.444   0.959  3.3916 -0.3748  0.4156
  694MOL0     H93641  -1.429  10.175   0.820  0.2234 -0.3994 -0.3019
  694MOL0     H93642  -1.616  10.168   0.490 -4.4217  1.1632 -0.1069
  694MOL0     H93643  -1.611  10.114   0.655 -0.4841  1.3436  2.1060
  694MOL0     H93644  -1.738  10.341   0.709 -2.1520  0.9693  0.7043
  694MOL0     H93645  -1.815  10.189   0.661  2.0664 -0.8452  0.2897
  694MOL0     H93646  -1.806  10.283   0.413 -0.1048 -0.0055  1.4632
  694MOL0     H93647  -1.787  10.434   0.496  2.9240 -1.0283 -0.8030
  694MOL0     H93648  -2.036  10.397   0.471  0.5312  0.0208 -0.0233
  694MOL0     H93649  -1.982  10.396   0.642  2.2121  0.1910  0.7839
  694MOL0     H93650  -2.098   9.997   0.630  0.4351  1.6851 -0.2096
  694MOL0     H93651  -2.358   9.890   0.859  1.9869 -0.5185  1.1483
  694MOL0     H93652  -2.361   9.841   0.684  1.9980 -0.8758 -0.7240
  694MOL0     H93653  -2.207   9.848   0.778 -0.0794 -0.1592 -3.3485
  694MOL0     H93654  -2.624   9.742   0.750  0.0208 -0.4495 -0.5532
  694MOL0     H93655  -2.844   9.624   0.762 -0.0597  0.0793 -0.8035
  694MOL0     H93656  -3.044   9.530   0.740 -1.5551 -2.7818  1.4230
  694MOL0     H93657  -3.052   9.612   0.896  0.8739 -0.8474  0.2807
  694MOL0     H93658  -3.241   9.473   0.863  0.3693  1.0558  0.5376
  694MOL0     H93659  -3.297   9.635   0.874 -1.1208 -1.7179  1.0809
  694MOL0     H93660  -3.271   9.458   0.626  1.4026  0.8047  0.3856
  694MOL0     H93661  -3.296   9.627   0.612  1.9325 -1.4453 -1.6287
  694MOL0     H93662  -3.496   9.449   0.620  1.2368  3.0725 -1.8317
  694MOL0     H93663  -3.456   9.450   0.796 -0.1559  2.0092 -0.2639
  694MOL0     H93664  -3.567   9.670   0.621  0.7868 -0.5470 -0.4237
  694MOL0     H93665  -3.505   9.703   0.780 -1.6549  1.3219 -0.9956
  694MOL0     H93666  -3.768   9.654   0.753 -0.0423  0.0740 -1.0159
  694MOL0     H93667  -3.724   9.494   0.741 -3.3099  2.5538 -2.6127
  694MOL0     H93668  -3.568   9.606   0.966  0.3967 -1.8926  1.7442
  694MOL0     H93669  -3.653   9.466   0.962  1.4816  0.8992 -0.1612
  694MOL0     H93670  -3.783   9.584   1.123 -2.5074 -2.2858 -0.5886
  694MOL0     H93671  -3.879   9.580   0.976  0.7843 -0.3470 -2.6528
  694MOL0     H93672  -3.041   9.979   0.614 -1.3447 -1.2726  0.3696
  694MOL0     H93673  -2.812  10.092   0.599 -0.0981 -0.7689 -1.6781
  694MOL0     H93674  -2.439  10.343   0.728  0.5859 -1.0160  5.4434
  694MOL0     H93675  -2.212  10.407   0.639 -0.6980  0.3158  0.1813
  694MOL0     H93676  -0.353  10.273   1.160 -1.8306  0.3984 -1.8049
  694MOL0     H93677  -0.120  10.357   1.188  0.0242  2.9978 -1.9523
  694MOL0     H93678   0.407  10.385   0.779  2.3207 -1.5463  1.1782
  694MOL0     H93679   0.606  10.518   0.859 -0.9220 -2.4470 -0.6153
  694MOL0     H93680   0.536  10.789   1.206 -0.8804  0.4104  0.0985
  694MOL0     H93681   0.695  10.836   1.169 -0.3541  1.9462 -1.2325
  694MOL0     H93682   0.565  11.012   1.085  0.4929  1.0314 -1.1084
  694MOL0     H93683   0.457  10.906   0.992 -0.7067  1.6298  0.4245
  694MOL0     H93684   0.632  10.865   0.829 -2.8071 -0.6236  0.6720
  694MOL0     H93685   0.752  10.959   0.927 -0.4056  2.1060 -0.2454
  694MOL0     H93686   0.596  11.150   0.910  1.4913 -1.3447  1.1365
  694MOL0     H93687   0.505  11.053   0.796 -0.1854  2.9763  0.6763
  694MOL0     H93688   0.848  11.196   0.590  1.5310 -2.2744 -0.3649
  694MOL0     H93689   0.382  10.694   1.166  2.8407  0.6757  0.2812
  694MOL0     H93690   0.194  10.541   1.123  1.8170 -1.4515  1.5071
  695MOL0     O93691   3.408   5.692  11.311  0.1743 -0.4726  1.0559
  695MOL0     C93692   3.493   5.612  11.363  0.6722  0.3871  0.0351
  695MOL0     O93693   3.506   5.575  11.499 -0.0819 -0.6128 -0.3418
  695MOL0     C93694   3.405   5.618  11.580  0.4268  0.5636 -0.5856
  695MOL0     C93695   3.347   5.519  11.659 -0.5365 -0.3142  0.0378
  695MOL0     C93696   3.242   5.549  11.748 -0.0258  0.7051  0.1951
  695MOL0     C93697   3.185   5.672  11.754  1.0889 -0.7927 -0.4853
  695MOL0     O93698   3.074   5.674  11.840  0.3306 -0.5501 -0.0296
  695MOL0     C93699   2.994   5.793  11.857  0.1195 -0.7457  0.2962
  695MOL0     C93700   2.885   5.754  11.958 -0.4170  0.0684  0.4301
  695MOL0     C93701   2.782   5.662  11.884  0.5828  0.7460 -0.2730
  695MOL0     C93702   2.796   5.526  11.953 -0.3767 -0.0204  0.3252
  695MOL0     C93703   2.721   5.534  12.086  0.5134 -0.0227 -0.2078
  695MOL0     C93704   2.745   5.412  12.184 -0.3327 -0.1626  0.8101
  695MOL0     C93705   2.716   5.450  12.336 -0.6873  0.6440 -0.0666
  695MOL0     C93706   2.743   5.341  12.444  0.7485 -0.9355 -0.0045
  695MOL0     N93707   2.643   5.233  12.451  0.1628  0.6831  0.8057
  695MOL0     C93708   2.507   5.257  12.457 -0.4280  0.3903 -1.3011
  695MOL0     C93709   2.449   5.145  12.409  0.1029  0.5726 -0.0293
  695MOL0     C93710   2.302   5.129  12.394  0.5013  0.0933  0.7329
  695MOL0     C93711   2.241   5.022  12.494  0.2782 -1.0210  0.6497
  695MOL0     C93712   2.084   5.014  12.507 -0.2488 -0.4903 -0.2742
  695MOL0     C93713   2.026   5.133  12.580  0.3109 -0.5787  0.5885
  695MOL0     O93714   2.015   5.248  12.495 -0.2215 -0.4092 -0.1069
  695MOL0     C93715   1.996   5.366  12.562  0.9616 -1.2837 -0.8822
  695MOL0     C93716   1.966   5.479  12.485 -0.2288 -0.1044  0.8968
  695MOL0     C93717   1.935   5.607  12.531 -0.0494 -0.9055 -0.1402
  695MOL0     C93718   1.888   5.703  12.426  0.0378  0.5776 -0.6010
  695MOL0     C93719   1.958   5.633  12.671 -0.5162  0.8230 -0.9606
  695MOL0     C93720   1.930   5.768  12.731 -0.0797 -0.1355  1.0236
  695MOL0     O93721   1.885   5.768  12.864  0.1838 -0.3384  0.5611
  695MOL0     C93722   1.883   5.881  12.939  0.7057 -0.5356 -0.0397
  695MOL0     C93723   1.811   5.852  13.054  0.1791 -0.1565  0.6099
  695MOL0     C93724   1.793   5.964  13.143 -0.2019  0.0215 -0.9217
  695MOL0     C93725   1.830   6.088  13.118 -0.2566 -0.6363 -0.8363
  695MOL0     O93726   1.776   6.179  13.199 -0.3979 -0.1307 -0.0036
  695MOL0     C93727   1.855   6.289  13.244  0.3623 -0.2905 -0.2993
  695MOL0     C93728   1.761   6.405  13.297  0.7904  0.0155  0.5445
  695MOL0     C93729   1.850   6.520  13.358  0.7843  0.0096  0.5414
  695MOL0     C93730   1.894   6.633  13.260  0.2501  0.0485  0.2101
  695MOL0     C93731   2.021   6.711  13.316 -0.3106 -0.3361 -0.0092
  695MOL0     C93732   1.978   6.800  13.434  0.1234  1.0777  0.3492
  695MOL0     C93733   2.099   6.858  13.496  0.1340  0.1526  0.7513
  695MOL0     C93734   2.073   6.984  13.577 -0.2014  0.1192  0.2300
  695MOL0    Cl93735   2.023   7.123  13.482  0.7407 -0.3761 -0.0569
  695MOL0     C93736   1.904   6.120  13.000 -0.2840 -0.5679  0.2672
  695MOL0     C93737   1.938   6.013  12.917 -0.0358 -0.2674 -1.0223
  695MOL0     O93738   1.943   5.862  12.658  0.1723 -1.0170  0.0063
  695MOL0     C93739   1.994   5.517  12.760  0.7933 -0.4107 -0.0435
  695MOL0     C93740   2.010   5.388  12.701  1.5567 -0.0626  0.3608
  695MOL0     N93741   2.548   5.056  12.377 -0.8835 -0.5569 -0.0941
  695MOL0     N93742   2.661   5.116  12.381  0.1486  0.0440 -0.6415
  695MOL0     C93743   3.242   5.780  11.686 -0.9543 -0.2741  1.6098
  695MOL0     C93744   3.346   5.750  11.599 -0.6679 -0.0692  1.1253
  695MOL0     C93745   3.613   5.563  11.279  0.2398  0.5095 -0.3183
  695MOL0     C93746   3.607   5.576  11.142  1.3069  0.0567 -0.3559
  695MOL0     C93747   3.716   5.548  11.065 -0.1056 -0.2675  0.8887
  695MOL0     C93748   3.825   5.492  11.121  0.0671 -0.0711 -0.2144
  695MOL0     O93749   3.914   5.459  11.023 -0.7576 -0.3200  0.1006
  695MOL0     C93750   4.029   5.403  11.084  0.5365 -0.4066 -0.6324
  695MOL0     C93751   4.138   5.507  11.113 -0.9694 -0.1769  0.8992
  695MOL0     C93752   4.176   5.609  10.995  0.5057 -0.0870  1.3486
  695MOL0     C93753   4.319   5.662  10.980 -0.4181  0.7199 -0.5696
  695MOL0     C93754   4.370   5.727  11.101  0.2533 -0.4373  0.9528
  695MOL0     C93755   4.410   5.772  11.203 -0.4369 -0.0545  0.6495
  695MOL0     C93756   3.834   5.486  11.269  0.4551 -0.1156  0.1026
  695MOL0     C93757   3.723   5.518  11.348  0.2606 -0.0532  0.1265
  695MOL0     H93758   3.387   5.418  11.656  2.2070  0.6803 -0.3284
  695MOL0     H93759   3.207   5.469  11.812  0.9719 -0.9955 -1.3119
  695MOL0     H93760   3.058   5.871  11.899  0.8878 -0.4930 -1.2626
  695MOL0     H93761   2.960   5.824  11.757 -0.4676 -2.1649  0.0291
  695MOL0     H93762   2.929   5.701  12.044 -0.3947 -0.8556 -0.1434
  695MOL0     H93763   2.818   5.838  11.981 -1.2050  1.0644 -4.4561
  695MOL0     H93764   2.679   5.698  11.893  0.5952  0.7630 -0.1979
  695MOL0     H93765   2.809   5.646  11.779  1.5811  0.5951 -0.0096
  695MOL0     H93766   2.765   5.448  11.884  0.1737 -0.2424  0.3235
  695MOL0     H93767   2.898   5.490  11.969 -1.2044 -2.2571  0.9462
  695MOL0     H93768   2.739   5.626  12.143 -0.8057  0.4770 -0.5503
  695MOL0     H93769   2.613   5.542  12.068  0.3152  0.9308  1.2720
  695MOL0     H93770   2.677   5.329  12.162  1.9365 -1.6621 -1.0367
  695MOL0     H93771   2.850   5.382  12.173  0.7788  3.7152 -0.7806
  695MOL0     H93772   2.790   5.526  12.362  0.5419 -0.2568 -0.8166
  695MOL0     H93773   2.614   5.490  12.345 -1.2632 -0.1873 -2.2013
  695MOL0     H93774   2.758   5.391  12.541  1.3950 -1.4361  0.1665
  695MOL0     H93775   2.841   5.294  12.431  1.9651  0.9123  1.7987
  695MOL0     H93776   2.465   5.351  12.490  0.8200  0.6936 -0.5013
  695MOL0     H93777   2.257   5.229  12.391  1.4492  0.5057 -1.7402
  695MOL0     H93778   2.278   5.084  12.297  0.5736 -0.9441  1.1751
  695MOL0     H93779   2.284   5.032  12.594 -1.3768 -0.0067  1.2838
  695MOL0     H93780   2.290   4.935  12.450  3.3750  1.8057 -2.0451
  695MOL0     H93781   2.071   4.927  12.572 -0.3050 -3.0335 -3.3899
  695MOL0     H93782   2.039   4.983  12.412  0.6035  0.6637 -1.0964
  695MOL0     H93783   2.100   5.144  12.659  2.3547  3.5992 -1.5560
  695MOL0     H93784   1.930   5.119  12.630 -0.6263  0.8411 -0.7126
  695MOL0     H93785   1.977   5.461  12.378  0.4179  1.4816  0.6751
  695MOL0     H93786   1.973   5.760  12.388  2.1169 -3.0611 -1.9317
  695MOL0     H93787   1.831   5.660  12.342  2.9464 -0.4171 -2.2255
  695MOL0     H93788   1.813   5.774  12.461 -1.0142  1.3950 -4.0775
  695MOL0     H93789   1.783   5.749  13.073 -0.9933  0.5209  2.9229
  695MOL0     H93790   1.738   5.943  13.234  1.3376 -2.2921 -0.4153
  695MOL0     H93791   1.922   6.257  13.325  1.3535 -0.3823 -1.1307
  695MOL0     H93792   1.921   6.318  13.162  3.6684 -1.0733  1.8764
  695MOL0     H93793   1.702   6.436  13.210  0.4102 -0.8998  0.4689
  695MOL0     H93794   1.694   6.373  13.376  0.2528  0.5380  0.3065
  695MOL0     H93795   1.942   6.475  13.395  0.2469 -0.5984  1.1795
  695MOL0     H93796   1.793   6.569  13.438 -3.2617  0.7338 -2.4590
  695MOL0     H93797   1.922   6.590  13.163 -1.2155  0.8457 -0.5964
  695MOL0     H93798   1.807   6.697  13.245 -0.0827 -0.2688  0.7482
  695MOL0     H93799   2.072   6.769  13.238 -3.2380  1.4431 -0.7870
  695MOL0     H93800   2.090   6.641  13.364  1.4975  0.8143 -0.8173
  695MOL0     H93801   1.916   6.882  13.397 -0.9918  0.0246 -0.1946
  695MOL0     H93802   1.921   6.737  13.503  0.5133  1.2821  0.8662
  695MOL0     H93803   2.177   6.876  13.421 -0.2947 -1.0695 -0.0023
  695MOL0     H93804   2.138   6.778  13.560 -0.8613  1.1282  2.6613
  695MOL0     H93805   2.168   7.008  13.627 -2.0892  0.7558  3.8812
  695MOL0     H93806   1.997   6.959  13.651 -1.8843 -2.2577 -2.1556
  695MOL0     H93807   1.921   6.225  12.978  0.7210 -0.3836  1.7573
  695MOL0     H93808   1.993   6.040  12.827  0.5121  0.7900 -0.3890
  695MOL0     H93809   2.007   5.532  12.866  2.1130  1.3354 -0.4126
  695MOL0     H93810   2.028   5.306  12.770 -1.6404 -1.5423 -0.3613
  695MOL0     H93811   3.203   5.879  11.708  0.2342  0.6310 -0.1453
  695MOL0     H93812   3.386   5.838  11.550 -2.1671  0.6009  1.0575
  695MOL0     H93813   3.520   5.615  11.091  0.0059 -1.5915  0.4673
  695MOL0     H93814   3.707   5.567  10.959  3.1692 -0.9956  0.3688
  695MOL0     H93815   4.009   5.340  11.171  0.2085 -0.4164 -0.7166
  695MOL0     H93816   4.084   5.344  11.010  3.8217  1.7205 -0.1303
  695MOL0     H93817   4.220   5.442  11.146 -1.1140  0.7096  3.1970
  695MOL0     H93818   4.117   5.576  11.195 -1.6734  0.4976  0.1630
  695MOL0     H93819   4.105   5.692  11.000  0.9853  0.3533  0.9688
  695MOL0     H93820   4.161   5.552  10.903 -2.7121  2.4062  0.1507
  695MOL0     H93821   4.316   5.719  10.886 -0.1454 -0.7672 -1.5030
  695MOL0     H93822   4.390   5.582  10.958  1.9411  2.5850 -0.1525
  695MOL0     H93823   4.455   5.824  11.284  2.8133  2.0401 -2.2095
  695MOL0     H93824   3.915   5.442  11.326 -1.6917 -4.3909  0.1867
  695MOL0     H93825   3.736   5.517  11.456 -1.5951 -0.5167  0.3794
  696MOL0     O93826   4.264   1.291   3.276 -0.3036 -0.0319 -0.5983
  696MOL0     C93827   4.310   1.410   3.279 -0.4447  0.9277  0.3494
  696MOL0     O93828   4.237   1.521   3.284 -0.1987  0.6839  0.1084
  696MOL0     C93829   4.105   1.512   3.239 -0.7599  0.8997 -0.2386
  696MOL0     C93830   4.011   1.481   3.339 -0.4841  0.1159 -0.2485
  696MOL0     C93831   3.879   1.467   3.298 -0.0227  0.4546  0.0915
  696MOL0     C93832   3.846   1.448   3.160 -0.6050  0.4843 -0.1603
  696MOL0     O93833   3.720   1.428   3.116  0.2788  0.7234 -0.1370
  696MOL0     C93834   3.676   1.299   3.167  0.0900 -0.2970 -1.0481
  696MOL0     C93835   3.563   1.242   3.090  0.0741  0.0538  0.3452
  696MOL0     C93836   3.437   1.318   3.133 -1.0820  0.0700  0.2675
  696MOL0     C93837   3.323   1.296   3.029  0.0743  0.6176  0.1757
  696MOL0     C93838   3.183   1.354   3.081 -0.0595 -0.4784  0.8000
  696MOL0     C93839   3.133   1.274   3.205  0.0612 -0.0141 -0.1257
  696MOL0     C93840   3.003   1.339   3.241  0.6748  0.3804  0.2654
  696MOL0     C93841   2.942   1.285   3.370 -0.9444  0.5706  0.3852
  696MOL0     N93842   3.016   1.308   3.493 -0.1080 -0.3879 -0.3601
  696MOL0     C93843   3.086   1.213   3.566  0.1381 -0.3770  0.8246
  696MOL0     C93844   3.164   1.285   3.654 -0.1826 -0.9226 -0.5795
  696MOL0     C93845   3.248   1.223   3.764  0.2105 -0.2323 -0.1069
  696MOL0     C93846   3.161   1.129   3.859 -0.0534 -0.8165 -0.3846
  696MOL0     C93847   3.029   1.196   3.900 -0.7104 -0.2454  0.4191
  696MOL0     C93848   3.046   1.315   3.989  0.1414 -1.1406  0.2025
  696MOL0     O93849   2.911   1.370   4.019 -0.3518 -0.5952  0.1264
  696MOL0     C93850   2.904   1.463   4.123  0.5248  0.6451  1.0473
  696MOL0     C93851   2.783   1.522   4.131 -0.1804  0.3446 -0.2738
  696MOL0     C93852   2.760   1.631   4.218  0.2664  0.5434 -0.4916
  696MOL0     C93853   2.627   1.708   4.198 -0.0906  0.6022 -0.7667
  696MOL0     C93854   2.865   1.687   4.297  0.2996 -0.4834  0.3726
  696MOL0     C93855   2.854   1.815   4.366 -0.4603 -1.0819 -0.6131
  696MOL0     O93856   2.941   1.909   4.337 -0.1752 -0.7073 -0.3182
  696MOL0     C93857   2.931   2.033   4.383 -0.7891 -0.2354 -0.2768
  696MOL0     C93858   2.934   2.141   4.289 -0.9517 -0.7463  0.1528
  696MOL0     C93859   2.903   2.272   4.332 -0.2771  0.6680 -0.0218
  696MOL0     C93860   2.876   2.298   4.471 -0.2038 -0.5581 -0.0352
  696MOL0     O93861   2.810   2.420   4.494 -0.7104 -0.4079  0.3392
  696MOL0     C93862   2.747   2.447   4.618  0.3102 -0.3326 -0.0861
  696MOL0     C93863   2.637   2.548   4.574  0.5689 -0.1021  0.1704
  696MOL0     C93864   2.530   2.481   4.477 -0.7027  0.8843 -0.2259
  696MOL0     C93865   2.428   2.576   4.431  0.2979 -0.8114 -0.2476
  696MOL0     C93866   2.336   2.506   4.330  0.2785  0.1783 -0.7675
  696MOL0     C93867   2.266   2.609   4.241 -0.7439 -0.4054 -1.3885
  696MOL0     C93868   2.190   2.711   4.325  0.0211 -0.1508  0.7699
  696MOL0     C93869   2.109   2.804   4.228  0.3435 -0.3216 -0.7313
  696MOL0    Cl93870   1.965   2.728   4.155  0.0992  0.5347 -0.3157
  696MOL0     C93871   2.874   2.191   4.558 -0.3674  0.0505 -0.9400
  696MOL0     C93872   2.905   2.062   4.520  0.6878 -1.2171 -0.5647
  696MOL0     O93873   2.781   1.815   4.465  0.0028  0.1480 -0.0685
  696MOL0     C93874   2.994   1.637   4.272 -0.2060 -0.7042 -0.6043
  696MOL0     C93875   3.013   1.524   4.191  0.4675 -0.1282  0.8694
  696MOL0     N93876   3.132   1.418   3.637  0.1443 -0.0150  0.1390
  696MOL0     N93877   3.040   1.431   3.540  0.5074  0.2402 -0.7814
  696MOL0     C93878   3.948   1.467   3.071 -0.6791 -0.1076 -0.8911
  696MOL0     C93879   4.072   1.494   3.107  0.1941  0.3386  0.3944
  696MOL0     C93880   4.462   1.434   3.293 -0.1219 -1.3751  0.1549
  696MOL0     C93881   4.558   1.346   3.247  0.7968 -0.3487 -0.3239
  696MOL0     C93882   4.690   1.378   3.251 -0.6096  0.2781 -0.3188
  696MOL0     C93883   4.731   1.491   3.323 -0.3878 -0.1900  0.6008
  696MOL0     O93884   4.863   1.531   3.351 -0.1438 -0.1556  0.1899
  696MOL0     C93885   4.969   1.434   3.312 -0.6424  0.2366  1.0494
  696MOL0     C93886   5.105   1.474   3.369  0.6156  0.3194 -0.0658
  696MOL0     C93887   5.131   1.626   3.352  0.3659 -0.3041  0.6503
  696MOL0     C93888   5.249   1.693   3.426  0.7161 -0.6811  0.8778
  696MOL0     C93889   5.282   1.833   3.377  0.1671  0.1344 -0.6459
  696MOL0     C93890   5.313   1.945   3.347 -0.2815  0.5275 -0.8076
  696MOL0     C93891   4.638   1.574   3.364  0.7995 -0.2973 -0.9471
  696MOL0     C93892   4.506   1.559   3.344 -0.1110  0.3635 -1.1353
  696MOL0     H93893   4.036   1.474   3.444  1.0001  0.2821 -0.5727
  696MOL0     H93894   3.797   1.464   3.368  0.4225 -0.2239  0.6001
  696MOL0     H93895   3.750   1.218   3.158  3.4832  2.3212  0.8124
  696MOL0     H93896   3.644   1.295   3.272 -1.9863 -0.7252 -1.6502
  696MOL0     H93897   3.602   1.253   2.988  0.8647  1.7189  0.8088
  696MOL0     H93898   3.548   1.139   3.125 -0.8040  0.1842  0.3867
  696MOL0     H93899   3.391   1.278   3.224 -1.9636 -1.6698 -0.9048
  696MOL0     H93900   3.466   1.424   3.140  1.8295 -0.7400  3.3125
  696MOL0     H93901   3.353   1.346   2.936  3.1412  0.6509  1.0767
  696MOL0     H93902   3.327   1.189   3.008 -1.0947  0.2541  1.6231
  696MOL0     H93903   3.199   1.458   3.108 -2.4167  0.3189 -0.5550
  696MOL0     H93904   3.117   1.341   2.994 -0.8772 -0.4310  1.3982
  696MOL0     H93905   3.111   1.168   3.188 -0.6843 -0.2154  1.8873
  696MOL0     H93906   3.209   1.284   3.283  0.4699 -0.9786 -0.3801
  696MOL0     H93907   3.017   1.448   3.245 -1.6456  0.7128  1.0054
  696MOL0     H93908   2.925   1.322   3.165  1.4972  0.8139 -0.6902
  696MOL0     H93909   2.925   1.179   3.348  0.3671  0.3088  0.5219
  696MOL0     H93910   2.841   1.323   3.388 -2.0302 -1.2529 -1.4099
  696MOL0     H93911   3.100   1.107   3.548 -0.6791 -0.7793  2.3904
  696MOL0     H93912   3.332   1.174   3.713 -1.4807 -0.2539 -3.0999
  696MOL0     H93913   3.290   1.313   3.810  0.3760  0.5802 -1.7562
  696MOL0     H93914   3.229   1.096   3.938  0.8036  0.7789 -0.4191
  696MOL0     H93915   3.149   1.036   3.804  1.7195 -1.9237  0.9912
  696MOL0     H93916   2.974   1.112   3.943  1.2181 -1.4828  0.6149
  696MOL0     H93917   2.975   1.229   3.811  1.4714 -2.9895 -2.1487
  696MOL0     H93918   3.105   1.388   3.933  2.0766 -1.5106  1.6805
  696MOL0     H93919   3.104   1.295   4.080  2.2336  1.7694 -0.3297
  696MOL0     H93920   2.699   1.487   4.072 -2.6932  4.2074  0.6692
  696MOL0     H93921   2.640   1.815   4.183 -1.7765  1.7456  4.1265
  696MOL0     H93922   2.574   1.670   4.110 -0.2391 -0.7322 -0.1326
  696MOL0     H93923   2.554   1.681   4.275 -0.4223 -1.5935 -1.7765
  696MOL0     H93924   2.943   2.122   4.183  1.3941  0.3554  0.1006
  696MOL0     H93925   2.893   2.352   4.258  0.3127 -0.1867 -1.0609
  696MOL0     H93926   2.692   2.367   4.669 -0.8440  0.1629 -0.5045
  696MOL0     H93927   2.825   2.489   4.681 -0.7927  0.7753  0.5658
  696MOL0     H93928   2.590   2.589   4.664  0.4336  0.0253  0.0408
  696MOL0     H93929   2.684   2.629   4.518 -0.0438  0.7261  0.8359
  696MOL0     H93930   2.478   2.402   4.532 -0.8543  2.5174  2.1510
  696MOL0     H93931   2.574   2.432   4.390 -2.8652  0.8223 -1.3448
  696MOL0     H93932   2.359   2.610   4.509  1.6075  1.2895  0.0522
  696MOL0     H93933   2.470   2.668   4.389  1.6878 -0.7636  1.1684
  696MOL0     H93934   2.265   2.440   4.382 -0.8441  1.0774 -1.1198
  696MOL0     H93935   2.394   2.439   4.265  0.0426  0.1899 -0.9925
  696MOL0     H93936   2.335   2.671   4.183 -2.0458  1.4367 -1.0479
  696MOL0     H93937   2.192   2.553   4.183  1.0967 -0.4249 -3.8851
  696MOL0     H93938   2.264   2.775   4.373  0.2169  0.0605  0.2007
  696MOL0     H93939   2.123   2.661   4.395  0.7052 -0.4581  1.2181
  696MOL0     H93940   2.183   2.837   4.155  1.8808  0.6728  1.1936
  696MOL0     H93941   2.069   2.889   4.285 -0.8304 -2.3574  1.6338
  696MOL0     H93942   2.850   2.212   4.662  1.5837 -1.7769 -0.0377
  696MOL0     H93943   2.894   1.990   4.601 -1.8712  0.4304  0.6851
  696MOL0     H93944   3.081   1.686   4.315 -0.5223 -1.6369  1.1751
  696MOL0     H93945   3.118   1.505   4.174  0.3409  0.6908 -1.0396
  696MOL0     H93946   3.929   1.458   2.965  1.7175 -2.2534 -1.2439
  696MOL0     H93947   4.153   1.511   3.037 -0.3936  1.5222 -0.0421
  696MOL0     H93948   4.529   1.255   3.195  1.1576  1.6352 -4.3904
  696MOL0     H93949   4.752   1.303   3.204 -0.0078 -0.0798  1.0205
  696MOL0     H93950   4.951   1.334   3.353 -0.8041  0.1775  0.8385
  696MOL0     H93951   4.972   1.416   3.204  1.2018  0.1620  1.0972
  696MOL0     H93952   5.191   1.432   3.316  3.4845  2.4927  2.5838
  696MOL0     H93953   5.103   1.432   3.470 -0.6035 -2.7499 -1.2258
  696MOL0     H93954   5.050   1.689   3.389 -0.2093 -0.6039 -0.0902
  696MOL0     H93955   5.132   1.644   3.244  2.3035 -3.2500  0.0477
  696MOL0     H93956   5.336   1.626   3.416  0.4118 -0.7151 -2.8002
  696MOL0     H93957   5.236   1.713   3.533  1.2944  1.3902  0.5991
  696MOL0     H93958   5.326   2.048   3.324 -3.0926  1.1546  0.0388
  696MOL0     H93959   4.671   1.668   3.408  1.4913 -0.0510 -1.9658
  696MOL0     H93960   4.442   1.638   3.381  0.2694 -0.5515  1.6670
  697MOL0     O93961   0.464  10.140   6.976 -0.7716 -0.3497  0.4279
  697MOL0     C93962   0.552  10.104   6.888  0.4001  0.5718 -0.8025
  697MOL0     O93963   0.528  10.097   6.756 -0.0430  0.3990 -0.5077
  697MOL0     C93964   0.403  10.123   6.697  0.4304  0.1635 -0.3719
  697MOL0     C93965   0.277  10.106   6.760  0.0132 -0.1654 -0.2085
  697MOL0     C93966   0.161  10.133   6.690 -0.1117 -0.7575 -0.1483
  697MOL0     C93967   0.178  10.176   6.550  0.0447  0.9832 -0.3170
  697MOL0     O93968   0.067  10.204   6.473  0.0997 -0.5078 -0.1223
  697MOL0     C93969  -0.067  10.213   6.535  0.2217 -0.4358  0.1735
  697MOL0     C93970  -0.148  10.302   6.441  0.1124 -0.4198 -0.2827
  697MOL0     C93971  -0.298  10.281   6.481 -0.5035 -0.7313 -0.3510
  697MOL0     C93972  -0.397  10.369   6.413 -0.3759  0.0739 -0.0535
  697MOL0     C93973  -0.543  10.344   6.445 -0.5513 -0.7503 -0.3920
  697MOL0     C93974  -0.596  10.205   6.400  0.1003 -0.5475  0.2410
  697MOL0     C93975  -0.745  10.212   6.379 -0.3098 -0.3461 -0.0038
  697MOL0     C93976  -0.802  10.078   6.360 -0.4069 -0.8558 -0.3898
  697MOL0     N93977  -0.944  10.087   6.383  0.0447  0.0764  0.2586
  697MOL0     C93978  -1.041  10.129   6.293  0.2598  0.9442 -0.7171
  697MOL0     C93979  -1.154  10.126   6.362  0.2384  0.3901 -0.4700
  697MOL0     C93980  -1.293  10.153   6.312  0.4819 -1.0256  0.5547
  697MOL0     C93981  -1.350  10.029   6.239  0.0826 -0.4600  0.2782
  697MOL0     C93982  -1.497  10.038   6.195  0.0694  0.4503 -0.0632
  697MOL0     C93983  -1.596  10.029   6.314 -0.4814 -0.0573 -0.5261
  697MOL0     O93984  -1.729  10.028   6.262 -0.1373 -0.2136  0.3493
  697MOL0     C93985  -1.838  10.006   6.347 -0.4082  0.3492 -0.1266
  697MOL0     C93986  -1.830  10.038   6.482 -0.2432  0.9136  0.6513
  697MOL0     C93987  -1.943  10.031   6.566  0.1136  0.1441 -0.3616
  697MOL0     C93988  -1.912  10.077   6.712  0.0389  0.6911 -0.3936
  697MOL0     C93989  -2.065   9.985   6.516  0.1584 -0.3486 -0.0577
  697MOL0     C93990  -2.188   9.966   6.607  0.3891  0.6556  0.4570
  697MOL0     O93991  -2.194  10.034   6.726 -0.4093  0.5393  0.3897
  697MOL0     C93992  -2.290  10.007   6.822 -0.3265  0.6300 -0.0443
  697MOL0     C93993  -2.358  10.120   6.860  0.7182  0.2796 -1.5459
  697MOL0     C93994  -2.443  10.111   6.974 -0.0355 -0.2127 -0.1198
  697MOL0     C93995  -2.473   9.994   7.037  0.0400  0.6861 -0.0196
  697MOL0     O93996  -2.559  10.008   7.143  0.1059 -0.0688 -0.6418
  697MOL0     C93997  -2.621   9.903   7.204  0.4368 -0.7237  0.2996
  697MOL0     C93998  -2.654   9.932   7.351  0.2092 -0.1846 -0.0584
  697MOL0     C93999  -2.751  10.050   7.374 -0.2055 -0.5977  0.2265
  697MOL0     C94000  -2.782  10.058   7.528  0.5415 -0.4271  0.7156
  697MOL0     C94001  -2.883  10.161   7.553  0.0990 -0.3961  0.1933
  697MOL0     C94002  -2.902  10.187   7.705  0.3646 -0.7657  0.3603
  697MOL0     C94003  -2.996  10.311   7.719 -1.0215  0.4013  0.4574
  697MOL0     C94004  -3.008  10.339   7.861  0.1863 -0.9813 -0.4229
  697MOL0    Cl94005  -3.153  10.435   7.882  0.4888 -0.1113 -0.2838
  697MOL0     C94006  -2.414   9.879   6.985  0.1605  0.0696 -0.1504
  697MOL0     C94007  -2.329   9.883   6.877 -0.7996 -0.0255  0.1888
  697MOL0     O94008  -2.281   9.891   6.573  0.1213 -0.3306 -0.1159
  697MOL0     C94009  -2.067   9.963   6.381 -0.9009 -0.8293  0.2850
  697MOL0     C94010  -1.955   9.968   6.298 -0.2899  0.0928  0.6272
  697MOL0     N94011  -1.135  10.084   6.496  0.0184  0.1388 -0.7320
  697MOL0     N94012  -1.005  10.062   6.504  0.3507  0.1092  0.9809
  697MOL0     C94013   0.301  10.191   6.492 -0.8397  0.1617  0.3196
  697MOL0     C94014   0.413  10.163   6.563 -0.2837 -0.3649 -0.5592
  697MOL0     C94015   0.695  10.081   6.928  0.4344  0.1455 -0.1978
  697MOL0     C94016   0.741  10.114   7.060 -1.4673 -0.1732 -0.0980
  697MOL0     C94017   0.878  10.089   7.098 -0.0860  0.2376  0.3797
  697MOL0     C94018   0.972  10.036   7.004  0.1708 -0.1804  0.0947
  697MOL0     O94019   1.105  10.016   7.050  0.6729 -0.0052  0.3485
  697MOL0     C94020   1.210   9.966   6.959  0.0768 -0.1090  0.0401
  697MOL0     C94021   1.355   9.990   7.019 -0.9212  0.2371  0.8194
  697MOL0     C94022   1.396  10.135   7.042 -0.0292  1.1909  0.9029
  697MOL0     C94023   1.544  10.148   7.061 -0.0867  0.2264  0.9640
  697MOL0     C94024   1.571  10.103   7.198 -0.4519  0.0091 -0.0394
  697MOL0     C94025   1.573  10.060   7.314 -0.3689 -0.2132  0.1787
  697MOL0     C94026   0.922  10.021   6.871 -0.5152 -0.0548 -0.3976
  697MOL0     C94027   0.788  10.037   6.836 -0.5234 -0.5823  0.5437
  697MOL0     H94028   0.254  10.081   6.864 -3.2384  3.1565  0.0759
  697MOL0     H94029   0.068  10.112   6.741  0.2781  1.9864  1.9339
  697MOL0     H94030  -0.118  10.117   6.539  0.6238 -0.6742 -0.3000
  697MOL0     H94031  -0.059  10.259   6.634  2.0219  1.9580 -0.9786
  697MOL0     H94032  -0.130  10.410   6.450  0.7967 -0.6857  2.0522
  697MOL0     H94033  -0.120  10.264   6.342 -0.9019 -2.7417  0.2654
  697MOL0     H94034  -0.329  10.180   6.455 -1.3916 -0.6036  0.1679
  697MOL0     H94035  -0.299  10.293   6.590  0.0723  0.8941 -0.4892
  697MOL0     H94036  -0.369  10.471   6.438  0.6083  0.4074 -2.2851
  697MOL0     H94037  -0.377  10.358   6.306 -1.4661 -1.0272 -0.1685
  697MOL0     H94038  -0.557  10.352   6.553 -0.8052 -0.7509 -0.4240
  697MOL0     H94039  -0.596  10.428   6.400  1.2356  0.7641  0.2197
  697MOL0     H94040  -0.551  10.158   6.312 -1.9846 -1.9127 -0.1502
  697MOL0     H94041  -0.573  10.133   6.479 -0.6119 -1.4623 -0.3755
  697MOL0     H94042  -0.793  10.256   6.467  1.0807 -1.4339  1.3497
  697MOL0     H94043  -0.769  10.267   6.287 -2.0245  1.2220  1.2982
  697MOL0     H94044  -0.762  10.003   6.429  1.4857 -0.5800 -1.1302
  697MOL0     H94045  -0.775  10.047   6.259  1.2815  2.2756 -1.0177
  697MOL0     H94046  -1.032  10.143   6.186  1.7932  4.1268 -0.2828
  697MOL0     H94047  -1.361  10.191   6.389  0.4306  2.9122 -1.1878
  697MOL0     H94048  -1.277  10.243   6.253  0.7529 -0.3079  1.6812
  697MOL0     H94049  -1.337   9.938   6.299  1.9608 -0.5841 -0.2555
  697MOL0     H94050  -1.287  10.038   6.150  1.0395  3.7282  1.1619
  697MOL0     H94051  -1.512   9.960   6.120  1.6036  1.9007 -2.0004
  697MOL0     H94052  -1.503  10.133   6.142  2.3324 -0.3052 -1.8565
  697MOL0     H94053  -1.586  10.122   6.372 -0.1734  0.1031 -0.8341
  697MOL0     H94054  -1.571   9.941   6.373 -1.6927 -0.3490 -0.4264
  697MOL0     H94055  -1.738  10.077   6.524  0.7444 -0.7049  0.1223
  697MOL0     H94056  -1.931  10.005   6.793  1.2483  0.2072 -0.5159
  697MOL0     H94057  -1.819  10.129   6.733  0.7070 -0.3788 -0.6190
  697MOL0     H94058  -1.980  10.163   6.719 -1.5401 -0.6076  1.4983
  697MOL0     H94059  -2.348  10.215   6.808 -0.5736  0.8988 -0.7242
  697MOL0     H94060  -2.498  10.199   7.004  1.9468  1.7756 -1.9615
  697MOL0     H94061  -2.709   9.886   7.141  0.7792  1.8687 -1.0341
  697MOL0     H94062  -2.547   9.823   7.208 -0.6951 -1.7831  0.7374
  697MOL0     H94063  -2.690   9.839   7.395 -2.5247  0.6644 -0.3482
  697MOL0     H94064  -2.558   9.952   7.401  0.3459 -0.0808 -0.3579
  697MOL0     H94065  -2.842  10.052   7.315  0.3085 -1.3056 -0.6153
  697MOL0     H94066  -2.699  10.142   7.347 -0.0932 -1.8466 -4.8889
  697MOL0     H94067  -2.816   9.958   7.557 -1.2854 -0.6559 -1.8055
  697MOL0     H94068  -2.691  10.088   7.580  0.6213 -1.9941  1.5386
  697MOL0     H94069  -2.972  10.143   7.492  0.5753 -0.0345 -0.6150
  697MOL0     H94070  -2.849  10.254   7.507 -1.3282  0.7781  1.3931
  697MOL0     H94071  -2.938  10.094   7.751  1.6753 -2.7591 -2.3206
  697MOL0     H94072  -2.806  10.217   7.748 -0.0495  2.8913 -0.9691
  697MOL0     H94073  -3.094  10.295   7.673  1.1877  0.3003 -4.8583
  697MOL0     H94074  -2.956  10.401   7.672  1.0872 -0.3723  0.6584
  697MOL0     H94075  -2.927  10.405   7.893  0.6079 -1.3851 -0.6579
  697MOL0     H94076  -3.015  10.249   7.923 -1.7586 -0.5319  0.0713
  697MOL0     H94077  -2.447   9.777   7.002  2.2423 -0.2980  2.1873
  697MOL0     H94078  -2.296   9.785   6.843 -2.4235 -0.6778  0.3909
  697MOL0     H94079  -2.158   9.925   6.336 -1.2619 -1.9231  1.8429
  697MOL0     H94080  -1.965   9.945   6.192  0.4158 -1.1770  0.8150
  697MOL0     H94081   0.318  10.210   6.386 -0.0368  1.2413  0.6353
  697MOL0     H94082   0.511  10.169   6.516 -0.4252  2.0368 -0.7005
  697MOL0     H94083   0.669  10.159   7.128 -1.8648 -0.3403 -0.4107
  697MOL0     H94084   0.908  10.117   7.199  2.3394 -0.7153 -0.0059
  697MOL0     H94085   1.199   9.858   6.951 -0.9123 -0.1113  1.1181
  697MOL0     H94086   1.198  10.020   6.864 -3.4550  1.0485  0.9882
  697MOL0     H94087   1.428   9.938   6.956 -1.7732  1.9854 -1.7990
  697MOL0     H94088   1.372   9.951   7.120 -1.4295  0.6611  1.0725
  697MOL0     H94089   1.347  10.189   7.123  0.6250  1.7102  0.9573
  697MOL0     H94090   1.377  10.186   6.947  0.2402 -0.0150  0.1658
  697MOL0     H94091   1.579  10.250   7.045  3.3934 -1.1397 -1.0919
  697MOL0     H94092   1.599  10.090   6.987  0.1595  1.8433 -0.1603
  697MOL0     H94093   1.555  10.014   7.409 -0.9657  0.2842  0.3154
  697MOL0     H94094   0.987   9.976   6.796  1.3809 -1.8059  2.1308
  697MOL0     H94095   0.756  10.014   6.735  1.1371 -0.8653  0.0508
  698MOL0     O94096   0.175   8.187   3.032 -0.1941  0.1714 -0.3181
  698MOL0     C94097   0.115   8.090   3.051  0.5777  0.9944 -0.1200
  698MOL0     O94098  -0.006   8.085   3.117 -0.2662  0.2673 -1.0973
  698MOL0     C94099  -0.078   8.185   3.175  0.4934 -0.2077  0.4499
  698MOL0     C94100  -0.184   8.153   3.258  0.3114 -0.1995  0.3288
  698MOL0     C94101  -0.250   8.249   3.342 -0.0103 -0.8008 -0.4611
  698MOL0     C94102  -0.205   8.383   3.339 -0.4482  1.2224  0.2153
  698MOL0     O94103  -0.240   8.471   3.434 -0.1363 -0.0640  0.2748
  698MOL0     C94104  -0.247   8.434   3.571 -0.3959  0.9889  0.0509
  698MOL0     C94105  -0.313   8.545   3.651 -0.3106 -0.5171  0.2903
  698MOL0     C94106  -0.347   8.499   3.794  0.3830  0.1954  0.1128
  698MOL0     C94107  -0.436   8.603   3.868 -0.0035  0.6722 -0.1337
  698MOL0     C94108  -0.477   8.566   4.005 -0.5271 -0.6465  0.2096
  698MOL0     C94109  -0.376   8.629   4.100 -0.1761 -0.4737  0.0509
  698MOL0     C94110  -0.430   8.623   4.249  0.3081 -0.1431  0.3592
  698MOL0     C94111  -0.330   8.705   4.336 -0.4045  0.3893 -0.4259
  698MOL0     N94112  -0.359   8.728   4.478  0.4576 -0.2534 -0.1747
  698MOL0     C94113  -0.370   8.620   4.557  0.1594 -0.8583  0.0865
  698MOL0     C94114  -0.433   8.676   4.657  0.1313  0.5402 -0.7553
  698MOL0     C94115  -0.433   8.609   4.796  0.0255  0.0976  0.4467
  698MOL0     C94116  -0.572   8.593   4.856 -0.2194  0.3257  0.0678
  698MOL0     C94117  -0.583   8.560   5.007 -0.7642  0.5772  0.3016
  698MOL0     C94118  -0.723   8.583   5.055 -1.4233  0.1843 -0.0642
  698MOL0     O94119  -0.811   8.507   4.979 -0.3455  0.4615  0.2776
  698MOL0     C94120  -0.948   8.516   5.003 -0.4707  0.4957  0.7088
  698MOL0     C94121  -1.006   8.561   5.125  0.6777  0.3348 -0.1985
  698MOL0     C94122  -1.146   8.555   5.140 -0.0604  0.9116 -0.7132
  698MOL0     C94123  -1.198   8.613   5.270 -1.1683  0.2531  0.3931
  698MOL0     C94124  -1.224   8.490   5.034 -0.1201  0.4383  0.5382
  698MOL0     C94125  -1.368   8.453   5.050  0.6966 -0.6578  0.4382
  698MOL0     O94126  -1.428   8.361   4.959 -0.1749 -0.2556 -0.0522
  698MOL0     C94127  -1.564   8.330   4.972  0.6421  0.3061  0.0747
  698MOL0     C94128  -1.646   8.324   5.086  0.2766 -0.0536  0.2217
  698MOL0     C94129  -1.788   8.290   5.077 -0.3878  0.4049  0.3189
  698MOL0     C94130  -1.855   8.268   4.959 -0.9821 -0.4649  0.1911
  698MOL0     O94131  -1.987   8.242   4.960  0.2260  0.7319  0.9021
  698MOL0     C94132  -2.068   8.268   4.843 -0.4207  0.5021 -0.2913
  698MOL0     C94133  -2.207   8.215   4.858 -0.7463 -0.2008 -0.2391
  698MOL0     C94134  -2.306   8.274   4.760 -0.2645  0.2639  0.1134
  698MOL0     C94135  -2.447   8.243   4.817  0.7923 -1.1723  1.1988
  698MOL0     C94136  -2.544   8.270   4.703 -0.6780  0.1578 -0.0958
  698MOL0     C94137  -2.689   8.251   4.754 -0.5766 -0.3001  0.1238
  698MOL0     C94138  -2.777   8.283   4.634  0.1874 -0.0373  0.0321
  698MOL0     C94139  -2.925   8.238   4.654 -1.2361 -0.0309 -0.0159
  698MOL0    Cl94140  -3.026   8.297   4.510 -0.1581 -0.5607  0.1992
  698MOL0     C94141  -1.772   8.284   4.850  0.0833  0.1311 -0.1354
  698MOL0     C94142  -1.634   8.314   4.854 -0.1140  0.0706 -0.7739
  698MOL0     O94143  -1.429   8.514   5.133 -0.7185  0.1005  0.1626
  698MOL0     C94144  -1.165   8.450   4.919 -0.4377 -0.1902  0.3363
  698MOL0     C94145  -1.032   8.474   4.900 -0.2574 -0.3239  0.3517
  698MOL0     N94146  -0.470   8.807   4.636  0.6318 -0.3773 -0.4201
  698MOL0     N94147  -0.418   8.844   4.527  0.5614  0.2451 -0.5829
  698MOL0     C94148  -0.112   8.419   3.249  0.1091 -0.8706 -0.4565
  698MOL0     C94149  -0.038   8.321   3.171  0.4409  0.1523  0.5567
  698MOL0     C94150   0.189   7.965   3.026 -0.1243 -0.1906  0.1549
  698MOL0     C94151   0.119   7.837   3.028 -0.7563 -0.1821  0.0756
  698MOL0     C94152   0.195   7.720   3.012 -0.4119 -0.2889  0.7688
  698MOL0     C94153   0.328   7.728   2.962  0.3984  0.8387  0.1797
  698MOL0     O94154   0.398   7.617   2.910  0.3297 -0.3260 -0.3591
  698MOL0     C94155   0.527   7.587   2.981  0.0726 -0.0403 -0.4881
  698MOL0     C94156   0.543   7.438   3.003  0.2038  0.4610  0.0370
  698MOL0     C94157   0.673   7.395   3.067 -0.5937 -1.0331  0.4118
  698MOL0     C94158   0.801   7.435   2.980 -0.2919 -0.0829 -0.2292
  698MOL0     C94159   0.916   7.361   3.029 -0.1585 -0.5851 -0.1309
  698MOL0     C94160   1.018   7.311   3.075  0.4980  0.1175  0.1084
  698MOL0     C94161   0.390   7.851   2.953 -0.2329 -0.2102 -0.3561
  698MOL0     C94162   0.327   7.969   2.991 -0.4911  0.7317  1.1889
  698MOL0     H94163  -0.215   8.050   3.276 -1.8887  0.6302  1.7661
  698MOL0     H94164  -0.337   8.224   3.402  0.7920  0.1258  1.1427
  698MOL0     H94165  -0.306   8.344   3.592 -2.3462  1.9521 -1.0749
  698MOL0     H94166  -0.145   8.421   3.608 -1.0431 -1.0876  1.2750
  698MOL0     H94167  -0.231   8.616   3.652 -2.4210  2.1498 -1.4461
  698MOL0     H94168  -0.397   8.586   3.593 -0.4856 -0.4480  0.5910
  698MOL0     H94169  -0.403   8.405   3.791 -1.0357  1.0403 -1.4102
  698MOL0     H94170  -0.254   8.479   3.848 -0.0368 -0.2930  0.6671
  698MOL0     H94171  -0.383   8.699   3.873 -0.6719  0.9911  1.1069
  698MOL0     H94172  -0.532   8.607   3.815 -1.7449  0.8076  2.8206
  698MOL0     H94173  -0.578   8.605   4.020 -0.6243 -1.0661  0.6561
  698MOL0     H94174  -0.483   8.458   4.017 -0.9942 -0.4252  2.2812
  698MOL0     H94175  -0.288   8.563   4.101 -1.5028 -2.4777  3.4837
  698MOL0     H94176  -0.338   8.726   4.067 -0.0468 -1.8378 -4.5488
  698MOL0     H94177  -0.521   8.683   4.255  0.4591 -0.0475  2.3469
  698MOL0     H94178  -0.444   8.519   4.279  0.2905 -0.1307  0.3927
  698MOL0     H94179  -0.321   8.805   4.293  2.4722  0.8336  0.9872
  698MOL0     H94180  -0.225   8.673   4.334 -0.0383  1.5168 -0.1227
  698MOL0     H94181  -0.328   8.520   4.547  2.0382 -0.0175 -0.8017
  698MOL0     H94182  -0.390   8.510   4.810 -0.1082  0.0930  0.8486
  698MOL0     H94183  -0.378   8.677   4.861 -1.1976 -0.4801  2.1663
  698MOL0     H94184  -0.625   8.516   4.799 -2.1718  2.4897 -1.2361
  698MOL0     H94185  -0.628   8.687   4.845 -2.1717 -0.9473 -1.7311
  698MOL0     H94186  -0.503   8.607   5.065  1.5514 -2.4821 -0.1474
  698MOL0     H94187  -0.566   8.454   5.030  1.8541  1.1235  1.2014
  698MOL0     H94188  -0.755   8.687   5.045 -1.2485  0.1884 -0.6180
  698MOL0     H94189  -0.720   8.548   5.159 -1.8149 -0.8708 -0.3926
  698MOL0     H94190  -0.937   8.611   5.193  1.3240  0.5582 -0.9967
  698MOL0     H94191  -1.250   8.533   5.324  1.1536  0.0478  2.5034
  698MOL0     H94192  -1.122   8.667   5.327 -0.6935 -1.6362  1.6089
  698MOL0     H94193  -1.276   8.685   5.241 -0.4077  0.5264 -1.0833
  698MOL0     H94194  -1.602   8.339   5.184 -1.1527 -0.3102  0.9298
  698MOL0     H94195  -1.866   8.280   5.152 -0.3383 -0.8395  0.2362
  698MOL0     H94196  -2.065   8.373   4.813 -0.7118  0.1207 -1.7132
  698MOL0     H94197  -2.016   8.221   4.759  1.9403  1.3476  0.6114
  698MOL0     H94198  -2.194   8.107   4.849  1.7447 -0.1709  1.7071
  698MOL0     H94199  -2.244   8.245   4.957  0.2060  0.1605  0.0230
  698MOL0     H94200  -2.283   8.230   4.662  1.2571 -0.4790  0.7531
  698MOL0     H94201  -2.295   8.382   4.756 -0.0674  0.3568  2.0693
  698MOL0     H94202  -2.451   8.140   4.855  1.5910 -1.2869  0.9844
  698MOL0     H94203  -2.465   8.306   4.905 -0.8031 -2.5202  1.8942
  698MOL0     H94204  -2.527   8.195   4.625 -1.1915  0.6937 -0.7338
  698MOL0     H94205  -2.530   8.373   4.668  1.4853  0.2393  0.8555
  698MOL0     H94206  -2.710   8.149   4.788 -1.9092 -0.7101 -1.7518
  698MOL0     H94207  -2.719   8.317   4.836 -1.1966 -0.0808 -0.2710
  698MOL0     H94208  -2.740   8.236   4.543 -0.8651 -0.1846 -0.3301
  698MOL0     H94209  -2.771   8.392   4.621  0.0029 -0.1609 -1.1991
  698MOL0     H94210  -2.963   8.281   4.748  0.8527  1.4189  0.2416
  698MOL0     H94211  -2.930   8.130   4.671 -0.6171 -0.1371 -0.4512
  698MOL0     H94212  -1.815   8.253   4.756 -1.5185 -0.4661  0.7591
  698MOL0     H94213  -1.585   8.334   4.759  1.2359 -0.7284 -0.2713
  698MOL0     H94214  -1.210   8.406   4.831 -0.0242  0.2129 -0.0870
  698MOL0     H94215  -0.977   8.441   4.812 -1.3957 -0.1732 -0.4394
  698MOL0     H94216  -0.087   8.523   3.232 -3.1967  0.3387  1.2669
  698MOL0     H94217   0.043   8.361   3.110  0.3897  0.2270  0.5370
  698MOL0     H94218   0.020   7.847   3.070 -0.8007  1.7564 -0.3906
  698MOL0     H94219   0.147   7.623   3.007  0.8360 -0.8528 -2.2699
  698MOL0     H94220   0.610   7.625   2.919  0.5362  2.0027  1.2458
  698MOL0     H94221   0.527   7.632   3.081  0.1157  1.6188 -1.1919
  698MOL0     H94222   0.537   7.396   2.903 -0.2820  0.8446 -0.1039
  698MOL0     H94223   0.458   7.408   3.065 -0.6414  4.7766  1.3698
  698MOL0     H94224   0.667   7.286   3.078 -1.5785 -0.8137  2.3862
  698MOL0     H94225   0.675   7.440   3.166  1.1403 -1.9490  0.8362
  698MOL0     H94226   0.812   7.543   2.983 -0.2331 -0.0929  2.1524
  698MOL0     H94227   0.802   7.411   2.874 -0.7861 -1.5003  0.0559
  698MOL0     H94228   1.104   7.254   3.102 -1.0255 -2.4675 -0.1118
  698MOL0     H94229   0.492   7.868   2.919 -0.2804  3.0677  0.7129
  698MOL0     H94230   0.378   8.065   2.986  2.5637 -0.8406 -1.0397
  699MOL0     O94231   8.386   4.135  10.088 -0.5787 -0.6131 -0.3666
  699MOL0     C94232   8.409   4.056  10.180  1.5966  0.3431 -0.6101
  699MOL0     O94233   8.322   3.949  10.227  0.1209 -0.4558 -0.1436
  699MOL0     C94234   8.202   3.920  10.167  0.5612 -0.1267  0.8120
  699MOL0     C94235   8.125   4.023  10.114  0.6789  0.0229  0.9018
  699MOL0     C94236   8.003   3.995  10.053 -0.0385  0.3408 -0.5202
  699MOL0     C94237   7.957   3.862  10.050  0.4688  0.0694 -0.4628
  699MOL0     O94238   7.845   3.820   9.984  0.3444  0.4656 -0.3012
  699MOL0     C94239   7.754   3.925   9.938 -0.3444  0.2163  0.1706
  699MOL0     C94240   7.641   3.881   9.844  0.0423 -0.0475  0.4694
  699MOL0     C94241   7.547   3.782   9.916 -0.2648  0.7128 -0.5311
  699MOL0     C94242   7.443   3.738   9.816 -0.7040 -0.0317 -1.0509
  699MOL0     C94243   7.300   3.715   9.874 -0.9986  0.2884 -0.5905
  699MOL0     C94244   7.215   3.846   9.895 -0.1489 -0.1346  0.0004
  699MOL0     C94245   7.143   3.887   9.762 -0.1458 -0.6677  0.6813
  699MOL0     C94246   7.009   3.959   9.799 -0.2785  0.0865  0.8054
  699MOL0     N94247   6.902   3.866   9.827  0.0175 -0.4186 -0.3179
  699MOL0     C94248   6.806   3.824   9.739 -0.0486  0.0698 -0.5342
  699MOL0     C94249   6.702   3.764   9.815 -0.2318  0.4072  0.1798
  699MOL0     C94250   6.565   3.710   9.779 -0.0519  0.3299  0.1284
  699MOL0     C94251   6.456   3.796   9.717 -0.4157 -0.8126 -0.1075
  699MOL0     C94252   6.343   3.724   9.650 -0.9925  0.9700  0.6815
  699MOL0     C94253   6.280   3.801   9.527  0.3001  0.5763 -0.3066
  699MOL0     O94254   6.381   3.816   9.423  0.2439  0.4028 -0.1843
  699MOL0     C94255   6.425   3.702   9.360 -0.1770  0.1052 -0.6285
  699MOL0     C94256   6.345   3.625   9.278  0.2707  0.7447  0.3751
  699MOL0     C94257   6.399   3.523   9.196  0.1078 -0.8147  0.4324
  699MOL0     C94258   6.310   3.443   9.101 -1.2004 -0.5923 -0.3113
  699MOL0     C94259   6.538   3.500   9.202 -0.2346  1.2815 -0.0449
  699MOL0     C94260   6.620   3.416   9.103  0.7305  0.3467 -0.7303
  699MOL0     O94261   6.729   3.352   9.153 -0.0295 -0.1533  0.3444
  699MOL0     C94262   6.823   3.314   9.061 -0.1078 -0.0411  0.2880
  699MOL0     C94263   6.869   3.180   9.068  1.0974 -0.4777  0.0598
  699MOL0     C94264   6.962   3.124   8.990  0.0001  0.1761  0.1128
  699MOL0     C94265   7.024   3.207   8.894 -0.4555 -0.5658  1.4654
  699MOL0     O94266   7.110   3.162   8.799  0.0356 -0.1218 -0.0176
  699MOL0     C94267   7.102   3.024   8.752 -0.4697 -0.2508 -0.3107
  699MOL0     C94268   7.238   2.982   8.696 -0.1259 -0.7298  0.3486
  699MOL0     C94269   7.302   3.072   8.584  0.0490  0.1166  0.6128
  699MOL0     C94270   7.408   2.993   8.508  1.1519  0.1921 -1.4001
  699MOL0     C94271   7.475   3.088   8.405  0.8244  0.0208  0.2314
  699MOL0     C94272   7.579   3.027   8.315 -0.3557 -0.3472 -0.5285
  699MOL0     C94273   7.510   2.946   8.197 -1.0395 -0.2772  0.1862
  699MOL0     C94274   7.609   2.899   8.087 -0.0511 -0.2187  0.2646
  699MOL0    Cl94275   7.658   3.038   7.980 -0.1653 -0.4018  0.2060
  699MOL0     C94276   7.002   3.343   8.893  0.8302 -0.8104 -0.4897
  699MOL0     C94277   6.900   3.398   8.982  0.3154 -0.6321 -0.1137
  699MOL0     O94278   6.593   3.421   8.981 -0.0453 -0.2721  0.1640
  699MOL0     C94279   6.623   3.565   9.300  0.2212  0.6245  0.1667
  699MOL0     C94280   6.559   3.663   9.379 -0.4062  0.7903  0.3201
  699MOL0     N94281   6.762   3.753   9.943  0.0562 -0.5195 -0.2206
  699MOL0     N94282   6.864   3.830   9.955  0.8517 -0.0490  0.5558
  699MOL0     C94283   8.036   3.760  10.112  0.0025 -0.5576  0.0114
  699MOL0     C94284   8.156   3.789  10.172  0.3695 -0.2184 -0.3462
  699MOL0     C94285   8.548   4.047  10.232  0.2425  0.5654  0.4353
  699MOL0     C94286   8.574   4.007  10.362 -0.3879  0.9549  1.1542
  699MOL0     C94287   8.703   4.009  10.408 -0.0705  0.5897 -0.2966
  699MOL0     C94288   8.812   4.046  10.338  0.8013  0.6748 -0.1002
  699MOL0     O94289   8.937   4.048  10.391 -0.7091  0.3216 -0.0562
  699MOL0     C94290   9.045   3.972  10.325  0.5271  0.4161  0.3119
  699MOL0     C94291   9.181   4.010  10.385  0.3516  0.4497 -0.1380
  699MOL0     C94292   9.210   4.164  10.361 -0.0497 -0.7072  0.7231
  699MOL0     C94293   9.362   4.194  10.391  0.1094  0.3002  0.4608
  699MOL0     C94294   9.379   4.341  10.371 -0.1564 -0.6041  0.4385
  699MOL0     C94295   9.421   4.459  10.348 -0.4345  0.2991  0.1571
  699MOL0     C94296   8.783   4.091  10.214  0.7641 -0.1410 -0.4437
  699MOL0     C94297   8.655   4.098  10.162 -0.7457  0.3546  0.7290
  699MOL0     H94298   8.150   4.129  10.119  0.7421  0.2082 -1.7619
  699MOL0     H94299   7.949   4.084  10.018 -0.8875  0.3362  0.7090
  699MOL0     H94300   7.712   3.969  10.028  1.4713  0.2037  1.0784
  699MOL0     H94301   7.811   3.998   9.880 -1.1752 -0.1839 -1.1960
  699MOL0     H94302   7.594   3.976   9.816  2.2224  1.7964  2.6544
  699MOL0     H94303   7.677   3.834   9.752  0.5693 -0.8066  1.0538
  699MOL0     H94304   7.617   3.703   9.945 -0.8556 -0.0540 -1.1488
  699MOL0     H94305   7.502   3.825  10.006 -0.1287  0.6697 -0.4420
  699MOL0     H94306   7.432   3.811   9.736  1.8847 -3.0529 -4.5068
  699MOL0     H94307   7.479   3.646   9.769  2.0375  0.5301 -0.2502
  699MOL0     H94308   7.251   3.647   9.804  1.1812 -0.9689 -0.9914
  699MOL0     H94309   7.310   3.667   9.972 -3.0365 -2.2320 -1.5157
  699MOL0     H94310   7.140   3.822   9.971  0.1121 -1.2136 -0.0580
  699MOL0     H94311   7.261   3.936   9.936 -1.7190  0.7372 -0.0774
  699MOL0     H94312   7.218   3.956   9.721  1.7372 -3.0470 -0.1163
  699MOL0     H94313   7.123   3.810   9.687 -2.8418  1.3117 -0.8049
  699MOL0     H94314   6.984   4.016   9.709 -1.1142  3.5876  3.0955
  699MOL0     H94315   7.018   4.027   9.884  1.0057  0.7858  0.1408
  699MOL0     H94316   6.817   3.821   9.631 -2.3449 -0.8765 -0.8092
  699MOL0     H94317   6.583   3.631   9.705 -0.2500 -1.0282  1.4874
  699MOL0     H94318   6.527   3.660   9.869  1.7723  1.9628  1.8896
  699MOL0     H94319   6.506   3.859   9.643  0.9566 -1.2674  0.4006
  699MOL0     H94320   6.409   3.869   9.785 -0.9858  2.0854 -3.3279
  699MOL0     H94321   6.261   3.710   9.721 -1.7813  1.1395 -0.1764
  699MOL0     H94322   6.377   3.627   9.611 -1.0692  1.2272 -0.0261
  699MOL0     H94323   6.250   3.897   9.571  1.0354 -0.4813  2.8100
  699MOL0     H94324   6.195   3.741   9.491  1.4447 -1.6773  0.5403
  699MOL0     H94325   6.238   3.643   9.287  0.4187  1.7204  0.2928
  699MOL0     H94326   6.354   3.343   9.090  1.4468  0.4673 -0.1519
  699MOL0     H94327   6.208   3.433   9.137 -2.0665  0.7930 -2.2003
  699MOL0     H94328   6.302   3.492   9.003  0.1696 -0.3308 -0.3181
  699MOL0     H94329   6.816   3.110   9.132 -3.5638 -0.0654 -2.9067
  699MOL0     H94330   7.002   3.023   8.995  1.0297  0.5902  0.7597
  699MOL0     H94331   7.066   2.954   8.827 -1.2834 -0.0481 -0.5083
  699MOL0     H94332   7.023   3.026   8.676 -1.5267  0.4344  0.7739
  699MOL0     H94333   7.307   2.986   8.781  0.6244 -0.7108 -0.2521
  699MOL0     H94334   7.218   2.878   8.671 -0.7225 -0.3187 -0.9915
  699MOL0     H94335   7.340   3.167   8.625  3.1962 -1.2788  1.1907
  699MOL0     H94336   7.224   3.096   8.511 -0.2893  1.4356  1.3727
  699MOL0     H94337   7.469   2.933   8.576 -1.8861 -1.3115  0.2165
  699MOL0     H94338   7.349   2.925   8.447  2.6259  1.2638 -4.2167
  699MOL0     H94339   7.527   3.166   8.461  1.5750 -0.2822 -0.0291
  699MOL0     H94340   7.405   3.150   8.347  1.0499  0.6167  0.5859
  699MOL0     H94341   7.642   3.105   8.270  0.1149 -0.5435 -0.2145
  699MOL0     H94342   7.647   2.963   8.371 -0.7673 -1.1675 -0.9463
  699MOL0     H94343   7.417   2.993   8.163 -0.5547  0.2629 -0.4056
  699MOL0     H94344   7.472   2.854   8.243  1.6282 -1.1095  0.9115
  699MOL0     H94345   7.565   2.817   8.029  0.7387 -0.4913  0.0430
  699MOL0     H94346   7.704   2.865   8.129 -0.1551 -1.3499 -0.3715
  699MOL0     H94347   7.049   3.402   8.815  0.6150  3.0811  2.0453
  699MOL0     H94348   6.891   3.505   8.972  0.5282 -0.6631 -0.6526
  699MOL0     H94349   6.724   3.528   9.320 -1.0418 -2.7432  1.0196
  699MOL0     H94350   6.623   3.702   9.457 -2.1966 -0.0862  2.3037
  699MOL0     H94351   8.008   3.655  10.113 -0.1192 -0.5330  1.5881
  699MOL0     H94352   8.220   3.714  10.218 -0.9688  0.0717  2.1731
  699MOL0     H94353   8.489   3.967  10.417  0.2200 -2.1588  0.0276
  699MOL0     H94354   8.711   3.956  10.503  1.0033 -1.4426 -1.4410
  699MOL0     H94355   9.021   3.866  10.340 -1.3921  0.8435  0.4441
  699MOL0     H94356   9.056   3.999  10.220  1.5284 -1.0934 -0.0091
  699MOL0     H94357   9.261   3.943  10.354  0.0434 -0.9925  2.0428
  699MOL0     H94358   9.183   3.999  10.493 -3.0245 -0.9792 -0.0897
  699MOL0     H94359   9.153   4.230  10.427  0.2605 -0.0954  0.3897
  699MOL0     H94360   9.185   4.175  10.255 -1.0728 -3.3620  0.5983
  699MOL0     H94361   9.436   4.138  10.334  1.3727  0.0521  2.2638
  699MOL0     H94362   9.378   4.176  10.498  0.9953 -0.8142  0.1572
  699MOL0     H94363   9.449   4.560  10.328 -1.1934  0.1398 -1.9996
  699MOL0     H94364   8.862   4.136  10.154 -0.4816 -1.5172 -3.2976
  699MOL0     H94365   8.641   4.125  10.058  0.9994 -3.2912 -0.6189
  700MOL0     O94366   2.746   5.605  10.149 -0.0820  0.1480 -0.1333
  700MOL0     C94367   2.767   5.496  10.097  1.1126 -0.0705 -0.8659
  700MOL0     O94368   2.702   5.377  10.135  0.3198  0.2477  0.3524
  700MOL0     C94369   2.577   5.368  10.189  0.5557  0.9752 -0.5829
  700MOL0     C94370   2.510   5.472  10.254  0.4619 -0.5213  0.0933
  700MOL0     C94371   2.373   5.463  10.291 -0.1641  0.5937 -0.9508
  700MOL0     C94372   2.300   5.335  10.276  0.4361 -0.3497 -0.3640
  700MOL0     O94373   2.171   5.307  10.316 -0.3562  0.0049  0.4967
  700MOL0     C94374   2.088   5.418  10.350  0.5133  1.6075  0.2062
  700MOL0     C94375   1.940   5.381  10.382  1.0044 -0.0660 -0.8675
  700MOL0     C94376   1.905   5.476  10.499  0.2598 -0.0773 -0.1259
  700MOL0     C94377   1.764   5.447  10.553 -0.3390  1.2420 -0.1690
  700MOL0     C94378   1.724   5.545  10.666 -0.3594 -0.0015 -0.3328
  700MOL0     C94379   1.591   5.610  10.664 -0.6331 -0.7864  1.0825
  700MOL0     C94380   1.551   5.653  10.801 -0.8379 -0.3572  1.3644
  700MOL0     C94381   1.408   5.720  10.816 -0.0619  0.0496  0.6796
  700MOL0     N94382   1.421   5.792  10.947 -0.1247 -0.0658 -0.5637
  700MOL0     C94383   1.408   5.733  11.073  0.4961 -0.4590  0.6235
  700MOL0     C94384   1.423   5.835  11.159  0.5146 -0.7422 -0.3742
  700MOL0     C94385   1.415   5.830  11.313 -0.6457  0.0025  0.0651
  700MOL0     C94386   1.267   5.822  11.356  0.7272 -1.2902 -0.6784
  700MOL0     C94387   1.179   5.940  11.304  0.2076 -0.0053  0.3882
  700MOL0     C94388   1.035   5.951  11.363  0.1104  0.4406 -0.7588
  700MOL0     O94389   0.953   6.050  11.307 -0.1697  0.1761  0.2346
  700MOL0     C94390   0.864   6.126  11.382 -0.0457  0.8916 -0.2406
  700MOL0     C94391   0.850   6.124  11.525 -0.2888 -0.6566  0.5544
  700MOL0     C94392   0.753   6.214  11.591  0.0086  0.1145 -0.0180
  700MOL0     C94393   0.738   6.204  11.733 -0.0084 -0.2723  0.3586
  700MOL0     C94394   0.673   6.297  11.502 -0.4116  0.0116 -0.7456
  700MOL0     C94395   0.568   6.400  11.546  0.1975 -1.3351  0.3928
  700MOL0     O94396   0.477   6.443  11.444 -0.4650 -0.0769  0.2830
  700MOL0     C94397   0.369   6.518  11.485 -0.1325  0.5036 -0.6355
  700MOL0     C94398   0.277   6.481  11.580  0.3501  0.4629  0.0955
  700MOL0     C94399   0.166   6.555  11.604  0.6449 -0.9094 -0.1028
  700MOL0     C94400   0.148   6.678  11.541 -0.0819 -0.5972  0.4797
  700MOL0     O94401   0.040   6.761  11.552 -0.4448 -0.0941  0.3264
  700MOL0     C94402  -0.075   6.705  11.616  0.3554  0.3631 -0.1044
  700MOL0     C94403  -0.150   6.613  11.514 -0.2032  1.0136 -0.4822
  700MOL0     C94404  -0.261   6.547  11.599  0.5472  0.3431  0.1620
  700MOL0     C94405  -0.344   6.440  11.532  0.7039  0.4638  0.8430
  700MOL0     C94406  -0.435   6.515  11.434 -0.0267  0.0831 -0.0130
  700MOL0     C94407  -0.523   6.414  11.363 -0.5424  0.3998 -0.1103
  700MOL0     C94408  -0.643   6.480  11.302  0.9173  0.0450 -0.5399
  700MOL0     C94409  -0.739   6.380  11.237 -0.2730  0.5527 -0.6567
  700MOL0    Cl94410  -0.672   6.311  11.086 -0.1338  0.0895  0.2336
  700MOL0     C94411   0.237   6.711  11.434  0.1261  0.5939 -0.2734
  700MOL0     C94412   0.344   6.628  11.409 -0.1357 -0.4351  0.2083
  700MOL0     O94413   0.564   6.436  11.663 -0.0555 -0.2675 -0.2250
  700MOL0     C94414   0.675   6.262  11.365  0.0118 -0.5900  0.8548
  700MOL0     C94415   0.782   6.204  11.303 -0.6110  0.0117  0.1332
  700MOL0     N94416   1.429   5.956  11.084  0.3241  0.0901  0.1779
  700MOL0     N94417   1.434   5.927  10.961 -0.2485  0.8206 -0.1457
  700MOL0     C94418   2.371   5.239  10.213 -0.4240  0.0584  0.2203
  700MOL0     C94419   2.503   5.251  10.167 -0.1639 -0.4267  0.0612
  700MOL0     C94420   2.843   5.508   9.974 -0.0375  0.0633 -0.0450
  700MOL0     C94421   2.895   5.627   9.926 -0.8523 -0.6821 -0.0516
  700MOL0     C94422   2.970   5.625   9.808 -0.1113 -0.5063  0.9479
  700MOL0     C94423   3.003   5.503   9.746  0.1495 -0.0551  1.1699
  700MOL0     O94424   3.077   5.490   9.621 -0.4742  0.1687  0.7071
  700MOL0     C94425   3.148   5.604   9.560  0.9000 -0.3546 -0.4959
  700MOL0     C94426   3.277   5.617   9.638 -0.7398  1.5662 -0.4964
  700MOL0     C94427   3.370   5.723   9.586  0.0824 -0.5205  0.9023
  700MOL0     C94428   3.516   5.701   9.622 -1.0003 -0.3837  0.4109
  700MOL0     C94429   3.536   5.680   9.771  0.1023  0.9217  0.8246
  700MOL0     C94430   3.566   5.671   9.893  0.9873 -0.0058  1.2731
  700MOL0     C94431   2.935   5.387   9.788 -1.1988  0.5900  0.2421
  700MOL0     C94432   2.856   5.388   9.897  0.2334 -0.3524 -0.5395
  700MOL0     H94433   2.560   5.563  10.287 -0.9796 -0.5919  2.7773
  700MOL0     H94434   2.340   5.551  10.346 -0.8751 -0.5034  0.4455
  700MOL0     H94435   2.136   5.447  10.444  1.0436  0.4555  0.3041
  700MOL0     H94436   2.094   5.492  10.270  1.9056  1.0580 -0.2217
  700MOL0     H94437   1.879   5.409  10.295  2.1333 -1.7213 -2.2758
  700MOL0     H94438   1.926   5.276  10.407 -1.3720  0.2088 -0.8392
  700MOL0     H94439   1.968   5.457  10.587 -0.5695  1.2731  0.8011
  700MOL0     H94440   1.913   5.580  10.469  0.4904 -0.1382 -0.2783
  700MOL0     H94441   1.697   5.444  10.466  1.2089 -0.9223 -1.3830
  700MOL0     H94442   1.762   5.346  10.594  0.6190 -0.1250 -3.2377
  700MOL0     H94443   1.723   5.481  10.755  1.1842 -1.2640 -1.1599
  700MOL0     H94444   1.809   5.614  10.678  1.1901 -1.8937  0.1649
  700MOL0     H94445   1.606   5.687  10.587 -0.3535 -0.6453  1.2771
  700MOL0     H94446   1.527   5.531  10.622 -1.9085  1.0434 -0.6139
  700MOL0     H94447   1.568   5.568  10.868  2.8731 -1.8929 -1.1802
  700MOL0     H94448   1.623   5.731  10.828 -2.2990  2.3484 -1.7814
  700MOL0     H94449   1.322   5.652  10.819 -2.0568  2.3706 -0.2548
  700MOL0     H94450   1.394   5.789  10.733  1.1101  0.5433  0.8706
  700MOL0     H94451   1.391   5.627  11.085 -1.0782 -0.4974 -1.3221
  700MOL0     H94452   1.477   5.751  11.355 -0.0772  0.6665  0.4932
  700MOL0     H94453   1.463   5.922  11.346  0.7770  0.2153 -2.3606
  700MOL0     H94454   1.264   5.828  11.465  2.8210 -2.2028 -0.5295
  700MOL0     H94455   1.216   5.734  11.316 -0.8217 -0.4339 -0.6467
  700MOL0     H94456   1.169   5.943  11.195 -0.2251  0.3329  0.4336
  700MOL0     H94457   1.235   6.024  11.344 -0.8857  1.8822 -1.8313
  700MOL0     H94458   1.044   5.972  11.470 -3.2893  3.9127 -0.9301
  700MOL0     H94459   0.989   5.852  11.360  1.3000 -0.1954  0.7224
  700MOL0     H94460   0.910   6.062  11.591 -0.2339 -0.9519  0.2286
  700MOL0     H94461   0.781   6.293  11.782  1.8660 -2.1319  2.3204
  700MOL0     H94462   0.630   6.195  11.746 -0.7852  1.2919 -3.7203
  700MOL0     H94463   0.793   6.119  11.776  1.2115  0.9589  1.3545
  700MOL0     H94464   0.283   6.390  11.639  0.4277  0.2899 -0.1785
  700MOL0     H94465   0.090   6.511  11.668  0.1663  0.0694  0.0175
  700MOL0     H94466  -0.053   6.654  11.710  0.5550 -2.7551 -1.6937
  700MOL0     H94467  -0.149   6.779  11.646  1.5930  0.5079  2.9110
  700MOL0     H94468  -0.208   6.664  11.438 -3.4257 -1.6377 -0.0313
  700MOL0     H94469  -0.079   6.542  11.468  0.6088  1.2027  0.4444
  700MOL0     H94470  -0.338   6.609  11.645 -0.9031  0.4836 -2.2600
  700MOL0     H94471  -0.205   6.504  11.683  1.6443  3.1825  1.0037
  700MOL0     H94472  -0.281   6.366  11.483 -0.7138  0.0353 -0.4207
  700MOL0     H94473  -0.408   6.393  11.607  0.7775 -1.9165 -0.4926
  700MOL0     H94474  -0.373   6.555  11.353 -0.6421 -0.8175 -0.9672
  700MOL0     H94475  -0.488   6.604  11.469 -0.0909  0.6833 -1.5365
  700MOL0     H94476  -0.464   6.362  11.286 -1.4437  0.4137 -0.8287
  700MOL0     H94477  -0.548   6.338  11.437  1.6887  0.3742  0.7027
  700MOL0     H94478  -0.608   6.545  11.221 -0.3915  0.8703 -0.4895
  700MOL0     H94479  -0.689   6.536  11.384  3.6996  1.5254  0.1253
  700MOL0     H94480  -0.831   6.437  11.222 -0.1978  0.6522 -0.7499
  700MOL0     H94481  -0.756   6.309  11.318 -1.6930 -2.1277 -3.1205
  700MOL0     H94482   0.229   6.792  11.362 -0.7116  1.0757  0.3477
  700MOL0     H94483   0.414   6.667  11.336 -0.3004  1.4331  0.9858
  700MOL0     H94484   0.608   6.306  11.291  1.7441  0.3315 -0.2202
  700MOL0     H94485   0.791   6.197  11.195 -1.3454 -1.0191  0.1203
  700MOL0     H94486   2.326   5.143  10.190  2.1087 -0.6101 -2.7153
  700MOL0     H94487   2.528   5.161  10.112 -0.1783  0.3930 -1.3385
  700MOL0     H94488   2.890   5.714   9.992 -2.7272  0.2325 -1.3048
  700MOL0     H94489   3.015   5.720   9.782 -1.3698  0.2176  1.3337
  700MOL0     H94490   3.165   5.586   9.454  1.2650  1.8887 -0.8693
  700MOL0     H94491   3.092   5.698   9.562 -2.1426 -1.9478 -2.5250
  700MOL0     H94492   3.344   5.531   9.628 -1.7477  0.9917 -3.0491
  700MOL0     H94493   3.254   5.637   9.743  0.3346  0.7939 -0.0969
  700MOL0     H94494   3.342   5.818   9.632 -2.6040 -0.1526 -1.2159
  700MOL0     H94495   3.345   5.737   9.480 -0.3099 -0.6085  0.9806
  700MOL0     H94496   3.562   5.797   9.596 -2.8941 -0.0768 -2.2632
  700MOL0     H94497   3.571   5.631   9.558  2.5379  2.7655 -0.3988
  700MOL0     H94498   3.600   5.670   9.994  3.2971  0.2840  0.5702
  700MOL0     H94499   2.968   5.295   9.740 -1.2085 -0.2832  1.8333
  700MOL0     H94500   2.821   5.292   9.936  1.1208 -0.3151  0.3937
  701MOL0     O94501   1.012   5.490  10.112  0.1698 -0.3271 -0.0828
  701MOL0     C94502   0.920   5.471  10.035  0.7517  0.0814  0.7853
  701MOL0     O94503   0.937   5.467   9.895 -0.6438 -0.2231 -0.3225
  701MOL0     C94504   1.064   5.487   9.851  0.0077  0.1552 -0.7571
  701MOL0     C94505   1.096   5.608   9.790  0.4272  0.1800 -0.0983
  701MOL0     C94506   1.222   5.626   9.738 -0.0104 -0.2828  0.1414
  701MOL0     C94507   1.317   5.525   9.744 -0.0014 -0.4420 -0.3435
  701MOL0     O94508   1.452   5.535   9.710 -0.2770 -0.6036 -0.1153
  701MOL0     C94509   1.515   5.663   9.680 -0.2514 -0.3740 -0.1427
  701MOL0     C94510   1.533   5.742   9.811 -0.3251 -0.0535  0.4222
  701MOL0     C94511   1.649   5.678   9.888  0.0495 -0.6381 -0.7316
  701MOL0     C94512   1.663   5.732  10.028  0.4833 -0.4689  0.2280
  701MOL0     C94513   1.563   5.682  10.130  0.1345 -0.2726 -0.9567
  701MOL0     C94514   1.516   5.531  10.128 -0.2282 -0.4277  0.3278
  701MOL0     C94515   1.389   5.518  10.227  0.2472  0.4013 -0.2529
  701MOL0     C94516   1.419   5.566  10.373 -0.6356  0.2786  0.5480
  701MOL0     N94517   1.296   5.572  10.455  0.0912 -0.1887  0.5174
  701MOL0     C94518   1.171   5.622  10.430  0.1908  0.2784  0.9152
  701MOL0     C94519   1.103   5.592  10.542 -0.5728  0.4757 -0.4860
  701MOL0     C94520   0.958   5.614  10.563  0.1799 -0.9505  0.8080
  701MOL0     C94521   0.893   5.607  10.702 -0.1676 -0.0556  0.0031
  701MOL0     C94522   0.737   5.610  10.686  0.0468 -0.5833 -1.7775
  701MOL0     C94523   0.675   5.611  10.829  0.1216 -0.3991  0.6068
  701MOL0     O94524   0.557   5.676  10.804  1.5550  0.0574  0.1155
  701MOL0     C94525   0.457   5.650  10.900 -0.2235  0.0694 -0.1474
  701MOL0     C94526   0.342   5.587  10.850  0.0649 -0.0214  0.5331
  701MOL0     C94527   0.238   5.569  10.946 -0.1814  0.0726  0.5059
  701MOL0     C94528   0.113   5.503  10.898 -1.1389 -0.8103 -0.0388
  701MOL0     C94529   0.236   5.625  11.075 -0.1988 -1.0102 -0.1326
  701MOL0     C94530   0.123   5.618  11.170 -0.9836 -0.1565 -0.1630
  701MOL0     O94531   0.024   5.716  11.166  0.4324 -0.1177 -0.2524
  701MOL0     C94532  -0.079   5.704  11.259 -1.0223 -0.0970  0.3543
  701MOL0     C94533  -0.054   5.739  11.395  0.5904 -0.3640  0.0795
  701MOL0     C94534  -0.159   5.720  11.490  0.1497 -0.3294  0.0217
  701MOL0     C94535  -0.286   5.670  11.453  0.3488 -0.0026 -0.4018
  701MOL0     O94536  -0.380   5.653  11.547  0.5901  0.0926 -0.0665
  701MOL0     C94537  -0.447   5.526  11.559  0.6460 -0.6675  1.3360
  701MOL0     C94538  -0.343   5.412  11.546 -0.3837  0.2085 -0.3696
  701MOL0     C94539  -0.230   5.414  11.655 -0.7800  0.6877 -0.7258
  701MOL0     C94540  -0.143   5.277  11.667  0.2086  0.0010  0.3871
  701MOL0     C94541  -0.069   5.295  11.795 -0.4942  0.2253  0.0337
  701MOL0     C94542   0.046   5.197  11.811  0.3596 -0.2833  0.1762
  701MOL0     C94543   0.138   5.222  11.932  0.0702 -0.5713  0.2916
  701MOL0     C94544   0.074   5.215  12.069  0.2419 -0.0068  0.7269
  701MOL0    Cl94545   0.007   5.051  12.076 -0.1686 -0.2057 -0.0928
  701MOL0     C94546  -0.301   5.637  11.321 -0.6621 -0.2525 -0.5653
  701MOL0     C94547  -0.202   5.654  11.228  0.1995 -0.6860  0.4485
  701MOL0     O94548   0.133   5.527  11.253  0.3675 -0.3162  0.4524
  701MOL0     C94549   0.363   5.672  11.123  0.0385 -0.4460  0.1710
  701MOL0     C94550   0.476   5.693  11.033  0.3771  0.2516 -0.1246
  701MOL0     N94551   1.190   5.533  10.633  1.5060  0.1962 -0.3909
  701MOL0     N94552   1.297   5.516  10.579 -0.3861  0.0398  0.7346
  701MOL0     C94553   1.283   5.398   9.791  0.7633  0.7267 -0.0922
  701MOL0     C94554   1.154   5.380   9.842 -0.2989 -0.8448  0.2451
  701MOL0     C94555   0.783   5.445  10.080  0.2458 -0.1720 -0.3418
  701MOL0     C94556   0.763   5.449  10.223  0.5437 -0.4704 -0.7589
  701MOL0     C94557   0.641   5.426  10.280  1.0254 -0.0364 -0.0853
  701MOL0     C94558   0.523   5.406  10.199  0.3211 -0.1224 -0.1234
  701MOL0     O94559   0.392   5.415  10.246 -0.1056 -0.0700  0.2264
  701MOL0     C94560   0.370   5.429  10.387  1.1344 -0.6347  0.0846
  701MOL0     C94561   0.224   5.406  10.419  0.1690  0.5170  1.1068
  701MOL0     C94562   0.178   5.267  10.375 -0.6767 -0.3693 -0.3173
  701MOL0     C94563   0.073   5.210  10.478  0.0214  0.2099 -0.5034
  701MOL0     C94564   0.128   5.163  10.607  0.2500 -0.2922  0.5087
  701MOL0     C94565   0.171   5.113  10.710  0.0230 -0.3654  0.5959
  701MOL0     C94566   0.553   5.394  10.058  0.8322  0.9396 -0.6673
  701MOL0     C94567   0.675   5.412  10.000  0.7521 -0.4116 -0.0620
  701MOL0     H94568   1.020   5.685   9.789 -0.8284 -0.7282  4.4851
  701MOL0     H94569   1.256   5.719   9.694 -1.8353 -0.3283 -1.5190
  701MOL0     H94570   1.593   5.636   9.607  0.2637 -0.8122  0.5572
  701MOL0     H94571   1.448   5.724   9.619 -1.5515 -0.7392  0.8847
  701MOL0     H94572   1.553   5.847   9.790 -0.3451  0.0314  0.8091
  701MOL0     H94573   1.445   5.746   9.876  0.5741  1.6795  1.6098
  701MOL0     H94574   1.634   5.569   9.887 -0.3881 -0.6453  1.6912
  701MOL0     H94575   1.743   5.692   9.832 -0.1167 -1.8504 -1.3625
  701MOL0     H94576   1.761   5.698  10.064  1.4454  1.1759 -0.7067
  701MOL0     H94577   1.663   5.841  10.027 -2.7648 -0.3374 -2.5129
  701MOL0     H94578   1.601   5.705  10.230  1.7524 -1.5041 -1.2474
  701MOL0     H94579   1.468   5.734  10.117  0.5477  0.3622 -1.4460
  701MOL0     H94580   1.491   5.506  10.025  0.2070  1.0145 -0.1474
  701MOL0     H94581   1.595   5.465  10.164  0.4597 -0.0129 -0.3893
  701MOL0     H94582   1.309   5.575  10.179 -1.2449  0.5394  2.2066
  701MOL0     H94583   1.361   5.413  10.236  1.1147 -0.0457 -2.2081
  701MOL0     H94584   1.459   5.668  10.371  1.2851 -0.4433 -0.2745
  701MOL0     H94585   1.492   5.497  10.416  2.3829  0.0854 -4.1247
  701MOL0     H94586   1.131   5.670  10.340  0.7563  0.0384  0.5304
  701MOL0     H94587   0.935   5.713  10.522  4.3650 -1.2054 -2.9165
  701MOL0     H94588   0.912   5.538  10.499  1.6190 -0.7458 -0.5263
  701MOL0     H94589   0.918   5.687  10.773 -1.0050 -0.5893  0.9288
  701MOL0     H94590   0.925   5.517  10.754  0.0059  0.8816  1.5896
  701MOL0     H94591   0.691   5.527  10.630 -1.8690  0.5977 -2.0491
  701MOL0     H94592   0.717   5.703  10.632 -2.2423  1.3479  1.9851
  701MOL0     H94593   0.743   5.663  10.897  1.3834  2.8930 -2.7963
  701MOL0     H94594   0.669   5.505  10.856 -1.5464 -1.0305 -1.9100
  701MOL0     H94595   0.333   5.567  10.744  0.6296  1.6926  0.1281
  701MOL0     H94596   0.135   5.397  10.882  0.4189 -0.1955 -2.5219
  701MOL0     H94597   0.032   5.504  10.971 -2.6235  1.0825 -1.6079
  701MOL0     H94598   0.077   5.555  10.809 -0.4765 -0.3816 -0.0631
  701MOL0     H94599   0.037   5.783  11.434 -0.1998  0.1997  1.3460
  701MOL0     H94600  -0.135   5.754  11.590 -0.3610  1.0137 -0.2877
  701MOL0     H94601  -0.502   5.509  11.652  0.4132  0.8884  1.5190
  701MOL0     H94602  -0.515   5.511  11.474  2.3860  0.0087 -0.2341
  701MOL0     H94603  -0.394   5.316  11.556  0.5829 -0.2434  0.5008
  701MOL0     H94604  -0.310   5.402  11.443 -0.9633 -1.4183 -0.4245
  701MOL0     H94605  -0.278   5.423  11.753 -0.5059 -0.3379 -0.4843
  701MOL0     H94606  -0.159   5.496  11.638 -0.2031  0.2992 -0.2475
  701MOL0     H94607  -0.205   5.186  11.668  0.1135 -0.3977 -5.3975
  701MOL0     H94608  -0.084   5.269  11.575 -2.9177 -0.3999 -1.7794
  701MOL0     H94609  -0.136   5.300  11.881  0.0400  2.7476  0.3727
  701MOL0     H94610  -0.018   5.391  11.788 -1.4872  0.7100 -0.7494
  701MOL0     H94611  -0.000   5.100  11.829 -0.8266  0.4917  1.5313
  701MOL0     H94612   0.112   5.202  11.724  2.1667  1.2634  1.5416
  701MOL0     H94613   0.178   5.323  11.925 -1.7077  0.0748 -1.6498
  701MOL0     H94614   0.229   5.162  11.928  0.8299  0.5325  0.5601
  701MOL0     H94615  -0.011   5.284  12.073 -0.4582 -0.7853 -0.2174
  701MOL0     H94616   0.139   5.253  12.147  2.2035  0.4120 -1.0365
  701MOL0     H94617  -0.400   5.616  11.282 -0.8104  0.2808 -0.4894
  701MOL0     H94618  -0.207   5.653  11.120  1.4234 -0.3525  0.3839
  701MOL0     H94619   0.381   5.693  11.228 -0.3159  1.8656 -0.1643
  701MOL0     H94620   0.566   5.741  11.070 -0.8881  2.6594 -0.0304
  701MOL0     H94621   1.350   5.313   9.794 -0.9741 -0.6760  1.3198
  701MOL0     H94622   1.117   5.287   9.885 -0.3158 -0.0981  1.9110
  701MOL0     H94623   0.845   5.477  10.288 -0.4402 -0.7249  0.6504
  701MOL0     H94624   0.627   5.435  10.388 -2.9168  2.1019 -0.5903
  701MOL0     H94625   0.426   5.353  10.442  1.5674  0.5902  1.4254
  701MOL0     H94626   0.396   5.529  10.425  1.6425 -0.4914 -0.6237
  701MOL0     H94627   0.161   5.485  10.376 -2.4394 -0.7281  2.4054
  701MOL0     H94628   0.217   5.415  10.528  0.3277 -2.2963  1.4125
  701MOL0     H94629   0.266   5.202  10.368 -0.9794 -0.8450  0.1942
  701MOL0     H94630   0.131   5.269  10.277  2.1319  0.5584 -1.7496
  701MOL0     H94631   0.023   5.132  10.421 -0.0847  0.8091 -1.2520
  701MOL0     H94632   0.001   5.289  10.501  0.7587 -0.0940  3.5588
  701MOL0     H94633   0.204   5.077  10.805 -1.4070 -1.4641  0.7083
  701MOL0     H94634   0.468   5.361  10.000  1.0358 -1.5544  0.3029
  701MOL0     H94635   0.682   5.411   9.891  1.7973  0.5993 -0.0216
  702MOL0     O94636   1.456   7.909   9.375  0.2034 -0.2042 -0.8618
  702MOL0     C94637   1.526   7.830   9.439 -0.3534 -0.2214 -0.1824
  702MOL0     O94638   1.484   7.720   9.512  0.3701  0.1326 -0.0064
  702MOL0     C94639   1.349   7.690   9.505  0.0509 -0.0706 -0.0142
  702MOL0     C94640   1.276   7.671   9.617  0.1575  0.1465  0.1040
  702MOL0     C94641   1.138   7.633   9.607  0.0831  0.8134 -0.7866
  702MOL0     C94642   1.074   7.598   9.488  0.2746 -0.5084  0.0925
  702MOL0     O94643   0.939   7.553   9.485 -0.3162  0.7121  0.3244
  702MOL0     C94644   0.900   7.459   9.590  0.0409  0.1635 -1.1473
  702MOL0     C94645   0.750   7.461   9.599  0.7465 -0.5677  0.0333
  702MOL0     C94646   0.694   7.352   9.688  0.6038 -0.1315  0.4057
  702MOL0     C94647   0.548   7.336   9.683  0.7080 -0.6595 -0.4725
  702MOL0     C94648   0.488   7.232   9.766 -0.0811  0.3446 -0.3960
  702MOL0     C94649   0.354   7.176   9.728  0.6341 -0.6797  0.7180
  702MOL0     C94650   0.246   7.283   9.684 -0.1922 -0.2648  0.8996
  702MOL0     C94651   0.122   7.209   9.617 -0.1039 -0.3903 -0.2498
  702MOL0     N94652   0.056   7.123   9.719  0.2906 -0.3876 -0.0398
  702MOL0     C94653  -0.013   7.165   9.833  0.3360 -0.9027  0.7534
  702MOL0     C94654  -0.060   7.055   9.885 -0.5134 -0.1851  0.6807
  702MOL0     C94655  -0.127   7.023  10.013  0.0887 -0.2511 -0.1490
  702MOL0     C94656  -0.280   7.036  10.004  0.3254 -0.5408 -0.4413
  702MOL0     C94657  -0.333   7.164  10.066 -0.1234 -0.3221  0.1376
  702MOL0     C94658  -0.492   7.165  10.075 -0.7380  0.2903 -0.1150
  702MOL0     O94659  -0.546   7.067  10.168  0.1153  0.1835 -0.2738
  702MOL0     C94660  -0.683   7.050  10.177 -0.0087 -0.1173  0.3347
  702MOL0     C94661  -0.733   6.944  10.254 -0.1319 -0.3091 -0.2630
  702MOL0     C94662  -0.867   6.917  10.262  0.3635  0.2528 -0.8614
  702MOL0     C94663  -0.903   6.804  10.363  0.6204 -0.1517 -0.2263
  702MOL0     C94664  -0.964   6.985  10.174  0.9291  0.0379 -0.2820
  702MOL0     C94665  -1.109   6.943  10.168  0.4434  0.0393 -0.6553
  702MOL0     O94666  -1.179   6.970  10.054 -0.4733 -0.0437 -0.4846
  702MOL0     C94667  -1.272   6.898   9.987 -0.4055 -0.2012 -0.6957
  702MOL0     C94668  -1.351   6.970   9.890 -0.3650 -0.5321 -0.6583
  702MOL0     C94669  -1.449   6.906   9.811  0.0668  0.2628 -0.1495
  702MOL0     C94670  -1.465   6.768   9.815  0.2700  0.4043  0.3140
  702MOL0     O94671  -1.566   6.700   9.744 -0.2316 -0.2885  0.2607
  702MOL0     C94672  -1.626   6.581   9.794 -0.6418  0.3745  0.6237
  702MOL0     C94673  -1.723   6.531   9.681  0.7330 -0.1488  0.0964
  702MOL0     C94674  -1.810   6.413   9.730  0.1966 -0.7100 -0.1082
  702MOL0     C94675  -1.914   6.375   9.626 -0.0676 -0.3549  1.6533
  702MOL0     C94676  -1.984   6.254   9.677 -0.3734 -0.0111  0.5807
  702MOL0     C94677  -2.107   6.215   9.597 -0.1544 -0.1602  0.3224
  702MOL0     C94678  -2.181   6.097   9.663 -0.1374 -0.3885  0.0113
  702MOL0     C94679  -2.325   6.082   9.610 -0.6306 -0.2099 -0.2516
  702MOL0    Cl94680  -2.307   6.041   9.441 -0.3436  0.2210  0.2379
  702MOL0     C94681  -1.371   6.697   9.891 -0.8106 -0.5375 -0.2635
  702MOL0     C94682  -1.278   6.759   9.978  0.3934 -1.3129 -0.6737
  702MOL0     O94683  -1.154   6.876  10.255 -0.1586 -0.8354 -0.2876
  702MOL0     C94684  -0.909   7.091  10.100 -0.3207 -1.0691 -0.2412
  702MOL0     C94685  -0.771   7.126  10.111  0.3444 -0.6515 -0.3108
  702MOL0     N94686  -0.019   6.947   9.807 -1.1113 -0.1158 -0.0408
  702MOL0     N94687   0.039   6.988   9.702  0.1104 -0.5607  0.5396
  702MOL0     C94688   1.156   7.612   9.372  0.8232  0.3886  0.2106
  702MOL0     C94689   1.290   7.659   9.375  0.5252  1.2226 -0.0772
  702MOL0     C94690   1.666   7.855   9.440 -0.5775  0.0293  0.1770
  702MOL0     C94691   1.713   7.987   9.443  0.8545 -0.2050  0.9023
  702MOL0     C94692   1.850   8.016   9.465  0.1416 -0.3779 -0.9369
  702MOL0     C94693   1.943   7.913   9.484 -0.3749 -0.5691  0.0847
  702MOL0     O94694   2.076   7.960   9.490 -0.1278  0.6100  0.1397
  702MOL0     C94695   2.184   7.863   9.509 -0.7750  0.1736 -0.9050
  702MOL0     C94696   2.219   7.779   9.382  0.3731  0.6319  0.1015
  702MOL0     C94697   2.327   7.680   9.407  0.4702 -0.3330  0.3091
  702MOL0     C94698   2.461   7.740   9.453  0.2164  1.0067  0.3794
  702MOL0     C94699   2.565   7.635   9.454  0.7023  0.0081 -0.8083
  702MOL0     C94700   2.646   7.552   9.442 -0.8673  0.3633  0.0152
  702MOL0     C94701   1.891   7.782   9.498  0.3533  0.5889  0.0198
  702MOL0     C94702   1.754   7.746   9.465  0.2530  0.6044 -0.4509
  702MOL0     H94703   1.328   7.691   9.710  0.1190 -0.2240  0.2095
  702MOL0     H94704   1.090   7.628   9.704  1.5995  2.7126  0.1410
  702MOL0     H94705   0.933   7.357   9.569  0.8775 -0.2618  1.8264
  702MOL0     H94706   0.945   7.479   9.688 -0.7566 -0.0119 -0.7357
  702MOL0     H94707   0.706   7.559   9.621  0.2282 -0.0250 -3.0558
  702MOL0     H94708   0.724   7.439   9.495  0.0097  1.5704 -0.2877
  702MOL0     H94709   0.733   7.255   9.656  0.5333 -0.5500  1.5395
  702MOL0     H94710   0.720   7.366   9.793 -2.6483  3.4875  0.9642
  702MOL0     H94711   0.496   7.427   9.715  0.5736 -1.1156  0.6460
  702MOL0     H94712   0.528   7.311   9.578  4.9652 -3.0380 -0.9170
  702MOL0     H94713   0.553   7.146   9.781  1.2710  1.6764  1.8940
  702MOL0     H94714   0.482   7.275   9.866  0.3737 -0.2438 -0.1148
  702MOL0     H94715   0.357   7.090   9.661 -1.7426  0.1380 -0.5707
  702MOL0     H94716   0.312   7.126   9.816 -0.2856 -0.3998  0.4489
  702MOL0     H94717   0.216   7.341   9.772 -0.1324 -3.1190  2.9211
  702MOL0     H94718   0.285   7.348   9.605 -2.1760 -0.8363 -0.6636
  702MOL0     H94719   0.151   7.153   9.528 -2.3261 -0.2328 -1.1371
  702MOL0     H94720   0.056   7.285   9.572 -1.6704 -0.8926  1.0789
  702MOL0     H94721  -0.011   7.261   9.885 -0.5938  0.1723 -1.0951
  702MOL0     H94722  -0.102   6.919  10.034  0.3974 -0.0031  0.7369
  702MOL0     H94723  -0.078   7.073  10.097  1.1735  3.5410 -2.8034
  702MOL0     H94724  -0.330   6.948  10.045  0.9465 -1.3194 -1.3034
  702MOL0     H94725  -0.312   7.043   9.899 -3.1417 -2.1840  0.3610
  702MOL0     H94726  -0.311   7.247   9.999 -0.4994 -0.0625  0.3264
  702MOL0     H94727  -0.285   7.196  10.159 -1.0607  0.2682  0.4365
  702MOL0     H94728  -0.530   7.141   9.975  0.4866  0.1544 -0.5728
  702MOL0     H94729  -0.527   7.268  10.088 -0.0088  0.3612  1.6327
  702MOL0     H94730  -0.663   6.888  10.313  1.0307  1.1835 -0.1648
  702MOL0     H94731  -0.939   6.845  10.458 -0.4776  0.1210 -0.7452
  702MOL0     H94732  -0.977   6.730  10.331  0.1826 -1.1774  2.8623
  702MOL0     H94733  -0.819   6.735  10.376 -0.6313 -1.2180  3.2609
  702MOL0     H94734  -1.344   7.078   9.875  0.9956 -0.5515 -0.2878
  702MOL0     H94735  -1.517   6.967   9.752 -0.3991 -2.1099 -2.2297
  702MOL0     H94736  -1.547   6.505   9.801 -0.4607  0.2950 -1.7485
  702MOL0     H94737  -1.672   6.594   9.893  0.5790 -1.6439  1.5212
  702MOL0     H94738  -1.786   6.618   9.659  0.1735 -0.9731 -1.7039
  702MOL0     H94739  -1.668   6.502   9.591 -1.0368  0.6007 -1.2763
  702MOL0     H94740  -1.853   6.437   9.828 -0.2223 -2.0456  0.0506
  702MOL0     H94741  -1.740   6.332   9.751 -1.3964 -1.9028  0.7285
  702MOL0     H94742  -1.991   6.450   9.608  0.0961 -0.8105 -1.6500
  702MOL0     H94743  -1.866   6.355   9.529  3.5350  2.8597  2.5404
  702MOL0     H94744  -2.020   6.289   9.774 -3.5884  0.8831 -0.7923
  702MOL0     H94745  -1.917   6.168   9.688 -1.7640 -1.1939  0.0469
  702MOL0     H94746  -2.170   6.305   9.601  3.3603  2.6943 -2.3891
  702MOL0     H94747  -2.080   6.193   9.493 -0.0696 -1.7517  0.6497
  702MOL0     H94748  -2.193   6.134   9.765 -0.9682  1.4160 -0.6917
  702MOL0     H94749  -2.117   6.008   9.661  0.4885 -0.1331  3.0398
  702MOL0     H94750  -2.379   6.177   9.610 -2.2131 -1.0757 -1.1611
  702MOL0     H94751  -2.378   6.007   9.670 -0.8759 -2.1038 -2.7137
  702MOL0     H94752  -1.374   6.588   9.890 -1.9379 -0.7053  3.6900
  702MOL0     H94753  -1.203   6.704  10.035  1.2855  1.1712  0.7420
  702MOL0     H94754  -0.972   7.155  10.038  4.0216  0.9740 -3.0378
  702MOL0     H94755  -0.746   7.204  10.040  3.8346 -0.9284  0.4004
  702MOL0     H94756   1.116   7.581   9.277  3.2362 -3.4568  0.2380
  702MOL0     H94757   1.356   7.668   9.289  0.6119 -1.2755 -0.3719
  702MOL0     H94758   1.645   8.070   9.429  1.0317 -0.0249  1.0997
  702MOL0     H94759   1.888   8.116   9.478 -1.5552 -0.0124  1.8187
  702MOL0     H94760   2.266   7.928   9.541 -0.2966  0.8890 -3.4122
  702MOL0     H94761   2.162   7.792   9.590 -0.2509  0.9638 -0.0476
  702MOL0     H94762   2.245   7.839   9.294 -0.1555 -0.2650 -0.6920
  702MOL0     H94763   2.129   7.721   9.358  2.6308 -2.9366 -0.3355
  702MOL0     H94764   2.329   7.623   9.314 -3.1379  0.5525 -0.4627
  702MOL0     H94765   2.301   7.609   9.486  1.1622 -0.9819 -0.0396
  702MOL0     H94766   2.454   7.783   9.554  2.1273 -0.2700  1.1149
  702MOL0     H94767   2.490   7.815   9.378 -2.7291  0.1668 -1.7525
  702MOL0     H94768   2.727   7.482   9.449 -2.4878 -1.6829 -0.6552
  702MOL0     H94769   1.958   7.701   9.525 -0.3380  0.5769  1.8086
  702MOL0     H94770   1.721   7.643   9.470  1.3868  0.3029  1.3077
  703MOL0     O94771   5.063   7.954   1.568 -0.3686  0.1801  0.1117
  703MOL0     C94772   5.027   8.059   1.623  0.7097  0.3446  0.4402
  703MOL0     O94773   4.896   8.075   1.660 -0.1453 -0.1393 -0.4272
  703MOL0     C94774   4.820   7.967   1.705 -0.2608 -0.8756  0.3051
  703MOL0     C94775   4.681   7.989   1.705 -0.8202  0.3278 -0.5487
  703MOL0     C94776   4.590   7.892   1.740 -0.4998 -0.0002  0.1814
  703MOL0     C94777   4.634   7.764   1.759  0.8588  0.6245  0.1831
  703MOL0     O94778   4.537   7.685   1.813  0.7295  0.0844  0.6432
  703MOL0     C94779   4.540   7.542   1.769 -0.3105 -1.1919 -0.8642
  703MOL0     C94780   4.422   7.513   1.678  0.1569  0.4726 -0.7522
  703MOL0     C94781   4.407   7.617   1.561  0.8339 -0.3162  0.4765
  703MOL0     C94782   4.275   7.579   1.493  0.2317 -0.2385 -0.5922
  703MOL0     C94783   4.233   7.684   1.385 -0.4173 -0.2377 -0.1125
  703MOL0     C94784   4.080   7.660   1.347  0.1968 -0.0426  0.6968
  703MOL0     C94785   4.054   7.713   1.209 -0.1069  0.0580  0.0573
  703MOL0     C94786   3.927   7.654   1.156  0.5660 -0.9673  0.3203
  703MOL0     N94787   3.807   7.683   1.239 -0.3579 -0.7454 -0.8113
  703MOL0     C94788   3.730   7.610   1.329  0.1118  0.8109 -0.2722
  703MOL0     C94789   3.623   7.682   1.362 -0.4271 -0.4880 -0.4573
  703MOL0     C94790   3.506   7.631   1.432  0.7129  0.1992 -0.3473
  703MOL0     C94791   3.386   7.574   1.349 -0.1521 -0.0128 -0.0701
  703MOL0     C94792   3.338   7.662   1.226 -0.4053  0.7518 -0.3986
  703MOL0     C94793   3.304   7.808   1.254 -0.2979 -0.1607  0.8875
  703MOL0     O94794   3.275   7.868   1.133 -0.4665  0.1322  0.1606
  703MOL0     C94795   3.140   7.908   1.110  0.0705 -0.2720  0.7419
  703MOL0     C94796   3.103   8.033   1.149  1.0612  0.2866 -0.4357
  703MOL0     C94797   2.967   8.067   1.128 -0.2745  0.4380 -0.2364
  703MOL0     C94798   2.922   8.208   1.173 -0.6956  0.2081 -1.1561
  703MOL0     C94799   2.881   7.976   1.055 -0.8739  0.9618  0.1156
  703MOL0     C94800   2.741   7.999   1.026 -0.6173  0.8920 -0.4285
  703MOL0     O94801   2.687   7.926   0.931 -0.2070 -0.3449 -0.2206
  703MOL0     C94802   2.572   7.970   0.880  0.3224 -0.4251 -0.3081
  703MOL0     C94803   2.562   8.049   0.762 -0.2436 -0.4587  0.2117
  703MOL0     C94804   2.439   8.090   0.702 -0.2674 -0.5897 -0.2795
  703MOL0     C94805   2.325   8.056   0.775 -0.1325  0.4327 -0.3847
  703MOL0     O94806   2.199   8.086   0.734 -0.2758  0.0921 -1.0778
  703MOL0     C94807   2.185   8.199   0.650 -0.3700 -0.3544 -0.3559
  703MOL0     C94808   2.037   8.239   0.642  0.1048  0.4842  0.1973
  703MOL0     C94809   1.951   8.228   0.776 -0.5036  0.0311 -0.6100
  703MOL0     C94810   1.803   8.231   0.737  1.2649  0.1014  0.7350
  703MOL0     C94811   1.707   8.216   0.860  0.5397 -0.0763  0.1368
  703MOL0     C94812   1.564   8.242   0.810  0.0324 -0.2892 -0.9252
  703MOL0     C94813   1.477   8.247   0.935 -0.1078 -0.0705 -0.2132
  703MOL0     C94814   1.329   8.263   0.890 -0.2658  0.7812  0.9190
  703MOL0    Cl94815   1.244   8.105   0.856 -0.2445  0.1530 -0.3181
  703MOL0     C94816   2.332   7.967   0.887 -0.5053  0.1165  0.2720
  703MOL0     C94817   2.455   7.927   0.936 -0.6247  0.1049 -1.1104
  703MOL0     O94818   2.688   8.075   1.101 -0.5289  0.2552  0.0330
  703MOL0     C94819   2.927   7.851   1.015  0.3706  0.2339  0.3100
  703MOL0     C94820   3.054   7.809   1.059 -0.0962  1.0302  0.3504
  703MOL0     N94821   3.637   7.806   1.307  0.0304  0.0335  0.9988
  703MOL0     N94822   3.742   7.809   1.234 -1.0829 -0.2682 -0.1321
  703MOL0     C94823   4.776   7.736   1.760  0.5666  0.9328 -0.1627
  703MOL0     C94824   4.870   7.845   1.752  0.2472  0.2348  0.0344
  703MOL0     C94825   5.126   8.161   1.657 -0.7763 -1.2073 -0.1390
  703MOL0     C94826   5.089   8.270   1.743  0.4875  0.2436 -0.1684
  703MOL0     C94827   5.184   8.367   1.779 -1.1572  0.5385  0.2591
  703MOL0     C94828   5.312   8.370   1.726  0.6241 -0.2121  0.3286
  703MOL0     O94829   5.400   8.467   1.768  0.6783 -0.3628 -0.5284
  703MOL0     C94830   5.529   8.470   1.714 -1.1065  0.1635  0.8102
  703MOL0     C94831   5.521   8.524   1.570 -0.1755  0.2122 -0.2697
  703MOL0     C94832   5.653   8.523   1.494 -0.0057 -0.3576  0.3390
  703MOL0     C94833   5.705   8.666   1.504 -0.4512  0.6109 -0.4013
  703MOL0     C94834   5.836   8.677   1.446  0.0859 -0.4560 -0.3460
  703MOL0     C94835   5.945   8.672   1.395 -0.1105 -0.0706  0.9783
  703MOL0     C94836   5.342   8.278   1.628  0.3528 -0.0269 -0.1015
  703MOL0     C94837   5.250   8.174   1.597 -0.1776  0.6643 -0.1385
  703MOL0     H94838   4.646   8.083   1.663  0.9315  1.6174  0.7030
  703MOL0     H94839   4.489   7.925   1.760 -1.2341 -0.9890 -1.6386
  703MOL0     H94840   4.631   7.529   1.710  0.9683  1.4657  0.3330
  703MOL0     H94841   4.532   7.469   1.850  1.2524 -1.1920 -0.6721
  703MOL0     H94842   4.435   7.413   1.636 -4.4857 -1.5885  1.9286
  703MOL0     H94843   4.334   7.495   1.740  2.1527 -4.0266  1.2705
  703MOL0     H94844   4.398   7.722   1.590 -2.5736  0.3931 -2.5135
  703MOL0     H94845   4.484   7.613   1.483 -0.1324 -0.3416 -0.4990
  703MOL0     H94846   4.283   7.484   1.438  0.1052  0.0570 -1.1311
  703MOL0     H94847   4.193   7.576   1.566 -0.1950  0.9438 -1.0004
  703MOL0     H94848   4.251   7.786   1.418 -0.7903 -0.8272  2.0552
  703MOL0     H94849   4.300   7.673   1.299 -0.3240 -2.1936  0.1621
  703MOL0     H94850   4.062   7.552   1.351 -0.4208 -0.0590 -1.4269
  703MOL0     H94851   4.021   7.721   1.416  1.1076  1.3702  0.2777
  703MOL0     H94852   4.040   7.821   1.221 -1.0732 -0.3614  3.5111
  703MOL0     H94853   4.140   7.688   1.146  1.0856 -1.1517  2.0904
  703MOL0     H94854   3.942   7.545   1.152  0.1040 -0.9976 -1.8116
  703MOL0     H94855   3.913   7.690   1.054  3.8885  2.3592  0.8362
  703MOL0     H94856   3.747   7.509   1.363 -1.8240  1.2181  2.2713
  703MOL0     H94857   3.537   7.552   1.501  0.0385  0.1381 -0.1101
  703MOL0     H94858   3.461   7.707   1.497 -1.7863 -1.3732 -0.1047
  703MOL0     H94859   3.295   7.552   1.404  0.6549 -1.2596  0.8122
  703MOL0     H94860   3.423   7.480   1.308 -0.6123 -0.4623  0.5420
  703MOL0     H94861   3.249   7.615   1.184 -0.3313 -3.0804  3.1556
  703MOL0     H94862   3.412   7.656   1.145 -2.9518  1.0779 -2.9252
  703MOL0     H94863   3.396   7.847   1.300  0.0937 -3.5424  3.2790
  703MOL0     H94864   3.218   7.812   1.322  1.3008  1.2398  2.9811
  703MOL0     H94865   3.169   8.076   1.224  2.9997 -4.5079  0.9825
  703MOL0     H94866   2.875   8.261   1.090 -2.5368 -1.4783 -1.2510
  703MOL0     H94867   2.848   8.192   1.251  1.5486  1.3960  1.3776
  703MOL0     H94868   3.012   8.254   1.214  0.4709 -0.8829 -2.3703
  703MOL0     H94869   2.646   8.082   0.701 -0.1005 -2.3615 -0.7006
  703MOL0     H94870   2.450   8.147   0.609  0.6058  3.2664  1.9498
  703MOL0     H94871   2.242   8.284   0.689  0.7909 -1.1590 -0.2420
  703MOL0     H94872   2.227   8.183   0.550  3.0094  3.3794  0.2034
  703MOL0     H94873   2.033   8.342   0.605 -0.4820 -0.0590 -1.3014
  703MOL0     H94874   1.990   8.170   0.572 -1.9903  0.9011  1.1406
  703MOL0     H94875   1.967   8.303   0.854 -1.2960 -2.1768  1.7957
  703MOL0     H94876   1.978   8.135   0.827  1.8393  0.9678  0.0033
  703MOL0     H94877   1.790   8.328   0.688  0.6316  0.6767  1.9926
  703MOL0     H94878   1.783   8.155   0.660  1.9825  0.2908  0.3530
  703MOL0     H94879   1.731   8.284   0.942 -5.0916  0.7074  1.5732
  703MOL0     H94880   1.709   8.112   0.896 -0.3692  0.0997  0.7425
  703MOL0     H94881   1.555   8.340   0.761 -0.1825  0.0884 -0.1506
  703MOL0     H94882   1.541   8.159   0.743 -1.3000 -2.1447  1.6400
  703MOL0     H94883   1.509   8.334   0.993 -3.2058  2.2401 -1.7100
  703MOL0     H94884   1.491   8.156   0.995  0.5022  0.1848  0.0351
  703MOL0     H94885   1.327   8.320   0.797 -0.7238 -2.1994 -1.0456
  703MOL0     H94886   1.276   8.315   0.970 -0.0466  0.8080  1.0493
  703MOL0     H94887   2.239   7.927   0.926 -0.7527 -0.6913 -1.0854
  703MOL0     H94888   2.462   7.858   1.019 -2.5132  1.0635 -0.0580
  703MOL0     H94889   2.858   7.775   0.979 -0.4105 -1.4762  4.7693
  703MOL0     H94890   3.096   7.711   1.040 -0.7335  0.7730  0.2305
  703MOL0     H94891   4.814   7.639   1.791 -4.7117 -1.0412  1.1548
  703MOL0     H94892   4.973   7.810   1.758 -0.6462 -2.4602  0.8637
  703MOL0     H94893   4.988   8.276   1.783  0.4990  1.0669 -0.2543
  703MOL0     H94894   5.167   8.445   1.852  3.7249  1.0505  1.1700
  703MOL0     H94895   5.586   8.538   1.778 -0.9421  2.9242 -2.0356
  703MOL0     H94896   5.583   8.375   1.714  2.1967  1.8230 -1.7277
  703MOL0     H94897   5.470   8.621   1.568 -2.0913 -0.7088  0.7638
  703MOL0     H94898   5.454   8.467   1.505 -0.9644  0.3232  0.4347
  703MOL0     H94899   5.628   8.503   1.390  1.3819  4.4924 -1.2164
  703MOL0     H94900   5.734   8.461   1.535  1.5658 -0.6599 -2.9360
  703MOL0     H94901   5.711   8.700   1.608 -1.7344 -1.5713  0.4775
  703MOL0     H94902   5.639   8.734   1.450  0.7090  1.9804 -0.1640
  703MOL0     H94903   6.039   8.666   1.345  0.5540  1.2708  2.0140
  703MOL0     H94904   5.436   8.272   1.575  0.8549 -0.0067  0.7601
  703MOL0     H94905   5.268   8.094   1.526  1.3925 -0.2638  1.2340
  704MOL0     O94906   9.971   0.263   6.337 -0.5010 -0.6339 -0.0076
  704MOL0     C94907  10.031   0.156   6.320 -0.5008 -0.2260  0.5194
  704MOL0     O94908   9.968   0.034   6.287 -0.4237  0.0553  0.6993
  704MOL0     C94909   9.830   0.030   6.289  0.8067 -0.6999 -0.0684
  704MOL0     C94910   9.767   0.100   6.183 -0.2170  0.3080 -0.4981
  704MOL0     C94911   9.628   0.082   6.160 -0.0447 -0.9850 -0.0906
  704MOL0     C94912   9.556   0.002   6.237 -0.3007  1.6840 -1.0201
  704MOL0     O94913   9.421  -0.025   6.216  0.0461 -0.3996  0.1724
  704MOL0     C94914   9.378  -0.012   6.078  0.3610  0.6832  1.4021
  704MOL0     C94915   9.243  -0.071   6.045  0.0116  0.0566  0.2636
  704MOL0     C94916   9.134  -0.023   6.147 -0.0662  0.1044  0.5037
  704MOL0     C94917   9.000  -0.080   6.129  0.2933 -0.2997  0.5265
  704MOL0     C94918   8.893   0.007   6.185 -0.2404 -0.2869  0.2768
  704MOL0     C94919   8.749  -0.037   6.146  0.4445 -0.0275 -0.4822
  704MOL0     C94920   8.733  -0.066   5.995 -0.3131  0.8924 -0.1587
  704MOL0     C94921   8.581  -0.074   5.955 -0.1775  0.9360  0.5541
  704MOL0     N94922   8.492  -0.163   6.042  0.0089 -0.2746 -0.5866
  704MOL0     C94923   8.376  -0.116   6.112 -0.0651  0.2501  0.0103
  704MOL0     C94924   8.319  -0.224   6.174 -0.2848 -0.5659 -0.3582
  704MOL0     C94925   8.200  -0.218   6.262 -0.0543 -0.2012 -0.2569
  704MOL0     C94926   8.204  -0.291   6.388 -0.5441 -0.6976  0.1711
  704MOL0     C94927   8.144  -0.433   6.381  0.2414 -0.2942  0.4203
  704MOL0     C94928   8.004  -0.445   6.315 -0.3928  0.5884  0.3368
  704MOL0     O94929   7.911  -0.356   6.374  0.4222 -0.3508  0.1055
  704MOL0     C94930   7.775  -0.358   6.355  0.0124  0.4643 -0.5869
  704MOL0     C94931   7.700  -0.277   6.435 -0.6387 -1.3328 -0.2365
  704MOL0     C94932   7.567  -0.265   6.422  0.8804  0.2948 -0.6916
  704MOL0     C94933   7.500  -0.139   6.477 -0.1513  0.0171  0.1022
  704MOL0     C94934   7.503  -0.345   6.332 -0.2346 -0.1837 -0.2587
  704MOL0     C94935   7.348  -0.344   6.299  0.9201 -0.2918  0.5251
  704MOL0     O94936   7.263  -0.302   6.391 -0.1714 -0.1502  0.6650
  704MOL0     C94937   7.138  -0.263   6.356  0.7123  0.6690 -0.1399
  704MOL0     C94938   7.033  -0.354   6.328  0.6639  0.6889 -0.0470
  704MOL0     C94939   6.906  -0.297   6.302  0.5820 -0.2115  0.6400
  704MOL0     C94940   6.881  -0.161   6.291 -0.1790 -0.3203 -0.3172
  704MOL0     O94941   6.751  -0.127   6.252 -0.4864 -0.7226 -0.2902
  704MOL0     C94942   6.716   0.014   6.244 -0.1462  0.1988  0.8556
  704MOL0     C94943   6.571   0.022   6.176 -0.3468  0.4351 -0.1398
  704MOL0     C94944   6.508   0.160   6.180 -0.0037 -0.0105  0.3078
  704MOL0     C94945   6.413   0.181   6.302  0.0564  0.4163  0.1334
  704MOL0     C94946   6.376   0.326   6.326  0.0486 -0.0674 -0.3568
  704MOL0     C94947   6.480   0.405   6.420 -0.4303  0.1859  0.1362
  704MOL0     C94948   6.423   0.534   6.478 -1.0396 -0.1649 -0.1688
  704MOL0     C94949   6.525   0.608   6.564 -0.3440 -0.6117 -0.2037
  704MOL0    Cl94950   6.595   0.531   6.708 -0.1732  0.0049  0.3228
  704MOL0     C94951   6.985  -0.073   6.320 -0.1195  0.7697 -0.1870
  704MOL0     C94952   7.114  -0.130   6.359 -0.8061 -0.3809  0.7543
  704MOL0     O94953   7.307  -0.370   6.188 -0.1911 -0.0922  0.0606
  704MOL0     C94954   7.581  -0.442   6.261  0.4633 -0.0402  0.1380
  704MOL0     C94955   7.713  -0.450   6.274 -0.0238 -0.7400  0.2710
  704MOL0     N94956   8.389  -0.336   6.133 -0.4922  0.1327  0.5727
  704MOL0     N94957   8.501  -0.299   6.058 -0.2157  0.2460 -0.2724
  704MOL0     C94958   9.619  -0.071   6.346 -0.5608  0.7525  0.4588
  704MOL0     C94959   9.754  -0.055   6.367 -0.0929 -0.5284 -0.0263
  704MOL0     C94960  10.179   0.150   6.343  0.7008 -0.4004 -0.0968
  704MOL0     C94961  10.243   0.272   6.380 -0.1810  0.6628 -0.2040
  704MOL0     C94962  10.377   0.275   6.403  0.1678 -0.4915  1.1737
  704MOL0     C94963  10.459   0.169   6.381 -0.6505  0.4705 -0.1105
  704MOL0     O94964  10.593   0.190   6.379 -0.1037 -0.3739  0.2797
  704MOL0     C94965  10.675   0.079   6.415 -0.8008 -0.0651  0.5169
  704MOL0     C94966  10.812   0.143   6.435  0.3320 -0.9634 -0.4557
  704MOL0     C94967  10.918   0.046   6.491 -0.0056 -0.6561  0.1879
  704MOL0     C94968  11.051   0.111   6.524 -0.4517  0.3295  0.4213
  704MOL0     C94969  11.033   0.206   6.628 -0.6702 -0.8286 -0.6638
  704MOL0     C94970  11.019   0.281   6.725  0.1292  0.6358  0.1392
  704MOL0     C94971  10.398   0.040   6.355 -0.3598 -0.4644 -0.3742
  704MOL0     C94972  10.252   0.034   6.341 -0.4482 -0.6958 -0.1223
  704MOL0     H94973   9.836   0.154   6.119 -0.9881  1.3148 -0.5206
  704MOL0     H94974   9.581   0.128   6.073 -0.5253 -2.1263 -0.4575
  704MOL0     H94975   9.372   0.093   6.048  2.6653  0.5204  0.2053
  704MOL0     H94976   9.456  -0.058   6.018 -0.2547  1.8024 -0.3217
  704MOL0     H94977   9.210  -0.054   5.942 -2.9856  2.2733  1.4339
  704MOL0     H94978   9.251  -0.179   6.055 -0.0737  0.1121  1.0287
  704MOL0     H94979   9.168  -0.053   6.247 -0.4114 -2.4344 -0.0860
  704MOL0     H94980   9.124   0.085   6.132 -0.5338 -0.3257 -2.9309
  704MOL0     H94981   8.981  -0.081   6.021  0.1907  0.3467  0.5353
  704MOL0     H94982   8.997  -0.178   6.177  0.2025  0.4244  2.0491
  704MOL0     H94983   8.899   0.015   6.294 -1.1302 -2.0332  0.5011
  704MOL0     H94984   8.906   0.108   6.147  2.1624  1.0270  3.9849
  704MOL0     H94985   8.727  -0.134   6.191  3.9049 -0.3080  0.9519
  704MOL0     H94986   8.671   0.029   6.184  0.1391 -0.6948  0.0761
  704MOL0     H94987   8.773   0.022   5.944 -3.5292  1.6909 -1.5724
  704MOL0     H94988   8.786  -0.159   5.970 -1.4251 -0.7178  2.9785
  704MOL0     H94989   8.571  -0.099   5.849  2.7670  1.3379  0.0851
  704MOL0     H94990   8.545   0.028   5.967  0.0965  0.9224  1.5297
  704MOL0     H94991   8.347  -0.012   6.110 -0.6933  0.0772 -0.8278
  704MOL0     H94992   8.193  -0.111   6.287  2.1634  0.0598 -0.5904
  704MOL0     H94993   8.109  -0.229   6.203 -1.2970  2.8130  0.8911
  704MOL0     H94994   8.170  -0.225   6.469 -1.5131 -1.3658  0.3234
  704MOL0     H94995   8.306  -0.316   6.419  0.1489  0.3631 -1.1437
  704MOL0     H94996   8.136  -0.470   6.484 -1.3471  2.9772  1.6000
  704MOL0     H94997   8.204  -0.504   6.323 -1.2298 -0.4151 -1.0154
  704MOL0     H94998   7.970  -0.548   6.331  0.4833  0.0257 -1.2162
  704MOL0     H94999   8.021  -0.417   6.211  1.8932  3.0779  1.2854
  704MOL0     H95000   7.745  -0.206   6.503 -1.6863  0.0055 -0.8958
  704MOL0     H95001   7.454  -0.071   6.406 -0.2137  0.2087  0.3243
  704MOL0     H95002   7.430  -0.158   6.559 -0.2350  0.3139  0.0973
  704MOL0     H95003   7.578  -0.081   6.528  0.8931 -2.8401  2.0767
  704MOL0     H95004   7.041  -0.462   6.329 -2.5859  0.3495 -0.5813
  704MOL0     H95005   6.823  -0.367   6.297 -0.5740  0.4822  5.5051
  704MOL0     H95006   6.716   0.074   6.336  1.9378  1.5196  0.0752
  704MOL0     H95007   6.786   0.064   6.176  2.8478 -1.4762  2.4658
  704MOL0     H95008   6.574  -0.018   6.074  0.5821  0.9568 -0.3333
  704MOL0     H95009   6.502  -0.040   6.234 -1.9995  1.7914 -0.5760
  704MOL0     H95010   6.453   0.169   6.086  0.7925  0.3171 -0.1365
  704MOL0     H95011   6.582   0.239   6.165 -1.4278  1.2880 -0.1557
  704MOL0     H95012   6.328   0.112   6.291  2.5619 -2.9059 -0.1017
  704MOL0     H95013   6.466   0.147   6.391 -0.3235 -1.5178 -0.3314
  704MOL0     H95014   6.272   0.337   6.358 -0.1976  0.3434 -1.2639
  704MOL0     H95015   6.367   0.380   6.231 -2.6506  1.9608  0.9425
  704MOL0     H95016   6.512   0.337   6.500  0.0972 -0.8513 -0.9273
  704MOL0     H95017   6.567   0.440   6.364 -1.1206 -0.1322 -1.1867
  704MOL0     H95018   6.339   0.509   6.544  1.2928 -0.6545  2.8614
  704MOL0     H95019   6.388   0.595   6.395  2.0929 -0.5591 -1.9376
  704MOL0     H95020   6.469   0.691   6.608  1.0375 -1.0428  2.6176
  704MOL0     H95021   6.595   0.665   6.502 -2.5045  0.8937 -1.4041
  704MOL0     H95022   6.964   0.033   6.330  0.6317  0.8338  0.9133
  704MOL0     H95023   7.191  -0.064   6.398  0.8110 -1.4089 -0.5371
  704MOL0     H95024   7.532  -0.512   6.195 -0.1477 -0.6291  1.1895
  704MOL0     H95025   7.765  -0.532   6.225  0.0002  0.2643 -1.4477
  704MOL0     H95026   9.566  -0.146   6.403  0.9929 -0.9157 -0.2132
  704MOL0     H95027   9.800  -0.131   6.429  1.9202  0.3555 -0.3775
  704MOL0     H95028  10.186   0.363   6.400 -1.7868 -0.4731  0.6403
  704MOL0     H95029  10.416   0.370   6.437 -0.0851 -0.3263  0.9995
  704MOL0     H95030  10.635   0.047   6.512 -4.4243  0.4720 -0.6490
  704MOL0     H95031  10.698  -0.002   6.346  4.5045 -1.9963  3.9224
  704MOL0     H95032  10.804   0.220   6.512  0.4012  0.1754 -1.5525
  704MOL0     H95033  10.853   0.188   6.345  0.4968  2.1566  1.0555
  704MOL0     H95034  10.924  -0.020   6.404 -2.8393 -0.0255 -0.6258
  704MOL0     H95035  10.881  -0.016   6.573 -0.5526 -0.7281 -0.1037
  704MOL0     H95036  11.093   0.153   6.431 -1.5945  1.2878  0.3100
  704MOL0     H95037  11.116   0.029   6.555  1.5698  1.3054 -0.9977
  704MOL0     H95038  11.001   0.348   6.806  2.1664  0.9621  0.3807
  704MOL0     H95039  10.459  -0.050   6.353 -2.9113 -2.3115 -0.0823
  704MOL0     H95040  10.197  -0.060   6.331 -1.8321  0.0150  0.5489
  705MOL0     O95041  10.016   0.469   1.619  0.3388 -0.3478 -0.3601
  705MOL0     C95042  10.044   0.535   1.718  0.0417  0.1255 -0.1861
  705MOL0     O95043   9.984   0.653   1.758  0.1518 -0.9738  0.0762
  705MOL0     C95044   9.860   0.698   1.713 -0.6252  0.6043  0.2305
  705MOL0     C95045   9.839   0.832   1.676  0.0646 -0.0680 -0.2943
  705MOL0     C95046   9.715   0.881   1.624 -0.9957  0.5554  0.3093
  705MOL0     C95047   9.607   0.794   1.620  0.1183  0.6036  0.3072
  705MOL0     O95048   9.486   0.832   1.572  0.2366  0.4996  0.4871
  705MOL0     C95049   9.470   0.972   1.529 -0.2493 -0.0607 -0.2711
  705MOL0     C95050   9.331   1.006   1.491  0.3823  0.4228 -0.1509
  705MOL0     C95051   9.294   1.160   1.484  0.3775  0.2504  0.3936
  705MOL0     C95052   9.296   1.229   1.614 -0.0247 -0.3210 -0.3319
  705MOL0     C95053   9.166   1.209   1.700  0.5681  0.8775  1.2571
  705MOL0     C95054   9.151   1.314   1.805 -0.5782 -1.1225 -0.4507
  705MOL0     C95055   9.026   1.297   1.883 -0.5383  0.8268 -1.7650
  705MOL0     C95056   9.028   1.180   1.984  0.4063 -0.3011 -0.6650
  705MOL0     N95057   8.902   1.160   2.060  0.3706 -1.0403 -0.3275
  705MOL0     C95058   8.795   1.259   2.071 -0.1554  0.2027  0.1333
  705MOL0     C95059   8.691   1.196   2.124 -0.3507  0.7378  0.2482
  705MOL0     C95060   8.576   1.287   2.168  0.3256 -0.1238 -0.4190
  705MOL0     C95061   8.499   1.234   2.291 -0.6068 -0.6702  0.3475
  705MOL0     C95062   8.395   1.131   2.248  0.2424  0.8816  0.1941
  705MOL0     C95063   8.315   1.095   2.374 -0.2788  0.4951 -0.2429
  705MOL0     O95064   8.234   1.203   2.408  0.1840 -0.3527  0.2175
  705MOL0     C95065   8.139   1.197   2.505  0.2708  0.8313  0.0191
  705MOL0     C95066   8.022   1.268   2.485 -0.5979  0.0228 -0.2570
  705MOL0     C95067   7.917   1.269   2.582 -0.9764 -0.4613  0.1078
  705MOL0     C95068   7.795   1.352   2.545 -0.9363 -0.5435  0.0306
  705MOL0     C95069   7.934   1.184   2.695  0.8686 -0.7127 -0.3355
  705MOL0     C95070   7.827   1.175   2.799  0.4073  1.1297 -0.5362
  705MOL0     O95071   7.860   1.101   2.908 -0.1410 -0.2019  0.1133
  705MOL0     C95072   7.760   1.054   2.990 -0.8599 -0.9555 -0.0405
  705MOL0     C95073   7.730   1.127   3.103 -0.3072  0.3589 -0.1722
  705MOL0     C95074   7.613   1.103   3.177 -0.1053  0.1731  0.2804
  705MOL0     C95075   7.530   0.998   3.137 -0.2474 -0.1534 -0.5540
  705MOL0     O95076   7.420   0.968   3.211  0.6628 -0.4790  0.9003
  705MOL0     C95077   7.308   1.063   3.183  0.1422  0.4741 -0.6449
  705MOL0     C95078   7.167   0.997   3.231 -0.4239  0.4297  0.0748
  705MOL0     C95079   7.142   0.866   3.164 -0.0582 -0.0001  0.2118
  705MOL0     C95080   6.994   0.866   3.129  0.0408  0.2831  0.1796
  705MOL0     C95081   6.954   0.727   3.061  0.8632 -0.0776 -0.6310
  705MOL0     C95082   6.799   0.735   3.012 -0.1595 -0.3079 -0.5887
  705MOL0     C95083   6.697   0.748   3.128  0.4038  0.0775  0.3397
  705MOL0     C95084   6.553   0.755   3.075  0.2801  0.5602  0.0177
  705MOL0    Cl95085   6.438   0.767   3.220 -0.3635 -0.4584 -0.1749
  705MOL0     C95086   7.565   0.917   3.023  0.3759  0.0618 -0.2372
  705MOL0     C95087   7.675   0.954   2.948  0.3006  0.5580  0.3501
  705MOL0     O95088   7.722   1.236   2.796  0.6592 -0.5636  0.0982
  705MOL0     C95089   8.045   1.102   2.699  0.6271  0.3849 -0.1607
  705MOL0     C95090   8.144   1.113   2.615 -0.2035 -0.6300 -0.3197
  705MOL0     N95091   8.718   1.058   2.141  0.0770  0.2367  0.7441
  705MOL0     N95092   8.841   1.043   2.097  0.3113  0.1647 -0.3353
  705MOL0     C95093   9.617   0.668   1.659 -0.0087 -0.0143 -0.1462
  705MOL0     C95094   9.743   0.618   1.704  0.6029 -0.3697  0.6064
  705MOL0     C95095  10.156   0.488   1.800  0.3657  0.2108 -0.3484
  705MOL0     C95096  10.200   0.559   1.919 -0.1305  0.1068 -0.1718
  705MOL0     C95097  10.304   0.519   1.994 -0.0459  0.2409  0.1780
  705MOL0     C95098  10.377   0.405   1.957 -0.1455 -0.0269  0.6038
  705MOL0     O95099  10.475   0.345   2.024  0.7263  0.4476  0.1231
  705MOL0     C95100  10.552   0.431   2.108  0.7804  0.8660  0.9412
  705MOL0     C95101  10.513   0.407   2.249 -0.0171 -0.3797 -0.1637
  705MOL0     C95102  10.538   0.525   2.346 -0.0208 -0.0276 -0.2047
  705MOL0     C95103  10.423   0.556   2.444  0.2802 -0.0284 -0.0337
  705MOL0     C95104  10.389   0.451   2.541  0.4047  0.2313 -0.7233
  705MOL0     C95105  10.377   0.360   2.624 -0.3099 -0.1994 -0.1311
  705MOL0     C95106  10.341   0.332   1.844  0.5433  0.6128 -0.4285
  705MOL0     C95107  10.233   0.381   1.758  0.1709 -0.3316 -1.0800
  705MOL0     H95108   9.913   0.911   1.689  1.4535 -1.4146  0.3206
  705MOL0     H95109   9.716   0.981   1.582  2.6812 -0.0017 -1.2796
  705MOL0     H95110   9.498   1.039   1.612  1.5356 -0.8481 -0.1844
  705MOL0     H95111   9.549   0.981   1.453  0.1488 -1.0998  0.0070
  705MOL0     H95112   9.303   0.957   1.397  1.2298 -0.9894  0.3020
  705MOL0     H95113   9.269   0.959   1.568 -0.8069  1.3963 -0.4929
  705MOL0     H95114   9.364   1.208   1.415 -0.4029  1.7297  0.5951
  705MOL0     H95115   9.195   1.167   1.439  1.1319  1.1531 -1.2178
  705MOL0     H95116   9.387   1.204   1.670 -0.2673 -2.4759 -0.7886
  705MOL0     H95117   9.294   1.335   1.588  0.6420 -0.2070  0.0680
  705MOL0     H95118   9.082   1.214   1.629  2.0391 -0.3088 -0.6688
  705MOL0     H95119   9.158   1.111   1.746 -2.9000  0.9961  1.1808
  705MOL0     H95120   9.238   1.308   1.872 -0.5328 -0.0913 -0.4041
  705MOL0     H95121   9.146   1.415   1.762  0.8942 -0.8180  0.0201
  705MOL0     H95122   9.028   1.382   1.952 -2.6356 -0.6342  0.2598
  705MOL0     H95123   8.938   1.310   1.819  0.9053 -0.2386 -4.0865
  705MOL0     H95124   9.102   1.198   2.063  1.0568  1.1402 -1.5649
  705MOL0     H95125   9.053   1.082   1.942 -2.1483 -1.8049  1.0224
  705MOL0     H95126   8.818   1.364   2.057  1.1008  0.0363  0.7601
  705MOL0     H95127   8.611   1.389   2.186  0.0649 -0.1225  0.1039
  705MOL0     H95128   8.516   1.292   2.077 -2.1601  0.4258  1.1409
  705MOL0     H95129   8.468   1.323   2.347  5.1614  0.8377  1.7634
  705MOL0     H95130   8.567   1.183   2.360  2.0269  1.1456 -0.7338
  705MOL0     H95131   8.435   1.042   2.198  0.0229  0.2882  1.0404
  705MOL0     H95132   8.322   1.178   2.182  0.5658  1.8521  0.5021
  705MOL0     H95133   8.383   1.080   2.458  0.8948  1.1623 -1.0487
  705MOL0     H95134   8.262   1.001   2.356 -0.7335  0.4656  1.1515
  705MOL0     H95135   8.028   1.322   2.392 -0.1693 -1.8774 -1.3800
  705MOL0     H95136   7.778   1.441   2.606 -2.9419  1.2510 -2.9367
  705MOL0     H95137   7.810   1.394   2.446  0.8415  2.3423  1.4105
  705MOL0     H95138   7.712   1.281   2.546  0.4649 -2.4142 -2.7546
  705MOL0     H95139   7.794   1.205   3.143 -1.0836  3.0043 -3.5241
  705MOL0     H95140   7.582   1.173   3.254 -1.0538 -1.5923  1.5711
  705MOL0     H95141   7.325   1.154   3.240  1.9850  1.2800 -2.3745
  705MOL0     H95142   7.286   1.079   3.077 -1.1553 -0.6571 -0.5740
  705MOL0     H95143   7.161   1.003   3.340 -0.9918  1.3765  0.0044
  705MOL0     H95144   7.091   1.067   3.194 -0.8216 -0.5497 -0.9859
  705MOL0     H95145   7.169   0.780   3.226 -3.2368 -0.4727  1.0974
  705MOL0     H95146   7.190   0.861   3.065  1.1963 -1.2817  0.8480
  705MOL0     H95147   6.934   0.874   3.220  0.2645 -0.6336  0.4270
  705MOL0     H95148   6.972   0.949   3.062 -1.1175  0.0727  0.2791
  705MOL0     H95149   6.968   0.650   3.137  0.2300  0.5050  0.0958
  705MOL0     H95150   7.013   0.725   2.969 -0.0088  0.7249 -1.2303
  705MOL0     H95151   6.783   0.822   2.948  1.7908  0.6900  0.1928
  705MOL0     H95152   6.777   0.657   2.939 -0.9759 -1.5450  0.9301
  705MOL0     H95153   6.722   0.837   3.186  0.1987 -0.0545  0.6315
  705MOL0     H95154   6.699   0.659   3.191  4.2457 -0.1399  0.1421
  705MOL0     H95155   6.532   0.661   3.023 -0.6798 -0.9472  2.9260
  705MOL0     H95156   6.532   0.840   3.009  0.1015 -0.0767 -0.7640
  705MOL0     H95157   7.492   0.845   2.988 -2.6960  2.9937 -0.3733
  705MOL0     H95158   7.697   0.905   2.854  1.0396  0.6396  0.4770
  705MOL0     H95159   8.058   1.032   2.781 -1.3630 -0.1640 -0.2536
  705MOL0     H95160   8.226   1.046   2.641 -0.5796 -1.1401 -0.4497
  705MOL0     H95161   9.529   0.606   1.668 -0.5997  1.1261  4.3237
  705MOL0     H95162   9.742   0.514   1.736 -2.3750 -0.6211 -0.0128
  705MOL0     H95163  10.147   0.648   1.952 -0.0652 -0.5483  1.8219
  705MOL0     H95164  10.319   0.574   2.086  0.8347  1.8543 -0.8675
  705MOL0     H95165  10.659   0.417   2.092  0.8394  0.1669  1.9296
  705MOL0     H95166  10.527   0.533   2.075 -0.3737 -0.7290 -4.0578
  705MOL0     H95167  10.556   0.314   2.285  1.9579  0.5727  0.0762
  705MOL0     H95168  10.408   0.385   2.269  0.3986 -4.7048 -1.8506
  705MOL0     H95169  10.566   0.614   2.290 -3.1662 -0.1381 -2.1560
  705MOL0     H95170  10.627   0.486   2.397  1.0210  3.2921  0.7512
  705MOL0     H95171  10.337   0.583   2.382 -0.2700 -1.3101  0.1276
  705MOL0     H95172  10.463   0.639   2.504 -1.6007  0.2239  0.9294
  705MOL0     H95173  10.371   0.285   2.700  3.4070 -0.8219 -0.2761
  705MOL0     H95174  10.413   0.258   1.812 -1.7986 -1.3357 -1.4712
  705MOL0     H95175  10.199   0.336   1.665 -3.1437 -0.2181 -0.0666
  706MOL0     O95176  10.990   8.508   1.629  0.3912  0.4683  0.1920
  706MOL0     C95177  11.087   8.520   1.698 -0.2785  0.3199 -0.5779
  706MOL0     O95178  11.085   8.570   1.820  0.0282 -0.0179 -0.5979
  706MOL0     C95179  10.972   8.617   1.879  0.4074  0.3385 -0.8700
  706MOL0     C95180  10.956   8.752   1.908 -0.5060 -0.2561  0.5175
  706MOL0     C95181  10.855   8.797   1.987 -0.0574 -0.2026  0.2553
  706MOL0     C95182  10.752   8.707   2.033 -1.0431  0.1181  0.1943
  706MOL0     O95183  10.643   8.746   2.106 -0.3022 -0.2163 -0.3558
  706MOL0     C95184  10.648   8.882   2.153 -0.2480 -0.2060  0.2700
  706MOL0     C95185  10.541   8.910   2.251  0.3379 -0.4116  0.9093
  706MOL0     C95186  10.410   8.921   2.182  0.0563  0.4111 -0.6551
  706MOL0     C95187  10.291   8.926   2.284  0.2991 -0.4520 -0.3387
  706MOL0     C95188  10.152   8.937   2.198 -0.8202  0.4210 -0.6574
  706MOL0     C95189  10.032   9.002   2.276 -0.0804  0.0724 -0.6408
  706MOL0     C95190   9.916   9.045   2.193 -0.6284  0.8439  0.6445
  706MOL0     C95191   9.828   8.937   2.135  0.1300  0.4568  0.0092
  706MOL0     N95192   9.725   8.895   2.228  0.5326 -0.8426  0.1123
  706MOL0     C95193   9.612   8.976   2.258  0.0264  0.2573  1.0269
  706MOL0     C95194   9.567   8.919   2.371 -0.4361 -0.0984 -0.6669
  706MOL0     C95195   9.450   8.986   2.438 -0.8520 -0.1039  0.5565
  706MOL0     C95196   9.440   8.946   2.591 -0.1281 -0.0516  0.4758
  706MOL0     C95197   9.308   8.989   2.663 -0.6446 -0.3779 -0.1933
  706MOL0     C95198   9.251   9.132   2.626  0.3214 -0.0136  0.4353
  706MOL0     O95199   9.149   9.173   2.720 -0.4114 -0.5840  0.2733
  706MOL0     C95200   9.038   9.223   2.665  0.4300 -0.0194  0.4124
  706MOL0     C95201   8.911   9.190   2.710 -0.5628  0.4848 -0.0803
  706MOL0     C95202   8.800   9.250   2.652 -0.4191  0.2536  0.5894
  706MOL0     C95203   8.670   9.220   2.716  0.0836 -0.2036  0.5802
  706MOL0     C95204   8.817   9.341   2.550  0.2697  0.3140  0.0221
  706MOL0     C95205   8.709   9.396   2.470 -0.2131 -0.2739 -0.1522
  706MOL0     O95206   8.612   9.299   2.425 -0.0825 -0.2709  0.1772
  706MOL0     C95207   8.526   9.330   2.329  0.4364 -0.4697  0.0748
  706MOL0     C95208   8.424   9.428   2.349 -0.2892  0.6560  0.1185
  706MOL0     C95209   8.345   9.481   2.246  0.4849 -0.0119 -0.5234
  706MOL0     C95210   8.364   9.426   2.117  0.0097  0.1682 -0.2621
  706MOL0     O95211   8.281   9.477   2.016  0.3602  0.1260 -1.2668
  706MOL0     C95212   8.257   9.425   1.889 -0.4032  0.2387  0.1598
  706MOL0     C95213   8.114   9.466   1.842 -0.6406 -1.1784  0.6016
  706MOL0     C95214   8.002   9.434   1.937 -0.3988 -0.5407  0.6416
  706MOL0     C95215   7.858   9.444   1.879 -0.2122  0.1910  0.3764
  706MOL0     C95216   7.757   9.396   1.986 -0.3607  0.7851 -0.4352
  706MOL0     C95217   7.619   9.390   1.922 -0.8305 -0.7451  0.0797
  706MOL0     C95218   7.514   9.333   2.016 -0.4592 -0.4180  0.8153
  706MOL0     C95219   7.518   9.178   2.030 -0.2962  0.3221 -0.7426
  706MOL0    Cl95220   7.682   9.099   2.065 -0.1260  0.0430 -0.4939
  706MOL0     C95221   8.465   9.327   2.102  0.5991  0.4518  0.4140
  706MOL0     C95222   8.551   9.285   2.203  0.8199 -0.5102 -0.5471
  706MOL0     O95223   8.704   9.513   2.433 -0.1684  0.0407  0.2355
  706MOL0     C95224   8.942   9.395   2.531  0.1596  0.4653  0.0067
  706MOL0     C95225   9.060   9.336   2.585 -0.5839  0.0761 -0.5689
  706MOL0     N95226   9.638   8.808   2.409  0.9916 -0.2267  0.4847
  706MOL0     N95227   9.730   8.793   2.320  0.9857 -0.4468 -0.4559
  706MOL0     C95228  10.753   8.581   1.983 -0.4508 -0.0402  0.8682
  706MOL0     C95229  10.861   8.537   1.906  0.9102 -0.2375  0.2647
  706MOL0     C95230  11.224   8.492   1.648  0.6290  0.9617 -0.3779
  706MOL0     C95231  11.333   8.497   1.730  0.6664  0.4781  0.9057
  706MOL0     C95232  11.464   8.470   1.676  0.6281 -0.4158  0.8307
  706MOL0     C95233  11.490   8.447   1.539  0.5694  0.4101  0.4157
  706MOL0     O95234  11.603   8.420   1.486  0.3985 -0.0980 -0.1381
  706MOL0     C95235  11.716   8.375   1.567 -0.7690  0.4539 -0.9526
  706MOL0     C95236  11.835   8.378   1.473 -0.1843 -0.4656  0.2398
  706MOL0     C95237  11.968   8.346   1.539 -0.7888 -0.0428  0.0740
  706MOL0     C95238  12.029   8.475   1.588 -0.5193  0.1260 -0.4997
  706MOL0     C95239  12.130   8.448   1.695  0.4157 -0.2073  0.2876
  706MOL0     C95240  12.227   8.431   1.759 -0.5359  0.4507 -0.3018
  706MOL0     C95241  11.373   8.454   1.459 -0.0638 -0.7066 -0.1299
  706MOL0     C95242  11.246   8.469   1.508  0.4067  0.1046 -0.3843
  706MOL0     H95243  11.036   8.821   1.882 -3.0299  3.1537  1.1905
  706MOL0     H95244  10.850   8.903   2.011 -2.9393 -0.4669  1.1867
  706MOL0     H95245  10.744   8.898   2.203  0.8582 -1.4398 -1.3675
  706MOL0     H95246  10.649   8.956   2.073 -0.6962 -1.4310 -0.8958
  706MOL0     H95247  10.547   8.843   2.337  2.2006  1.1351  2.0760
  706MOL0     H95248  10.563   9.011   2.286  0.5535  0.0912 -0.6041
  706MOL0     H95249  10.410   9.016   2.129  0.5038  0.1746 -1.0830
  706MOL0     H95250  10.393   8.830   2.123 -0.3983 -0.6212  0.9902
  706MOL0     H95251  10.295   8.836   2.347 -0.0191 -0.1707  0.0842
  706MOL0     H95252  10.303   9.014   2.348 -2.5354 -2.5594  3.5266
  706MOL0     H95253  10.174   9.009   2.119  1.2466  1.5852  0.8789
  706MOL0     H95254  10.129   8.837   2.160 -0.3189 -0.8111  2.0335
  706MOL0     H95255  10.004   8.934   2.357  1.0744 -0.8789 -1.0032
  706MOL0     H95256  10.075   9.096   2.313  1.4231 -0.5934 -0.6142
  706MOL0     H95257   9.848   9.108   2.251 -2.0799 -1.0214  1.0574
  706MOL0     H95258   9.954   9.093   2.102  0.6003 -2.5314 -0.7969
  706MOL0     H95259   9.875   8.848   2.091 -1.3107  0.5731 -1.9521
  706MOL0     H95260   9.781   8.981   2.046 -0.4678  0.2868  0.2387
  706MOL0     H95261   9.561   9.056   2.204 -1.5634  2.3284  5.1647
  706MOL0     H95262   9.463   9.094   2.428 -0.5836 -0.3144 -1.7088
  706MOL0     H95263   9.359   8.959   2.385 -0.2041  0.3906 -0.8476
  706MOL0     H95264   9.528   8.976   2.649  0.9962 -0.2501 -1.0686
  706MOL0     H95265   9.438   8.840   2.617 -0.6440  0.4633  2.7886
  706MOL0     H95266   9.323   8.988   2.771  1.5677 -0.6006 -0.4493
  706MOL0     H95267   9.238   8.913   2.628 -1.3748  1.8439 -4.1994
  706MOL0     H95268   9.207   9.140   2.526 -1.1875 -0.2724  1.0532
  706MOL0     H95269   9.329   9.209   2.627  0.8437 -0.4107 -2.0586
  706MOL0     H95270   8.912   9.114   2.788 -4.5610 -0.2984 -0.5809
  706MOL0     H95271   8.650   9.284   2.802  2.1387 -0.1267  1.0668
  706MOL0     H95272   8.589   9.224   2.643  1.1877 -3.9797 -1.0777
  706MOL0     H95273   8.677   9.118   2.754 -1.4148 -0.1993  0.9000
  706MOL0     H95274   8.415   9.479   2.444  0.4479  0.6568  0.1980
  706MOL0     H95275   8.266   9.555   2.254  0.6323  0.3928 -2.3401
  706MOL0     H95276   8.329   9.461   1.816 -0.4853 -1.0525 -0.5962
  706MOL0     H95277   8.267   9.316   1.898  2.2202  0.2215 -1.7633
  706MOL0     H95278   8.122   9.571   1.815 -1.0604 -1.4227 -0.5344
  706MOL0     H95279   8.097   9.405   1.752  1.7931 -2.5550  0.9695
  706MOL0     H95280   8.020   9.502   2.020  0.6437 -2.4689  2.0934
  706MOL0     H95281   8.021   9.335   1.981  2.0999 -0.0779  0.7568
  706MOL0     H95282   7.842   9.547   1.845  3.7335  1.5918  2.2007
  706MOL0     H95283   7.854   9.387   1.786  0.3514  2.7837 -1.3481
  706MOL0     H95284   7.761   9.466   2.070  0.1622 -0.6243  0.7522
  706MOL0     H95285   7.796   9.311   2.043  3.7744  2.5189 -0.3394
  706MOL0     H95286   7.593   9.495   1.904 -0.8186 -1.1420 -2.6511
  706MOL0     H95287   7.615   9.332   1.830 -1.5978 -1.6676  0.6744
  706MOL0     H95288   7.416   9.371   1.985 -0.2532 -0.3724  0.2145
  706MOL0     H95289   7.516   9.386   2.112 -4.0324  2.1439 -0.2661
  706MOL0     H95290   7.479   9.125   1.943 -1.0678  0.5823 -0.5597
  706MOL0     H95291   7.451   9.143   2.110 -1.1246 -0.7586 -1.8710
  706MOL0     H95292   8.482   9.272   2.010  0.8310 -0.1364  0.7996
  706MOL0     H95293   8.634   9.220   2.177  0.5810 -1.6094  1.2723
  706MOL0     H95294   8.966   9.471   2.457 -1.6721 -1.9960 -3.4284
  706MOL0     H95295   9.160   9.370   2.561 -1.0629  1.4640 -0.7254
  706MOL0     H95296  10.679   8.506   2.010 -0.0001 -0.2599  1.5191
  706MOL0     H95297  10.856   8.436   1.866 -2.4064 -0.1322  0.2039
  706MOL0     H95298  11.325   8.516   1.836 -0.4413  3.4999  0.3841
  706MOL0     H95299  11.553   8.483   1.736  1.8012 -0.0423 -0.9220
  706MOL0     H95300  11.735   8.423   1.664  0.9196 -0.1469 -0.9558
  706MOL0     H95301  11.710   8.272   1.604  1.5728  1.0886  1.5676
  706MOL0     H95302  11.836   8.469   1.412  0.7282 -1.7494 -1.7775
  706MOL0     H95303  11.820   8.297   1.401 -2.3317 -1.1419  1.3849
  706MOL0     H95304  12.027   8.293   1.464 -0.5360 -1.0682  0.9642
  706MOL0     H95305  11.950   8.275   1.620  1.5266 -0.7981  0.0126
  706MOL0     H95306  11.953   8.542   1.629 -0.9852 -0.7566  0.1218
  706MOL0     H95307  12.091   8.519   1.510  1.0035  0.5885  0.9048
  706MOL0     H95308  12.311   8.430   1.825 -1.9318 -0.6660  1.6032
  706MOL0     H95309  11.379   8.443   1.351 -1.8142  1.6553 -0.5562
  706MOL0     H95310  11.165   8.470   1.435  0.4381  0.1264 -0.4185
  707MOL0     O95311  10.504   7.913   3.621 -1.0305  0.4447 -0.3580
  707MOL0     C95312  10.532   7.904   3.499 -0.0253 -0.2713 -0.5056
  707MOL0     O95313  10.457   7.948   3.393  0.1143  0.2355  0.0910
  707MOL0     C95314  10.331   7.982   3.433 -0.3442 -0.7538  0.1931
  707MOL0     C95315  10.293   8.118   3.443  0.7744  0.3575 -0.3186
  707MOL0     C95316  10.162   8.143   3.473  0.0570 -0.0770 -0.8835
  707MOL0     C95317  10.071   8.052   3.508  0.3293 -0.2960  0.4918
  707MOL0     O95318   9.946   8.085   3.553 -0.4693  0.3910  0.0862
  707MOL0     C95319   9.947   8.191   3.645 -1.0811  0.2133  0.0794
  707MOL0     C95320   9.816   8.183   3.723 -0.2097  0.2592 -0.2054
  707MOL0     C95321   9.697   8.177   3.630 -0.0919 -0.0668 -0.1114
  707MOL0     C95322   9.558   8.201   3.692 -0.4041 -0.1523  0.0359
  707MOL0     C95323   9.441   8.195   3.584  0.1496  0.4547  0.0241
  707MOL0     C95324   9.309   8.192   3.666  0.0445 -0.0770 -1.1140
  707MOL0     C95325   9.181   8.200   3.584  0.6939 -0.3674  0.5116
  707MOL0     C95326   9.061   8.190   3.670 -0.4501  0.0333  0.7619
  707MOL0     N95327   9.062   8.057   3.735 -0.5246 -0.2770 -0.5102
  707MOL0     C95328   9.041   7.943   3.673 -0.4735  0.9295 -0.1519
  707MOL0     C95329   9.027   7.845   3.769  0.2284 -0.9013  0.8263
  707MOL0     C95330   9.013   7.691   3.761 -0.5580 -0.1700 -0.3273
  707MOL0     C95331   8.907   7.634   3.857  0.2234  0.1538  0.3665
  707MOL0     C95332   8.762   7.656   3.809  0.3062 -0.1668 -0.5170
  707MOL0     C95333   8.664   7.624   3.914  0.4551  0.3182  0.1481
  707MOL0     O95334   8.683   7.697   4.033  0.1741  0.5261 -0.4007
  707MOL0     C95335   8.579   7.717   4.124 -0.2196  0.0631  0.2781
  707MOL0     C95336   8.581   7.821   4.213  0.1164 -0.5132 -0.2947
  707MOL0     C95337   8.478   7.845   4.305 -0.7285 -0.2372 -0.6409
  707MOL0     C95338   8.520   7.942   4.407 -0.2765 -0.2984 -0.0682
  707MOL0     C95339   8.356   7.778   4.291 -0.3232 -0.1474 -0.3424
  707MOL0     C95340   8.224   7.807   4.362 -0.6581 -0.3147  0.0503
  707MOL0     O95341   8.224   7.903   4.459 -0.1833 -0.5985  0.7702
  707MOL0     C95342   8.110   7.969   4.478  0.7984 -0.3031 -0.0290
  707MOL0     C95343   8.078   8.095   4.407  0.2678  0.2117 -0.5472
  707MOL0     C95344   7.958   8.158   4.425 -0.2216  0.3666 -0.1685
  707MOL0     C95345   7.868   8.111   4.522  0.2435 -0.0997 -0.1192
  707MOL0     O95346   7.751   8.186   4.531  0.5257  0.9161  0.8128
  707MOL0     C95347   7.657   8.155   4.631 -0.5976 -0.4351  0.6660
  707MOL0     C95348   7.559   8.052   4.581  0.2692  0.9519  0.0412
  707MOL0     C95349   7.440   8.047   4.678 -0.7069  1.4891 -0.8840
  707MOL0     C95350   7.322   7.995   4.594 -0.0138  0.3080 -0.5395
  707MOL0     C95351   7.212   7.957   4.689  0.4964  0.1331 -0.0892
  707MOL0     C95352   7.110   7.865   4.620 -0.1590 -0.2912  1.0253
  707MOL0     C95353   6.988   7.823   4.694  0.1627  1.0314 -0.7582
  707MOL0     C95354   7.017   7.752   4.829 -0.8820  0.1125  0.6300
  707MOL0    Cl95355   6.886   7.773   4.952  0.2652  0.0587  0.3625
  707MOL0     C95356   7.896   7.991   4.595  0.2029 -0.0601  0.4974
  707MOL0     C95357   8.015   7.919   4.570 -0.4041  0.8931 -0.4607
  707MOL0     O95358   8.132   7.734   4.344 -0.5576  0.3203  0.1766
  707MOL0     C95359   8.353   7.670   4.196 -0.7252  0.4307  0.5197
  707MOL0     C95360   8.460   7.637   4.116 -0.5019  0.0112  0.9705
  707MOL0     N95361   9.059   7.911   3.887  0.6211 -0.3096 -1.1880
  707MOL0     N95362   9.075   8.035   3.870  0.3383  0.1836  0.0404
  707MOL0     C95363  10.108   7.923   3.490  0.1442  0.1746 -0.1039
  707MOL0     C95364  10.238   7.882   3.448  0.1961  0.1903  0.6640
  707MOL0     C95365  10.668   7.862   3.452 -0.3604  0.2455 -0.8608
  707MOL0     C95366  10.785   7.883   3.526 -0.1937 -0.0377  0.0834
  707MOL0     C95367  10.911   7.868   3.465  0.4316 -0.6314  0.3418
  707MOL0     C95368  10.924   7.824   3.336 -0.0141 -0.2430  0.0045
  707MOL0     O95369  11.049   7.817   3.276  0.2889 -0.2854  0.3818
  707MOL0     C95370  11.064   7.782   3.138 -0.4610  0.3433  0.2541
  707MOL0     C95371  11.074   7.632   3.127  0.8286 -0.5126  0.3228
  707MOL0     C95372  11.206   7.568   3.180  0.3538  0.2935 -0.0146
  707MOL0     C95373  11.272   7.476   3.093  1.1231 -0.1913 -0.6566
  707MOL0     C95374  11.194   7.353   3.058  0.6216  0.2199  0.3477
  707MOL0     C95375  11.132   7.256   3.025 -0.1837  0.8072 -0.3670
  707MOL0     C95376  10.808   7.794   3.266 -0.3933 -0.1089  0.4128
  707MOL0     C95377  10.679   7.800   3.325  0.4939 -0.4525 -0.4577
  707MOL0     H95378  10.361   8.199   3.418  1.6765 -0.6172 -1.0972
  707MOL0     H95379  10.121   8.243   3.481 -3.1966 -1.3327 -0.0863
  707MOL0     H95380  10.025   8.171   3.720  0.2659 -2.1290 -1.7953
  707MOL0     H95381   9.949   8.292   3.605  2.8021  0.6712  1.0009
  707MOL0     H95382   9.814   8.097   3.791 -1.5776  0.0202 -0.5222
  707MOL0     H95383   9.806   8.274   3.783 -0.4780  2.3751 -3.1880
  707MOL0     H95384   9.703   8.252   3.551 -0.4681  0.5218  0.4032
  707MOL0     H95385   9.702   8.080   3.581 -2.0781 -0.1841 -0.1575
  707MOL0     H95386   9.540   8.128   3.771 -1.0069  0.2606  0.2924
  707MOL0     H95387   9.559   8.300   3.739  2.3299 -0.6625  1.2509
  707MOL0     H95388   9.441   8.280   3.515 -2.1491  0.2413 -0.3108
  707MOL0     H95389   9.451   8.101   3.528 -0.6302 -0.6828  1.7058
  707MOL0     H95390   9.317   8.100   3.724 -0.9286  0.3563 -0.2651
  707MOL0     H95391   9.296   8.273   3.738 -1.1773 -0.5087 -0.8378
  707MOL0     H95392   9.187   8.291   3.524  2.6269 -1.1794 -0.6446
  707MOL0     H95393   9.191   8.131   3.500  3.7953  0.2616  0.2261
  707MOL0     H95394   8.973   8.205   3.607  2.1451 -0.6128 -3.3419
  707MOL0     H95395   9.057   8.272   3.743 -0.1570  0.3144  0.4642
  707MOL0     H95396   9.025   7.928   3.567 -0.9336  3.2509 -0.4536
  707MOL0     H95397   8.997   7.645   3.663 -2.5151  1.6604 -0.9115
  707MOL0     H95398   9.113   7.654   3.790 -0.8191 -0.4483  0.2477
  707MOL0     H95399   8.909   7.689   3.952 -1.6294 -0.5318  0.8407
  707MOL0     H95400   8.931   7.529   3.872  2.9818  0.8574  1.4643
  707MOL0     H95401   8.738   7.591   3.724 -0.6641 -1.8127  0.9580
  707MOL0     H95402   8.746   7.763   3.797  0.7354  0.2877  2.3681
  707MOL0     H95403   8.663   7.516   3.931  2.1159  0.1970 -0.3421
  707MOL0     H95404   8.566   7.638   3.868  0.4849 -1.3461 -0.4923
  707MOL0     H95405   8.678   7.866   4.197  0.2408 -0.8938 -0.6104
  707MOL0     H95406   8.623   7.971   4.385 -0.1070 -2.1001 -1.9822
  707MOL0     H95407   8.446   8.023   4.404  0.1550  0.4987  4.0435
  707MOL0     H95408   8.520   7.907   4.511  0.4619  0.5364  0.2302
  707MOL0     H95409   8.154   8.138   4.343  2.4750 -3.1022 -0.4390
  707MOL0     H95410   7.931   8.241   4.361 -1.5462 -1.2029 -1.7379
  707MOL0     H95411   7.713   8.110   4.713  2.7030 -1.5864 -1.9969
  707MOL0     H95412   7.606   8.247   4.661  1.1924  0.0900  2.3188
  707MOL0     H95413   7.536   8.081   4.478  3.3781  0.5364 -0.8797
  707MOL0     H95414   7.606   7.954   4.573 -0.2692  0.7863 -1.4464
  707MOL0     H95415   7.430   8.148   4.721  0.3397  1.1236  0.2886
  707MOL0     H95416   7.457   7.981   4.764 -1.5487  2.4323  0.0493
  707MOL0     H95417   7.297   8.080   4.529  1.3943  0.8657 -0.3945
  707MOL0     H95418   7.357   7.902   4.548 -0.8108 -1.9506  3.1054
  707MOL0     H95419   7.160   8.041   4.736  0.6066 -0.3694  0.9625
  707MOL0     H95420   7.254   7.896   4.770 -0.8345 -0.0062  0.5255
  707MOL0     H95421   7.088   7.913   4.524  2.2863 -0.9154  0.0786
  707MOL0     H95422   7.164   7.778   4.583  2.6445  2.1000 -0.9977
  707MOL0     H95423   6.920   7.761   4.634 -1.9550  1.9872  0.5256
  707MOL0     H95424   6.927   7.912   4.709  0.6759  1.3634 -0.6424
  707MOL0     H95425   7.108   7.793   4.872 -0.1408 -0.3801 -0.4315
  707MOL0     H95426   7.031   7.643   4.821 -0.6240 -0.1247  3.4597
  707MOL0     H95427   7.823   7.952   4.665 -1.8051  1.0896 -0.8672
  707MOL0     H95428   8.026   7.820   4.614  1.0983  1.6579  0.9980
  707MOL0     H95429   8.264   7.609   4.187 -0.5629  0.5017 -3.1737
  707MOL0     H95430   8.455   7.555   4.045  1.1570 -2.1888  3.2210
  707MOL0     H95431  10.041   7.839   3.507  1.4174 -1.7126 -3.5140
  707MOL0     H95432  10.265   7.778   3.433  0.1571  0.2803 -0.0783
  707MOL0     H95433  10.786   7.922   3.628  0.6569 -5.2989  2.4073
  707MOL0     H95434  10.999   7.910   3.512  0.0331  0.4644  0.1360
  707MOL0     H95435  10.986   7.835   3.082 -0.9829  0.0508  0.6948
  707MOL0     H95436  11.158   7.828   3.108 -0.0292 -0.6388  0.0620
  707MOL0     H95437  11.061   7.620   3.019 -3.1308 -0.2600  0.6169
  707MOL0     H95438  10.987   7.581   3.170  2.0277 -2.5151  0.4902
  707MOL0     H95439  11.207   7.536   3.285  0.0650  1.6276  0.4174
  707MOL0     H95440  11.265   7.660   3.191 -0.4188  0.6848  1.0658
  707MOL0     H95441  11.368   7.454   3.141  1.8782 -0.5595 -2.2424
  707MOL0     H95442  11.294   7.527   2.998 -1.5453 -0.7296 -1.6459
  707MOL0     H95443  11.081   7.166   2.998 -0.8053  0.7837  0.8375
  707MOL0     H95444  10.819   7.750   3.167 -2.0559 -0.5409  0.3793
  707MOL0     H95445  10.595   7.765   3.265 -0.9428  1.1461  0.5365
  708MOL0     O95446   1.399   1.342   8.585  0.0694  0.5563  0.1424
  708MOL0     C95447   1.456   1.448   8.547  0.3172  0.7960 -0.5479
  708MOL0     O95448   1.402   1.574   8.534  0.2385  0.4901  0.5419
  708MOL0     C95449   1.267   1.607   8.544  0.4313  0.5279 -0.1488
  708MOL0     C95450   1.175   1.535   8.623 -0.0961 -0.5864  0.8077
  708MOL0     C95451   1.039   1.582   8.647 -0.7105  0.3956 -0.6345
  708MOL0     C95452   0.994   1.695   8.584 -0.1736  0.3871 -0.6123
  708MOL0     O95453   0.870   1.742   8.631 -0.2038  0.3952  0.1859
  708MOL0     C95454   0.770   1.771   8.531 -0.3250  0.1177  0.1680
  708MOL0     C95455   0.635   1.726   8.584  0.1314 -0.6273  0.0372
  708MOL0     C95456   0.610   1.571   8.591  0.1341 -1.3801  1.0443
  708MOL0     C95457   0.473   1.537   8.661  1.0328 -0.3058  0.1259
  708MOL0     C95458   0.449   1.392   8.662  0.0599  0.6985 -0.7447
  708MOL0     C95459   0.329   1.344   8.743  0.2344 -0.3536  0.6133
  708MOL0     C95460   0.270   1.210   8.697  0.5038 -0.3003 -0.4780
  708MOL0     C95461   0.138   1.169   8.761  0.5446 -0.3040 -0.3899
  708MOL0     N95462   0.043   1.283   8.753 -0.0411  0.2215 -0.4206
  708MOL0     C95463   0.015   1.367   8.861  0.3317 -0.2786  0.1900
  708MOL0     C95464  -0.078   1.451   8.815 -0.4386  0.4641 -0.2531
  708MOL0     C95465  -0.161   1.549   8.889  0.4139  0.0903  0.0172
  708MOL0     C95466  -0.274   1.482   8.934  0.0323  0.2235 -0.3102
  708MOL0     C95467  -0.360   1.570   9.020 -0.5636  0.3967  0.4875
  708MOL0     C95468  -0.445   1.670   8.949 -0.2676 -0.0355  0.4298
  708MOL0     O95469  -0.559   1.604   8.894 -0.8998 -0.2248  0.4966
  708MOL0     C95470  -0.683   1.631   8.915  0.3311  0.8431 -0.7685
  708MOL0     C95471  -0.771   1.524   8.883 -0.1659 -0.1732 -0.7722
  708MOL0     C95472  -0.905   1.523   8.918 -0.8293 -0.0803 -0.6080
  708MOL0     C95473  -0.980   1.394   8.871 -0.6140 -0.3016  0.3515
  708MOL0     C95474  -0.960   1.631   8.991  0.4096 -1.2463  0.5234
  708MOL0     C95475  -1.104   1.631   9.025  0.0266 -0.7901  0.3150
  708MOL0     O95476  -1.134   1.712   9.130  0.4953 -0.2977 -0.1019
  708MOL0     C95477  -1.269   1.729   9.160  0.3829  0.0024  0.1649
  708MOL0     C95478  -1.309   1.701   9.289  0.6960 -0.2815  0.6958
  708MOL0     C95479  -1.442   1.732   9.330 -0.5699 -0.1506 -0.1589
  708MOL0     C95480  -1.531   1.801   9.240 -0.3153  0.7789  0.3475
  708MOL0     O95481  -1.651   1.831   9.293  0.1936  1.2585 -0.1838
  708MOL0     C95482  -1.759   1.880   9.219  0.4655 -0.0342  0.1763
  708MOL0     C95483  -1.880   1.908   9.313 -0.3571 -0.4350  0.2426
  708MOL0     C95484  -1.977   1.795   9.316 -0.1482 -0.6698 -0.3058
  708MOL0     C95485  -2.107   1.848   9.389  0.4253 -0.4773 -0.1759
  708MOL0     C95486  -2.195   1.722   9.415  0.9787 -0.3391  0.2813
  708MOL0     C95487  -2.345   1.752   9.457  0.0840 -0.1360 -1.6578
  708MOL0     C95488  -2.361   1.886   9.533 -0.4274 -0.2429 -0.4677
  708MOL0     C95489  -2.499   1.883   9.603 -0.2823  1.2893 -0.6968
  708MOL0    Cl95490  -2.656   1.904   9.494 -0.3624  0.1399  0.0532
  708MOL0     C95491  -1.491   1.829   9.112 -0.9727  0.6379 -0.1819
  708MOL0     C95492  -1.362   1.783   9.067 -0.0276 -0.7076  0.1060
  708MOL0     O95493  -1.186   1.580   8.954  0.3214  0.2003 -0.1269
  708MOL0     C95494  -0.871   1.738   9.024 -0.0354 -0.4456  0.7474
  708MOL0     C95495  -0.732   1.735   8.999  0.0052  0.3408  0.1876
  708MOL0     N95496  -0.103   1.421   8.679  0.6515 -0.1218  0.0105
  708MOL0     N95497  -0.023   1.326   8.644 -0.2565 -0.2939  0.4613
  708MOL0     C95498   1.085   1.767   8.507 -0.1558 -0.3217  0.3419
  708MOL0     C95499   1.220   1.728   8.487  0.2236 -0.3189  0.4221
  708MOL0     C95500   1.602   1.433   8.507 -0.2538 -0.2919  1.1082
  708MOL0     C95501   1.687   1.544   8.495  0.3319 -0.1609 -0.4637
  708MOL0     C95502   1.819   1.525   8.471 -1.1525 -0.2777  0.3247
  708MOL0     C95503   1.876   1.402   8.444 -0.8019  0.0100 -0.7628
  708MOL0     O95504   2.012   1.400   8.423  0.5624  0.3628  0.2756
  708MOL0     C95505   2.077   1.270   8.410 -0.2136 -0.4777 -0.3082
  708MOL0     C95506   2.226   1.304   8.400  0.5692 -0.2998  0.1752
  708MOL0     C95507   2.288   1.165   8.392 -0.6966 -0.1455  0.1758
  708MOL0     C95508   2.432   1.188   8.435 -0.6483  0.3560 -0.5668
  708MOL0     C95509   2.505   1.066   8.464 -0.6157 -0.5693  0.4310
  708MOL0     C95510   2.556   0.955   8.475  0.0931  0.1462 -0.2313
  708MOL0     C95511   1.792   1.289   8.475  0.2228 -0.2537  0.1656
  708MOL0     C95512   1.661   1.303   8.501  0.7744 -1.3072 -1.4151
  708MOL0     H95513   1.217   1.455   8.683  0.4454 -0.6620  0.3416
  708MOL0     H95514   0.969   1.532   8.713 -0.8083  3.2008  1.5486
  708MOL0     H95515   0.762   1.879   8.517 -1.0520  0.0861  0.2712
  708MOL0     H95516   0.791   1.733   8.431  0.3626  0.8134  0.0377
  708MOL0     H95517   0.604   1.772   8.678  1.4649 -0.8445  0.6136
  708MOL0     H95518   0.569   1.770   8.509  0.7818 -0.6745 -0.5804
  708MOL0     H95519   0.611   1.535   8.487 -4.7032 -0.8296  0.5988
  708MOL0     H95520   0.693   1.530   8.649  1.2426 -1.1247 -0.2893
  708MOL0     H95521   0.482   1.557   8.768  1.8292 -1.3772  0.2747
  708MOL0     H95522   0.393   1.592   8.611  2.8155 -0.4820 -3.2124
  708MOL0     H95523   0.436   1.367   8.556  0.9175  0.6645 -0.8491
  708MOL0     H95524   0.538   1.341   8.702 -1.8078 -0.1070  2.7706
  708MOL0     H95525   0.353   1.340   8.850 -0.7916 -1.4422  0.8244
  708MOL0     H95526   0.256   1.425   8.732  1.6043  1.3023  2.7694
  708MOL0     H95527   0.260   1.224   8.589 -1.0349  0.2032 -0.2946
  708MOL0     H95528   0.344   1.131   8.717  2.2517  1.6352  1.0681
  708MOL0     H95529   0.169   1.135   8.860  1.2116 -1.1022 -0.8549
  708MOL0     H95530   0.094   1.090   8.699 -1.3963 -0.0545  0.6054
  708MOL0     H95531   0.044   1.370   8.966  1.2733  1.8465 -0.0679
  708MOL0     H95532  -0.094   1.585   8.968 -0.3089 -3.3361  2.4312
  708MOL0     H95533  -0.186   1.631   8.821  0.5066  0.3236  0.2623
  708MOL0     H95534  -0.248   1.401   9.003 -2.4033 -0.3359  0.0644
  708MOL0     H95535  -0.333   1.440   8.852  0.5879 -1.7766  0.2379
  708MOL0     H95536  -0.295   1.615   9.095 -0.3053  0.5643  0.1695
  708MOL0     H95537  -0.419   1.512   9.091  2.7325 -3.4624  0.4965
  708MOL0     H95538  -0.391   1.710   8.863 -1.8931 -0.8376 -1.0255
  708MOL0     H95539  -0.470   1.759   9.007  0.2118  0.3415  0.0672
  708MOL0     H95540  -0.734   1.442   8.821 -1.3853  0.9576 -3.1305
  708MOL0     H95541  -0.982   1.321   8.952  2.0718 -0.2633  0.5461
  708MOL0     H95542  -1.081   1.417   8.838 -0.4992  1.7121  1.2399
  708MOL0     H95543  -0.930   1.360   8.780  1.1799  3.7505 -0.3881
  708MOL0     H95544  -1.241   1.650   9.356  0.2514 -3.2628 -0.9633
  708MOL0     H95545  -1.468   1.714   9.434  0.2287  1.2332  0.3121
  708MOL0     H95546  -1.733   1.973   9.168  2.7703 -0.4793  0.4232
  708MOL0     H95547  -1.793   1.810   9.142 -2.0095  0.8926  0.3265
  708MOL0     H95548  -1.844   1.934   9.412  0.9643 -0.8388 -0.1159
  708MOL0     H95549  -1.926   1.997   9.268 -0.7766 -0.0787  1.3557
  708MOL0     H95550  -1.941   1.725   9.392 -0.9779  1.2312  1.9822
  708MOL0     H95551  -2.005   1.752   9.220  1.0257 -1.3501 -0.3552
  708MOL0     H95552  -2.088   1.893   9.487 -0.5284 -0.1297 -0.1382
  708MOL0     H95553  -2.154   1.920   9.321  0.1646 -2.4538 -2.2155
  708MOL0     H95554  -2.146   1.662   9.492 -0.1587 -0.4195  0.9669
  708MOL0     H95555  -2.196   1.668   9.320 -2.5129  0.2566 -0.1594
  708MOL0     H95556  -2.412   1.770   9.373 -1.3009 -0.1965 -0.5991
  708MOL0     H95557  -2.381   1.662   9.508  0.2084  0.1622 -1.0403
  708MOL0     H95558  -2.357   1.969   9.462  1.5096  0.2759  0.2065
  708MOL0     H95559  -2.283   1.901   9.608  1.7099  0.5087 -2.7041
  708MOL0     H95560  -2.495   1.969   9.671  1.1858 -0.2568  1.2632
  708MOL0     H95561  -2.520   1.799   9.669 -1.3905  1.0157 -1.3670
  708MOL0     H95562  -1.553   1.885   9.043  0.2328  1.2041 -0.8298
  708MOL0     H95563  -1.325   1.809   8.968  1.0613 -1.1949  0.3629
  708MOL0     H95564  -0.912   1.830   9.066 -0.8255 -0.6473  0.4338
  708MOL0     H95565  -0.661   1.804   9.045 -0.3351  2.2768 -2.0091
  708MOL0     H95566   1.044   1.854   8.457 -2.0648 -0.1042  2.1423
  708MOL0     H95567   1.297   1.786   8.438 -1.5938  2.4684  0.6291
  708MOL0     H95568   1.652   1.643   8.522  0.4850 -0.1360 -0.3588
  708MOL0     H95569   1.886   1.609   8.460 -2.4172  0.5667 -1.4365
  708MOL0     H95570   2.064   1.220   8.507  0.1647 -3.1777 -1.5494
  708MOL0     H95571   2.044   1.211   8.325  1.9502  1.7533 -2.8601
  708MOL0     H95572   2.266   1.371   8.476 -3.8967 -0.3565  2.9538
  708MOL0     H95573   2.249   1.352   8.304  2.9311  1.8447  1.6983
  708MOL0     H95574   2.285   1.117   8.294 -1.9119 -0.0569  0.1515
  708MOL0     H95575   2.253   1.093   8.467  2.1268 -1.3392  0.4820
  708MOL0     H95576   2.436   1.241   8.531 -2.4658 -0.6886  0.1507
  708MOL0     H95577   2.481   1.256   8.366  0.3587 -1.8171 -2.1045
  708MOL0     H95578   2.605   0.861   8.492  0.3447  0.2368 -0.4466
  708MOL0     H95579   1.830   1.188   8.459  0.0752 -0.2548 -0.1984
  708MOL0     H95580   1.597   1.221   8.532  0.3245 -0.0898  1.2102
  709MOL0     O95581   5.136   3.191   6.060 -0.7009 -0.0632  0.2427
  709MOL0     C95582   5.184   3.232   6.163 -0.0544  0.0497  0.6796
  709MOL0     O95583   5.122   3.250   6.284 -0.1422 -0.1918 -0.4960
  709MOL0     C95584   4.982   3.223   6.300  0.2986 -0.3004  0.7470
  709MOL0     C95585   4.914   3.120   6.234  0.0208  0.7117  0.0740
  709MOL0     C95586   4.775   3.120   6.228 -0.0564  0.1984 -0.2334
  709MOL0     C95587   4.693   3.219   6.290 -0.6566  0.2796 -0.4942
  709MOL0     O95588   4.557   3.212   6.271 -0.6500 -0.5355 -0.9704
  709MOL0     C95589   4.462   3.257   6.373  0.0386  0.2428  0.6809
  709MOL0     C95590   4.433   3.409   6.367 -0.2335 -0.5571 -0.5502
  709MOL0     C95591   4.346   3.455   6.242  0.5672  0.4849  0.5978
  709MOL0     C95592   4.313   3.610   6.252  0.6960 -0.0059 -0.2528
  709MOL0     C95593   4.252   3.665   6.124  0.4563 -0.4561  0.2011
  709MOL0     C95594   4.105   3.628   6.103  0.7966  0.3858 -0.3275
  709MOL0     C95595   4.014   3.713   6.193 -0.0195  1.0417 -0.1569
  709MOL0     C95596   3.974   3.842   6.138  0.4094  0.1179  0.0787
  709MOL0     N95597   3.860   3.829   6.048 -0.1315 -0.0216  0.0062
  709MOL0     C95598   3.730   3.840   6.080  0.1018  0.1025  0.7186
  709MOL0     C95599   3.667   3.827   5.962 -0.4789  0.2378 -0.2016
  709MOL0     C95600   3.518   3.822   5.966 -0.3329  0.3695  0.0510
  709MOL0     C95601   3.473   3.922   5.860  0.4264 -0.0162 -0.0477
  709MOL0     C95602   3.323   3.936   5.838 -0.3542 -0.1599 -0.5360
  709MOL0     C95603   3.242   4.003   5.945 -0.1989  1.3154  0.3975
  709MOL0     O95604   3.128   4.061   5.886 -0.3803  0.0001  0.1803
  709MOL0     C95605   3.035   4.077   5.978  0.1595 -0.0584 -0.5006
  709MOL0     C95606   3.036   4.188   6.066 -0.4021 -0.0708 -0.3223
  709MOL0     C95607   2.921   4.229   6.142 -0.0473  0.5984 -0.2503
  709MOL0     C95608   2.907   4.369   6.192  0.9987 -0.0468  0.3248
  709MOL0     C95609   2.817   4.139   6.158 -0.0021  1.0426  0.0531
  709MOL0     C95610   2.701   4.161   6.241  0.0749 -0.3098 -0.2224
  709MOL0     O95611   2.579   4.147   6.176  0.0633 -0.6823  0.3524
  709MOL0     C95612   2.460   4.178   6.248 -0.9272  0.4193 -0.1710
  709MOL0     C95613   2.419   4.304   6.282  0.9377 -0.3154  0.6931
  709MOL0     C95614   2.300   4.328   6.366 -0.2400 -0.5139  1.1165
  709MOL0     C95615   2.225   4.215   6.409 -1.3261  0.8619 -0.3486
  709MOL0     O95616   2.098   4.226   6.472 -0.4388 -0.1481 -0.1952
  709MOL0     C95617   2.036   4.356   6.458  0.5106 -0.6227  0.6063
  709MOL0     C95618   1.881   4.337   6.463  0.1808  0.3077  1.0556
  709MOL0     C95619   1.829   4.230   6.560 -0.5337  0.7031  0.3638
  709MOL0     C95620   1.680   4.270   6.596 -0.7579 -0.4810  0.7041
  709MOL0     C95621   1.626   4.185   6.718 -0.4189  0.0788  0.4627
  709MOL0     C95622   1.568   4.055   6.650  0.3956  0.1461  0.8607
  709MOL0     C95623   1.481   3.983   6.751  0.3492 -0.5839 -0.4642
  709MOL0     C95624   1.330   3.997   6.721 -1.3167 -0.1708 -0.5270
  709MOL0    Cl95625   1.289   4.157   6.747 -0.1301  0.1967 -0.1338
  709MOL0     C95626   2.265   4.089   6.370 -0.6582  0.1493  0.0464
  709MOL0     C95627   2.385   4.073   6.296 -0.0169  0.2799 -0.2945
  709MOL0     O95628   2.715   4.198   6.353  0.5513  0.1404 -0.0900
  709MOL0     C95629   2.820   4.021   6.079 -0.4069  0.3372  0.3977
  709MOL0     C95630   2.921   4.000   5.988  0.1938 -0.3088  0.1888
  709MOL0     N95631   3.753   3.816   5.855  0.1579 -0.4773 -0.0954
  709MOL0     N95632   3.871   3.818   5.908  0.3043 -0.3852 -0.6627
  709MOL0     C95633   4.767   3.314   6.363  0.2671  0.0440  0.4351
  709MOL0     C95634   4.905   3.323   6.360  0.3495 -0.1470 -0.4562
  709MOL0     C95635   5.320   3.279   6.143  0.5138 -0.5301 -0.1285
  709MOL0     C95636   5.363   3.373   6.237  0.8017  0.8833 -0.8580
  709MOL0     C95637   5.495   3.420   6.239 -0.0599  0.4805  0.1061
  709MOL0     C95638   5.584   3.383   6.133 -0.5943  0.1914  0.2786
  709MOL0     O95639   5.719   3.427   6.141 -0.4370 -0.0900  0.1576
  709MOL0     C95640   5.827   3.326   6.146 -0.1036  1.0068 -0.5955
  709MOL0     C95641   5.950   3.378   6.220 -0.0407  0.3704  0.4288
  709MOL0     C95642   5.924   3.396   6.368 -0.3338 -0.0168 -0.5090
  709MOL0     C95643   6.048   3.454   6.437 -0.2695  1.0090  1.5275
  709MOL0     C95644   6.085   3.580   6.381  0.0171  0.1439 -0.3845
  709MOL0     C95645   6.128   3.684   6.329 -0.1313 -0.5066  0.5417
  709MOL0     C95646   5.535   3.296   6.032 -0.4939 -0.1333 -0.0963
  709MOL0     C95647   5.405   3.246   6.033 -0.6943  0.0377 -0.4597
  709MOL0     H95648   4.972   3.046   6.179 -2.2102 -1.0851  0.0148
  709MOL0     H95649   4.729   3.037   6.176  0.7736 -1.6907  1.9312
  709MOL0     H95650   4.368   3.202   6.363  0.6901 -0.3923 -3.2176
  709MOL0     H95651   4.506   3.229   6.469 -0.8063  0.0371  1.0183
  709MOL0     H95652   4.380   3.428   6.461 -0.4287  0.5103 -0.8657
  709MOL0     H95653   4.528   3.464   6.372  1.0477 -2.7071 -0.0003
  709MOL0     H95654   4.398   3.432   6.148 -1.5531  2.0870 -1.0578
  709MOL0     H95655   4.252   3.399   6.241 -0.9756  2.9365  0.2986
  709MOL0     H95656   4.240   3.615   6.334 -1.1843  3.3375 -1.9300
  709MOL0     H95657   4.401   3.667   6.281  0.0570  0.0724  1.6619
  709MOL0     H95658   4.257   3.774   6.132 -1.7391 -0.2741 -0.1921
  709MOL0     H95659   4.315   3.643   6.037  1.9401  0.7134  0.9330
  709MOL0     H95660   4.074   3.661   6.004 -2.0360  3.0077  1.2598
  709MOL0     H95661   4.087   3.521   6.116  1.1784 -0.0120 -2.6095
  709MOL0     H95662   3.921   3.655   6.203  1.5110 -1.9808 -2.1107
  709MOL0     H95663   4.062   3.717   6.291 -1.2020 -3.1755  0.8087
  709MOL0     H95664   4.066   3.881   6.092  0.3417  1.1273  0.7657
  709MOL0     H95665   3.960   3.915   6.218  2.1990  1.7009 -0.9645
  709MOL0     H95666   3.692   3.853   6.181  1.3506  0.2434  1.1850
  709MOL0     H95667   3.477   3.721   5.954  1.4758 -0.6891  2.0807
  709MOL0     H95668   3.474   3.851   6.061  1.0449  0.6031  0.6399
  709MOL0     H95669   3.513   3.893   5.762 -2.0526 -0.5599 -0.9727
  709MOL0     H95670   3.512   4.021   5.884  0.9237  0.0538 -1.0841
  709MOL0     H95671   3.269   3.843   5.816 -0.7323 -0.6218  2.0998
  709MOL0     H95672   3.309   3.992   5.745  0.6285 -1.8847 -1.7872
  709MOL0     H95673   3.313   4.078   5.982  1.7125 -0.5690  0.7631
  709MOL0     H95674   3.212   3.937   6.027  0.7455 -0.1578 -0.3943
  709MOL0     H95675   3.117   4.260   6.054 -0.1341 -0.6464 -2.2322
  709MOL0     H95676   2.969   4.443   6.141  2.4730  0.8966  3.2702
  709MOL0     H95677   2.804   4.400   6.175  0.1288 -3.1743 -0.7857
  709MOL0     H95678   2.924   4.374   6.300  1.6112 -0.3093  0.2465
  709MOL0     H95679   2.480   4.387   6.250  2.5077 -2.3448 -2.0757
  709MOL0     H95680   2.264   4.427   6.393 -0.7295  1.1008 -4.3372
  709MOL0     H95681   2.073   4.416   6.542  1.6171 -2.4384  1.4976
  709MOL0     H95682   2.064   4.409   6.367  4.2876 -1.7178  0.9303
  709MOL0     H95683   1.828   4.433   6.469 -0.6609 -0.0121 -0.6607
  709MOL0     H95684   1.860   4.286   6.368  0.7100 -0.0557  1.1295
  709MOL0     H95685   1.893   4.219   6.648  0.5740 -0.2896 -0.5321
  709MOL0     H95686   1.842   4.130   6.518 -1.5490  1.6759 -2.5144
  709MOL0     H95687   1.673   4.374   6.630 -0.2908 -0.0226 -0.5581
  709MOL0     H95688   1.611   4.268   6.511  0.0900 -2.1805  0.0244
  709MOL0     H95689   1.552   4.249   6.765 -0.4218  0.5003 -0.1108
  709MOL0     H95690   1.705   4.163   6.791 -0.3157  1.7800  0.9043
  709MOL0     H95691   1.507   4.080   6.563  2.6469 -1.7979 -1.4634
  709MOL0     H95692   1.653   3.992   6.621  1.4672  0.4331  3.1871
  709MOL0     H95693   1.504   4.007   6.855  1.5971 -1.8793 -0.4033
  709MOL0     H95694   1.499   3.875   6.746  1.1409 -0.4763  0.0306
  709MOL0     H95695   1.274   3.937   6.793  0.7478 -0.2373  1.1281
  709MOL0     H95696   1.305   3.963   6.620 -2.7696  0.4501 -0.3964
  709MOL0     H95697   2.205   4.007   6.408  0.3948 -0.1697  1.0582
  709MOL0     H95698   2.400   3.970   6.264 -3.1595 -0.9058  1.5592
  709MOL0     H95699   2.728   3.967   6.060 -0.0464 -0.5663  1.1585
  709MOL0     H95700   2.918   3.916   5.919  1.5082 -1.7161  1.7589
  709MOL0     H95701   4.714   3.395   6.412  3.1321  3.5593 -1.7496
  709MOL0     H95702   4.966   3.397   6.412  1.8383 -3.0025  2.2265
  709MOL0     H95703   5.298   3.415   6.314  2.0571 -2.2801  2.1588
  709MOL0     H95704   5.523   3.496   6.312 -3.0380  4.6421 -2.5970
  709MOL0     H95705   5.787   3.241   6.202  1.3319  1.9553  2.0545
  709MOL0     H95706   5.841   3.303   6.040 -0.7184 -1.6715 -0.1848
  709MOL0     H95707   5.981   3.471   6.171 -2.7330 -0.0322 -2.3161
  709MOL0     H95708   6.022   3.296   6.223  0.8398  1.1293  2.5726
  709MOL0     H95709   5.900   3.299   6.411  0.0299 -1.4575 -3.3391
  709MOL0     H95710   5.840   3.461   6.394 -0.4017 -0.1067 -0.5050
  709MOL0     H95711   6.127   3.384   6.410 -0.2111  2.0571 -1.3702
  709MOL0     H95712   6.031   3.459   6.545 -2.6671 -3.8343  1.6373
  709MOL0     H95713   6.173   3.769   6.281 -0.7712 -0.4160  0.0804
  709MOL0     H95714   5.605   3.259   5.957 -0.0712  0.0020  0.2223
  709MOL0     H95715   5.371   3.176   5.957 -4.0187  2.2133 -1.1856
  710MOL0     O95716   4.577   2.371   3.343  0.2375  0.7543  0.2043
  710MOL0     C95717   4.557   2.428   3.447 -0.7280  0.3833  0.5270
  710MOL0     O95718   4.437   2.453   3.504  0.2072 -0.5666  0.5935
  710MOL0     C95719   4.319   2.427   3.445 -0.3933  0.1070  0.3903
  710MOL0     C95720   4.293   2.290   3.405 -0.3159 -0.2306 -0.9128
  710MOL0     C95721   4.171   2.262   3.357 -0.4080  1.0675 -0.1813
  710MOL0     C95722   4.077   2.362   3.322 -0.3969 -0.0432 -0.2730
  710MOL0     O95723   3.948   2.344   3.272 -1.2172  0.0013 -0.1178
  710MOL0     C95724   3.904   2.218   3.226  0.2128  0.5063  0.7431
  710MOL0     C95725   3.758   2.201   3.205  0.3189  0.5011 -0.7461
  710MOL0     C95726   3.688   2.304   3.121 -0.0186 -1.1428  0.6735
  710MOL0     C95727   3.546   2.337   3.168 -0.8005  0.6110 -0.6068
  710MOL0     C95728   3.494   2.461   3.097  0.4079 -0.6391  0.9433
  710MOL0     C95729   3.350   2.479   3.146  0.6353  0.3885 -0.6865
  710MOL0     C95730   3.270   2.571   3.055 -0.2527  0.2832  0.3753
  710MOL0     C95731   3.121   2.547   3.065 -0.5521 -0.6863 -0.2748
  710MOL0     N95732   3.045   2.675   3.049 -0.0428 -0.7577 -0.1626
  710MOL0     C95733   2.984   2.707   2.928  0.1403  0.1862  0.2678
  710MOL0     C95734   2.917   2.822   2.960  0.5735 -0.0565 -0.6189
  710MOL0     C95735   2.835   2.891   2.859 -0.9248 -1.1619 -0.5184
  710MOL0     C95736   2.781   2.800   2.745 -0.0582  0.5469 -0.4892
  710MOL0     C95737   2.720   2.875   2.630 -0.0405 -0.3537  0.3971
  710MOL0     C95738   2.575   2.885   2.674  0.2357 -0.0578  0.6988
  710MOL0     O95739   2.502   2.965   2.588  0.0445  0.3188 -0.7807
  710MOL0     C95740   2.371   2.952   2.574 -0.0499  0.1093 -0.0456
  710MOL0     C95741   2.313   3.062   2.513 -0.7820 -0.6633 -0.1333
  710MOL0     C95742   2.177   3.078   2.505  0.5380 -1.4498 -0.0658
  710MOL0     C95743   2.132   3.199   2.422 -0.3968  0.5891  0.0944
  710MOL0     C95744   2.095   2.980   2.566 -0.8785  0.7010  0.2863
  710MOL0     C95745   1.950   2.969   2.559  0.6709 -0.2867 -0.2435
  710MOL0     O95746   1.880   3.085   2.526 -0.8740 -0.2787 -0.2697
  710MOL0     C95747   1.748   3.090   2.509  0.0481  0.6180 -0.0957
  710MOL0     C95748   1.651   3.034   2.599 -0.9184  0.8194  0.1497
  710MOL0     C95749   1.518   3.041   2.576 -0.0397  1.0563 -0.0266
  710MOL0     C95750   1.471   3.111   2.463  0.4254 -0.7298 -0.5853
  710MOL0     O95751   1.337   3.132   2.426 -0.2428  0.6193  0.7897
  710MOL0     C95752   1.239   3.097   2.520 -0.0880 -0.3980 -0.1477
  710MOL0     C95753   1.103   3.128   2.459 -0.3254 -0.3413  0.4710
  710MOL0     C95754   0.994   3.168   2.559  0.5650  0.4040 -0.4465
  710MOL0     C95755   0.972   3.059   2.671 -1.1618  0.1092 -0.3501
  710MOL0     C95756   0.835   3.075   2.744 -0.1228  0.4437  0.0022
  710MOL0     C95757   0.708   3.062   2.648 -0.1313 -0.0341 -0.5828
  710MOL0     C95758   0.575   3.021   2.712 -0.1137  1.2812  0.1695
  710MOL0     C95759   0.469   3.067   2.619  0.0923 -0.6087 -0.6356
  710MOL0    Cl95760   0.335   2.962   2.652  0.3210 -0.2397  0.3711
  710MOL0     C95761   1.568   3.173   2.379  0.2235 -0.0860 -0.7462
  710MOL0     C95762   1.701   3.170   2.403  0.5394  0.3005 -0.0910
  710MOL0     O95763   1.894   2.869   2.598  1.2959 -0.6543  0.7567
  710MOL0     C95764   2.160   2.864   2.612  0.4482  0.8728  0.0781
  710MOL0     C95765   2.291   2.852   2.624  0.2101  0.1381 -0.0266
  710MOL0     N95766   2.960   2.865   3.080  0.2319  0.0426  1.1631
  710MOL0     N95767   3.036   2.778   3.135 -1.0512 -0.1430 -0.4298
  710MOL0     C95768   4.103   2.496   3.352  0.0942  0.4698  1.0041
  710MOL0     C95769   4.225   2.527   3.413  0.5627  0.1270  0.4922
  710MOL0     C95770   4.682   2.475   3.510  0.2938 -0.4439 -1.1052
  710MOL0     C95771   4.804   2.464   3.449  1.0914  0.3454  0.3052
  710MOL0     C95772   4.919   2.492   3.508 -0.3777  0.8997 -0.3575
  710MOL0     C95773   4.919   2.548   3.638 -0.1224 -0.0204  0.4097
  710MOL0     O95774   5.042   2.571   3.694  0.3232  0.1139 -0.1946
  710MOL0     C95775   5.130   2.662   3.618 -0.1981  0.7002 -0.1298
  710MOL0     C95776   5.270   2.599   3.620  0.0598  0.1578  0.9212
  710MOL0     C95777   5.338   2.551   3.748  0.5217 -0.8539 -0.8008
  710MOL0     C95778   5.368   2.678   3.830  0.4623 -0.3384  0.8070
  710MOL0     C95779   5.485   2.750   3.783  0.1509 -1.1734  0.8617
  710MOL0     C95780   5.586   2.821   3.759  0.0627  0.2292 -0.4469
  710MOL0     C95781   4.795   2.560   3.708  0.3115  0.3317  0.6925
  710MOL0     C95782   4.677   2.521   3.644  0.7380  0.6237  0.9994
  710MOL0     H95783   4.360   2.207   3.423 -1.7282 -1.0570  0.9014
  710MOL0     H95784   4.154   2.156   3.339  2.6585  0.1282  1.6787
  710MOL0     H95785   3.972   2.205   3.141  0.6141 -1.3144  1.2890
  710MOL0     H95786   3.927   2.135   3.294 -0.4601 -0.8429 -0.6354
  710MOL0     H95787   3.734   2.099   3.173 -2.0632 -0.3616  3.0596
  710MOL0     H95788   3.717   2.200   3.306 -1.0954  0.1653 -1.2951
  710MOL0     H95789   3.751   2.393   3.115 -2.0891  0.3061 -1.9799
  710MOL0     H95790   3.676   2.272   3.017 -2.5743 -2.3507  1.2567
  710MOL0     H95791   3.480   2.250   3.157 -1.3116  0.8256  0.6245
  710MOL0     H95792   3.545   2.347   3.277  3.2092  0.0001 -0.3884
  710MOL0     H95793   3.555   2.551   3.110  0.2909 -0.6512  1.6185
  710MOL0     H95794   3.501   2.445   2.989 -1.3266 -0.4536  0.7768
  710MOL0     H95795   3.305   2.379   3.157 -2.4794  1.8288  0.9797
  710MOL0     H95796   3.357   2.514   3.249 -0.2986  0.1362 -0.5230
  710MOL0     H95797   3.302   2.668   3.094  1.4773 -0.4163  0.7769
  710MOL0     H95798   3.308   2.571   2.952 -0.0677  0.5192  0.4421
  710MOL0     H95799   3.102   2.518   3.169 -1.5387  0.4674 -0.1100
  710MOL0     H95800   3.088   2.472   2.993  0.5299 -2.1349  0.6817
  710MOL0     H95801   2.970   2.644   2.841 -0.1443 -1.0498  1.1825
  710MOL0     H95802   2.759   2.950   2.911  1.3077 -0.9210  2.7249
  710MOL0     H95803   2.911   2.957   2.815  0.0184 -3.0463 -1.8677
  710MOL0     H95804   2.710   2.725   2.782  1.7177 -0.8678  0.2112
  710MOL0     H95805   2.870   2.751   2.705 -0.2451 -1.7713  1.6653
  710MOL0     H95806   2.726   2.805   2.546 -0.8313 -0.0010  0.0404
  710MOL0     H95807   2.758   2.976   2.614 -0.8899  0.1116  1.2363
  710MOL0     H95808   2.572   2.926   2.775  0.6618  0.1810  0.6136
  710MOL0     H95809   2.535   2.783   2.678  1.3227 -0.4614  2.3989
  710MOL0     H95810   2.384   3.133   2.471  0.4338  1.6989  5.0565
  710MOL0     H95811   2.078   3.270   2.485 -1.5888  0.3189 -0.5871
  710MOL0     H95812   2.218   3.247   2.374  1.8732 -0.4071  2.8308
  710MOL0     H95813   2.058   3.171   2.346  0.8423  3.6468 -2.4697
  710MOL0     H95814   1.682   2.998   2.696 -2.8777 -0.3935  0.3731
  710MOL0     H95815   1.455   2.995   2.651  1.7218 -0.5497  0.5517
  710MOL0     H95816   1.245   2.992   2.551 -1.8061 -0.9287 -1.4474
  710MOL0     H95817   1.261   3.155   2.611  2.7054 -1.5787  0.0272
  710MOL0     H95818   1.117   3.218   2.398 -1.6766 -0.1610  0.4107
  710MOL0     H95819   1.069   3.045   2.397  0.6154 -0.6635  0.3692
  710MOL0     H95820   0.899   3.198   2.515  0.3893 -0.9865 -1.0701
  710MOL0     H95821   1.023   3.262   2.605 -1.3198  1.4043 -1.2107
  710MOL0     H95822   0.982   2.963   2.620 -1.4740  0.1327 -0.4571
  710MOL0     H95823   1.058   3.073   2.737 -0.3116  0.3266 -1.4540
  710MOL0     H95824   0.824   3.176   2.785 -2.5674  0.2699 -0.1134
  710MOL0     H95825   0.820   2.995   2.817  2.0005  1.2687  1.4456
  710MOL0     H95826   0.695   3.156   2.593 -2.4190 -0.3021 -0.6183
  710MOL0     H95827   0.736   2.988   2.573  0.7904 -0.6944  0.3864
  710MOL0     H95828   0.557   3.064   2.811  0.3692  0.7886  0.4786
  710MOL0     H95829   0.574   2.912   2.724  0.0466  1.0146 -1.9005
  710MOL0     H95830   0.507   3.052   2.518 -0.5927 -0.4395 -0.9280
  710MOL0     H95831   0.455   3.173   2.642  1.5692 -0.3760 -0.7580
  710MOL0     H95832   1.537   3.229   2.291  3.9831  0.0448 -2.2059
  710MOL0     H95833   1.768   3.230   2.341 -0.1114 -0.6870 -1.8200
  710MOL0     H95834   2.095   2.791   2.660 -0.5984 -0.2628 -2.8760
  710MOL0     H95835   2.328   2.769   2.683 -1.2325 -0.6904 -0.2502
  710MOL0     H95836   4.026   2.562   3.314 -0.9083 -1.0975  0.1804
  710MOL0     H95837   4.250   2.631   3.430 -0.0890  0.2523  0.7196
  710MOL0     H95838   4.803   2.430   3.347 -1.9553 -0.0658  0.3927
  710MOL0     H95839   5.011   2.494   3.451 -0.3103  0.3265 -0.2768
  710MOL0     H95840   5.083   2.677   3.520 -0.2388 -4.6522 -1.2243
  710MOL0     H95841   5.141   2.758   3.670  2.5398  1.1382 -1.3308
  710MOL0     H95842   5.349   2.654   3.569  3.0399 -1.0786  3.8359
  710MOL0     H95843   5.261   2.506   3.562  0.9510  0.3791  0.4178
  710MOL0     H95844   5.429   2.493   3.728  0.1320 -1.3588 -1.1196
  710MOL0     H95845   5.275   2.485   3.808 -0.5119 -0.2029 -1.1458
  710MOL0     H95846   5.373   2.650   3.936 -2.5678  0.7592  1.3657
  710MOL0     H95847   5.288   2.753   3.828 -0.1999 -1.0283 -1.8423
  710MOL0     H95848   5.672   2.884   3.751 -0.3895  0.8549 -0.3801
  710MOL0     H95849   4.795   2.606   3.806 -0.1682  0.1967  0.7543
  710MOL0     H95850   4.578   2.507   3.687  0.8887 -1.5257  0.7766
  711MOL0     O95851   2.532   0.989   4.587  0.2354  0.2683 -0.8131
  711MOL0     C95852   2.564   1.052   4.685 -0.4805  0.1708 -1.1105
  711MOL0     O95853   2.478   1.084   4.791  0.6798 -0.0837  0.1412
  711MOL0     C95854   2.344   1.053   4.769 -0.7739  0.2990  0.0502
  711MOL0     C95855   2.295   0.941   4.836 -0.3145  0.3272  0.0512
  711MOL0     C95856   2.159   0.919   4.854  0.3780 -1.0659  0.2740
  711MOL0     C95857   2.070   1.004   4.788  0.2008  0.8424  0.0467
  711MOL0     O95858   1.933   0.965   4.787 -0.2164  0.4751 -0.3941
  711MOL0     C95859   1.881   0.937   4.920  0.0828 -0.0627  0.3188
  711MOL0     C95860   1.737   0.993   4.936 -0.1776 -1.1158  0.2780
  711MOL0     C95861   1.632   0.915   4.860 -0.0160 -0.6687 -0.5741
  711MOL0     C95862   1.504   0.913   4.940 -0.5282 -0.2058 -0.1574
  711MOL0     C95863   1.392   0.829   4.875 -0.2054  0.3284 -0.5792
  711MOL0     C95864   1.417   0.681   4.909 -0.5201 -0.2088 -0.0822
  711MOL0     C95865   1.293   0.608   4.849 -0.2751 -0.2062  0.1414
  711MOL0     C95866   1.306   0.456   4.868 -0.1422  0.6172  0.1971
  711MOL0     N95867   1.169   0.394   4.851 -0.1244  0.2672  0.0903
  711MOL0     C95868   1.112   0.363   4.733  0.9811  0.2351  0.4975
  711MOL0     C95869   0.978   0.362   4.762  0.5091  0.4589  1.0734
  711MOL0     C95870   0.857   0.342   4.669  0.1510  0.2000 -0.1335
  711MOL0     C95871   0.730   0.289   4.729 -1.0300  0.0143  0.3737
  711MOL0     C95872   0.625   0.272   4.616 -0.5079 -0.5641  0.3904
  711MOL0     C95873   0.493   0.239   4.677  0.3938  0.1750  0.8853
  711MOL0     O95874   0.391   0.282   4.584 -0.1160 -0.0074 -0.2124
  711MOL0     C95875   0.280   0.211   4.549 -0.5203  0.0365 -0.2944
  711MOL0     C95876   0.221   0.237   4.425  0.2506 -0.3470  0.5568
  711MOL0     C95877   0.103   0.166   4.395 -0.5269 -0.5535  0.0988
  711MOL0     C95878   0.049   0.177   4.259 -0.8243  0.0751 -0.7485
  711MOL0     C95879   0.033   0.081   4.492 -0.7270 -1.5315  0.0985
  711MOL0     C95880  -0.102   0.016   4.471  0.8229  0.5545  0.3378
  711MOL0     O95881  -0.209   0.081   4.431  0.3209  0.4666 -0.5473
  711MOL0     C95882  -0.337   0.032   4.453 -1.2608  0.0862 -0.6535
  711MOL0     C95883  -0.378  -0.077   4.544 -0.1808 -0.3759  0.2206
  711MOL0     C95884  -0.510  -0.116   4.566 -0.3707  1.0051 -0.1126
  711MOL0     C95885  -0.616  -0.058   4.491  0.3111 -0.0247  0.1825
  711MOL0     O95886  -0.739  -0.115   4.520 -0.2442  0.1768 -0.0135
  711MOL0     C95887  -0.850  -0.067   4.434 -0.8915  0.5233 -0.6323
  711MOL0     C95888  -0.980  -0.144   4.464  0.4684  0.9491 -0.2912
  711MOL0     C95889  -1.096  -0.084   4.394  0.2365 -0.2376  0.3115
  711MOL0     C95890  -1.213  -0.180   4.421 -0.3582 -0.6500 -0.3187
  711MOL0     C95891  -1.345  -0.104   4.410  1.1013 -0.2371  0.2133
  711MOL0     C95892  -1.465  -0.199   4.428 -0.7905 -0.6245 -0.9483
  711MOL0     C95893  -1.470  -0.288   4.561  0.5728 -0.1684 -1.0074
  711MOL0     C95894  -1.609  -0.352   4.581 -0.8018  0.0899 -0.4606
  711MOL0    Cl95895  -1.601  -0.496   4.685  0.3578 -0.0093  0.3409
  711MOL0     C95896  -0.579   0.046   4.396 -0.2458  0.1140 -0.0698
  711MOL0     C95897  -0.445   0.088   4.386  0.1665 -0.3103  0.2199
  711MOL0     O95898  -0.096  -0.105   4.511 -0.0825 -0.9041 -0.0392
  711MOL0     C95899   0.094   0.070   4.622  0.5932  0.3361 -0.0440
  711MOL0     C95900   0.215   0.131   4.646  0.4567  0.0450 -0.5496
  711MOL0     N95901   0.965   0.365   4.894 -0.4406  0.0577 -0.0630
  711MOL0     N95902   1.081   0.381   4.955 -0.0697 -0.2420 -0.5392
  711MOL0     C95903   2.106   1.117   4.733 -0.8431  0.4300  1.1423
  711MOL0     C95904   2.251   1.142   4.715  0.1724  0.3690  0.0127
  711MOL0     C95905   2.706   1.083   4.709  0.1084  0.2516 -0.0034
  711MOL0     C95906   2.803   1.044   4.619 -1.1883 -0.0226  0.2495
  711MOL0     C95907   2.941   1.056   4.658  0.6627 -0.3511 -0.4981
  711MOL0     C95908   2.984   1.107   4.782  0.4287 -1.4771  0.0382
  711MOL0     O95909   3.114   1.091   4.824 -0.4444 -0.3042 -0.4230
  711MOL0     C95910   3.138   1.025   4.953 -0.1954 -0.2196 -0.2677
  711MOL0     C95911   3.071   0.883   4.952 -0.0441  0.4946 -0.0123
  711MOL0     C95912   3.130   0.788   5.054  0.3271  0.4991 -0.0732
  711MOL0     C95913   3.270   0.726   5.020 -0.1750 -0.3021  0.0184
  711MOL0     C95914   3.385   0.807   5.071  0.1395  0.3742 -0.4582
  711MOL0     C95915   3.495   0.857   5.106 -0.0352 -0.2953 -0.7010
  711MOL0     C95916   2.884   1.148   4.874 -0.4307 -0.1810 -0.2670
  711MOL0     C95917   2.748   1.132   4.838 -0.2429 -0.5603 -0.3688
  711MOL0     H95918   2.365   0.859   4.853  0.2210 -0.2734 -4.0240
  711MOL0     H95919   2.129   0.824   4.896  1.8353 -0.1081  3.8857
  711MOL0     H95920   1.868   0.829   4.930 -1.1259  0.1362  1.0730
  711MOL0     H95921   1.943   0.982   4.997  1.8795  0.1860 -1.2055
  711MOL0     H95922   1.714   0.998   5.043 -2.0328 -0.0639 -0.1251
  711MOL0     H95923   1.736   1.100   4.911  0.4410 -1.4033 -1.0524
  711MOL0     H95924   1.621   0.956   4.759  2.2451  1.8441  0.0693
  711MOL0     H95925   1.670   0.813   4.850 -0.5371 -0.8464 -0.7862
  711MOL0     H95926   1.527   0.872   5.039 -0.6156 -0.8010 -0.3784
  711MOL0     H95927   1.477   1.017   4.959 -0.1366  0.0077 -0.7782
  711MOL0     H95928   1.298   0.862   4.920  1.3580  1.6550  1.9704
  711MOL0     H95929   1.399   0.840   4.767 -0.0467  2.0466 -0.4203
  711MOL0     H95930   1.511   0.632   4.882 -0.9977 -1.6711  0.8180
  711MOL0     H95931   1.425   0.689   5.017  0.8029 -0.8527 -0.1117
  711MOL0     H95932   1.210   0.648   4.909  1.2381 -0.2832  2.4428
  711MOL0     H95933   1.281   0.624   4.742 -2.1884 -0.4453  0.2892
  711MOL0     H95934   1.344   0.445   4.970 -0.7995 -0.7750  0.3098
  711MOL0     H95935   1.382   0.416   4.800  0.7139  0.4957  1.1914
  711MOL0     H95936   1.164   0.348   4.639 -0.2864  0.2006 -0.2127
  711MOL0     H95937   0.830   0.435   4.618 -0.6924 -1.0680 -2.1142
  711MOL0     H95938   0.874   0.269   4.590 -0.1948 -0.3971  0.3340
  711MOL0     H95939   0.697   0.359   4.806 -2.4721  2.0523 -1.9422
  711MOL0     H95940   0.748   0.189   4.769  0.7178 -0.1429 -0.7048
  711MOL0     H95941   0.642   0.199   4.537 -2.2253 -2.7768  1.9324
  711MOL0     H95942   0.612   0.377   4.587  4.1327  0.5405  1.4317
  711MOL0     H95943   0.472   0.298   4.766  0.1749  2.7059 -0.7543
  711MOL0     H95944   0.480   0.133   4.704  2.6215 -0.3986 -0.1196
  711MOL0     H95945   0.268   0.292   4.344 -1.5683 -1.7086 -1.5407
  711MOL0     H95946  -0.040   0.241   4.257  0.5058  2.0214 -1.0310
  711MOL0     H95947   0.128   0.221   4.197  1.4351 -0.6996  1.4381
  711MOL0     H95948   0.017   0.078   4.224  0.3825  0.2776 -2.5612
  711MOL0     H95949  -0.302  -0.122   4.607  1.5505  1.4477 -0.4567
  711MOL0     H95950  -0.509  -0.178   4.654 -1.2393 -1.1366 -1.5272
  711MOL0     H95951  -0.869   0.040   4.442 -3.0461  0.2601 -1.5945
  711MOL0     H95952  -0.814  -0.089   4.333  0.2729 -1.1239  0.0834
  711MOL0     H95953  -0.965  -0.251   4.447  2.0892  1.2423 -0.9374
  711MOL0     H95954  -1.001  -0.140   4.572  0.1110  1.8489 -0.3879
  711MOL0     H95955  -1.086  -0.078   4.285 -3.1268  0.2425 -0.0694
  711MOL0     H95956  -1.110   0.020   4.423 -0.0513  0.0269 -0.7325
  711MOL0     H95957  -1.204  -0.258   4.345  0.8176  1.7149 -2.7852
  711MOL0     H95958  -1.193  -0.218   4.522  2.7110 -1.2418 -1.0373
  711MOL0     H95959  -1.352  -0.058   4.311 -0.8279 -0.1340  0.3625
  711MOL0     H95960  -1.346  -0.021   4.481 -0.8247 -0.0875  0.0451
  711MOL0     H95961  -1.555  -0.136   4.434  0.0840  0.5514  0.4379
  711MOL0     H95962  -1.473  -0.266   4.342 -0.9972  0.0085 -1.4233
  711MOL0     H95963  -1.454  -0.233   4.654  2.1807 -0.0395 -1.3321
  711MOL0     H95964  -1.399  -0.371   4.559 -0.9587 -1.7100  1.8364
  711MOL0     H95965  -1.634  -0.381   4.478 -0.6213  0.9182 -0.7428
  711MOL0     H95966  -1.683  -0.283   4.620 -0.1590 -0.0574  1.1205
  711MOL0     H95967  -0.665   0.089   4.344 -2.2411  0.0132  2.8789
  711MOL0     H95968  -0.418   0.154   4.305  0.7529 -0.5662  0.1989
  711MOL0     H95969   0.048   0.010   4.699 -1.2750  0.5834 -0.8996
  711MOL0     H95970   0.238   0.110   4.750 -0.9600  1.8423  0.1692
  711MOL0     H95971   2.028   1.176   4.687 -2.0071 -0.3358  2.0479
  711MOL0     H95972   2.293   1.224   4.657  0.0114  1.4791  1.4079
  711MOL0     H95973   2.772   0.994   4.527 -0.5630 -2.4422  1.2816
  711MOL0     H95974   3.021   1.031   4.588  1.6856  0.1423  0.4595
  711MOL0     H95975   3.247   1.028   4.966  0.1520 -1.2710 -2.5261
  711MOL0     H95976   3.092   1.078   5.037 -0.2018 -3.1890  1.7782
  711MOL0     H95977   3.092   0.843   4.853  0.4871  1.6882 -0.3928
  711MOL0     H95978   2.964   0.894   4.973 -0.6719 -0.7301 -2.2460
  711MOL0     H95979   3.051   0.712   5.060  0.8844 -0.0060  1.6928
  711MOL0     H95980   3.122   0.825   5.157 -1.2590 -0.7197  0.2897
  711MOL0     H95981   3.289   0.710   4.913 -1.2861 -0.3823 -0.1789
  711MOL0     H95982   3.274   0.635   5.079  0.6945  0.2225  0.7952
  711MOL0     H95983   3.588   0.896   5.142 -1.1943  1.4065  0.6060
  711MOL0     H95984   2.911   1.189   4.972 -1.4348  1.1713 -0.5300
  711MOL0     H95985   2.673   1.162   4.910  0.7826 -0.0551  0.5212
  712MOL0     O95986   0.265   9.823   4.389  0.5503  0.4091  0.4804
  712MOL0     C95987   0.269   9.918   4.472 -0.0576  0.9542 -0.4162
  712MOL0     O95988   0.181   9.933   4.577 -0.0760 -0.3387 -0.5828
  712MOL0     C95989   0.071   9.858   4.579  0.2876 -0.8690 -0.3912
  712MOL0     C95990  -0.043   9.892   4.505 -0.8986  0.3729 -0.1428
  712MOL0     C95991  -0.159   9.815   4.504  0.1758 -0.0007 -0.1970
  712MOL0     C95992  -0.185   9.721   4.601  0.4907 -0.7640  0.2192
  712MOL0     O95993  -0.314   9.679   4.632  0.1464 -0.1689  0.1004
  712MOL0     C95994  -0.329   9.590   4.744 -0.0222  0.1543 -0.0066
  712MOL0     C95995  -0.471   9.520   4.735  0.4654 -1.2716 -0.0470
  712MOL0     C95996  -0.585   9.604   4.795 -0.2798  0.2176 -0.0791
  712MOL0     C95997  -0.717   9.530   4.777  0.9891  0.0016 -0.3459
  712MOL0     C95998  -0.836   9.610   4.830  1.3092  0.1759  0.0128
  712MOL0     C95999  -0.835   9.628   4.986 -0.4166  0.3265 -0.2098
  712MOL0     C96000  -0.974   9.670   5.025 -0.0068 -0.7020 -0.6938
  712MOL0     C96001  -0.993   9.729   5.168  0.4400 -0.4147  0.3085
  712MOL0     N96002  -1.134   9.740   5.202  0.3172 -0.4778 -0.9699
  712MOL0     C96003  -1.233   9.659   5.161 -0.1151 -0.0616  0.3399
  712MOL0     C96004  -1.338   9.715   5.214  0.7656  0.0846 -0.1053
  712MOL0     C96005  -1.477   9.664   5.197 -0.7812  0.3010 -0.3359
  712MOL0     C96006  -1.532   9.735   5.069  0.4424 -0.0633  0.3140
  712MOL0     C96007  -1.642   9.662   4.998 -0.9508 -0.1413  0.2099
  712MOL0     C96008  -1.767   9.669   5.082 -0.4307 -0.2053 -0.1355
  712MOL0     O96009  -1.885   9.643   4.999  0.1761 -0.6243  0.0582
  712MOL0     C96010  -2.010   9.643   5.049 -0.8496 -0.1255 -0.5264
  712MOL0     C96011  -2.053   9.725   5.148 -1.0231  0.0391 -0.1341
  712MOL0     C96012  -2.182   9.717   5.206 -0.4078 -0.0941 -0.6564
  712MOL0     C96013  -2.197   9.809   5.324 -0.5380  0.3424  0.0208
  712MOL0     C96014  -2.278   9.628   5.158  0.0706 -0.4798  0.5850
  712MOL0     C96015  -2.409   9.604   5.220 -0.3671  0.1915  0.2396
  712MOL0     O96016  -2.496   9.518   5.151 -0.0423  0.1410 -0.2505
  712MOL0     C96017  -2.619   9.489   5.213 -0.3194  0.4472  1.0979
  712MOL0     C96018  -2.625   9.403   5.320  0.0328  0.5841 -0.2448
  712MOL0     C96019  -2.750   9.353   5.370 -1.1829  0.4503  0.1608
  712MOL0     C96020  -2.868   9.402   5.307  0.1322  0.4997  0.8711
  712MOL0     O96021  -2.999   9.369   5.338  0.0152  0.5009  0.6311
  712MOL0     C96022  -3.016   9.248   5.409  0.5292  0.8102  0.2780
  712MOL0     C96023  -3.160   9.222   5.392 -0.0635 -0.3686  0.8206
  712MOL0     C96024  -3.253   9.337   5.437  0.0939 -0.0597  0.3193
  712MOL0     C96025  -3.399   9.296   5.415  1.0174 -0.1266  0.5040
  712MOL0     C96026  -3.489   9.381   5.510  1.1973  0.5859  0.6661
  712MOL0     C96027  -3.638   9.338   5.506 -0.8779 -0.2754  0.1687
  712MOL0     C96028  -3.721   9.401   5.622 -0.1880 -0.1553  0.7438
  712MOL0     C96029  -3.863   9.380   5.599 -0.3872 -0.3623  0.2944
  712MOL0    Cl96030  -3.925   9.399   5.428  0.0665  0.0325 -0.0091
  712MOL0     C96031  -2.859   9.481   5.194 -0.0376 -0.3421 -0.1902
  712MOL0     C96032  -2.734   9.521   5.149  0.1544 -0.3702 -0.5822
  712MOL0     O96033  -2.439   9.671   5.318 -0.8826 -0.1757  0.4644
  712MOL0     C96034  -2.235   9.547   5.053  0.3360 -0.6553  1.8074
  712MOL0     C96035  -2.102   9.542   5.000  0.0090 -0.1928 -0.7903
  712MOL0     N96036  -1.304   9.814   5.302 -0.3306  0.4666 -0.2670
  712MOL0     N96037  -1.175   9.829   5.291  0.2474 -0.4077 -0.0930
  712MOL0     C96038  -0.081   9.689   4.693 -1.1521  0.0215  0.5684
  712MOL0     C96039   0.045   9.753   4.674  0.2551 -0.9041 -0.0995
  712MOL0     C96040   0.401   9.995   4.476  0.1683  0.2156 -1.3239
  712MOL0     C96041   0.434  10.082   4.581 -0.5625  0.3465 -0.7599
  712MOL0     C96042   0.564  10.139   4.597  0.6838 -0.0630  0.1429
  712MOL0     C96043   0.666  10.130   4.493 -0.0184 -0.2917 -0.0150
  712MOL0     O96044   0.791  10.192   4.501 -0.8301 -0.1991 -0.4559
  712MOL0     C96045   0.826  10.276   4.617 -0.3578  0.3216 -0.1999
  712MOL0     C96046   0.943  10.363   4.584 -1.1032  0.1078  0.1276
  712MOL0     C96047   1.010  10.415   4.715 -0.2618 -0.6200 -0.0700
  712MOL0     C96048   1.141  10.477   4.665 -0.0718 -0.6164 -0.3754
  712MOL0     C96049   1.221  10.501   4.787 -0.0387 -0.2761 -0.4664
  712MOL0     C96050   1.272  10.516   4.890 -0.1703 -0.1019  0.2575
  712MOL0     C96051   0.632  10.049   4.385  0.1488 -0.6991  0.4616
  712MOL0     C96052   0.506   9.983   4.381  0.3824 -0.1549  0.9544
  712MOL0     H96053  -0.041   9.969   4.428  0.9194  0.0574 -0.4591
  712MOL0     H96054  -0.232   9.850   4.431  1.7601  1.0455 -1.3287
  712MOL0     H96055  -0.256   9.511   4.725 -0.4709 -0.4923  0.8720
  712MOL0     H96056  -0.318   9.640   4.841  6.0939 -0.7855  0.2002
  712MOL0     H96057  -0.493   9.502   4.629 -1.0693  1.7687 -0.3546
  712MOL0     H96058  -0.461   9.434   4.802  1.2545  0.4223  2.0972
  712MOL0     H96059  -0.559   9.611   4.901  1.7182  1.9914 -0.6092
  712MOL0     H96060  -0.589   9.704   4.751 -0.7024  1.7381  3.1352
  712MOL0     H96061  -0.736   9.505   4.672 -0.0897  0.7833 -0.3498
  712MOL0     H96062  -0.715   9.431   4.824 -0.1798 -1.4564 -3.1021
  712MOL0     H96063  -0.844   9.700   4.769  2.0356 -2.2915 -4.1455
  712MOL0     H96064  -0.934   9.567   4.803 -1.1986  3.6184  2.7857
  712MOL0     H96065  -0.815   9.526   5.019 -1.9945 -0.5768 -1.9122
  712MOL0     H96066  -0.762   9.689   5.040 -3.0303  0.0479  4.1415
  712MOL0     H96067  -1.030   9.726   4.949  0.2405 -2.0105 -1.8922
  712MOL0     H96068  -1.021   9.571   5.024  0.9760 -1.1779 -1.3749
  712MOL0     H96069  -0.940   9.824   5.173 -1.1708  0.5208  0.0683
  712MOL0     H96070  -0.931   9.677   5.242 -0.1889  1.2908  2.1150
  712MOL0     H96071  -1.222   9.567   5.105  0.2261  1.2332 -1.8311
  712MOL0     H96072  -1.464   9.556   5.181 -2.5992 -0.0004  0.0272
  712MOL0     H96073  -1.538   9.672   5.288  0.6865 -1.0352  0.8340
  712MOL0     H96074  -1.448   9.755   5.002  0.4844 -0.1560  0.3384
  712MOL0     H96075  -1.568   9.832   5.103  1.0286  0.0580  0.6077
  712MOL0     H96076  -1.621   9.556   4.980  3.7297  0.9859 -2.7113
  712MOL0     H96077  -1.665   9.719   4.907 -0.9201  0.1732  0.3967
  712MOL0     H96078  -1.773   9.775   5.109 -0.1565  0.2482 -1.7390
  712MOL0     H96079  -1.762   9.601   5.168  1.5737  0.2438  0.1445
  712MOL0     H96080  -1.989   9.803   5.188 -1.6314  0.2900  0.3739
  712MOL0     H96081  -2.216   9.742   5.409  0.6798 -1.3993 -0.9997
  712MOL0     H96082  -2.108   9.869   5.346 -0.2589 -0.4667  1.2509
  712MOL0     H96083  -2.272   9.887   5.309 -0.5614  0.2479 -0.3649
  712MOL0     H96084  -2.541   9.366   5.377 -1.3033 -3.2892 -0.4778
  712MOL0     H96085  -2.747   9.289   5.457  0.1600 -1.2000 -1.0226
  712MOL0     H96086  -2.959   9.168   5.360  0.0534  1.3495 -1.2292
  712MOL0     H96087  -2.983   9.251   5.513 -1.4297  0.7097  0.9361
  712MOL0     H96088  -3.178   9.217   5.284 -1.7589  1.8373  0.9253
  712MOL0     H96089  -3.183   9.129   5.445  2.5106 -1.9153 -0.5895
  712MOL0     H96090  -3.237   9.430   5.383  2.2743 -0.2807  0.5216
  712MOL0     H96091  -3.248   9.357   5.544 -2.5663 -2.9515  1.1825
  712MOL0     H96092  -3.431   9.295   5.310 -1.4541 -2.6223  1.1548
  712MOL0     H96093  -3.411   9.189   5.430  0.6970 -0.4635 -1.7143
  712MOL0     H96094  -3.483   9.486   5.481  0.5111  0.6765  0.8351
  712MOL0     H96095  -3.455   9.375   5.613  0.7160  0.4650  0.8226
  712MOL0     H96096  -3.671   9.371   5.407 -0.5482  2.8814  1.0105
  712MOL0     H96097  -3.655   9.231   5.518 -2.6426 -0.4323 -2.7398
  712MOL0     H96098  -3.688   9.504   5.640  2.0803 -0.4637 -1.1368
  712MOL0     H96099  -3.703   9.349   5.716 -2.0711 -2.0449  0.1347
  712MOL0     H96100  -3.909   9.453   5.666  0.3084  0.3625 -0.0064
  712MOL0     H96101  -3.884   9.277   5.629 -0.0714 -0.9067 -1.2461
  712MOL0     H96102  -2.945   9.507   5.133  0.8784 -0.2224 -1.4798
  712MOL0     H96103  -2.732   9.581   5.059  1.8713 -0.3632 -0.5746
  712MOL0     H96104  -2.301   9.479   4.999  1.9654 -1.0190  0.1860
  712MOL0     H96105  -2.071   9.478   4.919  1.0932 -0.1057 -0.4530
  712MOL0     H96106  -0.090   9.619   4.775 -0.7345 -2.0678 -1.0785
  712MOL0     H96107   0.123   9.728   4.745 -0.0620  0.5682  0.8159
  712MOL0     H96108   0.358  10.111   4.653 -0.2954  2.4338 -1.2400
  712MOL0     H96109   0.574  10.202   4.685  1.8791 -1.6751  1.2122
  712MOL0     H96110   0.734  10.329   4.643 -1.0437 -0.7684 -0.3300
  712MOL0     H96111   0.853  10.203   4.694 -0.2346  1.1724  0.5754
  712MOL0     H96112   0.917  10.436   4.508 -0.4320  2.3891  1.9772
  712MOL0     H96113   1.009  10.292   4.533  0.8226  0.0210  2.5632
  712MOL0     H96114   1.033  10.338   4.789 -0.6334 -0.0207  0.6779
  712MOL0     H96115   0.946  10.485   4.768  1.0312  1.6945 -1.3956
  712MOL0     H96116   1.119  10.570   4.613 -0.3340  0.1614  1.1029
  712MOL0     H96117   1.183  10.408   4.591  0.6686 -0.8105  0.2073
  712MOL0     H96118   1.325  10.540   4.980 -1.5615  0.8856  0.8444
  712MOL0     H96119   0.703  10.039   4.304 -0.0387 -0.7685  0.3035
  712MOL0     H96120   0.492   9.924   4.291  1.8457  0.4655  0.2801
  713MOL0     O96121   2.884  11.001   2.481  0.2391  0.3290 -0.8364
  713MOL0     C96122   2.961  11.083   2.429 -0.3607  1.1682 -0.2866
  713MOL0     O96123   2.933  11.149   2.316  0.3498  0.4544  0.9148
  713MOL0     C96124   2.849  11.084   2.228 -0.4401  0.0833  1.5350
  713MOL0     C96125   2.856  10.947   2.186 -0.7341 -0.3882  0.6093
  713MOL0     C96126   2.753  10.898   2.103  0.1435 -0.2376  0.0140
  713MOL0     C96127   2.646  10.981   2.069 -0.3452  0.3672 -0.3691
  713MOL0     O96128   2.550  10.933   1.978  0.4935  0.7721 -0.1083
  713MOL0     C96129   2.586  10.829   1.882  0.3481  0.4182 -0.1166
  713MOL0     C96130   2.484  10.833   1.761  0.6160 -0.2820  0.0649
  713MOL0     C96131   2.339  10.855   1.806 -0.8569  0.0172 -0.8518
  713MOL0     C96132   2.231  10.894   1.700 -0.4527  0.4721 -0.1994
  713MOL0     C96133   2.101  10.847   1.762 -0.5124 -0.0710 -0.0326
  713MOL0     C96134   1.989  10.915   1.683 -0.6730 -0.7798 -0.4718
  713MOL0     C96135   1.852  10.892   1.735  0.6733 -0.0525  0.4890
  713MOL0     C96136   1.745  10.952   1.641 -1.1198 -0.6468 -0.3026
  713MOL0     N96137   1.732  10.878   1.514 -0.2284 -0.1532  1.1991
  713MOL0     C96138   1.675  10.756   1.507 -0.1112 -0.0350 -1.1819
  713MOL0     C96139   1.692  10.715   1.380 -0.3433  0.6711  0.7464
  713MOL0     C96140   1.647  10.586   1.301 -0.0574 -0.6171 -0.2257
  713MOL0     C96141   1.509  10.596   1.251 -0.2684  0.0079  0.3399
  713MOL0     C96142   1.488  10.678   1.127 -0.2600  0.7443  0.2058
  713MOL0     C96143   1.497  10.828   1.140 -0.1483  0.1735  0.9058
  713MOL0     O96144   1.397  10.869   1.233  0.1260 -0.5183 -0.4727
  713MOL0     C96145   1.287  10.933   1.196 -1.0846 -0.6068 -0.0167
  713MOL0     C96146   1.259  11.015   1.084  0.6968  0.4193  0.0842
  713MOL0     C96147   1.144  11.095   1.074 -0.1100 -0.1240 -0.1413
  713MOL0     C96148   1.143  11.209   0.972  0.0242  0.8801  0.5719
  713MOL0     C96149   1.035  11.075   1.172  0.6138  0.4819  0.2085
  713MOL0     C96150   0.912  11.143   1.172 -0.7472  0.1415  0.0058
  713MOL0     O96151   0.864  11.177   1.288 -0.9565 -0.0438 -0.2067
  713MOL0     C96152   0.729  11.185   1.289 -0.4616 -0.6848  0.6244
  713MOL0     C96153   0.666  11.089   1.361  0.4368 -0.5308  0.6150
  713MOL0     C96154   0.528  11.098   1.385 -1.0622 -0.0615  0.1171
  713MOL0     C96155   0.459  11.202   1.323  0.2125 -0.3702  0.1781
  713MOL0     O96156   0.322  11.218   1.342 -0.3660  0.2482 -0.3907
  713MOL0     C96157   0.239  11.313   1.266  0.9872  0.6793 -0.0228
  713MOL0     C96158   0.094  11.269   1.256 -0.1686  0.0556  0.3335
  713MOL0     C96159   0.017  11.297   1.387 -0.0733 -0.0894 -0.6694
  713MOL0     C96160  -0.108  11.212   1.389 -0.2819 -0.0315 -0.0561
  713MOL0     C96161  -0.176  11.241   1.519  0.0209  0.2360 -0.8162
  713MOL0     C96162  -0.305  11.163   1.527  0.3212 -0.4983  0.4461
  713MOL0     C96163  -0.388  11.206   1.657  0.6467 -0.0488  0.3358
  713MOL0     C96164  -0.523  11.135   1.672 -0.4058  0.3553  0.3777
  713MOL0    Cl96165  -0.523  10.955   1.684 -0.0989 -0.1580  0.1991
  713MOL0     C96166   0.521  11.298   1.244 -0.4639 -0.4262 -0.0974
  713MOL0     C96167   0.660  11.292   1.228  0.0911 -0.0105  0.4424
  713MOL0     O96168   0.851  11.153   1.061  0.4979 -0.3465 -0.4619
  713MOL0     C96169   1.058  10.984   1.267 -0.4077  0.3015 -1.0123
  713MOL0     C96170   1.180  10.918   1.289 -0.5418  0.7019 -0.0036
  713MOL0     N96171   1.770  10.812   1.318  0.0190  0.1754  0.7500
  713MOL0     N96172   1.784  10.911   1.392 -0.8583  0.9818  0.3937
  713MOL0     C96173   2.633  11.113   2.110 -0.5196  0.3022  0.7098
  713MOL0     C96174   2.743  11.163   2.184  0.0782 -0.7419 -0.3379
  713MOL0     C96175   3.083  11.116   2.512  0.0403 -0.3737  0.3713
  713MOL0     C96176   3.110  11.044   2.636 -0.1013  0.4173  0.1270
  713MOL0     C96177   3.223  11.075   2.714 -0.2664 -0.3507 -1.1464
  713MOL0     C96178   3.319  11.175   2.676  0.9137 -0.6607 -0.2121
  713MOL0     O96179   3.439  11.190   2.742  0.0533 -0.6051  0.6688
  713MOL0     C96180   3.448  11.138   2.878 -0.2567  0.2836  0.0020
  713MOL0     C96181   3.557  11.209   2.963 -0.0095 -0.5389 -0.1310
  713MOL0     C96182   3.583  11.131   3.092 -0.1812 -0.0380 -0.0934
  713MOL0     C96183   3.676  11.204   3.200  0.2499 -0.5195  0.0644
  713MOL0     C96184   3.801  11.133   3.195  0.6072  0.6910 -0.7500
  713MOL0     C96185   3.891  11.050   3.209  0.1101 -0.3290 -0.7384
  713MOL0     C96186   3.296  11.239   2.544 -0.7655 -0.6702 -0.3159
  713MOL0     C96187   3.178  11.212   2.467 -0.3395  0.4370 -0.5088
  713MOL0     H96188   2.935  10.879   2.213 -1.1365 -1.2787 -0.3879
  713MOL0     H96189   2.770  10.799   2.063  2.2790 -0.7450  1.9407
  713MOL0     H96190   2.685  10.836   1.835 -1.6032  0.3445 -4.8301
  713MOL0     H96191   2.566  10.736   1.935 -0.5535 -0.0963 -1.3126
  713MOL0     H96192   2.499  10.923   1.702  0.2672 -0.6022 -0.5202
  713MOL0     H96193   2.488  10.743   1.699 -1.1001 -0.3279 -0.0130
  713MOL0     H96194   2.319  10.756   1.849  1.2059  0.2566  0.8399
  713MOL0     H96195   2.338  10.922   1.892 -1.8448 -2.0114  0.8090
  713MOL0     H96196   2.229  11.003   1.697  2.1569  0.7343  2.5827
  713MOL0     H96197   2.255  10.851   1.603 -1.1479  3.7237 -1.9348
  713MOL0     H96198   2.093  10.738   1.758 -0.5449 -0.2389  2.6347
  713MOL0     H96199   2.104  10.876   1.867 -1.9055  0.7406 -0.1839
  713MOL0     H96200   2.009  11.023   1.684 -1.3976 -0.6345  1.0547
  713MOL0     H96201   1.992  10.893   1.576 -0.8594  1.5414 -1.0162
  713MOL0     H96202   1.825  10.790   1.762 -2.5973  0.8458  1.0533
  713MOL0     H96203   1.854  10.950   1.828  2.1277  0.7671 -0.0173
  713MOL0     H96204   1.769  11.055   1.613  0.5810 -0.2407  2.2947
  713MOL0     H96205   1.645  10.963   1.684 -0.5412  2.2566  0.5459
  713MOL0     H96206   1.630  10.701   1.589  1.9468 -0.8281 -0.5076
  713MOL0     H96207   1.706  10.570   1.210 -1.6555 -1.6208 -1.1332
  713MOL0     H96208   1.668  10.497   1.361 -0.2361 -1.5824 -1.5631
  713MOL0     H96209   1.441  10.629   1.329  0.2748  2.0635  0.0127
  713MOL0     H96210   1.472  10.496   1.229  0.2578  0.0260 -0.7108
  713MOL0     H96211   1.399  10.643   1.075  1.3540 -1.0053 -1.5051
  713MOL0     H96212   1.576  10.651   1.068 -0.1705 -0.5566  0.8951
  713MOL0     H96213   1.486  10.863   1.037  1.2630 -3.6732 -0.7534
  713MOL0     H96214   1.595  10.866   1.168  0.2656  1.0016 -1.4671
  713MOL0     H96215   1.337  11.024   1.010 -2.0702  4.2310 -2.7381
  713MOL0     H96216   1.085  11.294   1.010  0.2672  2.0630 -1.5501
  713MOL0     H96217   1.245  11.242   0.950 -0.2088  0.2987 -1.6307
  713MOL0     H96218   1.105  11.169   0.878  0.6472 -0.2636  0.7874
  713MOL0     H96219   0.727  11.007   1.397  0.4713 -0.2053  1.3217
  713MOL0     H96220   0.478  11.036   1.459  0.9520  2.6797  4.1977
  713MOL0     H96221   0.248  11.411   1.311  0.1314  1.0663 -0.6463
  713MOL0     H96222   0.279  11.319   1.164 -0.4567  2.8797 -0.5271
  713MOL0     H96223   0.038  11.327   1.182 -1.6305 -0.2668  1.1630
  713MOL0     H96224   0.093  11.162   1.237 -1.5412 -0.0288  0.8267
  713MOL0     H96225  -0.008  11.403   1.397 -0.8012 -0.1730 -1.5183
  713MOL0     H96226   0.087  11.268   1.466  0.6771  1.1317 -0.8466
  713MOL0     H96227  -0.173  11.229   1.303 -1.0720  0.8715  0.6950
  713MOL0     H96228  -0.084  11.106   1.393 -0.5164 -0.0440  2.0554
  713MOL0     H96229  -0.192  11.348   1.536  2.4850  0.7469 -1.3392
  713MOL0     H96230  -0.116  11.208   1.604 -1.7474  2.0612  1.3044
  713MOL0     H96231  -0.366  11.200   1.444  0.6110 -0.0182  0.4405
  713MOL0     H96232  -0.285  11.056   1.525 -1.8255 -0.9342  0.3281
  713MOL0     H96233  -0.411  11.311   1.674 -0.7509 -0.4114  0.8506
  713MOL0     H96234  -0.334  11.181   1.749  1.2696  0.0256 -0.0036
  713MOL0     H96235  -0.587  11.149   1.585 -1.3355 -0.3234  0.9479
  713MOL0     H96236  -0.580  11.180   1.754 -2.7918  0.0200 -1.0108
  713MOL0     H96237   0.478  11.393   1.213  1.1294  0.8752  1.4216
  713MOL0     H96238   0.713  11.366   1.169  0.8714 -2.9415 -2.8839
  713MOL0     H96239   0.996  10.962   1.353  0.0930  2.1658 -0.1417
  713MOL0     H96240   1.179  10.856   1.378  1.1612  2.6001  1.4430
  713MOL0     H96241   2.550  11.180   2.089  1.6772  3.8734  2.4091
  713MOL0     H96242   2.738  11.265   2.222  0.4942  0.5930 -3.5448
  713MOL0     H96243   3.054  10.955   2.664 -0.7591  0.5532 -0.7251
  713MOL0     H96244   3.240  11.019   2.805  2.9273 -1.0780 -2.0393
  713MOL0     H96245   3.347  11.145   2.919 -0.4614 -0.4576 -0.3613
  713MOL0     H96246   3.475  11.033   2.868  0.1187  0.5825 -3.0757
  713MOL0     H96247   3.527  11.310   2.993 -1.1282 -0.9854  0.2950
  713MOL0     H96248   3.653  11.229   2.914 -1.2547  1.4856 -1.9472
  713MOL0     H96249   3.621  11.036   3.054 -2.6691 -1.0914 -0.1147
  713MOL0     H96250   3.488  11.109   3.142 -0.4833 -1.3576 -1.1745
  713MOL0     H96251   3.644  11.197   3.304 -0.0314 -0.9539 -0.0534
  713MOL0     H96252   3.686  11.311   3.180 -0.9665 -0.0810  1.6206
  713MOL0     H96253   3.967  10.993   3.258  0.3595  2.2982  2.3608
  713MOL0     H96254   3.359  11.322   2.514 -0.5215 -0.0345  1.8086
  713MOL0     H96255   3.156  11.263   2.374  3.1617 -1.8536 -2.8646
  714MOL0     O96256   6.810   8.506   2.525  0.4289  0.2089 -0.1316
  714MOL0     C96257   6.901   8.583   2.488  0.7155  0.2980  0.1577
  714MOL0     O96258   6.931   8.610   2.363  0.3200 -0.4541  0.0122
  714MOL0     C96259   6.855   8.572   2.257  0.2664  0.7997 -0.0479
  714MOL0     C96260   6.887   8.456   2.190  0.3407 -0.6151 -0.5423
  714MOL0     C96261   6.821   8.417   2.083  0.7449 -0.1339 -0.1636
  714MOL0     C96262   6.714   8.496   2.029 -0.6629 -0.3675 -0.1216
  714MOL0     O96263   6.652   8.457   1.915 -0.3824 -0.5742 -0.3343
  714MOL0     C96264   6.546   8.533   1.855  0.7722 -0.0702 -0.3089
  714MOL0     C96265   6.557   8.495   1.712 -0.2968  0.7021 -0.6960
  714MOL0     C96266   6.434   8.536   1.638  0.1122  0.0727 -0.2840
  714MOL0     C96267   6.326   8.437   1.670  0.0643 -0.3532  0.2211
  714MOL0     C96268   6.202   8.470   1.591  1.2939  0.3084 -0.0727
  714MOL0     C96269   6.135   8.338   1.549 -0.3225  0.0398 -0.5610
  714MOL0     C96270   6.016   8.311   1.636 -0.6969  0.9358 -0.0613
  714MOL0     C96271   5.907   8.219   1.573  0.0454 -0.8132 -0.0338
  714MOL0     N96272   5.800   8.185   1.658  0.3613  0.7675 -0.2894
  714MOL0     C96273   5.788   8.156   1.794 -0.3306 -0.2356  0.0123
  714MOL0     C96274   5.662   8.109   1.806 -0.4613  0.0430  0.0969
  714MOL0     C96275   5.601   8.088   1.940  0.2931 -0.0651 -0.3085
  714MOL0     C96276   5.464   8.146   1.948 -0.1854 -1.1548  0.0322
  714MOL0     C96277   5.419   8.162   2.093 -0.0237  0.2864  0.5311
  714MOL0     C96278   5.279   8.229   2.102 -0.2464  0.0844  1.1938
  714MOL0     O96279   5.183   8.139   2.051 -0.0207 -0.0918 -0.2439
  714MOL0     C96280   5.055   8.177   2.051 -1.0621  0.1149 -0.1093
  714MOL0     C96281   5.013   8.294   2.103  1.1162 -0.5326  0.7780
  714MOL0     C96282   4.880   8.338   2.098  0.6475  0.1806  1.1824
  714MOL0     C96283   4.842   8.485   2.135 -0.0338  0.2371 -0.4772
  714MOL0     C96284   4.786   8.249   2.032  0.3998  0.1189  0.7029
  714MOL0     C96285   4.639   8.282   2.014  0.1198  0.0999 -0.6015
  714MOL0     O96286   4.569   8.182   1.941 -0.0923 -1.0757 -0.6292
  714MOL0     C96287   4.430   8.185   1.949  0.1587  0.0919  0.3067
  714MOL0     C96288   4.355   8.292   1.900 -0.2746 -0.3783  0.2432
  714MOL0     C96289   4.214   8.292   1.901 -0.1829 -0.1850  0.0786
  714MOL0     C96290   4.144   8.186   1.954 -0.7717 -0.0928  0.4809
  714MOL0     O96291   4.010   8.196   1.957  0.3080  0.6209 -0.1465
  714MOL0     C96292   3.930   8.080   1.967  0.4106 -0.0571 -0.0416
  714MOL0     C96293   3.782   8.117   1.947 -0.1279  0.4207 -0.6822
  714MOL0     C96294   3.688   7.992   1.972 -0.5230 -0.7014 -0.9164
  714MOL0     C96295   3.541   8.024   1.941  0.5843  1.0518 -0.3172
  714MOL0     C96296   3.438   7.931   2.013  0.4428 -0.1187 -0.0992
  714MOL0     C96297   3.311   8.010   2.027  0.4374  0.4424  0.2836
  714MOL0     C96298   3.219   7.956   2.140 -0.4008  1.0057 -0.1266
  714MOL0     C96299   3.073   8.003   2.129 -0.0728 -0.5747  0.1796
  714MOL0    Cl96300   3.003   7.948   1.968 -0.1106 -0.1370 -0.2368
  714MOL0     C96301   4.216   8.076   1.997 -0.1640  0.0066  0.4356
  714MOL0     C96302   4.358   8.067   1.993  0.0387 -0.6846 -0.3603
  714MOL0     O96303   4.584   8.378   2.070 -0.0637  0.2176  0.8824
  714MOL0     C96304   4.830   8.121   1.997 -1.0904  0.3138  0.3459
  714MOL0     C96305   4.967   8.094   2.001 -0.3473  0.2523 -0.3094
  714MOL0     N96306   5.597   8.090   1.686  0.3199  0.2624  0.3664
  714MOL0     N96307   5.683   8.130   1.593  0.5355 -0.2297 -0.5998
  714MOL0     C96308   6.698   8.620   2.092  0.3519 -0.6018 -0.0488
  714MOL0     C96309   6.760   8.658   2.212  0.4861 -0.5153  0.9193
  714MOL0     C96310   6.991   8.637   2.582 -0.2228 -0.9829 -0.0606
  714MOL0     C96311   7.064   8.548   2.657 -0.3028  0.3497 -0.7364
  714MOL0     C96312   7.166   8.582   2.746 -0.3055 -0.4241 -1.0986
  714MOL0     C96313   7.198   8.717   2.770  0.6004  0.5689  0.0906
  714MOL0     O96314   7.308   8.738   2.853  0.8215  0.2506  0.2174
  714MOL0     C96315   7.382   8.861   2.848  0.2873  0.3349 -0.7650
  714MOL0     C96316   7.455   8.895   2.978  0.6502 -0.0029 -0.1696
  714MOL0     C96317   7.359   8.953   3.084 -1.4831 -0.1422  0.6413
  714MOL0     C96318   7.306   9.095   3.071  0.0019  0.3462 -0.4609
  714MOL0     C96319   7.233   9.141   3.188 -0.3537 -0.2254  0.5140
  714MOL0     C96320   7.181   9.175   3.291  0.0331 -1.0875 -0.9957
  714MOL0     C96321   7.123   8.810   2.691  0.2823 -0.4585  0.4311
  714MOL0     C96322   7.020   8.775   2.605  0.2100 -0.2650  0.7376
  714MOL0     H96323   6.964   8.389   2.228  1.4696  1.1251  0.3490
  714MOL0     H96324   6.855   8.325   2.037 -0.5016 -1.3949  1.3243
  714MOL0     H96325   6.449   8.507   1.899  1.3620 -1.5411  0.1863
  714MOL0     H96326   6.547   8.642   1.861 -1.7072 -0.0675  1.8363
  714MOL0     H96327   6.642   8.555   1.678 -0.6514  0.5769 -1.8492
  714MOL0     H96328   6.579   8.390   1.694  2.6318  1.2920 -1.1336
  714MOL0     H96329   6.407   8.641   1.649 -2.4558 -0.1650 -2.9779
  714MOL0     H96330   6.462   8.521   1.533 -0.5788  2.0779 -0.7912
  714MOL0     H96331   6.360   8.337   1.639  0.1595  0.1018 -1.2126
  714MOL0     H96332   6.290   8.435   1.773 -3.2586  1.9989 -0.7440
  714MOL0     H96333   6.133   8.531   1.649  1.1688  0.5628 -0.4857
  714MOL0     H96334   6.222   8.536   1.506 -0.9359 -0.6490 -1.4266
  714MOL0     H96335   6.098   8.357   1.448 -3.5745  0.3936  0.5932
  714MOL0     H96336   6.204   8.253   1.551  0.0120  0.3166  0.8874
  714MOL0     H96337   6.053   8.264   1.728 -1.2116 -0.7363 -0.6763
  714MOL0     H96338   5.975   8.410   1.662  0.5015  1.0632  1.5337
  714MOL0     H96339   5.967   8.134   1.539  0.7129 -0.3568 -0.0247
  714MOL0     H96340   5.863   8.271   1.488 -0.6916  0.6738  1.2020
  714MOL0     H96341   5.864   8.186   1.865 -1.3083 -0.0468  1.0126
  714MOL0     H96342   5.604   7.983   1.972 -1.6305 -0.2677 -0.6836
  714MOL0     H96343   5.660   8.145   2.011  1.8049 -0.2801 -1.3458
  714MOL0     H96344   5.402   8.078   1.888  1.5053 -2.3839 -0.4267
  714MOL0     H96345   5.468   8.246   1.904 -0.5407 -1.6996 -1.2939
  714MOL0     H96346   5.491   8.215   2.157 -2.9007  3.5926  1.3232
  714MOL0     H96347   5.413   8.059   2.130 -0.9928 -0.8409 -2.4529
  714MOL0     H96348   5.286   8.321   2.042  1.3166 -1.6139 -1.4118
  714MOL0     H96349   5.267   8.251   2.209  0.8157 -0.7699  1.5046
  714MOL0     H96350   5.087   8.367   2.136 -1.0727  1.3164  1.8720
  714MOL0     H96351   4.803   8.483   2.237  2.1933 -0.1900  0.4428
  714MOL0     H96352   4.933   8.547   2.138 -1.0853  2.2033 -3.8436
  714MOL0     H96353   4.780   8.525   2.054 -1.3487 -1.6578 -0.4815
  714MOL0     H96354   4.420   8.368   1.856 -0.9349  0.3303  0.4704
  714MOL0     H96355   4.159   8.377   1.862 -1.9972 -1.4915 -0.3652
  714MOL0     H96356   3.950   8.011   1.885 -1.3246  0.0846 -0.6135
  714MOL0     H96357   3.943   8.029   2.064 -3.9291 -1.3971  0.0401
  714MOL0     H96358   3.753   8.199   2.013  1.5229 -0.2216  0.9307
  714MOL0     H96359   3.766   8.157   1.846 -0.8543  0.4847 -0.5440
  714MOL0     H96360   3.694   7.981   2.081 -4.8422 -0.4984 -0.4795
  714MOL0     H96361   3.726   7.898   1.933 -0.3711 -0.8970 -0.3097
  714MOL0     H96362   3.518   8.124   1.980 -0.9375  0.6994 -0.2333
  714MOL0     H96363   3.531   8.022   1.832  0.2161 -0.7472 -0.2814
  714MOL0     H96364   3.476   7.904   2.112  0.0799 -0.8050 -0.1376
  714MOL0     H96365   3.427   7.834   1.962  0.4095  0.1543 -0.6242
  714MOL0     H96366   3.327   8.116   2.046 -0.9707  0.7476 -0.0709
  714MOL0     H96367   3.257   8.011   1.931 -0.3916  1.0194  0.7410
  714MOL0     H96368   3.262   7.995   2.233  1.6475  2.1912 -1.4783
  714MOL0     H96369   3.222   7.847   2.142 -1.5040  0.9728  1.5241
  714MOL0     H96370   3.083   8.111   2.124  1.9737 -0.7677 -3.6367
  714MOL0     H96371   3.020   7.966   2.218  1.3145 -1.6862  0.5879
  714MOL0     H96372   4.162   7.989   2.031 -0.5740  0.8816  2.1392
  714MOL0     H96373   4.409   7.976   2.021 -0.7385 -0.9060  0.3875
  714MOL0     H96374   4.764   8.040   1.970 -1.3330  0.3682  0.7641
  714MOL0     H96375   5.012   8.001   1.969  0.8747  1.5396 -2.6084
  714MOL0     H96376   6.630   8.694   2.050  0.7948 -0.4101 -0.4366
  714MOL0     H96377   6.755   8.752   2.265  2.3178  0.9012 -1.2947
  714MOL0     H96378   7.055   8.440   2.658  0.6673  0.2514 -0.8756
  714MOL0     H96379   7.224   8.506   2.797 -2.1097 -0.7527  0.5391
  714MOL0     H96380   7.464   8.841   2.779  1.9370  0.9533  0.9038
  714MOL0     H96381   7.336   8.952   2.808  0.1981  0.2981 -0.7494
  714MOL0     H96382   7.532   8.964   2.940  1.9761 -1.0799  0.4777
  714MOL0     H96383   7.507   8.808   3.017 -0.6405 -1.0849 -0.7934
  714MOL0     H96384   7.417   8.956   3.177  0.0773 -1.8907 -0.2026
  714MOL0     H96385   7.281   8.878   3.094 -0.6355 -0.9633  1.2776
  714MOL0     H96386   7.248   9.102   2.978  1.0338  0.4534 -1.1057
  714MOL0     H96387   7.389   9.164   3.056  1.3245 -1.3528 -1.1714
  714MOL0     H96388   7.135   9.207   3.382  2.6086 -0.1348  0.0624
  714MOL0     H96389   7.145   8.916   2.700 -4.4692  0.8598 -0.4099
  714MOL0     H96390   6.971   8.858   2.556  1.9437  0.3681  0.0394
  715MOL0     O96391  11.134  10.894   6.461  0.0601  0.6358  0.1331
  715MOL0     C96392  11.131  10.990   6.534 -0.6751  0.4311  0.0236
  715MOL0     O96393  11.026  11.076   6.540  0.4884 -0.0259  0.1677
  715MOL0     C96394  10.906  11.048   6.472 -0.2147 -0.3910  0.2334
  715MOL0     C96395  10.903  11.040   6.330 -0.1760  0.1622 -0.2828
  715MOL0     C96396  10.780  11.052   6.261 -1.3492  0.6688  0.0993
  715MOL0     C96397  10.664  11.052   6.325  0.0643  0.6814 -0.4403
  715MOL0     O96398  10.548  11.041   6.253  0.1447 -0.2020 -0.1542
  715MOL0     C96399  10.429  11.015   6.319  0.0607 -0.0966  0.0554
  715MOL0     C96400  10.312  11.005   6.219 -0.1241  0.0918  0.4160
  715MOL0     C96401  10.188  10.949   6.286  0.2190 -0.0143 -0.1300
  715MOL0     C96402  10.067  10.973   6.193  0.5425 -0.0773 -0.3374
  715MOL0     C96403   9.940  10.971   6.281  0.3054  0.4617  0.1484
  715MOL0     C96404   9.902  10.840   6.352 -0.6703  0.6863 -0.6101
  715MOL0     C96405   9.803  10.854   6.466  0.1707  0.7180 -0.3978
  715MOL0     C96406   9.664  10.864   6.412  0.7566  0.2575 -0.5181
  715MOL0     N96407   9.575  10.880   6.532  0.2805 -0.0680  0.1010
  715MOL0     C96408   9.568  10.994   6.611  0.4145  0.8319 -0.5106
  715MOL0     C96409   9.487  10.953   6.719  0.4199  0.1425 -0.2515
  715MOL0     C96410   9.471  11.022   6.853  0.7815  0.1683  0.2258
  715MOL0     C96411   9.329  11.069   6.873 -1.0314 -0.2844 -0.6983
  715MOL0     C96412   9.324  11.176   6.990  0.1050 -0.2990  0.8177
  715MOL0     C96413   9.188  11.242   6.987  0.0308 -0.5323 -1.0829
  715MOL0     O96414   9.204  11.358   7.068 -0.8256  0.1862  0.1078
  715MOL0     C96415   9.089  11.424   7.091 -0.0364 -0.7221  0.2581
  715MOL0     C96416   9.102  11.558   7.139  0.1135  0.1671 -0.0591
  715MOL0     C96417   8.993  11.633   7.184  0.8180  0.4588  0.3027
  715MOL0     C96418   9.022  11.759   7.267  0.3120  0.2068 -0.5530
  715MOL0     C96419   8.858  11.585   7.159 -0.8422  0.0136  0.0989
  715MOL0     C96420   8.731  11.653   7.207 -0.6898  0.0412 -0.1727
  715MOL0     O96421   8.613  11.577   7.212 -0.1020  0.4387  0.1692
  715MOL0     C96422   8.489  11.630   7.233  0.3897 -0.2850 -0.5870
  715MOL0     C96423   8.382  11.567   7.185 -0.1515  0.7819 -1.1976
  715MOL0     C96424   8.255  11.616   7.196  0.7304 -0.6714 -0.0707
  715MOL0     C96425   8.234  11.732   7.270 -0.3442 -0.2784  0.7933
  715MOL0     O96426   8.106  11.782   7.279  0.5573 -0.4811 -0.4319
  715MOL0     C96427   7.997  11.682   7.283  0.6975 -0.5382 -0.0581
  715MOL0     C96428   7.882  11.740   7.372  0.9711  0.4082  0.0570
  715MOL0     C96429   7.742  11.673   7.339  0.2097 -0.5457 -0.3823
  715MOL0     C96430   7.634  11.728   7.428  0.1606  0.0388  0.0012
  715MOL0     C96431   7.496  11.657   7.397  0.2697  0.3345  0.6180
  715MOL0     C96432   7.375  11.722   7.475  0.1572  0.3364 -0.4363
  715MOL0     C96433   7.389  11.749   7.631 -0.1913 -0.1368  0.5604
  715MOL0     C96434   7.451  11.619   7.694 -0.0502  0.3082 -0.5370
  715MOL0    Cl96435   7.360  11.465   7.641  0.2026 -0.1177 -0.0132
  715MOL0     C96436   8.341  11.812   7.311  0.3678  0.5040 -0.8132
  715MOL0     C96437   8.470  11.747   7.305  0.0225  0.0747 -0.4445
  715MOL0     O96438   8.735  11.780   7.194  0.5495  0.6293 -0.0108
  715MOL0     C96439   8.849  11.457   7.110  0.4871  1.4558 -0.3964
  715MOL0     C96440   8.955  11.380   7.079  0.5593  0.5403  0.3981
  715MOL0     N96441   9.435  10.834   6.690  0.4254  0.4633 -0.7642
  715MOL0     N96442   9.493  10.782   6.586  0.4397  0.1032  0.6618
  715MOL0     C96443  10.665  11.075   6.466 -0.4341  0.5209  0.2823
  715MOL0     C96444  10.781  11.054   6.538 -0.9127 -0.2351 -0.6087
  715MOL0     C96445  11.245  11.034   6.620 -0.1891 -0.2342 -0.1430
  715MOL0     C96446  11.247  11.154   6.691 -0.2454  1.1435 -0.6476
  715MOL0     C96447  11.356  11.209   6.757  0.1375  0.3222  0.2188
  715MOL0     C96448  11.475  11.137   6.761 -0.2729  0.3059  0.2298
  715MOL0     O96449  11.585  11.194   6.819 -0.0344  0.5626 -0.1169
  715MOL0     C96450  11.713  11.132   6.792  0.3056  0.3520  0.2116
  715MOL0     C96451  11.830  11.206   6.850 -0.4131  0.1761 -0.3855
  715MOL0     C96452  11.811  11.355   6.824  0.2630 -0.4651 -0.0593
  715MOL0     C96453  11.920  11.446   6.881  0.6454  0.0446  0.4706
  715MOL0     C96454  11.923  11.444   7.023  0.1142  0.0738 -0.4784
  715MOL0     C96455  11.918  11.436   7.147 -0.4851 -0.4549  0.7666
  715MOL0     C96456  11.478  11.011   6.691 -0.9814  0.2376  0.5500
  715MOL0     C96457  11.370  10.961   6.617 -0.1072 -1.0352 -0.4685
  715MOL0     H96458  10.995  11.036   6.272  0.2495  3.6656 -0.0153
  715MOL0     H96459  10.784  11.034   6.154 -0.7458  0.8314  0.0950
  715MOL0     H96460  10.436  10.920   6.374  1.1811 -0.0121  0.0870
  715MOL0     H96461  10.410  11.094   6.392 -2.4286 -0.4479 -0.1461
  715MOL0     H96462  10.290  11.101   6.171  4.1950 -0.1760 -2.6550
  715MOL0     H96463  10.327  10.936   6.136  1.2277 -0.3893  1.0360
  715MOL0     H96464  10.204  10.842   6.303 -1.1683 -0.0396  1.2290
  715MOL0     H96465  10.176  11.001   6.381 -1.9823  0.3084 -0.5314
  715MOL0     H96466  10.077  11.073   6.148  0.1096  1.1593  2.1523
  715MOL0     H96467  10.063  10.896   6.115  3.5311  0.0424 -0.7246
  715MOL0     H96468   9.944  11.041   6.365 -0.2115 -0.9549  1.4089
  715MOL0     H96469   9.854  11.000   6.220 -0.2173  1.0580  1.1366
  715MOL0     H96470   9.870  10.757   6.289 -2.2789 -0.9499  2.1556
  715MOL0     H96471   9.990  10.801   6.403 -0.8872  2.7404  1.5089
  715MOL0     H96472   9.803  10.756   6.513  3.5780  1.2248  1.0229
  715MOL0     H96473   9.838  10.935   6.531 -0.8176  1.2720 -0.5363
  715MOL0     H96474   9.630  10.773   6.363 -1.5685 -0.7764  2.7198
  715MOL0     H96475   9.649  10.949   6.345  1.7050  1.0164  0.1936
  715MOL0     H96476   9.632  11.082   6.608  0.4424  0.8172 -0.3744
  715MOL0     H96477   9.498  10.965   6.942 -0.3840  1.5548  1.5383
  715MOL0     H96478   9.537  11.109   6.857  0.5856  0.2908  3.7516
  715MOL0     H96479   9.259  10.993   6.909 -0.3752 -0.2342  0.7422
  715MOL0     H96480   9.298  11.112   6.777 -0.0789 -1.6173 -1.6308
  715MOL0     H96481   9.388  11.260   6.963 -1.2252 -0.1037 -2.1299
  715MOL0     H96482   9.351  11.126   7.084  0.0169 -1.3476  0.2976
  715MOL0     H96483   9.127  11.172   7.046  2.1100  0.1158  2.0929
  715MOL0     H96484   9.139  11.258   6.891 -1.5391 -3.4628 -0.8783
  715MOL0     H96485   9.201  11.600   7.147 -0.3893  1.8298 -1.8784
  715MOL0     H96486   8.985  11.844   7.209 -2.3648  0.8003  1.7664
  715MOL0     H96487   8.974  11.755   7.365 -1.1356  0.6025 -1.2201
  715MOL0     H96488   9.130  11.756   7.282  0.1468 -2.5560  0.8787
  715MOL0     H96489   8.395  11.475   7.129 -1.2143  1.6896 -3.0258
  715MOL0     H96490   8.180  11.551   7.152 -0.0776 -0.4361  0.9206
  715MOL0     H96491   7.966  11.648   7.184  1.9053  0.3024 -0.7403
  715MOL0     H96492   8.027  11.592   7.338  2.6246 -0.9729 -1.7347
  715MOL0     H96493   7.895  11.719   7.479 -3.9248  3.5099  1.6101
  715MOL0     H96494   7.871  11.849   7.375  1.4973  0.4438  1.5833
  715MOL0     H96495   7.743  11.564   7.340 -2.1397 -0.6366 -1.1840
  715MOL0     H96496   7.713  11.694   7.235  0.3197 -0.8409 -0.4732
  715MOL0     H96497   7.658  11.718   7.534 -1.1014 -1.7447  0.1770
  715MOL0     H96498   7.623  11.834   7.402 -3.1794 -0.2754 -0.3893
  715MOL0     H96499   7.501  11.552   7.427  3.1158  0.3209  0.3141
  715MOL0     H96500   7.475  11.652   7.289 -2.7394 -3.7450  1.1565
  715MOL0     H96501   7.344  11.811   7.420 -0.9358 -0.6256 -1.4430
  715MOL0     H96502   7.293  11.650   7.460 -1.4918  2.3854 -1.8386
  715MOL0     H96503   7.292  11.760   7.680 -0.8733 -4.5261  0.6352
  715MOL0     H96504   7.456  11.835   7.639  1.2154 -0.8911 -1.9502
  715MOL0     H96505   7.438  11.630   7.802 -0.9327 -2.0457 -0.3422
  715MOL0     H96506   7.560  11.615   7.695 -0.0507 -1.4553  1.9363
  715MOL0     H96507   8.330  11.908   7.359  0.2508 -0.2919  0.8326
  715MOL0     H96508   8.551  11.805   7.347 -0.9120  1.9807 -1.1242
  715MOL0     H96509   8.751  11.414   7.091  0.2104  1.7537  0.3229
  715MOL0     H96510   8.941  11.282   7.035 -1.0498  0.7625  0.3797
  715MOL0     H96511  10.574  11.092   6.523 -1.1452  1.0380 -0.9848
  715MOL0     H96512  10.771  11.051   6.646 -0.1119 -2.2498 -0.5415
  715MOL0     H96513  11.160  11.219   6.698 -1.5103 -0.6593  2.8928
  715MOL0     H96514  11.344  11.301   6.815  1.8407  0.1654  0.8620
  715MOL0     H96515  11.721  11.037   6.844 -1.7039  0.8643  1.5840
  715MOL0     H96516  11.736  11.122   6.685 -3.8889 -1.0243 -0.7726
  715MOL0     H96517  11.928  11.175   6.813 -0.0238  2.2640 -1.2142
  715MOL0     H96518  11.831  11.201   6.959  0.7560 -0.3226 -0.4084
  715MOL0     H96519  11.717  11.390   6.868  0.0220 -1.1005 -0.0502
  715MOL0     H96520  11.809  11.375   6.717 -0.9708 -1.3957 -0.2331
  715MOL0     H96521  11.903  11.549   6.849 -0.0048  0.1269  1.0400
  715MOL0     H96522  12.008  11.406   6.831  0.8863 -4.7222  3.9428
  715MOL0     H96523  11.940  11.441   7.252  1.6359 -0.1009  0.3585
  715MOL0     H96524  11.568  10.951   6.684  0.2318  1.6148  2.9995
  715MOL0     H96525  11.373  10.869   6.559 -1.5085 -0.7611 -1.0141
  716MOL0     O96526  11.309   7.723   4.064  0.9177  0.2537  0.3405
  716MOL0     C96527  11.312   7.605   4.079  0.3955 -0.5231 -0.5624
  716MOL0     O96528  11.210   7.529   4.147 -0.3117 -0.3526 -0.2938
  716MOL0     C96529  11.144   7.585   4.249  0.1895 -1.1605 -0.5873
  716MOL0     C96530  11.188   7.681   4.343  0.4427  0.2583  0.0357
  716MOL0     C96531  11.096   7.732   4.438  0.1401 -0.5266  0.3747
  716MOL0     C96532  10.963   7.685   4.451  0.5964 -0.0913 -0.0585
  716MOL0     O96533  10.873   7.735   4.536 -1.0384 -1.1451  0.0173
  716MOL0     C96534  10.845   7.656   4.653 -0.4268 -0.1231  0.9559
  716MOL0     C96535  10.738   7.722   4.737 -0.1032 -0.6677 -0.1461
  716MOL0     C96536  10.599   7.662   4.709 -0.3588  0.5867  0.3020
  716MOL0     C96537  10.506   7.707   4.818 -0.3523  0.1579  0.4457
  716MOL0     C96538  10.355   7.693   4.778 -0.7729  0.2007  0.4332
  716MOL0     C96539  10.263   7.754   4.891  0.1631  0.2087  0.4442
  716MOL0     C96540  10.113   7.744   4.864 -0.4468 -0.0674  0.0746
  716MOL0     C96541  10.087   7.591   4.855  0.4702 -0.2617  0.1808
  716MOL0     N96542   9.954   7.555   4.901 -0.3534 -1.0700  0.0367
  716MOL0     C96543   9.837   7.568   4.831  0.2141  0.3314 -0.5932
  716MOL0     C96544   9.746   7.489   4.898 -0.3729 -0.2406  0.3280
  716MOL0     C96545   9.600   7.487   4.866  0.0667 -0.0364 -0.4103
  716MOL0     C96546   9.566   7.432   4.727  0.5866 -1.1760 -0.0812
  716MOL0     C96547   9.416   7.407   4.715  0.0853 -1.1043  0.1763
  716MOL0     C96548   9.331   7.531   4.747  0.7988 -0.1022  0.9285
  716MOL0     O96549   9.206   7.500   4.701 -0.0805 -0.6541 -0.2189
  716MOL0     C96550   9.120   7.425   4.773  0.0428  0.8819  0.4137
  716MOL0     C96551   9.120   7.383   4.906 -0.0450  0.3603  0.4512
  716MOL0     C96552   9.012   7.331   4.982 -0.5920  0.1316 -0.9142
  716MOL0     C96553   9.037   7.309   5.131  0.6829 -0.2934  0.4459
  716MOL0     C96554   8.891   7.304   4.920  0.0602  0.6173  1.1253
  716MOL0     C96555   8.775   7.240   4.975 -0.2998 -0.3363 -0.7431
  716MOL0     O96556   8.649   7.262   4.911  0.4868  0.0765 -0.2295
  716MOL0     C96557   8.540   7.202   4.976 -0.4560 -0.0953  0.4476
  716MOL0     C96558   8.506   7.229   5.112 -0.6298  0.0584 -0.1642
  716MOL0     C96559   8.382   7.178   5.170 -0.6275  0.3562 -0.3050
  716MOL0     C96560   8.289   7.120   5.084  0.1513 -0.9488 -0.9450
  716MOL0     O96561   8.164   7.069   5.123 -0.2787 -0.2249 -0.7215
  716MOL0     C96562   8.123   7.097   5.254  0.4146 -0.4400 -0.1455
  716MOL0     C96563   7.981   7.057   5.283  0.0335  0.0303 -0.9059
  716MOL0     C96564   7.886   7.134   5.204 -0.3628  0.4330  0.3394
  716MOL0     C96565   7.741   7.078   5.228  0.3055  0.3920 -1.2042
  716MOL0     C96566   7.641   7.161   5.144 -0.2815  0.4263  0.1443
  716MOL0     C96567   7.512   7.087   5.116  0.6971 -0.3933 -0.0578
  716MOL0     C96568   7.538   6.959   5.022  0.2335 -0.6220 -0.5072
  716MOL0     C96569   7.526   6.838   5.118 -0.5345  0.4621 -0.0757
  716MOL0    Cl96570   7.531   6.697   4.991  0.1115 -0.2428  0.3296
  716MOL0     C96571   8.317   7.109   4.942  0.6222 -0.2279 -1.6891
  716MOL0     C96572   8.440   7.150   4.895 -0.2845 -0.0847  0.3202
  716MOL0     O96573   8.800   7.174   5.077  0.3287  0.2184 -0.4475
  716MOL0     C96574   8.891   7.328   4.781 -0.0019  0.2010  0.0381
  716MOL0     C96575   9.003   7.386   4.714  0.2899  0.4604 -0.8769
  716MOL0     N96576   9.818   7.422   4.996  0.1222  0.5352  0.3372
  716MOL0     N96577   9.931   7.463   4.997 -0.5864 -0.1961 -1.0660
  716MOL0     C96578  10.931   7.577   4.367  0.7185  0.2696 -0.4969
  716MOL0     C96579  11.018   7.529   4.269  1.1223 -0.4510 -0.2339
  716MOL0     C96580  11.415   7.521   4.010 -1.4135 -0.9737  0.5040
  716MOL0     C96581  11.524   7.590   3.947 -0.5429 -0.7229  0.6070
  716MOL0     C96582  11.622   7.519   3.883  0.2348  0.0027  0.8220
  716MOL0     C96583  11.616   7.384   3.873 -0.1263  0.1747 -0.2626
  716MOL0     O96584  11.724   7.319   3.817 -0.2447  0.8005  0.3196
  716MOL0     C96585  11.715   7.174   3.772  0.0268  0.2998 -0.0483
  716MOL0     C96586  11.848   7.113   3.747  0.3120  0.0881 -0.4089
  716MOL0     C96587  11.916   7.183   3.628  0.2527 -0.2518 -0.3439
  716MOL0     C96588  12.058   7.129   3.588  0.5057  0.0290  0.4221
  716MOL0     C96589  12.125   7.224   3.493  0.6309  0.8540 -0.7902
  716MOL0     C96590  12.180   7.284   3.404 -0.3224 -0.2638  0.0431
  716MOL0     C96591  11.514   7.316   3.944 -0.1226 -0.8828  0.2401
  716MOL0     C96592  11.411   7.380   4.005  0.2892 -0.5185 -0.4298
  716MOL0     H96593  11.286   7.724   4.325  0.8788 -0.3162  0.9207
  716MOL0     H96594  11.123   7.823   4.490 -0.4166 -0.7909  1.1355
  716MOL0     H96595  10.817   7.555   4.626  2.4145 -1.7040  3.2727
  716MOL0     H96596  10.937   7.648   4.712  0.1430  1.4743  0.3514
  716MOL0     H96597  10.770   7.711   4.841  0.4126 -0.4860 -0.2796
  716MOL0     H96598  10.728   7.830   4.722 -0.1003 -0.3213  2.0756
  716MOL0     H96599  10.565   7.708   4.616 -1.3886  1.7703  1.2305
  716MOL0     H96600  10.608   7.554   4.698  0.8980  0.9106 -2.6727
  716MOL0     H96601  10.527   7.652   4.909 -5.0169  0.1072  1.7210
  716MOL0     H96602  10.516   7.813   4.843  1.5648 -0.0188  0.5686
  716MOL0     H96603  10.331   7.743   4.683  1.4519 -0.8712 -0.7803
  716MOL0     H96604  10.340   7.585   4.768  0.6776  0.0273 -0.2045
  716MOL0     H96605  10.286   7.694   4.979  0.2415 -1.0595 -0.4239
  716MOL0     H96606  10.287   7.853   4.932 -0.4670 -0.3369  2.2371
  716MOL0     H96607  10.061   7.784   4.952 -1.5377 -0.9330 -0.1575
  716MOL0     H96608  10.084   7.805   4.778  1.1146  0.5405 -0.0501
  716MOL0     H96609  10.153   7.534   4.921 -1.8997 -0.8754  2.1726
  716MOL0     H96610  10.104   7.546   4.757 -0.8987 -4.7838  1.7746
  716MOL0     H96611   9.820   7.629   4.742 -0.6620 -1.4099 -1.6569
  716MOL0     H96612   9.550   7.429   4.945  0.3978  2.8372  2.1123
  716MOL0     H96613   9.561   7.587   4.891  0.7054 -0.2240  1.5514
  716MOL0     H96614   9.630   7.344   4.711  0.7182 -0.7294 -2.1856
  716MOL0     H96615   9.595   7.499   4.646 -2.0756  0.0701 -0.0983
  716MOL0     H96616   9.380   7.325   4.778 -0.3795 -0.9740  0.0822
  716MOL0     H96617   9.396   7.367   4.615  3.3584  0.0413 -1.0464
  716MOL0     H96618   9.371   7.612   4.686  0.6252 -1.1513 -0.6431
  716MOL0     H96619   9.334   7.571   4.849 -0.6942  0.7840  0.6411
  716MOL0     H96620   9.212   7.392   4.961 -0.5629 -2.8508  2.0963
  716MOL0     H96621   8.949   7.346   5.184  0.8225  0.9617 -0.1658
  716MOL0     H96622   9.039   7.202   5.153 -3.8040 -0.5743  0.3125
  716MOL0     H96623   9.123   7.372   5.155  0.2052 -0.2368  2.1792
  716MOL0     H96624   8.571   7.283   5.180  0.2113  0.1954 -1.0495
  716MOL0     H96625   8.360   7.185   5.276 -2.2736 -1.2620 -0.4931
  716MOL0     H96626   8.190   7.040   5.319 -0.5665  0.7453  1.9877
  716MOL0     H96627   8.139   7.201   5.282 -0.8941 -0.0213 -0.8862
  716MOL0     H96628   7.979   6.949   5.264  1.6532 -0.0664 -0.6738
  716MOL0     H96629   7.963   7.066   5.390  1.6490 -1.5910 -0.4456
  716MOL0     H96630   7.915   7.130   5.098  0.1361 -0.7515  0.5037
  716MOL0     H96631   7.886   7.240   5.229 -0.3221  1.9721 -4.9546
  716MOL0     H96632   7.751   6.974   5.196  0.1211 -0.1677  0.4649
  716MOL0     H96633   7.709   7.088   5.332 -2.3763 -1.5580 -1.7485
  716MOL0     H96634   7.690   7.197   5.053  0.6119  1.8741  1.1629
  716MOL0     H96635   7.617   7.257   5.190  0.6519 -0.3061  2.2920
  716MOL0     H96636   7.459   7.059   5.207  0.6196 -0.2793 -0.0672
  716MOL0     H96637   7.441   7.154   5.065  1.6765 -0.3740 -1.4594
  716MOL0     H96638   7.637   6.967   4.976  0.7903  0.1041  0.7867
  716MOL0     H96639   7.461   6.953   4.944  0.3664  0.6092 -0.7533
  716MOL0     H96640   7.436   6.841   5.180  0.0724  0.9623  0.7880
  716MOL0     H96641   7.618   6.819   5.173 -1.1444 -0.7117  0.5764
  716MOL0     H96642   8.249   7.042   4.891  0.2441 -0.3197 -1.0750
  716MOL0     H96643   8.463   7.139   4.789 -1.2884 -2.6668  0.2838
  716MOL0     H96644   8.799   7.319   4.724 -1.5650  0.5417  2.3892
  716MOL0     H96645   8.988   7.409   4.609  0.6839 -4.6993 -2.3144
  716MOL0     H96646  10.828   7.543   4.371  0.4981  0.9989  1.3379
  716MOL0     H96647  10.969   7.455   4.207 -1.4331 -0.3606  1.4860
  716MOL0     H96648  11.527   7.698   3.954  2.7938 -0.5980 -0.9113
  716MOL0     H96649  11.716   7.564   3.851  1.4455 -0.6902  3.1733
  716MOL0     H96650  11.673   7.114   3.854 -0.8123  0.4822 -0.3308
  716MOL0     H96651  11.644   7.156   3.691 -0.3387 -2.0876  0.7049
  716MOL0     H96652  11.840   7.009   3.715  0.8138  0.0368 -0.3683
  716MOL0     H96653  11.915   7.124   3.833 -0.1492  2.0512 -0.2549
  716MOL0     H96654  11.927   7.289   3.653 -0.0426  0.1986 -1.9828
  716MOL0     H96655  11.848   7.170   3.543 -2.6241  0.1784  1.7516
  716MOL0     H96656  12.046   7.029   3.546  1.9402 -0.0988  0.2658
  716MOL0     H96657  12.115   7.110   3.679 -1.8028 -2.1821  1.5312
  716MOL0     H96658  12.238   7.331   3.326 -0.4861 -0.6169 -0.2924
  716MOL0     H96659  11.528   7.210   3.962  1.5853 -0.4058  2.0761
  716MOL0     H96660  11.352   7.333   4.083  2.0793  0.0565  1.3754
  717MOL0     O96661  10.384   1.136   4.538  0.3373  0.3957 -0.4105
  717MOL0     C96662  10.433   1.087   4.640 -0.5912  0.1951  0.2729
  717MOL0     O96663  10.359   1.026   4.739 -0.6677  0.8283  0.2776
  717MOL0     C96664  10.219   1.015   4.729 -1.0392 -0.1502 -0.0428
  717MOL0     C96665  10.146   0.974   4.621 -0.9819  1.1348 -0.7702
  717MOL0     C96666  10.008   0.967   4.634 -0.0291 -0.0809 -0.2855
  717MOL0     C96667   9.941   1.013   4.745  0.1185  0.6556 -0.8428
  717MOL0     O96668   9.808   1.030   4.733  0.0680  0.5853  0.4596
  717MOL0     C96669   9.728   1.064   4.848  0.0822  0.4978  0.3745
  717MOL0     C96670   9.577   1.050   4.821  0.2694 -0.5957  0.4669
  717MOL0     C96671   9.498   1.025   4.947 -0.9937 -0.8907 -0.4068
  717MOL0     C96672   9.346   1.049   4.939  1.2140  0.3819 -0.0872
  717MOL0     C96673   9.300   1.197   4.943  0.3774 -0.7713 -0.2687
  717MOL0     C96674   9.155   1.194   4.893  0.1754  0.4509  0.1509
  717MOL0     C96675   9.085   1.334   4.866 -0.3889  0.0542 -0.6747
  717MOL0     C96676   8.928   1.302   4.860  0.0448 -0.2176 -0.0807
  717MOL0     N96677   8.840   1.412   4.830 -0.1997  0.2530  0.0082
  717MOL0     C96678   8.858   1.480   4.712  0.3127 -0.6959 -0.6414
  717MOL0     C96679   8.746   1.563   4.696  0.1495  0.2795 -0.0277
  717MOL0     C96680   8.720   1.647   4.575 -0.9043 -0.4621 -0.3250
  717MOL0     C96681   8.661   1.777   4.606  0.2323 -1.2718  0.1972
  717MOL0     C96682   8.586   1.826   4.481  0.6297  0.4739  1.4512
  717MOL0     C96683   8.544   1.970   4.483  0.6236  0.7602  0.2000
  717MOL0     O96684   8.412   1.966   4.425  0.6843 -0.2535  0.1531
  717MOL0     C96685   8.317   2.057   4.467 -0.3176 -0.3128 -1.2438
  717MOL0     C96686   8.359   2.190   4.497 -0.1124  0.3538 -0.7439
  717MOL0     C96687   8.273   2.284   4.544 -0.0328 -0.7069  0.8630
  717MOL0     C96688   8.331   2.427   4.580 -0.1731 -0.1665 -1.0159
  717MOL0     C96689   8.136   2.241   4.572 -0.0800 -0.2513  0.3934
  717MOL0     C96690   8.024   2.319   4.643 -0.8156  0.5415 -0.4218
  717MOL0     O96691   7.927   2.248   4.714 -0.4714 -0.5118  0.1463
  717MOL0     C96692   7.819   2.315   4.769  0.7810  0.2946 -0.7088
  717MOL0     C96693   7.829   2.394   4.889  0.6174  0.3182  0.1658
  717MOL0     C96694   7.722   2.464   4.943  0.2408  0.5247 -0.4553
  717MOL0     C96695   7.600   2.447   4.882  0.5779 -0.3185  0.9134
  717MOL0     O96696   7.498   2.536   4.916  0.6012 -1.5544 -0.0553
  717MOL0     C96697   7.370   2.476   4.923 -1.2646 -0.7184  0.2701
  717MOL0     C96698   7.291   2.554   5.034  0.0144  0.9344  0.3602
  717MOL0     C96699   7.146   2.523   5.020  0.1708 -0.7622  0.7896
  717MOL0     C96700   7.081   2.551   5.152 -0.0928  0.0154  0.9812
  717MOL0     C96701   6.941   2.490   5.164 -0.2721 -0.5732 -1.2359
  717MOL0     C96702   6.836   2.590   5.117 -0.5616 -0.2991  1.2065
  717MOL0     C96703   6.689   2.547   5.136  0.5790 -0.5323  0.0905
  717MOL0     C96704   6.593   2.600   5.021  0.1880  0.5254 -0.0643
  717MOL0    Cl96705   6.427   2.538   5.063  0.1464 -0.2277  0.0580
  717MOL0     C96706   7.585   2.365   4.766 -0.0180 -0.2158  0.1266
  717MOL0     C96707   7.699   2.302   4.705  1.0615  0.4665 -1.0430
  717MOL0     O96708   8.026   2.439   4.642  1.0030 -0.5361 -0.0813
  717MOL0     C96709   8.098   2.106   4.545 -1.3942  0.2627 -0.0875
  717MOL0     C96710   8.188   2.014   4.495 -1.0229 -0.0075 -0.1441
  717MOL0     N96711   8.661   1.535   4.808 -0.3309 -0.2651  0.2666
  717MOL0     N96712   8.720   1.446   4.889 -0.3241 -0.3296 -0.3224
  717MOL0     C96713  10.022   1.048   4.853  0.8367  0.3824  0.5484
  717MOL0     C96714  10.158   1.046   4.840  0.2317 -0.7238  0.5757
  717MOL0     C96715  10.576   1.070   4.646  0.3728  1.0711  0.1411
  717MOL0     C96716  10.655   1.107   4.537 -0.6717  0.2774  0.0897
  717MOL0     C96717  10.797   1.107   4.532  0.9801  0.0449  0.7067
  717MOL0     C96718  10.856   1.058   4.650  0.0446  0.4488  1.2125
  717MOL0     O96719  10.995   1.043   4.661 -0.5203  0.8601 -0.4166
  717MOL0     C96720  11.070   0.986   4.549  0.2033  0.4067  0.2499
  717MOL0     C96721  11.192   1.079   4.503  0.1379 -0.3152 -0.2841
  717MOL0     C96722  11.142   1.168   4.394  0.4643  0.1023 -0.4518
  717MOL0     C96723  11.258   1.256   4.342 -1.3407  0.0935 -0.2603
  717MOL0     C96724  11.346   1.184   4.250 -0.7402  0.5405  0.1443
  717MOL0     C96725  11.424   1.104   4.197  0.3172 -1.1391  0.1739
  717MOL0     C96726  10.780   1.016   4.758  0.3589  0.5514 -0.5941
  717MOL0     C96727  10.643   1.020   4.757 -0.1040  1.0079  0.1543
  717MOL0     H96728  10.196   0.953   4.526 -1.4074 -3.7011 -0.2090
  717MOL0     H96729   9.944   0.948   4.550 -3.2774  2.2751  1.4210
  717MOL0     H96730   9.761   0.992   4.923  1.5366  2.3964  1.6587
  717MOL0     H96731   9.758   1.159   4.894  2.2564 -0.2312  0.5677
  717MOL0     H96732   9.549   1.147   4.778  0.2572  0.1318  2.0742
  717MOL0     H96733   9.560   0.975   4.743 -3.8303 -1.2190  1.7509
  717MOL0     H96734   9.508   0.918   4.970  1.0157 -0.6892 -0.1833
  717MOL0     H96735   9.532   1.094   5.025  1.9395 -2.1200 -0.4666
  717MOL0     H96736   9.319   1.004   4.843 -1.8990 -1.8343  1.6454
  717MOL0     H96737   9.295   0.998   5.022  1.2263 -0.1370 -0.3907
  717MOL0     H96738   9.318   1.228   5.046  2.8646 -3.3685  0.2189
  717MOL0     H96739   9.362   1.252   4.872 -3.1558  1.8862 -1.6215
  717MOL0     H96740   9.150   1.145   4.795  3.0855 -0.0749  0.1698
  717MOL0     H96741   9.098   1.144   4.972 -0.8578  1.7117  0.2351
  717MOL0     H96742   9.100   1.394   4.956 -2.3003 -2.0207  1.1418
  717MOL0     H96743   9.128   1.376   4.775 -3.1566  0.1647 -2.0370
  717MOL0     H96744   8.894   1.246   4.948  1.6421 -3.3649 -1.3014
  717MOL0     H96745   8.915   1.228   4.780  0.7582 -0.5624  0.1112
  717MOL0     H96746   8.938   1.473   4.638  0.3110 -0.9198 -0.6231
  717MOL0     H96747   8.817   1.672   4.531 -0.5614  0.6347  0.9713
  717MOL0     H96748   8.664   1.587   4.502 -0.2586 -0.9127 -0.4606
  717MOL0     H96749   8.727   1.858   4.639  1.6892 -2.2717 -0.1816
  717MOL0     H96750   8.587   1.761   4.684  0.4259 -1.1592  0.4043
  717MOL0     H96751   8.496   1.766   4.463  1.1626  0.4481 -1.4805
  717MOL0     H96752   8.649   1.803   4.396 -1.2501  1.5183 -0.3152
  717MOL0     H96753   8.616   2.034   4.432 -1.6018  1.6365 -2.0578
  717MOL0     H96754   8.532   2.008   4.585 -1.2356  0.7594  0.0205
  717MOL0     H96755   8.460   2.226   4.477  0.7250 -1.7921 -0.6706
  717MOL0     H96756   8.407   2.458   4.508 -0.1260 -2.4912 -2.0537
  717MOL0     H96757   8.252   2.502   4.590  0.4608  0.2044  4.8693
  717MOL0     H96758   8.380   2.427   4.678  3.3457 -1.4837 -2.6125
  717MOL0     H96759   7.926   2.414   4.934  1.6644 -0.8294 -1.4363
  717MOL0     H96760   7.736   2.533   5.025  0.2265  0.9125 -0.7755
  717MOL0     H96761   7.318   2.481   4.826 -2.7510 -0.4299  1.0518
  717MOL0     H96762   7.377   2.369   4.947 -0.8822 -0.6262  0.5700
  717MOL0     H96763   7.324   2.505   5.126  0.2577  1.4377  0.5441
  717MOL0     H96764   7.313   2.661   5.031  2.4679  0.5225  1.2794
  717MOL0     H96765   7.144   2.418   4.988  1.0171 -0.4680 -0.2942
  717MOL0     H96766   7.096   2.579   4.940  1.2311 -0.1069  0.5781
  717MOL0     H96767   7.140   2.500   5.228  0.6044 -2.5735 -1.1131
  717MOL0     H96768   7.071   2.659   5.164  0.2432  0.1359  0.2480
  717MOL0     H96769   6.917   2.478   5.270 -0.6240 -0.8011 -1.3417
  717MOL0     H96770   6.927   2.401   5.102 -0.4422  0.0534 -2.1186
  717MOL0     H96771   6.860   2.686   5.164  0.6241 -0.3025  0.6472
  717MOL0     H96772   6.856   2.601   5.010 -0.5863 -1.5984  1.0472
  717MOL0     H96773   6.661   2.594   5.230 -1.6608  2.6636 -1.9794
  717MOL0     H96774   6.671   2.439   5.137 -0.9077 -0.3497 -1.7133
  717MOL0     H96775   6.615   2.570   4.918 -3.0337  0.9329 -0.9799
  717MOL0     H96776   6.575   2.708   5.014 -0.1136  0.4288 -0.9118
  717MOL0     H96777   7.493   2.360   4.709 -1.0245  2.3367  1.3898
  717MOL0     H96778   7.689   2.236   4.620 -1.2641 -0.1805 -0.3250
  717MOL0     H96779   7.996   2.076   4.565 -1.9410  2.2862  0.4726
  717MOL0     H96780   8.157   1.911   4.476 -2.2120  0.3248 -0.0977
  717MOL0     H96781   9.989   1.100   4.942  1.5002 -0.0181  1.0366
  717MOL0     H96782  10.204   1.082   4.931  2.5241 -2.4106  0.1726
  717MOL0     H96783  10.606   1.137   4.445  0.3402  0.5220 -0.3818
  717MOL0     H96784  10.867   1.138   4.455  1.5802  0.3262  1.3505
  717MOL0     H96785  11.107   0.892   4.592 -0.4698 -1.1717 -2.4394
  717MOL0     H96786  10.999   0.961   4.470  2.3281 -0.5033 -1.4736
  717MOL0     H96787  11.280   1.024   4.469  0.8798 -0.5019  1.8011
  717MOL0     H96788  11.222   1.137   4.590  2.3076  0.1120 -1.2539
  717MOL0     H96789  11.080   1.241   4.445  0.3061 -1.2924  1.4412
  717MOL0     H96790  11.089   1.123   4.309  0.7339 -1.4108  0.1473
  717MOL0     H96791  11.314   1.283   4.432 -2.9263 -0.0813  0.8180
  717MOL0     H96792  11.228   1.349   4.293  2.7494  1.9611  0.3024
  717MOL0     H96793  11.507   1.043   4.169 -0.5778 -2.1862 -0.2594
  717MOL0     H96794  10.833   0.976   4.844  1.4119  1.7883 -0.6241
  717MOL0     H96795  10.580   0.981   4.836 -0.7820  0.6123 -0.5702
  718MOL0     O96796   9.299   4.679   2.921  0.2801  0.0979 -0.3559
  718MOL0     C96797   9.306   4.705   2.799 -0.4108  0.0980  0.2936
  718MOL0     O96798   9.207   4.725   2.710  1.0273  0.2681 -0.1200
  718MOL0     C96799   9.080   4.675   2.731 -1.0955  0.5645 -0.1149
  718MOL0     C96800   9.058   4.565   2.826  0.7866 -0.8961 -0.7416
  718MOL0     C96801   8.928   4.527   2.859  0.2599  1.2117 -0.5145
  718MOL0     C96802   8.817   4.594   2.801  0.6335  0.2866 -0.4070
  718MOL0     O96803   8.692   4.548   2.821 -0.7915 -0.4077 -0.3395
  718MOL0     C96804   8.583   4.599   2.737 -0.5204  0.7636 -0.1617
  718MOL0     C96805   8.446   4.530   2.736  0.3867  0.7639 -0.2883
  718MOL0     C96806   8.450   4.384   2.689  0.1205 -0.0753  0.6046
  718MOL0     C96807   8.313   4.327   2.630 -0.2955 -0.0515 -0.5312
  718MOL0     C96808   8.297   4.361   2.483 -0.0943  0.9370 -0.4341
  718MOL0     C96809   8.147   4.383   2.452 -0.1586  0.2482  0.3258
  718MOL0     C96810   8.069   4.262   2.484  0.5092  0.0026 -0.3580
  718MOL0     C96811   7.953   4.249   2.399  1.1766 -1.0070  0.2727
  718MOL0     N96812   7.881   4.125   2.435 -0.5684 -0.0052 -0.1603
  718MOL0     C96813   7.882   4.050   2.557  0.4420  0.1436  0.0337
  718MOL0     C96814   7.822   3.937   2.516  0.0049  0.4223  0.5980
  718MOL0     C96815   7.781   3.824   2.605 -0.2720  0.5639  0.1443
  718MOL0     C96816   7.654   3.846   2.676 -0.1345 -0.0798 -0.0515
  718MOL0     C96817   7.574   3.714   2.687  0.5199 -0.5499 -0.1759
  718MOL0     C96818   7.453   3.720   2.772 -0.8830 -0.0957  0.0329
  718MOL0     O96819   7.343   3.789   2.710  0.6010  0.2568 -0.9361
  718MOL0     C96820   7.218   3.779   2.770 -0.8966 -0.6168 -0.7084
  718MOL0     C96821   7.169   3.685   2.859 -0.5973 -0.1542  0.5566
  718MOL0     C96822   7.039   3.688   2.911 -0.0461  0.6168 -0.0811
  718MOL0     C96823   7.001   3.563   2.978 -0.8962 -1.0699  0.1588
  718MOL0     C96824   6.954   3.798   2.883  0.3787 -0.2286 -0.0124
  718MOL0     C96825   6.833   3.830   2.962 -0.0128 -0.1979 -0.5754
  718MOL0     O96826   6.807   3.960   2.959  0.6423 -0.3356 -0.0826
  718MOL0     C96827   6.688   4.008   3.011  0.4907  0.1883 -0.2002
  718MOL0     C96828   6.670   4.043   3.143  0.4621 -0.1960  0.5780
  718MOL0     C96829   6.542   4.081   3.189 -0.2980 -0.0997  0.3599
  718MOL0     C96830   6.430   4.081   3.100  0.5555 -0.2547 -0.3513
  718MOL0     O96831   6.303   4.118   3.158 -0.3064  0.1735  0.5791
  718MOL0     C96832   6.191   4.100   3.075  0.4847  0.0265 -0.3625
  718MOL0     C96833   6.065   4.091   3.156 -0.0695 -1.3985  1.0862
  718MOL0     C96834   6.070   3.978   3.261 -0.8704  0.3643  0.2180
  718MOL0     C96835   6.040   3.844   3.195 -0.8021 -0.1839 -0.0903
  718MOL0     C96836   5.892   3.803   3.227  0.0765 -0.1349 -0.6753
  718MOL0     C96837   5.865   3.664   3.158 -1.1686 -0.5035  0.8600
  718MOL0     C96838   5.755   3.577   3.212 -0.1245 -0.4732  0.7774
  718MOL0     C96839   5.637   3.565   3.116  0.5666 -0.1416  0.3675
  718MOL0    Cl96840   5.573   3.730   3.062  0.4901 -0.0011 -0.2951
  718MOL0     C96841   6.449   4.068   2.964  0.9075  0.0003  0.3446
  718MOL0     C96842   6.582   4.036   2.925 -0.1991  0.1167  1.2847
  718MOL0     O96843   6.758   3.747   3.013  0.0429 -0.1082 -0.6358
  718MOL0     C96844   6.987   3.885   2.776 -1.2176 -0.4459 -0.0011
  718MOL0     C96845   7.122   3.874   2.726  0.0776  0.4570 -0.1751
  718MOL0     N96846   7.797   3.942   2.378  0.3474  0.2577  0.3804
  718MOL0     N96847   7.831   4.048   2.337  0.0797 -0.2490  0.5334
  718MOL0     C96848   8.842   4.701   2.715 -0.3049  0.4298 -0.9797
  718MOL0     C96849   8.971   4.737   2.679 -0.3386 -0.1406  0.3715
  718MOL0     C96850   9.437   4.691   2.732  0.8453  0.8791 -0.8450
  718MOL0     C96851   9.546   4.635   2.802  0.0758  0.3074  0.1429
  718MOL0     C96852   9.668   4.619   2.747 -0.7729  0.7347 -0.2744
  718MOL0     C96853   9.702   4.673   2.620 -0.2605  0.9069 -0.3974
  718MOL0     O96854   9.836   4.682   2.568  0.2576  0.1551  0.0365
  718MOL0     C96855   9.933   4.659   2.665 -0.2172 -0.2114  0.0718
  718MOL0     C96856  10.075   4.688   2.613  0.7194 -0.7429 -0.5541
  718MOL0     C96857  10.093   4.823   2.533  0.3687 -0.1809  0.6200
  718MOL0     C96858  10.241   4.854   2.506  0.7533  0.6300 -0.5858
  718MOL0     C96859  10.287   4.804   2.378  0.2423 -0.0253  0.5456
  718MOL0     C96860  10.330   4.779   2.264 -0.6977 -0.1496  0.2283
  718MOL0     C96861   9.599   4.735   2.549 -0.1849  0.7151 -0.6588
  718MOL0     C96862   9.469   4.744   2.604  0.2671  1.1116 -0.4407
  718MOL0     H96863   9.145   4.517   2.869 -0.9533 -2.5754  1.0833
  718MOL0     H96864   8.906   4.442   2.923 -1.6990  1.8291 -0.3145
  718MOL0     H96865   8.571   4.702   2.773  2.4515  0.4502  2.0857
  718MOL0     H96866   8.616   4.596   2.633 -0.8284  1.3154 -0.2811
  718MOL0     H96867   8.419   4.521   2.842  0.0799  1.5006 -0.2977
  718MOL0     H96868   8.369   4.595   2.692  2.7109  1.7063 -3.2879
  718MOL0     H96869   8.525   4.373   2.610  0.5719  3.2379  0.4164
  718MOL0     H96870   8.490   4.325   2.772  2.4891  0.0373 -0.3568
  718MOL0     H96871   8.320   4.219   2.644 -0.6304 -0.1608 -1.1750
  718MOL0     H96872   8.237   4.380   2.689  2.8601  2.4907  1.5702
  718MOL0     H96873   8.349   4.451   2.447 -0.5674  0.9741 -1.0455
  718MOL0     H96874   8.337   4.283   2.417  0.1444  1.2898 -0.7132
  718MOL0     H96875   8.122   4.470   2.514  0.8534  0.9438 -0.2244
  718MOL0     H96876   8.136   4.410   2.347  1.4987  1.3494  0.3981
  718MOL0     H96877   8.130   4.173   2.466  0.4333  0.0710 -0.9786
  718MOL0     H96878   8.034   4.268   2.588 -0.6389  0.8364 -0.7844
  718MOL0     H96879   7.982   4.239   2.294  1.4809 -1.6026  0.4061
  718MOL0     H96880   7.903   4.342   2.425  1.0810 -1.1004  0.4222
  718MOL0     H96881   7.907   4.086   2.657  2.0474  1.6197 -0.8407
  718MOL0     H96882   7.788   3.733   2.544  1.0328  1.0108 -0.4205
  718MOL0     H96883   7.862   3.806   2.676 -0.7064  0.4238  0.6038
  718MOL0     H96884   7.589   3.919   2.627 -0.3451 -0.6968 -0.7195
  718MOL0     H96885   7.679   3.885   2.775 -0.8232  1.8231 -0.5952
  718MOL0     H96886   7.647   3.644   2.730  0.6151  1.5597  3.5087
  718MOL0     H96887   7.545   3.679   2.587  0.6001  1.4232 -0.9402
  718MOL0     H96888   7.477   3.764   2.869  2.7391  1.7010 -1.5240
  718MOL0     H96889   7.428   3.615   2.790 -0.4286 -0.2376 -0.1601
  718MOL0     H96890   7.240   3.607   2.885 -0.0884 -0.0183 -0.3948
  718MOL0     H96891   7.072   3.483   2.956  1.8674  1.9141 -3.0508
  718MOL0     H96892   6.979   3.571   3.085  0.3285 -2.6975  0.5711
  718MOL0     H96893   6.905   3.539   2.932 -0.9085 -0.8062  0.0468
  718MOL0     H96894   6.760   4.043   3.204  0.5387  3.5215  0.7201
  718MOL0     H96895   6.536   4.100   3.296  2.2106  0.4823  0.4675
  718MOL0     H96896   6.178   4.189   3.013  1.3840  2.2123  2.3582
  718MOL0     H96897   6.203   4.010   3.013 -0.6927 -0.2552 -0.2062
  718MOL0     H96898   6.041   4.185   3.205 -2.8955 -0.0302 -2.4451
  718MOL0     H96899   5.988   4.082   3.079  0.7688  1.4460 -0.1857
  718MOL0     H96900   5.994   4.000   3.337 -0.6198 -0.0874  0.6047
  718MOL0     H96901   6.168   3.967   3.309 -2.3913 -1.3675  3.2402
  718MOL0     H96902   6.053   3.852   3.086  0.6404 -1.0696 -0.0140
  718MOL0     H96903   6.115   3.775   3.234  0.9305  1.0664 -1.0239
  718MOL0     H96904   5.830   3.878   3.178  1.6522  0.4764 -1.7954
  718MOL0     H96905   5.881   3.807   3.336  0.7671 -1.4138 -0.5387
  718MOL0     H96906   5.847   3.692   3.054 -0.4143 -2.9404 -0.0020
  718MOL0     H96907   5.960   3.610   3.164  1.2445  3.4332  2.1626
  718MOL0     H96908   5.729   3.613   3.312  0.7686 -1.3306  1.3401
  718MOL0     H96909   5.791   3.477   3.239 -0.6105 -0.6528  0.7550
  718MOL0     H96910   5.553   3.524   3.172  1.0356 -1.8124 -0.1148
  718MOL0     H96911   5.664   3.511   3.025 -0.5111 -1.1123  0.5977
  718MOL0     H96912   6.392   4.098   2.877  3.8796  4.1669 -0.4666
  718MOL0     H96913   6.614   4.033   2.822  0.6335  0.3279  1.5319
  718MOL0     H96914   6.913   3.957   2.743 -1.6317  0.9297  3.4775
  718MOL0     H96915   7.157   3.945   2.652 -1.4164  1.6807  0.2462
  718MOL0     H96916   8.767   4.759   2.661  0.3212  0.7838 -1.4783
  718MOL0     H96917   8.991   4.822   2.614  1.1107 -0.8530 -0.1590
  718MOL0     H96918   9.522   4.582   2.894 -1.9390 -0.4797 -0.7712
  718MOL0     H96919   9.747   4.580   2.811 -1.7624  1.6149  1.5504
  718MOL0     H96920   9.909   4.734   2.741  0.0061 -0.5998  0.5286
  718MOL0     H96921   9.922   4.556   2.700  1.5182 -0.1042  1.0190
  718MOL0     H96922  10.112   4.604   2.553  1.6531  0.5546 -1.8740
  718MOL0     H96923  10.124   4.707   2.709  2.5091 -0.7695 -1.4262
  718MOL0     H96924  10.044   4.905   2.587  0.3445 -0.7846  1.5421
  718MOL0     H96925  10.050   4.826   2.433 -0.2298  0.9816  0.8885
  718MOL0     H96926  10.302   4.815   2.588 -2.1036 -4.2289 -0.3195
  718MOL0     H96927  10.259   4.962   2.509  0.2493  0.7107 -0.3477
  718MOL0     H96928  10.371   4.741   2.172 -1.6547  2.4055 -1.3605
  718MOL0     H96929   9.626   4.778   2.453 -1.3373 -0.0968 -1.3664
  718MOL0     H96930   9.394   4.787   2.539 -1.4466  1.0232  1.3927
  719MOL0     O96931   1.473   4.849   0.735 -0.1441 -0.2656  0.5417
  719MOL0     C96932   1.435   4.966   0.737 -0.1320 -0.4844 -0.0123
  719MOL0     O96933   1.319   5.016   0.800 -0.8636  0.0948  0.1804
  719MOL0     C96934   1.236   4.937   0.861 -0.1420 -0.4177  0.0721
  719MOL0     C96935   1.129   5.012   0.915 -0.6252 -0.6616  0.5844
  719MOL0     C96936   1.019   4.950   0.974  0.0247 -0.9295 -0.2746
  719MOL0     C96937   1.012   4.811   0.982 -0.2130 -0.6953  0.5822
  719MOL0     O96938   0.902   4.750   1.036  0.1439  0.3313 -0.3763
  719MOL0     C96939   0.825   4.820   1.136  0.7367  0.2782 -0.6847
  719MOL0     C96940   0.730   4.721   1.202 -0.5093  0.1368 -0.6400
  719MOL0     C96941   0.622   4.794   1.281  0.1037  0.1263  0.1719
  719MOL0     C96942   0.517   4.696   1.333  0.6205 -0.2189 -0.0911
  719MOL0     C96943   0.373   4.762   1.353  0.1995  0.0122 -0.2470
  719MOL0     C96944   0.390   4.842   1.488 -0.2290 -0.5321  0.0331
  719MOL0     C96945   0.270   4.905   1.557  0.3259  0.2369  0.2520
  719MOL0     C96946   0.173   4.801   1.610  0.2422  0.1106 -0.5086
  719MOL0     N96947   0.064   4.854   1.696  0.4389  0.5826  0.0155
  719MOL0     C96948   0.083   4.913   1.818  0.0699 -0.0754 -0.0522
  719MOL0     C96949  -0.039   4.952   1.857  0.4770  0.1503 -0.0030
  719MOL0     C96950  -0.065   5.030   1.982  0.3376  0.2778  0.4122
  719MOL0     C96951  -0.148   4.952   2.087  0.3652  0.4604  0.2566
  719MOL0     C96952  -0.060   4.829   2.137  0.5687 -0.3503  0.6665
  719MOL0     C96953   0.040   4.858   2.255 -0.2469 -0.5995 -0.2916
  719MOL0     O96954  -0.002   4.962   2.349  0.3136  0.1822 -0.2247
  719MOL0     C96955  -0.082   4.939   2.465 -0.3342 -0.0527  0.2543
  719MOL0     C96956  -0.090   5.024   2.578 -0.6802  0.8425  0.3313
  719MOL0     C96957  -0.182   4.999   2.682  0.9006 -0.0142  0.1814
  719MOL0     C96958  -0.171   5.081   2.810 -1.3742  0.5304 -0.1216
  719MOL0     C96959  -0.259   4.883   2.683  0.3554  0.0784  0.7642
  719MOL0     C96960  -0.339   4.843   2.795  0.6443 -0.0673 -0.1250
  719MOL0     O96961  -0.419   4.936   2.850  0.7661 -0.3549 -0.1635
  719MOL0     C96962  -0.477   4.918   2.973 -0.2584 -0.8090 -0.3380
  719MOL0     C96963  -0.587   5.005   3.007  0.5097 -0.2311  0.3446
  719MOL0     C96964  -0.642   5.013   3.135  0.0622  0.4634  0.5615
  719MOL0     C96965  -0.594   4.914   3.232  0.4739 -0.9550  0.0540
  719MOL0     O96966  -0.638   4.912   3.366  0.2008 -0.6071 -0.1854
  719MOL0     C96967  -0.779   4.956   3.381  0.3591  0.5716 -0.3180
  719MOL0     C96968  -0.844   4.893   3.499 -0.0796  1.2525  0.7574
  719MOL0     C96969  -0.999   4.907   3.510 -0.0066  0.2171  0.3824
  719MOL0     C96970  -1.089   4.819   3.425  1.0482 -0.5642 -0.5633
  719MOL0     C96971  -1.086   4.669   3.466  0.1775  0.3813  0.4685
  719MOL0     C96972  -1.183   4.578   3.384  0.4110 -0.2498  0.1163
  719MOL0     C96973  -1.341   4.592   3.427 -0.0590  0.1654  0.2566
  719MOL0     C96974  -1.353   4.565   3.577  0.1841 -0.2872  0.0829
  719MOL0    Cl96975  -1.527   4.533   3.610 -0.0897  0.2800 -0.2799
  719MOL0     C96976  -0.496   4.827   3.206 -0.3964  0.5877  0.2364
  719MOL0     C96977  -0.435   4.827   3.077  0.1465  0.0430  0.1642
  719MOL0     O96978  -0.333   4.728   2.832 -0.2783  0.4644  0.0416
  719MOL0     C96979  -0.252   4.795   2.570  0.2034 -0.0002 -0.1117
  719MOL0     C96980  -0.165   4.822   2.465 -0.9428 -0.3148 -0.6688
  719MOL0     N96981  -0.122   4.917   1.755  0.6324  0.3792 -0.4651
  719MOL0     N96982  -0.065   4.857   1.659 -0.1756 -0.2712 -0.1907
  719MOL0     C96983   1.124   4.740   0.939 -0.1784 -0.2773 -0.5769
  719MOL0     C96984   1.237   4.797   0.883 -0.2960 -0.3150 -1.1501
  719MOL0     C96985   1.518   5.068   0.656  0.5425  0.8059  0.7326
  719MOL0     C96986   1.468   5.193   0.620  0.3917 -0.3068  0.0700
  719MOL0     C96987   1.547   5.278   0.538 -0.1505  0.6625 -1.0942
  719MOL0     C96988   1.676   5.242   0.505 -0.4365 -0.6345 -0.2179
  719MOL0     O96989   1.754   5.327   0.430 -0.2775  0.2820 -0.4080
  719MOL0     C96990   1.892   5.302   0.393  0.6051 -0.6394  1.1446
  719MOL0     C96991   1.893   5.236   0.252  0.4796  0.1428 -0.5728
  719MOL0     C96992   1.973   5.321   0.149 -0.6770  0.3238  0.4236
  719MOL0     C96993   2.126   5.304   0.167 -0.8435  0.2017  0.1125
  719MOL0     C96994   2.203   5.315   0.049  0.0355  0.0469 -0.3992
  719MOL0     C96995   2.262   5.318  -0.055 -0.6063  0.1897 -0.5582
  719MOL0     C96996   1.725   5.122   0.542  0.3322  0.1945 -0.4416
  719MOL0     C96997   1.649   5.034   0.622  0.2950 -0.2126 -0.0027
  719MOL0     H96998   1.140   5.119   0.904 -1.0433 -0.6241  0.5316
  719MOL0     H96999   0.941   5.009   1.021 -0.1085  0.7620 -2.4634
  719MOL0     H97000   0.891   4.878   1.201 -0.1761  0.5371  0.0298
  719MOL0     H97001   0.769   4.898   1.083  0.0690 -1.8598 -3.4016
  719MOL0     H97002   0.690   4.655   1.124  2.7934  0.0717 -2.4371
  719MOL0     H97003   0.784   4.658   1.274  1.2218  1.9528 -0.2653
  719MOL0     H97004   0.658   4.841   1.372  0.4253 -1.1859  0.7389
  719MOL0     H97005   0.567   4.861   1.214 -1.3858  0.5869  1.7881
  719MOL0     H97006   0.508   4.615   1.260  0.0883 -1.3237  1.1637
  719MOL0     H97007   0.549   4.648   1.425 -1.2703 -1.2511  0.0825
  719MOL0     H97008   0.340   4.830   1.274 -3.0878 -2.1972 -0.9498
  719MOL0     H97009   0.305   4.677   1.360  0.0284  0.1551 -0.1744
  719MOL0     H97010   0.443   4.777   1.558  0.3787  3.1527  3.2969
  719MOL0     H97011   0.468   4.915   1.468 -1.9694  1.2323 -0.6456
  719MOL0     H97012   0.309   4.964   1.640 -1.1315  0.0428  1.1150
  719MOL0     H97013   0.209   4.964   1.487 -0.3058 -0.0991  0.5041
  719MOL0     H97014   0.238   4.725   1.655  0.8849  0.6606 -0.4839
  719MOL0     H97015   0.121   4.754   1.526  1.5080 -0.3755 -1.0515
  719MOL0     H97016   0.172   4.917   1.880 -0.7354 -0.1012  1.1344
  719MOL0     H97017   0.034   5.059   2.018  0.8732  2.3741 -2.3988
  719MOL0     H97018  -0.118   5.120   1.949 -1.9183 -0.6080  1.4299
  719MOL0     H97019  -0.245   4.921   2.048 -0.0444  0.1064  1.4919
  719MOL0     H97020  -0.177   5.013   2.173  0.6504 -0.2128  0.8501
  719MOL0     H97021  -0.008   4.764   2.066  0.1704 -1.9522  1.7810
  719MOL0     H97022  -0.137   4.762   2.177  1.6966 -1.1276  1.5751
  719MOL0     H97023   0.138   4.885   2.216 -1.3858  2.8097 -1.1109
  719MOL0     H97024   0.050   4.766   2.314 -0.5890  0.8528  2.1568
  719MOL0     H97025  -0.015   5.102   2.585  1.0724 -0.6368 -0.9111
  719MOL0     H97026  -0.131   5.180   2.783 -1.6064  1.4709  2.6717
  719MOL0     H97027  -0.271   5.108   2.845 -1.7201  0.1444 -0.8012
  719MOL0     H97028  -0.117   5.031   2.891  2.1934  3.8228 -0.1733
  719MOL0     H97029  -0.628   5.073   2.932 -0.7466  0.3639  1.5294
  719MOL0     H97030  -0.720   5.083   3.164  0.6054  0.6889  1.5143
  719MOL0     H97031  -0.794   5.064   3.391  3.1566  1.0345 -0.3625
  719MOL0     H97032  -0.831   4.918   3.293  0.4947 -1.0054  0.2419
  719MOL0     H97033  -0.819   4.787   3.497  1.5199  1.6084 -1.5034
  719MOL0     H97034  -0.797   4.935   3.589  0.3621 -2.0780  2.2131
  719MOL0     H97035  -1.010   5.013   3.488  4.6430  1.3569  2.3739
  719MOL0     H97036  -1.026   4.887   3.614  0.0054 -2.0298  0.0041
  719MOL0     H97037  -1.193   4.852   3.437  0.6478  0.4024 -5.0254
  719MOL0     H97038  -1.057   4.827   3.321 -2.4815 -0.8199 -1.8344
  719MOL0     H97039  -1.126   4.658   3.567 -1.8919  0.4950 -0.2793
  719MOL0     H97040  -0.986   4.627   3.462  0.3031  0.4717  2.2360
  719MOL0     H97041  -1.168   4.603   3.279 -0.6890  0.8061  0.1884
  719MOL0     H97042  -1.158   4.472   3.388  2.1652  0.0870 -0.9710
  719MOL0     H97043  -1.407   4.527   3.369 -0.3419  0.1135  0.6368
  719MOL0     H97044  -1.379   4.692   3.405  0.5779  0.2980 -0.3048
  719MOL0     H97045  -1.320   4.652   3.633 -0.4134 -0.0532  0.0838
  719MOL0     H97046  -1.295   4.476   3.604  3.2013  1.6368  0.3409
  719MOL0     H97047  -0.466   4.757   3.283  1.6395  1.3975  0.2368
  719MOL0     H97048  -0.340   4.775   3.080  0.2721  0.3082  1.4277
  719MOL0     H97049  -0.313   4.706   2.576 -1.8540  1.3837  0.7877
  719MOL0     H97050  -0.155   4.755   2.380  0.3544 -1.8738  0.6517
  719MOL0     H97051   1.125   4.632   0.950 -0.7514 -0.1023  1.8179
  719MOL0     H97052   1.307   4.724   0.842  0.4523 -2.0513  2.7667
  719MOL0     H97053   1.366   5.205   0.655  0.3006 -2.1430  0.5254
  719MOL0     H97054   1.516   5.375   0.501 -0.2308  1.8798  1.8444
  719MOL0     H97055   1.930   5.404   0.394 -1.7319  0.3021  0.8643
  719MOL0     H97056   1.946   5.240   0.464 -0.9937 -2.0268  1.2149
  719MOL0     H97057   1.788   5.233   0.219 -0.3189 -0.1010  1.7793
  719MOL0     H97058   1.922   5.131   0.260 -3.2751 -1.3462 -3.1385
  719MOL0     H97059   1.947   5.427   0.159 -2.3107 -0.1860  2.1790
  719MOL0     H97060   1.942   5.300   0.046 -3.5005  0.9826  1.0529
  719MOL0     H97061   2.158   5.218   0.227 -0.6108  0.7309  0.7609
  719MOL0     H97062   2.155   5.388   0.232  1.1331  0.0286 -0.4664
  719MOL0     H97063   2.311   5.312  -0.150  1.0569  2.2640  0.0787
  719MOL0     H97064   1.828   5.092   0.530  0.3362  0.2294 -0.4949
  719MOL0     H97065   1.698   4.942   0.652 -0.0323 -0.3263  0.1851
  720MOL0     O97066   7.169   0.321   0.907  0.6214 -0.2116  0.1598
  720MOL0     C97067   7.110   0.258   0.993 -0.0313 -0.5696  0.0990
  720MOL0     O97068   7.012   0.171   0.971 -0.1890 -0.0033  0.4019
  720MOL0     C97069   6.950   0.175   0.855 -0.0805  0.3003  0.4135
  720MOL0     C97070   6.967   0.075   0.761 -0.0510 -0.0574  0.2794
  720MOL0     C97071   6.883   0.066   0.651 -0.3075 -0.4149  0.6199
  720MOL0     C97072   6.783   0.163   0.636 -0.1859  0.1883  0.3409
  720MOL0     O97073   6.715   0.145   0.519 -0.6580 -0.7416 -0.2331
  720MOL0     C97074   6.690   0.261   0.443  0.8486 -0.1140 -0.0863
  720MOL0     C97075   6.574   0.226   0.337 -0.5254  0.1843 -0.1012
  720MOL0     C97076   6.560   0.349   0.240 -0.3019  0.9977  0.3032
  720MOL0     C97077   6.465   0.331   0.122  0.3209  0.9332 -0.2559
  720MOL0     C97078   6.323   0.315   0.166 -0.5638  0.4036 -0.4662
  720MOL0     C97079   6.234   0.275   0.051 -0.5690  1.3993 -0.0272
  720MOL0     C97080   6.177   0.403  -0.014 -0.2743  0.0870  1.8170
  720MOL0     C97081   6.089   0.371  -0.142 -0.0955 -0.3444  0.9709
  720MOL0     N97082   6.070   0.492  -0.224 -0.6173 -0.1258  0.1685
  720MOL0     C97083   5.953   0.531  -0.284 -0.8256  0.4202  0.1516
  720MOL0     C97084   5.982   0.635  -0.363 -0.4830  0.5348  0.3247
  720MOL0     C97085   5.885   0.727  -0.420 -0.5298 -0.0566  0.1546
  720MOL0     C97086   5.934   0.775  -0.552  0.1781 -0.2689  0.4185
  720MOL0     C97087   5.825   0.856  -0.638 -0.3997  0.3783 -0.1418
  720MOL0     C97088   5.696   0.770  -0.690 -0.9316  0.2107 -0.1247
  720MOL0     O97089   5.652   0.828  -0.811 -0.0453 -0.6092  0.3803
  720MOL0     C97090   5.523   0.840  -0.849  0.2159 -0.7621  0.1437
  720MOL0     C97091   5.502   0.897  -0.975  0.4211 -0.6221 -0.5329
  720MOL0     C97092   5.377   0.942  -1.021  0.7050  0.4880  0.5280
  720MOL0     C97093   5.381   1.025  -1.153  0.4468 -0.7687 -1.0109
  720MOL0     C97094   5.262   0.927  -0.939  0.0985  1.3415 -0.8831
  720MOL0     C97095   5.131   0.991  -0.961  1.0776 -0.4706  0.2947
  720MOL0     O97096   5.029   0.966  -0.877 -0.2259 -0.2872  0.3930
  720MOL0     C97097   4.913   1.032  -0.894  1.0319 -0.3027  0.0723
  720MOL0     C97098   4.798   0.951  -0.868 -0.0026  0.4813 -0.1566
  720MOL0     C97099   4.670   1.005  -0.877 -0.8996 -0.5406 -1.3484
  720MOL0     C97100   4.649   1.137  -0.925  0.4906 -0.5187 -0.0965
  720MOL0     O97101   4.532   1.189  -0.957  0.1786 -0.3533 -0.3894
  720MOL0     C97102   4.418   1.163  -0.873 -0.7596  0.2154 -0.5301
  720MOL0     C97103   4.299   1.228  -0.940 -0.1693  0.3142  0.3624
  720MOL0     C97104   4.308   1.383  -0.959 -0.0214 -0.3820 -0.8534
  720MOL0     C97105   4.174   1.458  -0.958 -0.9266  0.1717 -0.5050
  720MOL0     C97106   4.080   1.453  -1.082 -0.1588  0.7130  0.2512
  720MOL0     C97107   3.949   1.524  -1.057  0.7946  0.0358 -0.0104
  720MOL0     C97108   3.848   1.505  -1.172 -0.0476 -0.5425 -0.6750
  720MOL0     C97109   3.737   1.609  -1.168 -0.4743 -0.0999 -0.2243
  720MOL0    Cl97110   3.654   1.599  -1.331 -0.1643  0.4150 -0.1823
  720MOL0     C97111   4.756   1.226  -0.945 -0.6104  0.1173  0.7360
  720MOL0     C97112   4.889   1.170  -0.934 -0.5165 -0.3072 -0.1259
  720MOL0     O97113   5.119   1.050  -1.068 -0.6146 -0.8588  0.0313
  720MOL0     C97114   5.278   0.852  -0.817  0.2339 -0.1709  0.7179
  720MOL0     C97115   5.409   0.817  -0.772 -0.7300 -0.0775  0.1935
  720MOL0     N97116   6.117   0.654  -0.350  0.0206  0.3709 -0.6887
  720MOL0     N97117   6.166   0.576  -0.263  0.3280 -0.0103 -0.6009
  720MOL0     C97118   6.765   0.259   0.733 -0.5882  0.2487  0.4066
  720MOL0     C97119   6.842   0.260   0.838  0.5176  0.4530  0.1160
  720MOL0     C97120   7.150   0.268   1.135 -0.5681  0.3794 -0.7793
  720MOL0     C97121   7.095   0.189   1.240 -0.0118  0.0636  0.4249
  720MOL0     C97122   7.147   0.193   1.367  0.1641  0.3260 -0.0559
  720MOL0     C97123   7.253   0.280   1.396 -0.0937  0.2223 -0.4881
  720MOL0     O97124   7.318   0.286   1.514  0.5606  0.7852  0.2105
  720MOL0     C97125   7.253   0.212   1.623  0.0522  0.7576 -0.2048
  720MOL0     C97126   7.291   0.282   1.755 -0.0988  0.9149  0.5936
  720MOL0     C97127   7.441   0.273   1.779  0.2932 -0.0630 -0.1734
  720MOL0     C97128   7.460   0.336   1.914 -0.1534 -0.2828 -0.4373
  720MOL0     C97129   7.590   0.316   1.978  0.0641  0.0949 -0.4686
  720MOL0     C97130   7.696   0.301   2.038  0.0376  0.2336  0.3398
  720MOL0     C97131   7.297   0.367   1.302  0.3464 -0.3821  0.3766
  720MOL0     C97132   7.260   0.354   1.171  0.1784  1.2585  0.8992
  720MOL0     H97133   7.050   0.005   0.768  0.0226 -0.0364 -0.3099
  720MOL0     H97134   6.900  -0.015   0.581  0.2324  0.1205  0.1173
  720MOL0     H97135   6.635   0.337   0.499 -2.1547 -0.7519 -1.8848
  720MOL0     H97136   6.778   0.303   0.393  0.9480 -0.1065  0.0951
  720MOL0     H97137   6.616   0.141   0.282 -1.2958 -0.0871 -0.2882
  720MOL0     H97138   6.479   0.190   0.377  1.7179 -1.7868  4.0968
  720MOL0     H97139   6.521   0.438   0.289 -1.7955  1.9154 -2.3307
  720MOL0     H97140   6.663   0.369   0.209 -0.8292  2.2783 -0.6820
  720MOL0     H97141   6.466   0.413   0.050  0.6227  1.9721  0.8967
  720MOL0     H97142   6.498   0.249   0.057 -1.8152  0.2092 -0.5152
  720MOL0     H97143   6.317   0.235   0.240 -3.1581  0.2820 -0.7011
  720MOL0     H97144   6.289   0.411   0.205  1.3469  1.1610 -0.5823
  720MOL0     H97145   6.293   0.212  -0.016  0.4229  1.3914  0.8317
  720MOL0     H97146   6.157   0.210   0.093  0.1462  0.3133 -0.3380
  720MOL0     H97147   6.102   0.449   0.052 -0.2590  1.3066  1.0203
  720MOL0     H97148   6.247   0.481  -0.044 -0.3170  0.5908  2.9707
  720MOL0     H97149   5.994   0.328  -0.110 -0.0733 -0.8551  0.3842
  720MOL0     H97150   6.138   0.295  -0.203 -1.6989  0.6038 -1.6650
  720MOL0     H97151   5.855   0.486  -0.273 -0.7386 -0.1719 -1.3571
  720MOL0     H97152   5.787   0.683  -0.441 -1.6487  2.8344 -1.3396
  720MOL0     H97153   5.856   0.807  -0.351 -1.0462 -0.2129  0.1210
  720MOL0     H97154   5.975   0.689  -0.604  1.4908 -0.1614  1.2381
  720MOL0     H97155   6.016   0.843  -0.525 -2.0258  1.4596  3.3923
  720MOL0     H97156   5.868   0.896  -0.731 -2.5223  0.5590 -1.1084
  720MOL0     H97157   5.787   0.941  -0.582 -1.7305  1.3254 -2.3524
  720MOL0     H97158   5.618   0.771  -0.613  1.5308 -3.5452  2.8070
  720MOL0     H97159   5.731   0.668  -0.706  1.3194  1.2848 -3.0622
  720MOL0     H97160   5.593   0.919  -1.031  1.1631  0.0319  0.8576
  720MOL0     H97161   5.383   1.131  -1.126 -0.4018 -1.1344  0.5702
  720MOL0     H97162   5.474   1.014  -1.210  1.6695  2.0950  0.2201
  720MOL0     H97163   5.293   1.007  -1.215 -0.7037  1.5082 -0.1621
  720MOL0     H97164   4.803   0.844  -0.849  1.1662  0.7827  1.4057
  720MOL0     H97165   4.583   0.944  -0.856 -0.0284 -1.2662  0.3697
  720MOL0     H97166   4.410   1.054  -0.875  0.1425  0.1257  0.0762
  720MOL0     H97167   4.427   1.206  -0.773 -4.5576  0.6980 -0.2472
  720MOL0     H97168   4.271   1.184  -1.037 -2.5419 -2.7943  2.2710
  720MOL0     H97169   4.219   1.197  -0.873 -0.0413  1.8350  1.2575
  720MOL0     H97170   4.352   1.416  -1.054  3.2246 -1.4440  0.1473
  720MOL0     H97171   4.367   1.422  -0.875 -0.9282  1.5672 -1.0708
  720MOL0     H97172   4.115   1.431  -0.870  0.9857  0.4881  0.9401
  720MOL0     H97173   4.214   1.559  -0.943 -2.8982  1.0677 -0.9637
  720MOL0     H97174   4.077   1.347  -1.107  2.2694  0.6938 -0.2204
  720MOL0     H97175   4.138   1.507  -1.158 -0.9334 -0.3319 -1.1202
  720MOL0     H97176   3.892   1.486  -0.972 -0.8620 -1.7686 -1.8077
  720MOL0     H97177   3.960   1.629  -1.029  1.3761 -0.5297  2.0698
  720MOL0     H97178   3.803   1.406  -1.164  0.7701 -0.8807 -0.0557
  720MOL0     H97179   3.902   1.507  -1.267 -0.4161 -2.1632 -0.9441
  720MOL0     H97180   3.780   1.709  -1.159  0.3492 -0.5001  0.3848
  720MOL0     H97181   3.662   1.592  -1.090 -3.4270 -1.4581 -3.0786
  720MOL0     H97182   4.745   1.331  -0.967  3.5425  0.5617 -0.0027
  720MOL0     H97183   4.974   1.238  -0.931  1.3868 -2.5924 -0.1060
  720MOL0     H97184   5.189   0.830  -0.758  1.2234  1.1052  2.8261
  720MOL0     H97185   5.410   0.763  -0.677  1.5651  0.9951  0.8633
  720MOL0     H97186   6.680   0.327   0.731 -3.3559 -2.6078  4.5192
  720MOL0     H97187   6.819   0.336   0.912 -1.3527 -0.2180  0.2810
  720MOL0     H97188   7.006   0.128   1.222  0.1911 -0.4501  1.0976
  720MOL0     H97189   7.102   0.133   1.445 -0.3333  0.8254  0.0475
  720MOL0     H97190   7.143   0.216   1.625 -0.1286 -2.1189  1.0915
  720MOL0     H97191   7.277   0.106   1.616 -1.1105  0.2915  1.9206
  720MOL0     H97192   7.238   0.230   1.835  1.9228  1.4111  2.3591
  720MOL0     H97193   7.268   0.389   1.748 -1.1048  0.6007 -1.4405
  720MOL0     H97194   7.493   0.324   1.698 -0.8664 -0.7875 -1.4210
  720MOL0     H97195   7.474   0.169   1.776  0.9610  0.1689 -1.6316
  720MOL0     H97196   7.384   0.292   1.979  0.5688 -0.5741  0.2338
  720MOL0     H97197   7.432   0.442   1.912  0.7159  0.0008  0.9849
  720MOL0     H97198   7.788   0.279   2.088  1.2304 -1.0140 -2.2213
  720MOL0     H97199   7.380   0.433   1.327  1.5982 -1.4654 -0.7518
  720MOL0     H97200   7.296   0.421   1.093  0.3274 -0.6234 -0.7299
  721MOL0     O97201   4.604   4.897   7.217 -0.4463 -0.4468 -0.4573
  721MOL0     C97202   4.659   4.959   7.314  0.1127 -0.9051 -0.5745
  721MOL0     O97203   4.590   5.024   7.418 -0.0691 -0.4957 -0.2093
  721MOL0     C97204   4.453   5.027   7.413  0.1882 -0.4497 -0.0135
  721MOL0     C97205   4.390   4.928   7.486  0.5199  0.0410  0.3448
  721MOL0     C97206   4.248   4.910   7.486 -0.0332 -0.4089 -0.7153
  721MOL0     C97207   4.165   4.989   7.409 -0.7202  0.0924 -0.5446
  721MOL0     O97208   4.038   4.965   7.398  0.0096 -0.2232 -0.8204
  721MOL0     C97209   4.000   4.887   7.285  0.3148  0.0582 -0.4242
  721MOL0     C97210   3.863   4.825   7.313  0.3997  0.3193  0.6262
  721MOL0     C97211   3.883   4.696   7.398  0.9614  0.2588 -0.0196
  721MOL0     C97212   3.751   4.604   7.397 -0.0801  0.5914 -0.1248
  721MOL0     C97213   3.648   4.671   7.497  0.4021  0.5094  0.1919
  721MOL0     C97214   3.661   4.642   7.643 -0.1534  0.0546  0.0366
  721MOL0     C97215   3.539   4.687   7.731  0.1120 -0.1911 -0.6793
  721MOL0     C97216   3.484   4.833   7.692 -0.1373 -0.6349  0.0733
  721MOL0     N97217   3.355   4.866   7.763 -0.2492  0.4539  0.2798
  721MOL0     C97218   3.285   4.780   7.842  0.4113 -0.2970 -0.9794
  721MOL0     C97219   3.189   4.859   7.898  0.3185  0.3485  1.0120
  721MOL0     C97220   3.085   4.802   7.997  0.4338 -0.5401 -0.0564
  721MOL0     C97221   2.990   4.902   8.045 -0.3486 -0.0810 -1.1885
  721MOL0     C97222   3.052   5.029   8.119  1.1367  0.1276 -0.0946
  721MOL0     C97223   2.948   5.130   8.160  0.5676 -0.3060  0.2397
  721MOL0     O97224   2.857   5.154   8.055  0.7319 -0.3310 -0.1043
  721MOL0     C97225   2.781   5.268   8.069  0.4370  0.3342 -0.3326
  721MOL0     C97226   2.754   5.332   8.193  0.0402 -0.0414 -0.0306
  721MOL0     C97227   2.688   5.458   8.206 -0.7280 -0.6017  0.0797
  721MOL0     C97228   2.680   5.535   8.330 -0.0844  0.0278  0.3121
  721MOL0     C97229   2.636   5.513   8.082 -0.0262  0.2770  0.2178
  721MOL0     C97230   2.550   5.632   8.069 -0.4349  0.7414 -0.2484
  721MOL0     O97231   2.451   5.651   8.170 -1.2201  0.0979  0.7380
  721MOL0     C97232   2.343   5.734   8.137 -0.9099  0.0225 -0.5605
  721MOL0     C97233   2.286   5.762   8.011  0.3235 -0.5629  0.3445
  721MOL0     C97234   2.173   5.834   7.993 -0.1806 -0.2666  0.2395
  721MOL0     C97235   2.109   5.889   8.104 -0.6762  0.6712  0.5906
  721MOL0     O97236   2.004   5.973   8.077 -0.3262 -0.3494  0.7565
  721MOL0     C97237   1.964   6.069   8.181  0.1240 -0.1583  0.1098
  721MOL0     C97238   1.874   6.178   8.128  0.8291  0.2015  0.2549
  721MOL0     C97239   1.810   6.282   8.226 -0.2541  0.0860 -0.2200
  721MOL0     C97240   1.914   6.348   8.320  0.5311 -1.4543 -0.1000
  721MOL0     C97241   1.853   6.443   8.418 -0.3893 -0.3598 -0.2611
  721MOL0     C97242   1.733   6.396   8.497  0.3875  0.5707  0.2415
  721MOL0     C97243   1.682   6.489   8.607 -0.7204 -0.8933  1.1528
  721MOL0     C97244   1.541   6.452   8.664  0.2297 -0.1389 -0.6313
  721MOL0    Cl97245   1.573   6.416   8.836 -0.8465 -0.3067  0.3641
  721MOL0     C97246   2.168   5.870   8.237 -0.5088 -1.2523  1.0726
  721MOL0     C97247   2.283   5.786   8.250  0.4607 -0.0124  0.8542
  721MOL0     O97248   2.571   5.694   7.961  0.7533  0.4376  0.2896
  721MOL0     C97249   2.665   5.444   7.965  0.5183 -0.4512  0.3078
  721MOL0     C97250   2.725   5.319   7.954  0.3900 -1.5604 -0.7115
  721MOL0     N97251   3.203   4.988   7.837 -0.0031 -0.4483  0.4485
  721MOL0     N97252   3.298   4.992   7.749 -0.0411  0.0079  0.1452
  721MOL0     C97253   4.230   5.097   7.343  0.5324 -0.2868  0.1547
  721MOL0     C97254   4.368   5.116   7.340  0.4223 -0.1083 -1.8068
  721MOL0     C97255   4.807   4.977   7.308  1.2720 -0.3373  0.6678
  721MOL0     C97256   4.873   5.057   7.410  0.4580  0.7677 -0.1432
  721MOL0     C97257   5.013   5.079   7.394  0.0193  0.3055  1.1309
  721MOL0     C97258   5.089   5.020   7.286  0.3125  0.4419  0.1136
  721MOL0     O97259   5.224   5.042   7.263  0.0124  0.2391 -0.4234
  721MOL0     C97260   5.303   5.104   7.364 -0.6710  0.4753 -0.6618
  721MOL0     C97261   5.437   5.052   7.328 -0.2751  0.0634 -0.2571
  721MOL0     C97262   5.502   5.085   7.198 -0.0221  0.2430  0.5316
  721MOL0     C97263   5.659   5.062   7.175  0.1113 -0.3380 -0.0488
  721MOL0     C97264   5.689   4.917   7.171 -0.4718 -0.7313 -0.7011
  721MOL0     C97265   5.707   4.798   7.147 -0.3428  0.6918  0.0373
  721MOL0     C97266   5.022   4.937   7.190  0.4996  0.0324 -0.8550
  721MOL0     C97267   4.885   4.912   7.204  0.0679 -0.0117 -0.9337
  721MOL0     H97268   4.455   4.863   7.543  2.0464  0.6266 -0.6585
  721MOL0     H97269   4.212   4.828   7.547  1.8099 -0.4426  0.4026
  721MOL0     H97270   4.007   4.946   7.192  2.1398  0.6971  0.0685
  721MOL0     H97271   4.077   4.811   7.271 -2.7700 -3.0119 -1.8896
  721MOL0     H97272   3.786   4.896   7.345 -1.2288  0.4069 -2.9751
  721MOL0     H97273   3.826   4.794   7.215 -1.1952 -0.6542  1.5098
  721MOL0     H97274   3.955   4.627   7.355 -0.5626 -0.2827 -1.8655
  721MOL0     H97275   3.903   4.725   7.501  0.7116  2.6793 -0.5748
  721MOL0     H97276   3.718   4.611   7.293  0.3334  1.0512 -0.2302
  721MOL0     H97277   3.760   4.496   7.406 -2.5729  0.2253 -1.2644
  721MOL0     H97278   3.647   4.780   7.488  2.2210  0.3902 -3.5391
  721MOL0     H97279   3.550   4.631   7.469  1.9104 -2.9412 -0.6805
  721MOL0     H97280   3.676   4.534   7.656  1.5263  0.2892  0.2643
  721MOL0     H97281   3.749   4.695   7.679  0.0156 -1.1525  1.5330
  721MOL0     H97282   3.458   4.615   7.723  1.1978 -2.0566  2.9829
  721MOL0     H97283   3.573   4.684   7.835  0.7986 -5.6187 -0.7849
  721MOL0     H97284   3.462   4.819   7.586  2.1625  3.2717 -1.1301
  721MOL0     H97285   3.560   4.911   7.699 -2.6133  1.8769  1.0411
  721MOL0     H97286   3.310   4.685   7.888  2.4856  2.0697  3.4178
  721MOL0     H97287   3.022   4.726   7.949 -0.5262  1.4245 -2.0742
  721MOL0     H97288   3.143   4.765   8.082  1.1285  1.2299  0.2669
  721MOL0     H97289   2.935   4.854   8.126  1.7566  1.3550  1.2514
  721MOL0     H97290   2.917   4.933   7.969 -2.7224  0.1136  1.0551
  721MOL0     H97291   3.126   5.078   8.055  1.0738  2.4183  1.4982
  721MOL0     H97292   3.100   4.989   8.208 -0.9129 -1.0371  0.5630
  721MOL0     H97293   2.992   5.228   8.183 -1.9163  0.3190  3.0191
  721MOL0     H97294   2.897   5.103   8.253  1.3997  0.3500  0.9172
  721MOL0     H97295   2.780   5.279   8.284  1.1293 -0.8753 -0.8014
  721MOL0     H97296   2.573   5.544   8.350 -1.0377 -1.4281 -3.3769
  721MOL0     H97297   2.736   5.490   8.413  0.0098 -1.1827 -0.3957
  721MOL0     H97298   2.741   5.623   8.306  1.0664 -1.2497 -1.7116
  721MOL0     H97299   2.325   5.709   7.924  3.5977 -3.6272  3.3287
  721MOL0     H97300   2.124   5.838   7.896 -0.0512  0.1528  0.1882
  721MOL0     H97301   1.910   6.020   8.262 -0.8737 -0.5613 -0.7739
  721MOL0     H97302   2.050   6.116   8.230 -2.1279  1.0218  3.2500
  721MOL0     H97303   1.928   6.229   8.048  0.4730  0.5825  0.2528
  721MOL0     H97304   1.786   6.125   8.090  0.2490 -0.1850  2.0267
  721MOL0     H97305   1.731   6.232   8.283 -2.2594  2.0444 -1.1726
  721MOL0     H97306   1.754   6.354   8.167 -1.9575 -2.8181 -2.3873
  721MOL0     H97307   1.945   6.260   8.378  0.0144 -0.4290  1.8284
  721MOL0     H97308   1.995   6.390   8.261  1.5675 -3.8606 -0.5123
  721MOL0     H97309   1.846   6.544   8.376  2.6472  0.1236  0.1145
  721MOL0     H97310   1.923   6.451   8.502 -2.1641 -2.6942  1.5860
  721MOL0     H97311   1.655   6.394   8.420  0.1002  1.3561  0.5061
  721MOL0     H97312   1.754   6.301   8.546  0.6713  0.8787  0.7240
  721MOL0     H97313   1.679   6.588   8.561  2.4604 -2.1366 -2.2038
  721MOL0     H97314   1.759   6.483   8.685  1.1856  0.9243 -0.4678
  721MOL0     H97315   1.496   6.364   8.617 -0.7432 -0.6829  1.1905
  721MOL0     H97316   1.479   6.540   8.648  0.6543  0.0619 -1.2265
  721MOL0     H97317   2.128   5.925   8.321  2.6434  2.7371  0.2430
  721MOL0     H97318   2.341   5.788   8.342  1.0396  0.5461  0.4878
  721MOL0     H97319   2.633   5.494   7.874 -0.4131  2.4392  2.0843
  721MOL0     H97320   2.742   5.262   7.863  5.4246 -0.0846 -0.9654
  721MOL0     H97321   4.174   5.158   7.273  0.4789 -0.0464  0.4044
  721MOL0     H97322   4.414   5.202   7.292 -0.5327 -0.4263 -3.3489
  721MOL0     H97323   4.832   5.097   7.502  1.2547  1.2650  0.0061
  721MOL0     H97324   5.056   5.155   7.459 -1.6167  2.7689 -0.4851
  721MOL0     H97325   5.296   5.213   7.354 -0.1219  1.0024  3.1628
  721MOL0     H97326   5.277   5.079   7.467  1.3095 -0.5119 -0.3631
  721MOL0     H97327   5.437   4.944   7.345  4.3706  0.1912  2.3999
  721MOL0     H97328   5.501   5.090   7.409  0.6197 -1.3570 -0.2474
  721MOL0     H97329   5.491   5.193   7.184  1.0035  0.2336 -0.5172
  721MOL0     H97330   5.448   5.033   7.118 -1.9678  2.1638  0.5052
  721MOL0     H97331   5.728   5.109   7.245  1.0962 -0.5431 -0.8492
  721MOL0     H97332   5.686   5.107   7.079  2.9073  1.1142  1.2959
  721MOL0     H97333   5.706   4.691   7.137  0.2471  0.7741 -1.0594
  721MOL0     H97334   5.068   4.902   7.099 -0.2445  0.2751 -1.3307
  721MOL0     H97335   4.832   4.844   7.138 -1.7189 -0.8671  1.2712
  722MOL0     O97336   1.492   0.216   9.985  0.3149  0.6309 -0.6524
  722MOL0     C97337   1.483   0.304   9.902  1.3579 -0.8551 -0.3645
  722MOL0     O97338   1.393   0.312   9.802  0.6289 -0.2842 -0.1637
  722MOL0     C97339   1.277   0.241   9.795 -0.5200 -0.6811 -1.2581
  722MOL0     C97340   1.204   0.251   9.670  0.1454  0.5572 -0.0482
  722MOL0     C97341   1.091   0.177   9.641 -0.0667  0.9292  0.2473
  722MOL0     C97342   1.042   0.085   9.736  1.4662  0.7980 -0.1527
  722MOL0     O97343   0.948  -0.008   9.691 -0.4037 -0.1169 -0.3477
  722MOL0     C97344   0.860   0.024   9.583  0.4533 -0.3303  1.3538
  722MOL0     C97345   0.730  -0.063   9.590 -0.7074 -0.0389  0.6728
  722MOL0     C97346   0.636  -0.041   9.470  0.8507 -0.4152  0.8753
  722MOL0     C97347   0.558  -0.174   9.449  0.5484 -0.0015 -0.4369
  722MOL0     C97348   0.478  -0.172   9.319 -0.0616 -0.6302 -1.0515
  722MOL0     C97349   0.435  -0.308   9.265  0.0015 -0.3073  0.3355
  722MOL0     C97350   0.389  -0.404   9.372 -0.8170 -0.4776 -0.3362
  722MOL0     C97351   0.279  -0.359   9.459 -0.2940  0.4945  0.4343
  722MOL0     N97352   0.150  -0.370   9.382 -0.1515  0.0959 -0.2536
  722MOL0     C97353   0.083  -0.485   9.353  0.1602 -0.2384  0.0901
  722MOL0     C97354  -0.026  -0.446   9.279 -0.3112  0.4466 -0.0165
  722MOL0     C97355  -0.145  -0.528   9.221 -0.3009 -0.3703  0.0037
  722MOL0     C97356  -0.281  -0.459   9.256  0.1747 -0.6612 -0.4425
  722MOL0     C97357  -0.401  -0.536   9.194  0.3903  0.6516  0.6571
  722MOL0     C97358  -0.527  -0.466   9.237 -0.2440 -0.2761 -0.3631
  722MOL0     O97359  -0.621  -0.434   9.134  0.1210 -0.0029  0.8791
  722MOL0     C97360  -0.685  -0.527   9.059  0.2110 -0.3127 -0.3759
  722MOL0     C97361  -0.694  -0.662   9.096  0.4414 -0.0521  0.4856
  722MOL0     C97362  -0.781  -0.753   9.022  0.5674  0.0996  0.6149
  722MOL0     C97363  -0.809  -0.898   9.057 -0.1654 -0.9894 -0.1280
  722MOL0     C97364  -0.839  -0.700   8.898  0.9200 -0.2200 -0.3744
  722MOL0     C97365  -0.935  -0.770   8.811  0.1698  0.5212 -0.0504
  722MOL0     O97366  -1.002  -0.692   8.724 -0.0750  0.1068 -0.7191
  722MOL0     C97367  -1.106  -0.754   8.651 -0.1944 -0.6842  0.4292
  722MOL0     C97368  -1.237  -0.718   8.685  0.6208 -0.6328  0.8856
  722MOL0     C97369  -1.346  -0.764   8.611 -0.2822 -0.3473 -0.1769
  722MOL0     C97370  -1.332  -0.859   8.510 -0.2523 -0.1396 -0.2479
  722MOL0     O97371  -1.430  -0.885   8.419  0.2649 -0.2782  0.6723
  722MOL0     C97372  -1.405  -0.954   8.296  0.4762 -0.3312 -0.2296
  722MOL0     C97373  -1.534  -0.960   8.208 -0.0433  0.2599 -0.0263
  722MOL0     C97374  -1.663  -0.983   8.301 -0.8708  0.1556  0.4554
  722MOL0     C97375  -1.788  -1.005   8.221  0.0448 -0.0512  0.4158
  722MOL0     C97376  -1.902  -0.979   8.317 -0.0920 -0.0983  0.2223
  722MOL0     C97377  -2.037  -1.006   8.248  0.8302  0.6481 -0.5331
  722MOL0     C97378  -2.154  -1.009   8.349 -0.0662  0.3194  0.2127
  722MOL0     C97379  -2.294  -1.045   8.284  1.0527  0.2786  0.1931
  722MOL0    Cl97380  -2.325  -0.929   8.149 -0.0422 -0.0870  0.1390
  722MOL0     C97381  -1.204  -0.902   8.482  0.6346  0.7378  0.6185
  722MOL0     C97382  -1.095  -0.853   8.548  0.5336  0.2840 -0.3559
  722MOL0     O97383  -0.938  -0.889   8.824 -0.1749  0.3684 -0.1947
  722MOL0     C97384  -0.819  -0.562   8.874 -0.0407 -0.9005  0.2477
  722MOL0     C97385  -0.747  -0.478   8.946  0.0338 -0.1065 -0.9369
  722MOL0     N97386  -0.017  -0.304   9.269  0.4919 -0.5157  0.8849
  722MOL0     N97387   0.089  -0.266   9.326 -0.5175 -0.4089  0.6918
  722MOL0     C97388   1.103   0.077   9.859  0.4754 -0.7489 -0.1410
  722MOL0     C97389   1.215   0.167   9.896  0.4490  0.6876  0.3019
  722MOL0     C97390   1.583   0.411   9.911 -0.5221  0.4516 -0.5815
  722MOL0     C97391   1.672   0.431  10.026 -0.5342 -0.1030  0.2230
  722MOL0     C97392   1.778   0.523  10.004 -0.6403 -0.4770  0.4020
  722MOL0     C97393   1.798   0.591   9.887  0.3519  0.5244  0.3289
  722MOL0     O97394   1.890   0.698   9.893 -0.1457 -0.3073  0.1123
  722MOL0     C97395   2.002   0.673   9.805 -0.8981 -0.3693 -0.1534
  722MOL0     C97396   2.113   0.595   9.878  0.3041 -0.1293 -0.0483
  722MOL0     C97397   2.217   0.550   9.774 -0.2808  0.2144  0.1142
  722MOL0     C97398   2.356   0.522   9.841  0.0627 -0.7001  0.4164
  722MOL0     C97399   2.467   0.496   9.744  0.8035 -0.3113 -0.3203
  722MOL0     C97400   2.548   0.453   9.668 -0.0656  0.5076  0.4759
  722MOL0     C97401   1.715   0.576   9.785  0.2832 -0.4656  1.0326
  722MOL0     C97402   1.611   0.482   9.791  0.2836 -0.4143  0.6164
  722MOL0     H97403   1.238   0.323   9.596  0.9470 -1.1088 -1.3660
  722MOL0     H97404   1.038   0.214   9.554  0.2595  0.7070 -0.0497
  722MOL0     H97405   0.837   0.131   9.592  0.0599 -0.3920  1.1119
  722MOL0     H97406   0.911   0.005   9.488  0.1069  2.0846  0.6032
  722MOL0     H97407   0.763  -0.167   9.601 -2.3329 -0.4899  1.5725
  722MOL0     H97408   0.679  -0.039   9.684 -0.2058  0.9900  0.6984
  722MOL0     H97409   0.548   0.019   9.494 -3.0602 -5.9244  2.4187
  722MOL0     H97410   0.684  -0.015   9.375 -0.9962  2.5545  0.6383
  722MOL0     H97411   0.623  -0.262   9.449 -0.0727 -0.5182  2.0985
  722MOL0     H97412   0.500  -0.181   9.541  3.5928  3.7202  2.0901
  722MOL0     H97413   0.394  -0.102   9.328  0.3974 -0.2843  1.2197
  722MOL0     H97414   0.550  -0.124   9.252 -0.8836  1.3980 -0.5471
  722MOL0     H97415   0.353  -0.289   9.195 -0.8704  0.0643  1.4239
  722MOL0     H97416   0.514  -0.363   9.213  0.7853  0.2545  0.9147
  722MOL0     H97417   0.358  -0.494   9.318 -1.4017 -0.2601 -0.3678
  722MOL0     H97418   0.474  -0.417   9.439  0.5550 -1.5297 -2.1747
  722MOL0     H97419   0.295  -0.260   9.503  1.3786  0.7303 -0.6416
  722MOL0     H97420   0.262  -0.432   9.539 -1.2171 -1.4023 -1.3970
  722MOL0     H97421   0.105  -0.585   9.390 -0.5075  0.3862  2.3463
  722MOL0     H97422  -0.139  -0.528   9.112  2.7754  0.3301  0.0791
  722MOL0     H97423  -0.146  -0.629   9.261 -0.2953 -0.0892  0.7260
  722MOL0     H97424  -0.284  -0.351   9.240  1.3366 -0.0490  2.5983
  722MOL0     H97425  -0.297  -0.472   9.364 -0.7512  3.4494  0.0756
  722MOL0     H97426  -0.391  -0.641   9.224  1.2237  0.2835 -0.8345
  722MOL0     H97427  -0.381  -0.540   9.087 -0.4247 -1.7990  0.5350
  722MOL0     H97428  -0.499  -0.364   9.262 -0.7652 -0.7716  2.6429
  722MOL0     H97429  -0.567  -0.514   9.328  1.7387  0.6353  1.0689
  722MOL0     H97430  -0.657  -0.701   9.190 -1.4518  1.3663  1.9131
  722MOL0     H97431  -0.914  -0.923   9.038 -0.6295  1.9077 -1.9090
  722MOL0     H97432  -0.735  -0.955   8.998  1.3259  0.8987 -0.1658
  722MOL0     H97433  -0.783  -0.911   9.162  1.1086  2.6061  0.1224
  722MOL0     H97434  -1.264  -0.644   8.759  0.5281  1.5854 -1.2353
  722MOL0     H97435  -1.446  -0.725   8.627  0.0533 -0.1232  1.5416
  722MOL0     H97436  -1.323  -0.906   8.241  1.4881 -0.5228  1.0593
  722MOL0     H97437  -1.374  -1.057   8.317  0.2215 -0.5549 -0.9112
  722MOL0     H97438  -1.568  -0.874   8.150 -2.7438 -1.6221 -1.4973
  722MOL0     H97439  -1.522  -1.042   8.135  0.0123 -1.0685  1.4227
  722MOL0     H97440  -1.677  -0.889   8.354  0.7713  0.8777 -0.3259
  722MOL0     H97441  -1.629  -1.075   8.350 -3.5627 -1.7826 -1.0594
  722MOL0     H97442  -1.786  -0.919   8.152  1.3165  1.4964  2.2664
  722MOL0     H97443  -1.805  -1.101   8.172  1.5550 -0.4825  0.6983
  722MOL0     H97444  -1.899  -0.873   8.342 -1.6237 -0.5502  2.6505
  722MOL0     H97445  -1.885  -1.024   8.415  1.0896 -1.3399 -0.5234
  722MOL0     H97446  -2.058  -0.939   8.165 -4.8876  2.0549  1.5997
  722MOL0     H97447  -2.024  -1.105   8.203  1.3547  0.4637  0.0144
  722MOL0     H97448  -2.163  -0.914   8.402  0.4581  0.0408  0.8238
  722MOL0     H97449  -2.127  -1.087   8.421  0.8465 -0.0457 -0.4971
  722MOL0     H97450  -2.377  -1.032   8.355 -0.5611  0.8864 -1.6954
  722MOL0     H97451  -2.297  -1.149   8.251  0.2173  0.2780  0.2317
  722MOL0     H97452  -1.184  -0.982   8.411  2.7281  0.7892  1.0793
  722MOL0     H97453  -1.000  -0.896   8.519 -1.6655 -4.1584 -1.8054
  722MOL0     H97454  -0.857  -0.517   8.784  2.3841  2.0591  0.5484
  722MOL0     H97455  -0.733  -0.376   8.912  0.4955  1.1230  2.4552
  722MOL0     H97456   1.070  -0.011   9.915  1.3313 -1.6982 -1.0789
  722MOL0     H97457   1.245   0.175  10.000 -0.7708  2.4255  0.5657
  722MOL0     H97458   1.652   0.382  10.121  0.6237  1.1780  1.1726
  722MOL0     H97459   1.847   0.548  10.084  0.7063 -0.0525 -0.8484
  722MOL0     H97460   1.976   0.617   9.715 -0.7368  0.4855 -0.7516
  722MOL0     H97461   2.055   0.762   9.770  1.5529 -1.7468 -0.1745
  722MOL0     H97462   2.086   0.503   9.931 -0.7087  0.7903  1.0941
  722MOL0     H97463   2.155   0.661   9.954  0.1258 -1.9709  1.7390
  722MOL0     H97464   2.237   0.626   9.698 -4.4064  0.4908 -0.9112
  722MOL0     H97465   2.193   0.456   9.725  1.3129 -0.3522  0.3332
  722MOL0     H97466   2.348   0.436   9.908  2.0406 -2.2125 -1.1784
  722MOL0     H97467   2.386   0.600   9.912 -1.1338 -0.3396  0.5528
  722MOL0     H97468   2.623   0.417   9.600  0.6744  3.9022 -0.6851
  722MOL0     H97469   1.718   0.647   9.703  1.2029 -0.7955  0.7598
  722MOL0     H97470   1.557   0.471   9.698  0.8696  4.4331 -0.5483
  723MOL0     O97471   8.361   4.493  10.014  0.7140 -1.0898  0.4511
  723MOL0     C97472   8.453   4.470   9.937 -0.6522 -0.3510  0.3249
  723MOL0     O97473   8.452   4.407   9.821 -0.3970  0.1213 -0.1553
  723MOL0     C97474   8.329   4.373   9.783  0.4560  0.2493  0.1830
  723MOL0     C97475   8.240   4.473   9.731 -0.3464 -0.1669  0.2284
  723MOL0     C97476   8.107   4.442   9.705 -0.6950  0.2486 -0.7054
  723MOL0     C97477   8.062   4.313   9.721 -0.2522 -0.3687  0.0618
  723MOL0     O97478   7.935   4.263   9.702  0.5304 -0.1379  0.4245
  723MOL0     C97479   7.832   4.350   9.652  0.2232 -0.6394 -0.6422
  723MOL0     C97480   7.697   4.264   9.654  0.6760 -0.1525 -0.9265
  723MOL0     C97481   7.571   4.357   9.645  0.0141 -0.9036  0.5917
  723MOL0     C97482   7.442   4.280   9.700 -0.1349  0.7658  0.2822
  723MOL0     C97483   7.320   4.365   9.675  0.1954  0.9153 -0.6103
  723MOL0     C97484   7.197   4.313   9.758 -0.9236  0.6188 -0.0772
  723MOL0     C97485   7.079   4.398   9.751 -0.4101 -0.0001  0.1220
  723MOL0     C97486   6.988   4.384   9.627  0.0732  0.3820  0.0832
  723MOL0     N97487   6.898   4.498   9.653  0.5437  0.5367  0.3327
  723MOL0     C97488   6.779   4.495   9.724 -0.3066 -0.0043  0.5224
  723MOL0     C97489   6.739   4.621   9.722  0.9731  0.6916 -0.6234
  723MOL0     C97490   6.604   4.670   9.770 -0.3875  0.2227  0.4500
  723MOL0     C97491   6.479   4.625   9.691  1.1169  0.3713 -0.5126
  723MOL0     C97492   6.352   4.680   9.759 -0.2183  0.6592  0.4049
  723MOL0     C97493   6.237   4.648   9.664 -0.6638  1.0725  0.3122
  723MOL0     O97494   6.112   4.663   9.732 -0.0659 -0.9470 -0.5642
  723MOL0     C97495   5.995   4.612   9.688  0.4368 -0.4541  0.3230
  723MOL0     C97496   5.974   4.561   9.565 -1.2951  0.0264  0.2638
  723MOL0     C97497   5.850   4.526   9.520  0.4406  0.5382  0.8349
  723MOL0     C97498   5.829   4.469   9.383 -0.2050 -0.3110  0.2646
  723MOL0     C97499   5.736   4.517   9.622 -0.2350 -0.8105  0.2751
  723MOL0     C97500   5.599   4.483   9.593  0.0811  0.3735  0.0725
  723MOL0     O97501   5.531   4.409   9.689 -0.3767 -0.3047  0.2110
  723MOL0     C97502   5.410   4.357   9.656  0.3983  1.2264  0.9268
  723MOL0     C97503   5.390   4.218   9.677 -0.4256  0.5001  0.3789
  723MOL0     C97504   5.278   4.151   9.644 -0.3611  0.7628  0.4543
  723MOL0     C97505   5.168   4.229   9.604  0.1197 -0.4804 -1.4702
  723MOL0     O97506   5.040   4.182   9.590  0.2672 -0.1566 -1.2435
  723MOL0     C97507   5.016   4.048   9.656  1.2681 -0.7317  0.2713
  723MOL0     C97508   4.862   4.023   9.670  0.9442 -0.2949  0.0170
  723MOL0     C97509   4.781   4.020   9.538 -0.2154  0.2980 -0.6493
  723MOL0     C97510   4.629   3.990   9.556  0.5376  0.2727 -0.6411
  723MOL0     C97511   4.541   4.091   9.622  0.2271 -0.3512 -0.3006
  723MOL0     C97512   4.390   4.076   9.582  0.2922  0.4713  1.2346
  723MOL0     C97513   4.302   4.191   9.625 -0.4675  0.0041  0.3294
  723MOL0     C97514   4.316   4.234   9.774  0.2954 -0.3416  0.6376
  723MOL0    Cl97515   4.192   4.360   9.818 -0.0907 -0.5914  0.3725
  723MOL0     C97516   5.176   4.365   9.589 -0.3864  0.1139  0.0709
  723MOL0     C97517   5.303   4.438   9.613 -0.0246 -0.0950  0.5129
  723MOL0     O97518   5.547   4.520   9.490  0.0523 -0.2425  1.0495
  723MOL0     C97519   5.777   4.547   9.755  0.1545 -1.1142  0.2320
  723MOL0     C97520   5.889   4.617   9.775 -0.1712 -0.3306 -0.4272
  723MOL0     N97521   6.828   4.703   9.659  0.2615 -0.0256 -0.3259
  723MOL0     N97522   6.912   4.621   9.604 -0.4425  0.1355 -0.1287
  723MOL0     C97523   8.151   4.214   9.774 -0.1970 -0.1789  0.0024
  723MOL0     C97524   8.278   4.249   9.800  0.0147  0.2198  0.0599
  723MOL0     C97525   8.582   4.538   9.957 -0.0876 -0.2763 -0.4592
  723MOL0     C97526   8.692   4.518   9.864  0.1079 -0.3326  0.0029
  723MOL0     C97527   8.811   4.590   9.871  0.0836 -0.6017  1.0111
  723MOL0     C97528   8.822   4.678   9.983  0.1039  1.1120 -0.2585
  723MOL0     O97529   8.928   4.763  10.001 -0.3851  0.6384 -0.0958
  723MOL0     C97530   8.983   4.824   9.880  0.0923  0.0272  0.1660
  723MOL0     C97531   9.051   4.952   9.923 -0.6771  0.6517  0.4214
  723MOL0     C97532   9.098   5.055   9.818  1.0556 -0.2581 -0.6455
  723MOL0     C97533   9.185   5.150   9.903 -0.2182 -0.1033  0.6523
  723MOL0     C97534   9.225   5.262   9.815  0.6292 -0.4036  0.1184
  723MOL0     C97535   9.242   5.373   9.763  0.2629  0.1904  0.0921
  723MOL0     C97536   8.723   4.686  10.080 -0.4470 -0.6971 -0.3814
  723MOL0     C97537   8.607   4.614  10.075 -0.2698 -0.4938 -0.2722
  723MOL0     H97538   8.270   4.577   9.725  2.6129 -0.7432  2.5906
  723MOL0     H97539   8.028   4.510   9.675 -2.3997 -0.5750  1.6572
  723MOL0     H97540   7.827   4.447   9.702  1.3775 -0.2100 -1.3182
  723MOL0     H97541   7.851   4.375   9.547 -0.7092 -0.2847 -0.7412
  723MOL0     H97542   7.705   4.198   9.567  1.7135  1.3300 -2.0114
  723MOL0     H97543   7.688   4.202   9.744  1.9292 -0.9933 -1.3552
  723MOL0     H97544   7.580   4.435   9.721 -1.8182 -0.8726  0.8429
  723MOL0     H97545   7.550   4.397   9.546 -0.2537  0.2661  1.1023
  723MOL0     H97546   7.439   4.191   9.637  0.0889 -0.3099  1.7265
  723MOL0     H97547   7.454   4.249   9.804  3.2183 -1.5211 -0.6211
  723MOL0     H97548   7.337   4.467   9.710  1.4571  0.2277  0.9179
  723MOL0     H97549   7.307   4.368   9.567  0.2388 -1.1928 -0.7171
  723MOL0     H97550   7.167   4.215   9.719 -2.8630  0.6605  1.1704
  723MOL0     H97551   7.221   4.307   9.864 -0.8153 -0.3884 -0.1560
  723MOL0     H97552   7.028   4.372   9.845  2.1406  1.6667  2.1097
  723MOL0     H97553   7.125   4.497   9.751 -0.0822 -0.1093 -2.3055
  723MOL0     H97554   6.943   4.285   9.625 -0.3054  0.5598 -1.6182
  723MOL0     H97555   7.051   4.408   9.541 -0.9435 -0.0779 -0.8184
  723MOL0     H97556   6.731   4.406   9.765  0.5528  0.2974  2.3011
  723MOL0     H97557   6.603   4.653   9.878 -1.8713 -0.2724  0.3714
  723MOL0     H97558   6.612   4.778   9.751  2.2780 -0.1129 -0.8921
  723MOL0     H97559   6.493   4.517   9.685  1.5315  0.4848 -2.1036
  723MOL0     H97560   6.489   4.664   9.589 -4.1141 -0.8769 -1.8074
  723MOL0     H97561   6.361   4.785   9.789 -0.1855  0.5915  0.6344
  723MOL0     H97562   6.335   4.635   9.858  0.3594 -0.8031 -0.1362
  723MOL0     H97563   6.251   4.557   9.606 -0.4358  2.1242 -1.3405
  723MOL0     H97564   6.247   4.717   9.580 -0.5519 -2.5518 -2.9344
  723MOL0     H97565   6.053   4.549   9.491 -3.0339 -1.1131 -1.5214
  723MOL0     H97566   5.785   4.544   9.317  2.2338 -1.1608 -2.5864
  723MOL0     H97567   5.922   4.442   9.332 -0.4943  0.0124 -0.4415
  723MOL0     H97568   5.772   4.375   9.378 -0.6210 -0.4728  4.2866
  723MOL0     H97569   5.481   4.160   9.690  0.6170  1.7556 -0.9586
  723MOL0     H97570   5.264   4.043   9.641 -0.7510  0.8263 -0.8957
  723MOL0     H97571   5.055   3.970   9.590  0.7535 -0.0851 -0.8041
  723MOL0     H97572   5.063   4.036   9.755 -2.9216 -1.8673  2.3614
  723MOL0     H97573   4.842   3.931   9.726 -0.9148  0.3084  0.4241
  723MOL0     H97574   4.820   4.101   9.734 -3.0711 -2.2213  0.0480
  723MOL0     H97575   4.821   3.947   9.467 -1.4498 -0.2723 -0.7876
  723MOL0     H97576   4.789   4.110   9.476 -0.7267  0.5596 -0.3424
  723MOL0     H97577   4.593   3.985   9.453 -0.6260 -0.8178 -0.2172
  723MOL0     H97578   4.625   3.894   9.610  0.1043 -0.1789 -1.4570
  723MOL0     H97579   4.570   4.192   9.591 -0.4118  0.3114  1.1868
  723MOL0     H97580   4.551   4.093   9.731  0.9306  0.7013 -0.3683
  723MOL0     H97581   4.378   4.080   9.473  1.6330 -3.6455  0.7432
  723MOL0     H97582   4.357   3.975   9.610  0.9144 -0.8541 -2.2515
  723MOL0     H97583   4.201   4.151   9.614 -0.7932  0.4114  1.6132
  723MOL0     H97584   4.325   4.282   9.569  2.2512 -0.5529  0.3987
  723MOL0     H97585   4.416   4.261   9.810  0.6089  2.3042 -1.8084
  723MOL0     H97586   4.285   4.155   9.843 -0.3238  0.1514  0.9351
  723MOL0     H97587   5.083   4.418   9.571 -1.2467 -1.0119  1.0736
  723MOL0     H97588   5.295   4.546   9.605 -2.4303 -0.0088  2.6927
  723MOL0     H97589   5.706   4.549   9.837 -0.8283  3.2282 -0.4659
  723MOL0     H97590   5.922   4.651   9.872 -0.7537  4.8277 -1.7420
  723MOL0     H97591   8.109   4.116   9.793 -2.0986  1.0566  2.9481
  723MOL0     H97592   8.339   4.178   9.854  0.1932  0.0795 -0.3252
  723MOL0     H97593   8.674   4.454   9.779 -1.2492  0.6300 -0.4570
  723MOL0     H97594   8.898   4.574   9.808 -0.3279 -2.5048  0.8653
  723MOL0     H97595   9.061   4.760   9.837  1.6585  1.2582  1.0924
  723MOL0     H97596   8.904   4.856   9.811  2.8197  2.2349 -2.1628
  723MOL0     H97597   9.145   4.929   9.975 -0.7814  0.2468  0.4357
  723MOL0     H97598   8.980   4.999   9.990 -0.9220  3.2084 -1.4561
  723MOL0     H97599   9.014   5.107   9.771 -0.8525 -2.0988  0.5473
  723MOL0     H97600   9.166   5.010   9.746 -0.2734 -1.1792 -1.3733
  723MOL0     H97601   9.271   5.099   9.946 -1.2873 -1.9657  0.6677
  723MOL0     H97602   9.143   5.197   9.993  1.9747  0.6010  1.3760
  723MOL0     H97603   9.274   5.469   9.728  1.7740  0.2915  1.6233
  723MOL0     H97604   8.738   4.741  10.172 -0.7726 -2.3658  0.6965
  723MOL0     H97605   8.535   4.622  10.156 -0.1543 -1.6040 -0.0380
  724MOL0     O97606   6.443   5.804   1.510  0.2023  0.2895  0.4273
  724MOL0     C97607   6.525   5.732   1.567  1.0866 -0.3177  0.2156
  724MOL0     O97608   6.507   5.603   1.602 -0.0762  0.0667  0.0681
  724MOL0     C97609   6.386   5.544   1.571  0.6644 -0.9033  0.2741
  724MOL0     C97610   6.316   5.480   1.665  0.3462 -0.3363 -0.2885
  724MOL0     C97611   6.206   5.403   1.640 -0.3268 -0.2404 -0.2064
  724MOL0     C97612   6.147   5.401   1.517 -0.6698 -0.8992 -0.1169
  724MOL0     O97613   6.035   5.337   1.505  0.3954 -0.1606 -0.2225
  724MOL0     C97614   5.956   5.369   1.393 -0.3683 -0.8072  0.7159
  724MOL0     C97615   5.825   5.297   1.422 -0.7302 -0.4466  0.1434
  724MOL0     C97616   5.709   5.326   1.327  0.2512 -0.3831 -1.4541
  724MOL0     C97617   5.589   5.249   1.368  0.2802  0.8111 -0.1448
  724MOL0     C97618   5.482   5.234   1.262  0.5287  0.9210  0.2569
  724MOL0     C97619   5.371   5.150   1.318 -0.0856  0.4680  0.2291
  724MOL0     C97620   5.238   5.160   1.240 -0.8478  0.2330 -0.0898
  724MOL0     C97621   5.158   5.035   1.251  0.1736  0.6098  0.1903
  724MOL0     N97622   5.016   5.072   1.268  0.2408 -0.2689 -1.1827
  724MOL0     C97623   4.935   5.116   1.172 -0.4790  0.2738 -0.3545
  724MOL0     C97624   4.817   5.149   1.223  0.0893  0.1136 -0.1848
  724MOL0     C97625   4.695   5.193   1.160  0.5129 -0.0578  0.2005
  724MOL0     C97626   4.651   5.329   1.225  0.2430 -0.0716  0.2545
  724MOL0     C97627   4.503   5.373   1.181 -0.0000  0.2008 -0.1778
  724MOL0     C97628   4.390   5.292   1.248  0.3143  0.5316 -0.5561
  724MOL0     O97629   4.259   5.346   1.220 -0.3086 -0.2298 -0.4333
  724MOL0     C97630   4.145   5.297   1.268  0.1815 -0.1146 -0.4583
  724MOL0     C97631   4.051   5.395   1.300  0.2979  0.6486 -1.4491
  724MOL0     C97632   3.933   5.366   1.374 -0.0880 -0.2984  0.0165
  724MOL0     C97633   3.829   5.479   1.392  0.1214  0.3158 -0.0848
  724MOL0     C97634   3.917   5.235   1.424  0.2196 -0.4987  0.4163
  724MOL0     C97635   3.802   5.209   1.500  0.7342 -0.4669 -0.1461
  724MOL0     O97636   3.794   5.273   1.623  0.4616  0.3194 -0.6042
  724MOL0     C97637   3.670   5.276   1.682 -0.3172 -0.0481  0.6084
  724MOL0     C97638   3.625   5.172   1.761  0.8105  0.6426  0.0246
  724MOL0     C97639   3.491   5.169   1.824  0.0141 -0.7803 -0.5512
  724MOL0     C97640   3.411   5.283   1.794 -0.4095  0.3410 -0.0668
  724MOL0     O97641   3.279   5.285   1.838  0.0310  0.1550 -0.0949
  724MOL0     C97642   3.221   5.192   1.934  0.1691  0.6484 -0.0785
  724MOL0     C97643   3.073   5.217   1.954  0.2762  0.6240  0.8375
  724MOL0     C97644   2.983   5.178   1.844  0.9803  0.6389 -0.0089
  724MOL0     C97645   2.838   5.188   1.877  0.6400 -0.1760  0.5422
  724MOL0     C97646   2.802   5.053   1.930 -0.1260  0.3238 -0.9647
  724MOL0     C97647   2.652   5.045   1.968 -0.4688 -0.5536 -0.4205
  724MOL0     C97648   2.604   5.141   2.077  0.0197  0.2325  0.9316
  724MOL0     C97649   2.475   5.105   2.145  0.0534  0.0858  0.3567
  724MOL0    Cl97650   2.413   5.245   2.247 -0.2978 -0.2177 -0.0076
  724MOL0     C97651   3.450   5.372   1.698  1.0479 -0.2582 -0.3412
  724MOL0     C97652   3.583   5.374   1.641  0.0210 -0.1997 -0.2599
  724MOL0     O97653   3.724   5.122   1.464 -0.8819  0.0258  0.1456
  724MOL0     C97654   4.013   5.141   1.387  0.0801  1.3882  0.4117
  724MOL0     C97655   4.130   5.169   1.313  0.0054  0.8002  0.6170
  724MOL0     N97656   4.827   5.125   1.359 -0.0390 -0.0251 -0.5393
  724MOL0     N97657   4.944   5.087   1.385 -0.7065  0.2270 -0.6811
  724MOL0     C97658   6.215   5.462   1.409  0.0513  0.6257 -0.3119
  724MOL0     C97659   6.332   5.530   1.433  0.5303  0.3400  0.4649
  724MOL0     C97660   6.657   5.795   1.605 -0.3070 -0.3813 -0.1997
  724MOL0     C97661   6.672   5.933   1.583  0.0910  0.1065 -0.1923
  724MOL0     C97662   6.789   5.998   1.629 -0.1777 -0.2114 -0.5013
  724MOL0     C97663   6.895   5.933   1.699  0.1378 -0.4413  0.2467
  724MOL0     O97664   6.991   6.025   1.747 -0.2875 -0.4534  0.6551
  724MOL0     C97665   7.105   5.976   1.817 -0.0303 -0.1314 -1.7448
  724MOL0     C97666   7.076   5.997   1.970  0.7291 -0.4254  0.1410
  724MOL0     C97667   7.193   5.936   2.041 -0.6662  0.0608  0.0067
  724MOL0     C97668   7.323   6.007   2.043 -0.1055  0.5575  0.2862
  724MOL0     C97669   7.339   6.112   2.147 -0.1037 -0.0994  0.4710
  724MOL0     C97670   7.359   6.191   2.232  0.1542 -0.5344  0.5113
  724MOL0     C97671   6.883   5.790   1.704  0.5400  0.6430 -0.0037
  724MOL0     C97672   6.763   5.722   1.661 -0.9857 -0.3873  0.4971
  724MOL0     H97673   6.366   5.483   1.761  1.9739 -1.4708 -1.0389
  724MOL0     H97674   6.152   5.370   1.729  1.4192 -0.7124  0.7144
  724MOL0     H97675   5.943   5.478   1.389 -0.5725 -0.8109  1.2848
  724MOL0     H97676   5.996   5.330   1.299 -0.9683 -1.3448  0.6836
  724MOL0     H97677   5.844   5.190   1.409 -0.2408 -0.8321  3.2136
  724MOL0     H97678   5.808   5.302   1.530 -0.0493 -2.7334  0.3919
  724MOL0     H97679   5.683   5.433   1.329 -1.9100 -0.8292 -2.4046
  724MOL0     H97680   5.746   5.303   1.227 -0.4059 -0.1457 -1.7622
  724MOL0     H97681   5.616   5.147   1.399 -3.1147 -0.5608 -1.2094
  724MOL0     H97682   5.545   5.291   1.459  0.6526  0.1591  0.3521
  724MOL0     H97683   5.450   5.330   1.220  0.0397  1.1652  1.1500
  724MOL0     H97684   5.531   5.184   1.178 -0.1632  1.9378 -0.7684
  724MOL0     H97685   5.416   5.050   1.309 -0.6331  0.3314 -1.3183
  724MOL0     H97686   5.362   5.176   1.424  1.8267 -0.4210  0.6670
  724MOL0     H97687   5.180   5.246   1.278 -2.7823 -1.2653  0.4927
  724MOL0     H97688   5.261   5.183   1.136 -0.8615 -1.1973 -0.4247
  724MOL0     H97689   5.191   4.969   1.331  2.4164 -0.8826 -1.8243
  724MOL0     H97690   5.179   4.970   1.165  1.4120  1.0226  0.1718
  724MOL0     H97691   4.964   5.096   1.069 -0.8230  0.9990 -0.5986
  724MOL0     H97692   4.708   5.208   1.052  2.8911 -0.6514  0.3692
  724MOL0     H97693   4.619   5.117   1.180  2.0157 -1.1172  2.1844
  724MOL0     H97694   4.723   5.406   1.194 -0.8692  1.1396  0.5620
  724MOL0     H97695   4.650   5.308   1.332  1.2952 -2.2819 -0.1099
  724MOL0     H97696   4.503   5.366   1.072  4.1027 -0.1277 -0.3265
  724MOL0     H97697   4.491   5.477   1.215  2.2784  0.9218 -1.4145
  724MOL0     H97698   4.412   5.284   1.354  3.0420 -1.2396 -1.1397
  724MOL0     H97699   4.390   5.191   1.206  0.4334  0.6844 -0.9335
  724MOL0     H97700   4.060   5.495   1.260 -3.5815  1.5806 -0.4560
  724MOL0     H97701   3.848   5.552   1.313  0.5677 -0.9263 -1.1689
  724MOL0     H97702   3.736   5.433   1.359  1.0952 -1.2103 -0.8542
  724MOL0     H97703   3.833   5.517   1.494  1.0677  0.8233 -0.2967
  724MOL0     H97704   3.686   5.083   1.775  0.9818  0.6066 -0.9058
  724MOL0     H97705   3.453   5.089   1.887  3.9242 -1.7205  0.8764
  724MOL0     H97706   3.235   5.092   1.892 -0.8529  0.3530  0.2477
  724MOL0     H97707   3.267   5.201   2.033  0.4116  0.7422 -0.1982
  724MOL0     H97708   3.047   5.155   2.041 -2.3695 -0.2794 -0.4893
  724MOL0     H97709   3.058   5.322   1.980  1.8705  0.9609  0.5052
  724MOL0     H97710   3.015   5.080   1.807  2.2380  1.1284 -0.2422
  724MOL0     H97711   3.005   5.237   1.755 -0.1612 -2.5152 -2.5658
  724MOL0     H97712   2.821   5.270   1.947  3.1829  2.0742 -1.2635
  724MOL0     H97713   2.777   5.208   1.788  1.1765  0.3218  0.2841
  724MOL0     H97714   2.858   5.027   2.020 -0.4680  0.5994 -0.6697
  724MOL0     H97715   2.813   4.973   1.856 -1.7737 -0.5076 -0.3743
  724MOL0     H97716   2.595   5.076   1.880 -0.4182  2.1254  0.3723
  724MOL0     H97717   2.623   4.943   1.994 -2.1082  0.7000  3.3080
  724MOL0     H97718   2.608   5.237   2.025 -1.6343 -1.0041 -1.6973
  724MOL0     H97719   2.686   5.132   2.149  4.8932  0.3575 -3.9263
  724MOL0     H97720   2.493   5.015   2.204  2.7372 -0.6463 -1.4340
  724MOL0     H97721   2.394   5.078   2.077 -0.9193 -1.4112  2.0108
  724MOL0     H97722   3.380   5.450   1.672  0.7518  0.1889  1.6959
  724MOL0     H97723   3.616   5.452   1.574  1.2605  0.8040  1.4350
  724MOL0     H97724   3.990   5.038   1.413 -1.6100  1.5174 -0.4462
  724MOL0     H97725   4.207   5.096   1.289 -2.3684 -0.7411 -3.2856
  724MOL0     H97726   6.171   5.448   1.311 -2.6338 -1.0266  1.0095
  724MOL0     H97727   6.377   5.582   1.349 -1.2740 -0.8122 -1.2958
  724MOL0     H97728   6.587   5.985   1.540 -2.3487 -1.6218  2.2089
  724MOL0     H97729   6.803   6.105   1.617 -0.2549 -0.1860 -0.3664
  724MOL0     H97730   7.129   5.873   1.791 -0.5030 -0.6598 -0.2053
  724MOL0     H97731   7.185   6.045   1.790  1.8112 -0.5781  1.9859
  724MOL0     H97732   6.982   5.942   1.978  0.1242 -0.3203 -3.8015
  724MOL0     H97733   7.052   6.098   2.005  3.2715 -0.1456  1.2183
  724MOL0     H97734   7.211   5.845   1.982 -3.2475 -1.1180  0.8950
  724MOL0     H97735   7.175   5.897   2.141  2.3699 -1.3601  0.1240
  724MOL0     H97736   7.342   6.045   1.943  0.0924 -1.8982 -0.6968
  724MOL0     H97737   7.400   5.931   2.061  0.5417  0.9511 -0.7607
  724MOL0     H97738   7.385   6.268   2.302 -0.8084 -0.0783  0.3862
  724MOL0     H97739   6.959   5.725   1.744 -1.1670 -0.1845  2.1111
  724MOL0     H97740   6.759   5.614   1.670  2.3984 -0.5892  0.6754
  725MOL0     O97741   3.298   8.715   5.481 -0.3629 -0.6711  0.3394
  725MOL0     C97742   3.368   8.706   5.583 -0.0933  0.1328  0.0355
  725MOL0     O97743   3.369   8.796   5.691 -0.2056  0.1379 -0.8414
  725MOL0     C97744   3.291   8.900   5.682  0.3630 -0.2727  0.3225
  725MOL0     C97745   3.339   9.033   5.705 -0.6314  0.3921  0.0001
  725MOL0     C97746   3.268   9.148   5.701  0.1793  1.4252  0.3582
  725MOL0     C97747   3.123   9.142   5.674  0.3435 -0.1138  0.3535
  725MOL0     O97748   3.048   9.259   5.651  0.3591  0.0328 -1.2067
  725MOL0     C97749   2.901   9.245   5.654 -1.3761 -0.2893  0.2490
  725MOL0     C97750   2.850   9.388   5.642 -0.8290  0.3149 -0.4416
  725MOL0     C97751   2.824   9.444   5.780  0.1473  0.3360 -0.4945
  725MOL0     C97752   2.788   9.585   5.801 -0.4093 -0.3108  0.7290
  725MOL0     C97753   2.771   9.645   5.946 -0.0578  0.6015  0.0779
  725MOL0     C97754   2.635   9.589   6.004  0.2780 -0.9207 -0.8555
  725MOL0     C97755   2.613   9.649   6.143 -0.0268  0.0866 -0.2989
  725MOL0     C97756   2.484   9.598   6.223 -0.5308  0.9946  0.1102
  725MOL0     N97757   2.386   9.702   6.205  0.0837 -0.3119  0.2734
  725MOL0     C97758   2.334   9.759   6.087 -0.2674 -0.7126  0.4603
  725MOL0     C97759   2.245   9.853   6.123  0.8281 -0.9122  0.6681
  725MOL0     C97760   2.162   9.943   6.044  0.5027 -0.5001 -0.1935
  725MOL0     C97761   2.024   9.892   5.998  0.0369 -0.0834 -0.5643
  725MOL0     C97762   1.927   9.843   6.108  1.1811  0.1916  0.4450
  725MOL0     C97763   1.772   9.843   6.073  0.2751 -0.1236  0.2826
  725MOL0     O97764   1.741   9.726   5.997  0.2777 -0.4964  0.6550
  725MOL0     C97765   1.612   9.716   5.959 -0.8637 -0.0123 -0.4862
  725MOL0     C97766   1.567   9.586   5.914 -0.3680  0.2934  0.2614
  725MOL0     C97767   1.433   9.564   5.868 -0.5816 -0.0009 -0.5521
  725MOL0     C97768   1.410   9.423   5.814  0.3519  0.1281 -0.0180
  725MOL0     C97769   1.344   9.671   5.843 -1.3822  0.5340 -0.3173
  725MOL0     C97770   1.200   9.648   5.812  0.0116  0.3476 -0.4809
  725MOL0     O97771   1.127   9.760   5.797  0.0243 -0.9419  0.6242
  725MOL0     C97772   0.989   9.755   5.784 -0.6252 -1.0101 -0.8090
  725MOL0     C97773   0.917   9.743   5.912  0.0552 -0.3111  1.4025
  725MOL0     C97774   0.781   9.730   5.914  0.4842  0.2194 -0.3054
  725MOL0     C97775   0.711   9.738   5.791  0.1759 -0.4188 -0.0489
  725MOL0     O97776   0.574   9.732   5.781  0.2799  0.4894 -0.1051
  725MOL0     C97777   0.481   9.770   5.888  0.4381  0.4143  0.3939
  725MOL0     C97778   0.439   9.653   5.972  0.2682  1.0861  0.5259
  725MOL0     C97779   0.327   9.579   5.888 -0.0240 -0.3849 -0.0618
  725MOL0     C97780   0.195   9.646   5.910  0.2900 -0.5822  0.0202
  725MOL0     C97781   0.089   9.572   5.826  0.1802 -0.8269 -0.0669
  725MOL0     C97782  -0.048   9.614   5.865  0.8403  0.0575  0.5076
  725MOL0     C97783  -0.144   9.513   5.790  1.4073 -0.8138  0.1802
  725MOL0     C97784  -0.294   9.548   5.792  0.0930  0.7076 -1.0587
  725MOL0    Cl97785  -0.323   9.695   5.708  0.2624 -0.1015  0.2603
  725MOL0     C97786   0.782   9.759   5.673 -0.1466  0.1224 -0.6907
  725MOL0     C97787   0.921   9.777   5.668 -0.9121 -0.3847 -0.6128
  725MOL0     O97788   1.151   9.535   5.826  0.3889 -0.2031  0.3041
  725MOL0     C97789   1.398   9.797   5.875  0.2076 -0.6463  0.1827
  725MOL0     C97790   1.530   9.825   5.927  0.1384 -0.1649  0.1196
  725MOL0     N97791   2.255   9.869   6.262  0.5325 -0.9143 -0.2605
  725MOL0     N97792   2.333   9.778   6.300  0.0784 -0.6239  0.0783
  725MOL0     C97793   3.071   9.010   5.671 -0.1270  0.5571  0.3176
  725MOL0     C97794   3.151   8.893   5.680  0.1676 -0.4018 -0.3189
  725MOL0     C97795   3.462   8.589   5.570 -0.5310  0.1340 -0.2315
  725MOL0     C97796   3.487   8.514   5.447 -0.1030  0.2389 -0.3220
  725MOL0     C97797   3.595   8.423   5.443  0.0364  0.0398 -0.3872
  725MOL0     C97798   3.670   8.393   5.552 -0.1183  0.0066 -0.3920
  725MOL0     O97799   3.774   8.307   5.550 -0.5929  0.0475  0.3155
  725MOL0     C97800   3.815   8.259   5.423 -0.1581 -0.1169 -0.3129
  725MOL0     C97801   3.953   8.178   5.434 -0.0158 -0.3035  0.0335
  725MOL0     C97802   4.069   8.258   5.479 -0.4901 -0.4290 -0.1390
  725MOL0     C97803   4.189   8.188   5.544 -0.0274  0.5838  0.5074
  725MOL0     C97804   4.284   8.281   5.601 -0.1839 -0.6016  0.3149
  725MOL0     C97805   4.361   8.365   5.629 -0.1581  0.1198  0.3859
  725MOL0     C97806   3.645   8.457   5.672 -0.0606 -0.9454 -0.2596
  725MOL0     C97807   3.535   8.551   5.688  0.6062  0.5691 -0.1772
  725MOL0     H97808   3.445   9.038   5.729 -0.4329  2.6268 -1.1362
  725MOL0     H97809   3.315   9.244   5.717  2.6144  0.1175  1.7655
  725MOL0     H97810   2.879   9.184   5.566  0.7241  0.5350 -0.9185
  725MOL0     H97811   2.873   9.201   5.750  0.9019  1.4249  1.8119
  725MOL0     H97812   2.931   9.444   5.595  2.4528 -1.5316  2.5591
  725MOL0     H97813   2.755   9.393   5.588 -1.0737  0.9698  0.0320
  725MOL0     H97814   2.744   9.383   5.823  3.0283 -3.4195  0.0683
  725MOL0     H97815   2.917   9.422   5.832  0.4836  0.2161 -1.1350
  725MOL0     H97816   2.857   9.653   5.750 -0.8323 -0.5158 -0.1428
  725MOL0     H97817   2.696   9.604   5.746 -0.0740  0.4743  0.4263
  725MOL0     H97818   2.850   9.611   6.014  0.8111  0.3550 -1.0223
  725MOL0     H97819   2.780   9.753   5.933  1.4785  0.4923  0.0226
  725MOL0     H97820   2.541   9.604   5.950  0.5300 -2.4158 -1.7475
  725MOL0     H97821   2.653   9.481   6.009  3.3625 -0.5383 -1.6278
  725MOL0     H97822   2.693   9.618   6.211 -0.5733  1.2472  0.9152
  725MOL0     H97823   2.606   9.758   6.138  1.6243  0.2068 -0.2572
  725MOL0     H97824   2.504   9.592   6.331  2.8874  1.3017 -0.3987
  725MOL0     H97825   2.453   9.501   6.185 -0.9149 -0.0250  2.7771
  725MOL0     H97826   2.346   9.729   5.983  1.1211 -0.5365  0.5467
  725MOL0     H97827   2.155  10.036   6.103 -0.8256 -0.4964 -0.3318
  725MOL0     H97828   2.209   9.972   5.950 -1.8111  1.3297 -0.8961
  725MOL0     H97829   2.032   9.818   5.918 -2.7818  2.0104 -3.0291
  725MOL0     H97830   1.980   9.982   5.954 -1.7364  0.5570  2.2644
  725MOL0     H97831   1.957   9.900   6.197  2.1299  0.0594  0.2168
  725MOL0     H97832   1.960   9.744   6.140  0.5387  0.3673  1.7158
  725MOL0     H97833   1.745   9.935   6.021 -2.1055  1.6702  4.2368
  725MOL0     H97834   1.703   9.851   6.158 -0.4739 -0.1229 -0.3167
  725MOL0     H97835   1.640   9.507   5.923 -1.2300 -0.4249  1.1249
  725MOL0     H97836   1.473   9.345   5.857 -1.3246 -1.2895  0.0065
  725MOL0     H97837   1.313   9.382   5.844  0.7396 -0.8980 -0.0987
  725MOL0     H97838   1.412   9.422   5.704  0.9840 -1.7369 -0.0195
  725MOL0     H97839   0.979   9.745   6.001 -0.5412  2.9533  1.8428
  725MOL0     H97840   0.733   9.713   6.010  1.9074 -0.9325  0.2241
  725MOL0     H97841   0.530   9.839   5.957  1.5956 -0.5167  0.5250
  725MOL0     H97842   0.403   9.825   5.835  1.3033  1.3872  0.0784
  725MOL0     H97843   0.516   9.582   6.001 -2.9140 -2.9652 -0.0608
  725MOL0     H97844   0.386   9.672   6.066 -0.9621 -0.1923  0.1189
  725MOL0     H97845   0.318   9.472   5.912 -1.4195 -0.2869 -0.0693
  725MOL0     H97846   0.341   9.584   5.780 -1.9080  2.8865 -0.3098
  725MOL0     H97847   0.171   9.651   6.017 -1.6735 -1.5293 -0.3137
  725MOL0     H97848   0.190   9.750   5.876 -0.5389 -0.4655  0.4820
  725MOL0     H97849   0.085   9.463   5.831 -3.6826 -1.0006 -2.3685
  725MOL0     H97850   0.105   9.605   5.723  2.7046 -1.8682 -0.0675
  725MOL0     H97851  -0.074   9.617   5.972 -1.1380  2.3620  0.0439
  725MOL0     H97852  -0.073   9.709   5.818 -1.8113 -2.3011 -3.4626
  725MOL0     H97853  -0.140   9.416   5.842  0.8381 -1.4564 -0.9414
  725MOL0     H97854  -0.113   9.502   5.686  1.7608 -0.1141  0.2082
  725MOL0     H97855  -0.330   9.561   5.895  2.7513 -1.0783  0.2282
  725MOL0     H97856  -0.346   9.472   5.734  1.5056  0.1735 -1.6743
  725MOL0     H97857   0.726   9.758   5.580 -0.5752 -1.8930 -0.4420
  725MOL0     H97858   0.960   9.790   5.568  0.4714 -1.5096 -0.2492
  725MOL0     H97859   1.324   9.874   5.856  1.0724  0.0356 -0.4756
  725MOL0     H97860   1.551   9.929   5.949  1.0133 -0.8268  2.7740
  725MOL0     H97861   2.963   9.000   5.668 -0.0173 -0.8401  0.3407
  725MOL0     H97862   3.098   8.799   5.677 -1.0913  0.2960 -0.4037
  725MOL0     H97863   3.431   8.518   5.354  0.0125 -0.7186 -0.4426
  725MOL0     H97864   3.605   8.374   5.347  4.4882 -0.2923  0.0581
  725MOL0     H97865   3.740   8.200   5.370 -0.3425 -1.0856  0.9717
  725MOL0     H97866   3.840   8.345   5.360  1.2917  0.2191  0.6674
  725MOL0     H97867   3.966   8.146   5.331 -0.2629  1.9093 -0.7485
  725MOL0     H97868   3.943   8.085   5.490 -2.2853  0.0003  0.2070
  725MOL0     H97869   4.033   8.339   5.542 -0.0472 -0.5334  0.2535
  725MOL0     H97870   4.111   8.313   5.394 -0.3059  0.7193  0.6703
  725MOL0     H97871   4.250   8.119   5.486 -1.1367 -0.5306  0.6373
  725MOL0     H97872   4.146   8.135   5.630  0.5712 -0.1894  0.3395
  725MOL0     H97873   4.436   8.432   5.666 -1.0323  0.3986  1.7782
  725MOL0     H97874   3.705   8.454   5.763 -1.3367  0.4954  0.6630
  725MOL0     H97875   3.513   8.607   5.778 -1.2219  0.1772 -0.3433
  726MOL0     O97876   5.893   2.365   3.679  0.5065 -0.0704 -0.1098
  726MOL0     C97877   5.867   2.475   3.704  0.3462 -0.4506  0.0244
  726MOL0     O97878   5.754   2.543   3.652  0.2818  0.2602 -0.9176
  726MOL0     C97879   5.675   2.498   3.553 -0.4344 -0.9519  0.5733
  726MOL0     C97880   5.650   2.593   3.455  0.2597  0.0550  0.3573
  726MOL0     C97881   5.563   2.562   3.349 -0.3561 -0.3321 -0.8774
  726MOL0     C97882   5.512   2.436   3.336  0.3683  0.5365  0.1436
  726MOL0     O97883   5.428   2.421   3.229 -0.2912  0.3639 -0.1383
  726MOL0     C97884   5.291   2.420   3.264 -0.1972  0.1603 -1.0347
  726MOL0     C97885   5.206   2.389   3.148  1.3537 -0.7672  0.3678
  726MOL0     C97886   5.054   2.405   3.159 -1.3488  0.5202  0.7462
  726MOL0     C97887   4.988   2.335   3.038  0.4029  0.4932  0.3302
  726MOL0     C97888   4.846   2.374   3.032 -0.6481 -1.0674  0.0564
  726MOL0     C97889   4.784   2.314   2.907  0.7238 -0.2151 -0.0951
  726MOL0     C97890   4.780   2.156   2.890  0.3208  0.3199  0.8886
  726MOL0     C97891   4.695   2.088   2.994  0.0584 -0.5518 -1.2580
  726MOL0     N97892   4.556   2.128   2.980 -0.0190  0.4166  0.4465
  726MOL0     C97893   4.507   2.240   3.044 -0.3008  0.3945  0.0619
  726MOL0     C97894   4.382   2.244   3.002 -0.7855  0.3061 -0.5996
  726MOL0     C97895   4.282   2.345   3.034  0.2270 -0.0214  0.2328
  726MOL0     C97896   4.315   2.471   2.960  1.1163 -0.3459 -0.2431
  726MOL0     C97897   4.224   2.587   3.007  0.8601  0.6901  0.8469
  726MOL0     C97898   4.090   2.588   2.941  0.1376 -0.3150 -0.7627
  726MOL0     O97899   4.097   2.622   2.803 -0.2975 -0.5900 -0.1489
  726MOL0     C97900   3.977   2.635   2.737  0.7458 -0.2608  0.1443
  726MOL0     C97901   3.851   2.655   2.797 -0.4312 -0.3229 -0.4466
  726MOL0     C97902   3.738   2.687   2.719 -0.0964 -0.0504  0.4611
  726MOL0     C97903   3.606   2.710   2.790 -0.2190 -0.6179  0.0483
  726MOL0     C97904   3.753   2.685   2.575 -0.3025  0.2562  0.1728
  726MOL0     C97905   3.640   2.723   2.481  0.0994  0.5053 -0.3371
  726MOL0     O97906   3.674   2.750   2.344  0.2589 -0.1296  0.3491
  726MOL0     C97907   3.596   2.826   2.266  0.0211 -0.5493 -0.4648
  726MOL0     C97908   3.555   2.960   2.295 -0.0994  0.3921  1.2430
  726MOL0     C97909   3.471   3.039   2.210  0.7129 -0.3744  0.5442
  726MOL0     C97910   3.416   2.978   2.093 -0.4093 -0.4594 -0.4369
  726MOL0     O97911   3.326   3.051   2.027  1.0920 -0.3696 -0.0843
  726MOL0     C97912   3.272   2.988   1.908  0.2225 -0.3735 -0.7417
  726MOL0     C97913   3.150   3.058   1.841  0.0826  0.2492  0.2600
  726MOL0     C97914   3.022   3.035   1.924  0.2675 -0.4190  0.4029
  726MOL0     C97915   2.898   3.120   1.869  0.5008 -0.4550  0.0754
  726MOL0     C97916   2.762   3.063   1.912  0.0874  0.3895 -0.1624
  726MOL0     C97917   2.685   2.988   1.801 -1.0675 -0.5565 -0.3754
  726MOL0     C97918   2.575   2.904   1.852  0.2047 -0.1231 -0.7263
  726MOL0     C97919   2.470   2.990   1.930  0.3096  0.1095 -0.2257
  726MOL0    Cl97920   2.380   3.104   1.822  0.1636  0.5665  0.1637
  726MOL0     C97921   3.455   2.846   2.062  0.7215 -0.6505 -0.2701
  726MOL0     C97922   3.542   2.769   2.147 -0.1985 -1.1866  0.4911
  726MOL0     O97923   3.529   2.736   2.528 -0.7349 -1.2073  0.0453
  726MOL0     C97924   3.880   2.665   2.525  0.1528  0.1651  0.0439
  726MOL0     C97925   3.985   2.640   2.598 -0.3460  0.2627 -0.0476
  726MOL0     N97926   4.346   2.130   2.923 -0.2395 -0.1471 -0.2174
  726MOL0     N97927   4.457   2.066   2.917  0.5192 -0.3712  0.1458
  726MOL0     C97928   5.551   2.333   3.419 -0.1475 -0.1086 -0.5563
  726MOL0     C97929   5.621   2.370   3.533 -0.7440 -0.1122 -0.3776
  726MOL0     C97930   5.954   2.565   3.789  0.0838  0.5023  1.2834
  726MOL0     C97931   5.909   2.682   3.839  0.0846 -0.5518  0.4128
  726MOL0     C97932   5.984   2.754   3.926  0.3640 -0.4429  0.1579
  726MOL0     C97933   6.113   2.721   3.963 -0.2307  0.4947  0.6719
  726MOL0     O97934   6.170   2.788   4.068 -0.1949 -0.4778 -0.0622
  726MOL0     C97935   6.289   2.742   4.133 -0.0421  0.1428  0.2307
  726MOL0     C97936   6.398   2.849   4.113  0.8807  0.1445 -0.2272
  726MOL0     C97937   6.540   2.806   4.165 -0.5862 -0.2380  0.8679
  726MOL0     C97938   6.653   2.908   4.138 -0.5747 -0.4463 -0.2839
  726MOL0     C97939   6.787   2.858   4.176 -0.5121  0.2420  0.4654
  726MOL0     C97940   6.894   2.817   4.221  0.4829  0.3907 -0.1317
  726MOL0     C97941   6.171   2.612   3.889  1.2070  0.0401  0.6547
  726MOL0     C97942   6.087   2.539   3.802 -0.9280  0.4128  0.2932
  726MOL0     H97943   5.676   2.699   3.458 -1.7341  0.5727  2.2970
  726MOL0     H97944   5.542   2.636   3.272  1.6257  1.3836  0.1512
  726MOL0     H97945   5.279   2.342   3.340  3.5321 -2.6743 -3.0108
  726MOL0     H97946   5.272   2.516   3.313  1.8623  1.9936 -3.5913
  726MOL0     H97947   5.235   2.449   3.061 -2.6297 -1.2949 -1.5790
  726MOL0     H97948   5.237   2.285   3.132  3.2007 -0.0314 -1.2690
  726MOL0     H97949   5.013   2.355   3.248  3.1120 -1.3405  2.0242
  726MOL0     H97950   5.037   2.513   3.154  1.3529  0.9632 -0.7634
  726MOL0     H97951   5.036   2.370   2.946  1.1274  0.2588  0.6114
  726MOL0     H97952   4.986   2.226   3.050 -0.2257  0.5191  0.4900
  726MOL0     H97953   4.799   2.331   3.121  2.7659 -1.6465  1.7622
  726MOL0     H97954   4.832   2.482   3.032 -1.0549 -1.0968  1.5988
  726MOL0     H97955   4.680   2.343   2.892 -0.2352 -3.1600  0.1142
  726MOL0     H97956   4.832   2.353   2.817  0.0817  1.6763  0.3416
  726MOL0     H97957   4.747   2.142   2.786  1.7030 -1.7693  0.6644
  726MOL0     H97958   4.883   2.120   2.898 -0.0203 -1.5225 -1.7867
  726MOL0     H97959   4.731   2.132   3.088 -0.0004  0.5658 -1.7330
  726MOL0     H97960   4.697   1.979   2.985 -0.6845 -0.5241 -1.8839
  726MOL0     H97961   4.562   2.306   3.110  2.7834 -1.7766 -0.1129
  726MOL0     H97962   4.194   2.290   3.001  0.8447  0.5458 -2.6299
  726MOL0     H97963   4.274   2.350   3.143 -0.7669 -0.6480  0.1992
  726MOL0     H97964   4.314   2.464   2.851  2.0758  3.0739 -0.5701
  726MOL0     H97965   4.416   2.502   2.989  0.0958  2.6334  0.4396
  726MOL0     H97966   4.274   2.680   2.979  3.2282  0.3281  3.3608
  726MOL0     H97967   4.213   2.585   3.116  0.0233  2.4010  0.8238
  726MOL0     H97968   4.034   2.658   3.003 -1.0624  1.6629 -3.8455
  726MOL0     H97969   4.046   2.489   2.956 -2.4643  0.7531 -0.9294
  726MOL0     H97970   3.837   2.643   2.904 -1.2778  0.9956 -0.3855
  726MOL0     H97971   3.589   2.817   2.777 -1.6067 -0.9605 -1.3187
  726MOL0     H97972   3.531   2.643   2.747 -2.7847  0.4557  2.5481
  726MOL0     H97973   3.598   2.665   2.889  1.7395 -1.4462 -0.1220
  726MOL0     H97974   3.589   3.002   2.389  1.0669 -0.0839  1.0512
  726MOL0     H97975   3.424   3.133   2.238 -1.0470 -1.3099  0.8685
  726MOL0     H97976   3.348   2.978   1.831  1.5207  0.5116  0.3733
  726MOL0     H97977   3.237   2.891   1.945  2.1538 -1.3335 -1.2987
  726MOL0     H97978   3.176   3.164   1.834 -0.1067  0.2053 -2.1308
  726MOL0     H97979   3.149   3.022   1.737  0.6062  0.3604  0.2124
  726MOL0     H97980   3.042   3.063   2.028  0.2962 -1.2561  0.6304
  726MOL0     H97981   3.007   2.926   1.927  0.6447 -0.4657  0.7190
  726MOL0     H97982   2.910   3.225   1.897 -0.8324  0.4656 -2.5293
  726MOL0     H97983   2.903   3.105   1.761  0.9211 -1.2945  0.2059
  726MOL0     H97984   2.695   3.137   1.955 -2.6223 -1.6773 -0.5752
  726MOL0     H97985   2.780   2.983   1.985  1.4142 -0.0636 -0.9507
  726MOL0     H97986   2.652   3.066   1.732 -4.4937 -2.3700 -1.0124
  726MOL0     H97987   2.750   2.921   1.743  0.0635  0.4229 -0.2746
  726MOL0     H97988   2.621   2.826   1.915  1.3326 -1.7921 -3.4353
  726MOL0     H97989   2.536   2.864   1.758  1.7135  0.6972 -1.7480
  726MOL0     H97990   2.518   3.037   2.016 -0.3043  1.3029 -0.5231
  726MOL0     H97991   2.394   2.920   1.967  0.4268  0.3865  0.5531
  726MOL0     H97992   3.412   2.797   1.975 -0.2134  2.3707 -1.6695
  726MOL0     H97993   3.568   2.666   2.124  0.2467 -1.4291  2.0125
  726MOL0     H97994   3.894   2.694   2.421 -0.7929  1.0354  0.1335
  726MOL0     H97995   4.085   2.623   2.559 -0.4994  1.5359 -1.0769
  726MOL0     H97996   5.519   2.232   3.397  0.8790 -0.8435  1.1395
  726MOL0     H97997   5.651   2.298   3.608  1.0072 -1.3010 -2.1122
  726MOL0     H97998   5.810   2.722   3.822  1.0926  2.2385  0.5824
  726MOL0     H97999   5.932   2.834   3.977  0.7628 -0.7044  0.9960
  726MOL0     H98000   6.264   2.716   4.236  2.8021 -0.3623  0.8647
  726MOL0     H98001   6.322   2.647   4.090 -1.8797  0.2761 -1.6352
  726MOL0     H98002   6.360   2.935   4.168 -0.4021 -0.9273  0.6239
  726MOL0     H98003   6.405   2.873   4.006 -3.4889 -1.8240 -1.2013
  726MOL0     H98004   6.568   2.718   4.107  0.1006 -1.0904  2.4374
  726MOL0     H98005   6.543   2.795   4.274 -0.8529  3.7278  1.4190
  726MOL0     H98006   6.641   2.999   4.198  0.8832 -1.3828  1.5396
  726MOL0     H98007   6.655   2.936   4.032 -1.1734 -2.8450 -0.9830
  726MOL0     H98008   6.988   2.784   4.259  0.8618 -0.2289 -1.5119
  726MOL0     H98009   6.273   2.581   3.908  1.1737 -1.0457 -0.7335
  726MOL0     H98010   6.120   2.452   3.745  0.0499  2.2532 -2.1443
  727MOL0     O98011   4.250   3.138   7.448  0.1973  0.1467  0.2083
  727MOL0     C98012   4.245   3.259   7.462  0.9910 -0.1444 -0.0846
  727MOL0     O98013   4.126   3.326   7.455  0.5808 -0.0946 -0.1023
  727MOL0     C98014   4.017   3.245   7.423  0.5771  0.4688 -0.8347
  727MOL0     C98015   3.954   3.178   7.528  0.7161 -0.3515  0.6719
  727MOL0     C98016   3.830   3.105   7.501 -0.0512 -0.0805 -0.0329
  727MOL0     C98017   3.790   3.095   7.367  0.2793  0.2608 -1.2571
  727MOL0     O98018   3.678   3.022   7.325 -0.3553  0.4943 -0.3638
  727MOL0     C98019   3.552   3.044   7.396 -0.3170 -0.6141 -0.4784
  727MOL0     C98020   3.437   2.987   7.311 -0.3725  0.0978  0.1440
  727MOL0     C98021   3.408   2.841   7.339 -0.0074 -0.2014  0.7772
  727MOL0     C98022   3.424   2.744   7.224  0.8750 -0.3304 -0.1004
  727MOL0     C98023   3.298   2.732   7.130  0.0415 -0.8386 -1.1283
  727MOL0     C98024   3.322   2.808   6.999  0.1568  0.3973 -0.4094
  727MOL0     C98025   3.199   2.814   6.909  0.6474 -0.2174  0.1955
  727MOL0     C98026   3.082   2.901   6.971 -0.1569 -0.4387 -0.3089
  727MOL0     N98027   2.960   2.889   6.888  0.9833 -1.3958  0.1103
  727MOL0     C98028   2.903   2.774   6.839  0.2771 -0.0227 -0.6894
  727MOL0     C98029   2.817   2.817   6.740  0.0689 -0.1754  0.6938
  727MOL0     C98030   2.733   2.720   6.657  0.0290 -0.5537  0.5086
  727MOL0     C98031   2.587   2.700   6.708 -0.0720  0.0958 -0.2607
  727MOL0     C98032   2.587   2.720   6.860 -0.6891  0.1560  0.1436
  727MOL0     C98033   2.446   2.701   6.917 -1.0565  0.1302 -1.0464
  727MOL0     O98034   2.358   2.807   6.864  0.1639 -0.4219 -0.1237
  727MOL0     C98035   2.267   2.855   6.952  0.3257  0.1543  1.0430
  727MOL0     C98036   2.217   2.787   7.065 -0.5912  0.1803 -0.3616
  727MOL0     C98037   2.111   2.828   7.149 -1.1554 -0.3441  0.1444
  727MOL0     C98038   2.070   2.761   7.276 -0.1869  0.4859  0.2658
  727MOL0     C98039   2.049   2.950   7.106  0.1741 -0.2409  0.2900
  727MOL0     C98040   1.931   3.008   7.172  0.5516  0.9333  0.3267
  727MOL0     O98041   1.831   2.929   7.227  0.6422  0.6611 -0.2777
  727MOL0     C98042   1.727   2.989   7.297  0.0908 -0.3863 -0.2938
  727MOL0     C98043   1.639   3.085   7.237 -1.1995 -0.5173  0.7293
  727MOL0     C98044   1.530   3.125   7.296  0.8545  0.4958  0.8288
  727MOL0     C98045   1.497   3.087   7.427 -0.7551  0.6975 -0.2385
  727MOL0     O98046   1.375   3.113   7.481 -0.1641  0.6804 -0.0500
  727MOL0     C98047   1.360   3.212   7.576 -0.1166  0.5615  0.4401
  727MOL0     C98048   1.356   3.351   7.509 -0.3693 -0.4301 -0.1529
  727MOL0     C98049   1.359   3.466   7.619  0.8887  0.6425  0.0591
  727MOL0     C98050   1.217   3.509   7.649  0.2078  1.0595  0.0113
  727MOL0     C98051   1.212   3.610   7.758 -0.5527  0.0947  0.2048
  727MOL0     C98052   1.282   3.551   7.885 -0.2342  0.0421 -0.6769
  727MOL0     C98053   1.238   3.410   7.933 -0.0808 -1.0069 -0.2829
  727MOL0     C98054   1.090   3.403   7.956  0.5049  0.3643 -0.1155
  727MOL0    Cl98055   1.048   3.530   8.072  0.1302 -0.1379  0.1106
  727MOL0     C98056   1.587   2.989   7.490 -0.0122  0.0412  0.3706
  727MOL0     C98057   1.701   2.949   7.425  0.4240 -1.1482  0.5626
  727MOL0     O98058   1.939   3.126   7.190 -0.2696  0.2432  0.0027
  727MOL0     C98059   2.100   3.016   6.996 -0.1993  0.4599  0.4052
  727MOL0     C98060   2.206   2.973   6.916  0.1358  0.9082  0.1905
  727MOL0     N98061   2.827   2.953   6.727  0.0773 -0.4207 -0.4507
  727MOL0     N98062   2.901   2.995   6.824  0.5361 -0.0482 -0.2681
  727MOL0     C98063   3.849   3.175   7.273  0.2061 -0.0416  0.1869
  727MOL0     C98064   3.960   3.254   7.296 -1.0160  0.1516 -0.0692
  727MOL0     C98065   4.368   3.323   7.515  0.3350  0.0144 -0.8957
  727MOL0     C98066   4.498   3.267   7.491 -0.7124 -0.7816 -0.5812
  727MOL0     C98067   4.620   3.335   7.523 -0.2076 -0.7119  0.0056
  727MOL0     C98068   4.609   3.455   7.590  0.4888  0.1951  0.8211
  727MOL0     O98069   4.715   3.536   7.625  0.5690  0.0248 -0.4489
  727MOL0     C98070   4.847   3.489   7.622 -0.0152  0.1484 -0.1234
  727MOL0     C98071   4.938   3.595   7.678  0.8284 -0.5735 -0.4653
  727MOL0     C98072   5.087   3.572   7.636  0.6107  0.7728  0.5341
  727MOL0     C98073   5.193   3.671   7.694 -0.3389 -0.6539 -0.6040
  727MOL0     C98074   5.192   3.682   7.842  0.0150 -1.2131 -0.0661
  727MOL0     C98075   5.172   3.708   7.961  0.6986 -0.0063 -0.1739
  727MOL0     C98076   4.482   3.507   7.621 -0.0771  0.4497 -0.1501
  727MOL0     C98077   4.363   3.445   7.576 -0.5988  0.0127 -0.0839
  727MOL0     H98078   3.996   3.185   7.628 -3.1298  0.1050  2.4211
  727MOL0     H98079   3.779   3.040   7.571 -0.7161  0.3142 -0.1459
  727MOL0     H98080   3.553   2.980   7.485  0.5924  1.2084  0.8793
  727MOL0     H98081   3.542   3.151   7.412 -2.8278 -1.0448  1.3742
  727MOL0     H98082   3.345   3.042   7.331 -0.8156 -0.7244  0.4191
  727MOL0     H98083   3.456   3.004   7.204 -1.4667 -2.2479 -0.4939
  727MOL0     H98084   3.471   2.803   7.420  0.4721 -4.0021 -1.1709
  727MOL0     H98085   3.316   2.827   7.396  1.6338 -1.2784  3.3562
  727MOL0     H98086   3.513   2.770   7.167  1.5755 -1.7278  0.3201
  727MOL0     H98087   3.438   2.648   7.276  1.1154 -0.0984  0.2690
  727MOL0     H98088   3.279   2.625   7.117  2.9388 -1.6804  0.7034
  727MOL0     H98089   3.218   2.777   7.189 -0.3709  1.4764 -3.3015
  727MOL0     H98090   3.370   2.905   7.016  1.6899 -0.5293  0.8155
  727MOL0     H98091   3.402   2.756   6.945  0.1047  1.0097 -1.0914
  727MOL0     H98092   3.218   2.838   6.804  3.2821 -4.2174 -0.4537
  727MOL0     H98093   3.163   2.712   6.892 -1.8154  0.1352  2.5166
  727MOL0     H98094   3.110   3.005   6.990 -0.4321 -0.5246  0.6234
  727MOL0     H98095   3.071   2.863   7.073  1.2994  2.1237  0.8920
  727MOL0     H98096   2.929   2.670   6.857  0.4710 -0.2305 -2.1013
  727MOL0     H98097   2.728   2.777   6.564 -0.5558 -1.5169 -0.0556
  727MOL0     H98098   2.798   2.635   6.637  0.3803  0.0135 -0.8467
  727MOL0     H98099   2.554   2.600   6.679 -1.7737 -0.2182  2.4274
  727MOL0     H98100   2.526   2.777   6.659 -0.5090  1.0542  1.6711
  727MOL0     H98101   2.598   2.825   6.886 -3.1801  0.3548  0.6347
  727MOL0     H98102   2.661   2.658   6.911 -0.1957 -1.4941 -2.3871
  727MOL0     H98103   2.452   2.712   7.026 -6.2355  0.1994 -0.5138
  727MOL0     H98104   2.402   2.602   6.899  1.7972 -1.8836  1.7994
  727MOL0     H98105   2.257   2.689   7.092  0.6714  0.2693 -1.7739
  727MOL0     H98106   2.143   2.682   7.297 -1.9850 -2.1770 -2.7359
  727MOL0     H98107   2.067   2.834   7.357  0.3036  1.6450 -0.7357
  727MOL0     H98108   1.970   2.717   7.264 -0.5182  0.9220  1.3180
  727MOL0     H98109   1.646   3.119   7.135 -0.7424  1.1552  1.2853
  727MOL0     H98110   1.456   3.187   7.246 -0.6261 -0.2396  2.0343
  727MOL0     H98111   1.264   3.192   7.623 -1.3959 -1.3759 -2.6127
  727MOL0     H98112   1.430   3.206   7.660 -0.7673 -1.0798  0.9089
  727MOL0     H98113   1.450   3.358   7.455  1.5029  1.0917  2.9935
  727MOL0     H98114   1.272   3.364   7.440  0.3775  0.1502 -0.9643
  727MOL0     H98115   1.404   3.560   7.585  0.0126  0.1200 -2.8402
  727MOL0     H98116   1.407   3.414   7.702  1.6445  1.7419  0.3355
  727MOL0     H98117   1.176   3.562   7.562 -0.7755 -2.3192 -1.7954
  727MOL0     H98118   1.155   3.422   7.674  0.1571  1.9035  3.1434
  727MOL0     H98119   1.106   3.627   7.780 -0.6947  0.1162 -0.4759
  727MOL0     H98120   1.261   3.704   7.731 -0.6028  0.0923  0.1086
  727MOL0     H98121   1.390   3.556   7.875  0.1020  4.4613  2.1077
  727MOL0     H98122   1.268   3.621   7.969  1.3046 -1.0252  0.5143
  727MOL0     H98123   1.302   3.394   8.021 -1.1674  0.7854  0.9159
  727MOL0     H98124   1.251   3.334   7.856  0.3554 -0.9592 -0.2569
  727MOL0     H98125   1.072   3.303   7.998  1.0261 -0.7868 -2.4461
  727MOL0     H98126   1.035   3.403   7.861 -0.9359 -1.4549  0.6441
  727MOL0     H98127   1.570   2.948   7.589  1.9797  1.0974  1.2082
  727MOL0     H98128   1.766   2.883   7.482 -0.3928 -0.7253  2.0573
  727MOL0     H98129   2.055   3.110   6.967 -0.7886 -0.4551 -1.8828
  727MOL0     H98130   2.228   3.026   6.824  0.6711  1.5641  0.6829
  727MOL0     H98131   3.811   3.183   7.172  1.2788  0.5667 -0.1815
  727MOL0     H98132   4.000   3.312   7.214 -0.7153 -1.4117 -1.0866
  727MOL0     H98133   4.510   3.165   7.455 -1.4501  0.1569 -3.8336
  727MOL0     H98134   4.717   3.292   7.500  0.3937  0.0493  1.0494
  727MOL0     H98135   4.859   3.393   7.673  0.9762 -0.4614 -1.4368
  727MOL0     H98136   4.868   3.465   7.517 -1.0617  0.3080 -0.3806
  727MOL0     H98137   4.923   3.605   7.786  0.5722 -1.1027 -0.4477
  727MOL0     H98138   4.904   3.689   7.635  4.1071  1.1273  0.3349
  727MOL0     H98139   5.085   3.579   7.527 -0.1053  0.5140  0.5257
  727MOL0     H98140   5.116   3.472   7.667  0.3517 -0.2440 -2.2455
  727MOL0     H98141   5.176   3.773   7.658  2.1351 -0.4473 -1.3827
  727MOL0     H98142   5.295   3.645   7.663  0.3504  0.7862  0.3502
  727MOL0     H98143   5.145   3.739   8.061 -1.4976  0.3001 -0.8053
  727MOL0     H98144   4.486   3.604   7.670 -0.0897  0.1818  0.3940
  727MOL0     H98145   4.272   3.500   7.593 -0.6699 -0.6932  2.0515
  728MOL0     O98146   9.933   3.414   9.255  0.7132  0.1309  0.0840
  728MOL0     C98147   9.921   3.312   9.182  0.6066  0.4298 -0.4866
  728MOL0     O98148   9.807   3.237   9.160  0.1444 -0.2641  0.4327
  728MOL0     C98149   9.692   3.281   9.225 -0.0927  0.3415  0.6083
  728MOL0     C98150   9.679   3.318   9.361  0.1031 -0.0892 -0.2191
  728MOL0     C98151   9.550   3.366   9.410 -0.3403 -0.4972  0.2407
  728MOL0     C98152   9.440   3.355   9.330  0.2933  0.0046  0.7415
  728MOL0     O98153   9.318   3.355   9.391  0.3591 -0.0363 -0.0572
  728MOL0     C98154   9.217   3.454   9.377  0.0524 -0.5209 -0.0068
  728MOL0     C98155   9.101   3.392   9.293 -0.3392  0.5647 -0.0010
  728MOL0     C98156   8.981   3.480   9.282  0.3765 -0.7966 -0.5505
  728MOL0     C98157   8.855   3.396   9.257 -0.1302  0.4647 -0.4179
  728MOL0     C98158   8.739   3.491   9.255 -0.4204  0.9901 -1.0432
  728MOL0     C98159   8.626   3.436   9.181 -0.2261 -0.9500 -0.7646
  728MOL0     C98160   8.493   3.514   9.215  0.0830  0.1661  0.4825
  728MOL0     C98161   8.491   3.664   9.251  0.8643  0.4740  0.4858
  728MOL0     N98162   8.360   3.706   9.303  0.0961  0.0840 -0.3138
  728MOL0     C98163   8.289   3.650   9.411 -0.2474 -0.0737 -0.9253
  728MOL0     C98164   8.170   3.710   9.413 -0.8205 -0.6134 -0.1121
  728MOL0     C98165   8.055   3.675   9.505 -0.4402 -0.6011 -0.7057
  728MOL0     C98166   8.097   3.682   9.655 -1.3236 -0.2486  0.0626
  728MOL0     C98167   8.124   3.827   9.701 -0.3263 -0.0833 -0.7067
  728MOL0     C98168   8.251   3.831   9.787 -0.3100 -0.1783  0.5819
  728MOL0     O98169   8.355   3.783   9.703 -0.8609 -0.9119 -0.1622
  728MOL0     C98170   8.480   3.765   9.758 -0.1343  0.2098 -0.2310
  728MOL0     C98171   8.513   3.794   9.892 -0.1647  0.1980  0.0795
  728MOL0     C98172   8.627   3.741   9.949  0.4935 -0.5028 -0.7348
  728MOL0     C98173   8.649   3.746  10.098  0.0985 -0.2104 -0.3353
  728MOL0     C98174   8.722   3.673   9.864  0.3624  0.1542 -0.6070
  728MOL0     C98175   8.853   3.620   9.918  0.3686  0.2907 -0.3321
  728MOL0     O98176   8.907   3.514   9.839  0.6139 -0.4958  0.1134
  728MOL0     C98177   9.016   3.444   9.899 -0.8881  0.1315  0.4623
  728MOL0     C98178   9.121   3.416   9.813 -0.0937 -0.6961 -0.9290
  728MOL0     C98179   9.236   3.347   9.864 -0.5765 -1.2462  0.0983
  728MOL0     C98180   9.231   3.291   9.993  1.0184  0.4088  0.8154
  728MOL0     O98181   9.329   3.195  10.033  0.4217  1.2373 -0.6928
  728MOL0     C98182   9.431   3.228  10.135  0.1088 -0.2061 -0.1300
  728MOL0     C98183   9.448   3.118  10.231  1.0843 -0.2224  0.1247
  728MOL0     C98184   9.505   2.998  10.160 -0.1183 -0.3528  0.7237
  728MOL0     C98185   9.535   2.892  10.264  0.0227  0.1597 -0.0256
  728MOL0     C98186   9.623   2.775  10.211 -0.2394 -0.0288  0.7454
  728MOL0     C98187   9.599   2.635  10.282 -0.0331  0.1045 -1.2250
  728MOL0     C98188   9.628   2.638  10.432 -0.5529  0.2785  0.0683
  728MOL0     C98189   9.782   2.630  10.461 -0.0465  0.2939 -0.2168
  728MOL0    Cl98190   9.852   2.792  10.441  0.1506 -0.5744 -0.4254
  728MOL0     C98191   9.117   3.302  10.066  0.0404  0.8734 -0.9745
  728MOL0     C98192   9.014   3.385  10.024 -0.3453  0.2691  0.6459
  728MOL0     O98193   8.909   3.677  10.018  0.8669  0.5080  0.5940
  728MOL0     C98194   8.689   3.654   9.731 -0.7946 -0.4546  0.3412
  728MOL0     C98195   8.563   3.691   9.675 -0.6343  0.2524 -0.2406
  728MOL0     N98196   8.167   3.793   9.310 -0.0850 -0.1072 -0.0027
  728MOL0     N98197   8.275   3.788   9.245  0.1644  0.2034  0.3660
  728MOL0     C98198   9.453   3.305   9.204  0.5415  0.1605  0.0003
  728MOL0     C98199   9.571   3.265   9.148 -0.1104 -0.8597  0.0552
  728MOL0     C98200  10.048   3.269   9.120 -0.8466 -0.0860 -0.8556
  728MOL0     C98201  10.048   3.160   9.032 -0.4439 -0.5752 -0.4963
  728MOL0     C98202  10.163   3.106   8.972  0.4923 -0.0321 -0.6858
  728MOL0     C98203  10.279   3.169   8.996  0.3752  0.0590  0.3962
  728MOL0     O98204  10.374   3.103   8.928 -0.3510  0.0104  0.7934
  728MOL0     C98205  10.508   3.112   8.979  0.5473  0.5087 -0.5073
  728MOL0     C98206  10.596   3.007   8.909  0.4509 -1.1587 -0.3090
  728MOL0     C98207  10.728   2.999   8.990 -0.4030 -0.0947 -0.7411
  728MOL0     C98208  10.832   2.911   8.911 -0.3274 -0.4904 -0.2646
  728MOL0     C98209  10.947   2.866   8.989  0.2397 -0.5248  0.0370
  728MOL0     C98210  11.028   2.812   9.057 -0.9349  0.5404  0.3459
  728MOL0     C98211  10.291   3.284   9.075  0.2329 -0.5026 -0.1080
  728MOL0     C98212  10.178   3.324   9.147 -0.6241  0.0731 -0.7795
  728MOL0     H98213   9.758   3.318   9.435  0.4641  0.4631 -0.5927
  728MOL0     H98214   9.538   3.410   9.509 -0.1404  2.9157 -1.1005
  728MOL0     H98215   9.181   3.490   9.474  1.0240  1.4143 -0.3189
  728MOL0     H98216   9.262   3.544   9.334  1.8329  1.0343  4.5258
  728MOL0     H98217   9.133   3.368   9.192 -3.3116 -1.7693 -0.5354
  728MOL0     H98218   9.066   3.305   9.350 -2.1876  0.6989 -0.8513
  728MOL0     H98219   8.977   3.537   9.375  1.4150 -1.0585 -0.3358
  728MOL0     H98220   8.988   3.542   9.191 -3.5019 -0.1341 -0.5764
  728MOL0     H98221   8.855   3.353   9.156 -0.7679  1.4111 -0.8353
  728MOL0     H98222   8.836   3.315   9.328  0.8006  0.0942 -0.5847
  728MOL0     H98223   8.699   3.495   9.356  0.8128 -3.1849 -0.2063
  728MOL0     H98224   8.762   3.589   9.211 -0.6285  1.7085  0.3811
  728MOL0     H98225   8.628   3.439   9.072 -1.2690  0.5657 -0.7669
  728MOL0     H98226   8.626   3.328   9.199  3.7988 -0.8827  0.6721
  728MOL0     H98227   8.426   3.499   9.129  1.5610 -0.7792 -0.5508
  728MOL0     H98228   8.449   3.457   9.297  1.6918 -0.6838  0.7864
  728MOL0     H98229   8.513   3.721   9.160  1.5877 -0.2589  0.1841
  728MOL0     H98230   8.566   3.684   9.328  0.2122 -1.1254  1.6050
  728MOL0     H98231   8.317   3.569   9.478  0.3142  0.6151 -0.3189
  728MOL0     H98232   7.967   3.739   9.491 -0.1891  0.3567  1.6642
  728MOL0     H98233   8.032   3.568   9.492 -0.7928 -0.4663 -1.2227
  728MOL0     H98234   8.187   3.621   9.666  0.1704  1.7217 -0.7292
  728MOL0     H98235   8.025   3.627   9.716 -1.7025 -1.6496 -1.5636
  728MOL0     H98236   8.034   3.851   9.760 -0.2014 -1.0911 -0.0752
  728MOL0     H98237   8.136   3.907   9.628  1.3489  2.4999  2.1591
  728MOL0     H98238   8.232   3.761   9.869  2.3705 -0.6632  0.8588
  728MOL0     H98239   8.282   3.930   9.820  1.4665 -0.8470  1.0156
  728MOL0     H98240   8.447   3.860   9.949 -1.2427  1.1922 -2.2109
  728MOL0     H98241   8.693   3.653  10.136  0.2917  0.4513  1.1088
  728MOL0     H98242   8.714   3.831  10.123 -2.9928  1.8146  1.4622
  728MOL0     H98243   8.554   3.767  10.148  1.3587  1.1609  1.6289
  728MOL0     H98244   9.120   3.464   9.716  0.0586  0.8544 -0.2049
  728MOL0     H98245   9.322   3.333   9.801 -1.2710  0.1133 -1.2035
  728MOL0     H98246   9.527   3.244  10.085  0.5078 -0.2867  0.5946
  728MOL0     H98247   9.399   3.321  10.182 -0.4682 -1.4059  1.9568
  728MOL0     H98248   9.511   3.148  10.315 -2.0228  1.7034  1.9178
  728MOL0     H98249   9.351   3.087  10.269  0.5952 -2.2651 -2.4860
  728MOL0     H98250   9.592   3.026  10.100 -0.7320  0.4112  0.1780
  728MOL0     H98251   9.427   2.957  10.096 -0.4793  0.7823  0.4123
  728MOL0     H98252   9.583   2.938  10.351 -1.3442  0.8883  0.3745
  728MOL0     H98253   9.438   2.851  10.294 -1.0559  0.4458 -2.8269
  728MOL0     H98254   9.732   2.791  10.207 -0.3223  0.4416 -2.3900
  728MOL0     H98255   9.597   2.775  10.105  2.6464  0.1516 -0.0485
  728MOL0     H98256   9.494   2.612  10.261 -0.4866  1.1743 -0.2460
  728MOL0     H98257   9.667   2.561  10.238 -0.1781 -0.6329 -0.2546
  728MOL0     H98258   9.584   2.546  10.473  1.8760 -0.7572  0.5209
  728MOL0     H98259   9.568   2.722  10.468 -1.9039  0.4336 -2.3487
  728MOL0     H98260   9.826   2.553  10.396 -1.7359  0.1690 -1.2954
  728MOL0     H98261   9.791   2.614  10.568  0.7640  1.7078 -0.0623
  728MOL0     H98262   9.094   3.262  10.165  0.3198  1.8355 -0.5058
  728MOL0     H98263   8.929   3.403  10.089 -0.2003  0.7786  0.6927
  728MOL0     H98264   8.762   3.613   9.662 -0.6448  4.4391 -2.8852
  728MOL0     H98265   8.544   3.664   9.572  0.4418  0.0356 -0.4006
  728MOL0     H98266   9.373   3.285   9.134  0.8393 -0.5002 -0.1629
  728MOL0     H98267   9.586   3.226   9.048  1.1511 -0.8886  0.2480
  728MOL0     H98268   9.954   3.115   9.002 -0.3012 -0.3638 -1.2831
  728MOL0     H98269  10.153   3.016   8.912  2.3433  0.0646 -1.2033
  728MOL0     H98270  10.539   3.216   8.961  0.0838  1.2601  2.4675
  728MOL0     H98271  10.497   3.097   9.087 -2.7453 -0.0014 -0.8170
  728MOL0     H98272  10.617   3.004   8.802  1.4990 -0.2016 -0.1475
  728MOL0     H98273  10.547   2.910   8.922 -0.1998 -1.4568 -3.9245
  728MOL0     H98274  10.707   2.952   9.086  2.3957  0.7757  0.3966
  728MOL0     H98275  10.769   3.100   8.997  0.0167 -0.2712 -0.5677
  728MOL0     H98276  10.871   2.967   8.825  0.9430 -1.1303 -0.1342
  728MOL0     H98277  10.786   2.821   8.869 -1.0319  0.1167 -0.8212
  728MOL0     H98278  11.094   2.771   9.130  0.8110  2.7725  0.1397
  728MOL0     H98279  10.388   3.332   9.063  0.3359 -0.5211  0.5973
  728MOL0     H98280  10.178   3.398   9.226 -1.3258 -2.3011  1.5749
  729MOL0     O98281   2.307   0.836  10.059  0.0182  0.5444  0.1697
  729MOL0     C98282   2.382   0.923  10.104  0.2432 -0.5278 -0.1364
  729MOL0     O98283   2.363   1.054  10.095  0.0685 -0.5555 -0.8797
  729MOL0     C98284   2.256   1.118  10.038  0.4624  1.1688  0.5596
  729MOL0     C98285   2.145   1.049   9.974 -0.3770 -0.8769 -0.3831
  729MOL0     C98286   2.020   1.126   9.941 -0.0535  0.0279  0.5701
  729MOL0     C98287   2.017   1.264   9.961 -0.3832 -0.5263 -0.5854
  729MOL0     O98288   1.900   1.329   9.921  0.4139  0.0056 -0.2442
  729MOL0     C98289   1.827   1.402  10.021 -0.3517 -0.0783  1.1310
  729MOL0     C98290   1.674   1.417   9.982 -0.4092 -0.3201  1.6555
  729MOL0     C98291   1.598   1.290  10.026 -0.1313  0.5887  0.5456
  729MOL0     C98292   1.452   1.299  10.011  0.0758 -0.9331 -0.3462
  729MOL0     C98293   1.415   1.155  10.058  0.0758  0.2921 -0.2551
  729MOL0     C98294   1.263   1.135  10.028 -0.3650  0.0016  0.5972
  729MOL0     C98295   1.227   0.989  10.075 -0.1365 -0.5787  0.0404
  729MOL0     C98296   1.085   0.951  10.037  0.1702 -0.5971 -0.0757
  729MOL0     N98297   0.977   1.021  10.115 -0.2937  0.3008 -0.1041
  729MOL0     C98298   0.928   0.974  10.239 -0.8059  0.1362 -0.7464
  729MOL0     C98299   0.868   1.076  10.300  0.1920  0.5599 -0.0386
  729MOL0     C98300   0.788   1.067  10.428  0.4689  0.5718  0.1697
  729MOL0     C98301   0.632   1.037  10.408  0.1665 -0.2786  1.2763
  729MOL0     C98302   0.553   1.162  10.372 -0.4083  0.6909 -0.6845
  729MOL0     C98303   0.401   1.160  10.390 -0.7182  1.0326  0.4802
  729MOL0     O98304   0.329   1.074  10.299 -0.1849  0.1555 -0.1867
  729MOL0     C98305   0.206   1.099  10.261  0.1756  0.0521 -0.4285
  729MOL0     C98306   0.174   1.029  10.141  0.6532 -0.6983  0.4340
  729MOL0     C98307   0.044   1.056  10.085  0.5302  0.1166  0.3623
  729MOL0     C98308   0.010   0.982   9.949  0.0076 -0.5899 -0.6767
  729MOL0     C98309  -0.055   1.143  10.150  0.0895 -0.2270 -1.1093
  729MOL0     C98310  -0.197   1.158  10.109 -0.1454 -0.7929 -0.3630
  729MOL0     O98311  -0.276   1.048  10.126  0.4185 -0.0518  0.2248
  729MOL0     C98312  -0.403   1.057  10.076 -0.1064  0.0500  0.6824
  729MOL0     C98313  -0.507   1.128  10.145  0.4415 -0.5476 -0.5064
  729MOL0     C98314  -0.638   1.125  10.088 -0.5432 -0.4774 -0.9109
  729MOL0     C98315  -0.661   1.063   9.969  0.2825  0.5695 -0.0768
  729MOL0     O98316  -0.781   1.059   9.907 -0.4290 -0.1037 -0.5856
  729MOL0     C98317  -0.892   1.011   9.979 -0.9916  0.2124 -0.2275
  729MOL0     C98318  -0.998   1.122   9.977 -0.6629 -1.0929 -0.5978
  729MOL0     C98319  -1.137   1.057  10.022  0.0256  0.0928 -0.1173
  729MOL0     C98320  -1.248   1.162  10.026  0.2150 -0.5736 -1.1796
  729MOL0     C98321  -1.380   1.088  10.062 -0.4946  0.0552 -0.5960
  729MOL0     C98322  -1.500   1.183  10.065  0.5419  0.1842  0.1136
  729MOL0     C98323  -1.628   1.105  10.080 -0.6631  0.6049 -0.4382
  729MOL0     C98324  -1.754   1.201  10.074  0.3695 -1.0851 -0.2229
  729MOL0    Cl98325  -1.883   1.084  10.068 -0.0698 -0.1069 -0.0883
  729MOL0     C98326  -0.552   0.997   9.906 -0.4852 -0.2003 -0.6137
  729MOL0     C98327  -0.426   0.988   9.957  0.1804  0.0454 -0.2956
  729MOL0     O98328  -0.228   1.272  10.061  0.1854 -0.1200  0.1812
  729MOL0     C98329  -0.015   1.203  10.272 -0.1921 -0.2434 -0.3038
  729MOL0     C98330   0.112   1.182  10.327 -0.2603  0.0976  0.1598
  729MOL0     N98331   0.891   1.191  10.227 -0.0919  0.4194  0.5396
  729MOL0     N98332   0.956   1.157  10.125  0.9960  0.6327  0.1809
  729MOL0     C98333   2.125   1.336  10.026 -0.8242  0.1001 -0.1563
  729MOL0     C98334   2.238   1.258  10.062  1.3597 -0.5722 -0.5577
  729MOL0     C98335   2.497   0.872  10.189  0.2534  0.0742  0.2076
  729MOL0     C98336   2.491   0.755  10.256 -0.2442  0.6873  0.6800
  729MOL0     C98337   2.593   0.711  10.337 -0.1694  0.1905 -0.5722
  729MOL0     C98338   2.716   0.773  10.345 -0.1472  0.7915  0.0010
  729MOL0     O98339   2.824   0.711  10.424  0.8483 -0.7644  0.3337
  729MOL0     C98340   2.951   0.766  10.409 -0.3027 -0.0202  0.3076
  729MOL0     C98341   3.049   0.677  10.493 -0.4708  0.3138 -0.6956
  729MOL0     C98342   3.202   0.710  10.484 -0.1577  1.0022  0.9222
  729MOL0     C98343   3.239   0.861  10.497 -0.2479  0.2740  1.5692
  729MOL0     C98344   3.219   0.887  10.640  0.1474 -0.4106 -0.0727
  729MOL0     C98345   3.195   0.924  10.758  1.3111 -0.0693  0.2268
  729MOL0     C98346   2.731   0.890  10.267 -0.3921  0.1445 -0.7006
  729MOL0     C98347   2.612   0.947  10.198 -0.7754 -0.7013 -0.1469
  729MOL0     H98348   2.145   0.947   9.937 -3.7123 -1.1078 -0.1196
  729MOL0     H98349   1.933   1.077   9.899 -0.4390  1.9346 -1.0207
  729MOL0     H98350   1.843   1.365  10.123 -2.9534 -1.4478  1.1459
  729MOL0     H98351   1.877   1.500  10.025  4.2004 -2.1838  1.6222
  729MOL0     H98352   1.628   1.512  10.010  0.3676 -0.0425  2.0485
  729MOL0     H98353   1.677   1.425   9.873 -1.3642  3.6202  1.7679
  729MOL0     H98354   1.646   1.218   9.959 -0.7784  0.0629  0.6398
  729MOL0     H98355   1.622   1.276  10.131 -2.6453  1.3358  1.2882
  729MOL0     H98356   1.400   1.376  10.068 -0.8923  0.1464 -2.5677
  729MOL0     H98357   1.424   1.319   9.907 -2.6237  0.4072  0.5404
  729MOL0     H98358   1.483   1.084  10.010  1.6213 -0.1678  2.4098
  729MOL0     H98359   1.436   1.138  10.164  0.5004  0.0433 -0.3771
  729MOL0     H98360   1.196   1.213  10.067  0.9958  3.1816 -2.8331
  729MOL0     H98361   1.244   1.147   9.921 -2.7489 -1.0704  0.8320
  729MOL0     H98362   1.289   0.913  10.027 -0.7590 -0.8868 -0.2800
  729MOL0     H98363   1.247   0.979  10.183 -0.3507  1.1043  0.2649
  729MOL0     H98364   1.075   0.842  10.041  1.1891 -0.7385 -0.9256
  729MOL0     H98365   1.070   0.966   9.929 -1.1122 -3.0041 -0.3193
  729MOL0     H98366   0.940   0.873  10.277 -1.3099  1.5149  3.7398
  729MOL0     H98367   0.827   0.985  10.489 -3.3831  0.9621  3.6026
  729MOL0     H98368   0.800   1.159  10.486  1.4252  0.4582  0.1709
  729MOL0     H98369   0.593   1.000  10.503  0.2792 -2.3438  0.5779
  729MOL0     H98370   0.614   0.957  10.335 -2.0378 -0.3998  1.8992
  729MOL0     H98371   0.563   1.186  10.265  5.4090 -3.9130 -1.6636
  729MOL0     H98372   0.598   1.241  10.432  0.0885 -1.2175  1.5623
  729MOL0     H98373   0.363   1.262  10.373 -1.2557  0.6766 -0.4801
  729MOL0     H98374   0.374   1.145  10.495 -0.5366  2.5074  0.7716
  729MOL0     H98375   0.246   0.967  10.089 -0.2014 -2.2146  0.9757
  729MOL0     H98376  -0.079   1.031   9.908  0.2522 -0.4904 -1.0984
  729MOL0     H98377   0.092   0.989   9.876 -1.1073 -1.1290 -2.0220
  729MOL0     H98378  -0.025   0.879   9.949  0.1256 -0.6456 -1.6746
  729MOL0     H98379  -0.479   1.192  10.228 -0.2986 -1.1217  0.1932
  729MOL0     H98380  -0.722   1.180  10.129 -0.7827 -0.1361 -1.8383
  729MOL0     H98381  -0.928   0.924   9.922  0.6982 -0.7254  0.0889
  729MOL0     H98382  -0.861   0.962  10.071  0.2831 -3.5535 -2.4580
  729MOL0     H98383  -0.974   1.197  10.054  0.3337 -3.8981  2.0318
  729MOL0     H98384  -1.020   1.173   9.883  1.1254  0.6160 -0.1613
  729MOL0     H98385  -1.124   1.001  10.115  0.2112 -0.3605 -0.4146
  729MOL0     H98386  -1.163   0.982   9.947 -1.8200  0.9322 -0.3801
  729MOL0     H98387  -1.229   1.224  10.114 -3.0132 -3.1951  1.6424
  729MOL0     H98388  -1.251   1.211   9.928 -0.9288  0.5750 -0.6039
  729MOL0     H98389  -1.367   1.039  10.159  1.8402 -0.2423 -1.0057
  729MOL0     H98390  -1.382   1.002   9.994  0.7662 -1.8573  1.6199
  729MOL0     H98391  -1.485   1.263  10.139 -0.7422  0.7512 -0.2162
  729MOL0     H98392  -1.493   1.228   9.966  0.9526 -1.4215 -0.6098
  729MOL0     H98393  -1.635   1.058  10.179 -4.9437 -0.4951 -1.0289
  729MOL0     H98394  -1.630   1.031   9.999 -2.3528  2.8104 -2.5654
  729MOL0     H98395  -1.769   1.263   9.985 -0.7603  0.5020  0.9978
  729MOL0     H98396  -1.756   1.266  10.162  1.6263 -1.1964 -0.0967
  729MOL0     H98397  -0.582   0.955   9.810 -0.9170 -0.1915 -0.4855
  729MOL0     H98398  -0.348   0.950   9.892  0.4594  1.1220 -0.6011
  729MOL0     H98399  -0.071   1.282  10.323 -0.0843 -0.9281  0.9083
  729MOL0     H98400   0.132   1.224  10.425  2.6713  0.8606 -0.6667
  729MOL0     H98401   2.119   1.437  10.064  1.8307  0.3841 -0.2862
  729MOL0     H98402   2.308   1.308  10.129 -0.9461  0.7853  1.0080
  729MOL0     H98403   2.408   0.685  10.252  0.6845 -0.4026 -2.9178
  729MOL0     H98404   2.578   0.625  10.402 -0.1683  0.0321 -0.7786
  729MOL0     H98405   2.991   0.762  10.307 -2.5092  0.0981 -0.6149
  729MOL0     H98406   2.951   0.869  10.447 -1.0142  1.1857 -2.6632
  729MOL0     H98407   3.030   0.571  10.473 -3.3324  0.6815 -0.4040
  729MOL0     H98408   3.016   0.689  10.596  1.4947 -1.7429  0.2495
  729MOL0     H98409   3.234   0.679  10.384  0.2664  2.4520  0.5769
  729MOL0     H98410   3.254   0.643  10.554 -1.6212 -2.2700 -0.9185
  729MOL0     H98411   3.182   0.937  10.443  1.8920  0.2506 -0.9147
  729MOL0     H98412   3.345   0.861  10.472 -0.8684 -1.3502 -1.5397
  729MOL0     H98413   3.163   0.946  10.857 -3.3646  1.7286 -1.4293
  729MOL0     H98414   2.824   0.945  10.262 -0.1935 -0.1574 -0.3542
  729MOL0     H98415   2.640   1.038  10.146  3.2095 -0.0320  2.7151
  730MOL0     O98416  10.622   5.661   4.249 -0.3190 -0.4159  0.1061
  730MOL0     C98417  10.619   5.553   4.194 -0.9986  0.9550 -0.1705
  730MOL0     O98418  10.581   5.532   4.056 -0.2585 -0.2369 -0.5245
  730MOL0     C98419  10.527   5.638   3.979 -0.1024 -0.0716 -0.8715
  730MOL0     C98420  10.573   5.652   3.854 -0.7313 -1.0174 -0.2282
  730MOL0     C98421  10.519   5.751   3.760 -0.8887 -0.2351 -0.0697
  730MOL0     C98422  10.417   5.843   3.809  1.2330 -0.6857 -1.1106
  730MOL0     O98423  10.364   5.943   3.735  0.4445  0.3515  0.4531
  730MOL0     C98424  10.238   6.003   3.763  0.9449  0.8982  0.3315
  730MOL0     C98425  10.173   6.056   3.637 -0.5314  1.3803 -0.7393
  730MOL0     C98426  10.097   6.185   3.659 -0.4632 -0.7961  0.1831
  730MOL0     C98427  10.034   6.216   3.519  0.2710  0.4665 -0.5798
  730MOL0     C98428   9.967   6.352   3.512  0.3581  0.0700 -0.1235
  730MOL0     C98429  10.076   6.467   3.493  0.0262  0.6011 -0.4508
  730MOL0     C98430  10.010   6.596   3.436  0.2283  0.3233  0.5030
  730MOL0     C98431  10.045   6.609   3.290  0.0239 -0.3247 -0.7916
  730MOL0     N98432   9.992   6.733   3.230  0.2270  0.5173 -0.3037
  730MOL0     C98433  10.056   6.849   3.209 -0.7941 -1.7459 -0.7479
  730MOL0     C98434   9.963   6.944   3.164 -0.4997  0.5481 -0.3519
  730MOL0     C98435   9.996   7.084   3.143 -0.1166 -0.0863  0.5819
  730MOL0     C98436   9.870   7.162   3.116  0.4322  0.4752  0.0023
  730MOL0     C98437   9.898   7.315   3.094  0.5354  0.9736 -0.3947
  730MOL0     C98438   9.782   7.406   3.067  0.4369 -0.1149  0.5604
  730MOL0     O98439   9.678   7.379   3.164 -0.0510 -0.6968 -0.4343
  730MOL0     C98440   9.543   7.403   3.147 -0.2416 -0.3313  0.0077
  730MOL0     C98441   9.458   7.372   3.257 -0.6466 -0.2461 -0.4803
  730MOL0     C98442   9.321   7.399   3.256 -1.1740 -0.7595 -0.4083
  730MOL0     C98443   9.243   7.384   3.382  0.0987  0.2282  0.1618
  730MOL0     C98444   9.262   7.448   3.137 -0.1941  1.1148  0.3888
  730MOL0     C98445   9.113   7.482   3.119 -0.1167 -0.7487 -0.6118
  730MOL0     O98446   9.027   7.457   3.226 -0.2890 -0.1202  0.4342
  730MOL0     C98447   8.901   7.495   3.214 -0.0321  0.0663 -0.1195
  730MOL0     C98448   8.809   7.403   3.161  0.2563 -0.1205  0.4625
  730MOL0     C98449   8.679   7.445   3.136  0.0509  0.6593  0.1313
  730MOL0     C98450   8.633   7.572   3.170  0.7082  0.5766 -1.0592
  730MOL0     O98451   8.499   7.607   3.151  0.0410  0.1347  0.0251
  730MOL0     C98452   8.476   7.659   3.024  1.1671 -0.1857  0.1495
  730MOL0     C98453   8.329   7.644   2.986 -0.1446 -0.4570  0.6564
  730MOL0     C98454   8.289   7.495   2.992  1.1964 -0.5297 -0.4034
  730MOL0     C98455   8.137   7.451   2.982 -0.7435  0.0284  0.5766
  730MOL0     C98456   8.112   7.300   3.007 -0.2173 -1.1143  1.0416
  730MOL0     C98457   7.980   7.242   2.970 -0.7391 -0.1828 -0.6929
  730MOL0     C98458   7.948   7.271   2.817 -0.5326  0.3150 -0.5905
  730MOL0     C98459   7.800   7.236   2.790 -0.2346  0.1686  0.5125
  730MOL0    Cl98460   7.741   7.301   2.632 -0.6121 -0.4361  0.1332
  730MOL0     C98461   8.728   7.666   3.203  0.0195 -0.1909 -0.6884
  730MOL0     C98462   8.863   7.626   3.226  1.0145 -0.9317 -0.1061
  730MOL0     O98463   9.077   7.523   3.011 -0.2288 -0.1961  0.3804
  730MOL0     C98464   9.350   7.478   3.033  1.1132 -0.2183  0.6378
  730MOL0     C98465   9.487   7.464   3.035  0.7402 -0.0268  0.7429
  730MOL0     N98466   9.842   6.868   3.162 -0.0034 -0.2128  0.5809
  730MOL0     N98467   9.868   6.738   3.181 -0.3588  0.2263 -0.6469
  730MOL0     C98468  10.372   5.826   3.942  0.1336  0.0980  0.2770
  730MOL0     C98469  10.421   5.726   4.029 -0.1290 -0.7025 -0.8636
  730MOL0     C98470  10.659   5.439   4.276  0.7377  0.6852 -0.0271
  730MOL0     C98471  10.682   5.452   4.415  0.2570 -0.4435 -0.3099
  730MOL0     C98472  10.717   5.340   4.491 -0.8973 -0.0879 -0.6109
  730MOL0     C98473  10.727   5.212   4.440 -0.4029  0.2096 -0.2347
  730MOL0     O98474  10.764   5.104   4.515  0.5479  0.1140 -0.2785
  730MOL0     C98475  10.902   5.112   4.557  0.4252  0.3117 -0.4822
  730MOL0     C98476  10.939   5.037   4.688  0.5221 -0.8736  0.1185
  730MOL0     C98477  10.915   4.891   4.671  1.1762 -1.0009  0.3553
  730MOL0     C98478  10.939   4.814   4.804  0.4524  0.0923 -0.0125
  730MOL0     C98479  10.815   4.815   4.890 -0.2873  0.1119 -0.0430
  730MOL0     C98480  10.711   4.818   4.950  1.2504 -0.2474  0.3306
  730MOL0     C98481  10.684   5.205   4.302  0.9413 -0.2262 -0.9104
  730MOL0     C98482  10.647   5.307   4.217  0.1360  0.0966  0.6372
  730MOL0     H98483  10.648   5.580   3.823 -0.4259 -2.1472  2.8010
  730MOL0     H98484  10.573   5.766   3.667 -1.1006 -0.5993 -0.2548
  730MOL0     H98485  10.170   5.933   3.811  0.8751  2.0421  1.9947
  730MOL0     H98486  10.248   6.081   3.839 -1.6513  1.2242  0.4210
  730MOL0     H98487  10.246   6.083   3.561 -1.8179 -1.3194 -3.1497
  730MOL0     H98488  10.097   5.984   3.603 -2.5289  2.5560  0.9904
  730MOL0     H98489  10.016   6.177   3.733 -0.6793 -0.7119 -0.0425
  730MOL0     H98490  10.166   6.264   3.690 -0.5098  0.4183 -2.5800
  730MOL0     H98491  10.112   6.199   3.443  1.0018 -1.4680  0.5204
  730MOL0     H98492   9.971   6.128   3.505 -2.1563  2.0309  0.0547
  730MOL0     H98493   9.921   6.352   3.413 -1.3186 -0.7125  0.6199
  730MOL0     H98494   9.895   6.390   3.586  2.6080  1.8005  1.3048
  730MOL0     H98495  10.139   6.505   3.574  0.7157 -1.1401 -0.1139
  730MOL0     H98496  10.135   6.429   3.410 -1.3026  2.1362 -2.1674
  730MOL0     H98497   9.902   6.590   3.451  0.1495 -0.4472 -0.2976
  730MOL0     H98498  10.040   6.682   3.498 -3.5507  1.1952  1.3859
  730MOL0     H98499   9.996   6.532   3.229 -0.9630  1.3409 -2.1916
  730MOL0     H98500  10.153   6.600   3.276  1.0501  0.1246  4.4929
  730MOL0     H98501  10.164   6.861   3.221 -0.9674 -2.4148  2.6171
  730MOL0     H98502  10.037   7.120   3.238  0.1422  0.1168  0.3923
  730MOL0     H98503  10.068   7.088   3.061 -0.4769  1.3578  0.3136
  730MOL0     H98504   9.797   7.140   3.194 -0.1742  0.6819 -0.5015
  730MOL0     H98505   9.821   7.120   3.028 -2.2360 -1.4647  2.2602
  730MOL0     H98506   9.952   7.326   2.999 -0.6888  1.7847 -1.0352
  730MOL0     H98507   9.951   7.349   3.183 -0.4709  2.5382 -0.3589
  730MOL0     H98508   9.743   7.385   2.967  2.5647 -1.8399 -0.0070
  730MOL0     H98509   9.808   7.512   3.063  0.1093  0.0096  1.5145
  730MOL0     H98510   9.503   7.338   3.349 -1.3956  2.4490  0.9940
  730MOL0     H98511   9.301   7.342   3.466 -1.0638  0.4683  1.1147
  730MOL0     H98512   9.209   7.476   3.431 -1.3410 -0.3505  0.3162
  730MOL0     H98513   9.153   7.324   3.362 -0.3568 -0.0606  2.6992
  730MOL0     H98514   8.837   7.302   3.135 -1.0107  0.2033 -2.5380
  730MOL0     H98515   8.600   7.377   3.105 -2.2162  1.6204  3.2653
  730MOL0     H98516   8.500   7.766   3.030  0.3398  0.2023 -2.4022
  730MOL0     H98517   8.534   7.614   2.943  2.0484 -1.3220  1.3628
  730MOL0     H98518   8.260   7.701   3.050 -1.8943 -1.1770 -0.4954
  730MOL0     H98519   8.316   7.681   2.884  1.2248  1.0816  1.0061
  730MOL0     H98520   8.316   7.443   3.084  1.1203 -1.3863 -0.8564
  730MOL0     H98521   8.347   7.440   2.917  0.8353  1.2900 -2.1098
  730MOL0     H98522   8.081   7.503   3.060  0.8961 -3.6700  4.6695
  730MOL0     H98523   8.099   7.475   2.882 -2.2119 -0.8825  0.8858
  730MOL0     H98524   8.118   7.274   3.113  1.5878 -2.1186  0.7257
  730MOL0     H98525   8.175   7.240   2.940  1.4070  0.4114  1.1576
  730MOL0     H98526   7.977   7.133   2.977 -4.9715 -0.1550  1.0349
  730MOL0     H98527   7.908   7.287   3.039 -0.3150  1.8312 -1.4869
  730MOL0     H98528   8.007   7.199   2.760 -0.2800  0.5643 -0.6426
  730MOL0     H98529   7.964   7.375   2.788 -0.5771 -0.3093 -3.0941
  730MOL0     H98530   7.744   7.281   2.873  1.2513 -1.2176  2.3649
  730MOL0     H98531   7.777   7.129   2.797 -0.3382  0.2564  1.8082
  730MOL0     H98532   8.693   7.766   3.226  0.2838 -0.7958  2.8136
  730MOL0     H98533   8.931   7.709   3.243  0.2355  0.7405 -3.9168
  730MOL0     H98534   9.299   7.514   2.944 -0.2776 -1.0494  1.0574
  730MOL0     H98535   9.545   7.503   2.951  1.5107 -1.6644  0.4621
  730MOL0     H98536  10.296   5.891   3.983  0.4898  0.8161 -0.1966
  730MOL0     H98537  10.385   5.722   4.131  1.8693  0.1089 -0.0706
  730MOL0     H98538  10.672   5.548   4.465 -0.4061 -0.0949 -1.0876
  730MOL0     H98539  10.753   5.343   4.593  2.1494 -0.7312 -1.5685
  730MOL0     H98540  10.975   5.079   4.483 -1.8156 -1.4405 -2.0386
  730MOL0     H98541  10.932   5.217   4.570  0.7939  0.5111 -2.6672
  730MOL0     H98542  10.868   5.083   4.757  0.1173 -3.0940  1.2840
  730MOL0     H98543  11.042   5.043   4.726  0.6633 -0.8332 -0.2684
  730MOL0     H98544  10.991   4.855   4.600  1.4506 -1.6223  0.9553
  730MOL0     H98545  10.816   4.873   4.629  1.4591 -1.4951 -0.1098
  730MOL0     H98546  11.032   4.835   4.856  0.9648  0.1519 -0.9216
  730MOL0     H98547  10.950   4.707   4.784  3.7685  0.2427  0.4063
  730MOL0     H98548  10.627   4.832   5.015  0.8565 -1.1631  0.0295
  730MOL0     H98549  10.670   5.102   4.270 -4.6909 -0.4697  1.1870
  730MOL0     H98550  10.611   5.299   4.115 -0.9769 -0.7943  1.0771
  731MOL0     O98551  10.928   3.254   0.735  0.5379  0.1882  0.0763
  731MOL0     C98552  10.933   3.374   0.757  0.0388  0.0379 -0.8163
  731MOL0     O98553  10.831   3.459   0.744  0.3959 -0.6018 -0.1255
  731MOL0     C98554  10.699   3.427   0.704 -0.1648 -0.0734 -0.1969
  731MOL0     C98555  10.652   3.300   0.654  1.2059  0.7949 -0.5389
  731MOL0     C98556  10.515   3.287   0.618  0.5808  0.1305 -0.5469
  731MOL0     C98557  10.433   3.397   0.612  0.4140 -0.6582  0.9067
  731MOL0     O98558  10.309   3.382   0.554 -0.4954  0.2042  0.5141
  731MOL0     C98559  10.211   3.482   0.585  0.8842  0.0877 -0.3024
  731MOL0     C98560  10.084   3.400   0.609 -0.4841 -0.5685  1.0119
  731MOL0     C98561   9.963   3.476   0.665  0.1179 -0.1007  0.7234
  731MOL0     C98562   9.928   3.599   0.577 -0.1424  0.5158 -0.0601
  731MOL0     C98563   9.788   3.659   0.569  0.4554  0.3896 -0.3105
  731MOL0     C98564   9.707   3.695   0.699 -0.4143  1.2186 -0.2421
  731MOL0     C98565   9.571   3.757   0.668  0.2841 -0.7866  0.0037
  731MOL0     C98566   9.487   3.805   0.787 -0.3599 -0.1083  0.2221
  731MOL0     N98567   9.399   3.713   0.858  0.4138  0.3012 -0.2812
  731MOL0     C98568   9.314   3.630   0.800 -0.3129  0.4869  0.6691
  731MOL0     C98569   9.243   3.569   0.898 -0.2827  0.4473 -0.2406
  731MOL0     C98570   9.134   3.459   0.891  0.2974 -0.5121  0.0153
  731MOL0     C98571   9.048   3.470   0.771  0.3013 -0.0731 -0.1258
  731MOL0     C98572   8.900   3.443   0.815 -0.0753  0.9957  0.1720
  731MOL0     C98573   8.802   3.501   0.723 -0.3225 -0.3565  1.3128
  731MOL0     O98574   8.675   3.512   0.802 -0.1210  0.3235  0.2324
  731MOL0     C98575   8.566   3.438   0.762  0.2567 -0.4223  0.4187
  731MOL0     C98576   8.542   3.400   0.628  0.0953 -0.4785  0.3515
  731MOL0     C98577   8.445   3.300   0.596  0.9115 -0.2935 -0.1397
  731MOL0     C98578   8.424   3.269   0.448 -0.3249  0.3066 -0.4797
  731MOL0     C98579   8.364   3.240   0.693 -0.4772 -0.2451  0.6375
  731MOL0     C98580   8.259   3.136   0.672 -0.2663  0.4405  0.4649
  731MOL0     O98581   8.211   3.103   0.545  0.2913 -0.6216  0.1019
  731MOL0     C98582   8.106   3.020   0.530  0.0606 -0.0397  0.5413
  731MOL0     C98583   8.121   2.883   0.527 -1.2496  0.0256 -0.1542
  731MOL0     C98584   8.012   2.798   0.534  0.7125  0.3153  0.8421
  731MOL0     C98585   7.881   2.854   0.539  0.7380  0.3131  0.3156
  731MOL0     O98586   7.767   2.777   0.512 -0.1794 -0.4345  0.1151
  731MOL0     C98587   7.753   2.652   0.584 -0.4568  0.4681  0.7103
  731MOL0     C98588   7.612   2.602   0.558 -0.3206 -0.4456 -0.8637
  731MOL0     C98589   7.576   2.612   0.413  0.5241 -0.0935 -0.7405
  731MOL0     C98590   7.462   2.514   0.379  0.7555  0.0680  0.1506
  731MOL0     C98591   7.373   2.551   0.251 -0.1008  1.0478 -0.0433
  731MOL0     C98592   7.278   2.432   0.204 -0.1545 -0.3454  0.1139
  731MOL0     C98593   7.141   2.472   0.144 -0.5925  0.2793 -1.0078
  731MOL0     C98594   7.030   2.408   0.223  0.6891  0.4520  0.1836
  731MOL0    Cl98595   6.871   2.428   0.150  0.5995 -0.0582  0.0865
  731MOL0     C98596   7.868   2.990   0.534 -0.9674  0.8442 -0.6962
  731MOL0     C98597   7.984   3.079   0.534  0.9853 -0.2519  0.1219
  731MOL0     O98598   8.219   3.086   0.775  0.1103 -0.0577 -0.4564
  731MOL0     C98599   8.387   3.281   0.825 -0.2663 -0.7854 -0.1169
  731MOL0     C98600   8.479   3.387   0.857  0.0646  0.1323 -0.8061
  731MOL0     N98601   9.283   3.625   1.019  0.3325 -0.4265 -0.7504
  731MOL0     N98602   9.375   3.711   0.996  0.0669 -0.5069  0.1726
  731MOL0     C98603  10.482   3.520   0.653 -0.9041 -0.6662 -0.1363
  731MOL0     C98604  10.613   3.536   0.698  0.5230  0.5473 -1.5988
  731MOL0     C98605  11.069   3.426   0.784  0.2212 -0.1082  0.6007
  731MOL0     C98606  11.178   3.345   0.776  0.5092  0.4297 -0.5690
  731MOL0     C98607  11.307   3.389   0.806 -0.4647 -0.3345  0.1285
  731MOL0     C98608  11.335   3.524   0.829 -1.1036  0.8692 -0.2507
  731MOL0     O98609  11.464   3.565   0.856 -0.8052 -0.1180 -0.2928
  731MOL0     C98610  11.500   3.706   0.868  0.1316 -0.1587 -0.3512
  731MOL0     C98611  11.648   3.708   0.914 -0.2582  0.2873 -0.3509
  731MOL0     C98612  11.692   3.849   0.954  1.0725  0.2015 -0.8312
  731MOL0     C98613  11.789   3.911   0.863 -0.9421 -0.0793  0.1745
  731MOL0     C98614  11.813   4.053   0.898  0.6281  0.8188  0.4058
  731MOL0     C98615  11.819   4.167   0.930 -0.0732  0.1863  0.4488
  731MOL0     C98616  11.220   3.611   0.837  1.2252  0.0374 -0.1159
  731MOL0     C98617  11.090   3.561   0.826  0.0394 -0.6751 -0.1797
  731MOL0     H98618  10.711   3.210   0.673  1.3709  0.8215 -0.9172
  731MOL0     H98619  10.473   3.191   0.589 -1.9043  0.9809  0.0011
  731MOL0     H98620  10.237   3.558   0.659 -1.8158  2.2935 -1.4456
  731MOL0     H98621  10.182   3.539   0.496 -2.9561 -0.2706  0.5545
  731MOL0     H98622  10.052   3.353   0.516  4.5998  0.2402 -1.4537
  731MOL0     H98623  10.109   3.331   0.690  2.8678 -0.6165  0.0780
  731MOL0     H98624   9.880   3.406   0.667 -0.2311  0.3301  1.8656
  731MOL0     H98625   9.984   3.509   0.767 -3.4514  0.6564  1.3366
  731MOL0     H98626   9.999   3.680   0.600  1.4235 -1.1100  1.1245
  731MOL0     H98627   9.958   3.575   0.475  0.6644 -0.8127  0.4596
  731MOL0     H98628   9.786   3.748   0.506 -0.2316 -0.9656 -2.3025
  731MOL0     H98629   9.722   3.586   0.522 -2.0357  1.7863  0.8134
  731MOL0     H98630   9.701   3.598   0.748  3.2616 -0.3397 -2.4430
  731MOL0     H98631   9.762   3.758   0.770 -1.7781  2.7423 -0.4842
  731MOL0     H98632   9.601   3.848   0.616 -2.6324  0.0502 -0.3854
  731MOL0     H98633   9.525   3.690   0.595 -1.3745  0.5960 -0.2717
  731MOL0     H98634   9.426   3.883   0.740  0.0453  1.3739  2.0547
  731MOL0     H98635   9.546   3.869   0.853  1.7657 -0.3284 -1.3658
  731MOL0     H98636   9.310   3.617   0.692  2.0261 -0.0826  0.5970
  731MOL0     H98637   9.160   3.357   0.919  0.7349 -0.5671 -0.5724
  731MOL0     H98638   9.074   3.482   0.980 -0.1689 -1.4691 -0.0345
  731MOL0     H98639   9.094   3.404   0.697  5.2448  1.3405  1.3228
  731MOL0     H98640   9.058   3.576   0.743  3.1425 -0.7226 -1.9496
  731MOL0     H98641   8.879   3.487   0.912  1.3823 -0.3820  1.1661
  731MOL0     H98642   8.880   3.337   0.833  1.6248  1.0609  2.9581
  731MOL0     H98643   8.797   3.436   0.635 -1.1615 -0.1992  1.2345
  731MOL0     H98644   8.831   3.603   0.698  0.3339 -0.8597 -0.0615
  731MOL0     H98645   8.602   3.448   0.552 -1.3360 -0.8282 -1.0557
  731MOL0     H98646   8.323   3.288   0.410 -0.8310  2.5914  1.7458
  731MOL0     H98647   8.507   3.315   0.394  0.8183 -1.1441 -0.0148
  731MOL0     H98648   8.439   3.162   0.431 -3.5013 -0.2747 -0.2933
  731MOL0     H98649   8.225   2.853   0.530 -1.8206 -2.1112  2.6617
  731MOL0     H98650   8.023   2.690   0.536 -1.5213  0.0262  0.3624
  731MOL0     H98651   7.825   2.577   0.551 -1.4676 -0.2200  0.0460
  731MOL0     H98652   7.771   2.670   0.691  0.5263 -0.6195  0.7511
  731MOL0     H98653   7.620   2.497   0.589  2.0821  0.4985  2.3451
  731MOL0     H98654   7.541   2.659   0.618 -4.2474 -0.4653 -4.9811
  731MOL0     H98655   7.659   2.582   0.348  2.0307 -0.1062  1.1265
  731MOL0     H98656   7.548   2.716   0.394  2.6107  0.5939 -0.3364
  731MOL0     H98657   7.506   2.416   0.362 -0.0869 -0.0612 -1.4314
  731MOL0     H98658   7.394   2.528   0.464  0.3891  0.1492 -0.1565
  731MOL0     H98659   7.442   2.585   0.174  1.9461 -0.0435  1.2315
  731MOL0     H98660   7.312   2.637   0.280 -0.1709  2.4599 -3.7772
  731MOL0     H98661   7.327   2.371   0.127  1.0607  0.2053  0.4256
  731MOL0     H98662   7.263   2.372   0.294 -1.7420  0.5878  0.5087
  731MOL0     H98663   7.149   2.456   0.036 -1.6633 -0.2788 -1.0247
  731MOL0     H98664   7.124   2.580   0.151 -1.4293  0.3094 -2.8347
  731MOL0     H98665   7.032   2.447   0.325  3.7085 -0.4307  0.5500
  731MOL0     H98666   7.058   2.302   0.226  1.5824  0.3509 -4.3190
  731MOL0     H98667   7.774   3.045   0.530  0.1891  3.0475  0.7384
  731MOL0     H98668   7.974   3.187   0.530 -0.8059 -0.4261 -1.4402
  731MOL0     H98669   8.317   3.255   0.905 -0.5711 -0.9962 -0.4453
  731MOL0     H98670   8.508   3.410   0.959  1.1983  0.4437 -1.1782
  731MOL0     H98671  10.425   3.612   0.640 -0.5791 -0.7501 -2.7820
  731MOL0     H98672  10.651   3.631   0.734  0.6206  0.2305 -0.8473
  731MOL0     H98673  11.168   3.241   0.748  0.0136  0.5599 -0.8694
  731MOL0     H98674  11.393   3.323   0.817  1.3169  2.1176  2.4909
  731MOL0     H98675  11.472   3.752   0.773 -0.2155 -0.2957 -0.3195
  731MOL0     H98676  11.439   3.755   0.945 -1.5494  2.1144 -2.9292
  731MOL0     H98677  11.710   3.677   0.829 -0.4266 -0.6325 -0.1480
  731MOL0     H98678  11.653   3.636   0.996 -2.7919 -1.4945 -1.6232
  731MOL0     H98679  11.738   3.837   1.053 -0.3846  1.0570 -0.0051
  731MOL0     H98680  11.606   3.916   0.967  0.9388 -0.2653  1.0402
  731MOL0     H98681  11.757   3.898   0.759  1.4078  0.6350 -0.7040
  731MOL0     H98682  11.886   3.863   0.872 -0.1632  1.7363  2.2773
  731MOL0     H98683  11.809   4.269   0.963 -2.2137 -0.1852  1.1336
  731MOL0     H98684  11.222   3.718   0.855  0.2397  0.3209 -1.5085
  731MOL0     H98685  11.012   3.634   0.846  0.0139 -0.2480 -1.6841
  732MOL0     O98686   1.464   3.363  11.012  0.2481  0.2836 -0.5328
  732MOL0     C98687   1.518   3.460  11.071 -0.1775 -0.2119  0.8107
  732MOL0     O98688   1.453   3.551  11.151 -0.2598  0.2247 -0.8187
  732MOL0     C98689   1.320   3.531  11.180  0.1927  0.8960  0.1296
  732MOL0     C98690   1.224   3.605  11.113 -1.4351 -0.4370  0.5944
  732MOL0     C98691   1.090   3.575  11.141  0.8592 -0.7057 -0.4336
  732MOL0     C98692   1.052   3.488  11.245  0.5663 -0.5157  0.6826
  732MOL0     O98693   0.919   3.445  11.274  0.0499  0.0084 -0.2414
  732MOL0     C98694   0.814   3.464  11.169  0.0442 -0.1072  0.0682
  732MOL0     C98695   0.733   3.589  11.175  0.6748 -0.5499 -0.1504
  732MOL0     C98696   0.614   3.611  11.085 -0.4087  0.5931 -0.0036
  732MOL0     C98697   0.556   3.751  11.101 -0.3040  0.1488  0.5543
  732MOL0     C98698   0.486   3.797  10.974 -0.3121 -0.2087  0.9914
  732MOL0     C98699   0.372   3.712  10.918  0.2605  0.8170  0.2412
  732MOL0     C98700   0.259   3.677  11.019  0.6932 -0.1794 -0.2825
  732MOL0     C98701   0.141   3.611  10.936  0.4224  0.8612 -0.4341
  732MOL0     N98702   0.041   3.704  10.870 -0.6946  0.7153  0.3383
  732MOL0     C98703   0.046   3.702  10.733 -0.8456  0.2237 -0.5069
  732MOL0     C98704  -0.083   3.730  10.699 -0.0315  0.3654  0.8402
  732MOL0     C98705  -0.152   3.744  10.564  0.0507 -0.5646 -0.5228
  732MOL0     C98706  -0.157   3.609  10.480  0.4452  0.5454  0.1973
  732MOL0     C98707  -0.222   3.620  10.347  0.7306 -0.1286 -0.5451
  732MOL0     C98708  -0.116   3.627  10.230  0.1583 -1.0270 -0.2734
  732MOL0     O98709  -0.076   3.495  10.191  0.5930  0.9329  0.5760
  732MOL0     C98710   0.045   3.466  10.136 -0.2235  0.1427  0.3405
  732MOL0     C98711   0.161   3.524  10.183 -0.3684  0.3851  0.4597
  732MOL0     C98712   0.293   3.477  10.142  0.0292 -0.4774 -0.8689
  732MOL0     C98713   0.412   3.534  10.217  0.3318 -0.5702 -0.2788
  732MOL0     C98714   0.300   3.385  10.042  0.2227 -0.3082  0.1283
  732MOL0     C98715   0.425   3.344   9.981 -0.1817 -0.3109 -0.7123
  732MOL0     O98716   0.514   3.446   9.967  0.6982  0.0243  0.9017
  732MOL0     C98717   0.642   3.417   9.946  0.2379  0.4039  0.4367
  732MOL0     C98718   0.745   3.476  10.013  0.0483  0.6041  0.5238
  732MOL0     C98719   0.883   3.451   9.976  0.1455  0.2882  0.0501
  732MOL0     C98720   0.911   3.356   9.876  0.5890  0.0097 -0.5920
  732MOL0     O98721   1.050   3.326   9.869  0.4510  0.1587  0.8516
  732MOL0     C98722   1.095   3.302   9.737 -0.1169  0.4096 -0.0572
  732MOL0     C98723   1.245   3.269   9.760 -0.0601  0.1974 -0.0037
  732MOL0     C98724   1.338   3.388   9.750 -0.6843 -0.2274 -0.0337
  732MOL0     C98725   1.478   3.346   9.729 -0.0737 -0.0067  0.1252
  732MOL0     C98726   1.581   3.469   9.725  1.0737  1.1762  0.8100
  732MOL0     C98727   1.720   3.408   9.706  0.1789 -0.3004 -0.7382
  732MOL0     C98728   1.818   3.521   9.694 -0.3379 -0.2368 -0.5571
  732MOL0     C98729   1.955   3.478   9.709  1.1668  0.3343 -0.6405
  732MOL0    Cl98730   1.994   3.347   9.593  0.0537  0.3224  0.0823
  732MOL0     C98731   0.805   3.311   9.796 -0.8018 -0.3728  0.5802
  732MOL0     C98732   0.672   3.341   9.828 -0.1301 -0.3434 -0.2854
  732MOL0     O98733   0.445   3.224   9.958 -0.5581  0.2152 -0.3453
  732MOL0     C98734   0.179   3.321  10.000 -0.0387 -0.3744  1.1501
  732MOL0     C98735   0.054   3.356  10.054  0.0660  0.5485 -0.1314
  732MOL0     N98736  -0.158   3.753  10.808 -0.9272  0.7974  0.3725
  732MOL0     N98737  -0.088   3.729  10.912 -0.6194 -0.1192  0.5692
  732MOL0     C98738   1.148   3.430  11.327  0.0523  0.2310  0.1765
  732MOL0     C98739   1.286   3.450  11.297 -0.1028  0.8220 -0.0177
  732MOL0     C98740   1.664   3.470  11.054  0.2246 -0.0986  0.7578
  732MOL0     C98741   1.738   3.375  10.983 -0.9644  0.6079 -0.5082
  732MOL0     C98742   1.879   3.374  10.983  0.1948  0.6611  0.3220
  732MOL0     C98743   1.953   3.468  11.048  1.2433  0.6873 -0.5962
  732MOL0     O98744   2.087   3.488  11.053 -0.3550  0.5375 -0.7973
  732MOL0     C98745   2.167   3.390  10.987 -0.4018 -0.8109 -0.2085
  732MOL0     C98746   2.311   3.416  11.017 -1.2412 -0.4375 -0.6084
  732MOL0     C98747   2.401   3.335  10.927  0.2735 -0.3206 -0.5326
  732MOL0     C98748   2.542   3.356  10.960  0.7711  0.2446 -0.2327
  732MOL0     C98749   2.636   3.295  10.866 -0.0205 -0.3691  0.1784
  732MOL0     C98750   2.697   3.247  10.778  0.3706 -0.5940  0.7176
  732MOL0     C98751   1.876   3.572  11.103  0.1095 -0.1167  0.6241
  732MOL0     C98752   1.735   3.576  11.105  0.1246 -0.7769 -0.9621
  732MOL0     H98753   1.244   3.686  11.043 -0.5659 -0.3545  0.9321
  732MOL0     H98754   1.020   3.626  11.075  0.5872  1.5794  1.4934
  732MOL0     H98755   0.861   3.472  11.070 -1.0066  1.9548 -0.3216
  732MOL0     H98756   0.754   3.372  11.161 -2.8951  1.7722 -1.5495
  732MOL0     H98757   0.714   3.622  11.278  0.8740 -0.0700 -0.2648
  732MOL0     H98758   0.803   3.667  11.143 -1.0759  0.5662 -1.4231
  732MOL0     H98759   0.652   3.597  10.983 -1.4755  0.9623 -0.4687
  732MOL0     H98760   0.537   3.536  11.104 -0.5587  0.1626 -2.0543
  732MOL0     H98761   0.474   3.747  11.175 -2.3042  0.0226 -1.5599
  732MOL0     H98762   0.633   3.824  11.126 -1.8565  1.6750  1.0891
  732MOL0     H98763   0.446   3.899  10.985 -2.3077 -0.6647 -1.3328
  732MOL0     H98764   0.553   3.804  10.889 -1.3624  1.4062  0.2393
  732MOL0     H98765   0.330   3.762  10.831 -0.0533  1.8747  0.9770
  732MOL0     H98766   0.404   3.614  10.881 -0.1687  0.9609 -0.5398
  732MOL0     H98767   0.287   3.608  11.099  0.2750 -0.8358 -0.6887
  732MOL0     H98768   0.206   3.758  11.069 -1.2225 -0.9840 -0.9016
  732MOL0     H98769   0.078   3.551  11.002  0.4360 -0.7356 -1.7992
  732MOL0     H98770   0.184   3.537  10.868 -1.2089 -1.7451  1.1915
  732MOL0     H98771   0.132   3.666  10.677 -0.9737 -0.4099 -0.3069
  732MOL0     H98772  -0.254   3.779  10.579  0.3871 -0.8290  3.5069
  732MOL0     H98773  -0.087   3.815  10.512 -1.8410  1.8180  0.1921
  732MOL0     H98774  -0.200   3.529  10.540 -0.5012  0.7581 -0.1871
  732MOL0     H98775  -0.056   3.573  10.455 -0.7445 -2.9667 -0.1720
  732MOL0     H98776  -0.288   3.707  10.360  0.5081 -0.7288  4.6216
  732MOL0     H98777  -0.292   3.538  10.327 -0.9029  1.2808 -0.8773
  732MOL0     H98778  -0.028   3.679  10.270 -0.8262 -0.9763  1.9616
  732MOL0     H98779  -0.155   3.679  10.142  1.6409  1.4551  0.4093
  732MOL0     H98780   0.166   3.597  10.263  0.7594  1.2018 -0.3355
  732MOL0     H98781   0.466   3.612  10.162 -0.5756 -0.3090 -0.8290
  732MOL0     H98782   0.380   3.577  10.313  1.9395  1.3932 -0.5573
  732MOL0     H98783   0.483   3.454  10.238 -0.1392 -0.7659  0.6619
  732MOL0     H98784   0.716   3.548  10.089  0.1377 -1.0964  2.2560
  732MOL0     H98785   0.965   3.490  10.035  1.7180 -1.2571 -1.0300
  732MOL0     H98786   1.051   3.213   9.690  2.1359 -1.4585  1.1854
  732MOL0     H98787   1.087   3.391   9.674 -2.3485  0.2419 -0.0979
  732MOL0     H98788   1.270   3.212   9.850 -0.0975  1.6263  0.9441
  732MOL0     H98789   1.264   3.208   9.671 -0.7272 -2.4414  1.5301
  732MOL0     H98790   1.340   3.449   9.840  2.1817  1.8241 -1.3567
  732MOL0     H98791   1.299   3.448   9.667 -0.3492  0.4786  0.3071
  732MOL0     H98792   1.508   3.274   9.806  0.0957 -0.6878 -0.5724
  732MOL0     H98793   1.486   3.290   9.636  2.9292 -0.2849  0.4558
  732MOL0     H98794   1.575   3.519   9.823  2.8113 -1.3075  2.3022
  732MOL0     H98795   1.550   3.540   9.648  0.2472 -0.0542 -0.0175
  732MOL0     H98796   1.760   3.332   9.773  2.7851  2.0803  0.6036
  732MOL0     H98797   1.721   3.355   9.610 -0.8818 -1.1397 -0.2980
  732MOL0     H98798   1.795   3.605   9.761 -0.9269  0.3662 -1.4898
  732MOL0     H98799   1.806   3.563   9.593  2.0430  1.9991 -0.0330
  732MOL0     H98800   1.972   3.437   9.809  2.2881 -0.8863 -1.2937
  732MOL0     H98801   2.023   3.563   9.698 -1.1044  2.4165  0.5514
  732MOL0     H98802   0.825   3.257   9.704 -1.7862 -0.2066  0.2509
  732MOL0     H98803   0.601   3.302   9.756  0.0876  0.2695 -0.8434
  732MOL0     H98804   0.166   3.243   9.925 -0.4422  0.0145  0.8147
  732MOL0     H98805  -0.035   3.298  10.036  1.8358 -1.5975 -2.7349
  732MOL0     H98806   1.118   3.367  11.410  0.4368  2.0405  1.7493
  732MOL0     H98807   1.367   3.408  11.356 -1.9223 -2.4899  0.3046
  732MOL0     H98808   1.689   3.292  10.933  1.2396 -0.0559 -1.7146
  732MOL0     H98809   1.925   3.299  10.920  1.5492  1.3488  0.4553
  732MOL0     H98810   2.143   3.295  11.036 -0.3855 -1.0984 -0.7597
  732MOL0     H98811   2.147   3.402  10.880 -1.0687  2.1332  0.1443
  732MOL0     H98812   2.340   3.388  11.119  0.4174 -3.0791 -1.7226
  732MOL0     H98813   2.329   3.524  11.009  1.2834 -0.8777 -1.7592
  732MOL0     H98814   2.398   3.373  10.824  1.3672  0.5593 -0.2656
  732MOL0     H98815   2.378   3.229  10.934  1.2612 -0.7856 -3.2063
  732MOL0     H98816   2.554   3.311  11.059  1.0845  1.2313  0.1846
  732MOL0     H98817   2.575   3.459  10.972  0.8642  0.1523  0.3339
  732MOL0     H98818   2.759   3.192  10.711 -1.9479 -0.6097 -1.5951
  732MOL0     H98819   1.931   3.656  11.144 -0.3578  1.6193 -2.0763
  732MOL0     H98820   1.696   3.664  11.156  3.2216 -0.7608  1.6790
  733MOL0     O98821   6.249   3.999   7.098  0.3012  0.4682 -0.5631
  733MOL0     C98822   6.282   4.085   7.008  0.3709  0.2985  0.4543
  733MOL0     O98823   6.402   4.100   6.954 -0.6418  0.6677  0.1976
  733MOL0     C98824   6.519   4.036   6.993  0.3016 -0.3037 -0.3008
  733MOL0     C98825   6.533   3.998   7.132 -0.9877  0.2054 -0.5169
  733MOL0     C98826   6.650   3.939   7.173 -0.5558 -0.2864  0.6195
  733MOL0     C98827   6.746   3.901   7.083 -0.3322 -0.2825 -0.6157
  733MOL0     O98828   6.858   3.834   7.128 -0.3234 -0.6871 -0.5333
  733MOL0     C98829   6.981   3.911   7.115 -0.0171 -0.0923 -0.0308
  733MOL0     C98830   7.093   3.801   7.136  0.0854  0.9717  0.0622
  733MOL0     C98831   7.103   3.721   7.000 -0.2573 -0.9582  0.2075
  733MOL0     C98832   7.212   3.789   6.906  0.8316 -0.2995 -0.2804
  733MOL0     C98833   7.202   3.724   6.764  0.6537 -0.5370 -0.9795
  733MOL0     C98834   7.286   3.795   6.663  0.7511  0.4099  0.9582
  733MOL0     C98835   7.232   3.764   6.523 -0.2600  0.4217  0.4354
  733MOL0     C98836   7.285   3.871   6.430  1.9008  0.0699  0.2467
  733MOL0     N98837   7.272   3.821   6.289  0.5373 -1.1446  0.1370
  733MOL0     C98838   7.356   3.732   6.232  0.0065  0.5513  0.4794
  733MOL0     C98839   7.336   3.740   6.095 -0.6165 -0.0568 -0.1066
  733MOL0     C98840   7.387   3.666   5.979  0.6169  0.0304 -0.2401
  733MOL0     C98841   7.512   3.725   5.901 -0.6584 -0.2852 -0.6567
  733MOL0     C98842   7.637   3.718   5.988  0.1562  0.0411  0.6532
  733MOL0     C98843   7.757   3.795   5.941 -0.7110  0.7416 -0.2535
  733MOL0     O98844   7.815   3.731   5.825 -0.9725 -0.1298 -0.2604
  733MOL0     C98845   7.886   3.816   5.753  0.5781 -0.2113  0.7854
  733MOL0     C98846   7.827   3.873   5.643  0.8410  0.1328 -1.0647
  733MOL0     C98847   7.908   3.957   5.562 -0.6370  0.1826 -0.4320
  733MOL0     C98848   7.839   4.017   5.440  0.4010  0.3166 -0.8417
  733MOL0     C98849   8.038   4.001   5.597 -0.5809 -0.6043  0.9333
  733MOL0     C98850   8.112   4.115   5.528 -0.1535 -0.0731 -0.9702
  733MOL0     O98851   8.229   4.156   5.591  0.0631 -0.1474  0.7103
  733MOL0     C98852   8.289   4.270   5.543 -0.7795  0.0939 -0.3213
  733MOL0     C98853   8.257   4.394   5.590  0.3229 -0.8844  0.2825
  733MOL0     C98854   8.335   4.510   5.555  0.0038 -0.1940 -0.3716
  733MOL0     C98855   8.458   4.495   5.483 -0.0945  0.1288  0.0722
  733MOL0     O98856   8.537   4.606   5.462  0.0722  0.0721 -0.4142
  733MOL0     C98857   8.680   4.574   5.469  0.3330 -0.0779 -1.2078
  733MOL0     C98858   8.741   4.706   5.522 -0.9004 -0.6645  0.3640
  733MOL0     C98859   8.897   4.693   5.534 -0.9058  0.7346  0.1093
  733MOL0     C98860   8.931   4.639   5.670  0.2713 -0.0372 -0.1423
  733MOL0     C98861   9.085   4.652   5.684 -0.0779  0.8829 -0.0472
  733MOL0     C98862   9.165   4.542   5.598 -0.6747 -0.4822  0.3533
  733MOL0     C98863   9.131   4.398   5.631  0.1796  0.0036 -0.6739
  733MOL0     C98864   9.251   4.303   5.637  0.0322  0.9444  0.3358
  733MOL0    Cl98865   9.364   4.368   5.757 -0.0099  0.7093 -0.0921
  733MOL0     C98866   8.491   4.372   5.430 -0.0548 -0.0378  0.0509
  733MOL0     C98867   8.409   4.262   5.465 -0.0376 -1.0946 -1.1282
  733MOL0     O98868   8.082   4.153   5.414  0.1284 -0.3276 -0.6389
  733MOL0     C98869   8.088   3.947   5.715  0.2223 -0.1473  0.3580
  733MOL0     C98870   8.017   3.851   5.782 -0.0318 -1.0650  0.3690
  733MOL0     N98871   7.247   3.848   6.080  0.2214  0.2742 -0.4964
  733MOL0     N98872   7.202   3.891   6.193  0.9145  0.6622  0.4557
  733MOL0     C98873   6.731   3.928   6.949  0.0521 -0.3073  0.8153
  733MOL0     C98874   6.622   4.003   6.902  0.0171 -0.2690 -0.3514
  733MOL0     C98875   6.169   4.167   6.945  0.1592  0.0819  0.2220
  733MOL0     C98876   6.038   4.160   6.976 -0.0213  0.3022 -0.1179
  733MOL0     C98877   5.949   4.231   6.895 -1.0128  0.3490  0.5478
  733MOL0     C98878   5.978   4.317   6.788 -0.3748  0.2536  0.3887
  733MOL0     O98879   5.890   4.386   6.712  0.4633 -0.6141  0.0279
  733MOL0     C98880   5.753   4.388   6.761 -0.8800  0.1007  0.7126
  733MOL0     C98881   5.681   4.505   6.693 -0.5746  0.2552 -0.6611
  733MOL0     C98882   5.569   4.559   6.779  0.0100  1.0053 -0.1312
  733MOL0     C98883   5.496   4.668   6.701 -0.3692 -1.1772 -0.7961
  733MOL0     C98884   5.396   4.731   6.785  0.2122  0.1764 -0.5725
  733MOL0     C98885   5.330   4.764   6.881 -0.4576 -0.0804  0.4395
  733MOL0     C98886   6.112   4.318   6.757 -0.4299 -0.0963  0.4370
  733MOL0     C98887   6.202   4.239   6.833 -0.4143 -0.7471  0.0075
  733MOL0     H98888   6.464   4.020   7.213  1.0807 -0.0242  1.4107
  733MOL0     H98889   6.665   3.893   7.270 -0.0411  0.8178  1.0866
  733MOL0     H98890   7.001   3.956   7.017  2.1794 -1.6312 -0.3577
  733MOL0     H98891   6.978   3.997   7.182 -0.4388 -1.3584  1.6286
  733MOL0     H98892   7.190   3.847   7.155  0.1407  1.0649 -0.4141
  733MOL0     H98893   7.057   3.736   7.216 -0.0136  2.8097  1.5702
  733MOL0     H98894   7.134   3.617   7.010 -1.5588 -1.2715  1.3401
  733MOL0     H98895   7.010   3.711   6.942  0.3177 -1.5017 -0.6396
  733MOL0     H98896   7.208   3.897   6.889 -0.0216 -0.6064 -2.3473
  733MOL0     H98897   7.314   3.778   6.946 -0.6178 -2.1545  3.3800
  733MOL0     H98898   7.239   3.621   6.762 -1.0967 -1.2838  1.0094
  733MOL0     H98899   7.096   3.728   6.735 -0.7507 -1.0758  3.3560
  733MOL0     H98900   7.270   3.903   6.674 -2.6655  0.5726 -3.2481
  733MOL0     H98901   7.393   3.778   6.681  0.4547 -1.4810  1.1887
  733MOL0     H98902   7.278   3.668   6.496 -1.0753  0.2401 -0.3376
  733MOL0     H98903   7.124   3.750   6.516 -0.0212 -2.2351  1.0399
  733MOL0     H98904   7.389   3.890   6.457  1.1051  0.7031  3.1449
  733MOL0     H98905   7.218   3.957   6.435 -1.1054 -1.8476 -2.5252
  733MOL0     H98906   7.424   3.661   6.278 -0.3755  0.3579  0.7507
  733MOL0     H98907   7.424   3.568   6.008  0.5729 -1.1000 -3.5613
  733MOL0     H98908   7.299   3.660   5.914 -1.0021 -0.4357  1.9208
  733MOL0     H98909   7.500   3.830   5.876 -1.3381 -0.7696 -2.4991
  733MOL0     H98910   7.533   3.675   5.806  1.1780 -0.0174 -0.4283
  733MOL0     H98911   7.671   3.614   5.991  0.8184  0.2713  1.7763
  733MOL0     H98912   7.604   3.764   6.082 -3.5432 -1.6457  0.3806
  733MOL0     H98913   7.837   3.796   6.016  2.0243  0.6132 -2.9375
  733MOL0     H98914   7.733   3.897   5.909  0.3059  1.0228 -0.1633
  733MOL0     H98915   7.726   3.837   5.627  0.2685  0.8613  0.6903
  733MOL0     H98916   7.731   3.998   5.446 -1.1052  6.6567 -0.1315
  733MOL0     H98917   7.839   4.126   5.439 -1.3965  0.3988  1.0054
  733MOL0     H98918   7.890   3.972   5.354  0.8564 -1.1757  0.1659
  733MOL0     H98919   8.183   4.408   5.668  2.0161  0.0059  1.8161
  733MOL0     H98920   8.304   4.610   5.584 -0.8696 -0.9592  1.5353
  733MOL0     H98921   8.713   4.490   5.530  0.1484 -0.3467 -1.4726
  733MOL0     H98922   8.705   4.561   5.363 -1.6760  1.6504 -1.9766
  733MOL0     H98923   8.705   4.788   5.459 -1.1397 -1.8718 -1.1391
  733MOL0     H98924   8.705   4.720   5.624 -0.4611 -1.7055  0.6817
  733MOL0     H98925   8.948   4.787   5.513  1.0712  0.5578  3.4843
  733MOL0     H98926   8.935   4.633   5.451 -1.7065  2.5695 -1.6867
  733MOL0     H98927   8.866   4.689   5.742 -3.0087 -0.2150 -2.7340
  733MOL0     H98928   8.898   4.535   5.675  1.7902 -0.5285  0.1052
  733MOL0     H98929   9.113   4.622   5.786 -0.4098 -0.2286 -0.2679
  733MOL0     H98930   9.109   4.757   5.665 -2.8217  1.5147 -0.4939
  733MOL0     H98931   9.151   4.554   5.490  1.0185 -2.1877 -0.1160
  733MOL0     H98932   9.271   4.553   5.620 -1.1847 -0.6274  3.2387
  733MOL0     H98933   9.056   4.364   5.560  0.9390 -0.7491 -1.1264
  733MOL0     H98934   9.085   4.389   5.729  1.8905  1.4905  0.3445
  733MOL0     H98935   9.296   4.298   5.537 -1.8352 -1.1870 -0.4676
  733MOL0     H98936   9.224   4.202   5.668 -2.2533  1.1587 -0.8139
  733MOL0     H98937   8.580   4.369   5.368 -1.0172  1.3451 -1.4777
  733MOL0     H98938   8.429   4.158   5.440 -0.0522 -1.3519 -0.1472
  733MOL0     H98939   8.191   3.967   5.741  0.4280  0.2313 -0.6847
  733MOL0     H98940   8.062   3.818   5.875  0.6399  0.8088  0.7655
  733MOL0     H98941   6.801   3.904   6.870 -0.2704  2.9884 -0.6466
  733MOL0     H98942   6.601   4.024   6.798  0.0781 -0.0717 -0.3238
  733MOL0     H98943   6.007   4.087   7.050 -1.8711  1.0727 -0.0876
  733MOL0     H98944   5.843   4.217   6.916 -1.1297  1.4129  0.7369
  733MOL0     H98945   5.711   4.294   6.723 -2.6661  1.6032 -1.2689
  733MOL0     H98946   5.742   4.396   6.870  1.2903 -0.2015  0.9961
  733MOL0     H98947   5.642   4.466   6.598  0.0722  1.4147 -1.4326
  733MOL0     H98948   5.752   4.584   6.666 -0.2353 -0.2621 -1.3014
  733MOL0     H98949   5.604   4.596   6.876 -2.0737 -2.5553  2.2380
  733MOL0     H98950   5.490   4.484   6.795  0.9278  0.0697  0.1160
  733MOL0     H98951   5.441   4.630   6.614 -1.7624 -1.8203  0.3312
  733MOL0     H98952   5.575   4.738   6.670  0.3110 -1.4591  0.2386
  733MOL0     H98953   5.292   4.785   6.979  0.3626 -0.8550  0.9360
  733MOL0     H98954   6.159   4.372   6.676 -3.5839 -1.3870 -2.5325
  733MOL0     H98955   6.299   4.227   6.786  1.3950 -0.7107  3.4367
  734MOL0     O98956   2.773   4.658   1.896 -0.4337  0.1924 -0.1196
  734MOL0     C98957   2.782   4.672   1.777  0.4691  0.0934  0.6252
  734MOL0     O98958   2.677   4.654   1.681 -0.4841  0.0501  0.9010
  734MOL0     C98959   2.553   4.628   1.724 -0.4515  0.2346  0.5574
  734MOL0     C98960   2.452   4.708   1.672  0.1967  0.1358  0.4693
  734MOL0     C98961   2.315   4.672   1.703 -0.5733 -1.3750  0.0618
  734MOL0     C98962   2.286   4.558   1.777 -0.3103 -0.1516  0.3808
  734MOL0     O98963   2.151   4.526   1.792 -0.3230  0.3605  0.2107
  734MOL0     C98964   2.120   4.431   1.900 -0.3538 -0.3103 -0.2093
  734MOL0     C98965   1.968   4.452   1.929 -0.6241 -0.2042 -0.1554
  734MOL0     C98966   1.881   4.391   1.815  0.2769  0.0908  0.5568
  734MOL0     C98967   1.748   4.462   1.786  0.6573 -0.4949  0.0242
  734MOL0     C98968   1.658   4.381   1.689 -0.9496 -0.2581  0.3809
  734MOL0     C98969   1.711   4.367   1.541  0.4649 -0.2822  0.2064
  734MOL0     C98970   1.625   4.257   1.457 -1.2694 -0.9728 -0.6384
  734MOL0     C98971   1.507   4.306   1.385 -0.4668  0.2138 -0.0167
  734MOL0     N98972   1.382   4.304   1.482 -0.8121  0.5509 -0.1732
  734MOL0     C98973   1.351   4.192   1.548  0.3696 -0.9104 -0.5348
  734MOL0     C98974   1.266   4.236   1.644 -0.2676  0.0551 -0.5065
  734MOL0     C98975   1.220   4.141   1.749  1.1729  0.7981  0.0766
  734MOL0     C98976   1.332   4.094   1.838  0.0508  1.2407 -0.0344
  734MOL0     C98977   1.415   4.205   1.898  0.0149  0.1305  0.2854
  734MOL0     C98978   1.535   4.144   1.974  0.5696 -0.3525  0.8927
  734MOL0     O98979   1.617   4.070   1.880 -0.0276  0.0982 -0.9754
  734MOL0     C98980   1.746   4.042   1.927 -0.3380  0.5912  0.7159
  734MOL0     C98981   1.802   4.067   2.045 -0.6461 -0.5577 -0.2995
  734MOL0     C98982   1.941   4.046   2.075  1.2192  0.5162  0.6395
  734MOL0     C98983   1.986   4.068   2.210 -0.8404  0.7914  0.0538
  734MOL0     C98984   2.024   4.004   1.971  0.1064 -0.0430 -0.3159
  734MOL0     C98985   2.172   3.986   1.969  0.5670  0.4649 -0.4083
  734MOL0     O98986   2.230   3.909   1.874 -0.2842  0.0138  0.2315
  734MOL0     C98987   2.358   3.920   1.834 -1.3336 -0.6635  0.0327
  734MOL0     C98988   2.452   3.815   1.812 -0.4332  0.5891 -0.0633
  734MOL0     C98989   2.580   3.840   1.761  0.3883  0.3658  0.5285
  734MOL0     C98990   2.621   3.968   1.715 -0.2493  0.2634 -1.0791
  734MOL0     O98991   2.736   3.981   1.639 -0.6682 -0.3194 -0.3811
  734MOL0     C98992   2.815   4.095   1.648  0.5593 -0.1882 -0.1280
  734MOL0     C98993   2.920   4.076   1.761 -0.3428  0.4630  0.8825
  734MOL0     C98994   3.006   4.195   1.780  0.2419 -0.6874 -0.0848
  734MOL0     C98995   3.110   4.214   1.675 -0.5853 -0.4359  0.0695
  734MOL0     C98996   3.088   4.347   1.599 -0.1051  0.3349  0.2681
  734MOL0     C98997   3.206   4.392   1.511  0.2277 -0.3821 -0.1403
  734MOL0     C98998   3.238   4.296   1.404  0.4661  0.2495  0.4802
  734MOL0     C98999   3.367   4.333   1.322 -0.0190 -0.0961 -0.4415
  734MOL0    Cl99000   3.512   4.325   1.440 -0.0216  0.0706  0.0001
  734MOL0     C99001   2.529   4.067   1.744 -0.6423 -0.4275 -0.3156
  734MOL0     C99002   2.406   4.048   1.810 -0.1153 -0.7346  0.3071
  734MOL0     O99003   2.236   4.064   2.046  0.2005 -0.1244  0.5379
  734MOL0     C99004   1.963   3.972   1.847 -0.1332 -0.1016  0.6673
  734MOL0     C99005   1.822   3.985   1.826 -0.4376 -0.1797 -0.5087
  734MOL0     N99006   1.233   4.368   1.622  0.6238 -0.4565  0.0203
  734MOL0     N99007   1.312   4.411   1.532  0.1765  0.4410 -0.2888
  734MOL0     C99008   2.390   4.486   1.833  0.0549  0.1842  1.1323
  734MOL0     C99009   2.522   4.521   1.805 -0.1266 -0.0826  0.0910
  734MOL0     C99010   2.914   4.722   1.720  0.0159 -0.0599 -0.0681
  734MOL0     C99011   2.932   4.717   1.584  0.3791 -0.2130 -1.3523
  734MOL0     C99012   3.053   4.760   1.531 -0.0411 -0.1489 -0.7794
  734MOL0     C99013   3.149   4.817   1.607 -0.1708 -0.3780  0.3426
  734MOL0     O99014   3.256   4.853   1.542  0.0888 -0.5447 -1.2333
  734MOL0     C99015   3.374   4.896   1.613 -0.1899  0.6069  0.2566
  734MOL0     C99016   3.498   4.869   1.531  0.1987 -0.0598 -0.6563
  734MOL0     C99017   3.553   4.729   1.508  0.0336 -0.0384 -0.2528
  734MOL0     C99018   3.680   4.721   1.422  0.0677 -0.2140 -0.2241
  734MOL0     C99019   3.798   4.750   1.503 -0.8430  1.4692  0.5292
  734MOL0     C99020   3.905   4.770   1.571  0.5964 -0.0235  0.1106
  734MOL0     C99021   3.127   4.812   1.753 -0.9027 -0.0654  0.0950
  734MOL0     C99022   3.009   4.770   1.806 -0.3216 -0.2300  0.1068
  734MOL0     H99023   2.461   4.792   1.604 -1.1119  0.3561  0.5477
  734MOL0     H99024   2.232   4.727   1.660  1.1798  4.1190  2.7718
  734MOL0     H99025   2.149   4.329   1.875  0.4795 -0.0000 -0.5238
  734MOL0     H99026   2.162   4.469   1.994  1.5446 -0.6146 -0.8908
  734MOL0     H99027   1.940   4.409   2.026  1.2242 -2.7423 -0.6560
  734MOL0     H99028   1.941   4.558   1.927 -2.2939 -0.5937 -2.2840
  734MOL0     H99029   1.936   4.388   1.720 -0.5999 -2.2767  0.0501
  734MOL0     H99030   1.858   4.287   1.839  0.0345 -0.1363 -0.5815
  734MOL0     H99031   1.699   4.498   1.877 -0.3559  0.9394 -1.0493
  734MOL0     H99032   1.775   4.551   1.729 -0.1851 -0.2356  0.0195
  734MOL0     H99033   1.660   4.278   1.724 -1.8586 -0.4647 -0.1402
  734MOL0     H99034   1.556   4.421   1.692 -0.2589  1.6438  0.1762
  734MOL0     H99035   1.722   4.462   1.489  0.8546 -1.2109 -1.4809
  734MOL0     H99036   1.811   4.322   1.542  1.1067  0.7905 -3.1967
  734MOL0     H99037   1.696   4.214   1.386 -0.0323 -0.1406  0.0534
  734MOL0     H99038   1.618   4.171   1.525  2.2247 -0.0490  1.1863
  734MOL0     H99039   1.485   4.241   1.300 -1.1885 -0.1948  0.4663
  734MOL0     H99040   1.521   4.411   1.359 -0.0338  0.7553  2.2217
  734MOL0     H99041   1.392   4.095   1.525  2.0660  0.0269 -1.7116
  734MOL0     H99042   1.137   4.186   1.804  0.5504  0.7207 -0.7811
  734MOL0     H99043   1.181   4.053   1.698 -0.3315 -0.6168  3.3534
  734MOL0     H99044   1.396   4.039   1.767 -1.8071 -3.0801  1.2747
  734MOL0     H99045   1.285   4.029   1.913  1.4925 -0.6432 -0.6689
  734MOL0     H99046   1.346   4.259   1.963 -2.2027 -1.4177 -0.7013
  734MOL0     H99047   1.448   4.280   1.825  1.7496  1.2545  2.0836
  734MOL0     H99048   1.511   4.073   2.053  2.4709 -3.4653 -1.1038
  734MOL0     H99049   1.587   4.229   2.020 -0.1998  1.0596 -0.7049
  734MOL0     H99050   1.738   4.104   2.126 -1.2150 -0.9105 -0.5840
  734MOL0     H99051   2.039   4.165   2.211 -0.1630  0.4529 -0.9817
  734MOL0     H99052   1.908   4.061   2.286  0.9353  1.6560  2.0679
  734MOL0     H99053   2.058   3.991   2.238  0.8953  2.8102  1.5063
  734MOL0     H99054   2.418   3.714   1.831  0.5556 -0.0048 -1.3402
  734MOL0     H99055   2.631   3.751   1.725  1.6279  0.3754  2.1636
  734MOL0     H99056   2.858   4.123   1.551 -1.6851  1.3691 -0.7661
  734MOL0     H99057   2.755   4.186   1.659  0.9623  0.2439 -1.3405
  734MOL0     H99058   2.863   4.056   1.852 -1.1368 -1.8123 -0.0344
  734MOL0     H99059   2.988   3.993   1.737  0.5592  1.5746 -0.6166
  734MOL0     H99060   3.046   4.196   1.882 -2.4580 -1.0382  1.0427
  734MOL0     H99061   2.948   4.288   1.771  1.0116 -0.1487  0.3462
  734MOL0     H99062   3.212   4.208   1.713 -0.2246  1.0018 -0.5739
  734MOL0     H99063   3.096   4.137   1.599  1.8472 -0.7419 -0.1443
  734MOL0     H99064   3.065   4.437   1.656 -0.7582  0.6115 -0.4038
  734MOL0     H99065   3.003   4.330   1.532  1.6914 -2.4365 -1.5690
  734MOL0     H99066   3.172   4.485   1.466 -0.1052 -1.0485 -1.2994
  734MOL0     H99067   3.296   4.405   1.573 -0.7624  1.5678  0.9960
  734MOL0     H99068   3.144   4.295   1.348 -0.9287  1.5183  2.6180
  734MOL0     H99069   3.241   4.191   1.435 -0.3297  0.4427  1.2670
  734MOL0     H99070   3.353   4.429   1.272  0.2349  0.0687 -0.2054
  734MOL0     H99071   3.394   4.259   1.246 -2.1455 -2.4881  0.9782
  734MOL0     H99072   2.561   4.162   1.701 -4.4360  0.3945 -1.7545
  734MOL0     H99073   2.348   4.138   1.827 -0.5017 -0.6202 -1.4479
  734MOL0     H99074   2.033   3.943   1.769  3.1124  0.3867  3.1715
  734MOL0     H99075   1.773   3.963   1.731 -0.0431 -1.4272 -0.4336
  734MOL0     H99076   2.373   4.400   1.896  4.3568 -1.1698  0.7438
  734MOL0     H99077   2.601   4.468   1.857 -0.5632  1.3835  2.3458
  734MOL0     H99078   2.850   4.677   1.525  1.1204 -0.5582 -2.1691
  734MOL0     H99079   3.067   4.762   1.423  1.4744 -2.2131 -0.6742
  734MOL0     H99080   3.370   5.003   1.633  1.7016  0.3915  2.1185
  734MOL0     H99081   3.386   4.841   1.707  0.9632  0.8126  0.2361
  734MOL0     H99082   3.580   4.927   1.575 -0.0380 -0.5514  0.4623
  734MOL0     H99083   3.483   4.913   1.432 -0.0924  2.6587  0.4959
  734MOL0     H99084   3.479   4.667   1.456  0.0299  0.4522 -0.8436
  734MOL0     H99085   3.580   4.690   1.607  2.7535  2.0620 -0.0712
  734MOL0     H99086   3.688   4.791   1.338  2.8626  1.6423  1.4020
  734MOL0     H99087   3.686   4.618   1.385 -0.1122 -0.0047 -0.8526
  734MOL0     H99088   3.986   4.796   1.636 -0.3465  1.0077  0.9290
  734MOL0     H99089   3.201   4.865   1.811 -0.7672  2.1479 -1.9472
  734MOL0     H99090   2.987   4.794   1.910 -1.3911  1.4830 -0.4762
  735MOL0     O99091   3.793   4.807   6.933  0.7522 -0.3061 -0.9514
  735MOL0     C99092   3.815   4.862   6.825 -0.4923 -0.4743 -0.5479
  735MOL0     O99093   3.710   4.921   6.749 -0.6651  0.8082 -0.1231
  735MOL0     C99094   3.592   4.933   6.814 -0.1511  0.7980 -0.5394
  735MOL0     C99095   3.480   4.857   6.769 -0.6527  0.1933  0.0835
  735MOL0     C99096   3.370   4.834   6.852 -0.6920  0.5666 -0.2505
  735MOL0     C99097   3.364   4.897   6.977 -0.3696  0.0449 -0.2768
  735MOL0     O99098   3.258   4.884   7.058  0.1714  0.0519 -0.2913
  735MOL0     C99099   3.250   4.775   7.150 -0.5336  0.2657  0.1507
  735MOL0     C99100   3.121   4.693   7.120 -0.4010 -0.7206 -0.1291
  735MOL0     C99101   2.999   4.769   7.140  0.0032  0.6301 -0.8202
  735MOL0     C99102   2.876   4.670   7.148 -0.1158 -0.8254  0.8282
  735MOL0     C99103   2.744   4.749   7.176 -0.3795  0.0542  0.1783
  735MOL0     C99104   2.671   4.680   7.286  0.1695 -0.4332 -0.3055
  735MOL0     C99105   2.526   4.741   7.299  0.1446 -0.8210  0.3384
  735MOL0     C99106   2.435   4.702   7.189 -0.0342 -0.0140  0.6407
  735MOL0     N99107   2.300   4.760   7.206  0.4818  0.4137  0.0434
  735MOL0     C99108   2.209   4.755   7.313 -0.3764  1.0169 -0.2189
  735MOL0     C99109   2.116   4.841   7.289 -0.5781  0.3188 -0.3037
  735MOL0     C99110   1.993   4.865   7.369  0.1257 -0.6037  0.0906
  735MOL0     C99111   1.921   4.742   7.403 -0.0114 -0.4917  0.7823
  735MOL0     C99112   1.897   4.640   7.291  0.2671  0.9507 -0.1860
  735MOL0     C99113   1.787   4.694   7.202 -0.0605 -0.4182 -0.2750
  735MOL0     O99114   1.661   4.698   7.276  0.2268 -0.4266  0.1148
  735MOL0     C99115   1.570   4.801   7.257 -0.0995  0.0826 -0.5437
  735MOL0     C99116   1.507   4.859   7.367  0.2880  0.3555 -0.5734
  735MOL0     C99117   1.416   4.962   7.371 -0.1583 -0.3178  0.2737
  735MOL0     C99118   1.375   5.023   7.504  0.3303 -0.5293  0.3311
  735MOL0     C99119   1.352   4.990   7.245  0.4125  0.2028  0.0548
  735MOL0     C99120   1.241   5.078   7.215 -0.0814 -0.3114  0.2510
  735MOL0     O99121   1.173   5.064   7.091  0.3505 -0.5509  0.3223
  735MOL0     C99122   1.090   5.167   7.044 -0.7433 -0.1736 -0.9191
  735MOL0     C99123   0.953   5.160   7.089 -0.4494  0.7785 -0.2730
  735MOL0     C99124   0.859   5.250   7.029 -0.9858  0.0080 -0.4976
  735MOL0     C99125   0.898   5.334   6.931  0.4358  0.0582 -0.1412
  735MOL0     O99126   0.790   5.412   6.880 -0.5360 -0.0318 -0.2429
  735MOL0     C99127   0.811   5.526   6.804  0.2868 -0.3995 -0.2475
  735MOL0     C99128   0.724   5.632   6.857  1.0331  0.5677 -0.2869
  735MOL0     C99129   0.569   5.632   6.818 -0.6461 -0.4125 -0.5478
  735MOL0     C99130   0.477   5.688   6.933  0.6939 -0.1096 -0.1338
  735MOL0     C99131   0.334   5.701   6.870 -0.0459 -0.7942 -0.5444
  735MOL0     C99132   0.224   5.757   6.956 -0.0845 -0.3399 -0.2531
  735MOL0     C99133   0.199   5.681   7.088  0.2386  0.1735 -0.1628
  735MOL0     C99134   0.058   5.707   7.134  0.4376 -0.6261  0.9351
  735MOL0    Cl99135   0.021   5.621   7.290  0.0148  0.1333  0.1393
  735MOL0     C99136   1.039   5.348   6.900  0.9528  0.0069  0.0091
  735MOL0     C99137   1.134   5.260   6.953 -0.2971 -0.5093  1.0762
  735MOL0     O99138   1.209   5.159   7.302  0.0141 -0.1016 -0.1155
  735MOL0     C99139   1.410   4.935   7.129 -0.7332  0.5936 -0.2454
  735MOL0     C99140   1.512   4.836   7.137 -0.1047 -1.3130 -0.2503
  735MOL0     N99141   2.142   4.894   7.164  0.5561  0.3267 -0.4504
  735MOL0     N99142   2.248   4.845   7.116 -0.6576 -0.3566  0.4126
  735MOL0     C99143   3.464   4.996   7.012 -0.9168 -0.2390  0.1942
  735MOL0     C99144   3.571   5.011   6.927 -0.2065 -0.5160  0.0266
  735MOL0     C99145   3.938   4.876   6.764 -0.0238 -0.8968  0.1393
  735MOL0     C99146   3.958   4.967   6.655  0.2095  0.4429  0.5231
  735MOL0     C99147   4.095   4.974   6.593 -0.0592  0.7101 -0.9155
  735MOL0     C99148   4.194   4.886   6.642  0.0184 -0.7002 -0.4822
  735MOL0     O99149   4.310   4.907   6.580  0.2977  0.2699  0.2898
  735MOL0     C99150   4.429   4.852   6.626 -0.3181  1.3854  0.0174
  735MOL0     C99151   4.550   4.876   6.533  0.5879 -0.5864 -0.5553
  735MOL0     C99152   4.543   4.814   6.399  0.2761  0.7961 -0.0264
  735MOL0     C99153   4.676   4.826   6.323  0.0250 -0.4498  0.5192
  735MOL0     C99154   4.781   4.734   6.362  1.3055  0.6843 -0.6276
  735MOL0     C99155   4.861   4.655   6.390 -0.2798  0.8105 -0.4601
  735MOL0     C99156   4.171   4.801   6.750  1.5800 -0.5009  1.3318
  735MOL0     C99157   4.041   4.793   6.805 -0.3264  0.1350 -1.0844
  735MOL0     H99158   3.504   4.812   6.673  2.3857  0.7718  0.4844
  735MOL0     H99159   3.284   4.776   6.821  0.0545  0.0049 -1.3181
  735MOL0     H99160   3.334   4.706   7.139 -1.4021 -0.7438 -0.2753
  735MOL0     H99161   3.252   4.805   7.255 -0.9771  0.0106  0.2362
  735MOL0     H99162   3.124   4.664   7.015  0.3577  0.0223 -0.3161
  735MOL0     H99163   3.131   4.601   7.180  2.0982 -1.7222 -1.8845
  735MOL0     H99164   3.022   4.805   7.240 -1.8484 -0.9376  0.2407
  735MOL0     H99165   2.972   4.844   7.065  0.4549  4.7250  2.7256
  735MOL0     H99166   2.880   4.615   7.053 -2.5518  0.5313 -0.1582
  735MOL0     H99167   2.902   4.599   7.227  2.4291 -1.0151 -0.0910
  735MOL0     H99168   2.768   4.850   7.210 -1.3039 -0.3969  2.3277
  735MOL0     H99169   2.680   4.759   7.089 -1.0476  0.9196  0.7553
  735MOL0     H99170   2.669   4.571   7.276 -0.6707 -0.1935 -5.1427
  735MOL0     H99171   2.731   4.698   7.376  0.2591  0.0906 -0.4676
  735MOL0     H99172   2.476   4.710   7.391 -0.8895 -0.6068 -0.1363
  735MOL0     H99173   2.536   4.850   7.300  1.6032 -0.8459 -2.2016
  735MOL0     H99174   2.430   4.592   7.182 -0.5387  0.0238  0.3521
  735MOL0     H99175   2.482   4.729   7.094 -1.4927  0.6241  0.0925
  735MOL0     H99176   2.206   4.681   7.392 -1.8595 -1.1007 -2.1316
  735MOL0     H99177   2.034   4.924   7.452 -0.3879  0.2392 -0.2415
  735MOL0     H99178   1.929   4.930   7.308  0.7030  2.2137  2.2490
  735MOL0     H99179   1.824   4.777   7.442 -0.1474 -0.3939  0.3596
  735MOL0     H99180   1.973   4.701   7.490  1.8634 -0.8047 -0.4358
  735MOL0     H99181   1.869   4.540   7.325  0.1318  0.2108 -2.3166
  735MOL0     H99182   1.984   4.627   7.225  1.8509 -2.5434  2.2903
  735MOL0     H99183   1.764   4.633   7.114 -1.1471 -0.6538  0.1559
  735MOL0     H99184   1.816   4.796   7.174  2.3680 -0.9186  0.1758
  735MOL0     H99185   1.545   4.843   7.467 -0.8258  3.1678  0.3918
  735MOL0     H99186   1.432   4.988   7.590  0.3852  5.0877  2.9995
  735MOL0     H99187   1.386   5.132   7.504 -1.6895 -0.2703 -1.1620
  735MOL0     H99188   1.269   5.000   7.516  0.4954 -1.2218  0.5404
  735MOL0     H99189   0.922   5.073   7.146  1.3368 -0.8169 -1.5930
  735MOL0     H99190   0.754   5.246   7.053 -0.6634 -0.6175  0.9322
  735MOL0     H99191   0.910   5.566   6.828  2.6946 -4.1399 -2.7163
  735MOL0     H99192   0.797   5.516   6.696 -2.3411  1.0021 -0.1136
  735MOL0     H99193   0.742   5.645   6.964 -1.2485 -0.9362  0.3521
  735MOL0     H99194   0.771   5.724   6.822 -1.7183  2.6666  1.0802
  735MOL0     H99195   0.536   5.529   6.800 -2.2577  0.2521 -1.6067
  735MOL0     H99196   0.557   5.683   6.722  0.2951  0.1792 -0.3720
  735MOL0     H99197   0.472   5.619   7.018 -4.5644 -1.3841 -1.0753
  735MOL0     H99198   0.500   5.790   6.963 -2.4131  1.1190 -1.5005
  735MOL0     H99199   0.308   5.600   6.836  1.4602 -1.4372  0.0993
  735MOL0     H99200   0.346   5.750   6.773  3.4602 -1.8335 -0.7877
  735MOL0     H99201   0.248   5.861   6.983  0.2750 -0.7518  1.0414
  735MOL0     H99202   0.137   5.748   6.890  0.1469  0.8912 -0.7617
  735MOL0     H99203   0.263   5.709   7.172  0.6165 -1.0715 -0.0088
  735MOL0     H99204   0.213   5.574   7.066 -1.3665 -0.1036  0.0346
  735MOL0     H99205  -0.017   5.675   7.061  3.0533  0.7752 -2.6332
  735MOL0     H99206   0.035   5.814   7.141 -0.3824 -0.7127 -0.1763
  735MOL0     H99207   1.067   5.431   6.835 -2.7218  1.9872  0.6295
  735MOL0     H99208   1.238   5.272   6.925 -1.2103 -1.0951 -3.2879
  735MOL0     H99209   1.363   4.956   7.033 -0.9780  2.3196  0.2271
  735MOL0     H99210   1.551   4.792   7.046  0.6979 -3.1953  0.9392
  735MOL0     H99211   3.472   5.052   7.104  2.8467  0.6322 -0.4895
  735MOL0     H99212   3.656   5.066   6.964  0.6193 -1.5673 -0.2711
  735MOL0     H99213   3.872   5.023   6.621 -1.4510  0.1429  3.8541
  735MOL0     H99214   4.114   5.050   6.518  3.4458  1.2806  0.3523
  735MOL0     H99215   4.450   4.882   6.729  0.3425 -0.2731  0.3986
  735MOL0     H99216   4.431   4.743   6.630  0.1537  1.3842 -0.2153
  735MOL0     H99217   4.630   4.818   6.580  1.4342 -0.0432 -1.2833
  735MOL0     H99218   4.578   4.981   6.540 -0.4928 -0.3733  1.1404
  735MOL0     H99219   4.460   4.865   6.348  0.1280  2.1700  1.5284
  735MOL0     H99220   4.526   4.706   6.409 -1.7044  1.0788 -0.0034
  735MOL0     H99221   4.699   4.930   6.347 -0.7857 -0.1549  0.0620
  735MOL0     H99222   4.652   4.810   6.218 -2.8394 -0.5104  1.0894
  735MOL0     H99223   4.928   4.573   6.400 -0.4060  0.0842 -4.0476
  735MOL0     H99224   4.256   4.742   6.783  3.5012 -0.9511 -3.6772
  735MOL0     H99225   4.033   4.729   6.892 -2.6139  0.7250 -0.7970
  736MOL0     O99226   5.200   7.633   6.562 -0.2252 -0.6244 -0.2801
  736MOL0     C99227   5.283   7.550   6.517 -0.1082 -0.6882  0.6252
  736MOL0     O99228   5.245   7.417   6.473 -0.7762  0.5097  0.4235
  736MOL0     C99229   5.121   7.367   6.482  0.3677 -0.1106 -0.3314
  736MOL0     C99230   5.094   7.272   6.383  0.2140 -0.1210  0.1603
  736MOL0     C99231   4.968   7.208   6.359  0.0955  0.2155 -0.1349
  736MOL0     C99232   4.864   7.259   6.441 -0.3497  0.6147  0.5107
  736MOL0     O99233   4.727   7.221   6.438 -0.2033 -0.2369 -0.4465
  736MOL0     C99234   4.677   7.151   6.326  0.1546 -0.3791  0.0905
  736MOL0     C99235   4.704   7.000   6.334 -0.4565 -0.6738 -0.6233
  736MOL0     C99236   4.611   6.941   6.443 -0.0166  0.4251  0.2198
  736MOL0     C99237   4.464   6.947   6.380 -0.1687 -0.2990  0.4078
  736MOL0     C99238   4.368   6.831   6.427 -0.2163 -0.4559 -0.1414
  736MOL0     C99239   4.257   6.818   6.322 -0.4307  0.1193  0.8384
  736MOL0     C99240   4.155   6.715   6.361  0.0954 -0.1044  0.0409
  736MOL0     C99241   4.079   6.660   6.235  0.4877  0.4490 -1.0607
  736MOL0     N99242   3.965   6.577   6.274 -0.0530 -0.0581 -0.6116
  736MOL0     C99243   3.968   6.441   6.313  0.4123 -0.6491 -0.4748
  736MOL0     C99244   3.860   6.431   6.389 -0.8396 -0.6007  0.0585
  736MOL0     C99245   3.823   6.296   6.448 -0.2439  0.6237  0.2920
  736MOL0     C99246   3.863   6.279   6.598 -0.1939 -0.0393  0.1761
  736MOL0     C99247   3.796   6.390   6.685  0.0646  0.4882  0.5921
  736MOL0     C99248   3.828   6.389   6.833  0.3731 -0.3923  0.3395
  736MOL0     O99249   3.955   6.449   6.858 -0.3929  0.2433 -0.7425
  736MOL0     C99250   3.974   6.582   6.838  0.1442 -0.2033  1.2157
  736MOL0     C99251   3.908   6.685   6.907  0.9530  0.2504 -0.9318
  736MOL0     C99252   3.920   6.820   6.886  0.4808 -0.9424  0.3231
  736MOL0     C99253   3.826   6.922   6.958 -0.6380 -0.5944 -0.1835
  736MOL0     C99254   4.002   6.863   6.779 -0.5945  1.0787 -0.0391
  736MOL0     C99255   4.023   6.997   6.727 -1.0777 -0.0095 -0.3550
  736MOL0     O99256   4.116   7.008   6.618 -0.5422  0.3425 -1.0901
  736MOL0     C99257   4.130   7.130   6.558  0.4464  0.0378 -0.0557
  736MOL0     C99258   4.031   7.187   6.480 -0.9923 -0.9543  0.3377
  736MOL0     C99259   4.064   7.302   6.397  0.3357  0.1285  0.1499
  736MOL0     C99260   4.182   7.367   6.404 -0.4045 -0.2638  0.3571
  736MOL0     O99261   4.196   7.479   6.316  0.6767  0.5851 -0.3543
  736MOL0     C99262   4.309   7.559   6.312 -0.2914  0.4789  0.3759
  736MOL0     C99263   4.299   7.676   6.210 -0.6014  0.0713 -0.1618
  736MOL0     C99264   4.429   7.761   6.222 -0.0945  0.4998  1.3523
  736MOL0     C99265   4.401   7.878   6.321 -0.8673 -0.7562 -0.4848
  736MOL0     C99266   4.528   7.946   6.374  0.3434 -0.1810 -0.6963
  736MOL0     C99267   4.629   7.983   6.258 -0.6458 -0.0733 -0.1011
  736MOL0     C99268   4.742   8.069   6.325  0.1157 -0.9941 -0.1725
  736MOL0     C99269   4.843   8.114   6.217  0.3939 -0.4679  0.9886
  736MOL0    Cl99270   4.988   8.161   6.300 -0.4047 -0.1212  0.0202
  736MOL0     C99271   4.283   7.309   6.482  1.0612  0.1104  0.3115
  736MOL0     C99272   4.255   7.195   6.558 -0.1566 -0.3812  0.2962
  736MOL0     O99273   3.987   7.095   6.789 -0.4889 -0.4202  0.7240
  736MOL0     C99274   4.082   6.760   6.723  0.6608 -0.0023 -0.2274
  736MOL0     C99275   4.074   6.624   6.745 -0.2580  0.4343 -1.2042
  736MOL0     N99276   3.797   6.552   6.396  0.2600 -0.1568  0.0332
  736MOL0     N99277   3.855   6.632   6.325 -0.5134 -0.1665  1.0640
  736MOL0     C99278   4.895   7.349   6.544 -0.0066  0.8261  0.3902
  736MOL0     C99279   5.019   7.414   6.564 -0.7003 -0.8159  0.9322
  736MOL0     C99280   5.423   7.588   6.523  0.9909 -0.5429  0.5597
  736MOL0     C99281   5.479   7.696   6.602  0.2569  0.0644 -0.2884
  736MOL0     C99282   5.612   7.723   6.604 -0.3110 -0.6871 -0.2332
  736MOL0     C99283   5.701   7.642   6.531 -0.5970 -0.1251 -0.2136
  736MOL0     O99284   5.838   7.655   6.572  0.4782 -0.1509 -0.3387
  736MOL0     C99285   5.951   7.642   6.487 -0.5042  0.1374 -0.2612
  736MOL0     C99286   5.955   7.755   6.389  0.1618 -0.2545  0.7941
  736MOL0     C99287   5.991   7.877   6.480  0.3004 -0.2807  0.0476
  736MOL0     C99288   6.008   8.001   6.387  0.6618 -0.5890 -0.1532
  736MOL0     C99289   6.119   8.005   6.286  1.1224  0.5950  0.5500
  736MOL0     C99290   6.206   8.028   6.199  0.0982  0.3623  0.2803
  736MOL0     C99291   5.655   7.544   6.449 -0.1523 -0.7066 -0.2337
  736MOL0     C99292   5.511   7.520   6.435 -1.2729 -0.6113  0.3651
  736MOL0     H99293   5.182   7.261   6.320 -0.0983  0.1445 -0.3286
  736MOL0     H99294   4.967   7.135   6.279 -0.4583 -0.6432  0.6439
  736MOL0     H99295   4.571   7.176   6.336  0.2088 -1.0011  2.9474
  736MOL0     H99296   4.714   7.195   6.233  0.6995 -0.7106  0.1466
  736MOL0     H99297   4.685   6.950   6.238  1.6428 -0.5959 -1.1222
  736MOL0     H99298   4.807   6.982   6.364 -0.3706 -0.0958 -0.5710
  736MOL0     H99299   4.643   6.837   6.453 -0.7400  0.2624  0.9542
  736MOL0     H99300   4.618   6.993   6.539  1.5245 -1.7294  1.3603
  736MOL0     H99301   4.418   7.044   6.404 -1.9176 -1.7148  3.3066
  736MOL0     H99302   4.476   6.936   6.272  1.0755  0.0412  0.4940
  736MOL0     H99303   4.425   6.739   6.443 -1.3611 -0.9906  1.0709
  736MOL0     H99304   4.312   6.869   6.514  1.4999 -2.2117  1.8333
  736MOL0     H99305   4.216   6.918   6.309 -1.9239 -0.7331 -1.5326
  736MOL0     H99306   4.290   6.795   6.221 -1.7643 -0.3932  0.5015
  736MOL0     H99307   4.211   6.630   6.400  1.5100  0.7317 -0.0656
  736MOL0     H99308   4.089   6.764   6.433 -0.1665 -1.7413  0.9559
  736MOL0     H99309   4.156   6.605   6.180 -0.5545 -0.2176 -1.9117
  736MOL0     H99310   4.036   6.740   6.173 -0.1433  0.1260 -1.0441
  736MOL0     H99311   4.047   6.371   6.289  1.2501 -0.3034  1.1487
  736MOL0     H99312   3.717   6.282   6.425  0.6269 -3.0987 -2.4316
  736MOL0     H99313   3.875   6.212   6.401  0.3031 -1.0931  3.6327
  736MOL0     H99314   3.972   6.287   6.602 -0.2880  0.9316  1.1612
  736MOL0     H99315   3.837   6.182   6.643 -1.2775 -0.3620 -1.0903
  736MOL0     H99316   3.688   6.379   6.673  0.2368 -0.0180 -0.7138
  736MOL0     H99317   3.818   6.489   6.645  1.5780 -0.4716 -1.1445
  736MOL0     H99318   3.831   6.286   6.872  0.4267 -1.1522 -1.5635
  736MOL0     H99319   3.751   6.441   6.891 -0.4353 -1.5728  0.3618
  736MOL0     H99320   3.830   6.657   6.976 -0.2957  2.0510 -1.5447
  736MOL0     H99321   3.753   6.960   6.886  3.0099 -0.7787 -4.3868
  736MOL0     H99322   3.774   6.863   7.034  0.2440 -2.3044 -0.8529
  736MOL0     H99323   3.867   7.019   6.989 -0.0793 -0.9777  0.3166
  736MOL0     H99324   3.928   7.153   6.477 -1.1012 -0.5717 -2.0140
  736MOL0     H99325   3.980   7.323   6.331 -0.8300  0.3857  1.6569
  736MOL0     H99326   4.325   7.606   6.409  0.4200  1.3682 -0.1552
  736MOL0     H99327   4.398   7.502   6.283 -0.3911  0.8348 -0.7018
  736MOL0     H99328   4.281   7.639   6.109 -0.4587  0.2683 -0.2593
  736MOL0     H99329   4.209   7.734   6.233 -1.3555 -0.9868 -0.3678
  736MOL0     H99330   4.451   7.808   6.125 -1.2535  4.6098  2.8778
  736MOL0     H99331   4.516   7.704   6.255  0.8417  0.3806 -1.1181
  736MOL0     H99332   4.332   7.949   6.274  0.0121  0.0962 -0.5018
  736MOL0     H99333   4.347   7.830   6.403 -0.6518  0.9280  0.6945
  736MOL0     H99334   4.585   7.875   6.435  1.6137 -1.6867 -3.4145
  736MOL0     H99335   4.508   8.037   6.430  1.0901  0.8053 -1.9839
  736MOL0     H99336   4.682   7.893   6.225 -0.0699 -0.0596  0.7570
  736MOL0     H99337   4.584   8.039   6.175  1.0654  1.7177  0.1065
  736MOL0     H99338   4.781   8.006   6.406  0.2325  3.4319  3.6193
  736MOL0     H99339   4.702   8.158   6.375  2.8461 -1.1135  2.5160
  736MOL0     H99340   4.793   8.199   6.170  0.5729 -1.6430 -1.4561
  736MOL0     H99341   4.863   8.037   6.142 -0.3687 -1.5705  1.8616
  736MOL0     H99342   4.379   7.356   6.501  1.5295 -1.7139  2.9505
  736MOL0     H99343   4.343   7.153   6.606  0.9035  1.2936 -0.0937
  736MOL0     H99344   4.159   6.789   6.653 -0.2778  0.8920 -0.9193
  736MOL0     H99345   4.124   6.542   6.693 -1.6738 -1.7430  0.6786
  736MOL0     H99346   4.816   7.374   6.613  1.0013 -0.9478  2.3070
  736MOL0     H99347   5.033   7.489   6.641  0.6747 -0.5845  0.4825
  736MOL0     H99348   5.415   7.751   6.671 -1.8667  0.5473 -2.5159
  736MOL0     H99349   5.656   7.803   6.662  1.3537 -1.1536 -0.7752
  736MOL0     H99350   6.053   7.642   6.527 -0.2660 -1.0679 -0.8210
  736MOL0     H99351   5.936   7.546   6.437  2.1355 -2.8630  3.9812
  736MOL0     H99352   5.862   7.769   6.333  0.1602 -0.0148  0.8563
  736MOL0     H99353   6.031   7.727   6.316 -0.9279  1.3688 -1.0557
  736MOL0     H99354   6.082   7.860   6.538 -0.2460  1.2985  1.4509
  736MOL0     H99355   5.912   7.905   6.550 -0.7623  0.4399 -1.3879
  736MOL0     H99356   6.036   8.086   6.451 -1.9788 -0.7962  1.4450
  736MOL0     H99357   5.906   8.021   6.353 -0.9821 -2.2202  3.3829
  736MOL0     H99358   6.286   8.047   6.130 -2.2684  0.9234 -2.4809
  736MOL0     H99359   5.723   7.476   6.397  0.8945 -1.4253  1.9713
  736MOL0     H99360   5.483   7.428   6.386 -0.6313 -0.7309  0.2148
  737MOL0     O99361   2.326   6.321  10.450  0.1038  0.6208  0.1035
  737MOL0     C99362   2.386   6.295  10.342  0.7265  0.1086 -0.2028
  737MOL0     O99363   2.324   6.302  10.220 -0.1582 -0.2309  0.0581
  737MOL0     C99364   2.210   6.374  10.219 -0.0656 -0.3472 -0.0605
  737MOL0     C99365   2.087   6.301  10.210  0.1953 -0.2387  0.0454
  737MOL0     C99366   1.964   6.365  10.216 -0.3183  0.9542 -0.1662
  737MOL0     C99367   1.954   6.501  10.235 -0.0487 -0.8731 -0.1800
  737MOL0     O99368   1.828   6.562  10.253 -0.1807 -0.2680  0.0770
  737MOL0     C99369   1.779   6.559  10.387  0.0398  0.2406 -0.0629
  737MOL0     C99370   1.651   6.628  10.402 -0.1566 -0.1768 -0.5361
  737MOL0     C99371   1.539   6.533  10.345  0.1745 -0.4095  0.3536
  737MOL0     C99372   1.406   6.594  10.358 -0.2521 -0.2014  0.2117
  737MOL0     C99373   1.296   6.491  10.354  0.0492 -0.1481  0.5575
  737MOL0     C99374   1.169   6.560  10.400  0.7444 -0.5736 -0.6387
  737MOL0     C99375   1.058   6.458  10.434  0.2676  0.5711  0.1698
  737MOL0     C99376   0.984   6.415  10.305  1.1610 -0.2922  0.4021
  737MOL0     N99377   0.876   6.317  10.333  0.8889 -0.2468  0.5043
  737MOL0     C99378   0.744   6.353  10.360  0.3159  0.5614 -0.3397
  737MOL0     C99379   0.679   6.243  10.396 -0.5307  0.0730 -1.0630
  737MOL0     C99380   0.535   6.254  10.435  0.5102  1.2169 -0.0278
  737MOL0     C99381   0.453   6.205  10.316 -0.0792 -0.1039  0.3452
  737MOL0     C99382   0.304   6.187  10.344 -0.6181 -0.3692 -1.0230
  737MOL0     C99383   0.221   6.176  10.214  0.5038  0.8068 -0.3005
  737MOL0     O99384   0.076   6.168  10.242 -0.1905 -0.6388 -0.4872
  737MOL0     C99385  -0.000   6.157  10.132  0.2413  0.3837 -1.5233
  737MOL0     C99386  -0.091   6.052  10.136  0.3532 -1.0665 -0.1878
  737MOL0     C99387  -0.182   6.026  10.033  0.5392  0.0748  0.5602
  737MOL0     C99388  -0.290   5.922  10.060  1.0896  0.3425 -0.5767
  737MOL0     C99389  -0.185   6.115   9.922 -0.2124 -0.4239 -0.5451
  737MOL0     C99390  -0.279   6.105   9.810 -0.5116 -0.5546 -0.0652
  737MOL0     O99391  -0.285   6.215   9.733  0.5050 -0.0718 -0.2239
  737MOL0     C99392  -0.365   6.215   9.620  0.8542  0.6486 -0.3641
  737MOL0     C99393  -0.393   6.108   9.529 -0.3615 -0.1692 -0.6036
  737MOL0     C99394  -0.455   6.130   9.402 -0.7601 -0.1055 -0.3030
  737MOL0     C99395  -0.512   6.255   9.373  0.0535 -0.6893 -0.2340
  737MOL0     O99396  -0.563   6.273   9.247 -0.2663 -0.3133  0.4107
  737MOL0     C99397  -0.626   6.400   9.206 -0.1629  0.7827 -0.7269
  737MOL0     C99398  -0.686   6.391   9.064  0.3304  0.3297 -0.8046
  737MOL0     C99399  -0.809   6.296   9.062  0.6684 -0.2317  0.9259
  737MOL0     C99400  -0.880   6.285   8.929 -1.0680  0.2618  0.5101
  737MOL0     C99401  -1.018   6.213   8.939 -1.0431 -0.2843 -0.2462
  737MOL0     C99402  -1.123   6.276   9.031  0.6835 -0.5925  0.1778
  737MOL0     C99403  -1.131   6.428   9.028 -0.2258 -0.3478 -0.5237
  737MOL0     C99404  -1.207   6.470   8.906 -0.5882 -0.0482  0.4727
  737MOL0    Cl99405  -1.252   6.640   8.913 -0.1962  0.2560  0.2459
  737MOL0     C99406  -0.488   6.362   9.473 -0.5004  0.1184 -0.1528
  737MOL0     C99407  -0.409   6.342   9.586 -0.2245  0.0899 -0.5998
  737MOL0     O99408  -0.330   5.997   9.788 -0.4504  0.1599 -0.2247
  737MOL0     C99409  -0.089   6.224   9.925 -0.7642 -0.1334  0.1285
  737MOL0     C99410   0.006   6.241  10.027  0.1580 -0.3798 -0.2659
  737MOL0     N99411   0.764   6.134  10.387  0.7977 -0.5683  0.4630
  737MOL0     N99412   0.883   6.183  10.345  0.5145  0.8584  0.3387
  737MOL0     C99413   2.067   6.583  10.231 -0.1775  0.5987  0.9457
  737MOL0     C99414   2.199   6.514  10.218  0.2970  0.2835  0.0521
  737MOL0     C99415   2.521   6.240  10.356 -0.3469 -0.7128  1.0351
  737MOL0     C99416   2.616   6.259  10.251  0.3572 -1.3091  0.2527
  737MOL0     C99417   2.752   6.237  10.272  0.5120 -0.2258  0.5134
  737MOL0     C99418   2.793   6.181  10.390  0.6166  0.1862 -0.3157
  737MOL0     O99419   2.935   6.165  10.400  0.0003 -0.3420 -0.6872
  737MOL0     C99420   2.982   6.100  10.513 -0.1997  0.4065  0.3594
  737MOL0     C99421   3.128   6.100  10.503 -1.1299  1.0653 -0.8638
  737MOL0     C99422   3.209   6.236  10.516 -0.5110  0.0495 -0.4152
  737MOL0     C99423   3.359   6.202  10.511 -0.1876  0.1879  0.4813
  737MOL0     C99424   3.450   6.310  10.535  0.2683 -1.2009  0.1487
  737MOL0     C99425   3.489   6.423  10.567 -0.2989 -0.8342 -0.2904
  737MOL0     C99426   2.694   6.154  10.491 -0.2388 -0.4398  0.6494
  737MOL0     C99427   2.562   6.182  10.477 -0.6237  0.3596  0.2207
  737MOL0     H99428   2.080   6.193  10.203  1.3687 -0.2532 -5.6964
  737MOL0     H99429   1.878   6.299  10.213  2.3844 -2.8823  0.5204
  737MOL0     H99430   1.769   6.459  10.429  1.1404 -0.1071 -0.5911
  737MOL0     H99431   1.849   6.607  10.456  0.9052 -4.7360  3.0354
  737MOL0     H99432   1.632   6.639  10.509  0.3694  1.4508 -0.5891
  737MOL0     H99433   1.664   6.728  10.360  3.0548 -0.7155 -1.0921
  737MOL0     H99434   1.547   6.507  10.239  1.0234  0.7224  0.1197
  737MOL0     H99435   1.539   6.435  10.393  1.6691 -1.4881 -1.6927
  737MOL0     H99436   1.421   6.655  10.448  2.7965  0.8412 -0.8882
  737MOL0     H99437   1.383   6.659  10.273 -1.7982 -0.9683  0.0124
  737MOL0     H99438   1.281   6.448  10.254 -0.4794 -2.7101  1.6560
  737MOL0     H99439   1.318   6.412  10.426 -3.8402 -1.4970  0.5380
  737MOL0     H99440   1.187   6.622  10.488  0.7349 -2.8271  1.0171
  737MOL0     H99441   1.127   6.633  10.330  1.2437  0.8551  0.4979
  737MOL0     H99442   1.109   6.378  10.489  2.7885  1.1694 -1.1352
  737MOL0     H99443   0.977   6.497  10.496 -1.8783  0.1920 -2.2321
  737MOL0     H99444   1.057   6.364  10.241 -0.9573 -2.2558 -0.6473
  737MOL0     H99445   0.958   6.502  10.244  1.0686 -0.5787  0.0294
  737MOL0     H99446   0.697   6.450  10.352 -0.2286  0.3286  0.0266
  737MOL0     H99447   0.523   6.184  10.518 -0.0863  1.3509  0.0039
  737MOL0     H99448   0.505   6.355  10.467 -2.1774  1.1487 -1.9999
  737MOL0     H99449   0.489   6.105  10.290  1.0967  0.5496 -0.6477
  737MOL0     H99450   0.472   6.269  10.229  2.3295 -1.5662 -0.2984
  737MOL0     H99451   0.280   6.279  10.398  0.8776 -0.0693 -0.8305
  737MOL0     H99452   0.291   6.101  10.411  3.0074  0.3336  0.8289
  737MOL0     H99453   0.248   6.081  10.166 -1.9492  0.6629 -1.5582
  737MOL0     H99454   0.244   6.256  10.143 -0.0892 -0.7605 -2.3399
  737MOL0     H99455  -0.093   5.984  10.221  1.5948  0.2709  0.9593
  737MOL0     H99456  -0.293   5.903  10.167  2.6462  1.9024 -0.2001
  737MOL0     H99457  -0.389   5.960  10.033  1.8080  1.5703 -1.6583
  737MOL0     H99458  -0.266   5.831  10.004 -2.3431 -0.0296 -1.6536
  737MOL0     H99459  -0.330   6.021   9.545  1.1969  0.5636 -2.3803
  737MOL0     H99460  -0.462   6.045   9.335 -1.0088 -1.1185  0.9661
  737MOL0     H99461  -0.700   6.427   9.282  0.1405 -1.3615  0.4117
  737MOL0     H99462  -0.552   6.480   9.198  1.6231 -0.8391 -1.2802
  737MOL0     H99463  -0.711   6.494   9.040  1.3048  1.2989  1.9827
  737MOL0     H99464  -0.604   6.356   9.001  0.3746 -1.0222 -0.0420
  737MOL0     H99465  -0.873   6.333   9.142 -1.0664 -1.5505  0.2179
  737MOL0     H99466  -0.778   6.195   9.093 -0.3971 -0.5358  1.0590
  737MOL0     H99467  -0.895   6.388   8.896  1.8098  0.9021  0.8852
  737MOL0     H99468  -0.809   6.240   8.858  1.1613  4.3103 -0.1530
  737MOL0     H99469  -0.989   6.114   8.977  1.9863  0.2795 -0.8186
  737MOL0     H99470  -1.062   6.201   8.840  0.1426 -0.2356 -0.7896
  737MOL0     H99471  -1.216   6.228   8.999  0.5396 -0.0514 -0.2381
  737MOL0     H99472  -1.104   6.255   9.137  0.3830  1.1607  0.6120
  737MOL0     H99473  -1.039   6.478   9.057 -1.5292  1.1663  1.2104
  737MOL0     H99474  -1.189   6.460   9.115  1.9476  0.8018  0.5824
  737MOL0     H99475  -1.295   6.405   8.910  0.5262 -1.5723  3.7977
  737MOL0     H99476  -1.157   6.442   8.813 -1.0928  1.7028 -0.3576
  737MOL0     H99477  -0.532   6.460   9.453 -0.9955 -0.0779 -0.0463
  737MOL0     H99478  -0.371   6.431   9.634 -1.9493  2.1040 -2.7002
  737MOL0     H99479  -0.089   6.285   9.836 -0.6193 -1.6307 -0.9370
  737MOL0     H99480   0.077   6.323  10.028  0.1024 -0.3371  0.1911
  737MOL0     H99481   2.060   6.691  10.239 -0.6479  0.7150 -0.6968
  737MOL0     H99482   2.292   6.570  10.209 -0.5127  1.3362 -5.7391
  737MOL0     H99483   2.576   6.299  10.158  0.3284  5.7280  2.6454
  737MOL0     H99484   2.820   6.260  10.190 -0.9164  1.6737 -0.2138
  737MOL0     H99485   2.945   6.145  10.606 -0.5960  1.2438 -0.1951
  737MOL0     H99486   2.943   5.998  10.526  0.4880 -0.1320 -1.5774
  737MOL0     H99487   3.155   6.060  10.405 -1.8023 -1.1158 -0.2165
  737MOL0     H99488   3.158   6.033  10.584 -0.8568  0.6024 -1.3429
  737MOL0     H99489   3.188   6.298  10.604 -0.9250 -0.5752 -0.0611
  737MOL0     H99490   3.190   6.306  10.434  1.1461 -0.1130 -0.9830
  737MOL0     H99491   3.385   6.151  10.418  1.5706 -3.3543  2.6830
  737MOL0     H99492   3.382   6.128  10.588  0.5420 -0.1449 -0.0460
  737MOL0     H99493   3.503   6.526  10.594 -0.9673 -1.5169  3.1431
  737MOL0     H99494   2.721   6.111  10.587 -3.5604  1.3677  2.5408
  737MOL0     H99495   2.484   6.143  10.541 -0.9155 -1.6794 -1.2871
  738MOL0     O99496   9.691   9.859   2.812 -0.7648 -0.4802 -0.0144
  738MOL0     C99497   9.599   9.928   2.768  1.2906  0.0362  0.9591
  738MOL0     O99498   9.598  10.058   2.716  0.7061  0.6477 -0.2173
  738MOL0     C99499   9.709  10.127   2.710 -0.2414  0.4225  0.4407
  738MOL0     C99500   9.718  10.256   2.760 -0.2150 -0.3518  0.6676
  738MOL0     C99501   9.832  10.335   2.748  0.2038  0.4552 -0.5195
  738MOL0     C99502   9.939  10.283   2.687 -0.1157 -1.0423 -0.2055
  738MOL0     O99503  10.042  10.366   2.660 -0.8771  0.1954 -0.2196
  738MOL0     C99504  10.123  10.324   2.555 -0.6782  0.3381  0.4211
  738MOL0     C99505  10.220  10.440   2.516  0.0581  1.0937  0.1677
  738MOL0     C99506  10.347  10.382   2.444 -0.0959 -0.2909  0.6480
  738MOL0     C99507  10.422  10.480   2.348  0.6200 -0.8425  1.3999
  738MOL0     C99508  10.538  10.415   2.277 -0.4722  0.1744  1.1555
  738MOL0     C99509  10.613  10.509   2.190 -0.3305 -0.1555  0.5229
  738MOL0     C99510  10.547  10.582   2.072 -0.0765  0.3281 -0.0652
  738MOL0     C99511  10.644  10.664   1.979 -0.0562 -0.1996 -0.5497
  738MOL0     N99512  10.580  10.684   1.850  0.3872  0.8411  0.0461
  738MOL0     C99513  10.545  10.801   1.787  0.6553 -0.3949  0.1346
  738MOL0     C99514  10.499  10.759   1.664 -0.6448  0.0855  0.1804
  738MOL0     C99515  10.465  10.844   1.548 -0.3455  0.0269  0.3889
  738MOL0     C99516  10.314  10.843   1.510  0.0361  0.4405 -0.2547
  738MOL0     C99517  10.297  10.846   1.359 -0.0766  0.2490  0.6679
  738MOL0     C99518  10.147  10.885   1.314  0.8667 -0.3427 -0.1979
  738MOL0     O99519  10.047  10.812   1.389 -0.3449  0.1878  0.2151
  738MOL0     C99520   9.919  10.844   1.361  0.0627  1.2237 -1.3523
  738MOL0     C99521   9.823  10.780   1.449 -1.4110 -0.5515  0.2055
  738MOL0     C99522   9.687  10.789   1.425  0.5253  1.0472  0.0258
  738MOL0     C99523   9.600  10.718   1.534 -0.2182 -0.3605  1.0896
  738MOL0     C99524   9.627  10.870   1.320 -1.0872 -0.2505  0.2725
  738MOL0     C99525   9.481  10.874   1.264  0.2326  0.0004  0.2397
  738MOL0     O99526   9.441  10.985   1.176 -0.7089 -0.6353 -0.3983
  738MOL0     C99527   9.317  10.969   1.127  0.0743  0.1003  0.6589
  738MOL0     C99528   9.199  11.045   1.171  0.5076 -0.1016  0.5269
  738MOL0     C99529   9.074  11.036   1.113  0.2828 -1.1593  0.0044
  738MOL0     C99530   9.055  10.947   1.006  0.2183 -0.8526 -0.3998
  738MOL0     O99531   8.927  10.938   0.963  0.3196 -0.4889  0.5009
  738MOL0     C99532   8.898  10.858   0.845  0.9931 -0.1031  0.1524
  738MOL0     C99533   8.757  10.882   0.783  0.7430 -0.1475 -0.2480
  738MOL0     C99534   8.687  10.747   0.736  0.1196 -0.6041  0.2349
  738MOL0     C99535   8.558  10.778   0.660  0.1918 -0.7809  0.6807
  738MOL0     C99536   8.504  10.641   0.612  0.6628  0.4284 -0.2870
  738MOL0     C99537   8.355  10.658   0.563  0.1546  0.1644  0.5546
  738MOL0     C99538   8.327  10.564   0.437 -0.0639 -0.0651  0.1118
  738MOL0     C99539   8.182  10.524   0.436 -0.0392  0.2386 -0.2057
  738MOL0    Cl99540   8.080  10.667   0.429 -0.2137  0.4959 -0.1633
  738MOL0     C99541   9.166  10.877   0.964  0.4282  0.6319  0.6852
  738MOL0     C99542   9.293  10.886   1.018 -0.1232  0.2043  0.8367
  738MOL0     O99543   9.403  10.786   1.291  0.0338 -0.6136  0.4525
  738MOL0     C99544   9.728  10.943   1.246  0.4960  0.1065 -0.5569
  738MOL0     C99545   9.864  10.922   1.259 -0.6425 -0.1459  0.5448
  738MOL0     N99546  10.520  10.621   1.659 -0.2198 -0.0861 -0.4151
  738MOL0     N99547  10.573  10.580   1.763  0.5260  0.2156  0.1744
  738MOL0     C99548   9.942  10.146   2.648 -0.6570 -0.8633 -0.2461
  738MOL0     C99549   9.824  10.075   2.651 -0.1665 -0.2842 -0.5641
  738MOL0     C99550   9.457   9.862   2.759  1.0191 -0.0627 -0.3338
  738MOL0     C99551   9.342   9.928   2.719 -1.1267  0.5044  0.6671
  738MOL0     C99552   9.226   9.867   2.712  0.4945 -0.0098  0.1682
  738MOL0     C99553   9.208   9.731   2.750 -0.3524 -0.4616 -0.1404
  738MOL0     O99554   9.087   9.661   2.746 -0.1545 -0.9802 -0.6321
  738MOL0     C99555   8.964   9.742   2.708  0.0787  0.7102  0.2338
  738MOL0     C99556   8.836   9.677   2.747  0.5990  0.0399  0.7660
  738MOL0     C99557   8.711   9.755   2.696 -0.0983 -0.0095 -0.1897
  738MOL0     C99558   8.574   9.702   2.744 -0.0659 -1.1453  0.1886
  738MOL0     C99559   8.458   9.740   2.666  0.2528  0.1043  0.4958
  738MOL0     C99560   8.369   9.779   2.596  0.0381  0.2268 -0.1596
  738MOL0     C99561   9.319   9.655   2.794 -0.3636 -0.5484 -0.6357
  738MOL0     C99562   9.443   9.723   2.790  0.0536  0.7635 -0.7586
  738MOL0     H99563   9.631  10.311   2.795 -0.8914 -0.2947 -0.9719
  738MOL0     H99564   9.832  10.435   2.791 -0.8127  0.5219 -0.6484
  738MOL0     H99565  10.177  10.235   2.588 -0.2903  0.7943  1.0369
  738MOL0     H99566  10.072  10.308   2.459  0.5919  2.4858 -0.6957
  738MOL0     H99567  10.166  10.512   2.454 -0.2798  0.1353 -0.6771
  738MOL0     H99568  10.253  10.491   2.607  0.9771 -0.5109  0.7820
  738MOL0     H99569  10.412  10.348   2.525 -1.2613  3.0288  3.2544
  738MOL0     H99570  10.308  10.297   2.387 -0.1388  1.3929 -2.0112
  738MOL0     H99571  10.351  10.514   2.272 -0.3699 -0.3360  2.5167
  738MOL0     H99572  10.456  10.564   2.410  0.6428 -0.4676  0.8871
  738MOL0     H99573  10.615  10.373   2.343  0.6529  3.5840  2.1839
  738MOL0     H99574  10.492  10.335   2.217 -2.9408  1.7601  0.7631
  738MOL0     H99575  10.659  10.590   2.248  0.8158 -0.5662  0.2114
  738MOL0     H99576  10.696  10.460   2.139  1.7172  3.1586  0.3469
  738MOL0     H99577  10.498  10.509   2.007  1.1653 -0.3959 -0.2096
  738MOL0     H99578  10.469  10.638   2.126  0.2991 -1.1436  2.1643
  738MOL0     H99579  10.740  10.611   1.975  1.6700  2.6900  0.0698
  738MOL0     H99580  10.658  10.760   2.029 -2.4386 -0.0993  0.0585
  738MOL0     H99581  10.557  10.902   1.827  1.2348  0.7708 -2.7710
  738MOL0     H99582  10.495  10.945   1.577 -0.5319  0.1848  0.0409
  738MOL0     H99583  10.523  10.804   1.464  0.2814  0.8378  0.4324
  738MOL0     H99584  10.275  10.931   1.562  0.6998  0.2314  0.6257
  738MOL0     H99585  10.267  10.751   1.545 -0.6460 -0.1018 -2.4158
  738MOL0     H99586  10.309  10.744   1.320  1.2201 -0.0660  1.8144
  738MOL0     H99587  10.380  10.898   1.310 -0.0293 -1.4423 -1.1816
  738MOL0     H99588  10.140  10.866   1.206 -3.3836 -2.0891  0.2089
  738MOL0     H99589  10.135  10.993   1.322  0.6393 -0.5259  3.3973
  738MOL0     H99590   9.866  10.724   1.531 -2.6409 -0.5731  0.8514
  738MOL0     H99591   9.618  10.610   1.526  1.2493  0.0076 -3.0984
  738MOL0     H99592   9.630  10.754   1.633  4.0583  2.4707 -0.9247
  738MOL0     H99593   9.496  10.744   1.513  0.9888  1.0172 -4.8090
  738MOL0     H99594   9.210  11.120   1.248  1.2587 -2.3407  2.7255
  738MOL0     H99595   8.993  11.096   1.153  1.1488  0.8339 -1.0988
  738MOL0     H99596   8.967  10.883   0.764 -2.0752 -0.3687 -2.8001
  738MOL0     H99597   8.911  10.750   0.856  2.2742 -0.3257 -2.7845
  738MOL0     H99598   8.695  10.932   0.857  1.2827  3.9613 -2.2527
  738MOL0     H99599   8.766  10.945   0.694  1.1749 -0.3929 -0.3832
  738MOL0     H99600   8.662  10.676   0.816 -2.1186 -0.1666  0.0054
  738MOL0     H99601   8.741  10.688   0.662 -0.4336 -1.7699  0.7332
  738MOL0     H99602   8.491  10.825   0.732 -1.6136 -2.6472  0.3216
  738MOL0     H99603   8.575  10.844   0.575  0.4172  0.5848  1.7574
  738MOL0     H99604   8.510  10.561   0.686  3.7472 -0.6752 -1.5528
  738MOL0     H99605   8.556  10.603   0.523 -0.2026  0.7284 -0.9369
  738MOL0     H99606   8.299  10.626   0.652  1.0647  3.3900  2.4411
  738MOL0     H99607   8.342  10.764   0.540 -1.7030 -0.4167 -1.4406
  738MOL0     H99608   8.380  10.469   0.434  4.7939  2.3173  1.0901
  738MOL0     H99609   8.351  10.624   0.348  0.9268  0.7735  0.9127
  738MOL0     H99610   8.158  10.465   0.526  0.5165 -0.0322 -0.2296
  738MOL0     H99611   8.156  10.458   0.353  2.9371 -2.9353  1.1319
  738MOL0     H99612   9.164  10.793   0.895  0.7002 -0.6668  2.2063
  738MOL0     H99613   9.379  10.831   0.981  0.5148  0.5359  1.7776
  738MOL0     H99614   9.695  11.006   1.164  1.8015  1.6035  0.0143
  738MOL0     H99615   9.936  10.966   1.191 -0.4976 -0.6736  0.3571
  738MOL0     H99616  10.034  10.103   2.611  0.9235  1.5754  0.5918
  738MOL0     H99617   9.833   9.975   2.610  1.0392  0.1438 -1.3841
  738MOL0     H99618   9.349  10.033   2.692  3.8969  0.9505  2.6215
  738MOL0     H99619   9.148   9.928   2.666  0.5417 -0.4770 -0.5441
  738MOL0     H99620   8.976   9.845   2.741  1.7119  0.4550  0.5317
  738MOL0     H99621   8.977   9.748   2.599  0.4112 -1.0172  0.1385
  738MOL0     H99622   8.822   9.668   2.855  2.7533 -1.9252  0.9559
  738MOL0     H99623   8.829   9.578   2.701  1.3264  0.8002 -1.0734
  738MOL0     H99624   8.708   9.734   2.589 -1.9632 -2.6387  0.2732
  738MOL0     H99625   8.720   9.861   2.722 -1.7408  0.2033 -0.3357
  738MOL0     H99626   8.567   9.747   2.844 -1.7173  1.0917 -0.8554
  738MOL0     H99627   8.581   9.593   2.755 -1.8317 -1.1772  1.3695
  738MOL0     H99628   8.295   9.809   2.524  0.7557 -0.0432 -1.0277
  738MOL0     H99629   9.314   9.554   2.834 -1.1891 -0.3265 -0.1522
  738MOL0     H99630   9.529   9.662   2.816 -1.9306 -1.4378  1.2126
  739MOL0     O99631   0.698   4.969   8.383 -0.2684  0.1979  0.4307
  739MOL0     C99632   0.690   5.000   8.498 -0.4833 -0.4364 -0.1574
  739MOL0     O99633   0.585   5.058   8.553  0.0914  0.5379 -0.5953
  739MOL0     C99634   0.459   5.065   8.499 -0.2926 -0.7382  0.3977
  739MOL0     C99635   0.417   5.007   8.376 -0.6664  0.0687 -0.4928
  739MOL0     C99636   0.278   5.017   8.339 -0.1599  0.1325 -0.3940
  739MOL0     C99637   0.184   5.067   8.429 -0.5355 -0.8279 -0.7735
  739MOL0     O99638   0.051   5.059   8.412  0.5661  0.0923 -0.4595
  739MOL0     C99639  -0.003   4.973   8.309 -0.1306 -0.7995  1.0103
  739MOL0     C99640  -0.159   4.996   8.302  0.6407  0.6421 -0.9698
  739MOL0     C99641  -0.217   4.992   8.448  0.5728  0.2491 -0.6119
  739MOL0     C99642  -0.369   5.003   8.443 -0.0571  0.0867  0.3420
  739MOL0     C99643  -0.434   4.858   8.425 -0.1344 -0.3868  0.0939
  739MOL0     C99644  -0.589   4.857   8.412  0.4860 -0.5099  0.6469
  739MOL0     C99645  -0.625   4.895   8.272 -1.6826 -0.0607 -0.1246
  739MOL0     C99646  -0.753   4.815   8.218  0.0849 -0.2978 -0.4430
  739MOL0     N99647  -0.888   4.866   8.250  0.0607 -0.1495 -1.1045
  739MOL0     C99648  -0.925   4.913   8.377 -0.2389 -0.7626 -1.1621
  739MOL0     C99649  -1.050   4.964   8.360  0.7444  0.4549 -0.2684
  739MOL0     C99650  -1.145   5.009   8.458 -0.7378 -0.9497  0.7893
  739MOL0     C99651  -1.090   5.137   8.533 -0.0201 -0.1115  0.9940
  739MOL0     C99652  -1.059   5.263   8.437 -0.3316 -0.0059  0.2031
  739MOL0     C99653  -1.001   5.371   8.527 -0.2211 -0.1419 -0.2464
  739MOL0     O99654  -1.112   5.433   8.600  0.2096 -0.5223  0.3318
  739MOL0     C99655  -1.077   5.525   8.698 -0.0387  0.3850 -0.1577
  739MOL0     C99656  -1.182   5.601   8.754 -0.5449 -0.8843  0.0491
  739MOL0     C99657  -1.152   5.683   8.867 -0.1371 -0.9309  0.1536
  739MOL0     C99658  -1.281   5.750   8.916 -0.3374  0.0979 -0.2251
  739MOL0     C99659  -1.024   5.689   8.924 -0.1963 -0.0589  0.3190
  739MOL0     C99660  -0.995   5.752   9.054  0.3713 -0.2256  0.0521
  739MOL0     O99661  -0.867   5.744   9.098 -0.1374  0.0649  0.1495
  739MOL0     C99662  -0.836   5.772   9.226  0.5599  0.0228 -0.0373
  739MOL0     C99663  -0.717   5.838   9.257  0.5047  0.0728  0.1969
  739MOL0     C99664  -0.667   5.849   9.386  0.8311 -0.2989  0.4629
  739MOL0     C99665  -0.740   5.804   9.492  0.2782 -0.2172 -0.5369
  739MOL0     O99666  -0.692   5.821   9.619  0.2702  0.3635 -0.5634
  739MOL0     C99667  -0.761   5.745   9.726 -0.1325 -0.3292  0.1874
  739MOL0     C99668  -0.685   5.774   9.857  0.4224  0.5869  0.3239
  739MOL0     C99669  -0.758   5.693   9.974  0.1418  0.6030 -0.3663
  739MOL0     C99670  -0.679   5.701  10.107  0.2434  0.9655 -0.0860
  739MOL0     C99671  -0.774   5.645  10.223  0.0214 -0.2967  0.3021
  739MOL0     C99672  -0.730   5.702  10.354  0.6400  0.1337 -0.8143
  739MOL0     C99673  -0.769   5.617  10.477  1.2248 -0.5939  0.0744
  739MOL0     C99674  -0.740   5.698  10.600 -0.2732  0.8433  0.1498
  739MOL0    Cl99675  -0.755   5.593  10.745 -0.1229 -0.0173 -0.3967
  739MOL0     C99676  -0.867   5.748   9.471 -0.5136  0.1776  0.8288
  739MOL0     C99677  -0.905   5.723   9.339 -0.5393  0.9539  0.4789
  739MOL0     O99678  -1.091   5.802   9.118 -0.1984 -0.2632  0.4424
  739MOL0     C99679  -0.928   5.608   8.867  0.0075  0.3742 -0.2595
  739MOL0     C99680  -0.949   5.539   8.754 -0.1261 -0.6732 -0.0344
  739MOL0     N99681  -1.093   4.942   8.235 -0.4313 -0.2826  0.3179
  739MOL0     N99682  -0.993   4.891   8.176  0.2312  0.9165  0.9296
  739MOL0     C99683   0.235   5.129   8.546  1.3125  0.0852 -0.0472
  739MOL0     C99684   0.367   5.126   8.581 -0.1619  0.7936  0.2849
  739MOL0     C99685   0.807   4.981   8.588  0.2628 -1.7505  0.0664
  739MOL0     C99686   0.800   4.971   8.729  0.4832  0.4643 -0.1640
  739MOL0     C99687   0.909   4.957   8.811 -0.5703  0.8078 -0.3438
  739MOL0     C99688   1.042   4.960   8.756 -0.2797  0.3547 -0.2665
  739MOL0     O99689   1.167   4.948   8.807  0.3821  0.6326  0.5522
  739MOL0     C99690   1.173   4.891   8.938 -0.1080 -0.1209 -0.4454
  739MOL0     C99691   1.167   4.731   8.947 -0.2024  0.0129 -0.3461
  739MOL0     C99692   1.286   4.663   8.881 -0.0197 -0.7128  1.0461
  739MOL0     C99693   1.421   4.662   8.954  0.5132 -0.3497 -0.3529
  739MOL0     C99694   1.409   4.607   9.089 -0.1420  0.3783  0.0843
  739MOL0     C99695   1.427   4.543   9.186  0.6259 -0.9298 -0.5012
  739MOL0     C99696   1.053   4.976   8.618  0.1988  0.1788  0.9260
  739MOL0     C99697   0.938   4.977   8.531 -0.0809  0.4867 -0.3693
  739MOL0     H99698   0.484   4.950   8.312  0.1029  3.5041 -3.0396
  739MOL0     H99699   0.236   4.962   8.256  2.5112  1.6335 -2.9305
  739MOL0     H99700   0.034   5.006   8.211 -0.5427 -1.9116  0.4548
  739MOL0     H99701   0.021   4.866   8.306  0.9055 -0.5574 -1.0549
  739MOL0     H99702  -0.166   5.099   8.266 -1.1842  1.4970  1.5712
  739MOL0     H99703  -0.206   4.927   8.231 -2.2696  1.4189  0.0876
  739MOL0     H99704  -0.181   4.912   8.513  2.0589  1.5803  0.2948
  739MOL0     H99705  -0.171   5.076   8.501  1.0994 -1.7621  2.3950
  739MOL0     H99706  -0.411   5.041   8.537 -2.1366  0.2384 -0.5956
  739MOL0     H99707  -0.399   5.071   8.363  2.1871  1.1081  0.3067
  739MOL0     H99708  -0.381   4.814   8.339  2.7532 -1.3248  2.2131
  739MOL0     H99709  -0.409   4.808   8.519  4.1295 -0.6624 -0.9719
  739MOL0     H99710  -0.625   4.765   8.458  0.7312 -0.9166  0.0314
  739MOL0     H99711  -0.626   4.934   8.481  2.6177  2.0955 -0.8951
  739MOL0     H99712  -0.628   5.003   8.251  1.7554 -0.2856 -2.7664
  739MOL0     H99713  -0.540   4.866   8.210  0.7038  2.2425  1.8154
  739MOL0     H99714  -0.740   4.716   8.262  0.7108 -0.2787 -0.5711
  739MOL0     H99715  -0.756   4.799   8.110  0.6102 -1.6074 -0.2797
  739MOL0     H99716  -0.863   4.908   8.466 -1.0718  1.8823 -0.3408
  739MOL0     H99717  -1.232   5.040   8.400  1.7433  1.5074 -1.9286
  739MOL0     H99718  -1.161   4.923   8.524  0.0497 -1.0168  0.9046
  739MOL0     H99719  -1.001   5.109   8.591  0.9262  1.0269  0.1510
  739MOL0     H99720  -1.162   5.164   8.610 -1.4817  1.0975 -0.7272
  739MOL0     H99721  -1.143   5.303   8.379  0.8424 -0.6440 -2.0420
  739MOL0     H99722  -0.982   5.236   8.364 -2.4426  0.5582 -2.3945
  739MOL0     H99723  -0.948   5.445   8.466  1.2272 -1.7951 -1.0808
  739MOL0     H99724  -0.928   5.338   8.601 -0.7431  1.0614  0.8488
  739MOL0     H99725  -1.282   5.575   8.720 -0.8289 -0.8587  0.8606
  739MOL0     H99726  -1.327   5.796   8.828 -1.5181 -1.0086 -0.2287
  739MOL0     H99727  -1.352   5.676   8.953  0.1101 -1.5412 -2.4238
  739MOL0     H99728  -1.280   5.839   8.979 -3.0469  0.9399 -1.2277
  739MOL0     H99729  -0.654   5.876   9.177  1.5048 -0.4070  0.7346
  739MOL0     H99730  -0.574   5.897   9.415  2.7401 -1.3247 -3.2979
  739MOL0     H99731  -0.865   5.769   9.751  0.3210 -0.4982  2.4367
  739MOL0     H99732  -0.764   5.637   9.712 -2.3511 -0.4061  0.9379
  739MOL0     H99733  -0.582   5.735   9.855 -0.6663 -2.5660  0.1671
  739MOL0     H99734  -0.691   5.883   9.867 -1.6498  0.4067  1.6195
  739MOL0     H99735  -0.784   5.590   9.950 -0.4165  0.8628 -0.8959
  739MOL0     H99736  -0.852   5.746   9.992  0.0509  0.3487 -0.0640
  739MOL0     H99737  -0.584   5.647  10.106  0.9204  2.0063  1.5543
  739MOL0     H99738  -0.658   5.806  10.132  2.3175  0.0674  2.5853
  739MOL0     H99739  -0.763   5.537  10.221 -0.1983 -0.3434  1.1222
  739MOL0     H99740  -0.879   5.666  10.201  0.6040  0.8706 -1.5389
  739MOL0     H99741  -0.622   5.717  10.349  0.4946  0.9323 -2.3025
  739MOL0     H99742  -0.777   5.799  10.371 -1.6023 -1.0588  0.2454
  739MOL0     H99743  -0.718   5.521  10.468  1.4725 -0.2600 -4.0306
  739MOL0     H99744  -0.875   5.590  10.468  1.0647  0.0309  0.0030
  739MOL0     H99745  -0.809   5.780  10.621  1.3549  1.3909  4.4576
  739MOL0     H99746  -0.639   5.738  10.594  0.3606 -0.7283 -0.1997
  739MOL0     H99747  -0.932   5.720   9.553  0.5816  1.2536  2.1232
  739MOL0     H99748  -0.991   5.658   9.320 -0.0925  1.1468 -2.9025
  739MOL0     H99749  -0.838   5.596   8.925  0.1884 -0.2376 -0.6539
  739MOL0     H99750  -0.858   5.491   8.718 -1.9917 -1.6851 -3.9748
  739MOL0     H99751   0.166   5.172   8.618 -0.5053  0.5047 -1.9375
  739MOL0     H99752   0.399   5.177   8.672 -2.2786 -0.0968  1.6129
  739MOL0     H99753   0.704   4.971   8.780  0.3296 -0.7820 -0.4151
  739MOL0     H99754   0.902   4.941   8.918  6.0552 -1.1057  0.2314
  739MOL0     H99755   1.263   4.927   8.988 -2.1472 -0.3667  3.8744
  739MOL0     H99756   1.086   4.920   8.999  1.2405  0.0273  1.4900
  739MOL0     H99757   1.078   4.701   8.891 -1.1441 -1.1435  1.6641
  739MOL0     H99758   1.146   4.701   9.050 -1.8916  0.3316 -0.5706
  739MOL0     H99759   1.311   4.706   8.783  1.6724 -3.3175  0.2430
  739MOL0     H99760   1.256   4.559   8.869  1.5899 -1.1290  0.4590
  739MOL0     H99761   1.467   4.761   8.951  2.3907 -1.2098 -2.0078
  739MOL0     H99762   1.482   4.586   8.904  0.7769 -0.0724 -0.4589
  739MOL0     H99763   1.434   4.491   9.279  0.9751  0.8238  0.4996
  739MOL0     H99764   1.146   4.968   8.563  0.7055 -2.9241  2.0551
  739MOL0     H99765   0.950   4.969   8.424 -4.7844 -2.1970 -0.9757
  740MOL0     O99766   9.463   5.914  10.968  0.5562  0.2124 -0.4274
  740MOL0     C99767   9.523   5.812  11.017 -0.1438  0.3527  0.0617
  740MOL0     O99768   9.456   5.705  11.072  0.3545 -0.3545  0.5210
  740MOL0     C99769   9.319   5.710  11.088 -0.2725 -0.1431  0.2814
  740MOL0     C99770   9.232   5.821  11.099 -0.7379 -0.9129 -0.8418
  740MOL0     C99771   9.101   5.813  11.127  0.3570  0.6193  0.1557
  740MOL0     C99772   9.044   5.689  11.143 -0.0605 -0.5490 -0.0954
  740MOL0     O99773   8.919   5.681  11.201  0.1057  0.0703  0.0553
  740MOL0     C99774   8.913   5.643  11.339 -0.0897 -0.7210 -0.2201
  740MOL0     C99775   8.782   5.684  11.395 -0.0977  1.0715  0.1839
  740MOL0     C99776   8.667   5.601  11.339  0.2999 -0.4835 -0.5157
  740MOL0     C99777   8.672   5.462  11.401 -0.8375 -0.0155 -1.3513
  740MOL0     C99778   8.566   5.364  11.356  0.3152 -0.7430 -0.8936
  740MOL0     C99779   8.430   5.426  11.327 -0.7546 -0.8023  0.3555
  740MOL0     C99780   8.326   5.334  11.263 -0.3077  0.2467 -0.5070
  740MOL0     C99781   8.210   5.407  11.198  0.2587  0.0286  0.0834
  740MOL0     N99782   8.133   5.340  11.084 -0.3985  0.4631  1.0057
  740MOL0     C99783   8.102   5.208  11.082  0.7098 -0.4796 -0.5341
  740MOL0     C99784   8.043   5.185  10.957  0.1953  0.3106 -0.2072
  740MOL0     C99785   8.015   5.046  10.901 -0.1103  0.0783 -0.5334
  740MOL0     C99786   8.068   5.051  10.754  0.3472 -0.2681  0.1498
  740MOL0     C99787   8.033   4.925  10.667 -0.6498 -0.4987  0.0968
  740MOL0     C99788   7.878   4.927  10.640  0.2016 -0.3579 -0.0988
  740MOL0     O99789   7.850   4.808  10.562  0.0731 -0.3678 -1.0463
  740MOL0     C99790   7.715   4.778  10.525 -0.9314  0.3376 -0.4916
  740MOL0     C99791   7.615   4.867  10.489 -0.4111  0.3512 -0.6765
  740MOL0     C99792   7.481   4.817  10.471 -0.0142  0.5986  0.5272
  740MOL0     C99793   7.377   4.926  10.469 -0.1147  1.0747  0.5122
  740MOL0     C99794   7.452   4.684  10.460 -0.2320  0.0668 -0.0292
  740MOL0     C99795   7.320   4.634  10.424  0.3482 -0.1087 -0.2763
  740MOL0     O99796   7.297   4.499  10.453 -0.2998  0.1541 -0.1540
  740MOL0     C99797   7.169   4.452  10.461 -0.9322  0.0663  0.9484
  740MOL0     C99798   7.049   4.521  10.470  0.1811  0.2757  0.0209
  740MOL0     C99799   6.926   4.463  10.465 -0.0279  0.2614 -0.5531
  740MOL0     C99800   6.921   4.320  10.463  0.0301  0.7963 -0.6742
  740MOL0     O99801   6.803   4.249  10.466  1.0619  0.1832 -0.0310
  740MOL0     C99802   6.677   4.316  10.441 -0.1702  0.5899 -0.3664
  740MOL0     C99803   6.571   4.205  10.439  1.0430  0.1278  0.8370
  740MOL0     C99804   6.438   4.269  10.424 -0.5550 -0.1693 -0.3811
  740MOL0     C99805   6.328   4.165  10.410 -0.0233 -0.3169  0.6889
  740MOL0     C99806   6.202   4.241  10.375  0.2651  0.5717  0.2384
  740MOL0     C99807   6.073   4.166  10.394 -0.5448  0.9803  0.2431
  740MOL0     C99808   5.943   4.244  10.393 -0.2573  0.0050 -0.2021
  740MOL0     C99809   5.813   4.168  10.431 -0.4566  0.6386 -0.0102
  740MOL0    Cl99810   5.808   4.116  10.594  0.1626  0.0020 -0.0754
  740MOL0     C99811   7.038   4.248  10.466  0.2389  0.4977  0.8643
  740MOL0     C99812   7.165   4.312  10.456 -0.4277 -0.0262  0.7384
  740MOL0     O99813   7.239   4.700  10.361  0.5390 -0.1624  0.2758
  740MOL0     C99814   7.562   4.600  10.476  0.3063  0.1156 -0.6670
  740MOL0     C99815   7.687   4.640  10.519  0.4659  0.2875 -0.2166
  740MOL0     N99816   8.037   5.310  10.890 -0.7273  0.2427  0.5513
  740MOL0     N99817   8.100   5.401  10.964  0.1881  0.2428 -0.3604
  740MOL0     C99818   9.120   5.570  11.123  0.1555 -0.4488 -0.7635
  740MOL0     C99819   9.258   5.588  11.102 -0.6980 -0.2138  0.4106
  740MOL0     C99820   9.673   5.799  11.005 -0.4715 -0.1457  0.4253
  740MOL0     C99821   9.737   5.683  10.961  0.4092 -0.0495 -0.2216
  740MOL0     C99822   9.870   5.687  10.941  0.5115  0.1888 -0.3587
  740MOL0     C99823   9.948   5.796  10.970 -0.6696 -0.6558  0.2440
  740MOL0     O99824  10.078   5.774  10.965 -0.4123  0.7130  0.0896
  740MOL0     C99825  10.185   5.866  10.960 -0.6786 -0.4631  0.5158
  740MOL0     C99826  10.266   5.871  10.827  0.1284  0.3794 -0.5499
  740MOL0     C99827  10.258   5.730  10.751 -0.8232 -0.3054  1.3589
  740MOL0     C99828  10.199   5.735  10.605 -0.3277 -0.1536  0.2427
  740MOL0     C99829  10.052   5.731  10.615  0.0753  0.7450 -0.4805
  740MOL0     C99830   9.933   5.740  10.635  0.5425  0.3602 -0.7533
  740MOL0     C99831   9.895   5.911  11.012  0.1186  0.0138  0.4206
  740MOL0     C99832   9.753   5.919  11.031  0.4057  0.0875  0.7775
  740MOL0     H99833   9.276   5.920  11.089  0.1916 -1.5401 -4.4211
  740MOL0     H99834   9.048   5.906  11.148 -0.8709 -0.1769  0.7376
  740MOL0     H99835   8.939   5.539  11.359 -0.7002 -1.1060 -1.3395
  740MOL0     H99836   8.988   5.701  11.393 -0.0294  0.4111 -1.4614
  740MOL0     H99837   8.792   5.667  11.502 -1.2426  0.5162  0.2131
  740MOL0     H99838   8.770   5.790  11.370  1.5170  0.7274 -2.3757
  740MOL0     H99839   8.571   5.651  11.355  0.6680  0.6202 -1.6531
  740MOL0     H99840   8.680   5.584  11.231  1.0779 -0.5784 -0.4168
  740MOL0     H99841   8.773   5.422  11.395  0.1987  2.1554  0.2165
  740MOL0     H99842   8.643   5.485  11.505 -0.4453  0.5056 -1.3535
  740MOL0     H99843   8.611   5.318  11.267 -0.2698  2.1034 -2.7981
  740MOL0     H99844   8.557   5.284  11.430 -0.8714  1.2443  1.2529
  740MOL0     H99845   8.390   5.477  11.415 -1.6939  2.4056 -1.7652
  740MOL0     H99846   8.435   5.508  11.255 -2.5911 -1.1000 -0.1686
  740MOL0     H99847   8.370   5.275  11.182  2.5366  0.8683  0.4894
  740MOL0     H99848   8.295   5.265  11.343 -2.0975  2.4198  0.7754
  740MOL0     H99849   8.244   5.506  11.166  0.0036  0.2593  0.5228
  740MOL0     H99850   8.135   5.426  11.275  2.6804  0.9461  2.3770
  740MOL0     H99851   8.127   5.126  11.148  0.8621 -2.1635 -2.5567
  740MOL0     H99852   8.064   4.969  10.961 -2.6030 -0.5349  0.8246
  740MOL0     H99853   7.906   5.037  10.903 -0.2169  0.1301 -3.0192
  740MOL0     H99854   8.177   5.056  10.748  0.3087 -0.2102 -0.6605
  740MOL0     H99855   8.027   5.145  10.716  2.4977  0.7492  0.1838
  740MOL0     H99856   8.070   4.834  10.714  0.5255  0.5327  1.2494
  740MOL0     H99857   8.074   4.936  10.566  2.0550  0.3615  1.2026
  740MOL0     H99858   7.833   5.017  10.596  0.4263 -0.6675 -0.9909
  740MOL0     H99859   7.833   4.919  10.739 -0.4344 -2.3266 -0.5119
  740MOL0     H99860   7.645   4.972  10.487  1.3593 -0.1219 -0.5979
  740MOL0     H99861   7.297   4.902  10.540 -0.5540 -0.7692 -0.5503
  740MOL0     H99862   7.414   5.026  10.497 -3.4491  2.3988  0.7073
  740MOL0     H99863   7.337   4.935  10.368 -0.5879 -0.6919  0.5117
  740MOL0     H99864   7.040   4.629  10.477 -2.0565  0.0701  1.4495
  740MOL0     H99865   6.837   4.525  10.462  0.1486  0.5888 -4.5344
  740MOL0     H99866   6.655   4.396  10.513 -2.0035  0.4235 -0.6978
  740MOL0     H99867   6.682   4.361  10.342  0.5904  0.9057 -0.1936
  740MOL0     H99868   6.589   4.133  10.357 -0.9310  1.4225 -0.8313
  740MOL0     H99869   6.578   4.144  10.529 -3.9470 -2.9085 -0.4150
  740MOL0     H99870   6.445   4.336  10.337  1.0025  0.5596  0.2777
  740MOL0     H99871   6.419   4.337  10.507 -0.8633 -1.8244  0.9696
  740MOL0     H99872   6.362   4.112  10.321  2.5918  0.5608  1.0771
  740MOL0     H99873   6.304   4.100  10.495 -1.0341 -0.6915  0.1258
  740MOL0     H99874   6.212   4.281  10.274 -0.8225 -2.4641 -1.1885
  740MOL0     H99875   6.197   4.323  10.447  2.3057  0.9874 -0.0217
  740MOL0     H99876   6.068   4.088  10.317 -0.1181  2.0602 -0.9125
  740MOL0     H99877   6.097   4.108  10.483  2.7682 -0.0102 -1.1450
  740MOL0     H99878   5.928   4.294  10.297 -3.7609  3.9079  2.0478
  740MOL0     H99879   5.953   4.328  10.462  1.6222 -0.5610  0.2927
  740MOL0     H99880   5.793   4.086  10.362  1.5685 -1.8995  2.1848
  740MOL0     H99881   5.738   4.246  10.418  0.7879  1.8809 -0.0066
  740MOL0     H99882   7.031   4.141  10.450  0.8377  0.6265 -0.3841
  740MOL0     H99883   7.255   4.254  10.437  0.2949  1.2691  0.0811
  740MOL0     H99884   7.548   4.494  10.459 -3.0080  0.7104 -2.3526
  740MOL0     H99885   7.756   4.561  10.548 -0.6100  0.4102  3.0780
  740MOL0     H99886   9.069   5.477  11.142  0.9390 -0.3030  2.7979
  740MOL0     H99887   9.324   5.503  11.099 -1.6011 -0.9209  0.1651
  740MOL0     H99888   9.679   5.596  10.931  1.4872 -0.8014 -0.1718
  740MOL0     H99889   9.901   5.590  10.903 -2.2586 -0.5281 -1.0180
  740MOL0     H99890  10.157   5.970  10.982 -1.1796 -0.1668 -1.3571
  740MOL0     H99891  10.251   5.830  11.039  0.5627 -3.5262 -1.7139
  740MOL0     H99892  10.367   5.902  10.854 -0.1903  0.8000  0.1839
  740MOL0     H99893  10.228   5.949  10.759 -1.7899 -0.4753 -0.5265
  740MOL0     H99894  10.204   5.660  10.814 -0.1716 -1.8493  0.2584
  740MOL0     H99895  10.358   5.689  10.740 -1.1543 -1.8393  3.4620
  740MOL0     H99896  10.233   5.650  10.545 -0.0372  0.2752 -0.2067
  740MOL0     H99897  10.221   5.819  10.539 -1.0116 -0.6473 -0.6542
  740MOL0     H99898   9.828   5.750  10.657  0.5578  0.6103 -0.7949
  740MOL0     H99899   9.948   6.003  11.034 -1.4013  0.6304  1.7042
  740MOL0     H99900   9.698   6.005  11.069  2.1945  1.5183  0.2591
  741MOL0     O99901   4.355  10.807   4.217 -1.1113  0.0477 -0.4573
  741MOL0     C99902   4.387  10.807   4.341 -0.1928 -0.0971  0.1248
  741MOL0     O99903   4.300  10.774   4.448 -0.6523 -0.4492 -0.4249
  741MOL0     C99904   4.168  10.729   4.443 -0.8952 -0.2027  1.0497
  741MOL0     C99905   4.125  10.653   4.550 -0.1611  0.9220  0.0751
  741MOL0     C99906   3.996  10.617   4.562 -0.4577 -0.2612 -0.2022
  741MOL0     C99907   3.902  10.649   4.460 -0.3278  0.7176 -0.0006
  741MOL0     O99908   3.771  10.623   4.461  0.1234  0.5784  0.8158
  741MOL0     C99909   3.714  10.625   4.596 -0.0316 -0.7617 -0.4878
  741MOL0     C99910   3.554  10.656   4.602  0.1284 -0.8644  1.0241
  741MOL0     C99911   3.467  10.547   4.546  0.2145  0.1157 -0.6045
  741MOL0     C99912   3.341  10.600   4.479  0.2289  0.3944 -0.1327
  741MOL0     C99913   3.217  10.510   4.495  0.4913  0.8311  0.4364
  741MOL0     C99914   3.092  10.540   4.409  0.2122  0.2688 -0.9225
  741MOL0     C99915   2.985  10.434   4.454 -0.4084 -0.3021  0.1756
  741MOL0     C99916   2.844  10.434   4.378  0.5676  0.5173 -1.2378
  741MOL0     N99917   2.782  10.572   4.398 -0.6648 -0.3294  0.5996
  741MOL0     C99918   2.797  10.672   4.306 -0.0143  0.2207 -0.6126
  741MOL0     C99919   2.687  10.757   4.321 -0.8204  0.1249  0.6190
  741MOL0     C99920   2.638  10.876   4.234 -0.0152 -0.3954 -0.3765
  741MOL0     C99921   2.628  11.011   4.301  0.1566 -0.0760  0.0586
  741MOL0     C99922   2.513  11.006   4.405 -0.0185  1.1339 -0.1273
  741MOL0     C99923   2.484  11.137   4.460 -0.2373  0.7455 -1.4649
  741MOL0     O99924   2.438  11.237   4.366 -0.1053 -0.5289 -0.6677
  741MOL0     C99925   2.303  11.250   4.349 -0.2477  0.0740  0.8990
  741MOL0     C99926   2.251  11.355   4.274  0.1950  0.1621  0.2998
  741MOL0     C99927   2.110  11.375   4.240 -0.5715  0.1652  0.4403
  741MOL0     C99928   2.069  11.507   4.173 -0.0670  0.6997  0.1473
  741MOL0     C99929   2.023  11.266   4.271  0.4259  0.8171  1.1481
  741MOL0     C99930   1.874  11.256   4.227  0.2558 -0.6508 -0.5078
  741MOL0     O99931   1.823  11.366   4.161 -0.1405  0.2534 -0.2598
  741MOL0     C99932   1.683  11.373   4.118 -0.2172  0.1165 -0.3346
  741MOL0     C99933   1.623  11.497   4.099  0.0183  1.1795 -0.0560
  741MOL0     C99934   1.491  11.507   4.050 -0.5354  0.4530  0.3029
  741MOL0     C99935   1.424  11.395   4.000 -0.1301  0.0579  0.4404
  741MOL0     O99936   1.304  11.416   3.934  0.0510 -0.3008  0.5952
  741MOL0     C99937   1.250  11.304   3.856 -0.2108 -0.0403  0.7381
  741MOL0     C99938   1.166  11.215   3.939 -0.8349  0.0834 -0.4380
  741MOL0     C99939   1.055  11.293   4.008 -0.2734 -0.0229  0.3856
  741MOL0     C99940   0.952  11.338   3.912 -0.0806 -0.1473  0.1046
  741MOL0     C99941   0.820  11.375   3.993 -0.1182  0.9278 -0.2285
  741MOL0     C99942   0.692  11.422   3.917  0.1617 -0.2588  0.4436
  741MOL0     C99943   0.566  11.425   4.002 -1.0420 -0.3620  0.9549
  741MOL0     C99944   0.441  11.402   3.924  1.4754  0.5661  0.6228
  741MOL0    Cl99945   0.290  11.412   4.027 -0.0020  0.1068 -0.1715
  741MOL0     C99946   1.489  11.265   4.019  0.5715  0.0372  1.3244
  741MOL0     C99947   1.617  11.257   4.077 -0.1603 -0.3145 -0.9860
  741MOL0     O99948   1.812  11.165   4.280  0.0264 -0.3110 -0.8797
  741MOL0     C99949   2.076  11.156   4.334  1.2979  0.0569  0.1762
  741MOL0     C99950   2.210  11.148   4.369  0.1230 -0.2421  0.2290
  741MOL0     N99951   2.619  10.702   4.431 -0.4300 -0.2462 -0.4132
  741MOL0     N99952   2.674  10.597   4.471  0.5669  0.3175  0.3769
  741MOL0     C99953   3.954  10.698   4.344  0.1723 -0.6250  0.5889
  741MOL0     C99954   4.088  10.737   4.332 -0.1244 -0.4888  0.0206
  741MOL0     C99955   4.532  10.823   4.387  0.5785  0.8627  0.1414
  741MOL0     C99956   4.572  10.780   4.518  1.3172 -0.5995  0.9961
  741MOL0     C99957   4.705  10.774   4.561 -0.5786  0.6749 -0.1972
  741MOL0     C99958   4.810  10.825   4.481  0.2250 -0.2454  0.4222
  741MOL0     O99959   4.942  10.816   4.517 -0.1310 -0.2628  0.6538
  741MOL0     C99960   4.971  10.833   4.655 -0.3836 -0.0387 -0.4376
  741MOL0     C99961   5.117  10.865   4.685 -0.8296  0.3422  0.4399
  741MOL0     C99962   5.131  10.915   4.825  0.5500  0.5385  0.1522
  741MOL0     C99963   5.278  10.955   4.847  0.4517 -0.7782  0.3802
  741MOL0     C99964   5.375  10.844   4.842  0.3263  0.4050 -0.7230
  741MOL0     C99965   5.448  10.744   4.834 -0.6478  0.3797 -0.4253
  741MOL0     C99966   4.774  10.866   4.350 -0.2944  0.8165  0.2985
  741MOL0     C99967   4.639  10.855   4.303 -0.5553 -0.0342  0.3007
  741MOL0     H99968   4.191  10.620   4.629  0.0913 -0.4541 -0.6932
  741MOL0     H99969   3.972  10.564   4.654 -0.2761  0.3791  0.2231
  741MOL0     H99970   3.717  10.536   4.660 -0.2081 -0.3523  0.1051
  741MOL0     H99971   3.764  10.706   4.650 -1.9823 -0.2575  0.6777
  741MOL0     H99972   3.513  10.692   4.697 -0.7265  1.6444 -0.2277
  741MOL0     H99973   3.538  10.734   4.527 -0.5391 -1.5601  0.4227
  741MOL0     H99974   3.518  10.502   4.460  0.8687 -0.1745 -0.0779
  741MOL0     H99975   3.455  10.474   4.627 -0.4604 -1.2498 -1.8842
  741MOL0     H99976   3.328  10.703   4.513  3.8789  0.2135  2.4669
  741MOL0     H99977   3.349  10.594   4.370  1.4147 -1.9391  0.0322
  741MOL0     H99978   3.262  10.414   4.469  2.0658  1.6347  0.0411
  741MOL0     H99979   3.192  10.515   4.601 -0.9796  2.5586  0.0648
  741MOL0     H99980   3.057  10.643   4.425 -1.5608 -0.5623  1.0757
  741MOL0     H99981   3.125  10.529   4.305 -1.5733 -0.0331 -1.5023
  741MOL0     H99982   3.035  10.339   4.435 -0.4279  0.1507 -2.5617
  741MOL0     H99983   2.948  10.446   4.556  3.1157  0.1574  1.5234
  741MOL0     H99984   2.783  10.352   4.417  0.5037  2.1460  2.5297
  741MOL0     H99985   2.855  10.408   4.272  4.3748 -0.7326 -0.6826
  741MOL0     H99986   2.879  10.674   4.235 -0.2287 -0.2892 -0.8816
  741MOL0     H99987   2.701  10.883   4.145 -0.2303  1.0165 -0.4266
  741MOL0     H99988   2.540  10.846   4.195 -0.1078  0.6289 -0.9628
  741MOL0     H99989   2.617  11.095   4.232  0.7657 -0.7793 -0.8995
  741MOL0     H99990   2.720  11.028   4.357  1.3350  0.3286 -1.9169
  741MOL0     H99991   2.543  10.940   4.487  0.8479  2.0696  0.3413
  741MOL0     H99992   2.427  10.953   4.363  0.0846  0.2610  0.7262
  741MOL0     H99993   2.580  11.177   4.496 -0.1930 -1.1343  0.7489
  741MOL0     H99994   2.414  11.128   4.544  0.9821  1.9475 -0.2591
  741MOL0     H99995   2.321  11.437   4.260  1.6930 -0.8444  1.5618
  741MOL0     H99996   1.998  11.550   4.245 -0.1447  1.7717 -0.5516
  741MOL0     H99997   2.138  11.592   4.164 -0.0147  0.6762  0.3133
  741MOL0     H99998   2.021  11.485   4.078  0.6037 -0.0678 -0.0200
  741MOL0     H99999   1.682  11.584   4.126  1.4982  1.3144 -3.3207
  741MOL0     H    0   1.447  11.606   4.054  1.0634  1.1632  3.1122
  741MOL0     H    1   1.189  11.338   3.771 -0.1984 -0.0546  0.7237
  741MOL0     H    2   1.333  11.253   3.807 -1.6177 -0.3824 -1.4529
  741MOL0     H    3   1.111  11.143   3.878 -0.0727 -0.2653 -0.7198
  741MOL0     H    4   1.229  11.166   4.013 -1.0638  0.8563  0.2924
  741MOL0     H    5   1.098  11.383   4.054  0.2161  0.6217 -1.2690
  741MOL0     H    6   1.005  11.223   4.076 -1.4565  0.7789  0.3866
  741MOL0     H    7   0.995  11.422   3.858  0.6521  1.8186  3.4715
  741MOL0     H    8   0.921  11.258   3.843  1.9326 -1.6224  0.8102
  741MOL0     H    9   0.834  11.462   4.058 -2.3549  0.6775  0.6710
  741MOL0     H   10   0.800  11.291   4.060  0.9867  1.1635  0.4148
  741MOL0     H   11   0.713  11.528   3.900  0.6324  0.2809  3.6727
  741MOL0     H   12   0.674  11.358   3.831  0.3522  0.6168 -0.2662
  741MOL0     H   13   0.561  11.520   4.056  1.4303  1.4480 -1.7124
  741MOL0     H   14   0.577  11.345   4.076 -1.0720 -0.0776  1.2674
  741MOL0     H   15   0.447  11.300   3.884  0.5037  1.2975 -1.5256
  741MOL0     H   16   0.433  11.474   3.843 -2.0260  0.6414  0.8794
  741MOL0     H   17   1.445  11.171   3.989 -1.5556  0.7521  2.0419
  741MOL0     H   18   1.666  11.161   4.074 -1.3562 -0.9310 -1.4430
  741MOL0     H   19   2.021  11.065   4.355  1.1331 -0.4916 -2.2387
  741MOL0     H   20   2.243  11.057   4.417 -1.2642 -0.6295  0.4998
  741MOL0     H   21   3.879  10.702   4.265  0.0949  1.3324  0.7028
  741MOL0     H   22   4.112  10.752   4.227 -2.7992 -1.6310 -0.8429
  741MOL0     H   23   4.498  10.739   4.586  0.6524 -0.2029  0.5221
  741MOL0     H   24   4.726  10.763   4.667  1.6712 -0.2114 -0.6916
  741MOL0     H   25   4.901  10.908   4.693  0.3570  0.5051 -0.1344
  741MOL0     H   26   4.950  10.737   4.703  0.5934  0.4163  0.9543
  741MOL0     H   27   5.153  10.937   4.611  0.3399 -2.2124 -1.6684
  741MOL0     H   28   5.182  10.779   4.668 -1.5209  0.0746 -1.0284
  741MOL0     H   29   5.101  10.833   4.891 -1.2037  0.3487 -0.8283
  741MOL0     H   30   5.060  10.997   4.838 -1.1736 -0.8533 -0.1253
  741MOL0     H   31   5.285  10.990   4.950 -1.9230 -0.6158  0.5271
  741MOL0     H   32   5.310  11.040   4.786  2.1177 -0.1376  2.0323
  741MOL0     H   33   5.504  10.653   4.824 -2.2185 -0.8582  1.2631
  741MOL0     H   34   4.849  10.903   4.281 -1.7813 -3.7998 -4.4241
  741MOL0     H   35   4.619  10.893   4.203  0.2902 -0.0746  0.1055
  742MOL0     O   36  11.066   9.075   3.105 -0.2459  0.6849  0.6982
  742MOL0     C   37  11.075   9.006   3.006 -0.3829 -0.2849 -0.7492
  742MOL0     O   38  10.986   9.008   2.907  0.1592  0.9439 -0.2583
  742MOL0     C   39  10.867   9.082   2.928  0.6354  0.8151  0.7381
  742MOL0     C   40  10.753   9.031   3.001 -0.2322 -0.0126 -0.1417
  742MOL0     C   41  10.637   9.100   3.008  0.6155  1.0716 -0.6129
  742MOL0     C   42  10.627   9.229   2.956  0.3721  0.0804 -0.6236
  742MOL0     O   43  10.515   9.302   2.990 -0.0448 -0.6204 -0.8204
  742MOL0     C   44  10.461   9.398   2.898  0.3123  0.7353  0.2663
  742MOL0     C   45  10.320   9.445   2.942 -0.3147  0.2739 -0.4418
  742MOL0     C   46  10.228   9.492   2.830  0.2985  0.8661 -0.2061
  742MOL0     C   47  10.138   9.611   2.875 -0.9947  0.7703  0.1108
  742MOL0     C   48  10.056   9.657   2.752  0.7628  0.2517 -0.5322
  742MOL0     C   49  10.137   9.748   2.654 -0.6407  0.2316 -0.1277
  742MOL0     C   50  10.188   9.681   2.519  0.3691  0.3316  0.7491
  742MOL0     C   51  10.247   9.793   2.429 -0.6148  0.0417 -0.5716
  742MOL0     N   52  10.145   9.880   2.374 -0.0346 -0.0441 -0.6741
  742MOL0     C   53  10.042   9.857   2.286 -0.1061 -0.0242  0.0705
  742MOL0     C   54   9.959   9.967   2.282 -0.2392 -0.4415 -1.2571
  742MOL0     C   55   9.840  10.011   2.208  0.6120  0.6011 -0.0961
  742MOL0     C   56   9.869  10.053   2.063  0.1067  0.3775 -0.5378
  742MOL0     C   57   9.745  10.095   1.990  0.5806  0.6269  0.7180
  742MOL0     C   58   9.653   9.972   1.960 -0.1804 -0.9064  0.1608
  742MOL0     O   59   9.713   9.890   1.858  0.4611  0.2115 -0.2373
  742MOL0     C   60   9.691   9.753   1.879  0.0047 -0.4033 -1.1709
  742MOL0     C   61   9.630   9.675   1.785  0.3571 -0.5178  0.8120
  742MOL0     C   62   9.595   9.542   1.797 -0.2880  0.2733 -0.7468
  742MOL0     C   63   9.494   9.489   1.699 -0.4052  0.0799 -0.3885
  742MOL0     C   64   9.629   9.473   1.916 -0.2777  0.3215 -0.7127
  742MOL0     C   65   9.591   9.331   1.951  0.4522 -0.4656  0.2654
  742MOL0     O   66   9.543   9.258   1.850  0.7690  0.3759 -0.0398
  742MOL0     C   67   9.488   9.139   1.885 -0.3455  0.1534 -0.6502
  742MOL0     C   68   9.350   9.118   1.897  0.8365 -0.4668  0.2357
  742MOL0     C   69   9.294   8.993   1.925 -0.4302 -0.7643  0.0146
  742MOL0     C   70   9.381   8.886   1.935 -0.5614  0.8969  0.2254
  742MOL0     O   71   9.311   8.770   1.962 -0.0336  0.2420  0.1940
  742MOL0     C   72   9.311   8.717   2.097 -0.4298 -0.6911  0.2700
  742MOL0     C   73   9.412   8.609   2.134  0.0568 -0.6180  0.8449
  742MOL0     C   74   9.421   8.577   2.285  0.1572  0.0019  0.4176
  742MOL0     C   75   9.337   8.458   2.318  0.6937 -0.3576 -0.1020
  742MOL0     C   76   9.312   8.443   2.470 -0.1744 -0.8330  0.0063
  742MOL0     C   77   9.213   8.334   2.494 -0.1769  0.3262  0.2471
  742MOL0     C   78   9.177   8.319   2.643 -0.5359 -0.5037  0.2432
  742MOL0     C   79   9.267   8.226   2.711  0.5170  0.9473 -0.1185
  742MOL0    Cl   80   9.392   8.327   2.790 -0.3752 -0.1495 -0.3037
  742MOL0     C   81   9.522   8.901   1.927  0.1125 -0.4341  0.5088
  742MOL0     C   82   9.577   9.027   1.890 -0.1867  1.3789 -0.4445
  742MOL0     O   83   9.584   9.293   2.068 -0.2672 -0.1778 -0.3795
  742MOL0     C   84   9.716   9.542   2.002  0.3691  0.5603  0.5404
  742MOL0     C   85   9.745   9.681   1.985 -0.2867 -1.2585  0.0890
  742MOL0     N   86  10.027  10.063   2.358 -1.1255  0.5437  0.8245
  742MOL0     N   87  10.138  10.011   2.402  0.4831 -0.4115 -0.2180
  742MOL0     C   88  10.723   9.282   2.879 -0.5336 -0.4152 -0.4290
  742MOL0     C   89  10.846   9.211   2.865  0.5289 -0.0123 -1.1448
  742MOL0     C   90  11.195   8.915   2.988  0.6271  0.6414 -0.9913
  742MOL0     C   91  11.211   8.835   2.868 -0.7986  0.0175  0.7581
  742MOL0     C   92  11.309   8.739   2.874  0.0025 -0.1103 -0.3964
  742MOL0     C   93  11.389   8.713   2.984 -0.5855 -0.3774  0.4615
  742MOL0     O   94  11.470   8.604   2.978 -0.3080 -0.9208  0.4100
  742MOL0     C   95  11.608   8.655   2.975 -0.2435 -0.1800  0.1469
  742MOL0     C   96  11.700   8.529   2.980  0.2693  0.8877  0.2242
  742MOL0     C   97  11.693   8.452   2.845 -0.1286 -0.6962  0.0499
  742MOL0     C   98  11.794   8.341   2.840  0.4052 -0.1179  0.2977
  742MOL0     C   99  11.904   8.385   2.745 -0.3890 -0.2099 -0.7573
  742MOL0     C  100  11.971   8.421   2.652 -0.3234  0.5859  1.1612
  742MOL0     C  101  11.372   8.791   3.100  0.1073 -0.7242  0.2272
  742MOL0     C  102  11.274   8.888   3.099 -0.0868 -0.0085  0.2843
  742MOL0     H  103  10.760   8.938   3.056  1.3991  0.7945  1.0998
  742MOL0     H  104  10.555   9.059   3.064  2.0200 -0.7539  0.2089
  742MOL0     H  105  10.529   9.481   2.879 -0.9709  1.9638  0.8641
  742MOL0     H  106  10.448   9.346   2.802  1.0542  2.3537 -0.7468
  742MOL0     H  107  10.273   9.359   2.992 -1.3362  0.3315 -1.2654
  742MOL0     H  108  10.325   9.519   3.022  2.3280 -0.8058  0.4964
  742MOL0     H  109  10.296   9.518   2.748  1.3865 -1.7453 -0.2253
  742MOL0     H  110  10.171   9.407   2.790  1.7440 -1.7293  2.7989
  742MOL0     H  111  10.069   9.576   2.953 -0.4919 -1.8415 -0.5123
  742MOL0     H  112  10.192   9.695   2.919  1.7773 -1.7076  1.8354
  742MOL0     H  113  10.019   9.563   2.711 -1.8296  0.5466  0.9205
  742MOL0     H  114   9.971   9.712   2.792  2.7569  0.7181  3.5786
  742MOL0     H  115  10.073   9.834   2.629 -2.1649 -0.1880  2.1018
  742MOL0     H  116  10.212   9.803   2.712 -1.1962  2.1487 -1.1310
  742MOL0     H  117  10.252   9.596   2.545 -1.0136 -1.3872 -1.1054
  742MOL0     H  118  10.100   9.638   2.469  1.6881 -3.3710  1.2615
  742MOL0     H  119  10.309   9.746   2.353 -0.5402  1.4694 -1.4330
  742MOL0     H  120  10.322   9.853   2.481 -1.1952 -0.2751  0.6738
  742MOL0     H  121  10.022   9.765   2.232 -1.5181 -0.0564  0.6148
  742MOL0     H  122   9.787   9.915   2.213  1.2538  0.2800  0.8940
  742MOL0     H  123   9.783  10.088   2.260 -0.2229 -1.5560  2.3623
  742MOL0     H  124   9.906   9.971   2.002  1.0478  1.1322 -1.0018
  742MOL0     H  125   9.937  10.139   2.061  0.2562  0.2457 -1.1705
  742MOL0     H  126   9.779  10.131   1.892  0.2304  0.5402  0.5610
  742MOL0     H  127   9.694  10.179   2.038 -1.5838 -0.1754 -0.0647
  742MOL0     H  128   9.558  10.003   1.917  1.0497  0.4668 -1.7270
  742MOL0     H  129   9.629   9.921   2.054  1.7494  1.5608  2.1618
  742MOL0     H  130   9.610   9.722   1.689  1.3628 -1.5697  0.0495
  742MOL0     H  131   9.454   9.579   1.651  0.5933  1.0082  0.4704
  742MOL0     H  132   9.551   9.430   1.627 -1.6260 -2.1360  0.3631
  742MOL0     H  133   9.423   9.416   1.740  0.7791 -1.7830 -1.5318
  742MOL0     H  134   9.296   9.212   1.886  2.0343  0.2595  0.3145
  742MOL0     H  135   9.187   8.985   1.939 -0.5001 -2.0513 -1.0762
  742MOL0     H  136   9.336   8.800   2.164  1.0409  1.6139 -2.8640
  742MOL0     H  137   9.211   8.678   2.119 -0.1878 -0.9613  0.9158
  742MOL0     H  138   9.382   8.521   2.077 -1.1249  0.0019  0.4840
  742MOL0     H  139   9.510   8.643   2.098 -1.0570  1.2806 -0.5550
  742MOL0     H  140   9.396   8.669   2.338  1.1276 -0.1214  1.1297
  742MOL0     H  141   9.524   8.551   2.313  0.8449  1.8768 -0.1698
  742MOL0     H  142   9.240   8.477   2.272  0.1285 -1.4318  0.6109
  742MOL0     H  143   9.384   8.371   2.271 -1.8186 -0.8770 -1.8271
  742MOL0     H  144   9.268   8.538   2.503 -1.0757 -0.8572 -1.0657
  742MOL0     H  145   9.407   8.433   2.524 -0.2535  1.0014  0.5546
  742MOL0     H  146   9.120   8.361   2.444  1.0058  2.7124 -0.8395
  742MOL0     H  147   9.253   8.237   2.462  0.8732 -0.0424  2.5201
  742MOL0     H  148   9.073   8.285   2.633 -0.7099  0.5659 -2.6275
  742MOL0     H  149   9.176   8.416   2.695  3.0733 -0.1351 -0.1427
  742MOL0     H  150   9.311   8.144   2.653 -0.5948 -0.1956  0.6014
  742MOL0     H  151   9.211   8.171   2.787 -0.3081 -0.2485 -1.5393
  742MOL0     H  152   9.587   8.817   1.949  0.3336 -0.4225 -0.0869
  742MOL0     H  153   9.683   9.045   1.875  0.2126 -0.0288  0.5457
  742MOL0     H  154   9.766   9.494   2.086 -1.3008  1.2650  1.9954
  742MOL0     H  155   9.817   9.733   2.047  0.5990 -0.6757 -1.3847
  742MOL0     H  156  10.720   9.381   2.836  1.3032  0.8013  2.0153
  742MOL0     H  157  10.926   9.247   2.801  0.6408  1.0392 -0.4508
  742MOL0     H  158  11.138   8.849   2.789 -0.5008  2.1355  0.8023
  742MOL0     H  159  11.312   8.669   2.791  0.6764 -1.7738  0.9528
  742MOL0     H  160  11.633   8.711   2.884 -2.3855 -2.9733 -2.3673
  742MOL0     H  161  11.634   8.722   3.057  1.5192  2.0742 -2.0678
  742MOL0     H  162  11.665   8.453   3.050  1.8524 -0.4773 -0.3922
  742MOL0     H  163  11.801   8.559   3.010 -0.7093  3.8444  0.8851
  742MOL0     H  164  11.707   8.519   2.760  0.6945 -0.3172  0.4731
  742MOL0     H  165  11.592   8.416   2.827 -1.0136  1.9390 -0.5589
  742MOL0     H  166  11.739   8.258   2.796  1.1042 -1.4596  1.8617
  742MOL0     H  167  11.834   8.318   2.939  0.7733 -2.6608 -0.3610
  742MOL0     H  168  12.029   8.458   2.569  0.7581  0.0235  1.6415
  742MOL0     H  169  11.428   8.767   3.190  0.3813  1.3963  0.6720
  742MOL0     H  170  11.261   8.959   3.181 -0.5418  2.7234 -1.9865
  743MOL0     O  171   4.843   6.448   0.906  0.4132  0.1297 -0.8644
  743MOL0     C  172   4.743   6.460   0.830 -0.0837 -0.6995 -0.4614
  743MOL0     O  173   4.625   6.403   0.856  0.1299  0.3379 -0.2162
  743MOL0     C  174   4.592   6.347   0.983 -0.7534 -0.2134  0.0141
  743MOL0     C  175   4.490   6.246   0.995 -0.0944 -0.1456  0.6341
  743MOL0     C  176   4.462   6.181   1.111  0.7774 -0.2578  0.5814
  743MOL0     C  177   4.525   6.213   1.227 -0.1437 -0.4421  0.5974
  743MOL0     O  178   4.486   6.145   1.334  0.5808 -0.9638 -0.4312
  743MOL0     C  179   4.572   6.148   1.458  0.8654  0.2313 -0.2149
  743MOL0     C  180   4.507   6.056   1.568  0.0866 -0.1472 -0.1525
  743MOL0     C  181   4.355   6.047   1.561  0.2836  0.5211 -1.1616
  743MOL0     C  182   4.308   5.979   1.690  0.4867  0.5239  0.2095
  743MOL0     C  183   4.170   6.039   1.720 -0.1271 -0.3108  0.6363
  743MOL0     C  184   4.089   5.949   1.814  0.0299  0.4695 -0.0975
  743MOL0     C  185   3.964   6.028   1.856  0.0309 -0.1876  0.0814
  743MOL0     C  186   3.885   5.950   1.969  1.2437 -0.6497  0.8187
  743MOL0     N  187   3.787   6.046   2.029  0.2751  0.1217 -0.1121
  743MOL0     C  188   3.672   6.005   2.095  1.0330 -0.3529 -0.2236
  743MOL0     C  189   3.604   6.114   2.134  0.6270  0.8366  0.1870
  743MOL0     C  190   3.497   6.141   2.236 -0.1206 -0.0239  0.4210
  743MOL0     C  191   3.529   6.238   2.349 -1.1422 -0.5188  0.5779
  743MOL0     C  192   3.417   6.237   2.454  0.3210 -0.0982  0.0003
  743MOL0     C  193   3.441   6.358   2.554  0.6401  0.3727 -0.0352
  743MOL0     O  194   3.393   6.489   2.512  0.3492  0.0576 -0.3630
  743MOL0     C  195   3.305   6.554   2.582 -0.3950 -0.3924  0.2472
  743MOL0     C  196   3.216   6.641   2.518  0.5943 -0.3376 -0.0478
  743MOL0     C  197   3.120   6.709   2.592  0.4904  0.5717  0.5887
  743MOL0     C  198   3.027   6.802   2.519  0.2890 -0.6348  0.3268
  743MOL0     C  199   3.104   6.691   2.727 -0.2739  0.2687 -1.1927
  743MOL0     C  200   2.994   6.753   2.807  0.3668 -0.3483  0.2523
  743MOL0     O  201   2.970   6.887   2.797 -0.2300  0.0113 -0.3553
  743MOL0     C  202   2.859   6.952   2.844 -0.8195 -0.5851 -0.3063
  743MOL0     C  203   2.746   6.902   2.906  0.3589 -0.2492 -0.5964
  743MOL0     C  204   2.639   6.993   2.934  0.4608  0.1827 -0.2320
  743MOL0     C  205   2.647   7.129   2.923  0.2379 -0.9536 -0.0641
  743MOL0     O  206   2.548   7.225   2.951  0.5064  0.3639  0.3620
  743MOL0     C  207   2.421   7.185   2.913  0.5565  0.4917 -0.7371
  743MOL0     C  208   2.323   7.295   2.875 -0.2296 -0.5194  0.0446
  743MOL0     C  209   2.384   7.409   2.797 -0.5505 -0.2622 -0.4437
  743MOL0     C  210   2.438   7.360   2.654  0.7476 -0.8573 -0.4636
  743MOL0     C  211   2.517   7.467   2.584  0.3278 -0.0348  0.4572
  743MOL0     C  212   2.446   7.598   2.553 -0.0889 -0.5327 -0.2178
  743MOL0     C  213   2.541   7.697   2.479  0.3365  0.2547 -0.6687
  743MOL0     C  214   2.479   7.826   2.480  0.0566 -0.0349  0.0358
  743MOL0    Cl  215   2.322   7.818   2.384  0.4264  0.2305  0.2414
  743MOL0     C  216   2.764   7.172   2.875 -0.6210  0.1112  0.0202
  743MOL0     C  217   2.874   7.090   2.845 -0.9725  0.6076  0.0659
  743MOL0     O  218   2.925   6.674   2.867  0.2420  0.0166  0.3991
  743MOL0     C  219   3.203   6.621   2.793 -0.5336 -0.1994 -0.1493
  743MOL0     C  220   3.307   6.558   2.726  0.4598 -0.0511  0.1528
  743MOL0     N  221   3.696   6.223   2.109  0.3958  0.2927 -0.2237
  743MOL0     N  222   3.793   6.181   2.039 -0.0674 -0.0899  0.7205
  743MOL0     C  223   4.624   6.308   1.220  0.3913 -0.6413  0.4699
  743MOL0     C  224   4.656   6.376   1.101 -0.8478 -0.4231 -0.3905
  743MOL0     C  225   4.752   6.539   0.702  1.0567 -0.4457  0.4230
  743MOL0     C  226   4.649   6.530   0.601  0.6380 -0.3055 -0.5195
  743MOL0     C  227   4.650   6.617   0.488  0.2181  0.3099 -0.7292
  743MOL0     C  228   4.763   6.703   0.471  0.4185 -0.4054 -0.4620
  743MOL0     O  229   4.770   6.799   0.367 -0.3720  0.0647  0.6637
  743MOL0     C  230   4.687   6.781   0.254  0.0925  0.3616 -0.6829
  743MOL0     C  231   4.742   6.849   0.128  0.8397 -0.4399  0.0575
  743MOL0     C  232   4.635   6.854   0.020 -0.3014 -0.0940  0.5924
  743MOL0     C  233   4.697   6.893  -0.120 -0.2180  0.3889  0.3291
  743MOL0     C  234   4.741   7.035  -0.140 -0.1539 -0.2416  0.1362
  743MOL0     C  235   4.800   7.146  -0.163 -0.7558  0.1036 -0.0968
  743MOL0     C  236   4.868   6.704   0.563 -0.0734 -0.4763  0.0150
  743MOL0     C  237   4.858   6.630   0.679  0.6439  0.2296  0.0218
  743MOL0     H  238   4.430   6.230   0.906 -2.4402  1.5964  1.7923
  743MOL0     H  239   4.380   6.109   1.106 -1.9699  2.7568 -1.8741
  743MOL0     H  240   4.677   6.126   1.436  1.9073  5.3212 -1.7060
  743MOL0     H  241   4.577   6.249   1.499 -0.2811  0.4864 -0.6609
  743MOL0     H  242   4.546   5.955   1.555 -2.0475 -0.7707 -2.3022
  743MOL0     H  243   4.537   6.088   1.668 -0.0816 -1.3792  0.3019
  743MOL0     H  244   4.327   6.151   1.542 -1.1398  0.2844 -0.4837
  743MOL0     H  245   4.308   5.991   1.479  1.0176 -1.2933 -0.3924
  743MOL0     H  246   4.301   5.871   1.674 -2.8335  0.6223  0.3055
  743MOL0     H  247   4.375   6.000   1.774 -0.5160 -0.9188  1.4216
  743MOL0     H  248   4.189   6.136   1.767  2.8453 -0.0678 -0.8353
  743MOL0     H  249   4.118   6.067   1.627  2.6111  0.5058 -0.7608
  743MOL0     H  250   4.073   5.859   1.754  0.7774 -1.1181  1.9735
  743MOL0     H  251   4.153   5.919   1.897 -2.9083  0.6629  2.4274
  743MOL0     H  252   4.004   6.125   1.888  2.4218 -1.2659  0.6056
  743MOL0     H  253   3.895   6.045   1.773  1.5702  3.6209 -0.6527
  743MOL0     H  254   3.951   5.921   2.051 -0.0056 -2.1184  1.3556
  743MOL0     H  255   3.829   5.863   1.931 -0.0876 -0.1694  1.6187
  743MOL0     H  256   3.638   5.902   2.101 -1.3663  0.2640 -1.6963
  743MOL0     H  257   3.416   6.191   2.180  1.0290  3.0187  1.2724
  743MOL0     H  258   3.463   6.046   2.277  0.1302 -0.2101  0.1977
  743MOL0     H  259   3.553   6.339   2.315  1.1246  0.3441  4.1685
  743MOL0     H  260   3.629   6.213   2.385 -0.2231  2.3985  0.2689
  743MOL0     H  261   3.408   6.139   2.502 -0.0173 -0.8246 -1.4874
  743MOL0     H  262   3.320   6.251   2.406  0.9420 -1.4998 -1.7688
  743MOL0     H  263   3.545   6.361   2.586  0.1591 -2.8558  2.2313
  743MOL0     H  264   3.392   6.327   2.646  3.8193  2.0543  2.4164
  743MOL0     H  265   3.213   6.654   2.410 -1.1074 -3.1385 -0.4214
  743MOL0     H  266   3.012   6.904   2.554 -3.3719  0.7593 -4.2142
  743MOL0     H  267   3.062   6.810   2.415 -1.0296 -0.7630 -0.1407
  743MOL0     H  268   2.928   6.759   2.504 -1.3841  2.5507  1.4688
  743MOL0     H  269   2.724   6.797   2.924  0.9911 -0.0274  1.9167
  743MOL0     H  270   2.542   6.950   2.961  0.6762 -1.2090 -1.5341
  743MOL0     H  271   2.432   7.119   2.827  1.6724 -0.9259  0.4448
  743MOL0     H  272   2.368   7.132   2.993 -2.1373  1.0720 -2.0272
  743MOL0     H  273   2.247   7.249   2.811 -1.4920  2.9179 -1.1977
  743MOL0     H  274   2.269   7.344   2.956  1.0192 -0.6360  0.9767
  743MOL0     H  275   2.471   7.457   2.841  1.0694  0.8409 -4.3691
  743MOL0     H  276   2.309   7.485   2.775  0.2799  0.7999  0.2996
  743MOL0     H  277   2.510   7.279   2.669 -1.2891 -2.8599 -0.8629
  743MOL0     H  278   2.359   7.321   2.589 -0.9337  2.8510 -0.8861
  743MOL0     H  279   2.553   7.428   2.488 -1.0677 -0.2356  0.0034
  743MOL0     H  280   2.608   7.487   2.642  1.4386 -1.0769 -0.8400
  743MOL0     H  281   2.355   7.572   2.497  0.4979 -0.1456 -1.3935
  743MOL0     H  282   2.419   7.642   2.649 -0.2036  0.2072 -0.5835
  743MOL0     H  283   2.568   7.668   2.377 -0.8262 -1.8245 -0.4535
  743MOL0     H  284   2.635   7.713   2.533 -0.5853 -1.1727  1.5379
  743MOL0     H  285   2.526   7.900   2.415 -0.3184 -0.0340 -0.2369
  743MOL0     H  286   2.464   7.857   2.584 -3.1508 -0.0610 -0.3059
  743MOL0     H  287   2.772   7.278   2.858  0.3081  0.6855  3.4218
  743MOL0     H  288   2.969   7.131   2.813  0.1817 -2.0352 -0.1499
  743MOL0     H  289   3.208   6.619   2.901  1.3032  0.4277 -0.1853
  743MOL0     H  290   3.375   6.499   2.787  1.2427  0.0938 -0.5565
  743MOL0     H  291   4.675   6.333   1.312  1.7691  1.8234 -0.8618
  743MOL0     H  292   4.735   6.449   1.113  2.1401 -2.4650 -4.7551
  743MOL0     H  293   4.560   6.470   0.614 -0.5914  1.3232 -0.9630
  743MOL0     H  294   4.572   6.621   0.413  0.9309  2.3217 -1.4353
  743MOL0     H  295   4.682   6.673   0.239  1.5860 -0.2340  2.2959
  743MOL0     H  296   4.586   6.815   0.279 -0.7556 -1.5798 -1.2501
  743MOL0     H  297   4.824   6.790   0.085  1.0863  1.1521 -1.8454
  743MOL0     H  298   4.783   6.945   0.160 -2.4276  1.6550 -1.4371
  743MOL0     H  299   4.564   6.931   0.049 -0.0945 -0.0893  1.0948
  743MOL0     H  300   4.578   6.761   0.010 -1.7237  0.8093  0.0348
  743MOL0     H  301   4.632   6.867  -0.205  3.2949 -1.3112 -2.1346
  743MOL0     H  302   4.777   6.818  -0.133  0.0583  0.5683  0.9940
  743MOL0     H  303   4.861   7.233  -0.179 -1.3033  0.3456 -0.9222
  743MOL0     H  304   4.950   6.771   0.536  0.0850 -0.9905 -0.7991
  743MOL0     H  305   4.944   6.641   0.743 -1.0530 -0.5402  2.5952
  744MOL0     O  306  10.073   7.490   9.928  0.3105 -0.0677  0.0624
  744MOL0     C  307  10.118   7.446   9.824 -0.2022  0.1894 -0.6739
  744MOL0     O  308  10.052   7.387   9.722 -0.0563  0.1577  0.1881
  744MOL0     C  309   9.917   7.370   9.723 -0.3780  0.8909 -1.3874
  744MOL0     C  310   9.858   7.284   9.809 -0.5040 -0.0783 -0.1464
  744MOL0     C  311   9.717   7.265   9.808  0.3961  0.1908 -0.7889
  744MOL0     C  312   9.636   7.338   9.731 -0.2639  0.1084 -0.1588
  744MOL0     O  313   9.501   7.332   9.763  0.1230  0.2596 -0.2871
  744MOL0     C  314   9.402   7.415   9.707  0.5317  0.3374  0.0922
  744MOL0     C  315   9.266   7.357   9.745 -0.1379  1.0680 -0.9442
  744MOL0     C  316   9.235   7.365   9.902 -0.0675 -0.1241  0.8284
  744MOL0     C  317   9.125   7.272   9.955 -0.1630  0.1848 -0.1071
  744MOL0     C  318   9.151   7.249  10.107  0.7836 -0.6312  0.2942
  744MOL0     C  319   9.070   7.135  10.166  0.4220 -0.2608  0.6046
  744MOL0     C  320   9.130   6.999  10.136  0.0183  1.0263  0.8383
  744MOL0     C  321   9.071   6.886  10.221  0.8902 -0.6337  0.2981
  744MOL0     N  322   8.931   6.849  10.180 -0.7734  0.2104  0.3137
  744MOL0     C  323   8.895   6.738  10.112  0.2765 -0.1049  0.0321
  744MOL0     C  324   8.760   6.728  10.122 -0.0718  0.5928  0.2339
  744MOL0     C  325   8.673   6.609  10.070 -0.4690  0.0933 -0.1812
  744MOL0     C  326   8.671   6.630   9.920  0.5123 -0.4173 -0.5628
  744MOL0     C  327   8.549   6.558   9.862 -0.5776 -0.9807  0.6056
  744MOL0     C  328   8.524   6.599   9.716 -0.0300 -0.3796  0.3059
  744MOL0     O  329   8.638   6.568   9.644 -0.0471 -0.4534  0.0964
  744MOL0     C  330   8.636   6.601   9.509 -0.1506  1.1081  0.8334
  744MOL0     C  331   8.553   6.540   9.418 -0.2723  0.6105  0.0937
  744MOL0     C  332   8.540   6.574   9.285 -1.0332  0.5172  0.3384
  744MOL0     C  333   8.446   6.486   9.208  0.7555 -0.7940  0.0976
  744MOL0     C  334   8.635   6.656   9.232 -1.1721  0.4073 -0.8518
  744MOL0     C  335   8.639   6.701   9.085  0.4602  0.1548  1.1177
  744MOL0     O  336   8.729   6.791   9.046 -0.4229  1.1704 -0.2230
  744MOL0     C  337   8.727   6.850   8.917  0.3788 -0.6780 -0.7442
  744MOL0     C  338   8.856   6.881   8.876  0.2595 -0.6249  0.5153
  744MOL0     C  339   8.885   6.931   8.756  0.1007  0.4791 -0.3485
  744MOL0     C  340   8.776   6.951   8.663  0.1878  0.2065  0.1924
  744MOL0     O  341   8.804   7.009   8.539  0.2336 -0.1696  0.3655
  744MOL0     C  342   8.697   7.029   8.447 -0.3583  0.1865 -0.7637
  744MOL0     C  343   8.737   7.119   8.317 -0.9713  0.5792  0.5720
  744MOL0     C  344   8.877   7.088   8.266  0.9039 -0.6438  0.4274
  744MOL0     C  345   8.910   7.136   8.122 -0.3056  0.9366 -0.3332
  744MOL0     C  346   9.057   7.123   8.076  0.4605  0.3311 -0.1962
  744MOL0     C  347   9.092   7.210   7.963 -1.0401 -0.3842  0.2626
  744MOL0     C  348   9.244   7.209   7.942 -1.0066 -0.1229  0.8815
  744MOL0     C  349   9.329   7.287   8.041 -0.1952  1.2008  0.5270
  744MOL0    Cl  350   9.497   7.275   8.019 -0.4751 -0.3095 -0.3133
  744MOL0     C  351   8.644   6.917   8.711  0.1082 -0.7167  0.1086
  744MOL0     C  352   8.623   6.866   8.831 -0.4730 -0.7113  0.0192
  744MOL0     O  353   8.552   6.655   9.015  0.2038  0.1378  0.6543
  744MOL0     C  354   8.730   6.721   9.320 -0.4612  0.3227  1.1622
  744MOL0     C  355   8.729   6.697   9.459 -0.0822 -0.8427  0.9376
  744MOL0     N  356   8.712   6.840  10.186  0.4714  0.1104 -1.0771
  744MOL0     N  357   8.813   6.905  10.228 -0.3820 -0.0590 -0.3970
  744MOL0     C  358   9.693   7.425   9.640  0.3212  0.6432  0.5007
  744MOL0     C  359   9.835   7.431   9.632 -1.5109  0.1145  1.2088
  744MOL0     C  360  10.257   7.451   9.812  1.4427  1.1718 -0.6388
  744MOL0     C  361  10.331   7.563   9.845  0.1443 -0.0338 -0.7429
  744MOL0     C  362  10.467   7.567   9.834  0.0378 -0.3163 -0.5548
  744MOL0     C  363  10.535   7.454   9.795  0.5082  0.7969 -1.1932
  744MOL0     O  364  10.672   7.470   9.783 -0.8101  0.2435  0.1040
  744MOL0     C  365  10.745   7.345   9.761  0.0363  0.0400 -0.7912
  744MOL0     C  366  10.897   7.364   9.779  0.3218  0.5362  0.0625
  744MOL0     C  367  10.962   7.428   9.668  0.3127  0.7429  0.7298
  744MOL0     C  368  11.107   7.388   9.638  0.5742  0.1287  0.1224
  744MOL0     C  369  11.100   7.243   9.595 -0.6482 -0.4017  0.1227
  744MOL0     C  370  11.100   7.119   9.566  0.3078 -1.0134  0.1521
  744MOL0     C  371  10.463   7.340   9.757 -0.0385 -0.3862 -0.2089
  744MOL0     C  372  10.323   7.342   9.756 -0.3236 -0.8664 -0.4256
  744MOL0     H  373   9.917   7.241   9.889 -0.9377 -1.0550 -0.3379
  744MOL0     H  374   9.679   7.209   9.893 -2.1664  1.2254 -1.1823
  744MOL0     H  375   9.409   7.514   9.753 -1.2592 -0.1983  1.6780
  744MOL0     H  376   9.405   7.410   9.598  3.7337  0.4313  0.1079
  744MOL0     H  377   9.184   7.405   9.691  0.2482  0.4989 -2.0729
  744MOL0     H  378   9.262   7.251   9.716  3.6484  0.5198 -0.0298
  744MOL0     H  379   9.328   7.342   9.954  0.1537 -2.0080 -0.2930
  744MOL0     H  380   9.208   7.469   9.919 -0.7056 -0.1873  0.2327
  744MOL0     H  381   9.029   7.325   9.956  1.3950  3.2718 -0.4952
  744MOL0     H  382   9.123   7.190   9.882  0.6123  1.6997 -1.9522
  744MOL0     H  383   9.258   7.228  10.115  0.7820 -0.3462  1.1756
  744MOL0     H  384   9.129   7.340  10.164  4.0639  0.0258  0.6909
  744MOL0     H  385   9.062   7.156  10.273 -0.6177  2.6945  0.0366
  744MOL0     H  386   8.970   7.132  10.122  1.2304 -4.6799 -1.4178
  744MOL0     H  387   9.127   6.969  10.031  0.4264  0.0893  1.0814
  744MOL0     H  388   9.238   7.011  10.153 -0.3570  3.1615  2.1008
  744MOL0     H  389   9.086   6.916  10.325 -0.0016 -2.2263  0.9177
  744MOL0     H  390   9.126   6.792  10.211 -0.1980 -1.1182 -1.7918
  744MOL0     H  391   8.962   6.660  10.078 -1.2928 -0.3702 -2.7163
  744MOL0     H  392   8.720   6.516  10.105 -2.6054 -0.8064  0.4550
  744MOL0     H  393   8.575   6.633  10.112  0.8278  2.6719  1.6783
  744MOL0     H  394   8.766   6.590   9.885 -0.0096 -1.0360 -1.3175
  744MOL0     H  395   8.665   6.736   9.892 -2.2931 -0.7374 -1.5834
  744MOL0     H  396   8.456   6.581   9.914  0.4964  0.3969  2.0122
  744MOL0     H  397   8.562   6.449   9.856  0.1300 -0.8671 -0.1034
  744MOL0     H  398   8.495   6.704   9.704  0.8468 -0.1894 -0.2227
  744MOL0     H  399   8.448   6.538   9.667  1.5025 -1.1893 -1.2124
  744MOL0     H  400   8.492   6.459   9.457 -0.0105  0.4337  0.1397
  744MOL0     H  401   8.396   6.406   9.263 -3.5226  0.7567 -1.1485
  744MOL0     H  402   8.386   6.547   9.141  0.3027  0.5263  1.6489
  744MOL0     H  403   8.512   6.424   9.146 -0.2955 -0.4588 -1.3980
  744MOL0     H  404   8.938   6.864   8.946  2.0325 -3.2381 -1.9612
  744MOL0     H  405   8.985   6.964   8.729  0.2131  0.5927  0.1915
  744MOL0     H  406   8.666   6.928   8.419  0.6311  0.0348 -1.3565
  744MOL0     H  407   8.620   7.089   8.496  1.3284  1.6762  0.2035
  744MOL0     H  408   8.667   7.096   8.237 -0.6169 -0.0025  0.4237
  744MOL0     H  409   8.730   7.222   8.354 -1.9062 -0.0871  2.3741
  744MOL0     H  410   8.902   6.982   8.275 -1.1699 -1.1259  0.9950
  744MOL0     H  411   8.944   7.148   8.327  0.4188  0.1596  0.1789
  744MOL0     H  412   8.856   7.070   8.054  1.1702 -0.9735  0.2371
  744MOL0     H  413   8.867   7.236   8.111 -1.5594  0.4457 -0.1000
  744MOL0     H  414   9.062   7.021   8.038  0.0058  0.3814 -0.3945
  744MOL0     H  415   9.125   7.123   8.162  0.9328  2.3083 -0.5271
  744MOL0     H  416   9.056   7.174   7.866 -0.4123 -1.1546  0.3042
  744MOL0     H  417   9.047   7.309   7.971 -0.3839 -0.0789  0.2412
  744MOL0     H  418   9.264   7.255   7.844  1.0502 -0.5015  1.0707
  744MOL0     H  419   9.275   7.104   7.940 -1.8950 -0.3829  0.3939
  744MOL0     H  420   9.308   7.245   8.140 -1.0611 -2.7784 -1.1427
  744MOL0     H  421   9.307   7.392   8.021 -1.4616  0.5649 -1.6792
  744MOL0     H  422   8.550   6.923   8.657 -0.1443  0.5511  0.6537
  744MOL0     H  423   8.521   6.846   8.862 -0.8916 -2.2623 -2.1109
  744MOL0     H  424   8.806   6.789   9.281 -1.5752 -0.6441 -3.2064
  744MOL0     H  425   8.797   6.748   9.525 -0.2437  0.1680  0.3445
  744MOL0     H  426   9.629   7.483   9.574 -2.9609 -2.2358  0.8973
  744MOL0     H  427   9.874   7.497   9.555 -1.0475 -0.4858  0.9174
  744MOL0     H  428  10.279   7.647   9.890  0.9483  0.9874 -1.6739
  744MOL0     H  429  10.519   7.662   9.842 -2.0953  1.1894 -2.8490
  744MOL0     H  430  10.710   7.273   9.835  0.9499  0.3755 -0.0159
  744MOL0     H  431  10.738   7.309   9.658  2.3321  1.1401 -1.4104
  744MOL0     H  432  10.924   7.261   9.805 -0.5710  0.4978  0.8863
  744MOL0     H  433  10.911   7.427   9.867  3.4545 -1.5991  1.2919
  744MOL0     H  434  10.955   7.535   9.688  0.2980  0.4270  2.6277
  744MOL0     H  435  10.898   7.419   9.580  3.0358 -1.4232 -1.1934
  744MOL0     H  436  11.168   7.393   9.728  0.0275 -2.9939  0.8083
  744MOL0     H  437  11.157   7.439   9.555 -1.7373  2.6825  0.1597
  744MOL0     H  438  11.099   7.013   9.547  0.4082 -0.9868 -0.0017
  744MOL0     H  439  10.514   7.258   9.707  2.2941  0.6471  0.3533
  744MOL0     H  440  10.261   7.258   9.724 -0.3093 -0.3196 -1.9537
  745MOL0     O  441   3.754   5.261   6.183 -0.6428  0.4461 -0.4720
  745MOL0     C  442   3.791   5.376   6.167  0.0875 -0.5128  0.1700
  745MOL0     O  443   3.911   5.425   6.146 -0.3080  0.1625  0.0731
  745MOL0     C  444   4.033   5.349   6.150  0.0979 -0.1667 -0.0253
  745MOL0     C  445   4.051   5.236   6.217  0.2399 -0.0530 -0.6339
  745MOL0     C  446   4.175   5.172   6.215  0.6156  0.0077  0.1761
  745MOL0     C  447   4.279   5.212   6.135  0.6575 -0.1823 -0.2567
  745MOL0     O  448   4.392   5.127   6.125 -0.2829  0.0329  0.0996
  745MOL0     C  449   4.502   5.169   6.061  0.1308  0.6549 -0.2976
  745MOL0     C  450   4.584   5.045   6.044 -0.5479 -0.5361 -0.8985
  745MOL0     C  451   4.726   5.083   5.974  0.1680 -0.1648 -0.4758
  745MOL0     C  452   4.815   4.955   5.983  0.2943 -0.5735  0.0177
  745MOL0     C  453   4.963   4.995   5.950 -0.2695  0.4943  0.9668
  745MOL0     C  454   5.047   4.887   5.880 -0.3114  0.3707  0.1080
  745MOL0     C  455   5.201   4.920   5.865  0.6893  0.0774 -0.0030
  745MOL0     C  456   5.244   4.881   5.727  0.2607  0.3872 -0.0248
  745MOL0     N  457   5.236   4.733   5.692  0.0546 -0.3304 -0.4647
  745MOL0     C  458   5.286   4.633   5.776 -0.1010 -0.0790  0.4541
  745MOL0     C  459   5.285   4.518   5.699  0.6183 -0.8242  0.4991
  745MOL0     C  460   5.317   4.380   5.768  1.0081  0.4973  0.6228
  745MOL0     C  461   5.431   4.297   5.697 -0.1198 -0.7025  0.2332
  745MOL0     C  462   5.557   4.383   5.669 -0.5367 -0.1260 -0.8223
  745MOL0     C  463   5.675   4.297   5.630 -0.3164  0.5249  0.0907
  745MOL0     O  464   5.759   4.364   5.533  0.0716 -1.0244  0.4940
  745MOL0     C  465   5.887   4.319   5.517 -0.6789  0.8164  0.5909
  745MOL0     C  466   5.938   4.211   5.587 -0.5733  0.5469 -0.6458
  745MOL0     C  467   6.070   4.162   5.578 -0.0113  0.4343  0.6380
  745MOL0     C  468   6.109   4.022   5.624  0.8955 -1.0094  0.2479
  745MOL0     C  469   6.161   4.249   5.504 -0.5836 -0.6517  0.1629
  745MOL0     C  470   6.300   4.206   5.463 -0.0240 -0.3148 -0.4924
  745MOL0     O  471   6.369   4.136   5.557  0.4116  0.2199 -0.3674
  745MOL0     C  472   6.485   4.072   5.517 -0.3578  0.1834 -0.0141
  745MOL0     C  473   6.496   3.931   5.532  0.6925 -0.5599 -0.2053
  745MOL0     C  474   6.613   3.855   5.507  0.4889 -0.0920  0.3149
  745MOL0     C  475   6.717   3.923   5.457 -1.0017 -0.6251 -0.1117
  745MOL0     O  476   6.836   3.873   5.425  0.2762 -0.4228  0.2896
  745MOL0     C  477   6.882   3.762   5.504 -0.1533 -0.8418  0.1563
  745MOL0     C  478   7.031   3.738   5.476 -0.1279  0.4152  0.0299
  745MOL0     C  479   7.099   3.612   5.534  0.7412 -0.6430 -0.9065
  745MOL0     C  480   7.122   3.626   5.684  0.3890 -0.1556  1.0998
  745MOL0     C  481   7.196   3.510   5.741  0.9057  0.4575  0.0486
  745MOL0     C  482   7.149   3.367   5.707 -0.1777  0.0500  0.5767
  745MOL0     C  483   7.212   3.310   5.580  0.3657 -0.4055  0.1223
  745MOL0     C  484   7.105   3.234   5.502 -0.1425 -0.4693 -0.2392
  745MOL0    Cl  485   7.168   3.146   5.369 -0.5119  0.2395  0.0978
  745MOL0     C  486   6.712   4.062   5.431 -0.1684  0.8030  0.2355
  745MOL0     C  487   6.599   4.136   5.460  0.2083 -0.2508 -0.7179
  745MOL0     O  488   6.346   4.246   5.355  0.6260  0.5014 -0.3336
  745MOL0     C  489   6.108   4.364   5.443  0.6092  0.2037  0.3201
  745MOL0     C  490   5.974   4.395   5.446  0.0024  0.4214  0.6811
  745MOL0     N  491   5.230   4.546   5.574 -0.3409 -0.0871 -0.2778
  745MOL0     N  492   5.214   4.678   5.570  0.4051  0.3827 -0.7297
  745MOL0     C  493   4.257   5.331   6.066 -0.0592 -0.0792 -0.2149
  745MOL0     C  494   4.136   5.403   6.084  0.2508  0.3417  0.7663
  745MOL0     C  495   3.680   5.481   6.146 -0.7575 -0.0856  0.5755
  745MOL0     C  496   3.545   5.450   6.150  0.3397  0.3476  0.1143
  745MOL0     C  497   3.445   5.535   6.112 -0.8179  0.3632  0.5185
  745MOL0     C  498   3.485   5.663   6.077  0.1181  0.5195  0.8433
  745MOL0     O  499   3.392   5.766   6.036  0.1689  0.3580  0.2046
  745MOL0     C  500   3.254   5.738   6.016  0.1278  0.3328  0.7295
  745MOL0     C  501   3.228   5.653   5.885  0.6064  0.0678 -0.1684
  745MOL0     C  502   3.077   5.643   5.839 -0.0165 -0.1672 -0.5057
  745MOL0     C  503   3.008   5.770   5.822 -0.3717 -0.8707  0.8605
  745MOL0     C  504   3.060   5.844   5.701  0.2543  0.0896 -0.3757
  745MOL0     C  505   3.087   5.879   5.590 -0.5472 -0.3539  0.8625
  745MOL0     C  506   3.625   5.698   6.072  0.0883  0.7105  0.3403
  745MOL0     C  507   3.720   5.608   6.105 -0.1995 -1.0044  0.0729
  745MOL0     H  508   3.975   5.201   6.286  2.9545 -5.6347  0.0867
  745MOL0     H  509   4.179   5.085   6.280  1.4771  0.1508  0.3225
  745MOL0     H  510   4.486   5.219   5.965  1.8753  0.4281 -0.7478
  745MOL0     H  511   4.567   5.234   6.121  2.0724 -1.3190 -0.1174
  745MOL0     H  512   4.610   4.998   6.140  2.3776 -0.8979 -1.7699
  745MOL0     H  513   4.530   4.971   5.984 -0.0819 -0.3776 -1.5231
  745MOL0     H  514   4.719   5.117   5.870  2.1272  2.4992  0.1483
  745MOL0     H  515   4.779   5.163   6.026  0.5140 -0.4572 -0.3785
  745MOL0     H  516   4.825   4.918   6.085  1.4566 -0.9774 -0.2223
  745MOL0     H  517   4.779   4.878   5.914  0.5226 -2.5812  2.0493
  745MOL0     H  518   4.961   5.075   5.875 -0.1712 -0.2792  0.1227
  745MOL0     H  519   5.021   5.027   6.036 -1.2699  1.6547  1.2495
  745MOL0     H  520   5.034   4.793   5.934 -1.2252  1.0295  1.0740
  745MOL0     H  521   5.002   4.868   5.782 -2.4573 -0.8900  1.2600
  745MOL0     H  522   5.233   5.025   5.873 -0.3279  0.5256 -1.4367
  745MOL0     H  523   5.255   4.864   5.941 -0.0513 -0.4846  0.1171
  745MOL0     H  524   5.349   4.909   5.716  0.4400 -1.0465 -3.0363
  745MOL0     H  525   5.188   4.942   5.655  0.6320  2.0289  1.0217
  745MOL0     H  526   5.317   4.624   5.880  1.1720  1.3538  0.2299
  745MOL0     H  527   5.352   4.405   5.868 -0.0215  0.3731  1.0210
  745MOL0     H  528   5.223   4.325   5.772 -0.1104  2.2564 -0.1527
  745MOL0     H  529   5.394   4.268   5.598  3.0873 -0.0442 -1.2830
  745MOL0     H  530   5.459   4.202   5.743  5.5306 -0.2977 -1.5295
  745MOL0     H  531   5.580   4.436   5.762 -0.4422 -3.4012  1.2111
  745MOL0     H  532   5.544   4.454   5.587  1.3555 -0.1257 -1.1711
  745MOL0     H  533   5.639   4.209   5.575 -0.1307  1.2415 -1.1984
  745MOL0     H  534   5.732   4.265   5.718  0.6489 -3.0135 -1.6448
  745MOL0     H  535   5.892   4.154   5.668  1.0235  0.5910  0.3470
  745MOL0     H  536   6.027   3.969   5.673  2.5364 -3.3239  0.6548
  745MOL0     H  537   6.142   3.971   5.533  1.3078  0.2907 -0.3529
  745MOL0     H  538   6.186   4.037   5.700  2.5866 -1.3004 -1.3546
  745MOL0     H  539   6.412   3.873   5.569  1.6166 -1.2922  0.8179
  745MOL0     H  540   6.617   3.750   5.536 -0.1202 -0.6010 -1.3261
  745MOL0     H  541   6.881   3.796   5.608  0.5757  1.1551 -0.4593
  745MOL0     H  542   6.823   3.671   5.491 -0.7203 -0.2428 -1.7039
  745MOL0     H  543   7.044   3.731   5.368 -1.4038  1.6461 -0.2223
  745MOL0     H  544   7.084   3.831   5.500 -0.2174  0.7780 -1.1089
  745MOL0     H  545   7.198   3.614   5.487  1.2404 -0.6682  0.1124
  745MOL0     H  546   7.041   3.522   5.511 -3.2336  0.5151  3.2141
  745MOL0     H  547   7.176   3.720   5.698  2.8642 -1.4375  0.7838
  745MOL0     H  548   7.024   3.634   5.733 -1.2367  3.6619 -2.2139
  745MOL0     H  549   7.177   3.511   5.849  0.7742 -1.3020  0.0686
  745MOL0     H  550   7.304   3.516   5.726  1.0289  0.5829  0.9180
  745MOL0     H  551   7.175   3.297   5.787  0.5306  1.5387  1.6954
  745MOL0     H  552   7.041   3.373   5.722 -0.2704 -0.8608  0.3472
  745MOL0     H  553   7.287   3.235   5.611  1.3238  0.6238  0.3674
  745MOL0     H  554   7.266   3.392   5.533 -0.0631  1.4780  2.7197
  745MOL0     H  555   7.027   3.300   5.464 -2.6124 -2.5387  0.9399
  745MOL0     H  556   7.054   3.167   5.571  1.3019 -0.1901  1.1826
  745MOL0     H  557   6.792   4.118   5.384  0.3372 -0.6801 -0.7407
  745MOL0     H  558   6.590   4.241   5.435  0.8290 -0.1187 -0.3978
  745MOL0     H  559   6.171   4.430   5.383  0.7460  0.7843  1.0978
  745MOL0     H  560   5.923   4.476   5.395 -1.3279 -0.7696  0.0546
  745MOL0     H  561   4.332   5.372   5.999  1.6166  1.1290  2.2554
  745MOL0     H  562   4.134   5.505   6.045  1.8432 -0.5757 -2.0005
  745MOL0     H  563   3.526   5.346   6.175  5.4223 -0.7884  0.4241
  745MOL0     H  564   3.339   5.513   6.122 -0.8642  0.8878  1.2991
  745MOL0     H  565   3.219   5.686   6.106  1.9373  0.0021  1.2878
  745MOL0     H  566   3.208   5.837   6.014  0.0639  0.4319  3.1493
  745MOL0     H  567   3.271   5.554   5.904  2.7539  1.3125  2.0817
  745MOL0     H  568   3.287   5.692   5.802  0.7243  0.1945 -0.0276
  745MOL0     H  569   3.027   5.593   5.923  0.9722  2.3939  1.7658
  745MOL0     H  570   3.066   5.581   5.750  1.0571 -2.6114  0.9596
  745MOL0     H  571   3.018   5.831   5.912  1.9285  1.4940 -0.8784
  745MOL0     H  572   2.903   5.755   5.796  0.5238 -3.3546 -1.9441
  745MOL0     H  573   3.106   5.930   5.497 -2.3310  2.4376  1.8957
  745MOL0     H  574   3.650   5.793   6.026 -1.5421 -0.7125 -4.0180
  745MOL0     H  575   3.827   5.625   6.101 -0.3441  0.1348  0.7273
  746MOL0     O  576   0.351   8.429   0.222  0.3493 -0.1820  0.1235
  746MOL0     C  577   0.395   8.419   0.109  0.2516  0.8636  0.3484
  746MOL0     O  578   0.328   8.368  -0.000 -0.1094  0.7240  0.7002
  746MOL0     C  579   0.200   8.319   0.016  0.0128  0.0877 -0.6686
  746MOL0     C  580   0.094   8.389   0.076 -0.4617 -0.4207 -0.6703
  746MOL0     C  581  -0.042   8.333   0.082 -0.1589 -0.5798  0.7506
  746MOL0     C  582  -0.067   8.213   0.016  0.2376 -0.1811  0.2756
  746MOL0     O  583  -0.185   8.143   0.019  0.2677  0.6851  0.0182
  746MOL0     C  584  -0.313   8.198   0.007  0.1489  1.8370 -0.2884
  746MOL0     C  585  -0.412   8.088   0.032 -0.5522  0.5144 -0.0351
  746MOL0     C  586  -0.566   8.117   0.009  0.3271 -0.1472  0.4205
  746MOL0     C  587  -0.625   8.238   0.090 -0.6827  0.4433 -0.0487
  746MOL0     C  588  -0.594   8.370   0.023 -0.5615  0.6669 -0.7107
  746MOL0     C  589  -0.681   8.468   0.095 -0.0075 -0.2879 -0.3207
  746MOL0     C  590  -0.625   8.502   0.230  0.5532  0.5367  0.3561
  746MOL0     C  591  -0.692   8.632   0.286 -0.5650  0.6627  0.8170
  746MOL0     N  592  -0.839   8.618   0.305 -0.8218 -0.2432  0.0008
  746MOL0     C  593  -0.897   8.547   0.401  0.2815  0.4205 -0.2337
  746MOL0     C  594  -1.022   8.592   0.396  0.7520  0.0884  0.0804
  746MOL0     C  595  -1.132   8.536   0.486 -1.0153  0.0820  0.7548
  746MOL0     C  596  -1.129   8.379   0.469  0.1584  1.1028  0.1533
  746MOL0     C  597  -1.264   8.317   0.482  0.6022  0.2053 -0.1349
  746MOL0     C  598  -1.333   8.355   0.614  0.0133 -0.1764 -0.2543
  746MOL0     O  599  -1.415   8.481   0.600 -0.4902  0.0808  0.6814
  746MOL0     C  600  -1.496   8.518   0.705  0.5923  0.8536 -0.7084
  746MOL0     C  601  -1.495   8.465   0.827  0.6882  0.4741  0.9590
  746MOL0     C  602  -1.584   8.505   0.930  0.0220 -0.8201  0.7766
  746MOL0     C  603  -1.583   8.429   1.057 -0.3953  0.1373 -0.0201
  746MOL0     C  604  -1.689   8.599   0.898  0.1292  0.2702 -0.3401
  746MOL0     C  605  -1.801   8.641   0.992 -0.7235  0.2606  0.6664
  746MOL0     O  606  -1.892   8.728   0.944  0.7995 -0.3481 -0.2914
  746MOL0     C  607  -2.012   8.732   1.016  0.0700 -0.5288  0.2432
  746MOL0     C  608  -2.119   8.646   0.986 -0.6295 -0.6191 -0.5936
  746MOL0     C  609  -2.236   8.652   1.062  0.4343 -0.2206  0.5105
  746MOL0     C  610  -2.253   8.747   1.166 -0.6097 -1.1194  0.6183
  746MOL0     O  611  -2.361   8.778   1.239 -0.3172 -0.0919  0.4061
  746MOL0     C  612  -2.493   8.737   1.186 -0.6247 -0.5335  0.3677
  746MOL0     C  613  -2.602   8.790   1.286 -0.6234 -0.3438 -0.2808
  746MOL0     C  614  -2.744   8.811   1.229 -1.0061 -0.3470 -0.2654
  746MOL0     C  615  -2.851   8.845   1.337 -0.9363 -0.1188  0.0205
  746MOL0     C  616  -2.982   8.841   1.269 -0.1136 -0.6450 -1.0252
  746MOL0     C  617  -3.090   8.885   1.369 -0.6948  0.3841  0.5120
  746MOL0     C  618  -3.230   8.900   1.303 -0.0106 -0.5553 -0.2102
  746MOL0     C  619  -3.292   8.760   1.286  0.0245 -0.4221 -0.6056
  746MOL0    Cl  620  -3.451   8.772   1.206 -0.2616 -0.0272  0.2487
  746MOL0     C  621  -2.134   8.816   1.204 -0.2407  1.0458  0.1122
  746MOL0     C  622  -2.024   8.812   1.130 -0.0038  0.2511  0.9916
  746MOL0     O  623  -1.805   8.597   1.106 -0.1444  0.6440 -0.2217
  746MOL0     C  624  -1.683   8.659   0.774 -0.2229  0.0638  0.5815
  746MOL0     C  625  -1.589   8.622   0.676  0.4620  0.5897  1.3693
  746MOL0     N  626  -1.033   8.675   0.285 -0.8084 -0.4368  0.9362
  746MOL0     N  627  -0.926   8.681   0.220  0.2688  0.0817  0.3344
  746MOL0     C  628   0.042   8.142  -0.045  0.0867 -0.9698 -1.3537
  746MOL0     C  629   0.171   8.194  -0.040 -0.0937 -0.0532  0.5422
  746MOL0     C  630   0.534   8.441   0.084 -0.1306  0.5644 -0.5449
  746MOL0     C  631   0.594   8.546   0.156  0.0977  0.1615  0.5896
  746MOL0     C  632   0.730   8.570   0.140 -0.4471  0.6930 -0.8981
  746MOL0     C  633   0.818   8.484   0.067  0.3417  0.2120  0.0016
  746MOL0     O  634   0.950   8.506   0.065 -0.0619 -0.2713 -0.1181
  746MOL0     C  635   1.048   8.425   0.009 -0.3218  0.3158  0.0923
  746MOL0     C  636   1.177   8.500   0.019 -0.0230  0.0588 -0.4515
  746MOL0     C  637   1.279   8.426  -0.076  1.3612  0.6325  0.1948
  746MOL0     C  638   1.419   8.419  -0.004  0.3813 -0.3996  0.7608
  746MOL0     C  639   1.527   8.382  -0.090 -0.4717  0.3775  0.5636
  746MOL0     C  640   1.611   8.373  -0.179  0.6608 -0.0671  0.0452
  746MOL0     C  641   0.754   8.381  -0.007  0.0976 -0.5373  0.6587
  746MOL0     C  642   0.612   8.357   0.006 -0.7001  0.9887  0.0835
  746MOL0     H  643   0.095   8.490   0.115  0.0972 -0.5118 -0.4376
  746MOL0     H  644  -0.127   8.382   0.129 -1.2070  0.9477 -2.4401
  746MOL0     H  645  -0.327   8.279   0.079 -0.7205  0.2544  1.3952
  746MOL0     H  646  -0.314   8.244  -0.093 -1.2755  0.1209 -1.1261
  746MOL0     H  647  -0.390   8.005  -0.036  0.4493 -0.8293  1.8359
  746MOL0     H  648  -0.403   8.047   0.133  0.5202  1.6558  0.3571
  746MOL0     H  649  -0.575   8.136  -0.098 -0.9987 -1.9635  0.1673
  746MOL0     H  650  -0.630   8.031   0.026 -0.6189  0.5556  0.5114
  746MOL0     H  651  -0.732   8.218   0.099 -0.4059 -1.5761 -0.8104
  746MOL0     H  652  -0.582   8.236   0.191  0.9291 -3.4029 -0.6607
  746MOL0     H  653  -0.491   8.408   0.019 -1.2914  3.6349  3.0511
  746MOL0     H  654  -0.626   8.350  -0.080 -0.3152 -0.8287 -0.5213
  746MOL0     H  655  -0.677   8.559   0.034 -0.3023  0.7588  1.1796
  746MOL0     H  656  -0.788   8.443   0.093 -0.0694 -0.2359  1.3870
  746MOL0     H  657  -0.624   8.418   0.301  1.0324 -0.4663 -0.8109
  746MOL0     H  658  -0.522   8.525   0.204  0.5577  0.3578  0.2211
  746MOL0     H  659  -0.670   8.705   0.207  1.7481 -0.1868  0.6075
  746MOL0     H  660  -0.636   8.674   0.370  0.0954  4.0724 -1.1218
  746MOL0     H  661  -0.866   8.475   0.476 -3.3038  1.0867  2.1647
  746MOL0     H  662  -1.109   8.551   0.592 -0.3054  0.0315  0.6116
  746MOL0     H  663  -1.231   8.566   0.451 -1.1372 -1.9492 -0.8248
  746MOL0     H  664  -1.060   8.333   0.541 -1.6319 -1.9856  0.0829
  746MOL0     H  665  -1.095   8.356   0.368 -0.3578  1.2063 -0.0449
  746MOL0     H  666  -1.250   8.209   0.485 -1.4255 -0.0980  2.7723
  746MOL0     H  667  -1.330   8.366   0.409  1.4481  1.6237  0.0030
  746MOL0     H  668  -1.266   8.365   0.700  0.0407  0.5217 -0.3501
  746MOL0     H  669  -1.398   8.270   0.637 -0.0281 -0.9667 -2.9251
  746MOL0     H  670  -1.425   8.386   0.851 -1.4904 -1.6542  0.7468
  746MOL0     H  671  -1.505   8.352   1.053 -0.2866  0.2661 -0.4241
  746MOL0     H  672  -1.552   8.500   1.134 -0.3107 -0.2450  0.2993
  746MOL0     H  673  -1.678   8.376   1.067 -1.0707  1.1832 -0.6860
  746MOL0     H  674  -2.118   8.570   0.909  0.2794 -2.6710  1.3474
  746MOL0     H  675  -2.318   8.583   1.041  0.1803  0.0522  0.6036
  746MOL0     H  676  -2.506   8.788   1.090  0.5043  0.0305  0.5025
  746MOL0     H  677  -2.509   8.629   1.179 -2.7552 -0.3311  1.1703
  746MOL0     H  678  -2.599   8.707   1.357  2.1402  0.8122  1.1298
  746MOL0     H  679  -2.575   8.885   1.332  0.3417  0.0787 -1.6372
  746MOL0     H  680  -2.781   8.715   1.193 -2.6110  0.1770 -0.1306
  746MOL0     H  681  -2.748   8.893   1.157  1.1600  0.6765  0.7053
  746MOL0     H  682  -2.847   8.779   1.424  1.7681 -0.1649 -0.0323
  746MOL0     H  683  -2.842   8.950   1.367 -2.0977  0.6306 -2.0349
  746MOL0     H  684  -3.009   8.738   1.243 -0.1198 -0.7452 -0.6334
  746MOL0     H  685  -2.970   8.913   1.188 -3.3505 -0.2746 -1.3261
  746MOL0     H  686  -3.089   8.818   1.455 -0.3120  0.7047  0.7586
  746MOL0     H  687  -3.063   8.989   1.391  2.5669 -0.3941  0.7985
  746MOL0     H  688  -3.218   8.955   1.209  0.7604 -0.0571  0.1760
  746MOL0     H  689  -3.302   8.955   1.364  3.0750 -0.2629  3.5717
  746MOL0     H  690  -3.305   8.717   1.386  0.2015 -3.2441 -1.7161
  746MOL0     H  691  -3.226   8.689   1.237  0.4753 -1.3432  1.2327
  746MOL0     H  692  -2.144   8.884   1.287 -1.4820 -1.8879  2.5694
  746MOL0     H  693  -1.945   8.879   1.163  0.2338  0.5946 -0.2333
  746MOL0     H  694  -1.744   8.742   0.739  2.1534  2.3487  1.4540
  746MOL0     H  695  -1.589   8.657   0.573 -1.5570  0.0498  1.1319
  746MOL0     H  696   0.017   8.050  -0.097 -1.8625  0.0829 -2.4147
  746MOL0     H  697   0.247   8.143  -0.098 -2.3907 -1.0249 -1.8463
  746MOL0     H  698   0.527   8.606   0.216 -1.2318 -1.9536  1.3377
  746MOL0     H  699   0.771   8.650   0.200 -1.4832 -0.6941  1.8770
  746MOL0     H  700   1.049   8.326   0.057 -3.0078 -0.0975 -0.5292
  746MOL0     H  701   1.024   8.407  -0.096 -0.5226  3.5187 -0.4966
  746MOL0     H  702   1.192   8.486   0.126 -2.8467 -0.5395 -0.0707
  746MOL0     H  703   1.155   8.605  -0.002  1.0570  0.3994  0.0292
  746MOL0     H  704   1.285   8.479  -0.171  0.4578  0.5953  0.1067
  746MOL0     H  705   1.243   8.326  -0.103  1.8405  0.4736  0.1323
  746MOL0     H  706   1.414   8.347   0.078 -1.5841  1.8835  2.8109
  746MOL0     H  707   1.431   8.522   0.029  1.1164 -0.0616 -0.4997
  746MOL0     H  708   1.681   8.356  -0.259  0.3864 -0.1879 -0.1696
  746MOL0     H  709   0.818   8.314  -0.064  1.9265 -0.4944  2.5293
  746MOL0     H  710   0.558   8.269  -0.029 -1.9468  0.2666  3.4598
  747MOL0     O  711   3.521   1.117   0.755  0.4586 -0.7303 -0.3628
  747MOL0     C  712   3.599   1.030   0.769 -1.4580 -0.6079 -0.8217
  747MOL0     O  713   3.581   0.919   0.849  0.1813 -0.1731  0.1170
  747MOL0     C  714   3.462   0.913   0.918 -0.3298  0.2191 -0.7432
  747MOL0     C  715   3.431   1.017   1.015 -0.0554 -0.2227  0.2487
  747MOL0     C  716   3.321   1.002   1.097  0.3564 -0.4477  0.7541
  747MOL0     C  717   3.239   0.887   1.090 -0.3811 -0.2079  0.6714
  747MOL0     O  718   3.139   0.861   1.174  0.2258  0.4113  0.0379
  747MOL0     C  719   3.009   0.876   1.118 -0.3811 -0.3479 -0.1003
  747MOL0     C  720   2.928   0.970   1.199 -0.1221  0.6934  0.4503
  747MOL0     C  721   2.777   0.964   1.167  0.3018  0.3639  0.0234
  747MOL0     C  722   2.722   1.101   1.216 -0.4799 -0.2070  0.2171
  747MOL0     C  723   2.572   1.108   1.186 -0.5307 -0.5939 -0.5060
  747MOL0     C  724   2.498   1.173   1.300 -0.1496 -1.2350 -0.0780
  747MOL0     C  725   2.348   1.192   1.262 -0.2969  0.0830 -0.1755
  747MOL0     C  726   2.272   1.241   1.387  0.7572 -1.0692  0.5569
  747MOL0     N  727   2.132   1.279   1.359  0.3276 -0.3495 -0.4525
  747MOL0     C  728   2.088   1.378   1.267  0.3413  0.0620  0.5548
  747MOL0     C  729   1.958   1.361   1.254  1.1331 -0.5515  0.5583
  747MOL0     C  730   1.861   1.449   1.178 -0.6232 -0.6264 -0.0567
  747MOL0     C  731   1.835   1.404   1.036  0.5566  0.6540  0.0428
  747MOL0     C  732   1.769   1.509   0.940  0.0039 -0.1636  0.0156
  747MOL0     C  733   1.616   1.497   0.928  0.3857 -0.0799 -0.6776
  747MOL0     O  734   1.548   1.515   1.052  0.4889  0.4765 -0.3002
  747MOL0     C  735   1.415   1.511   1.061  0.3280  1.2045  1.1313
  747MOL0     C  736   1.333   1.541   0.951 -0.3391 -0.4679 -0.2070
  747MOL0     C  737   1.192   1.551   0.971  0.7444 -0.0786  0.2270
  747MOL0     C  738   1.107   1.623   0.862  0.5321  0.1888 -0.1141
  747MOL0     C  739   1.132   1.512   1.094  0.0085 -0.9046  0.9633
  747MOL0     C  740   0.984   1.509   1.125 -0.2436  0.0005 -0.4310
  747MOL0     O  741   0.900   1.530   1.026 -0.4448 -0.1612  0.0353
  747MOL0     C  742   0.768   1.562   1.061  0.2247 -0.1363  0.1743
  747MOL0     C  743   0.717   1.624   1.168  0.2120 -0.5538  0.2581
  747MOL0     C  744   0.579   1.628   1.193 -0.1888 -0.0475 -0.3763
  747MOL0     C  745   0.487   1.573   1.100  0.4717  0.0496  0.7277
  747MOL0     O  746   0.359   1.589   1.126  0.6694 -0.1948 -0.3593
  747MOL0     C  747   0.249   1.524   1.062 -0.7644  0.9244 -0.6455
  747MOL0     C  748   0.121   1.608   1.040 -0.4078  0.1527 -0.2551
  747MOL0     C  749  -0.010   1.551   0.979  0.3077 -0.0889  0.5127
  747MOL0     C  750  -0.132   1.640   0.998  0.3121  0.8917 -0.2038
  747MOL0     C  751  -0.266   1.584   0.951  0.1124 -0.1340  0.3658
  747MOL0     C  752  -0.275   1.545   0.805  0.5383 -0.5574 -0.1392
  747MOL0     C  753  -0.238   1.657   0.707 -1.2888  0.4887  0.2491
  747MOL0     C  754  -0.243   1.610   0.557 -0.2485  0.5742  0.1163
  747MOL0    Cl  755  -0.385   1.509   0.516 -0.2860 -0.3696 -0.0795
  747MOL0     C  756   0.540   1.521   0.984 -0.5020  0.3490  0.2225
  747MOL0     C  757   0.678   1.515   0.966  0.4374  0.1005  0.0641
  747MOL0     O  758   0.948   1.478   1.244  0.6020  0.7652  0.2476
  747MOL0     C  759   1.219   1.469   1.195  0.1666  0.4132  0.4524
  747MOL0     C  760   1.355   1.475   1.177 -0.2175  0.3253 -0.0841
  747MOL0     N  761   1.918   1.257   1.336  0.0657  0.1362 -0.5404
  747MOL0     N  762   2.025   1.212   1.397 -0.2983 -0.5193  0.5386
  747MOL0     C  763   3.271   0.787   1.000  0.4930 -0.2771  0.2293
  747MOL0     C  764   3.374   0.812   0.904 -0.2383  0.0099  0.7636
  747MOL0     C  765   3.730   1.036   0.707  0.5371 -0.0006  0.5746
  747MOL0     C  766   3.803   0.917   0.690  0.2366 -0.1861 -1.3902
  747MOL0     C  767   3.926   0.925   0.620  0.4658 -0.2697 -0.3242
  747MOL0     C  768   3.976   1.043   0.563 -0.2859 -0.6387  1.0129
  747MOL0     O  769   4.089   1.064   0.477 -0.2102  0.3694 -0.5075
  747MOL0     C  770   4.194   0.975   0.458  0.3695 -0.3167  1.2314
  747MOL0     C  771   4.204   0.960   0.301  0.0010 -0.2293  0.3557
  747MOL0     C  772   4.324   0.859   0.270 -0.1089  0.2425 -1.2090
  747MOL0     C  773   4.274   0.716   0.276  0.3839  0.4320  0.1372
  747MOL0     C  774   4.371   0.618   0.235  0.7930 -0.3097  0.6152
  747MOL0     C  775   4.442   0.523   0.210 -0.0578  0.0833  0.4026
  747MOL0     C  776   3.898   1.160   0.582 -0.6925  0.4999  0.2603
  747MOL0     C  777   3.782   1.155   0.655  0.6313 -0.0863  0.8529
  747MOL0     H  778   3.504   1.097   1.022  0.0291 -0.2627 -0.1719
  747MOL0     H  779   3.298   1.078   1.170 -0.4960 -0.6992  0.7535
  747MOL0     H  780   3.012   0.920   1.018 -0.1984  0.6936  0.3573
  747MOL0     H  781   2.958   0.780   1.105 -3.7170  1.4511 -1.6759
  747MOL0     H  782   2.931   0.948   1.306  0.3841  1.5963  0.6326
  747MOL0     H  783   2.965   1.072   1.183 -1.0262  0.6815 -2.3644
  747MOL0     H  784   2.772   0.956   1.058 -1.2206  2.1525 -0.0710
  747MOL0     H  785   2.713   0.895   1.222 -0.7251  1.6662  0.4993
  747MOL0     H  786   2.743   1.115   1.322 -0.3139 -0.0273  0.1602
  747MOL0     H  787   2.775   1.183   1.168  1.9714 -1.4210  0.6864
  747MOL0     H  788   2.556   1.166   1.094 -0.1084 -0.1042 -0.2796
  747MOL0     H  789   2.523   1.011   1.182 -0.9116 -0.4649  0.5993
  747MOL0     H  790   2.502   1.113   1.391 -1.8451  1.3559  1.8493
  747MOL0     H  791   2.546   1.268   1.325  1.3625 -1.7109 -1.0074
  747MOL0     H  792   2.327   1.257   1.178  0.7995  1.1528  0.3426
  747MOL0     H  793   2.309   1.093   1.236  1.5087 -1.7383  3.2280
  747MOL0     H  794   2.322   1.320   1.444  0.5511 -1.0282  0.6800
  747MOL0     H  795   2.270   1.154   1.453 -0.6256 -1.0841  0.5180
  747MOL0     H  796   2.150   1.449   1.212  1.8330 -1.4014  0.2448
  747MOL0     H  797   1.763   1.438   1.226 -0.3102  0.8735  0.9776
  747MOL0     H  798   1.890   1.554   1.182  0.6857 -1.0047  3.9191
  747MOL0     H  799   1.774   1.313   1.037  1.5893 -0.0658  1.4971
  747MOL0     H  800   1.937   1.385   1.002  0.7542  2.2922 -0.3576
  747MOL0     H  801   1.813   1.504   0.839 -1.8533  1.1641 -0.9169
  747MOL0     H  802   1.784   1.610   0.980 -0.6464 -0.1726  0.2941
  747MOL0     H  803   1.587   1.395   0.900  0.8469 -1.3548  2.9794
  747MOL0     H  804   1.580   1.570   0.855 -4.6614 -0.0815  1.4208
  747MOL0     H  805   1.360   1.573   0.851 -4.5594  1.4634 -0.9290
  747MOL0     H  806   1.051   1.546   0.808  2.9643 -2.0643  0.4154
  747MOL0     H  807   1.045   1.704   0.902  2.1523  1.3143  0.2206
  747MOL0     H  808   1.167   1.678   0.790  2.3581 -1.7937 -0.1846
  747MOL0     H  809   0.787   1.675   1.233 -3.1932  0.6996  3.2867
  747MOL0     H  810   0.543   1.674   1.285  0.8885 -2.5767  1.4211
  747MOL0     H  811   0.287   1.489   0.965  1.6929 -0.0598  0.5992
  747MOL0     H  812   0.218   1.437   1.120 -1.2873  0.5842 -1.4060
  747MOL0     H  813   0.091   1.639   1.141 -0.8934  1.7573 -0.8639
  747MOL0     H  814   0.139   1.696   0.978 -1.1257  0.0950 -0.5552
  747MOL0     H  815  -0.025   1.453   1.025  2.1502 -0.2222  0.9322
  747MOL0     H  816   0.004   1.537   0.872  0.5096 -1.2627  0.6782
  747MOL0     H  817  -0.134   1.663   1.105 -2.4193  0.2882 -0.0404
  747MOL0     H  818  -0.114   1.739   0.955 -2.1999  2.7398  2.6074
  747MOL0     H  819  -0.345   1.657   0.971  1.4686  1.1970  1.0878
  747MOL0     H  820  -0.290   1.493   1.005 -0.2976 -0.4085 -0.2654
  747MOL0     H  821  -0.207   1.463   0.781  0.7838  0.3018 -2.7192
  747MOL0     H  822  -0.375   1.503   0.787  0.1203  0.6650 -0.8504
  747MOL0     H  823  -0.132   1.682   0.720  0.0713 -3.6302 -1.1037
  747MOL0     H  824  -0.312   1.733   0.731 -0.2210  0.8456  2.7859
  747MOL0     H  825  -0.155   1.551   0.534 -0.7249 -0.6134  1.1872
  747MOL0     H  826  -0.242   1.697   0.491 -1.2784  2.1778  2.0930
  747MOL0     H  827   0.484   1.461   0.913  0.9086  0.7311 -1.2599
  747MOL0     H  828   0.719   1.474   0.874 -0.2977  0.7705 -0.5791
  747MOL0     H  829   1.175   1.420   1.282  1.3586 -2.0170 -0.2191
  747MOL0     H  830   1.423   1.447   1.257  2.6083 -1.7821 -2.9660
  747MOL0     H  831   3.211   0.696   1.000 -0.4418  0.2602  3.1810
  747MOL0     H  832   3.406   0.733   0.836 -0.9478 -0.8179  1.3743
  747MOL0     H  833   3.773   0.830   0.748 -0.2702  2.2874  2.3549
  747MOL0     H  834   3.997   0.844   0.602  0.0353 -0.5284 -0.8875
  747MOL0     H  835   4.290   1.021   0.485 -0.4520  2.2180  0.1642
  747MOL0     H  836   4.163   0.887   0.515 -1.6063 -0.3957  0.1351
  747MOL0     H  837   4.210   1.059   0.256 -0.4800 -0.8910 -1.2307
  747MOL0     H  838   4.103   0.929   0.272 -0.7981 -1.3880  3.8586
  747MOL0     H  839   4.399   0.861   0.349 -3.5277  1.3308  2.3490
  747MOL0     H  840   4.368   0.889   0.174  1.3507  0.9816 -0.3351
  747MOL0     H  841   4.194   0.717   0.201 -0.9709  0.0824  1.5241
  747MOL0     H  842   4.212   0.688   0.361  1.5354  0.0956  0.8820
  747MOL0     H  843   4.500   0.434   0.194  1.2487  1.1042 -0.7982
  747MOL0     H  844   3.942   1.247   0.534  1.8063  0.1697  1.7568
  747MOL0     H  845   3.729   1.249   0.668  1.6865  0.8268 -1.0295
  748MOL0     O  846   5.478   3.558   6.554 -0.2480  0.5216 -0.2627
  748MOL0     C  847   5.496   3.579   6.678 -0.3512  0.4079 -0.0403
  748MOL0     O  848   5.407   3.544   6.780  0.1343 -0.6950  0.9120
  748MOL0     C  849   5.290   3.483   6.764 -0.6028  1.2869  0.9501
  748MOL0     C  850   5.188   3.519   6.851  0.3831  0.2194  0.0820
  748MOL0     C  851   5.064   3.453   6.850  0.3198 -0.7618  0.2670
  748MOL0     C  852   5.046   3.354   6.760  0.5669  0.7457 -0.7883
  748MOL0     O  853   4.926   3.285   6.776 -0.0278 -0.6218  0.8249
  748MOL0     C  854   4.915   3.147   6.735  0.9976 -0.9614 -0.2735
  748MOL0     C  855   4.783   3.105   6.794  0.2685 -0.1925 -1.2209
  748MOL0     C  856   4.755   2.959   6.745  0.4389 -0.6694 -0.0388
  748MOL0     C  857   4.826   2.841   6.814  0.5994  0.6971 -0.3340
  748MOL0     C  858   4.772   2.821   6.955  0.7800 -0.2086 -0.3137
  748MOL0     C  859   4.856   2.726   7.035 -0.6476 -0.0140  0.7921
  748MOL0     C  860   4.788   2.672   7.168 -0.3499 -0.1238  0.4032
  748MOL0     C  861   4.876   2.566   7.244 -1.2102  0.3821 -0.4531
  748MOL0     N  862   4.831   2.516   7.380  0.2759  0.1333  0.5406
  748MOL0     C  863   4.743   2.413   7.383  0.1953 -0.8402 -0.2250
  748MOL0     C  864   4.710   2.416   7.524 -0.4933  0.3719  0.6106
  748MOL0     C  865   4.610   2.328   7.596  0.9725 -0.2504  0.0959
  748MOL0     C  866   4.478   2.349   7.542  0.6170  0.1512 -0.3484
  748MOL0     C  867   4.425   2.476   7.593 -0.4883 -0.8672  0.3633
  748MOL0     C  868   4.291   2.516   7.535  0.6667 -0.2820  0.3185
  748MOL0     O  869   4.313   2.539   7.391  0.6892  0.1278  0.2146
  748MOL0     C  870   4.358   2.653   7.330 -0.0642  0.4585 -0.1294
  748MOL0     C  871   4.337   2.660   7.201 -0.3354 -0.1495 -0.0304
  748MOL0     C  872   4.377   2.773   7.127  0.7030 -0.8011  0.0956
  748MOL0     C  873   4.339   2.781   6.985 -0.2206 -0.2999  0.1867
  748MOL0     C  874   4.453   2.875   7.201  0.6914  0.5801  0.5106
  748MOL0     C  875   4.508   3.004   7.150  0.5064  0.7232  0.0848
  748MOL0     O  876   4.594   3.072   7.233 -0.4312 -0.5180 -0.5450
  748MOL0     C  877   4.649   3.191   7.187  0.6696  0.7045  0.0123
  748MOL0     C  878   4.580   3.315   7.210  0.1120 -0.3144  0.2169
  748MOL0     C  879   4.635   3.440   7.179  0.0624  0.1670  1.0424
  748MOL0     C  880   4.773   3.451   7.141  0.2839  0.2892 -0.2799
  748MOL0     O  881   4.830   3.574   7.118  0.0999  0.5919 -0.2461
  748MOL0     C  882   4.848   3.677   7.220  0.4617  0.9118  0.9067
  748MOL0     C  883   4.887   3.804   7.136  0.7032  0.6094  0.9096
  748MOL0     C  884   5.016   3.797   7.060 -0.0351 -0.0677 -0.4721
  748MOL0     C  885   5.027   3.919   6.966 -0.8843 -0.3042 -0.5004
  748MOL0     C  886   5.177   3.940   6.920  0.4369 -0.2962 -0.3866
  748MOL0     C  887   5.248   4.005   7.039 -0.1707 -0.5375 -0.0901
  748MOL0     C  888   5.392   3.964   7.027 -0.7712  0.5556 -0.4938
  748MOL0     C  889   5.465   4.017   6.905 -0.1967  0.3960  0.0829
  748MOL0    Cl  890   5.444   4.194   6.885  0.3562  0.1260 -0.3115
  748MOL0     C  891   4.839   3.331   7.118  0.2122  0.1156  0.8407
  748MOL0     C  892   4.781   3.202   7.146 -0.0852  0.2686  0.8207
  748MOL0     O  893   4.469   3.047   7.040 -0.5217  0.2306  0.6380
  748MOL0     C  894   4.466   2.858   7.344  0.4801 -0.6950 -1.4159
  748MOL0     C  895   4.416   2.749   7.403  0.0227  0.2301  0.1381
  748MOL0     N  896   4.791   2.497   7.590  0.2312  0.3524 -1.0920
  748MOL0     N  897   4.862   2.562   7.507  0.1188  0.3096 -0.1471
  748MOL0     C  898   5.146   3.315   6.670 -0.0391 -0.5439  0.2099
  748MOL0     C  899   5.262   3.379   6.671  0.3090  0.3002 -0.3649
  748MOL0     C  900   5.631   3.641   6.714 -0.4641 -0.4688  0.1807
  748MOL0     C  901   5.735   3.635   6.622 -1.0015 -0.2025 -0.5267
  748MOL0     C  902   5.849   3.706   6.652 -0.0016 -0.0761  0.2613
  748MOL0     C  903   5.862   3.779   6.764  0.0308 -0.7869  0.1238
  748MOL0     O  904   5.987   3.837   6.780  0.4946 -0.2073 -0.8803
  748MOL0     C  905   6.069   3.761   6.874  0.0233  0.2915  0.2949
  748MOL0     C  906   6.219   3.772   6.822  0.2414  0.2110  0.2414
  748MOL0     C  907   6.243   3.731   6.672  0.0476  0.3522  0.3459
  748MOL0     C  908   6.388   3.776   6.619 -0.4260 -0.2723  0.4229
  748MOL0     C  909   6.486   3.714   6.712  0.6658  0.0270 -0.0125
  748MOL0     C  910   6.564   3.675   6.795  0.3819  0.1775 -0.8725
  748MOL0     C  911   5.761   3.768   6.869 -0.8081 -0.1629  0.3508
  748MOL0     C  912   5.641   3.699   6.838 -0.7521  0.3567 -0.6909
  748MOL0     H  913   5.198   3.598   6.924 -2.6520  0.5301  0.2903
  748MOL0     H  914   4.993   3.474   6.929 -1.6760 -0.9234 -1.3946
  748MOL0     H  915   4.923   3.146   6.626  2.7251  0.1242 -0.2032
  748MOL0     H  916   4.992   3.086   6.783  0.0307 -1.6550  0.4533
  748MOL0     H  917   4.805   3.111   6.901  1.9711  0.6297 -1.5849
  748MOL0     H  918   4.703   3.172   6.762 -0.8305  0.2140  2.0101
  748MOL0     H  919   4.646   2.951   6.750  0.4691 -2.1270 -0.9420
  748MOL0     H  920   4.775   2.962   6.637 -1.3015 -1.2593 -0.4171
  748MOL0     H  921   4.820   2.743   6.766  1.7603  0.6856 -0.4819
  748MOL0     H  922   4.931   2.866   6.831  1.4812 -2.8335  0.1107
  748MOL0     H  923   4.756   2.912   7.013  2.8059 -0.9453  1.5509
  748MOL0     H  924   4.669   2.783   6.954 -1.4901  4.9008  1.7791
  748MOL0     H  925   4.889   2.653   6.961  0.8961  4.2947 -3.1897
  748MOL0     H  926   4.947   2.783   7.058 -1.1249  0.7016  0.9412
  748MOL0     H  927   4.780   2.752   7.243  1.5325  1.1525 -0.6694
  748MOL0     H  928   4.693   2.619   7.155 -0.6427  0.5098 -0.0636
  748MOL0     H  929   4.983   2.585   7.257 -1.3233 -0.8282  4.1382
  748MOL0     H  930   4.862   2.483   7.174 -0.2937  0.1083 -0.3272
  748MOL0     H  931   4.700   2.360   7.299 -1.2863  0.3781 -0.2953
  748MOL0     H  932   4.643   2.226   7.573 -0.2977 -0.9399  1.1813
  748MOL0     H  933   4.618   2.342   7.704  0.0832  1.1494  0.0116
  748MOL0     H  934   4.422   2.262   7.579  2.2350 -1.7105 -2.0326
  748MOL0     H  935   4.475   2.358   7.433 -1.0558  0.4344 -0.3095
  748MOL0     H  936   4.502   2.554   7.585 -1.8675  0.6278  1.0865
  748MOL0     H  937   4.410   2.476   7.701  1.4218  2.2296  0.7517
  748MOL0     H  938   4.254   2.606   7.585 -0.4911 -0.8388  0.5133
  748MOL0     H  939   4.213   2.439   7.543  0.2595  0.0848 -0.0709
  748MOL0     H  940   4.284   2.578   7.153  1.0305  0.1028 -2.0842
  748MOL0     H  941   4.431   2.756   6.932  1.1552  3.0249  0.7665
  748MOL0     H  942   4.258   2.709   6.970 -0.0910 -0.0416 -2.0610
  748MOL0     H  943   4.296   2.876   6.952  1.9005  0.0090 -2.0282
  748MOL0     H  944   4.477   3.309   7.244  1.2385 -0.7955  4.0121
  748MOL0     H  945   4.575   3.529   7.194 -0.7433 -0.3951  1.1870
  748MOL0     H  946   4.756   3.684   7.279  0.7863 -1.5580  1.8332
  748MOL0     H  947   4.927   3.658   7.292 -0.0737  1.4930  1.6668
  748MOL0     H  948   4.806   3.831   7.069  3.0537  0.6339 -2.1241
  748MOL0     H  949   4.884   3.887   7.208 -2.5339 -0.2032  1.8440
  748MOL0     H  950   5.006   3.703   7.006 -1.1455  0.2754 -0.9056
  748MOL0     H  951   5.095   3.785   7.134  0.9316 -1.0285 -1.6306
  748MOL0     H  952   4.954   3.898   6.886 -0.6668 -1.2058 -0.4713
  748MOL0     H  953   4.995   4.005   7.024  0.9789 -0.5918  1.0392
  748MOL0     H  954   5.180   3.994   6.825  0.7903  0.9918  0.3375
  748MOL0     H  955   5.228   3.844   6.908  3.4389  1.0394  0.7042
  748MOL0     H  956   5.242   4.114   7.043 -1.2635 -0.5710 -0.6730
  748MOL0     H  957   5.221   3.977   7.142  0.9790  2.7805  1.2599
  748MOL0     H  958   5.408   3.857   7.039  2.3797  1.0124  0.5831
  748MOL0     H  959   5.442   4.015   7.110  1.3182 -0.2035 -1.2198
  748MOL0     H  960   5.418   3.980   6.813  1.2691 -0.5146 -0.3283
  748MOL0     H  961   5.570   3.989   6.905 -0.5489 -1.2450 -2.0300
  748MOL0     H  962   4.941   3.340   7.083 -0.0130 -0.2690  0.0717
  748MOL0     H  963   4.842   3.114   7.127  1.8187  1.6566  0.2738
  748MOL0     H  964   4.518   2.932   7.404 -0.7181 -1.3080  0.4768
  748MOL0     H  965   4.439   2.739   7.509  1.5925 -0.6250 -0.2522
  748MOL0     H  966   5.145   3.237   6.594 -0.3802  0.9650 -1.3946
  748MOL0     H  967   5.329   3.352   6.590  0.3575 -4.1984  0.9548
  748MOL0     H  968   5.716   3.581   6.530  0.6544  1.2606 -1.7961
  748MOL0     H  969   5.919   3.710   6.570 -1.1012  0.8546 -0.6840
  748MOL0     H  970   6.052   3.799   6.975 -1.7772 -2.7202  1.2712
  748MOL0     H  971   6.029   3.659   6.867  0.5385  0.1901 -2.0944
  748MOL0     H  972   6.272   3.701   6.886 -0.5093 -1.7383 -1.1941
  748MOL0     H  973   6.263   3.872   6.831  0.4445 -0.0454  2.6185
  748MOL0     H  974   6.165   3.782   6.615 -0.9168 -0.4734  0.8980
  748MOL0     H  975   6.230   3.624   6.656 -0.9275  0.5046  0.0340
  748MOL0     H  976   6.382   3.884   6.631  0.3600 -0.2367  0.4956
  748MOL0     H  977   6.411   3.755   6.514 -1.3774  0.6278  0.0170
  748MOL0     H  978   6.623   3.644   6.879  1.0275 -2.2002 -2.1348
  748MOL0     H  979   5.766   3.820   6.964 -3.9854 -1.2992  1.2471
  748MOL0     H  980   5.569   3.681   6.918  0.3079 -1.4952 -0.0922
  749MOL0     O  981   1.143   8.280   1.937 -0.0172 -1.2504  0.3937
  749MOL0     C  982   1.214   8.340   2.015 -0.0470 -0.6294 -0.0566
  749MOL0     O  983   1.169   8.414   2.123  0.4306 -0.3744  0.0359
  749MOL0     C  984   1.038   8.461   2.125  0.3918  0.4364  0.3668
  749MOL0     C  985   0.934   8.374   2.149  0.2528 -0.1296 -1.1404
  749MOL0     C  986   0.801   8.417   2.141  0.3291  0.6260  0.6324
  749MOL0     C  987   0.773   8.551   2.109 -0.1072  0.3764  0.3035
  749MOL0     O  988   0.651   8.605   2.117  0.1688 -0.3808 -0.0033
  749MOL0     C  989   0.558   8.538   2.036  0.0792 -0.1586 -0.6295
  749MOL0     C  990   0.439   8.619   2.013 -0.4328  0.2801 -0.6391
  749MOL0     C  991   0.465   8.765   1.989  0.3911 -1.0591  0.1750
  749MOL0     C  992   0.331   8.846   1.965  0.2245  0.0316 -0.4972
  749MOL0     C  993   0.360   8.987   1.921 -0.5826  0.5621 -0.5123
  749MOL0     C  994   0.229   9.054   1.884 -0.1997 -0.1903  0.2302
  749MOL0     C  995   0.243   9.178   1.802  0.1735  0.0605  0.7839
  749MOL0     C  996   0.334   9.289   1.864 -1.0138 -0.8805 -1.3471
  749MOL0     N  997   0.273   9.374   1.969  0.6598  0.7825  0.1686
  749MOL0     C  998   0.336   9.476   2.039  0.0795  0.0850  0.8140
  749MOL0     C  999   0.243   9.513   2.131 -0.5279 -0.2578  0.6119
  749MOL0     C 1000   0.252   9.632   2.226 -0.0992  0.6523  0.1343
  749MOL0     C 1001   0.107   9.696   2.220 -0.0892 -0.3347  0.6538
  749MOL0     C 1002   0.107   9.827   2.285  0.3135  0.4452  0.0364
  749MOL0     C 1003  -0.037   9.877   2.290 -1.3164  0.2355 -0.5317
  749MOL0     O 1004  -0.118   9.794   2.371 -0.3736 -0.1970  0.6576
  749MOL0     C 1005  -0.254   9.817   2.342 -0.3425  0.3122  1.1365
  749MOL0     C 1006  -0.317   9.939   2.339 -0.8127 -0.2058 -0.8493
  749MOL0     C 1007  -0.459   9.948   2.328 -0.4222 -0.1214 -0.0021
  749MOL0     C 1008  -0.518  10.078   2.367 -0.0028  0.7766  0.1411
  749MOL0     C 1009  -0.533   9.835   2.289  0.5716  0.4824 -0.1118
  749MOL0     C 1010  -0.677   9.840   2.261 -0.3619  0.0889 -0.9312
  749MOL0     O 1011  -0.722   9.927   2.163 -0.5002  0.2874 -0.5495
  749MOL0     C 1012  -0.836   9.895   2.102 -0.5311 -0.3251  0.1067
  749MOL0     C 1013  -0.825   9.812   1.994  0.2247  0.8532  0.1407
  749MOL0     C 1014  -0.941   9.773   1.928 -0.2568  0.1865 -0.7417
  749MOL0     C 1015  -1.064   9.821   1.968 -0.2865  0.0422 -0.3867
  749MOL0     O 1016  -1.173   9.781   1.883 -0.9334 -0.8364  0.5463
  749MOL0     C 1017  -1.218   9.876   1.783  0.1450  0.2092 -0.5138
  749MOL0     C 1018  -1.312   9.808   1.689  0.0624 -0.0160 -0.5321
  749MOL0     C 1019  -1.374   9.905   1.587 -0.1452  0.1563  0.1799
  749MOL0     C 1020  -1.441   9.811   1.480 -0.5792 -0.3793 -0.1594
  749MOL0     C 1021  -1.500   9.894   1.365  1.1178 -0.2865  0.2174
  749MOL0     C 1022  -1.619   9.957   1.421 -0.7034  0.6064  0.0670
  749MOL0     C 1023  -1.719   9.989   1.306  0.8565 -0.3432 -0.0649
  749MOL0     C 1024  -1.852  10.043   1.355  0.3583 -0.5132  0.4242
  749MOL0    Cl 1025  -1.825  10.201   1.444 -0.2954 -0.2462 -0.2459
  749MOL0     C 1026  -1.073   9.907   2.074 -0.6012  0.1919 -0.9818
  749MOL0     C 1027  -0.957   9.948   2.141 -0.0895  0.8012  0.2626
  749MOL0     O 1028  -0.746   9.761   2.321  0.9558 -0.5013  0.2182
  749MOL0     C 1029  -0.470   9.712   2.281 -0.4896 -0.2562  0.0545
  749MOL0     C 1030  -0.333   9.703   2.316 -0.2964  0.0975 -0.1941
  749MOL0     N 1031   0.144   9.417   2.125  0.0380  0.1801 -0.0280
  749MOL0     N 1032   0.159   9.336   2.036  0.0430  0.6729  0.3695
  749MOL0     C 1033   0.879   8.639   2.091  0.7816  0.3830 -0.6481
  749MOL0     C 1034   1.008   8.594   2.097 -0.3638  0.4141  0.5865
  749MOL0     C 1035   1.358   8.301   2.011  0.4872  0.3122 -0.1753
  749MOL0     C 1036   1.410   8.182   1.947  0.0013  0.1966 -0.0366
  749MOL0     C 1037   1.547   8.154   1.947  0.6970  0.0958 -0.0580
  749MOL0     C 1038   1.632   8.230   2.021 -0.9715 -0.0785  0.5727
  749MOL0     O 1039   1.768   8.202   2.008 -0.6166 -0.5274  0.0141
  749MOL0     C 1040   1.874   8.304   2.034  0.3439  0.8110 -1.2100
  749MOL0     C 1041   1.924   8.313   2.176  0.8451 -0.7849 -0.1123
  749MOL0     C 1042   2.011   8.193   2.223 -0.6721 -0.0771 -0.5082
  749MOL0     C 1043   2.143   8.162   2.141  0.8211  0.4626  0.3047
  749MOL0     C 1044   2.221   8.277   2.103 -0.0249 -0.2576  0.2602
  749MOL0     C 1045   2.299   8.368   2.073  0.7350 -0.1988  0.1914
  749MOL0     C 1046   1.584   8.346   2.083  0.7701  0.1480  0.0731
  749MOL0     C 1047   1.448   8.380   2.082  0.7589  0.1629  0.0783
  749MOL0     H 1048   0.954   8.275   2.187  0.7526  0.6481  0.7487
  749MOL0     H 1049   0.724   8.347   2.172 -1.7301  2.2549 -0.5261
  749MOL0     H 1050   0.597   8.512   1.937  0.5054 -0.0986 -0.4764
  749MOL0     H 1051   0.526   8.444   2.083 -0.1195  0.1399 -0.1703
  749MOL0     H 1052   0.376   8.587   1.929 -0.0701  1.5335 -1.4231
  749MOL0     H 1053   0.389   8.612   2.110  2.5166 -3.4520  0.8688
  749MOL0     H 1054   0.521   8.809   2.072  1.1790  3.4275 -2.3583
  749MOL0     H 1055   0.535   8.786   1.907  0.9567  0.6337  1.0478
  749MOL0     H 1056   0.265   8.800   1.891  0.0185 -1.7565  0.7389
  749MOL0     H 1057   0.276   8.848   2.059 -1.9990  1.9593 -1.7151
  749MOL0     H 1058   0.398   9.041   2.008 -0.8553  1.8436 -1.1704
  749MOL0     H 1059   0.436   8.977   1.842  0.6418 -2.8631  0.9258
  749MOL0     H 1060   0.156   8.994   1.828  1.9177  0.1884 -3.2539
  749MOL0     H 1061   0.179   9.085   1.976  1.6057  0.8529  0.9183
  749MOL0     H 1062   0.287   9.158   1.704  1.0942  2.3049  0.6875
  749MOL0     H 1063   0.150   9.233   1.787  0.5219  0.0504 -1.8653
  749MOL0     H 1064   0.357   9.348   1.775  1.9360 -0.6164 -0.5160
  749MOL0     H 1065   0.422   9.237   1.902 -2.4082 -3.1309 -1.0055
  749MOL0     H 1066   0.420   9.537   2.009 -0.5528  0.4727 -0.2328
  749MOL0     H 1067   0.244   9.599   2.331 -0.2357  0.5514  0.0936
  749MOL0     H 1068   0.342   9.691   2.214 -0.0277  0.6986  0.8239
  749MOL0     H 1069   0.033   9.626   2.260 -0.1084 -2.7502 -3.0971
  749MOL0     H 1070   0.091   9.719   2.115 -0.2773 -0.3747  0.6735
  749MOL0     H 1071   0.164   9.894   2.220  1.2596  0.9724  1.3757
  749MOL0     H 1072   0.151   9.819   2.384  2.8252  1.4774 -0.9257
  749MOL0     H 1073  -0.063   9.880   2.184 -1.7773 -3.5961 -0.6669
  749MOL0     H 1074  -0.048   9.974   2.339  0.6397 -1.9690  5.0699
  749MOL0     H 1075  -0.263  10.032   2.357  2.6955 -2.3425  0.7656
  749MOL0     H 1076  -0.611  10.068   2.424 -2.2176  2.9668 -2.7564
  749MOL0     H 1077  -0.440  10.141   2.412  0.9272 -0.6938  0.6823
  749MOL0     H 1078  -0.549  10.121   2.272  2.4081 -0.3923 -1.2626
  749MOL0     H 1079  -0.722   9.792   1.963  0.8061  3.5170  0.0871
  749MOL0     H 1080  -0.943   9.691   1.857 -0.1452 -1.9238  1.5868
  749MOL0     H 1081  -1.276   9.949   1.840 -0.4654  0.2925 -1.2158
  749MOL0     H 1082  -1.138   9.930   1.731 -1.1083  0.7084 -2.0105
  749MOL0     H 1083  -1.254   9.736   1.631 -0.4064 -1.7323  1.0495
  749MOL0     H 1084  -1.390   9.758   1.746 -2.6405  0.2835 -3.7014
  749MOL0     H 1085  -1.297   9.972   1.548  0.4328 -0.3857  0.3740
  749MOL0     H 1086  -1.452   9.965   1.633 -0.2084  3.4386 -3.6193
  749MOL0     H 1087  -1.362   9.750   1.437  1.1738  2.3474 -1.0695
  749MOL0     H 1088  -1.520   9.756   1.532 -0.0999  1.1947  2.4122
  749MOL0     H 1089  -1.530   9.829   1.283  1.1147 -0.5201  0.4013
  749MOL0     H 1090  -1.430   9.972   1.332  0.1830 -0.4902 -2.4355
  749MOL0     H 1091  -1.665   9.890   1.495  1.9984 -1.7478 -0.2121
  749MOL0     H 1092  -1.585  10.047   1.472  0.1143  0.9704 -1.0829
  749MOL0     H 1093  -1.753   9.904   1.246 -0.3144 -0.5251  0.8269
  749MOL0     H 1094  -1.670  10.061   1.239  0.1284  0.4897  0.2787
  749MOL0     H 1095  -1.901   9.971   1.421 -0.1504 -2.8798 -2.3203
  749MOL0     H 1096  -1.918  10.055   1.269  0.7290 -2.7814 -0.2550
  749MOL0     H 1097  -1.175   9.929   2.104 -1.7009 -3.7974 -1.1270
  749MOL0     H 1098  -0.956  10.015   2.226  2.3786  1.8516 -0.5165
  749MOL0     H 1099  -0.518   9.618   2.257 -2.5929  0.8035 -0.0692
  749MOL0     H 1100  -0.287   9.605   2.318  0.0949  0.2919  1.0396
  749MOL0     H 1101   0.857   8.744   2.070 -2.6581 -0.1708 -0.3399
  749MOL0     H 1102   1.091   8.664   2.100  0.1946 -0.2710  2.0632
  749MOL0     H 1103   1.344   8.117   1.892 -0.3566 -1.7503  2.5007
  749MOL0     H 1104   1.592   8.070   1.896 -0.6021  0.5605 -2.0897
  749MOL0     H 1105   1.965   8.286   1.976  1.1016 -0.3188  0.2878
  749MOL0     H 1106   1.844   8.402   1.996  1.6675  0.6076 -2.9286
  749MOL0     H 1107   1.839   8.316   2.245  1.2512  0.3891  0.3487
  749MOL0     H 1108   1.979   8.407   2.180  0.6382 -0.6048 -1.1375
  749MOL0     H 1109   1.949   8.103   2.223 -0.4627 -0.2278 -1.4317
  749MOL0     H 1110   2.042   8.209   2.327 -1.2262 -1.1754 -0.1615
  749MOL0     H 1111   2.112   8.105   2.053 -1.7773  1.0886  0.7214
  749MOL0     H 1112   2.214   8.097   2.194  0.8642 -0.7359 -1.1575
  749MOL0     H 1113   2.373   8.443   2.055 -1.0684  1.6353  0.0061
  749MOL0     H 1114   1.657   8.410   2.132 -2.1447  2.1644  2.0787
  749MOL0     H 1115   1.427   8.476   2.127  3.4219  0.4360  0.8938
  750MOL0     O 1116   8.653   1.108   8.994  0.2737 -1.1287 -0.3473
  750MOL0     C 1117   8.753   1.037   8.969  0.7820  0.0965  0.5589
  750MOL0     O 1118   8.761   0.903   8.986 -0.6954  0.2767 -0.1997
  750MOL0     C 1119   8.638   0.836   8.994  0.4364  0.8438  0.8146
  750MOL0     C 1120   8.604   0.740   8.899  1.0261  0.4823  0.2211
  750MOL0     C 1121   8.487   0.668   8.907  0.3317  0.4762 -0.1336
  750MOL0     C 1122   8.404   0.669   9.019 -0.8910  0.6389 -0.5104
  750MOL0     O 1123   8.287   0.600   9.037 -1.0313  0.2582 -0.2703
  750MOL0     C 1124   8.245   0.496   8.949 -1.0777  0.2603  0.1593
  750MOL0     C 1125   8.114   0.430   9.010  0.5521 -0.4977 -0.3329
  750MOL0     C 1126   8.053   0.335   8.916 -0.3721 -0.5954  0.4780
  750MOL0     C 1127   7.973   0.403   8.807  0.0609  0.7189  0.2762
  750MOL0     C 1128   7.916   0.301   8.715  0.5424 -0.2296 -0.5237
  750MOL0     C 1129   7.811   0.360   8.628 -0.4300  0.7153  0.5413
  750MOL0     C 1130   7.762   0.272   8.513 -0.0662  0.7704 -0.7058
  750MOL0     C 1131   7.656   0.164   8.555 -0.3739  0.1589 -0.8958
  750MOL0     N 1132   7.530   0.226   8.593  0.1641  0.1737  0.2786
  750MOL0     C 1133   7.488   0.246   8.728  0.3842  0.9348  0.3893
  750MOL0     C 1134   7.359   0.266   8.714 -0.0577 -0.2045 -0.1706
  750MOL0     C 1135   7.267   0.286   8.829  0.1467 -0.8711  0.4746
  750MOL0     C 1136   7.262   0.428   8.897  0.2939  0.3787  0.3626
  750MOL0     C 1137   7.214   0.524   8.784  0.5892 -1.2200  0.3642
  750MOL0     C 1138   7.204   0.663   8.837  0.0885  0.4219 -0.7404
  750MOL0     O 1139   7.117   0.670   8.950 -0.4238 -0.7783  0.2860
  750MOL0     C 1140   6.987   0.681   8.917 -0.9014 -0.0417  0.1611
  750MOL0     C 1141   6.931   0.795   8.867 -0.0846 -0.2935 -0.2938
  750MOL0     C 1142   6.796   0.805   8.834  0.0077 -0.5471 -0.9918
  750MOL0     C 1143   6.749   0.929   8.756  0.9034 -0.5860 -0.4546
  750MOL0     C 1144   6.712   0.690   8.858  0.3043  0.4549 -0.3336
  750MOL0     C 1145   6.566   0.669   8.818  0.4902 -0.0149 -0.8493
  750MOL0     O 1146   6.518   0.540   8.828  0.7599  0.2301  0.0730
  750MOL0     C 1147   6.385   0.510   8.843 -0.3771  0.7715  0.0431
  750MOL0     C 1148   6.334   0.413   8.764  0.3180 -0.7273  0.3017
  750MOL0     C 1149   6.212   0.351   8.800  0.0152  0.1093  0.2847
  750MOL0     C 1150   6.144   0.398   8.918  0.7764 -0.0026 -0.2713
  750MOL0     O 1151   6.023   0.335   8.954 -0.0032  0.2014 -0.1804
  750MOL0     C 1152   5.967   0.374   9.079  0.0194  0.7784  0.1599
  750MOL0     C 1153   5.827   0.294   9.108 -0.5938  0.1804 -0.1222
  750MOL0     C 1154   5.739   0.281   8.980  0.2239  0.6092  0.2143
  750MOL0     C 1155   5.600   0.248   9.005  0.2270 -0.3684 -0.3756
  750MOL0     C 1156   5.504   0.255   8.886 -0.5903 -0.7391  0.7210
  750MOL0     C 1157   5.378   0.182   8.921  0.2955  0.2067  0.4828
  750MOL0     C 1158   5.291   0.271   9.018  0.3065 -0.7385  0.4026
  750MOL0     C 1159   5.167   0.203   9.061  0.3764 -0.5068  0.5160
  750MOL0    Cl 1160   5.030   0.300   9.022 -0.2673  0.0473 -0.2283
  750MOL0     C 1161   6.196   0.511   8.988  0.0683  0.0941 -0.0004
  750MOL0     C 1162   6.311   0.572   8.942  0.0630 -0.4357  0.2204
  750MOL0     O 1163   6.497   0.772   8.812  0.9449  0.0344 -0.6685
  750MOL0     C 1164   6.771   0.574   8.921 -0.0782  0.3135 -0.2015
  750MOL0     C 1165   6.911   0.573   8.946  0.3251  0.5293  0.5328
  750MOL0     N 1166   7.317   0.256   8.583 -0.3040 -0.4233  0.0215
  750MOL0     N 1167   7.422   0.237   8.513  0.5600  0.0931  0.3023
  750MOL0     C 1168   8.452   0.750   9.120  0.4177  0.5225 -0.7741
  750MOL0     C 1169   8.557   0.836   9.105 -0.2672 -0.3098 -0.5828
  750MOL0     C 1170   8.883   1.104   8.931 -0.5863 -0.2299 -0.0965
  750MOL0     C 1171   8.870   1.239   8.900 -0.3695 -0.0318 -0.9442
  750MOL0     C 1172   8.974   1.300   8.828  0.5027 -0.7785  0.2892
  750MOL0     C 1173   9.101   1.250   8.802  0.4952 -0.0486  0.6608
  750MOL0     O 1174   9.212   1.312   8.752 -1.0243 -0.6927  0.4343
  750MOL0     C 1175   9.219   1.441   8.683 -0.0953  0.0919 -0.9965
  750MOL0     C 1176   9.370   1.466   8.646  0.2591  0.2281  0.8084
  750MOL0     C 1177   9.474   1.425   8.748 -0.7452 -1.2497 -0.1998
  750MOL0     C 1178   9.622   1.478   8.711 -0.3573 -0.2002  0.4994
  750MOL0     C 1179   9.710   1.507   8.837  0.4327 -0.7081  0.8742
  750MOL0     C 1180   9.773   1.528   8.933  0.4769 -0.1317 -0.0192
  750MOL0     C 1181   9.112   1.115   8.852 -0.3071 -0.5511  0.4089
  750MOL0     C 1182   9.010   1.037   8.907 -0.1528  0.3396 -0.5992
  750MOL0     H 1183   8.684   0.716   8.829  3.5698  2.3313  2.3171
  750MOL0     H 1184   8.455   0.596   8.833 -2.0706  1.3054  0.0087
  750MOL0     H 1185   8.222   0.542   8.852 -0.4629 -1.2237 -0.7329
  750MOL0     H 1186   8.326   0.423   8.940  0.5239  2.0293 -0.3254
  750MOL0     H 1187   8.136   0.379   9.104 -2.3783  1.7731  1.7665
  750MOL0     H 1188   8.037   0.504   9.036 -2.7965 -3.1221 -2.0263
  750MOL0     H 1189   8.123   0.263   8.872  2.0843  0.7371  1.9811
  750MOL0     H 1190   7.998   0.265   8.980  2.6286 -2.6762  1.0069
  750MOL0     H 1191   7.893   0.467   8.847 -1.4151  0.6470 -2.3119
  750MOL0     H 1192   8.033   0.470   8.744 -2.3900  0.7870 -2.2210
  750MOL0     H 1193   7.995   0.245   8.665 -0.4810 -1.4012 -0.8799
  750MOL0     H 1194   7.862   0.230   8.778 -0.9895 -0.3940 -1.9338
  750MOL0     H 1195   7.729   0.395   8.692  0.8104  0.8661  2.1227
  750MOL0     H 1196   7.860   0.446   8.581  0.1649  0.7919  1.2747
  750MOL0     H 1197   7.714   0.330   8.434  0.8672 -1.7017 -3.2471
  750MOL0     H 1198   7.851   0.223   8.473  0.7602  1.6043  0.0455
  750MOL0     H 1199   7.700   0.104   8.635 -0.2206  0.5298 -0.6973
  750MOL0     H 1200   7.645   0.095   8.471  2.4406 -1.6111  0.0533
  750MOL0     H 1201   7.537   0.257   8.824 -1.2956  1.8855  1.2017
  750MOL0     H 1202   7.169   0.246   8.801  1.0078 -1.0460 -2.5384
  750MOL0     H 1203   7.312   0.231   8.912  2.4878  0.9421  0.5049
  750MOL0     H 1204   7.364   0.458   8.922  0.7133 -1.9649  1.7675
  750MOL0     H 1205   7.198   0.436   8.986  0.8024  1.0479  0.6799
  750MOL0     H 1206   7.116   0.499   8.741  0.7611 -2.2502  0.5563
  750MOL0     H 1207   7.286   0.518   8.702 -0.5214 -0.8119 -0.6753
  750MOL0     H 1208   7.174   0.726   8.752  3.7359  4.0094  0.3199
  750MOL0     H 1209   7.298   0.710   8.866 -0.5264  1.2912 -0.1282
  750MOL0     H 1210   7.007   0.869   8.844  1.7491 -2.8131 -3.0595
  750MOL0     H 1211   6.836   0.978   8.711  1.1049 -0.8326 -0.3337
  750MOL0     H 1212   6.680   0.906   8.674  1.5822  0.2288 -1.2861
  750MOL0     H 1213   6.703   1.003   8.822  1.2377 -2.0371  1.4778
  750MOL0     H 1214   6.393   0.370   8.684 -0.9364 -0.3087 -0.8943
  750MOL0     H 1215   6.175   0.266   8.742  2.7631 -0.6964 -0.4125
  750MOL0     H 1216   6.042   0.359   9.157 -0.1371 -2.0735 -0.1478
  750MOL0     H 1217   5.938   0.480   9.076  1.0039  1.0495  0.0636
  750MOL0     H 1218   5.865   0.201   9.151 -1.8399  0.4556  1.6986
  750MOL0     H 1219   5.763   0.334   9.187 -0.1126 -1.6995  1.2907
  750MOL0     H 1220   5.775   0.200   8.916 -0.3815 -1.2963  2.1483
  750MOL0     H 1221   5.753   0.380   8.935  2.2486  0.5255  0.5616
  750MOL0     H 1222   5.608   0.151   9.055  0.3511  0.6212  1.6143
  750MOL0     H 1223   5.569   0.321   9.080 -0.9462  1.0210 -2.1419
  750MOL0     H 1224   5.552   0.226   8.792  3.0709  2.8045  1.2073
  750MOL0     H 1225   5.471   0.358   8.868 -2.8001 -1.8550 -2.4974
  750MOL0     H 1226   5.318   0.166   8.831 -0.6368 -0.6048  1.2233
  750MOL0     H 1227   5.397   0.080   8.954  0.9694 -0.9753 -3.1378
  750MOL0     H 1228   5.267   0.365   8.968  0.8065 -0.5112  0.5807
  750MOL0     H 1229   5.354   0.302   9.102  4.0837  3.8414 -3.5326
  750MOL0     H 1230   5.181   0.180   9.167 -0.3412  1.3942  1.0560
  750MOL0     H 1231   5.149   0.112   9.002  0.9788  0.3546 -1.0508
  750MOL0     H 1232   6.150   0.565   9.070  0.2631  0.0442  0.1400
  750MOL0     H 1233   6.362   0.646   9.004  2.2048 -0.7068 -1.1147
  750MOL0     H 1234   6.713   0.492   8.965  0.5316  0.5836  1.1634
  750MOL0     H 1235   6.961   0.487   8.991 -0.6187  1.6780  4.1142
  750MOL0     H 1236   8.399   0.766   9.214  0.9277 -2.3403  0.0890
  750MOL0     H 1237   8.572   0.900   9.192 -1.9132 -2.3729  1.3811
  750MOL0     H 1238   8.781   1.301   8.902  0.7108  1.5781 -0.0967
  750MOL0     H 1239   8.962   1.406   8.806  2.2079  0.0687  2.8939
  750MOL0     H 1240   9.166   1.432   8.588 -1.4756 -5.3893 -0.0183
  750MOL0     H 1241   9.170   1.521   8.739 -1.7379  0.1141 -2.3917
  750MOL0     H 1242   9.387   1.566   8.604 -0.3349  0.1593  0.3882
  750MOL0     H 1243   9.382   1.384   8.575  1.1393 -0.8112  2.1170
  750MOL0     H 1244   9.480   1.316   8.753 -0.3084 -1.3001 -1.3865
  750MOL0     H 1245   9.440   1.454   8.848 -2.4771  1.6268 -1.4752
  750MOL0     H 1246   9.623   1.567   8.648 -1.0767  0.5510  1.5066
  750MOL0     H 1247   9.671   1.401   8.651 -0.6114  0.2645 -0.3098
  750MOL0     H 1248   9.844   1.553   9.009 -0.1073  1.3314  0.0906
  750MOL0     H 1249   9.214   1.077   8.854  0.4178  1.2296  2.4318
  750MOL0     H 1250   9.034   0.933   8.923  1.6461  0.9761  1.2281
  751MOL0     O 1251   8.031   3.157   6.900  0.3648  0.5263  0.6853
  751MOL0     C 1252   8.129   3.126   6.970  0.2317  0.3816  0.3502
  751MOL0     O 1253   8.130   3.126   7.106  0.6093  0.7866  0.5442
  751MOL0     C 1254   8.004   3.122   7.162  0.0580 -0.3999 -0.2408
  751MOL0     C 1255   7.949   3.246   7.225 -0.4519  0.4328  0.8172
  751MOL0     C 1256   7.834   3.239   7.306  0.5662 -0.1190 -0.0797
  751MOL0     C 1257   7.773   3.110   7.328 -0.0253 -0.3020  0.5400
  751MOL0     O 1258   7.667   3.097   7.413 -0.4490 -0.3182 -0.2865
  751MOL0     C 1259   7.595   3.213   7.455  1.0969  0.2238  0.0912
  751MOL0     C 1260   7.491   3.168   7.564 -0.1686  0.1300 -0.1487
  751MOL0     C 1261   7.438   3.285   7.660  0.0252 -0.1214  0.2007
  751MOL0     C 1262   7.316   3.246   7.733  0.0719 -0.0973  0.4988
  751MOL0     C 1263   7.264   3.358   7.824  0.5021 -0.7756  0.6289
  751MOL0     C 1264   7.363   3.449   7.899  0.6268 -0.0909 -0.1747
  751MOL0     C 1265   7.274   3.562   7.968  0.5120  0.1098  0.7188
  751MOL0     C 1266   7.184   3.507   8.085 -0.1205 -0.2569 -0.4809
  751MOL0     N 1267   7.046   3.471   8.047 -0.6628 -0.1033  0.3624
  751MOL0     C 1268   6.960   3.547   7.968 -0.2313 -0.1911 -0.1511
  751MOL0     C 1269   6.840   3.483   7.978 -0.4387  0.3694 -1.0605
  751MOL0     C 1270   6.704   3.514   7.926  0.6486  0.5990  0.0501
  751MOL0     C 1271   6.667   3.419   7.812 -0.2840 -0.3249 -0.3511
  751MOL0     C 1272   6.600   3.499   7.697 -0.3801 -0.1088 -0.3727
  751MOL0     C 1273   6.509   3.404   7.613 -0.3262 -0.8719  0.6373
  751MOL0     O 1274   6.465   3.483   7.493  0.1626  0.3940  0.4415
  751MOL0     C 1275   6.384   3.430   7.397 -0.3810 -1.0159  0.8353
  751MOL0     C 1276   6.384   3.296   7.360  0.3990  0.5314 -0.3066
  751MOL0     C 1277   6.291   3.246   7.271  0.4985 -0.4812  0.3644
  751MOL0     C 1278   6.304   3.096   7.257  0.5763 -0.4788  0.3419
  751MOL0     C 1279   6.199   3.330   7.208  0.1345  0.1335  0.2993
  751MOL0     C 1280   6.104   3.284   7.110 -0.0054 -0.4389 -0.2069
  751MOL0     O 1281   6.098   3.372   7.009 -0.0576 -0.6142  0.6476
  751MOL0     C 1282   6.011   3.337   6.913  0.6621  0.6710  0.4452
  751MOL0     C 1283   5.868   3.369   6.931  0.1698 -0.4280 -0.0684
  751MOL0     C 1284   5.769   3.346   6.842 -0.5049  0.6342  0.0677
  751MOL0     C 1285   5.810   3.274   6.727  0.5196 -0.4610 -0.0330
  751MOL0     O 1286   5.717   3.251   6.627 -1.1291 -0.6859  0.1623
  751MOL0     C 1287   5.595   3.191   6.662 -0.2787 -0.3939 -0.0472
  751MOL0     C 1288   5.525   3.142   6.532 -0.1296 -0.2913 -0.0045
  751MOL0     C 1289   5.626   3.059   6.447  0.2870  0.4151  0.0064
  751MOL0     C 1290   5.545   2.991   6.332 -0.4689 -0.4329  0.0252
  751MOL0     C 1291   5.528   2.845   6.342 -0.0400 -0.2254  0.3061
  751MOL0     C 1292   5.402   2.796   6.265 -0.5566  0.4678 -0.2688
  751MOL0     C 1293   5.404   2.821   6.115 -0.1269  0.8899 -0.0091
  751MOL0     C 1294   5.281   2.775   6.037  0.4137 -1.0124 -0.0821
  751MOL0    Cl 1295   5.342   2.768   5.866 -0.0679  0.1899 -0.5200
  751MOL0     C 1296   5.946   3.242   6.702 -0.3209  0.3052  0.3557
  751MOL0     C 1297   6.049   3.271   6.796  1.5476  0.2897 -0.5155
  751MOL0     O 1298   6.031   3.192   7.127  0.7700  0.2574  1.0795
  751MOL0     C 1299   6.209   3.466   7.230  0.5880 -0.0414  0.3489
  751MOL0     C 1300   6.303   3.516   7.319 -0.2250 -0.2932  0.6233
  751MOL0     N 1301   6.859   3.362   8.037  0.6226  0.5323 -0.3054
  751MOL0     N 1302   6.978   3.359   8.082 -0.1115  0.5451  0.7331
  751MOL0     C 1303   7.821   2.999   7.254 -0.4534  0.1949  0.8059
  751MOL0     C 1304   7.939   3.003   7.170  0.5674  0.6840 -0.1741
  751MOL0     C 1305   8.249   3.086   6.887  0.1795 -0.2424 -0.0107
  751MOL0     C 1306   8.252   3.128   6.749  0.6462  0.0296  0.1961
  751MOL0     C 1307   8.355   3.081   6.671  0.9101 -0.9357 -0.1761
  751MOL0     C 1308   8.450   2.983   6.716  0.3327  0.2970  0.0243
  751MOL0     O 1309   8.543   2.937   6.616  0.4467  0.0185  0.0718
  751MOL0     C 1310   8.622   2.810   6.638  0.4206 -0.0765  0.6279
  751MOL0     C 1311   8.580   2.694   6.551 -0.7643  0.5491  0.5583
  751MOL0     C 1312   8.467   2.620   6.618 -0.2551 -0.3766 -0.6391
  751MOL0     C 1313   8.519   2.518   6.723 -0.3565 -0.5089  0.4481
  751MOL0     C 1314   8.415   2.421   6.748  0.0793 -0.3913 -0.5379
  751MOL0     C 1315   8.320   2.343   6.742 -0.1436  0.0951  0.6114
  751MOL0     C 1316   8.455   2.953   6.848 -0.9164  0.2098 -0.7946
  751MOL0     C 1317   8.356   3.005   6.938  0.2234  0.2325  0.9918
  751MOL0     H 1318   8.011   3.335   7.219  1.2123 -0.6834  0.8269
  751MOL0     H 1319   7.793   3.326   7.356 -0.0659  0.9451 -2.2946
  751MOL0     H 1320   7.653   3.300   7.488 -0.3670  1.8933 -1.4740
  751MOL0     H 1321   7.533   3.253   7.374 -0.9021 -3.7820 -0.6182
  751MOL0     H 1322   7.420   3.117   7.499  0.0918  0.4203 -0.6666
  751MOL0     H 1323   7.533   3.093   7.631  1.3325  0.3106 -0.8465
  751MOL0     H 1324   7.514   3.316   7.732  0.7543  1.4341 -1.1554
  751MOL0     H 1325   7.409   3.371   7.599 -2.3762 -0.6337  0.5325
  751MOL0     H 1326   7.235   3.214   7.665  1.0895  0.4722 -1.0403
  751MOL0     H 1327   7.344   3.166   7.802 -0.7043 -0.8285 -0.0076
  751MOL0     H 1328   7.216   3.434   7.762  2.2826 -1.0831 -1.2370
  751MOL0     H 1329   7.198   3.316   7.901 -0.1478 -0.5164  0.2243
  751MOL0     H 1330   7.398   3.383   7.979 -1.8786 -0.1865  0.9244
  751MOL0     H 1331   7.439   3.495   7.835 -1.8388  2.1177 -1.7630
  751MOL0     H 1332   7.337   3.647   7.994  0.9668  0.2729 -0.7878
  751MOL0     H 1333   7.212   3.604   7.888  1.2296  0.0653  0.1264
  751MOL0     H 1334   7.180   3.582   8.165  4.1301  0.6392 -0.8722
  751MOL0     H 1335   7.229   3.419   8.131 -1.1863 -1.2651 -1.3247
  751MOL0     H 1336   6.978   3.638   7.912 -1.9557  0.5188  0.3705
  751MOL0     H 1337   6.639   3.481   8.008 -0.7250  0.6908 -0.9619
  751MOL0     H 1338   6.697   3.616   7.888  2.2868  1.1650  1.1716
  751MOL0     H 1339   6.605   3.337   7.849 -1.4163 -0.4941 -2.4212
  751MOL0     H 1340   6.756   3.368   7.773 -0.3285 -0.5104 -0.2065
  751MOL0     H 1341   6.684   3.549   7.649  0.6019 -0.5958  0.7938
  751MOL0     H 1342   6.538   3.576   7.743 -0.0245 -1.1871  2.0811
  751MOL0     H 1343   6.425   3.355   7.665 -0.8527 -0.9172 -0.2393
  751MOL0     H 1344   6.567   3.320   7.573  1.3716  0.0634  1.0432
  751MOL0     H 1345   6.446   3.225   7.413 -1.2032  0.2243  1.2844
  751MOL0     H 1346   6.209   3.057   7.295 -1.2456 -0.3710 -3.5309
  751MOL0     H 1347   6.312   3.066   7.152  0.7950  1.8029 -0.3429
  751MOL0     H 1348   6.379   3.046   7.318 -0.4666 -0.6243  1.5391
  751MOL0     H 1349   5.846   3.425   7.022 -0.4767 -2.2544  0.9523
  751MOL0     H 1350   5.666   3.380   6.848 -0.4274  1.0330 -0.7733
  751MOL0     H 1351   5.622   3.112   6.732 -2.2863 -1.2390 -0.1608
  751MOL0     H 1352   5.524   3.265   6.700 -2.8242 -2.1895 -1.0422
  751MOL0     H 1353   5.440   3.080   6.565 -1.9263  0.4512 -2.8945
  751MOL0     H 1354   5.496   3.226   6.469  1.3883  1.2799  1.2977
  751MOL0     H 1355   5.687   2.991   6.507  0.4410  0.5534  0.0071
  751MOL0     H 1356   5.703   3.123   6.404 -0.0114  1.3093  0.7801
  751MOL0     H 1357   5.442   3.027   6.323 -0.9339 -0.9949  2.4561
  751MOL0     H 1358   5.584   3.011   6.232 -2.9400 -0.2561 -0.9666
  751MOL0     H 1359   5.503   2.811   6.443 -1.5877  1.8064  0.6683
  751MOL0     H 1360   5.620   2.789   6.324 -0.2167 -1.2941  2.3845
  751MOL0     H 1361   5.393   2.688   6.282  0.0466  0.2490 -1.2682
  751MOL0     H 1362   5.315   2.838   6.317 -1.8466 -0.4343 -1.5967
  751MOL0     H 1363   5.480   2.769   6.057 -4.1261 -2.8398 -2.5571
  751MOL0     H 1364   5.433   2.926   6.109  0.7604  0.7061  0.9106
  751MOL0     H 1365   5.202   2.851   6.039  2.4951  1.4458 -2.9014
  751MOL0     H 1366   5.249   2.678   6.076 -0.9076 -0.8919 -0.7925
  751MOL0     H 1367   5.983   3.189   6.615 -2.9274 -1.4554  0.2115
  751MOL0     H 1368   6.151   3.233   6.800  2.0213  1.5337 -0.3388
  751MOL0     H 1369   6.150   3.544   7.184  2.3065  2.1432  1.6479
  751MOL0     H 1370   6.331   3.621   7.323 -0.6888 -0.0733 -1.2175
  751MOL0     H 1371   7.773   2.902   7.267 -2.5199  0.6178 -2.6169
  751MOL0     H 1372   7.976   2.916   7.118 -1.1181  0.1864 -0.5972
  751MOL0     H 1373   8.169   3.190   6.716 -0.4144  0.2062  2.9563
  751MOL0     H 1374   8.391   3.128   6.581  2.5150  4.0907  2.6715
  751MOL0     H 1375   8.717   2.854   6.604  1.2076 -2.2891 -0.1963
  751MOL0     H 1376   8.622   2.773   6.740 -0.2906  1.3898  1.1913
  751MOL0     H 1377   8.663   2.627   6.530 -2.0180 -1.1978  0.8805
  751MOL0     H 1378   8.536   2.716   6.453  1.2752 -1.7970 -1.0009
  751MOL0     H 1379   8.404   2.577   6.539 -0.4400 -1.6286  0.1527
  751MOL0     H 1380   8.403   2.692   6.669 -0.6951 -1.5462  0.5078
  751MOL0     H 1381   8.537   2.560   6.822 -1.0312  0.0718  0.3257
  751MOL0     H 1382   8.610   2.476   6.679 -0.1007  0.9607 -0.4827
  751MOL0     H 1383   8.239   2.272   6.745 -1.1204  1.1421 -0.0753
  751MOL0     H 1384   8.529   2.882   6.883 -0.4670 -0.8303 -3.6182
  751MOL0     H 1385   8.354   2.981   7.044 -0.1015  0.7240  1.1017
  752MOL0     O 1386   4.700  10.242   3.199  0.3385  0.1162  0.4817
  752MOL0     C 1387   4.667  10.291   3.308 -0.4905  0.8865  0.4894
  752MOL0     O 1388   4.551  10.362   3.327 -0.2752 -0.0720 -0.4254
  752MOL0     C 1389   4.470  10.393   3.222  0.2642  0.0802 -0.1440
  752MOL0     C 1390   4.526  10.449   3.103  0.7495 -0.8210 -0.7374
  752MOL0     C 1391   4.440  10.487   2.990  0.9710 -0.9262 -0.1226
  752MOL0     C 1392   4.303  10.463   3.001 -0.4258 -0.0119  1.0225
  752MOL0     O 1393   4.217  10.508   2.902  0.0919  0.2147 -0.2174
  752MOL0     C 1394   4.110  10.426   2.857  0.3446  0.2716  0.3192
  752MOL0     C 1395   4.076  10.483   2.711 -0.6977  0.9314  0.1187
  752MOL0     C 1396   3.973  10.592   2.705 -0.1870  0.4075 -0.5976
  752MOL0     C 1397   3.970  10.656   2.572 -0.0888  0.6227  0.1545
  752MOL0     C 1398   3.835  10.711   2.537  0.0517 -1.4829 -0.4708
  752MOL0     C 1399   3.835  10.784   2.406 -0.5741 -0.5734  0.1196
  752MOL0     C 1400   3.697  10.805   2.353  0.5411 -0.4299  0.4004
  752MOL0     C 1401   3.603  10.903   2.428 -0.3011 -0.2645  0.0600
  752MOL0     N 1402   3.490  10.947   2.351 -0.4021 -0.2463  0.3111
  752MOL0     C 1403   3.474  11.061   2.281  1.1420 -0.4255  1.2231
  752MOL0     C 1404   3.352  11.058   2.223  0.4690  0.0861 -0.6957
  752MOL0     C 1405   3.284  11.165   2.153 -0.7808 -0.7671 -1.0749
  752MOL0     C 1406   3.332  11.149   2.009  0.0359 -0.4130 -0.3007
  752MOL0     C 1407   3.253  11.247   1.917 -0.1201 -0.3029 -0.1331
  752MOL0     C 1408   3.098  11.222   1.909 -0.9149 -0.0729  0.5951
  752MOL0     O 1409   3.046  11.299   1.800  0.7801 -0.0321  0.0439
  752MOL0     C 1410   2.920  11.267   1.756 -0.2359  0.1735 -0.5705
  752MOL0     C 1411   2.875  11.342   1.645 -0.2381  0.2489  0.0124
  752MOL0     C 1412   2.741  11.321   1.604 -1.1236 -0.3232  0.4435
  752MOL0     C 1413   2.698  11.425   1.502 -1.3889  0.1289 -0.4316
  752MOL0     C 1414   2.648  11.233   1.667 -0.6856  0.5563 -1.2398
  752MOL0     C 1415   2.505  11.213   1.637 -0.6800 -0.4892  1.5132
  752MOL0     O 1416   2.466  11.242   1.505  0.4269 -0.2024 -0.7878
  752MOL0     C 1417   2.330  11.242   1.497  0.6300  0.2096 -0.3258
  752MOL0     C 1418   2.265  11.354   1.543  0.3471 -0.3564 -0.2183
  752MOL0     C 1419   2.124  11.365   1.534  0.2749  0.4902 -0.7998
  752MOL0     C 1420   2.049  11.254   1.486 -0.0810 -1.1892 -0.3109
  752MOL0     O 1421   1.916  11.244   1.478  0.2703  0.5425 -0.4545
  752MOL0     C 1422   1.838  11.341   1.543 -0.1092 -0.6491  0.6376
  752MOL0     C 1423   1.811  11.460   1.447  0.4836 -0.0263 -0.0475
  752MOL0     C 1424   1.737  11.565   1.534  0.0359  0.1121  0.0615
  752MOL0     C 1425   1.703  11.687   1.443  0.5796  0.5239  0.1174
  752MOL0     C 1426   1.561  11.669   1.382 -0.4825 -0.4062  0.3374
  752MOL0     C 1427   1.450  11.705   1.475 -0.0280 -0.3038 -0.2886
  752MOL0     C 1428   1.309  11.687   1.419  0.8504  0.2006  0.0964
  752MOL0     C 1429   1.263  11.814   1.323 -0.5186 -0.2648 -0.2805
  752MOL0    Cl 1430   1.319  11.803   1.160  0.4348  0.0362 -0.3446
  752MOL0     C 1431   2.114  11.143   1.454  0.0081 -0.3003  0.2435
  752MOL0     C 1432   2.252  11.133   1.458 -0.1949 -0.1442  0.6911
  752MOL0     O 1433   2.428  11.188   1.727 -0.4215 -0.6755 -0.3357
  752MOL0     C 1434   2.710  11.153   1.773 -0.8165 -0.1193  0.3011
  752MOL0     C 1435   2.837  11.170   1.818 -0.2115  0.5380 -0.8657
  752MOL0     N 1436   3.300  10.929   2.265  0.2652 -0.0363  0.0281
  752MOL0     N 1437   3.380  10.866   2.334  0.1921  0.4083  0.2480
  752MOL0     C 1438   4.253  10.391   3.106 -0.0601  0.6362 -0.2948
  752MOL0     C 1439   4.332  10.360   3.220  0.9440  0.3854 -1.5804
  752MOL0     C 1440   4.756  10.258   3.417  0.4702 -0.0357 -0.0740
  752MOL0     C 1441   4.898  10.234   3.400 -0.3548  0.6565 -0.6226
  752MOL0     C 1442   4.969  10.187   3.505  0.4129  0.0779 -0.5406
  752MOL0     C 1443   4.916  10.166   3.632  0.3893 -0.7055 -0.2961
  752MOL0     O 1444   4.992  10.118   3.736  0.2979 -0.2565  0.6182
  752MOL0     C 1445   5.108  10.186   3.770  0.1485  0.3232 -0.8090
  752MOL0     C 1446   5.193  10.086   3.845 -0.1656  0.0243 -0.4593
  752MOL0     C 1447   5.310  10.160   3.918  0.0270 -0.4419 -0.5631
  752MOL0     C 1448   5.272  10.220   4.060 -0.3603 -0.0456 -0.7104
  752MOL0     C 1449   5.390  10.291   4.113 -0.7061 -0.6657  0.3204
  752MOL0     C 1450   5.482  10.357   4.169 -0.0695  0.6941  0.9039
  752MOL0     C 1451   4.782  10.177   3.642  0.6774 -0.3254  0.1351
  752MOL0     C 1452   4.702  10.231   3.541 -0.1457  0.3338  0.4461
  752MOL0     H 1453   4.631  10.477   3.111  0.2795  0.7855  0.2741
  752MOL0     H 1454   4.482  10.550   2.912  0.9365  2.9008  2.6487
  752MOL0     H 1455   4.149  10.323   2.856  3.3490  1.3003  0.6519
  752MOL0     H 1456   4.026  10.419   2.926  0.7273 -1.0627  0.6839
  752MOL0     H 1457   4.172  10.508   2.664  0.5157 -2.2269  0.6609
  752MOL0     H 1458   4.038  10.404   2.645  0.5721 -0.8507  1.3977
  752MOL0     H 1459   3.878  10.538   2.717  1.2760 -1.9004  1.9656
  752MOL0     H 1460   3.980  10.659   2.791 -0.3183  0.6778 -0.7945
  752MOL0     H 1461   4.049  10.732   2.568 -1.2486  1.8681  0.0591
  752MOL0     H 1462   3.994  10.580   2.496  0.8153  1.7881 -0.7838
  752MOL0     H 1463   3.760  10.633   2.526 -0.9359 -1.4036  3.8814
  752MOL0     H 1464   3.804  10.775   2.620  2.3364 -0.4180 -0.3546
  752MOL0     H 1465   3.888  10.880   2.412 -1.1605 -0.2889  0.9925
  752MOL0     H 1466   3.882  10.721   2.330 -0.3141 -1.9594  1.3761
  752MOL0     H 1467   3.701  10.839   2.249 -1.2333  0.0261  0.4560
  752MOL0     H 1468   3.637  10.714   2.349  0.7964 -0.5855 -3.5496
  752MOL0     H 1469   3.665  10.989   2.457  1.7714 -1.2405 -1.2091
  752MOL0     H 1470   3.570  10.853   2.520  1.1368 -0.6094  0.4137
  752MOL0     H 1471   3.543  11.145   2.273  0.2332  0.2058 -0.6821
  752MOL0     H 1472   3.174  11.163   2.153 -0.8129 -2.3990  0.7957
  752MOL0     H 1473   3.338  11.253   2.188  0.3556 -1.8943  0.1669
  752MOL0     H 1474   3.315  11.047   1.973 -1.0283 -1.1367  2.0353
  752MOL0     H 1475   3.439  11.170   2.008 -0.2076  0.9083 -0.6127
  752MOL0     H 1476   3.301  11.262   1.819 -0.7631  1.7741 -0.1757
  752MOL0     H 1477   3.259  11.352   1.946  0.0940  0.9898 -4.1430
  752MOL0     H 1478   3.050  11.260   2.000 -1.4188 -1.4279  0.9290
  752MOL0     H 1479   3.087  11.113   1.905  1.6309 -0.3415 -0.8846
  752MOL0     H 1480   2.930  11.426   1.606  1.9400 -0.1439  2.0131
  752MOL0     H 1481   2.631  11.495   1.551 -0.6200  1.0257 -0.6228
  752MOL0     H 1482   2.784  11.479   1.459 -0.0097  0.8406  2.9032
  752MOL0     H 1483   2.651  11.380   1.414  1.1470 -1.1158 -1.2575
  752MOL0     H 1484   2.321  11.442   1.573 -0.2235 -0.3855  0.9549
  752MOL0     H 1485   2.073  11.458   1.559 -0.1169  0.2425 -0.6643
  752MOL0     H 1486   1.739  11.298   1.558 -2.6231  3.7065 -1.3034
  752MOL0     H 1487   1.889  11.370   1.635  3.5496  1.1604 -1.7164
  752MOL0     H 1488   1.903  11.512   1.418  1.6900 -2.1439 -0.1895
  752MOL0     H 1489   1.748  11.431   1.363 -1.5230  0.4076  1.2432
  752MOL0     H 1490   1.779  11.597   1.630 -0.9535 -2.1391  1.3208
  752MOL0     H 1491   1.647  11.509   1.561  1.2132 -1.4927  0.8188
  752MOL0     H 1492   1.699  11.779   1.502  3.4538  0.3263  0.7582
  752MOL0     H 1493   1.779  11.707   1.367 -0.1655  1.4939 -0.3981
  752MOL0     H 1494   1.551  11.567   1.343  2.3464 -1.0986  1.2462
  752MOL0     H 1495   1.551  11.750   1.309 -0.4139  1.1781  2.0121
  752MOL0     H 1496   1.459  11.648   1.568 -1.7370 -0.5213 -0.2119
  752MOL0     H 1497   1.456  11.811   1.500 -3.1775  0.5163 -2.4030
  752MOL0     H 1498   1.246  11.683   1.509  0.8595 -1.2673  0.0469
  752MOL0     H 1499   1.304  11.600   1.354  3.4520  1.2540 -1.6941
  752MOL0     H 1500   1.293  11.907   1.373 -1.9746  1.1717 -1.9763
  752MOL0     H 1501   1.153  11.818   1.325 -0.5539 -0.1577  2.8183
  752MOL0     H 1502   2.052  11.059   1.425 -0.8693  1.4132 -3.3773
  752MOL0     H 1503   2.293  11.033   1.445 -0.9474 -0.5162  1.1329
  752MOL0     H 1504   2.638  11.083   1.813 -2.0896  0.2590 -1.2114
  752MOL0     H 1505   2.869  11.101   1.895  3.6262  2.4770 -0.4890
  752MOL0     H 1506   4.152  10.350   3.103  0.4355 -0.6448  0.0348
  752MOL0     H 1507   4.288  10.300   3.299  0.5358 -1.6718 -3.2690
  752MOL0     H 1508   4.946  10.248   3.304  3.2857  0.8800  1.0809
  752MOL0     H 1509   5.074  10.167   3.489  0.2857 -2.0506  0.8647
  752MOL0     H 1510   5.156  10.216   3.677  0.6925 -4.4727 -2.3645
  752MOL0     H 1511   5.087  10.271   3.836  2.4287  0.8070 -0.6261
  752MOL0     H 1512   5.221  10.022   3.761  1.8439  0.6239 -0.2965
  752MOL0     H 1513   5.128  10.030   3.913  1.2308 -2.3354 -0.9558
  752MOL0     H 1514   5.343  10.241   3.852 -0.6798  0.7591  0.5304
  752MOL0     H 1515   5.389  10.085   3.922  0.4202  0.0283  0.8001
  752MOL0     H 1516   5.230  10.144   4.127  0.8112  0.5567  0.7541
  752MOL0     H 1517   5.195  10.297   4.043  1.5134  2.2357  0.5444
  752MOL0     H 1518   5.549  10.430   4.208  2.1313 -0.7652  0.0818
  752MOL0     H 1519   4.735  10.155   3.737  3.5343 -2.0215  1.2822
  752MOL0     H 1520   4.594  10.243   3.549  0.0108  2.4202  0.0755
  753MOL0     O 1521   0.053   7.638   2.434 -0.0513  0.8690  0.6430
  753MOL0     C 1522   0.122   7.588   2.524 -0.6577 -1.0670 -0.4569
  753MOL0     O 1523   0.092   7.592   2.663 -0.1005  0.0193 -0.0907
  753MOL0     C 1524  -0.018   7.675   2.691  0.2808 -0.3040 -0.6943
  753MOL0     C 1525   0.006   7.806   2.736 -0.2327  0.3916  0.3794
  753MOL0     C 1526  -0.097   7.881   2.778  0.7503  0.2259  0.0079
  753MOL0     C 1527  -0.230   7.833   2.775  0.1781  0.1846 -0.2219
  753MOL0     O 1528  -0.336   7.909   2.815  0.5422 -0.2398 -0.2794
  753MOL0     C 1529  -0.324   8.053   2.804  0.4163  0.5333  0.4096
  753MOL0     C 1530  -0.420   8.141   2.898  0.3638  0.3217 -0.0452
  753MOL0     C 1531  -0.564   8.113   2.875 -0.4283  0.4675 -0.7005
  753MOL0     C 1532  -0.651   8.226   2.946 -0.7860  0.3093  0.3467
  753MOL0     C 1533  -0.668   8.198   3.098  0.1241 -0.4016 -0.8108
  753MOL0     C 1534  -0.755   8.304   3.175  0.5100  0.0611  0.1672
  753MOL0     C 1535  -0.764   8.289   3.331  0.3189 -0.0745  0.6841
  753MOL0     C 1536  -0.631   8.304   3.403  0.0358 -0.4567 -0.8993
  753MOL0     N 1537  -0.659   8.325   3.546  0.0413 -0.0439 -0.9271
  753MOL0     C 1538  -0.697   8.227   3.633  0.0140  0.3279  0.1160
  753MOL0     C 1539  -0.706   8.300   3.752  0.6119  0.8097  0.0872
  753MOL0     C 1540  -0.736   8.256   3.893  0.3357  0.2192  0.2300
  753MOL0     C 1541  -0.842   8.139   3.901 -0.8169 -0.4549 -1.1797
  753MOL0     C 1542  -0.978   8.168   3.856 -0.2066 -0.3336 -0.0316
  753MOL0     C 1543  -1.080   8.063   3.885 -0.6888  0.3718 -0.2408
  753MOL0     O 1544  -1.092   8.041   4.030  0.6976 -0.0875  0.5248
  753MOL0     C 1545  -1.212   8.090   4.077  0.4617  0.3641  0.5235
  753MOL0     C 1546  -1.311   7.996   4.094 -0.3670 -0.0238 -0.1683
  753MOL0     C 1547  -1.445   8.030   4.121  0.8967 -0.1018 -0.1147
  753MOL0     C 1548  -1.550   7.920   4.147 -0.2073 -0.1340 -0.6260
  753MOL0     C 1549  -1.474   8.173   4.126  0.4930  0.6309  1.2364
  753MOL0     C 1550  -1.607   8.222   4.139 -0.1623  0.6722  0.4317
  753MOL0     O 1551  -1.685   8.214   4.028  0.0345  0.2710  0.6828
  753MOL0     C 1552  -1.807   8.278   4.032  1.3147 -0.0771  0.1883
  753MOL0     C 1553  -1.812   8.422   4.022 -0.9409  0.4785 -0.4920
  753MOL0     C 1554  -1.926   8.505   4.020  0.0587 -0.0490  0.0237
  753MOL0     C 1555  -2.049   8.442   4.028 -0.2087  0.1667  0.9009
  753MOL0     O 1556  -2.153   8.528   4.014  0.2956 -0.0484 -0.2159
  753MOL0     C 1557  -2.283   8.472   3.990  0.3041 -0.3030  0.0281
  753MOL0     C 1558  -2.374   8.592   3.965  0.1784  0.4083  0.0946
  753MOL0     C 1559  -2.507   8.550   3.897 -0.2401  1.2350  0.0031
  753MOL0     C 1560  -2.621   8.532   4.002 -0.3508  0.8166  0.0042
  753MOL0     C 1561  -2.753   8.483   3.938 -0.1004  0.1022 -0.1552
  753MOL0     C 1562  -2.868   8.451   4.046 -0.1701  0.5671 -0.5744
  753MOL0     C 1563  -2.980   8.386   3.973  0.3253  0.9483 -0.3897
  753MOL0     C 1564  -3.083   8.340   4.082 -0.2432 -0.0581 -0.2369
  753MOL0    Cl 1565  -3.006   8.187   4.161  0.4076  0.0935  0.0687
  753MOL0     C 1566  -2.059   8.292   4.035  0.0566 -0.1401  0.0547
  753MOL0     C 1567  -1.935   8.219   4.029  0.7425  0.4480  0.2637
  753MOL0     O 1568  -1.652   8.242   4.246 -0.1090 -0.1411 -0.0552
  753MOL0     C 1569  -1.370   8.265   4.100 -0.6709  0.0108 -0.2221
  753MOL0     C 1570  -1.242   8.226   4.085  0.0812  1.0980  0.1007
  753MOL0     N 1571  -0.673   8.436   3.725  0.3042 -0.1853  0.3125
  753MOL0     N 1572  -0.650   8.445   3.604 -0.6406 -0.2461 -0.0950
  753MOL0     C 1573  -0.256   7.708   2.721  0.1597  0.2275  0.2067
  753MOL0     C 1574  -0.145   7.629   2.674  0.1980  0.0993  0.5045
  753MOL0     C 1575   0.248   7.522   2.487 -0.4323 -0.9278  0.5237
  753MOL0     C 1576   0.259   7.471   2.356 -0.8041  0.4739 -0.6978
  753MOL0     C 1577   0.382   7.415   2.314 -0.3465  0.1357  0.1353
  753MOL0     C 1578   0.487   7.397   2.401 -0.2069  0.0687  0.0317
  753MOL0     O 1579   0.610   7.335   2.386 -0.1382 -0.1790 -0.9335
  753MOL0     C 1580   0.639   7.278   2.260  0.7180 -0.7765 -0.7154
  753MOL0     C 1581   0.596   7.133   2.244  0.3054 -0.1574 -0.5874
  753MOL0     C 1582   0.683   7.052   2.139  0.4315 -0.0221 -0.7630
  753MOL0     C 1583   0.672   6.900   2.148  0.5071  0.0988  0.1573
  753MOL0     C 1584   0.734   6.842   2.266 -0.6373 -0.6053 -0.2850
  753MOL0     C 1585   0.795   6.796   2.357 -1.0077 -0.0581  0.4148
  753MOL0     C 1586   0.472   7.449   2.533 -0.3898  0.5543  0.0105
  753MOL0     C 1587   0.353   7.514   2.579 -1.0898  0.2658 -1.2458
  753MOL0     H 1588   0.097   7.865   2.733 -1.4696  2.3733 -0.7509
  753MOL0     H 1589  -0.066   7.981   2.807 -2.9824  1.9387 -1.2652
  753MOL0     H 1590  -0.226   8.088   2.835  0.5209 -0.6327  1.4429
  753MOL0     H 1591  -0.334   8.083   2.699 -1.5820  0.2381  0.4682
  753MOL0     H 1592  -0.396   8.112   3.001 -1.0808 -1.8386 -0.2534
  753MOL0     H 1593  -0.401   8.248   2.890  1.7708  0.2942  2.1839
  753MOL0     H 1594  -0.593   8.104   2.770 -0.8065  1.4975 -0.7002
  753MOL0     H 1595  -0.587   8.011   2.907  0.9736  0.0869 -0.8466
  753MOL0     H 1596  -0.599   8.322   2.935  2.9647 -1.6530 -0.4620
  753MOL0     H 1597  -0.750   8.236   2.900 -0.4138 -0.3264 -0.6359
  753MOL0     H 1598  -0.718   8.104   3.122 -0.1520  0.2226  1.2831
  753MOL0     H 1599  -0.566   8.204   3.138  1.1320  0.8443 -3.3371
  753MOL0     H 1600  -0.714   8.403   3.154  0.1846  0.9696  3.3540
  753MOL0     H 1601  -0.857   8.305   3.135 -0.0063 -1.1814  1.3833
  753MOL0     H 1602  -0.832   8.363   3.373  0.0845 -0.9578  1.8989
  753MOL0     H 1603  -0.803   8.190   3.359 -0.2433  0.2285  0.9699
  753MOL0     H 1604  -0.584   8.393   3.360 -1.7035  1.2712  0.5621
  753MOL0     H 1605  -0.567   8.220   3.375 -1.4761 -2.1535  0.5393
  753MOL0     H 1606  -0.696   8.119   3.619  3.0176  0.2457  0.1538
  753MOL0     H 1607  -0.636   8.220   3.918  0.4160 -0.9633 -1.5740
  753MOL0     H 1608  -0.761   8.336   3.963 -1.0995 -0.1205  0.1284
  753MOL0     H 1609  -0.845   8.100   4.003  2.8285  1.0025 -0.3648
  753MOL0     H 1610  -0.799   8.059   3.840 -0.7297 -0.3518 -1.2537
  753MOL0     H 1611  -0.977   8.180   3.748 -3.8262 -2.8222 -0.4807
  753MOL0     H 1612  -1.015   8.253   3.916 -2.2423 -0.6231 -0.8011
  753MOL0     H 1613  -1.049   7.968   3.840  0.0035  1.3899 -2.0017
  753MOL0     H 1614  -1.170   8.094   3.830  1.1886 -0.1109 -3.9285
  753MOL0     H 1615  -1.285   7.891   4.100 -2.1537 -0.4715  0.1861
  753MOL0     H 1616  -1.615   7.950   4.230  1.4571 -0.1966  0.7578
  753MOL0     H 1617  -1.612   7.896   4.061 -2.3292  0.6529  0.6044
  753MOL0     H 1618  -1.498   7.826   4.167  1.3236 -0.0762 -3.8412
  753MOL0     H 1619  -1.718   8.478   4.026 -1.0504  0.6020  0.9594
  753MOL0     H 1620  -1.915   8.612   4.028 -1.5690  0.0586  1.5265
  753MOL0     H 1621  -2.286   8.409   3.901 -0.6388  0.7392 -0.7057
  753MOL0     H 1622  -2.322   8.425   4.081 -0.1656  1.5917  0.8609
  753MOL0     H 1623  -2.384   8.646   4.059  0.7129 -1.4550  1.2883
  753MOL0     H 1624  -2.316   8.657   3.899  0.2831  0.7467  0.5144
  753MOL0     H 1625  -2.491   8.451   3.852  0.9586 -0.2638  3.3812
  753MOL0     H 1626  -2.545   8.617   3.820 -0.2582 -1.7112 -2.7791
  753MOL0     H 1627  -2.595   8.468   4.087 -1.2597  2.2223  1.4042
  753MOL0     H 1628  -2.644   8.627   4.052  2.0095  0.5299  1.8284
  753MOL0     H 1629  -2.734   8.391   3.883  0.3963  0.3499 -0.4061
  753MOL0     H 1630  -2.780   8.559   3.864  2.9462  1.3152 -0.1433
  753MOL0     H 1631  -2.830   8.372   4.112  0.0439  0.0566 -1.2973
  753MOL0     H 1632  -2.902   8.537   4.105 -0.4909 -0.6996  1.1719
  753MOL0     H 1633  -2.957   8.302   3.908 -0.5731  0.9169 -0.6818
  753MOL0     H 1634  -3.035   8.458   3.912  0.4271  0.7203 -0.7533
  753MOL0     H 1635  -3.184   8.327   4.042  0.7449 -2.7224 -2.2028
  753MOL0     H 1636  -3.096   8.411   4.164  2.7658  1.7370 -1.1827
  753MOL0     H 1637  -2.157   8.247   4.023 -0.2802  0.8243 -0.9318
  753MOL0     H 1638  -1.943   8.111   4.040  0.7898  0.6208  2.4177
  753MOL0     H 1639  -1.383   8.373   4.099  1.2327  0.3204  1.3728
  753MOL0     H 1640  -1.163   8.300   4.078  0.5613  0.4773 -1.6439
  753MOL0     H 1641  -0.359   7.676   2.710  0.2327  0.1734 -0.3648
  753MOL0     H 1642  -0.166   7.528   2.641  2.3130 -0.5025  0.8645
  753MOL0     H 1643   0.182   7.475   2.279  0.6366 -1.7493 -2.3998
  753MOL0     H 1644   0.395   7.391   2.209  0.7671  4.5660 -0.9579
  753MOL0     H 1645   0.610   7.339   2.174 -0.8201 -2.4196 -1.4473
  753MOL0     H 1646   0.748   7.278   2.258  0.7105 -0.1009 -1.3711
  753MOL0     H 1647   0.495   7.133   2.203  1.3148  0.1429 -3.2760
  753MOL0     H 1648   0.609   7.103   2.349  0.5639  0.6510 -0.3770
  753MOL0     H 1649   0.790   7.073   2.141  0.8101 -1.6816 -1.3083
  753MOL0     H 1650   0.652   7.085   2.039  1.1552  3.3941  0.0291
  753MOL0     H 1651   0.714   6.863   2.054  1.0929  1.5205 -0.1711
  753MOL0     H 1652   0.567   6.869   2.145  0.0025  1.7701 -1.2901
  753MOL0     H 1653   0.848   6.742   2.432 -4.9428 -0.4168  3.2270
  753MOL0     H 1654   0.559   7.438   2.598 -1.2701 -0.7486  1.0236
  753MOL0     H 1655   0.349   7.544   2.683  2.7277 -2.3838 -0.0878
  754MOL0     O 1656   7.740   6.092   0.826 -0.1365  0.1032  0.4787
  754MOL0     C 1657   7.659   6.139   0.910 -0.3119 -0.2370  0.5943
  754MOL0     O 1658   7.678   6.248   0.985 -0.1964  0.0017  0.8234
  754MOL0     C 1659   7.798   6.314   0.989 -0.0687 -0.5700  0.2217
  754MOL0     C 1660   7.922   6.270   1.033 -0.2499  0.3906 -0.4750
  754MOL0     C 1661   8.037   6.341   1.004 -0.0229 -0.0605  0.0759
  754MOL0     C 1662   8.025   6.460   0.940  0.0806  0.0408 -1.0688
  754MOL0     O 1663   8.138   6.535   0.917 -0.0488  0.6183 -0.3646
  754MOL0     C 1664   8.240   6.470   0.829  0.6090  0.0572  0.2400
  754MOL0     C 1665   8.323   6.576   0.757  0.3016 -0.4646  0.1020
  754MOL0     C 1666   8.414   6.647   0.858  1.0387 -0.6191 -0.1851
  754MOL0     C 1667   8.538   6.714   0.788  0.1416  0.5831  0.1328
  754MOL0     C 1668   8.490   6.821   0.692 -0.5490  0.6519 -0.0918
  754MOL0     C 1669   8.608   6.882   0.618 -0.1195  0.1028  0.4454
  754MOL0     C 1670   8.717   6.954   0.701 -0.0012 -0.2327  0.7992
  754MOL0     C 1671   8.664   7.072   0.777  0.8708  0.1509  0.2801
  754MOL0     N 1672   8.756   7.148   0.863  0.1958 -0.5546  1.0856
  754MOL0     C 1673   8.776   7.282   0.849  0.8195 -0.1990 -0.0547
  754MOL0     C 1674   8.867   7.309   0.947  0.7314 -0.5363  0.8892
  754MOL0     C 1675   8.913   7.444   1.003  0.2200  0.0614  0.4542
  754MOL0     C 1676   8.919   7.457   1.155 -0.3082  0.3819 -0.2507
  754MOL0     C 1677   8.858   7.592   1.196 -0.4748 -0.3950  0.6175
  754MOL0     C 1678   8.707   7.598   1.186  0.0073  0.3665 -0.4642
  754MOL0     O 1679   8.670   7.727   1.247  0.2102 -0.2596 -0.5338
  754MOL0     C 1680   8.536   7.738   1.273  0.5580  0.3032 -0.2993
  754MOL0     C 1681   8.507   7.808   1.381  1.0338 -1.6529 -0.8608
  754MOL0     C 1682   8.375   7.844   1.419 -0.1961  0.1848 -0.4311
  754MOL0     C 1683   8.360   7.933   1.536 -0.3038 -0.3569 -0.4920
  754MOL0     C 1684   8.266   7.786   1.349 -0.0142 -0.6957 -0.9448
  754MOL0     C 1685   8.130   7.819   1.375  1.3150  0.5041  0.1600
  754MOL0     O 1686   8.039   7.821   1.262 -0.0889 -0.0829 -0.3647
  754MOL0     C 1687   7.906   7.850   1.268 -0.0556  0.0509 -0.3127
  754MOL0     C 1688   7.857   7.957   1.348  0.7195 -0.1092  0.0029
  754MOL0     C 1689   7.721   7.989   1.363  0.2720  0.1250  0.6378
  754MOL0     C 1690   7.636   7.913   1.285  0.0745  0.0745  0.1799
  754MOL0     O 1691   7.494   7.926   1.303  0.1954 -0.6215 -0.5677
  754MOL0     C 1692   7.442   8.059   1.296  0.6522 -0.2919 -0.3995
  754MOL0     C 1693   7.311   8.049   1.378 -0.3715  0.2667  0.1134
  754MOL0     C 1694   7.200   7.980   1.305  0.9623  0.8464 -0.2545
  754MOL0     C 1695   7.080   7.955   1.391 -0.5931 -0.5115 -0.5597
  754MOL0     C 1696   6.960   7.908   1.314 -0.1318  0.0992 -0.4420
  754MOL0     C 1697   6.908   8.004   1.211 -0.2750 -0.1229  0.0512
  754MOL0     C 1698   6.798   7.939   1.130 -0.1238 -0.3265  0.2543
  754MOL0     C 1699   6.759   8.039   1.014  0.5813 -0.1596 -0.6651
  754MOL0    Cl 1700   6.620   7.986   0.911  0.0609 -0.2093 -0.0781
  754MOL0     C 1701   7.678   7.810   1.204 -0.8459  0.5550  0.0391
  754MOL0     C 1702   7.815   7.782   1.188  0.5536  0.7451  0.7085
  754MOL0     O 1703   8.089   7.840   1.490 -0.2916 -0.1633 -0.0534
  754MOL0     C 1704   8.301   7.717   1.229 -0.0134 -0.2114 -0.4245
  754MOL0     C 1705   8.428   7.686   1.197 -0.6929 -0.6659  0.5641
  754MOL0     N 1706   8.894   7.192   1.026 -0.2188 -0.2355  0.5091
  754MOL0     N 1707   8.827   7.096   0.964 -0.0586  0.2650 -0.1947
  754MOL0     C 1708   7.906   6.504   0.899 -0.3773 -0.1545 -0.1635
  754MOL0     C 1709   7.787   6.438   0.920 -0.2814  0.1436  0.1097
  754MOL0     C 1710   7.515   6.092   0.905 -0.4480 -0.2223  0.6899
  754MOL0     C 1711   7.455   6.027   0.795 -0.4911 -0.8399 -0.1782
  754MOL0     C 1712   7.337   5.958   0.816 -0.0148 -0.5862 -0.0020
  754MOL0     C 1713   7.260   5.963   0.937 -0.1777  1.0563  0.9300
  754MOL0     O 1714   7.134   5.912   0.934  0.2682 -0.1871  0.6877
  754MOL0     C 1715   7.062   5.896   1.059 -0.0172 -0.0945 -0.2659
  754MOL0     C 1716   6.918   5.837   1.043  0.6522 -0.0603 -0.1696
  754MOL0     C 1717   6.863   5.849   0.895  1.2968  0.1184 -0.3731
  754MOL0     C 1718   6.721   5.791   0.893 -0.6494 -0.0842 -0.7401
  754MOL0     C 1719   6.661   5.833   0.766  0.0097  0.1880 -0.8951
  754MOL0     C 1720   6.617   5.868   0.662  0.5703 -0.0178 -0.2148
  754MOL0     C 1721   7.322   6.037   1.044  0.4230  0.4301  0.1410
  754MOL0     C 1722   7.443   6.105   1.022 -0.4918 -0.1129 -0.6343
  754MOL0     H 1723   7.935   6.172   1.078 -2.2122  0.7480  1.0108
  754MOL0     H 1724   8.137   6.306   1.029 -0.2248 -2.2615 -1.8669
  754MOL0     H 1725   8.300   6.403   0.892 -0.0421 -1.1528 -0.3992
  754MOL0     H 1726   8.193   6.408   0.751 -2.5542  2.2863  0.1724
  754MOL0     H 1727   8.390   6.534   0.682  0.1354  1.6093 -1.2691
  754MOL0     H 1728   8.263   6.649   0.703  0.6658 -0.2503 -0.0190
  754MOL0     H 1729   8.362   6.722   0.918  1.9021 -1.4789  1.6922
  754MOL0     H 1730   8.454   6.567   0.921  2.6121  1.8147  2.0680
  754MOL0     H 1731   8.606   6.753   0.864  1.8757 -0.1796 -0.9764
  754MOL0     H 1732   8.596   6.634   0.742  0.4983  0.3157  1.0310
  754MOL0     H 1733   8.422   6.774   0.621  1.0133  1.0670 -1.9680
  754MOL0     H 1734   8.430   6.898   0.741  1.3187  3.2286 -1.5662
  754MOL0     H 1735   8.650   6.794   0.569 -2.0633 -0.1603 -0.8723
  754MOL0     H 1736   8.562   6.952   0.547  0.1599 -0.2143 -0.0516
  754MOL0     H 1737   8.761   6.875   0.762  0.2352 -1.8102 -1.3166
  754MOL0     H 1738   8.790   6.992   0.629 -1.9205  1.9641 -0.1349
  754MOL0     H 1739   8.577   7.050   0.840  0.9645  1.4161  0.8827
  754MOL0     H 1740   8.629   7.146   0.704  1.4738  1.3493  1.1833
  754MOL0     H 1741   8.728   7.357   0.786  4.0093  0.7360 -1.6342
  754MOL0     H 1742   9.009   7.466   0.955  0.6770  1.6079  1.9861
  754MOL0     H 1743   8.842   7.516   0.962 -2.3001 -1.7005  1.4809
  754MOL0     H 1744   9.024   7.464   1.184 -0.6238 -0.7018  1.3049
  754MOL0     H 1745   8.867   7.381   1.214 -0.3727 -0.6283 -1.5635
  754MOL0     H 1746   8.913   7.663   1.132  1.1228  0.3119  2.6644
  754MOL0     H 1747   8.896   7.610   1.297  0.0124 -2.1111  0.7603
  754MOL0     H 1748   8.671   7.516   1.248  0.6038 -1.4515 -2.4080
  754MOL0     H 1749   8.671   7.582   1.083 -0.2328 -0.1311 -0.3055
  754MOL0     H 1750   8.588   7.838   1.447 -1.4259  1.4422  0.9972
  754MOL0     H 1751   8.298   8.021   1.515  0.7300  0.9082  1.4619
  754MOL0     H 1752   8.301   7.886   1.615  2.1636 -0.4207  1.4574
  754MOL0     H 1753   8.453   7.974   1.577  0.0971  0.1892 -1.8747
  754MOL0     H 1754   7.926   8.019   1.405 -0.1788  1.4936 -0.5727
  754MOL0     H 1755   7.679   8.067   1.426  0.7774  0.7167  0.2554
  754MOL0     H 1756   7.502   8.140   1.340  1.7505  0.0256 -2.3748
  754MOL0     H 1757   7.421   8.077   1.191  1.4718 -2.1382 -0.9173
  754MOL0     H 1758   7.343   7.995   1.467  2.4725  2.8583  0.8305
  754MOL0     H 1759   7.273   8.147   1.408 -1.1078  0.1351 -0.3797
  754MOL0     H 1760   7.231   7.880   1.275 -0.9227 -0.1310  0.9095
  754MOL0     H 1761   7.177   8.034   1.213 -0.3192 -3.5493 -2.7968
  754MOL0     H 1762   7.103   7.887   1.473  1.1819  1.9353  1.1207
  754MOL0     H 1763   7.045   8.045   1.442  2.5720 -0.3306  1.5486
  754MOL0     H 1764   6.881   7.879   1.383 -2.6146  1.6434 -2.4554
  754MOL0     H 1765   6.991   7.817   1.260 -0.9318  0.1280 -0.9642
  754MOL0     H 1766   6.871   8.092   1.265 -1.4834 -0.7929  0.3379
  754MOL0     H 1767   6.988   8.033   1.142  0.0249  2.9832  1.5002
  754MOL0     H 1768   6.711   7.918   1.192 -0.6601 -0.2902 -0.4727
  754MOL0     H 1769   6.830   7.847   1.080 -1.6139 -1.3646  1.1609
  754MOL0     H 1770   6.843   8.062   0.948  0.9767 -1.5213 -0.6545
  754MOL0     H 1771   6.743   8.136   1.062 -1.6056  1.2554 -3.9314
  754MOL0     H 1772   7.606   7.749   1.151  2.2651 -3.1291 -0.4071
  754MOL0     H 1773   7.842   7.704   1.117  0.9878 -0.9233  2.5894
  754MOL0     H 1774   8.218   7.672   1.175  0.3776 -0.7571 -0.5729
  754MOL0     H 1775   8.451   7.639   1.102  1.5116  2.4550 -0.6390
  754MOL0     H 1776   7.901   6.604   0.857 -1.4048  0.1774  0.6850
  754MOL0     H 1777   7.689   6.466   0.883 -0.1607 -1.2651 -1.4090
  754MOL0     H 1778   7.506   6.036   0.700  3.5811  0.5472  1.8862
  754MOL0     H 1779   7.305   5.892   0.736  1.7849 -1.1207 -0.3244
  754MOL0     H 1780   7.132   5.842   1.123  1.9949  3.2995  0.6491
  754MOL0     H 1781   7.056   5.996   1.104  2.4195 -0.1037  0.1981
  754MOL0     H 1782   6.850   5.889   1.111  1.0332 -0.2797  0.3848
  754MOL0     H 1783   6.910   5.731   1.071 -1.2546  0.8064  3.1619
  754MOL0     H 1784   6.922   5.792   0.823  0.7145 -1.7358  0.5723
  754MOL0     H 1785   6.871   5.957   0.875  2.0361  0.7073  2.5543
  754MOL0     H 1786   6.668   5.828   0.981  0.7127  1.8966 -0.6872
  754MOL0     H 1787   6.710   5.684   0.910 -2.2726  0.1319 -0.2564
  754MOL0     H 1788   6.570   5.911   0.576 -3.5669 -1.3550  1.1551
  754MOL0     H 1789   7.269   6.054   1.137  0.5830  0.3490  0.2455
  754MOL0     H 1790   7.491   6.144   1.111  1.1188 -1.6569 -0.7629
  755MOL0     O 1791  10.572   8.506   2.474 -0.3625 -0.5781 -0.7118
  755MOL0     C 1792  10.663   8.440   2.529 -0.8934 -0.5697 -0.6029
  755MOL0     O 1793  10.685   8.438   2.666  0.0902 -0.3323 -0.1054
  755MOL0     C 1794  10.579   8.470   2.746  0.4618  0.0511  0.5817
  755MOL0     C 1795  10.602   8.563   2.850 -0.5799  0.9070  0.2230
  755MOL0     C 1796  10.508   8.599   2.945 -0.9759  0.0974 -0.5953
  755MOL0     C 1797  10.379   8.547   2.923 -0.3372  0.6241  0.0465
  755MOL0     O 1798  10.296   8.588   3.025  0.6112 -0.0968  0.0375
  755MOL0     C 1799  10.153   8.565   3.004 -0.2596 -0.2035  0.3434
  755MOL0     C 1800  10.090   8.531   3.135  0.1804 -0.0864 -0.7625
  755MOL0     C 1801   9.949   8.495   3.110  1.0329  0.2858 -0.1380
  755MOL0     C 1802   9.883   8.455   3.244 -0.0586  0.1144 -0.3090
  755MOL0     C 1803   9.735   8.405   3.247 -0.0096 -0.8188 -0.3266
  755MOL0     C 1804   9.644   8.530   3.231  0.4683  0.4521 -0.5558
  755MOL0     C 1805   9.501   8.482   3.262 -0.2902  0.6171  0.0578
  755MOL0     C 1806   9.437   8.374   3.157 -0.2005 -0.5352 -0.2757
  755MOL0     N 1807   9.294   8.375   3.164  0.0321 -0.2196 -0.9485
  755MOL0     C 1808   9.211   8.428   3.075 -0.0766  0.0820 -0.1818
  755MOL0     C 1809   9.087   8.393   3.108 -0.0923  0.8390 -0.7756
  755MOL0     C 1810   8.957   8.421   3.053  0.1580 -0.6581  1.1358
  755MOL0     C 1811   8.849   8.482   3.143  0.3261  0.2851  0.0948
  755MOL0     C 1812   8.738   8.550   3.050  0.6691  0.3511 -0.1489
  755MOL0     C 1813   8.632   8.606   3.146 -0.3727 -0.6541  1.0299
  755MOL0     O 1814   8.505   8.549   3.127  0.2957  0.7657 -0.0442
  755MOL0     C 1815   8.389   8.609   3.179 -0.6317  0.2688 -0.0065
  755MOL0     C 1816   8.262   8.554   3.130  0.2232 -0.0961 -0.7614
  755MOL0     C 1817   8.137   8.602   3.177  1.0185 -0.2912 -0.2282
  755MOL0     C 1818   8.010   8.534   3.139 -0.4399 -0.4896 -0.3260
  755MOL0     C 1819   8.132   8.706   3.269  0.6454  0.0638 -0.1856
  755MOL0     C 1820   8.013   8.774   3.328  0.8235  0.0869 -0.1217
  755MOL0     O 1821   8.019   8.800   3.462 -0.9357 -0.1314 -0.5697
  755MOL0     C 1822   7.910   8.790   3.542 -0.9766  0.2654  0.2420
  755MOL0     C 1823   7.890   8.874   3.650  0.7271 -0.7145 -0.2274
  755MOL0     C 1824   7.773   8.854   3.729  0.1427 -0.0175 -0.2850
  755MOL0     C 1825   7.681   8.751   3.708 -0.4436  0.2255 -0.5453
  755MOL0     O 1826   7.579   8.716   3.797 -0.1439  0.2824 -0.0236
  755MOL0     C 1827   7.552   8.805   3.907 -0.8462  0.9409 -0.5196
  755MOL0     C 1828   7.635   8.791   4.032 -0.7081  0.7736  0.4240
  755MOL0     C 1829   7.614   8.904   4.141 -0.0372  0.3581  0.4779
  755MOL0     C 1830   7.473   8.899   4.205 -0.3141  0.5347  0.5781
  755MOL0     C 1831   7.399   9.034   4.214 -0.9332 -0.1918  0.2092
  755MOL0     C 1832   7.349   9.083   4.080  0.7306  0.3205 -0.5923
  755MOL0     C 1833   7.278   9.214   4.097  1.4250 -0.0789  0.6574
  755MOL0     C 1834   7.180   9.222   3.971  0.8840 -0.1314 -0.0378
  755MOL0    Cl 1835   7.080   9.376   3.984  0.1691  0.3332 -0.3731
  755MOL0     C 1836   7.710   8.661   3.607 -0.4246 -0.0272  0.1689
  755MOL0     C 1837   7.820   8.677   3.522 -0.4619 -1.0488 -0.9139
  755MOL0     O 1838   7.916   8.803   3.255  0.6781  0.4881 -0.3322
  755MOL0     C 1839   8.255   8.754   3.319 -0.8230 -0.2437 -0.5042
  755MOL0     C 1840   8.384   8.712   3.271 -0.5478  0.4169  1.0595
  755MOL0     N 1841   9.106   8.322   3.224 -0.7039  0.0433  0.2465
  755MOL0     N 1842   9.227   8.308   3.261 -0.0446  0.3307 -0.7432
  755MOL0     C 1843  10.352   8.464   2.811 -1.3191 -0.3832  0.2619
  755MOL0     C 1844  10.452   8.419   2.727 -0.5117 -0.0500  1.1702
  755MOL0     C 1845  10.767   8.379   2.447  0.8636 -0.3163 -0.5915
  755MOL0     C 1846  10.888   8.332   2.512  0.0519 -0.4873  0.5745
  755MOL0     C 1847  10.985   8.269   2.434 -0.3347 -0.3007 -1.6368
  755MOL0     C 1848  10.963   8.251   2.302  0.4350 -0.4123  0.5363
  755MOL0     O 1849  11.057   8.199   2.227  0.5696  0.0116  0.0940
  755MOL0     C 1850  11.044   8.054   2.227 -0.0268  0.3477 -0.2883
  755MOL0     C 1851  11.174   7.998   2.165 -0.2372  0.1634  0.2239
  755MOL0     C 1852  11.181   7.848   2.146 -0.5958 -0.1828  0.3173
  755MOL0     C 1853  11.331   7.819   2.096  0.6363 -0.2814 -0.4437
  755MOL0     C 1854  11.349   7.677   2.096  0.0108  0.1117 -0.1654
  755MOL0     C 1855  11.361   7.555   2.099  0.6261  0.6957 -0.0530
  755MOL0     C 1856  10.838   8.274   2.240 -0.0072  0.4343 -0.3046
  755MOL0     C 1857  10.741   8.338   2.318 -0.0893 -0.5152 -0.5133
  755MOL0     H 1858  10.706   8.594   2.852  0.1210 -1.2948 -0.0488
  755MOL0     H 1859  10.531   8.658   3.033  0.0962  0.7237 -1.2747
  755MOL0     H 1860  10.108   8.657   2.966 -1.0838 -1.7764 -2.8071
  755MOL0     H 1861  10.126   8.492   2.927  0.1306 -1.7545  1.6117
  755MOL0     H 1862  10.141   8.455   3.195 -0.2280 -0.2335 -0.5986
  755MOL0     H 1863  10.081   8.616   3.203 -3.4553 -1.3179  0.5025
  755MOL0     H 1864   9.881   8.569   3.066 -1.5757 -2.3036 -0.8561
  755MOL0     H 1865   9.970   8.407   3.048  1.0917  0.0494  0.2168
  755MOL0     H 1866   9.959   8.384   3.280  0.3188 -0.1909 -1.6425
  755MOL0     H 1867   9.879   8.543   3.309  2.1809  1.0422 -1.3276
  755MOL0     H 1868   9.714   8.325   3.176 -0.3974 -0.5954 -0.4681
  755MOL0     H 1869   9.712   8.359   3.344 -0.7628 -1.8648 -0.9846
  755MOL0     H 1870   9.665   8.615   3.297 -1.2199  0.0194  0.5830
  755MOL0     H 1871   9.643   8.571   3.129  3.5514 -1.3752 -1.4752
  755MOL0     H 1872   9.490   8.447   3.365 -1.9951 -0.6667 -0.5092
  755MOL0     H 1873   9.435   8.566   3.244  0.4425  0.9330 -1.3502
  755MOL0     H 1874   9.480   8.281   3.196  3.5231 -0.0045 -2.6071
  755MOL0     H 1875   9.475   8.394   3.057  1.1012 -0.1247  0.2734
  755MOL0     H 1876   9.242   8.485   2.988  1.2104 -0.2526  0.0406
  755MOL0     H 1877   8.983   8.490   2.972 -2.0343 -0.0128  0.9414
  755MOL0     H 1878   8.914   8.328   3.013  0.8071 -1.0399  1.2985
  755MOL0     H 1879   8.901   8.561   3.197  1.3137 -0.5427  0.3853
  755MOL0     H 1880   8.814   8.405   3.212 -0.7480  1.9739  1.5292
  755MOL0     H 1881   8.687   8.478   2.986 -3.0942  0.5037  2.3796
  755MOL0     H 1882   8.792   8.627   2.994 -0.6392  3.7700  2.8283
  755MOL0     H 1883   8.634   8.712   3.119 -0.7388 -0.6305  1.0979
  755MOL0     H 1884   8.664   8.610   3.251  0.6530 -0.5560  0.7325
  755MOL0     H 1885   8.263   8.478   3.053  2.0047 -0.8841 -0.0110
  755MOL0     H 1886   8.038   8.441   3.087 -2.7286 -1.6501  0.4065
  755MOL0     H 1887   7.960   8.509   3.233  2.6801  1.5053  2.0503
  755MOL0     H 1888   7.949   8.595   3.071 -0.9299  0.8584  1.2622
  755MOL0     H 1889   7.961   8.956   3.651 -1.6675  1.5117  1.9493
  755MOL0     H 1890   7.759   8.915   3.817 -1.7020 -0.2487 -0.3883
  755MOL0     H 1891   7.569   8.909   3.878  1.8343  0.6647 -0.1422
  755MOL0     H 1892   7.446   8.787   3.930 -0.2412 -1.5393  0.6696
  755MOL0     H 1893   7.623   8.690   4.073 -0.0411  0.7577  0.5950
  755MOL0     H 1894   7.742   8.795   4.008 -0.2745  1.7336  2.2904
  755MOL0     H 1895   7.629   9.003   4.098  1.9680 -0.4317 -0.7541
  755MOL0     H 1896   7.690   8.896   4.219 -0.2620  0.5766  0.7257
  755MOL0     H 1897   7.403   8.830   4.157  0.5248  1.1115 -1.5882
  755MOL0     H 1898   7.484   8.850   4.302  3.4377  1.4101  0.7245
  755MOL0     H 1899   7.464   9.099   4.272  0.2568 -1.3491  0.2070
  755MOL0     H 1900   7.305   9.019   4.268 -2.5684  0.3320 -2.2770
  755MOL0     H 1901   7.430   9.090   4.007 -0.5976  3.4741 -1.9517
  755MOL0     H 1902   7.289   9.004   4.035  0.9408  0.3026 -0.8391
  755MOL0     H 1903   7.346   9.297   4.116 -2.4338  2.9101  2.7773
  755MOL0     H 1904   7.224   9.219   4.192  2.2223  2.6772  1.0557
  755MOL0     H 1905   7.103   9.145   3.974 -0.6276  1.3036 -0.5220
  755MOL0     H 1906   7.232   9.226   3.874  0.8801  1.3730 -0.0013
  755MOL0     H 1907   7.658   8.566   3.610  1.2153 -0.9169  1.9516
  755MOL0     H 1908   7.846   8.608   3.442 -1.0227 -1.1663 -1.0000
  755MOL0     H 1909   8.255   8.834   3.391  1.4575 -1.1707  0.6348
  755MOL0     H 1910   8.482   8.754   3.295  0.3684 -1.1427  0.2057
  755MOL0     H 1911  10.250   8.434   2.787 -1.5317  0.6801 -0.2516
  755MOL0     H 1912  10.426   8.363   2.638 -0.0519 -0.1853  1.1163
  755MOL0     H 1913  10.908   8.346   2.618 -0.5073 -1.3041  0.7994
  755MOL0     H 1914  11.075   8.227   2.477 -0.5768 -0.9141 -1.7161
  755MOL0     H 1915  11.028   8.010   2.325 -0.5557 -1.2628 -1.0618
  755MOL0     H 1916  10.960   8.020   2.165  0.4173  1.6714 -1.6914
  755MOL0     H 1917  11.253   8.027   2.236 -0.4817  0.4019  0.3989
  755MOL0     H 1918  11.181   8.054   2.071  0.8790  1.2120  0.8941
  755MOL0     H 1919  11.122   7.808   2.063 -0.9100 -3.0455  1.7875
  755MOL0     H 1920  11.166   7.798   2.242 -0.5769  0.3797  0.6143
  755MOL0     H 1921  11.402   7.861   2.168 -0.3456  2.6131 -1.0245
  755MOL0     H 1922  11.344   7.872   2.001  1.7480  1.6990  0.7293
  755MOL0     H 1923  11.383   7.450   2.106  2.0593  0.9916  0.1959
  755MOL0     H 1924  10.824   8.250   2.136  1.2603  2.6517 -1.0622
  755MOL0     H 1925  10.653   8.378   2.268  0.6358  0.7568 -0.8249
  756MOL0     O 1926  11.132   4.492   8.598 -0.1287  0.4055  0.1209
  756MOL0     C 1927  11.113   4.435   8.704  0.3598  0.7937 -0.7418
  756MOL0     O 1928  10.994   4.366   8.732 -0.1494 -0.8560 -0.2251
  756MOL0     C 1929  10.881   4.385   8.657  0.2522 -0.3417 -0.0859
  756MOL0     C 1930  10.844   4.490   8.572  0.8962  0.0179  0.1285
  756MOL0     C 1931  10.716   4.476   8.507 -0.2409 -1.2713 -0.5940
  756MOL0     C 1932  10.622   4.372   8.530 -0.6002  0.6503  0.0867
  756MOL0     O 1933  10.502   4.351   8.467 -0.1235 -0.2605  0.4850
  756MOL0     C 1934  10.445   4.452   8.377 -0.1091 -0.4448 -0.4936
  756MOL0     C 1935  10.301   4.440   8.370  0.9848 -0.1562  0.2308
  756MOL0     C 1936  10.220   4.564   8.318  0.4765 -0.0775 -0.0160
  756MOL0     C 1937  10.076   4.510   8.277 -0.4236 -0.5544  0.7364
  756MOL0     C 1938   9.987   4.640   8.246  0.1450  0.2978 -0.3858
  756MOL0     C 1939  10.029   4.692   8.109  0.5788 -0.0884 -0.6920
  756MOL0     C 1940   9.952   4.812   8.078 -0.2892 -0.6358  0.2823
  756MOL0     C 1941   9.970   4.854   7.931 -0.3205 -0.1837  0.0341
  756MOL0     N 1942   9.859   4.949   7.898 -0.2816  0.4525 -0.8372
  756MOL0     C 1943   9.772   4.935   7.793  0.1220 -0.4081  1.3981
  756MOL0     C 1944   9.696   5.044   7.788 -0.0497  0.9202 -1.5211
  756MOL0     C 1945   9.587   5.076   7.695  0.6821 -0.5158 -0.3903
  756MOL0     C 1946   9.458   4.995   7.714 -0.3989 -0.9909 -0.6740
  756MOL0     C 1947   9.358   5.059   7.631 -1.5046 -0.2692  0.1146
  756MOL0     C 1948   9.243   4.971   7.612 -0.5095  0.5541 -0.2904
  756MOL0     O 1949   9.267   4.903   7.494 -0.3068 -0.5591  0.0780
  756MOL0     C 1950   9.158   4.865   7.421 -0.6839 -0.8796 -0.2217
  756MOL0     C 1951   9.183   4.850   7.289  0.4668 -1.0692  0.2314
  756MOL0     C 1952   9.086   4.812   7.196 -0.0388 -0.9668  0.8095
  756MOL0     C 1953   9.133   4.776   7.053  0.1529  0.1816  0.8552
  756MOL0     C 1954   8.956   4.801   7.244  0.0378  0.2645  0.5564
  756MOL0     C 1955   8.836   4.753   7.170 -0.3424 -0.6495 -0.7339
  756MOL0     O 1956   8.714   4.809   7.214  0.3475  0.2470 -0.8731
  756MOL0     C 1957   8.610   4.757   7.145  0.2466  0.3837 -0.2087
  756MOL0     C 1958   8.585   4.797   7.008  0.5827  0.1804  0.4077
  756MOL0     C 1959   8.456   4.770   6.950 -0.0429  0.1624  0.9408
  756MOL0     C 1960   8.369   4.675   7.011 -0.0857  0.3694 -0.8747
  756MOL0     O 1961   8.241   4.645   6.958 -0.1153 -0.0199 -0.3003
  756MOL0     C 1962   8.166   4.764   6.933  0.7148  0.4125  0.3496
  756MOL0     C 1963   8.007   4.742   6.928 -0.6235 -0.8815  0.3188
  756MOL0     C 1964   7.935   4.871   6.932  0.1778  0.2419 -0.2504
  756MOL0     C 1965   7.992   4.978   6.840  0.3918  0.2553 -0.3585
  756MOL0     C 1966   7.891   5.106   6.836  0.0158  0.1068  0.7785
  756MOL0     C 1967   7.951   5.209   6.744  0.3289  0.1185 -0.6805
  756MOL0     C 1968   7.890   5.350   6.736  0.1488  0.0073 -0.0802
  756MOL0     C 1969   7.736   5.356   6.715 -0.6918 -0.4390  0.0357
  756MOL0    Cl 1970   7.644   5.312   6.853  0.0146 -0.1948 -0.0774
  756MOL0     C 1971   8.406   4.619   7.136 -0.0469  0.8780  0.0387
  756MOL0     C 1972   8.522   4.665   7.205 -0.3514 -0.1718 -0.0192
  756MOL0     O 1973   8.844   4.666   7.080  0.7650 -0.0574 -0.2967
  756MOL0     C 1974   8.931   4.815   7.379 -0.0813  0.0583  0.5054
  756MOL0     C 1975   9.028   4.856   7.467  0.9561  0.0255 -0.1058
  756MOL0     N 1976   9.738   5.130   7.895  0.1720  0.9053  0.2469
  756MOL0     N 1977   9.842   5.070   7.946  0.3626  0.0642 -0.3130
  756MOL0     C 1978  10.664   4.271   8.622 -0.6897  0.6112  0.0655
  756MOL0     C 1979  10.794   4.279   8.680  0.6521  0.4169  0.0763
  756MOL0     C 1980  11.209   4.457   8.811 -0.1180  0.4612  0.0592
  756MOL0     C 1981  11.174   4.411   8.945  0.3854 -0.7432 -0.1739
  756MOL0     C 1982  11.261   4.440   9.049 -0.1574  0.6515  0.2226
  756MOL0     C 1983  11.377   4.508   9.031 -0.1962  0.0385  0.7451
  756MOL0     O 1984  11.470   4.505   9.135  0.3355  0.0833 -0.2330
  756MOL0     C 1985  11.593   4.573   9.139 -0.9397 -0.1354 -0.3833
  756MOL0     C 1986  11.661   4.536   9.270  0.1238 -0.3868 -0.7692
  756MOL0     C 1987  11.628   4.629   9.384 -0.3493  0.0893 -0.3231
  756MOL0     C 1988  11.504   4.579   9.454  0.1379  0.5838  0.2035
  756MOL0     C 1989  11.462   4.660   9.568  0.4968  0.0300 -0.7383
  756MOL0     C 1990  11.423   4.748   9.647 -0.1042  0.5529  0.0283
  756MOL0     C 1991  11.406   4.559   8.904  0.4105 -0.1871  0.1277
  756MOL0     C 1992  11.318   4.534   8.797 -0.1350  0.5855  0.2086
  756MOL0     H 1993  10.904   4.578   8.550 -0.5575  1.0134 -0.0029
  756MOL0     H 1994  10.700   4.554   8.433 -0.6730 -1.0358 -0.2577
  756MOL0     H 1995  10.472   4.548   8.423  1.0555 -1.6906  1.5682
  756MOL0     H 1996  10.491   4.447   8.277 -0.8352  0.6258 -0.9008
  756MOL0     H 1997  10.280   4.356   8.302  2.2555  0.6243 -1.1917
  756MOL0     H 1998  10.261   4.413   8.468  0.3452  0.1847  0.0709
  756MOL0     H 1999  10.202   4.636   8.399 -3.2714 -2.3504  1.4401
  756MOL0     H 2000  10.263   4.609   8.228 -0.9858 -1.3822 -1.4381
  756MOL0     H 2001  10.086   4.452   8.185  0.9786 -1.3045  1.3322
  756MOL0     H 2002  10.016   4.456   8.352 -1.5805  1.0190  0.9952
  756MOL0     H 2003   9.883   4.607   8.238  0.8349 -1.5937 -3.8460
  756MOL0     H 2004  10.010   4.710   8.327 -0.5917 -0.1728  0.2407
  756MOL0     H 2005  10.132   4.730   8.115  0.9542 -0.4936 -3.2408
  756MOL0     H 2006  10.026   4.613   8.034 -1.8015 -1.3340  0.6003
  756MOL0     H 2007   9.845   4.797   8.094 -0.2475 -0.0949  1.1272
  756MOL0     H 2008   9.986   4.895   8.141 -3.4996  0.3869  0.8909
  756MOL0     H 2009   9.969   4.764   7.869  5.0786 -0.7429  0.2689
  756MOL0     H 2010  10.068   4.902   7.921 -0.9167  1.3589  1.2122
  756MOL0     H 2011   9.759   4.851   7.726  1.1517  1.9207 -1.9245
  756MOL0     H 2012   9.560   5.182   7.694 -2.1019 -0.9294  4.1136
  756MOL0     H 2013   9.627   5.059   7.594  1.6656  1.8582 -0.4727
  756MOL0     H 2014   9.443   4.992   7.823  4.5319  2.7049  0.4833
  756MOL0     H 2015   9.496   4.900   7.677  1.6207  0.1165 -1.6179
  756MOL0     H 2016   9.398   5.078   7.531 -0.1380  2.4684  1.0849
  756MOL0     H 2017   9.329   5.160   7.663  3.2312  1.7538 -1.2044
  756MOL0     H 2018   9.156   5.034   7.594  0.4250  1.3441 -2.3672
  756MOL0     H 2019   9.222   4.906   7.698 -0.2702  0.6228 -0.1794
  756MOL0     H 2020   9.282   4.874   7.250  1.3922 -0.9803  2.4585
  756MOL0     H 2021   9.203   4.692   7.059  0.0666  0.1263  1.1044
  756MOL0     H 2022   9.045   4.752   6.992  2.0471 -1.3762 -1.4694
  756MOL0     H 2023   9.189   4.854   7.001  1.8360  0.3306  2.7903
  756MOL0     H 2024   8.658   4.860   6.959  2.1328 -3.9782 -3.2840
  756MOL0     H 2025   8.416   4.804   6.855 -1.2076 -2.9599  0.2094
  756MOL0     H 2026   8.176   4.838   7.014 -1.4616 -1.4179  2.4189
  756MOL0     H 2027   8.196   4.798   6.834 -0.8798 -0.8200 -0.5936
  756MOL0     H 2028   7.982   4.673   6.847 -2.1741 -1.4309  1.2162
  756MOL0     H 2029   7.984   4.691   7.022  0.1212 -2.7276 -0.4570
  756MOL0     H 2030   7.941   4.915   7.032 -0.5662 -2.2996  0.9997
  756MOL0     H 2031   7.828   4.853   6.912 -0.1100  1.2083  0.3601
  756MOL0     H 2032   8.080   5.015   6.893  1.3835 -2.8448  0.3819
  756MOL0     H 2033   8.013   4.926   6.745  1.5230 -0.8731  0.4638
  756MOL0     H 2034   7.879   5.151   6.935  1.1260  1.3328  0.3947
  756MOL0     H 2035   7.797   5.060   6.806  0.6345 -0.0781 -1.0586
  756MOL0     H 2036   8.055   5.227   6.773 -0.5448  0.8205  2.3989
  756MOL0     H 2037   7.952   5.163   6.645 -1.8395 -0.9055 -0.2936
  756MOL0     H 2038   7.936   5.399   6.650  0.6906  1.3788  0.9421
  756MOL0     H 2039   7.923   5.403   6.827 -1.1278 -2.6565  2.0772
  756MOL0     H 2040   7.719   5.286   6.632  0.7867  1.4575 -2.0012
  756MOL0     H 2041   7.711   5.457   6.682  2.0624 -0.2593 -1.8594
  756MOL0     H 2042   8.347   4.542   7.184  0.5359  1.2482  1.3971
  756MOL0     H 2043   8.542   4.629   7.306  0.4870 -0.1634 -0.1806
  756MOL0     H 2044   8.837   4.801   7.431 -0.3585  1.5959  0.4801
  756MOL0     H 2045   8.993   4.883   7.567  0.1890  3.1246 -1.1022
  756MOL0     H 2046  10.607   4.181   8.642 -0.3434  0.5336  0.7202
  756MOL0     H 2047  10.814   4.195   8.746  1.4444 -0.3689 -1.1382
  756MOL0     H 2048  11.088   4.347   8.962  0.2913 -2.2504 -4.9317
  756MOL0     H 2049  11.242   4.408   9.151  1.9360 -0.0649  0.4325
  756MOL0     H 2050  11.653   4.547   9.051 -0.3237  0.9065 -0.2900
  756MOL0     H 2051  11.575   4.681   9.141 -1.1071 -0.1190 -1.7255
  756MOL0     H 2052  11.770   4.537   9.262  0.1556 -0.9923 -0.4919
  756MOL0     H 2053  11.636   4.433   9.299  1.7167 -0.4713  0.4114
  756MOL0     H 2054  11.613   4.733   9.354  2.3847  1.1272  1.4864
  756MOL0     H 2055  11.710   4.624   9.456 -0.2525 -3.0738 -0.4830
  756MOL0     H 2056  11.520   4.477   9.490 -2.1384 -0.5444 -1.7399
  756MOL0     H 2057  11.422   4.582   9.381 -1.0660  0.6507  1.5238
  756MOL0     H 2058  11.383   4.833   9.699 -0.2626  0.0386  0.7721
  756MOL0     H 2059  11.492   4.625   8.896 -0.1006  0.3469 -1.3240
  756MOL0     H 2060  11.349   4.579   8.704 -0.3393  1.1330  0.4044
  757MOL0     O 2061   9.953   4.806   9.223  0.2612  0.7620 -0.6565
  757MOL0     C 2062  10.005   4.701   9.262  0.4176  0.2219 -0.5380
  757MOL0     O 2063   9.928   4.594   9.305 -0.1070  0.7325 -1.0127
  757MOL0     C 2064   9.788   4.592   9.321 -0.1035  0.3088  0.4196
  757MOL0     C 2065   9.709   4.651   9.217  0.2457  0.2893  0.1730
  757MOL0     C 2066   9.564   4.626   9.215  0.5176  0.4682  0.8846
  757MOL0     C 2067   9.502   4.550   9.318 -0.7743  0.4359  0.1461
  757MOL0     O 2068   9.372   4.518   9.313 -0.6074 -0.2844 -0.3275
  757MOL0     C 2069   9.341   4.383   9.296  0.8933  0.5752  0.7147
  757MOL0     C 2070   9.301   4.336   9.156  1.3367  0.0707  0.2360
  757MOL0     C 2071   9.297   4.187   9.143  0.4796  0.3329 -0.0043
  757MOL0     C 2072   9.325   4.141   9.002  0.7571  0.6958  0.2308
  757MOL0     C 2073   9.241   4.202   8.890  0.3656 -0.5742 -0.4948
  757MOL0     C 2074   9.081   4.197   8.920  0.0419  0.3488  0.4494
  757MOL0     C 2075   9.013   4.255   8.797  0.6461  0.4142  0.1204
  757MOL0     C 2076   8.861   4.251   8.807  1.0556 -0.4026 -0.6468
  757MOL0     N 2077   8.784   4.334   8.705 -0.0107 -0.3430 -0.2308
  757MOL0     C 2078   8.669   4.408   8.730  0.2507 -0.1619  0.0800
  757MOL0     C 2079   8.634   4.455   8.613 -0.9035 -0.4046  0.8517
  757MOL0     C 2080   8.509   4.535   8.575 -0.5566  0.6795 -0.0615
  757MOL0     C 2081   8.547   4.657   8.505  0.0099  0.3118 -0.3854
  757MOL0     C 2082   8.422   4.733   8.487  0.2477  0.3772 -0.7879
  757MOL0     C 2083   8.434   4.855   8.390 -0.1219 -0.1325  0.3551
  757MOL0     O 2084   8.310   4.933   8.395 -0.1362  0.2457 -0.0213
  757MOL0     C 2085   8.200   4.869   8.349 -0.0357 -0.2746  0.0090
  757MOL0     C 2086   8.197   4.780   8.246  0.1786 -0.0670  0.5035
  757MOL0     C 2087   8.086   4.713   8.201 -0.3730 -0.3074  0.2905
  757MOL0     C 2088   8.105   4.621   8.085 -0.4731  0.1348  0.9442
  757MOL0     C 2089   7.966   4.720   8.275  0.4567 -0.7872  0.8279
  757MOL0     C 2090   7.849   4.624   8.252  0.3396  0.1847 -0.5166
  757MOL0     O 2091   7.725   4.674   8.302 -0.3625  0.4777  0.2430
  757MOL0     C 2092   7.605   4.619   8.265 -1.1970  0.0723 -0.5457
  757MOL0     C 2093   7.574   4.545   8.152 -0.3629  0.7277 -0.7364
  757MOL0     C 2094   7.437   4.502   8.126 -0.4711 -0.2979  0.2295
  757MOL0     C 2095   7.329   4.535   8.215  0.3187  1.2184 -0.9064
  757MOL0     O 2096   7.194   4.492   8.189 -0.3430 -0.0519 -0.0588
  757MOL0     C 2097   7.113   4.467   8.308  0.1556  0.4294  0.4328
  757MOL0     C 2098   7.002   4.375   8.269 -0.4466 -0.1558  0.5567
  757MOL0     C 2099   6.888   4.437   8.176 -0.9254 -0.7436  0.0460
  757MOL0     C 2100   6.783   4.340   8.123  0.0394 -0.1579  0.1550
  757MOL0     C 2101   6.692   4.278   8.236 -0.2449 -1.3044 -0.4779
  757MOL0     C 2102   6.558   4.227   8.184 -0.4866  0.3570  0.0234
  757MOL0     C 2103   6.472   4.349   8.158  0.5150  0.4812 -0.4269
  757MOL0     C 2104   6.339   4.311   8.096  0.0381 -0.3934 -0.1101
  757MOL0    Cl 2105   6.338   4.250   7.927 -0.3441 -0.0115 -0.3794
  757MOL0     C 2106   7.369   4.602   8.332 -0.0903 -0.3467  0.4647
  757MOL0     C 2107   7.500   4.644   8.352  0.3792 -0.4500 -0.3995
  757MOL0     O 2108   7.869   4.511   8.210 -0.1405  0.6267 -0.7432
  757MOL0     C 2109   7.965   4.814   8.379 -0.0470  0.2330 -0.0733
  757MOL0     C 2110   8.076   4.893   8.409 -0.2378 -0.1272  0.5973
  757MOL0     N 2111   8.712   4.395   8.512 -0.1908 -0.1272  0.3034
  757MOL0     N 2112   8.804   4.324   8.570 -0.1678  0.3423 -0.1927
  757MOL0     C 2113   9.585   4.505   9.420 -0.1719  0.1024 -0.2941
  757MOL0     C 2114   9.724   4.522   9.418 -0.0160  0.3780  0.4128
  757MOL0     C 2115  10.150   4.687   9.265  0.1504 -0.2321  0.4272
  757MOL0     C 2116  10.228   4.780   9.206  0.1849  0.2474 -0.9505
  757MOL0     C 2117  10.371   4.775   9.198 -0.4382  0.0334 -0.4960
  757MOL0     C 2118  10.441   4.667   9.245  0.2333  0.1194 -0.0132
  757MOL0     O 2119  10.577   4.657   9.234 -0.5800 -0.4504 -0.3479
  757MOL0     C 2120  10.642   4.529   9.240  0.3630  0.0312 -0.1172
  757MOL0     C 2121  10.728   4.503   9.362  0.1781  0.1698  0.1960
  757MOL0     C 2122  10.851   4.591   9.388  0.3009  0.1649  0.4945
  757MOL0     C 2123  10.977   4.562   9.293  0.0760 -0.3973  0.3388
  757MOL0     C 2124  11.084   4.654   9.329  0.2953  0.5253  0.5340
  757MOL0     C 2125  11.176   4.730   9.346 -0.3048 -0.2236 -0.5412
  757MOL0     C 2126  10.360   4.563   9.303  0.1263 -0.3590 -0.3259
  757MOL0     C 2127  10.225   4.578   9.321  0.7540  0.3642  0.5116
  757MOL0     H 2128   9.750   4.694   9.126 -0.0181 -2.5987 -1.4006
  757MOL0     H 2129   9.502   4.681   9.144 -0.1373  0.8822  1.7680
  757MOL0     H 2130   9.420   4.314   9.329  1.5424 -0.2288 -2.2447
  757MOL0     H 2131   9.265   4.367   9.372 -1.3891  4.3188 -0.5288
  757MOL0     H 2132   9.201   4.378   9.142  0.6254 -1.8122 -0.6702
  757MOL0     H 2133   9.374   4.377   9.085  0.0944 -1.0412 -1.7784
  757MOL0     H 2134   9.366   4.136   9.211 -1.1511 -1.0873  0.6752
  757MOL0     H 2135   9.197   4.152   9.171 -0.6930  1.4673 -2.4342
  757MOL0     H 2136   9.428   4.169   8.979  1.0006  1.4241  2.0585
  757MOL0     H 2137   9.313   4.033   8.995 -1.3524  0.8843  0.3779
  757MOL0     H 2138   9.263   4.309   8.885  2.3503 -0.9247 -0.0062
  757MOL0     H 2139   9.249   4.153   8.793 -3.8836  1.2663 -2.0661
  757MOL0     H 2140   9.056   4.091   8.929 -1.2207  0.3449 -2.2565
  757MOL0     H 2141   9.044   4.247   9.010 -2.9171  1.5530 -1.3135
  757MOL0     H 2142   9.046   4.359   8.782 -0.2202  1.0021  1.9614
  757MOL0     H 2143   9.035   4.195   8.708  0.0182  1.1424 -0.5478
  757MOL0     H 2144   8.836   4.290   8.906  1.4093 -1.2617 -0.2023
  757MOL0     H 2145   8.830   4.146   8.806 -0.1588 -0.2688  3.7207
  757MOL0     H 2146   8.621   4.426   8.826 -0.7249  1.4225 -0.6623
  757MOL0     H 2147   8.445   4.478   8.507 -1.4497 -1.1321  2.1486
  757MOL0     H 2148   8.450   4.554   8.665  0.6802  1.2634  0.6484
  757MOL0     H 2149   8.591   4.644   8.406 -0.0411 -0.6995 -0.2896
  757MOL0     H 2150   8.618   4.718   8.560  2.4135  0.1434 -3.0857
  757MOL0     H 2151   8.388   4.778   8.580 -2.0780  0.1140 -1.4412
  757MOL0     H 2152   8.341   4.672   8.446 -0.5339  1.1510 -0.4141
  757MOL0     H 2153   8.455   4.810   8.292 -3.0919 -0.1387 -0.3698
  757MOL0     H 2154   8.515   4.925   8.413 -1.3158  0.4269  3.3127
  757MOL0     H 2155   8.283   4.752   8.185 -0.8594 -1.0958 -0.5475
  757MOL0     H 2156   8.018   4.617   8.020 -1.1670 -2.0740  1.9184
  757MOL0     H 2157   8.183   4.651   8.014 -0.6931  1.1417  1.1119
  757MOL0     H 2158   8.135   4.527   8.132  2.0100  0.1711 -0.4105
  757MOL0     H 2159   7.651   4.510   8.084 -0.4945  0.0505 -0.5509
  757MOL0     H 2160   7.423   4.448   8.033 -0.5031 -0.3709  0.2767
  757MOL0     H 2161   7.182   4.423   8.380  0.0253 -0.1074  0.2333
  757MOL0     H 2162   7.068   4.557   8.351 -1.0781  0.4010 -0.7024
  757MOL0     H 2163   7.049   4.285   8.229 -3.4285 -0.4894 -2.6706
  757MOL0     H 2164   6.955   4.337   8.360 -1.0449  0.6929  0.6148
  757MOL0     H 2165   6.939   4.480   8.089 -4.1719  0.4057 -1.4629
  757MOL0     H 2166   6.832   4.511   8.234  1.6975  1.4680 -0.0317
  757MOL0     H 2167   6.726   4.411   8.061  3.5962  1.7666 -1.1938
  757MOL0     H 2168   6.825   4.261   8.060 -0.1344  0.7280 -1.1328
  757MOL0     H 2169   6.682   4.361   8.305  1.5172  0.1363 -1.8499
  757MOL0     H 2170   6.751   4.201   8.287  0.4778  0.0861  0.8598
  757MOL0     H 2171   6.584   4.169   8.095  0.3985 -0.2920  0.6878
  757MOL0     H 2172   6.501   4.163   8.252 -0.5992 -0.0705 -0.4683
  757MOL0     H 2173   6.527   4.421   8.097  0.2619  1.1690  0.1396
  757MOL0     H 2174   6.442   4.404   8.247  0.3552  0.0910 -0.2360
  757MOL0     H 2175   6.272   4.397   8.103  3.7129  2.7602 -0.4529
  757MOL0     H 2176   6.300   4.234   8.163  1.5785 -0.0854  1.1963
  757MOL0     H 2177   7.307   4.634   8.416 -2.6628  2.3619 -2.1940
  757MOL0     H 2178   7.521   4.699   8.443  0.2464  2.3724 -1.9387
  757MOL0     H 2179   7.875   4.833   8.436  1.6411 -0.4363  3.0516
  757MOL0     H 2180   8.076   4.961   8.494  1.4742 -0.7191  1.1166
  757MOL0     H 2181   9.538   4.444   9.496 -2.4958  0.0627 -1.6731
  757MOL0     H 2182   9.787   4.492   9.501  1.0086  1.0988 -0.0783
  757MOL0     H 2183  10.187   4.874   9.170  1.8083  2.9432  3.3852
  757MOL0     H 2184  10.423   4.854   9.144 -0.4155 -1.0783 -2.1508
  757MOL0     H 2185  10.566   4.450   9.239  1.9741 -1.5997 -0.7704
  757MOL0     H 2186  10.699   4.516   9.147 -1.9120 -2.0567 -1.3594
  757MOL0     H 2187  10.766   4.401   9.368 -1.4419 -0.3648  2.1767
  757MOL0     H 2188  10.654   4.522   9.440 -0.4199  3.2086 -0.9643
  757MOL0     H 2189  10.874   4.589   9.495 -0.3572 -2.9433  0.6746
  757MOL0     H 2190  10.817   4.692   9.365 -0.7386 -0.3520 -0.3452
  757MOL0     H 2191  10.959   4.581   9.187  1.0039  0.5682  0.3411
  757MOL0     H 2192  11.014   4.464   9.325 -1.1240 -0.9088  0.2315
  757MOL0     H 2193  11.252   4.801   9.371 -0.1685 -0.4910 -0.1922
  757MOL0     H 2194  10.410   4.489   9.365 -1.0006  0.8052  2.1138
  757MOL0     H 2195  10.170   4.499   9.370 -3.1567  2.1589 -0.5696
  758MOL0     O 2196   5.049  10.612   5.533 -0.0600  0.1954  0.6326
  758MOL0     C 2197   5.093  10.517   5.593 -0.7788 -0.7434 -0.0201
  758MOL0     O 2198   5.075  10.396   5.561 -0.3284 -0.6263 -0.2502
  758MOL0     C 2199   4.976  10.348   5.467  0.0091  0.6553  0.4121
  758MOL0     C 2200   4.931  10.211   5.479 -0.9116  0.2127  0.1391
  758MOL0     C 2201   4.847  10.145   5.391  0.8305  0.3928  0.3198
  758MOL0     C 2202   4.807  10.215   5.270  0.2424 -1.4334 -0.7168
  758MOL0     O 2203   4.728  10.146   5.182 -0.1957 -0.9164  0.5401
  758MOL0     C 2204   4.587  10.164   5.200 -0.3219 -0.1071 -0.2372
  758MOL0     C 2205   4.509  10.086   5.096  0.3518 -0.1936  1.0897
  758MOL0     C 2206   4.533   9.939   5.069 -0.0362 -0.3816 -0.3932
  758MOL0     C 2207   4.466   9.858   5.185 -0.6105 -0.5340  0.0344
  758MOL0     C 2208   4.505   9.709   5.164  0.2237 -0.1820  1.1747
  758MOL0     C 2209   4.469   9.635   5.283 -0.8290  1.2216 -0.2365
  758MOL0     C 2210   4.532   9.487   5.274 -0.2320 -0.4335 -0.2324
  758MOL0     C 2211   4.498   9.408   5.400  0.1568  0.6796 -1.4254
  758MOL0     N 2212   4.550   9.270   5.410  0.3517 -0.2820 -0.3838
  758MOL0     C 2213   4.584   9.180   5.311  0.5593  0.3570 -0.9951
  758MOL0     C 2214   4.627   9.064   5.377  0.6218 -0.2540  0.6684
  758MOL0     C 2215   4.673   8.927   5.318 -0.5183 -0.4879 -0.3450
  758MOL0     C 2216   4.828   8.932   5.299  0.6623 -0.4255  0.7610
  758MOL0     C 2217   4.864   8.804   5.214 -0.0307 -0.2153 -0.5072
  758MOL0     C 2218   5.012   8.789   5.185  0.4363  0.0455  0.7063
  758MOL0     O 2219   5.033   8.866   5.069  0.0661  0.5797 -0.1998
  758MOL0     C 2220   5.165   8.900   5.053  0.7645 -0.1546 -0.3557
  758MOL0     C 2221   5.278   8.852   5.121 -0.8020 -0.2007  0.3675
  758MOL0     C 2222   5.404   8.908   5.108 -0.6709  0.6064  0.5495
  758MOL0     C 2223   5.519   8.849   5.180 -0.6205 -0.7891 -0.3197
  758MOL0     C 2224   5.426   9.018   5.022  0.1057 -0.2550  0.2351
  758MOL0     C 2225   5.553   9.088   4.998 -0.6717 -0.0503 -0.5723
  758MOL0     O 2226   5.641   9.082   5.095  0.1398 -0.0798 -0.7038
  758MOL0     C 2227   5.766   9.134   5.070 -1.0234 -0.6697  0.1671
  758MOL0     C 2228   5.791   9.270   5.087 -0.4348 -0.4514  0.2780
  758MOL0     C 2229   5.916   9.320   5.056 -0.4331 -0.6143  0.0147
  758MOL0     C 2230   6.017   9.240   5.006  0.1108  0.1199  0.4785
  758MOL0     O 2231   6.140   9.280   4.955 -0.1274 -0.0109 -0.6816
  758MOL0     C 2232   6.148   9.420   4.938  0.8775  0.3020 -0.0845
  758MOL0     C 2233   6.270   9.469   4.861  0.2335 -0.0441  0.1930
  758MOL0     C 2234   6.256   9.450   4.708 -0.1255  0.6698  1.1565
  758MOL0     C 2235   6.392   9.486   4.655 -0.4086 -0.3523  0.2400
  758MOL0     C 2236   6.390   9.487   4.499 -0.5264  0.1940 -0.8168
  758MOL0     C 2237   6.386   9.347   4.430 -0.5936 -0.8099  0.9134
  758MOL0     C 2238   6.418   9.372   4.278 -0.1748  0.2799  0.1107
  758MOL0     C 2239   6.319   9.462   4.204 -0.1399  0.0899  0.2239
  758MOL0    Cl 2240   6.161   9.397   4.253 -0.1667 -0.0643  0.1889
  758MOL0     C 2241   5.988   9.097   4.993  0.7911 -0.4317  0.2898
  758MOL0     C 2242   5.863   9.044   5.029 -0.0174 -0.1962 -0.3606
  758MOL0     O 2243   5.574   9.126   4.879  0.3376  0.2321  0.2441
  758MOL0     C 2244   5.312   9.072   4.961  0.2672  0.4576  0.5703
  758MOL0     C 2245   5.185   9.018   4.978 -0.1485 -0.9023 -0.3270
  758MOL0     N 2246   4.621   9.095   5.515 -0.5164  1.1558  0.8667
  758MOL0     N 2247   4.576   9.214   5.526 -0.1304 -0.4861 -0.4343
  758MOL0     C 2248   4.847  10.344   5.256  0.2770 -0.0970 -0.2264
  758MOL0     C 2249   4.934  10.413   5.350  0.2612 -0.1831  0.7660
  758MOL0     C 2250   5.193  10.537   5.699  0.4186 -1.1339  0.1631
  758MOL0     C 2251   5.245  10.666   5.732 -0.2134 -0.3033 -0.8020
  758MOL0     C 2252   5.333  10.689   5.842 -0.3196  0.0987 -0.2965
  758MOL0     C 2253   5.384  10.579   5.913 -0.4989 -0.9213 -0.8194
  758MOL0     O 2254   5.471  10.609   6.011  0.4192 -0.1890 -0.0814
  758MOL0     C 2255   5.597  10.545   6.011  0.1424 -0.3517  0.0274
  758MOL0     C 2256   5.670  10.538   5.877 -0.2793  0.2119  0.3710
  758MOL0     C 2257   5.815  10.507   5.903  0.0555 -0.3319  1.0735
  758MOL0     C 2258   5.880  10.479   5.773  0.2548 -0.3199  0.2272
  758MOL0     C 2259   6.027  10.502   5.781 -0.1302  0.0779 -0.5405
  758MOL0     C 2260   6.143  10.522   5.808  0.0379  0.3186 -0.2432
  758MOL0     C 2261   5.341  10.453   5.883 -0.5359 -0.4418 -0.0965
  758MOL0     C 2262   5.255  10.432   5.771  0.7381 -0.3121  0.3296
  758MOL0     H 2263   4.970  10.152   5.562 -2.2401  2.0030  2.1366
  758MOL0     H 2264   4.812  10.044   5.408  0.5231  0.0984 -1.7538
  758MOL0     H 2265   4.555  10.137   5.301  0.5912 -2.4951 -0.5150
  758MOL0     H 2266   4.556  10.268   5.188 -1.7423 -0.1719  2.2704
  758MOL0     H 2267   4.402  10.103   5.115  0.4069  1.4389  0.1489
  758MOL0     H 2268   4.521  10.142   5.003  0.0129  0.0032  1.1597
  758MOL0     H 2269   4.487   9.920   4.972  2.0080  3.9475 -2.4466
  758MOL0     H 2270   4.641   9.925   5.062  0.4938  3.0945 -1.2758
  758MOL0     H 2271   4.509   9.906   5.273  0.2406 -1.5763  0.2198
  758MOL0     H 2272   4.360   9.882   5.190 -0.0457  2.0743  2.6433
  758MOL0     H 2273   4.444   9.670   5.082  3.0852 -1.0262 -0.7415
  758MOL0     H 2274   4.610   9.704   5.131  0.3739  1.1539  1.3823
  758MOL0     H 2275   4.502   9.680   5.377  0.6244 -1.2001  0.5080
  758MOL0     H 2276   4.361   9.634   5.293 -0.7685 -0.2422  0.4648
  758MOL0     H 2277   4.509   9.437   5.180  0.8324 -2.3543  0.4797
  758MOL0     H 2278   4.641   9.499   5.265 -0.4402  0.5608 -1.7464
  758MOL0     H 2279   4.389   9.397   5.397  0.1636 -1.6988  1.4336
  758MOL0     H 2280   4.520   9.457   5.495  1.0253 -0.2268 -1.1412
  758MOL0     H 2281   4.587   9.190   5.203  1.4840 -2.5519 -1.3237
  758MOL0     H 2282   4.651   8.845   5.386 -2.7940  0.4347  0.1295
  758MOL0     H 2283   4.611   8.921   5.228 -2.6812 -3.3864  1.1791
  758MOL0     H 2284   4.885   8.944   5.392  0.9545  1.6342  0.3824
  758MOL0     H 2285   4.844   9.018   5.232  0.6606 -1.9452 -1.2719
  758MOL0     H 2286   4.810   8.820   5.120 -1.0859  0.8029  0.2488
  758MOL0     H 2287   4.830   8.715   5.268  0.3309  1.1694  2.1362
  758MOL0     H 2288   5.040   8.687   5.158  3.3410  1.2934 -1.4395
  758MOL0     H 2289   5.066   8.828   5.272 -1.3317 -3.0272  3.3986
  758MOL0     H 2290   5.260   8.760   5.176 -2.1759  1.0465  2.1227
  758MOL0     H 2291   5.553   8.922   5.254  1.9797 -1.1249 -1.1114
  758MOL0     H 2292   5.491   8.760   5.237  0.0611  0.8778  2.8808
  758MOL0     H 2293   5.598   8.825   5.109 -1.4185 -0.9892 -1.1553
  758MOL0     H 2294   5.713   9.334   5.128 -0.0758 -0.5673  1.1487
  758MOL0     H 2295   5.937   9.426   5.060 -0.5180 -0.6220  0.8640
  758MOL0     H 2296   6.052   9.436   4.888  0.1051 -1.7548  0.6045
  758MOL0     H 2297   6.136   9.471   5.034 -0.4204 -0.0730 -0.0253
  758MOL0     H 2298   6.271   9.578   4.874 -1.1196 -0.1332  1.2332
  758MOL0     H 2299   6.362   9.422   4.898  0.9969  2.1994  1.3146
  758MOL0     H 2300   6.188   9.521   4.661  1.2330  0.4294 -1.3580
  758MOL0     H 2301   6.244   9.344   4.684 -0.6094  1.0030 -0.1338
  758MOL0     H 2302   6.428   9.582   4.694  1.0368 -0.7663 -0.0364
  758MOL0     H 2303   6.464   9.417   4.698  1.3440  2.0299  1.3682
  758MOL0     H 2304   6.477   9.549   4.479  1.0167 -1.0931  1.5144
  758MOL0     H 2305   6.297   9.538   4.469 -1.6793 -0.8484  0.7829
  758MOL0     H 2306   6.455   9.268   4.460  1.3699 -0.1117 -1.3913
  758MOL0     H 2307   6.291   9.296   4.447  0.1980 -2.3699  0.8799
  758MOL0     H 2308   6.408   9.276   4.227  1.7781  1.2521 -2.3199
  758MOL0     H 2309   6.522   9.403   4.263 -1.0921  2.4336 -2.8411
  758MOL0     H 2310   6.341   9.434   4.101 -0.1145 -2.0300  0.7597
  758MOL0     H 2311   6.320   9.571   4.215  0.0082  0.4753 -2.7617
  758MOL0     H 2312   6.064   9.027   4.959  0.2532  0.3353 -2.8325
  758MOL0     H 2313   5.840   8.941   5.007 -1.3352 -0.0315  0.1129
  758MOL0     H 2314   5.310   9.156   4.891 -0.6958  2.3319  2.7355
  758MOL0     H 2315   5.100   9.071   4.937  0.2644 -1.3884 -1.8835
  758MOL0     H 2316   4.811  10.392   5.166  2.6627  1.8315 -0.2647
  758MOL0     H 2317   4.965  10.516   5.333  1.0337 -0.5846 -0.4820
  758MOL0     H 2318   5.208  10.741   5.663 -0.3311  0.2898 -0.1126
  758MOL0     H 2319   5.367  10.789   5.866  3.4274 -1.4635  1.8105
  758MOL0     H 2320   5.666  10.594   6.080  2.5572 -1.8175 -1.2321
  758MOL0     H 2321   5.592  10.442   6.049  2.7592  0.1466  2.0306
  758MOL0     H 2322   5.660  10.630   5.819  1.3606  2.5076  3.4364
  758MOL0     H 2323   5.632  10.451   5.823  1.2073  0.2374 -0.7917
  758MOL0     H 2324   5.833  10.423   5.970  1.2959 -1.5870 -0.7248
  758MOL0     H 2325   5.853  10.597   5.952  1.4223  2.4552 -4.2357
  758MOL0     H 2326   5.844  10.535   5.686 -0.8828 -0.8612  0.3369
  758MOL0     H 2327   5.854  10.375   5.753  0.4986 -0.3347 -0.0206
  758MOL0     H 2328   6.240  10.538   5.850 -0.1152 -0.4887  0.4612
  758MOL0     H 2329   5.383  10.363   5.928  0.2526 -0.5155 -0.9504
  758MOL0     H 2330   5.247  10.325   5.755  2.1086 -0.2422 -1.1754
  759MOL0     O 2331   5.337   4.874   8.807 -0.5820  0.5810 -0.1615
  759MOL0     C 2332   5.407   4.769   8.793 -0.4309  0.2966  0.0324
  759MOL0     O 2333   5.379   4.672   8.701 -0.2127  0.4001  0.1339
  759MOL0     C 2334   5.251   4.661   8.653 -0.1491 -0.3809  0.0277
  759MOL0     C 2335   5.142   4.654   8.738 -0.8175  0.1552  0.5310
  759MOL0     C 2336   5.015   4.631   8.685  0.8052  0.1242  0.7584
  759MOL0     C 2337   5.004   4.612   8.548  0.4505 -0.2547 -0.1935
  759MOL0     O 2338   4.887   4.576   8.492  1.0501  0.0105  0.2759
  759MOL0     C 2339   4.825   4.676   8.405 -0.0520 -0.2585  1.0695
  759MOL0     C 2340   4.681   4.628   8.379 -0.1037  0.4277  0.2702
  759MOL0     C 2341   4.580   4.649   8.490 -0.4499  0.6094  1.5545
  759MOL0     C 2342   4.440   4.602   8.462  0.1199 -0.2059  0.7523
  759MOL0     C 2343   4.353   4.631   8.579 -0.3033  0.4469  0.5252
  759MOL0     C 2344   4.214   4.589   8.549  0.0757 -0.9613  0.6161
  759MOL0     C 2345   4.110   4.615   8.667  0.2527  0.3911 -0.1357
  759MOL0     C 2346   4.134   4.535   8.790 -0.0304  0.0448  0.0984
  759MOL0     N 2347   4.006   4.510   8.862 -0.4636  0.0046 -0.3410
  759MOL0     C 2348   3.954   4.596   8.957 -0.2066  0.3728  1.2630
  759MOL0     C 2349   3.847   4.528   9.008  0.0190 -0.1607  0.8466
  759MOL0     C 2350   3.758   4.592   9.109 -0.8607 -0.7091  0.1270
  759MOL0     C 2351   3.626   4.634   9.060  0.3071 -0.0707  0.8047
  759MOL0     C 2352   3.534   4.524   9.015  0.5096  0.6864  0.4214
  759MOL0     C 2353   3.410   4.566   8.943  0.5366  0.1290  0.1149
  759MOL0     O 2354   3.445   4.657   8.836 -0.6654  0.2670  0.0558
  759MOL0     C 2355   3.344   4.702   8.753  0.3034 -0.0900  0.3278
  759MOL0     C 2356   3.378   4.792   8.665 -0.5101 -0.2566 -0.0936
  759MOL0     C 2357   3.291   4.861   8.590  0.0433 -0.9700  0.4543
  759MOL0     C 2358   3.354   4.957   8.482 -0.3506  0.6721 -0.1895
  759MOL0     C 2359   3.151   4.841   8.604 -0.2258  0.0447 -0.2062
  759MOL0     C 2360   3.048   4.927   8.540  1.0992  0.8889 -0.4833
  759MOL0     O 2361   2.926   4.908   8.592  0.2407 -0.1015 -0.2869
  759MOL0     C 2362   2.826   5.008   8.575 -0.0859 -1.0565 -0.8271
  759MOL0     C 2363   2.838   5.141   8.622  0.7358 -0.3556 -1.0479
  759MOL0     C 2364   2.718   5.221   8.633 -0.3051  0.3191  0.4043
  759MOL0     C 2365   2.596   5.174   8.591 -0.4772  0.8808 -0.9714
  759MOL0     O 2366   2.496   5.265   8.593  0.0182 -0.2339 -0.3342
  759MOL0     C 2367   2.411   5.259   8.481 -0.2777 -0.1169 -0.3489
  759MOL0     C 2368   2.324   5.389   8.474 -0.0178 -1.1131 -0.2206
  759MOL0     C 2369   2.262   5.443   8.606  0.0184 -0.3219 -0.3869
  759MOL0     C 2370   2.170   5.333   8.666  0.2011 -0.1499  0.5712
  759MOL0     C 2371   2.094   5.369   8.791 -0.0121  0.3058 -0.5341
  759MOL0     C 2372   1.992   5.486   8.763  0.8085  0.3922  0.0919
  759MOL0     C 2373   1.862   5.442   8.688  0.3878  0.3481  0.4848
  759MOL0     C 2374   1.779   5.557   8.629  0.0576  0.0287  0.9354
  759MOL0    Cl 2375   1.629   5.497   8.550 -0.4403 -0.1520 -0.2776
  759MOL0     C 2376   2.592   5.046   8.531  0.3462  0.4005 -1.1057
  759MOL0     C 2377   2.699   4.957   8.538  0.4054  0.2061 -0.4376
  759MOL0     O 2378   3.078   5.018   8.458 -0.0720  0.0306 -0.8408
  759MOL0     C 2379   3.112   4.747   8.700  0.2415  0.6432  0.1191
  759MOL0     C 2380   3.208   4.671   8.775  0.2025  0.0088 -0.5458
  759MOL0     N 2381   3.842   4.401   8.945  0.9271 -0.1661  0.2757
  759MOL0     N 2382   3.930   4.404   8.856 -0.7279  0.4625 -0.6009
  759MOL0     C 2383   5.111   4.603   8.467  0.5334  1.0217 -0.4085
  759MOL0     C 2384   5.240   4.634   8.519 -0.2219 -0.0453 -0.2062
  759MOL0     C 2385   5.525   4.754   8.881 -1.2650  0.4964 -0.4370
  759MOL0     C 2386   5.554   4.847   8.985 -0.6604 -0.3854  0.4544
  759MOL0     C 2387   5.674   4.830   9.055  0.8773 -0.6338 -0.7232
  759MOL0     C 2388   5.768   4.729   9.034  0.4579 -0.4184  0.4233
  759MOL0     O 2389   5.872   4.704   9.116 -0.4651 -0.3860  0.9418
  759MOL0     C 2390   5.934   4.810   9.186 -1.0292  0.1493  1.0828
  759MOL0     C 2391   6.086   4.782   9.202 -0.7373  0.1386  0.1486
  759MOL0     C 2392   6.142   4.850   9.331  0.5467  0.0761 -0.6409
  759MOL0     C 2393   6.291   4.865   9.338 -0.2547 -0.4837 -0.3002
  759MOL0     C 2394   6.317   4.955   9.452  0.3197 -0.5467  0.0970
  759MOL0     C 2395   6.325   5.030   9.545  0.6287  0.5356  0.1570
  759MOL0     C 2396   5.740   4.637   8.936 -0.1113 -1.0319  0.0587
  759MOL0     C 2397   5.615   4.642   8.856  0.0622  0.3868 -0.7793
  759MOL0     H 2398   5.167   4.669   8.842  1.8306  1.1184 -0.1750
  759MOL0     H 2399   4.934   4.620   8.757  0.7849  1.5514  0.9867
  759MOL0     H 2400   4.822   4.776   8.450  2.6420  0.2121  0.3715
  759MOL0     H 2401   4.886   4.683   8.315  0.2428  1.5772  1.3768
  759MOL0     H 2402   4.641   4.692   8.300 -0.2658  1.2657  1.0161
  759MOL0     H 2403   4.677   4.528   8.335 -0.3560 -0.1217  1.5011
  759MOL0     H 2404   4.617   4.594   8.577  3.8037 -1.4266 -1.2055
  759MOL0     H 2405   4.586   4.757   8.506 -2.6193  1.0653 -0.1785
  759MOL0     H 2406   4.403   4.667   8.382  1.7349 -0.0888  0.0486
  759MOL0     H 2407   4.439   4.495   8.442 -0.7453  0.0145 -0.4891
  759MOL0     H 2408   4.393   4.584   8.670  1.9275  3.0494  1.0270
  759MOL0     H 2409   4.362   4.740   8.587  1.8969  0.4494 -0.9553
  759MOL0     H 2410   4.181   4.646   8.462  1.4681 -1.4967 -0.2896
  759MOL0     H 2411   4.208   4.483   8.525 -4.3659 -1.2524  2.0479
  759MOL0     H 2412   4.118   4.720   8.696 -3.3270  0.8092 -0.2520
  759MOL0     H 2413   4.004   4.605   8.644 -0.2215  1.3782  1.4428
  759MOL0     H 2414   4.196   4.589   8.862 -0.1316 -0.0750  0.2754
  759MOL0     H 2415   4.188   4.444   8.762  3.5741  1.2432  2.5249
  759MOL0     H 2416   4.009   4.682   8.993  2.6082  0.7071 -3.0606
  759MOL0     H 2417   3.740   4.520   9.190 -4.8006 -0.8489 -0.6897
  759MOL0     H 2418   3.814   4.671   9.161  3.3867 -3.7500  0.7108
  759MOL0     H 2419   3.649   4.709   8.984  0.2406  0.3406  1.1854
  759MOL0     H 2420   3.572   4.693   9.134  0.5924  1.5737 -0.2511
  759MOL0     H 2421   3.527   4.457   9.101 -0.6097  0.5297  0.2305
  759MOL0     H 2422   3.582   4.457   8.943 -0.0556  0.5236  0.1852
  759MOL0     H 2423   3.340   4.610   9.015  0.2483 -0.7520  0.3831
  759MOL0     H 2424   3.354   4.484   8.897 -1.6124  0.3877  2.0759
  759MOL0     H 2425   3.486   4.806   8.661 -0.3978 -0.9032  0.4973
  759MOL0     H 2426   3.463   4.951   8.480 -0.3662 -2.4097  1.6918
  759MOL0     H 2427   3.310   4.958   8.382  0.8523 -0.4908 -0.7593
  759MOL0     H 2428   3.343   5.058   8.522  2.1222  1.7076 -1.9125
  759MOL0     H 2429   2.930   5.181   8.664 -1.3426  3.5519  0.3171
  759MOL0     H 2430   2.729   5.316   8.685  2.2304  1.3254 -1.7083
  759MOL0     H 2431   2.466   5.269   8.387 -3.9784  0.5474 -2.6654
  759MOL0     H 2432   2.342   5.174   8.471  0.5302 -0.8604  0.3154
  759MOL0     H 2433   2.389   5.474   8.451 -0.9644 -0.5439 -0.8702
  759MOL0     H 2434   2.244   5.368   8.403 -0.4624  5.3495 -2.2918
  759MOL0     H 2435   2.201   5.527   8.571 -2.5600 -0.5555  3.0489
  759MOL0     H 2436   2.334   5.467   8.684 -0.5588 -0.5530  0.2258
  759MOL0     H 2437   2.094   5.309   8.592 -1.5224  1.0572  1.8764
  759MOL0     H 2438   2.229   5.244   8.692 -0.4917  0.1258  3.3839
  759MOL0     H 2439   2.169   5.407   8.861 -0.2624  2.3677 -1.3364
  759MOL0     H 2440   2.041   5.279   8.825  1.6788 -0.6573 -0.3727
  759MOL0     H 2441   1.949   5.514   8.860  0.3446 -0.2649  0.0792
  759MOL0     H 2442   2.040   5.570   8.712 -0.0491 -0.1789 -1.7262
  759MOL0     H 2443   1.808   5.390   8.768  0.1710 -2.9787 -1.6314
  759MOL0     H 2444   1.883   5.373   8.606 -0.9363 -0.7495  1.0253
  759MOL0     H 2445   1.841   5.614   8.560 -2.6050  0.5650 -1.1780
  759MOL0     H 2446   1.748   5.634   8.700  2.4712  2.0895 -0.1090
  759MOL0     H 2447   2.495   5.003   8.511  0.8086 -1.1355 -0.2918
  759MOL0     H 2448   2.716   4.852   8.518  1.2835  0.3374 -0.3905
  759MOL0     H 2449   3.011   4.719   8.725  0.7129 -1.2620  0.0658
  759MOL0     H 2450   3.170   4.613   8.858 -0.0896  0.5873 -0.2652
  759MOL0     H 2451   5.096   4.588   8.361  1.8460  1.9379 -0.7424
  759MOL0     H 2452   5.324   4.629   8.451  0.6959 -2.0940  0.9775
  759MOL0     H 2453   5.483   4.927   9.006 -1.5450 -0.8396 -0.6980
  759MOL0     H 2454   5.684   4.905   9.133 -2.6844 -0.8517  0.0733
  759MOL0     H 2455   5.915   4.907   9.139 -0.9819 -1.6127 -2.9457
  759MOL0     H 2456   5.891   4.815   9.287 -0.8906 -0.3644  1.1683
  759MOL0     H 2457   6.133   4.826   9.114 -0.5619  2.3955  1.3199
  759MOL0     H 2458   6.106   4.674   9.208 -1.2589  0.0714  0.8464
  759MOL0     H 2459   6.109   4.798   9.421 -1.0042 -2.0675 -2.3241
  759MOL0     H 2460   6.105   4.953   9.335  2.3369  0.7052  1.2997
  759MOL0     H 2461   6.335   4.915   9.252  0.5487  1.6684  1.2600
  759MOL0     H 2462   6.335   4.765   9.350 -0.5405 -0.6784 -0.8641
  759MOL0     H 2463   6.320   5.097   9.629 -1.7904  1.0200 -0.3058
  759MOL0     H 2464   5.807   4.551   8.936 -1.1942 -1.9115  1.3691
  759MOL0     H 2465   5.593   4.563   8.785  0.0231 -1.4135  1.1522
  760MOL0     O 2466   9.828   6.289   9.338 -0.3157 -0.0260 -0.1227
  760MOL0     C 2467   9.805   6.239   9.449 -0.9732 -0.4650 -0.0276
  760MOL0     O 2468   9.694   6.170   9.477 -0.0170  0.2123  0.1893
  760MOL0     C 2469   9.605   6.145   9.375  0.3444 -0.3490 -0.5024
  760MOL0     C 2470   9.586   6.011   9.349 -0.3160  0.1235  0.1123
  760MOL0     C 2471   9.484   5.981   9.252  0.1732  0.4951 -0.6453
  760MOL0     C 2472   9.404   6.076   9.197 -0.9516 -0.4012  0.1330
  760MOL0     O 2473   9.297   6.052   9.113  0.0641 -0.2592 -0.0779
  760MOL0     C 2474   9.226   5.933   9.131  0.7031 -0.2432  0.0150
  760MOL0     C 2475   9.113   5.927   9.030 -0.6393 -0.4516 -0.2367
  760MOL0     C 2476   9.030   5.795   9.047 -0.2541  0.3185 -0.0885
  760MOL0     C 2477   8.965   5.786   9.185  0.3654  0.0185 -0.0975
  760MOL0     C 2478   8.843   5.691   9.176  0.6223 -0.0258  0.7630
  760MOL0     C 2479   8.774   5.669   9.315  0.3225 -0.1499  0.4865
  760MOL0     C 2480   8.694   5.790   9.355 -0.1119 -0.5936 -0.3020
  760MOL0     C 2481   8.642   5.779   9.499 -0.2901  0.4810  0.2671
  760MOL0     N 2482   8.536   5.674   9.521 -0.3212 -0.5393  0.0411
  760MOL0     C 2483   8.401   5.706   9.509 -0.5414  1.0089  0.0878
  760MOL0     C 2484   8.337   5.589   9.520  0.9909  0.0568 -0.2371
  760MOL0     C 2485   8.194   5.570   9.503 -0.3139 -0.3164 -0.0495
  760MOL0     C 2486   8.106   5.688   9.560  0.1286  0.7391  0.2759
  760MOL0     C 2487   8.128   5.703   9.711  0.4190  0.3122  0.9270
  760MOL0     C 2488   7.994   5.776   9.770  0.7998  1.0269  0.7059
  760MOL0     O 2489   7.902   5.676   9.805 -0.1609 -0.1562  0.1006
  760MOL0     C 2490   7.779   5.726   9.815 -0.0193 -0.5095  0.3435
  760MOL0     C 2491   7.713   5.760   9.695 -0.0650 -0.2583 -0.1275
  760MOL0     C 2492   7.585   5.806   9.691 -0.1577  0.4641 -0.6468
  760MOL0     C 2493   7.527   5.847   9.553 -0.2659  0.4898  0.1613
  760MOL0     C 2494   7.515   5.828   9.813  0.3709 -0.6013  0.0587
  760MOL0     C 2495   7.397   5.913   9.821 -0.5693  0.6955 -0.3076
  760MOL0     O 2496   7.386   6.019   9.737  0.0449  0.2235  0.1995
  760MOL0     C 2497   7.255   6.073   9.720 -0.4620 -0.0599  0.8569
  760MOL0     C 2498   7.152   5.991   9.658 -0.4029  0.1269 -0.8727
  760MOL0     C 2499   7.021   6.040   9.646 -0.4683  0.3257  0.3234
  760MOL0     C 2500   6.988   6.170   9.686  0.4822  0.8582 -0.2196
  760MOL0     O 2501   6.863   6.224   9.683  0.5172  0.7623 -0.9036
  760MOL0     C 2502   6.781   6.197   9.574 -1.4069 -0.3034 -0.2832
  760MOL0     C 2503   6.654   6.264   9.596  0.1562 -0.3619  0.5818
  760MOL0     C 2504   6.552   6.210   9.493 -0.3778 -0.3997  0.4611
  760MOL0     C 2505   6.438   6.305   9.505  0.0850 -0.5017  0.0672
  760MOL0     C 2506   6.341   6.268   9.398  0.6364  0.1375 -0.1748
  760MOL0     C 2507   6.208   6.329   9.432  0.5694  0.0115 -0.0411
  760MOL0     C 2508   6.130   6.371   9.300  0.1389  0.5007 -0.7179
  760MOL0     C 2509   5.987   6.392   9.332  0.1748 -0.1509 -1.3317
  760MOL0    Cl 2510   5.897   6.246   9.360  0.1473  0.3126  0.1047
  760MOL0     C 2511   7.079   6.244   9.756  0.4524  0.0289  0.1227
  760MOL0     C 2512   7.216   6.198   9.765 -0.3038  0.8168 -0.8245
  760MOL0     O 2513   7.311   5.892   9.908  0.1518  0.6779 -0.2844
  760MOL0     C 2514   7.591   5.807   9.935  0.5980  0.4566  0.2850
  760MOL0     C 2515   7.714   5.740   9.938  0.2693  0.6364  0.1075
  760MOL0     N 2516   8.429   5.486   9.533  0.2213  0.2282  0.4310
  760MOL0     N 2517   8.548   5.540   9.549 -0.4292  0.0204 -0.0427
  760MOL0     C 2518   9.440   6.204   9.203 -0.1221  0.1312 -0.4902
  760MOL0     C 2519   9.528   6.243   9.310 -1.2674  0.1368 -0.0797
  760MOL0     C 2520   9.900   6.269   9.569 -0.3575 -0.1394  0.8132
  760MOL0     C 2521  10.008   6.356   9.558 -0.3034  0.2344 -0.5158
  760MOL0     C 2522  10.093   6.383   9.679  0.9666  0.1617 -0.7580
  760MOL0     C 2523  10.056   6.324   9.802  0.1783 -0.0560 -0.0102
  760MOL0     O 2524  10.116   6.337   9.914 -0.1153  0.1273 -1.2657
  760MOL0     C 2525  10.234   6.416   9.928 -0.7585 -0.2916 -0.2546
  760MOL0     C 2526  10.265   6.404  10.080 -0.3134  0.4975 -0.7161
  760MOL0     C 2527  10.411   6.417  10.112  0.0873  0.3349 -0.0671
  760MOL0     C 2528  10.476   6.541  10.058 -0.3663 -0.8184 -0.3752
  760MOL0     C 2529  10.543   6.531   9.930 -0.6374  0.1823 -0.9325
  760MOL0     C 2530  10.598   6.532   9.822 -0.3540 -0.0731  0.4110
  760MOL0     C 2531   9.942   6.240   9.800 -0.0169 -0.8281  0.5916
  760MOL0     C 2532   9.861   6.219   9.692 -0.3592 -0.1015  0.6610
  760MOL0     H 2533   9.641   5.933   9.400  0.5330  0.5159 -0.1761
  760MOL0     H 2534   9.452   5.880   9.227  1.3781  0.4563 -2.1886
  760MOL0     H 2535   9.280   5.839   9.116 -0.7252 -0.9219 -1.1776
  760MOL0     H 2536   9.192   5.925   9.235  1.9997 -0.3070  0.4497
  760MOL0     H 2537   9.044   6.012   9.034 -0.7129 -0.4664 -1.0867
  760MOL0     H 2538   9.165   5.933   8.934  0.0506  0.4755  0.1857
  760MOL0     H 2539   8.946   5.791   8.976 -1.6811 -2.0968  1.5810
  760MOL0     H 2540   9.089   5.706   9.021 -0.0618  0.5983 -0.6265
  760MOL0     H 2541   9.030   5.752   9.266 -0.2818  0.1111  0.4692
  760MOL0     H 2542   8.938   5.888   9.213 -2.0984 -0.2971 -1.1047
  760MOL0     H 2543   8.763   5.723   9.108 -2.2560 -2.4852  2.7136
  760MOL0     H 2544   8.872   5.594   9.135 -1.6958 -0.5187  0.1189
  760MOL0     H 2545   8.710   5.581   9.305 -0.0214  0.0187  1.1575
  760MOL0     H 2546   8.852   5.640   9.387  1.3587 -0.0627 -0.5690
  760MOL0     H 2547   8.760   5.877   9.351 -0.4296 -0.3495 -0.3655
  760MOL0     H 2548   8.603   5.802   9.294 -0.2029 -4.0723 -1.0535
  760MOL0     H 2549   8.610   5.874   9.543  0.9087  0.5883  0.9513
  760MOL0     H 2550   8.733   5.758   9.557  1.2947  2.1236 -1.5064
  760MOL0     H 2551   8.359   5.805   9.503  0.2967  1.5568  2.2986
  760MOL0     H 2552   8.172   5.547   9.398  2.3035 -3.5746 -0.0662
  760MOL0     H 2553   8.165   5.478   9.555  0.0550 -0.9457 -0.9266
  760MOL0     H 2554   8.004   5.659   9.534  0.5976 -0.2746 -0.5193
  760MOL0     H 2555   8.130   5.784   9.514  0.5410 -0.5657 -2.4819
  760MOL0     H 2556   8.217   5.764   9.729  0.3496  0.7739 -0.2446
  760MOL0     H 2557   8.150   5.607   9.761  2.9734  0.6603  0.6360
  760MOL0     H 2558   7.946   5.841   9.697  1.7941  0.6208 -0.3425
  760MOL0     H 2559   8.023   5.833   9.859 -2.4134  2.5574  0.9154
  760MOL0     H 2560   7.756   5.714   9.606  0.8425 -0.9664  0.6502
  760MOL0     H 2561   7.432   5.802   9.525 -0.4800  1.7327 -1.2644
  760MOL0     H 2562   7.510   5.955   9.557 -0.1746  0.4691  1.4189
  760MOL0     H 2563   7.587   5.822   9.464 -1.0660  1.9688 -0.8358
  760MOL0     H 2564   7.178   5.890   9.627 -1.5980  0.0841 -1.8630
  760MOL0     H 2565   6.952   5.965   9.608 -2.5302  1.3056  1.9075
  760MOL0     H 2566   6.828   6.236   9.484  1.2349 -0.1300  1.0702
  760MOL0     H 2567   6.759   6.090   9.563 -2.8624 -0.1360  0.6439
  760MOL0     H 2568   6.608   6.263   9.695 -1.1670 -0.4433 -0.0169
  760MOL0     H 2569   6.686   6.365   9.568 -0.3886 -0.5891 -0.9874
  760MOL0     H 2570   6.510   6.113   9.522 -2.2238  0.6480  1.4947
  760MOL0     H 2571   6.593   6.206   9.392 -1.0623  2.6230 -0.0206
  760MOL0     H 2572   6.391   6.311   9.603 -0.7495  0.4740 -0.3741
  760MOL0     H 2573   6.479   6.403   9.481  0.6684 -0.2560  1.9406
  760MOL0     H 2574   6.315   6.162   9.391 -4.3563  1.2204 -2.8024
  760MOL0     H 2575   6.382   6.302   9.303  0.0809  2.0589  0.2325
  760MOL0     H 2576   6.145   6.262   9.492 -0.3791  0.1861 -0.8184
  760MOL0     H 2577   6.226   6.425   9.480  1.2354  2.4625 -4.6156
  760MOL0     H 2578   6.134   6.285   9.233 -1.0044 -0.4175  0.3548
  760MOL0     H 2579   6.170   6.460   9.251  2.8197 -0.2013  0.0082
  760MOL0     H 2580   5.942   6.446   9.248 -2.5973  1.0566  0.7798
  760MOL0     H 2581   5.971   6.465   9.411  0.7280 -0.2652 -1.1100
  760MOL0     H 2582   7.050   6.340   9.797  0.2014  1.7907 -3.7387
  760MOL0     H 2583   7.294   6.248   9.821  1.6375 -2.6478 -0.1731
  760MOL0     H 2584   7.534   5.847  10.019 -0.1147  0.0655 -0.0007
  760MOL0     H 2585   7.763   5.690  10.020 -1.1612 -1.1039 -0.0457
  760MOL0     H 2586   9.394   6.286   9.150  1.6669  0.7080 -1.2202
  760MOL0     H 2587   9.563   6.344   9.329  2.6170 -1.2963  1.1909
  760MOL0     H 2588  10.027   6.405   9.463 -3.2233  3.9292  0.5737
  760MOL0     H 2589  10.178   6.450   9.671 -0.0790  1.9374  1.6162
  760MOL0     H 2590  10.314   6.380   9.862  2.1935  0.0084  2.8906
  760MOL0     H 2591  10.216   6.522   9.908  2.2157  1.4480  4.4381
  760MOL0     H 2592  10.239   6.300  10.102  1.4424 -0.1836 -1.7087
  760MOL0     H 2593  10.207   6.472  10.144 -2.3205 -1.3955 -0.4018
  760MOL0     H 2594  10.476   6.334  10.084  1.2298  0.5989  1.6481
  760MOL0     H 2595  10.425   6.432  10.219 -0.4702  2.2956 -0.2144
  760MOL0     H 2596  10.552   6.569  10.131 -1.4496 -0.1132  0.5168
  760MOL0     H 2597  10.406   6.625  10.046  1.7567  0.9154 -1.3348
  760MOL0     H 2598  10.663   6.524   9.737  2.2500  0.2802  2.2233
  760MOL0     H 2599   9.914   6.195   9.895 -0.0611  1.6554  1.8317
  760MOL0     H 2600   9.766   6.167   9.703 -2.6231  2.1173 -4.9268
  761MOL0     O 2601   9.550   4.366   5.241 -0.7914  0.5207 -0.0201
  761MOL0     C 2602   9.646   4.437   5.208 -0.5135  0.3495 -0.2165
  761MOL0     O 2603   9.662   4.572   5.220 -0.4944 -0.0952  0.4624
  761MOL0     C 2604   9.546   4.643   5.205  0.8310  0.4710 -0.4123
  761MOL0     C 2605   9.445   4.640   5.306  0.4328 -0.5795  0.2841
  761MOL0     C 2606   9.318   4.702   5.285 -0.1169  0.0020 -0.5797
  761MOL0     C 2607   9.290   4.749   5.159 -1.0723  0.1763  0.3821
  761MOL0     O 2608   9.178   4.817   5.121 -0.1803 -0.4339 -0.0739
  761MOL0     C 2609   9.066   4.819   5.216 -0.0719 -0.6738  0.0065
  761MOL0     C 2610   8.939   4.839   5.127 -0.6227 -0.3899  0.1460
  761MOL0     C 2611   8.810   4.820   5.204 -1.3929 -0.0813  0.2143
  761MOL0     C 2612   8.698   4.828   5.099 -0.1686  0.4210 -0.1898
  761MOL0     C 2613   8.559   4.829   5.172  0.9477  0.5234 -0.5215
  761MOL0     C 2614   8.444   4.809   5.075  0.6608 -0.1569 -0.2330
  761MOL0     C 2615   8.312   4.808   5.143 -0.1895  0.4416 -0.6750
  761MOL0     C 2616   8.300   4.704   5.251 -0.1665  0.0614  0.1786
  761MOL0     N 2617   8.165   4.661   5.269  0.6853 -0.3492  0.1061
  761MOL0     C 2618   8.115   4.537   5.292 -0.1553 -0.3898 -0.8792
  761MOL0     C 2619   7.997   4.570   5.361 -0.5611  0.6661  0.9192
  761MOL0     C 2620   7.898   4.470   5.414 -0.0241  0.2955 -0.1497
  761MOL0     C 2621   7.837   4.374   5.298 -0.9538  0.4438 -0.0201
  761MOL0     C 2622   7.767   4.434   5.179  0.0307 -1.1101 -0.2951
  761MOL0     C 2623   7.626   4.470   5.215 -0.0230  0.6639  0.2023
  761MOL0     O 2624   7.552   4.355   5.242 -0.5466 -0.5123 -0.1592
  761MOL0     C 2625   7.422   4.380   5.286 -0.5849 -0.4682 -0.1752
  761MOL0     C 2626   7.338   4.263   5.280  0.2231 -1.0934 -0.0138
  761MOL0     C 2627   7.205   4.269   5.313 -0.1118  0.2414 -0.2216
  761MOL0     C 2628   7.137   4.137   5.295  0.2477  0.7273  0.2849
  761MOL0     C 2629   7.147   4.401   5.344 -0.7905 -0.5793  0.1789
  761MOL0     C 2630   6.998   4.422   5.363 -0.6603 -0.3359  1.3877
  761MOL0     O 2631   6.972   4.535   5.417  0.1994 -0.3119  0.2820
  761MOL0     C 2632   6.857   4.569   5.486 -0.2230  0.1568 -0.1348
  761MOL0     C 2633   6.820   4.708   5.494  0.4712  0.6017 -0.3668
  761MOL0     C 2634   6.697   4.741   5.557  0.3969 -0.0612  0.0985
  761MOL0     C 2635   6.607   4.644   5.603  0.2232 -0.1175  0.0348
  761MOL0     O 2636   6.483   4.681   5.648 -0.3364 -0.1333  0.0033
  761MOL0     C 2637   6.390   4.581   5.708 -0.0710  0.3212  0.5485
  761MOL0     C 2638   6.264   4.655   5.755  0.0707  0.7238  0.0975
  761MOL0     C 2639   6.164   4.558   5.820 -0.1537 -0.4231 -0.5528
  761MOL0     C 2640   6.030   4.621   5.861  0.2945  0.7608 -0.3262
  761MOL0     C 2641   5.964   4.675   5.735  0.4767 -0.3234 -0.5691
  761MOL0     C 2642   5.817   4.665   5.757 -0.1517 -0.7060  0.5779
  761MOL0     C 2643   5.743   4.733   5.636 -0.9249  0.7818  0.4649
  761MOL0     C 2644   5.641   4.832   5.691  0.2225  0.6332  0.3268
  761MOL0    Cl 2645   5.703   4.979   5.757 -0.4427  0.1225  0.1280
  761MOL0     C 2646   6.644   4.514   5.589  0.4141 -0.2715  0.0447
  761MOL0     C 2647   6.768   4.477   5.543 -0.1611 -0.0919 -0.5111
  761MOL0     O 2648   6.918   4.341   5.317 -0.4382 -0.2882  0.0302
  761MOL0     C 2649   7.227   4.519   5.343 -0.7078  0.2969  1.0039
  761MOL0     C 2650   7.358   4.499   5.329 -0.0599 -0.7976  0.6982
  761MOL0     N 2651   7.975   4.704   5.365 -1.1599 -0.3904 -0.4727
  761MOL0     N 2652   8.069   4.747   5.304 -0.3220 -0.4890  1.1598
  761MOL0     C 2653   9.385   4.746   5.055 -0.2253 -0.1588  0.2266
  761MOL0     C 2654   9.517   4.705   5.089  0.6270  0.5594  0.1200
  761MOL0     C 2655   9.775   4.360   5.174 -1.1244 -0.4866  0.1274
  761MOL0     C 2656   9.882   4.425   5.111  0.1936 -0.4574  0.0683
  761MOL0     C 2657  10.004   4.368   5.087 -0.5170  0.2576  0.5859
  761MOL0     C 2658  10.015   4.231   5.128 -0.7947 -0.6692 -0.3218
  761MOL0     O 2659  10.136   4.164   5.122 -0.0385 -0.2379  0.0673
  761MOL0     C 2660  10.227   4.203   5.008 -0.0713 -0.4980  0.5095
  761MOL0     C 2661  10.286   4.073   4.962 -1.1685  0.1378 -0.0375
  761MOL0     C 2662  10.372   3.997   5.068 -0.3231  0.5706 -0.7144
  761MOL0     C 2663  10.444   3.873   5.008 -0.4039  0.5201  0.3987
  761MOL0     C 2664  10.341   3.773   4.978 -0.6589  0.0899  0.3050
  761MOL0     C 2665  10.264   3.694   4.925 -0.3551  0.0195  0.0079
  761MOL0     C 2666   9.910   4.158   5.174 -0.5464  0.9117  0.2546
  761MOL0     C 2667   9.788   4.220   5.199  1.3042 -0.6431 -0.3140
  761MOL0     H 2668   9.460   4.583   5.397  0.8398  0.4537  0.8890
  761MOL0     H 2669   9.238   4.710   5.358  1.5047  0.1218  1.2739
  761MOL0     H 2670   9.046   4.724   5.266 -2.9532  0.6610  1.6123
  761MOL0     H 2671   9.078   4.893   5.295  4.2555 -2.1154  0.9892
  761MOL0     H 2672   8.959   4.940   5.089  4.6679 -0.5874  1.5863
  761MOL0     H 2673   8.949   4.767   5.046  1.1669  0.6351 -0.5870
  761MOL0     H 2674   8.817   4.720   5.249 -0.8031  0.1397  0.6326
  761MOL0     H 2675   8.794   4.894   5.283  0.2668  2.0683 -1.3336
  761MOL0     H 2676   8.716   4.909   5.027  2.9019 -0.5858 -0.7326
  761MOL0     H 2677   8.683   4.739   5.037  1.2796  1.0893 -1.5912
  761MOL0     H 2678   8.563   4.742   5.238  2.2979  0.7734 -0.2357
  761MOL0     H 2679   8.545   4.922   5.227  2.6158  0.5230 -0.0328
  761MOL0     H 2680   8.451   4.887   4.999  0.5703  0.5621  0.4849
  761MOL0     H 2681   8.459   4.712   5.028 -2.5359 -1.3383  0.8808
  761MOL0     H 2682   8.291   4.909   5.180 -1.7230  0.8482 -2.4978
  761MOL0     H 2683   8.239   4.789   5.063 -1.2136  3.7123 -0.6861
  761MOL0     H 2684   8.341   4.737   5.347  0.0523 -0.6725  0.3482
  761MOL0     H 2685   8.358   4.616   5.221 -1.9265 -0.8171 -0.8653
  761MOL0     H 2686   8.170   4.445   5.270  2.3261  1.3211 -2.3266
  761MOL0     H 2687   7.939   4.410   5.496 -0.4695  0.3357  0.1020
  761MOL0     H 2688   7.816   4.530   5.453  2.5163  1.9315  3.1394
  761MOL0     H 2689   7.776   4.298   5.347  1.0156 -0.1720  1.6306
  761MOL0     H 2690   7.924   4.321   5.258  0.3391  1.9562  0.6568
  761MOL0     H 2691   7.778   4.372   5.090 -1.1225 -1.5381 -0.1580
  761MOL0     H 2692   7.820   4.528   5.159 -1.2792 -0.2831  0.0292
  761MOL0     H 2693   7.572   4.520   5.134 -0.4421 -0.0515  0.0302
  761MOL0     H 2694   7.635   4.541   5.298  1.5606 -0.8176  1.3830
  761MOL0     H 2695   7.387   4.170   5.251  1.5846 -0.5557  0.4979
  761MOL0     H 2696   7.036   4.128   5.254  0.3579 -4.1626  0.4661
  761MOL0     H 2697   7.196   4.085   5.219 -0.2887  3.6941 -2.3638
  761MOL0     H 2698   7.135   4.071   5.382  2.1042 -0.0482 -0.2259
  761MOL0     H 2699   6.881   4.784   5.445 -1.4811  1.6322 -1.3005
  761MOL0     H 2700   6.670   4.845   5.574 -0.6020 -0.6357  2.4197
  761MOL0     H 2701   6.363   4.498   5.642  0.4078 -0.1156  0.8887
  761MOL0     H 2702   6.429   4.526   5.795 -4.9364 -1.1739  2.0957
  761MOL0     H 2703   6.285   4.732   5.830 -2.9375  0.0029  1.8257
  761MOL0     H 2704   6.222   4.699   5.664 -1.3098  2.1304  1.3427
  761MOL0     H 2705   6.213   4.507   5.903 -0.2336  2.9596  1.7733
  761MOL0     H 2706   6.152   4.468   5.758  1.6392  0.0569 -1.6755
  761MOL0     H 2707   5.969   4.543   5.909  0.9704 -0.7063 -1.7531
  761MOL0     H 2708   6.053   4.697   5.936 -0.9891 -0.5384  1.4632
  761MOL0     H 2709   5.990   4.613   5.649  1.8250 -0.4718 -0.0811
  761MOL0     H 2710   5.996   4.778   5.715 -0.9589  0.6025  1.5420
  761MOL0     H 2711   5.784   4.561   5.771  0.5760 -1.2739 -1.5006
  761MOL0     H 2712   5.786   4.720   5.846 -0.8129 -0.3088  0.1146
  761MOL0     H 2713   5.700   4.656   5.571 -0.4180 -0.6382  1.7362
  761MOL0     H 2714   5.817   4.783   5.573  0.7281 -1.1673  0.7331
  761MOL0     H 2715   5.584   4.782   5.770 -0.8986 -1.1371 -1.5046
  761MOL0     H 2716   5.563   4.865   5.622 -0.1860  0.5054  0.7228
  761MOL0     H 2717   6.576   4.434   5.618 -0.6024 -0.2322 -2.0623
  761MOL0     H 2718   6.793   4.371   5.545  0.2053 -0.0038  1.8309
  761MOL0     H 2719   7.197   4.619   5.373  2.6118  0.7653  3.4090
  761MOL0     H 2720   7.412   4.589   5.357 -0.9976 -1.0686  3.8500
  761MOL0     H 2721   9.359   4.786   4.958  0.9959 -0.3313 -0.1941
  761MOL0     H 2722   9.595   4.720   5.015 -1.7526 -0.4651 -2.8293
  761MOL0     H 2723   9.865   4.529   5.085  0.8921  0.0032  1.3218
  761MOL0     H 2724  10.078   4.428   5.035 -1.6737  0.8766 -0.4023
  761MOL0     H 2725  10.178   4.231   4.915  1.5451  1.1784  0.1068
  761MOL0     H 2726  10.305   4.275   5.032  2.0922 -1.6740 -2.4476
  761MOL0     H 2727  10.360   4.098   4.886  0.9506  0.4150  1.9834
  761MOL0     H 2728  10.207   4.010   4.921 -1.4125  0.0365  0.5742
  761MOL0     H 2729  10.303   3.972   5.149 -0.9679 -3.5723 -2.3037
  761MOL0     H 2730  10.442   4.065   5.116 -2.8680  0.8678  2.9918
  761MOL0     H 2731  10.511   3.831   5.084 -1.9258 -0.0483  1.4867
  761MOL0     H 2732  10.493   3.897   4.914 -1.9410 -2.6913 -1.3850
  761MOL0     H 2733  10.223   3.617   4.863  1.7316 -0.5468 -0.7377
  761MOL0     H 2734   9.926   4.052   5.196 -1.1578  1.3691  3.2834
  761MOL0     H 2735   9.707   4.156   5.232  1.0211 -0.9489 -1.5482
  762MOL0     O 2736  11.089   1.011   6.843 -0.7949 -0.3013 -0.4743
  762MOL0     C 2737  11.136   1.030   6.731  0.3801  0.5721  0.7501
  762MOL0     O 2738  11.064   1.073   6.622  0.5676  0.2777 -0.3047
  762MOL0     C 2739  10.934   1.110   6.655 -0.3501  0.5118  1.2938
  762MOL0     C 2740  10.825   1.027   6.596 -0.7222 -0.8087 -1.0434
  762MOL0     C 2741  10.698   1.069   6.615 -0.2125 -0.3547 -0.2198
  762MOL0     C 2742  10.671   1.189   6.687  0.4076  0.6503 -0.2845
  762MOL0     O 2743  10.537   1.218   6.726 -0.7428 -0.3857 -0.1407
  762MOL0     C 2744  10.518   1.207   6.867 -0.0763 -0.4939  0.7960
  762MOL0     C 2745  10.430   1.328   6.901  0.4919 -0.3329  0.6189
  762MOL0     C 2746  10.278   1.302   6.898 -0.0857 -0.1211  0.2866
  762MOL0     C 2747  10.210   1.283   6.757  0.2262 -0.4239  0.4120
  762MOL0     C 2748  10.060   1.296   6.778  0.0375  0.7944 -0.3304
  762MOL0     C 2749   9.990   1.280   6.641 -0.5172  0.8592 -0.7875
  762MOL0     C 2750   9.834   1.280   6.668  0.4060  0.1756  0.9281
  762MOL0     C 2751   9.778   1.424   6.682 -0.2264  0.3795 -0.5341
  762MOL0     N 2752   9.645   1.418   6.754 -0.3988  0.2194 -0.5097
  762MOL0     C 2753   9.513   1.400   6.710 -1.0975  0.0372 -0.3759
  762MOL0     C 2754   9.433   1.410   6.825 -1.0601  0.1807  0.7963
  762MOL0     C 2755   9.286   1.411   6.816 -0.5850 -0.4407  0.1810
  762MOL0     C 2756   9.245   1.556   6.820  0.2545 -0.5220  1.0230
  762MOL0     C 2757   9.219   1.608   6.962 -0.0749 -0.4949  0.1434
  762MOL0     C 2758   9.074   1.583   7.015  0.0440 -0.1380  0.0722
  762MOL0     O 2759   8.980   1.654   6.936 -0.1265  0.5720  0.4741
  762MOL0     C 2760   8.859   1.683   6.980  0.2490  0.6026  0.1380
  762MOL0     C 2761   8.797   1.788   6.913  0.1290 -0.0278  0.4092
  762MOL0     C 2762   8.674   1.847   6.959 -0.8257  0.3278  0.2515
  762MOL0     C 2763   8.617   1.957   6.865 -0.3685  0.2636  0.3077
  762MOL0     C 2764   8.613   1.794   7.079  0.5399 -0.5558  0.2585
  762MOL0     C 2765   8.493   1.846   7.157 -0.2371 -0.2441  0.7722
  762MOL0     O 2766   8.472   1.800   7.287  0.3259  0.3360  0.0914
  762MOL0     C 2767   8.357   1.836   7.359  0.4369 -0.3608  0.9570
  762MOL0     C 2768   8.346   1.952   7.428  0.2861  0.1575  0.4355
  762MOL0     C 2769   8.236   1.974   7.508 -0.1594  0.8055  0.1582
  762MOL0     C 2770   8.109   1.907   7.475  0.3517  0.3619  0.7324
  762MOL0     O 2771   7.996   1.955   7.536  0.5275  0.8240  0.9596
  762MOL0     C 2772   7.893   1.966   7.435  0.7774 -0.2234  0.0773
  762MOL0     C 2773   7.770   2.040   7.495  0.8499 -0.2601  0.5474
  762MOL0     C 2774   7.687   1.950   7.582  0.1828  0.0742  0.6092
  762MOL0     C 2775   7.540   1.991   7.585 -0.2564  0.3329 -0.3418
  762MOL0     C 2776   7.447   1.897   7.645  0.5631 -0.5431  0.4773
  762MOL0     C 2777   7.312   1.960   7.646  0.3202 -0.6136  0.2207
  762MOL0     C 2778   7.225   1.869   7.722  1.1341  0.0840 -0.5952
  762MOL0     C 2779   7.104   1.929   7.792  0.3694  0.0741 -0.2726
  762MOL0    Cl 2780   6.992   2.018   7.671  0.0779 -0.0175  1.0160
  762MOL0     C 2781   8.122   1.796   7.390  1.2414  1.3182 -0.2339
  762MOL0     C 2782   8.247   1.759   7.340 -0.6813  0.1142 -0.0987
  762MOL0     O 2783   8.423   1.937   7.102 -0.2120 -0.2985  0.1620
  762MOL0     C 2784   8.676   1.686   7.140  1.0099 -0.1311 -0.4627
  762MOL0     C 2785   8.797   1.632   7.096  0.5655 -0.6030  0.0927
  762MOL0     N 2786   9.516   1.445   6.929  0.1243  0.3441 -0.4390
  762MOL0     N 2787   9.643   1.422   6.891 -0.2552 -0.4595 -0.3285
  762MOL0     C 2788  10.776   1.263   6.728  0.2380  0.2629  0.4968
  762MOL0     C 2789  10.903   1.232   6.711 -0.3903 -0.5611  0.8826
  762MOL0     C 2790  11.285   1.015   6.717 -0.2020  0.0224 -0.7523
  762MOL0     C 2791  11.348   1.070   6.606 -0.2819 -0.2131 -0.3187
  762MOL0     C 2792  11.486   1.057   6.596 -0.0153  0.8754  0.3238
  762MOL0     C 2793  11.560   0.980   6.691  0.5909 -0.3326 -0.4931
  762MOL0     O 2794  11.697   0.958   6.668  0.5043 -0.3444  0.1743
  762MOL0     C 2795  11.779   1.069   6.622  0.8633 -0.2119  0.1706
  762MOL0     C 2796  11.913   1.072   6.674  0.0190  0.2259 -0.4197
  762MOL0     C 2797  11.998   0.948   6.656  0.1738  0.1680  0.1759
  762MOL0     C 2798  12.152   0.989   6.648 -0.3399 -0.2430  0.9884
  762MOL0     C 2799  12.189   1.082   6.763 -1.3193 -0.1416 -0.3023
  762MOL0     C 2800  12.214   1.155   6.856  0.3381 -1.2261  0.3711
  762MOL0     C 2801  11.493   0.915   6.793 -0.3661  0.3625  0.0442
  762MOL0     C 2802  11.356   0.940   6.811  0.0019 -0.7378  0.1829
  762MOL0     H 2803  10.838   0.937   6.537 -1.6100 -0.8822 -1.1381
  762MOL0     H 2804  10.610   1.029   6.566 -1.9160  2.0989  0.6595
  762MOL0     H 2805  10.469   1.113   6.897  0.2837 -2.3300 -3.6800
  762MOL0     H 2806  10.614   1.220   6.918  1.3974  2.1934 -2.2836
  762MOL0     H 2807  10.451   1.362   7.002  0.6162 -0.6224  0.6906
  762MOL0     H 2808  10.448   1.403   6.822  2.7219 -1.4687 -0.0345
  762MOL0     H 2809  10.262   1.213   6.960  0.4969  0.7862  1.7840
  762MOL0     H 2810  10.230   1.386   6.948  1.2998  0.1744  1.1421
  762MOL0     H 2811  10.254   1.350   6.683  0.4051 -1.0697 -0.0749
  762MOL0     H 2812  10.234   1.181   6.728  0.8220 -1.1303  3.0460
  762MOL0     H 2813  10.022   1.217   6.843  1.9015 -0.0438 -0.2211
  762MOL0     H 2814  10.032   1.391   6.825  1.5378  1.6932 -1.1739
  762MOL0     H 2815  10.026   1.358   6.573  2.5276 -1.1271 -1.6717
  762MOL0     H 2816  10.021   1.185   6.598  1.4700  1.1508 -0.0700
  762MOL0     H 2817   9.776   1.231   6.589  0.9183 -0.8862  1.1879
  762MOL0     H 2818   9.812   1.228   6.762  1.9136 -1.5554  0.3891
  762MOL0     H 2819   9.779   1.474   6.584 -2.3085 -2.1810 -2.0115
  762MOL0     H 2820   9.837   1.489   6.748 -1.2351  1.9485 -1.1163
  762MOL0     H 2821   9.484   1.387   6.607  0.2492  0.4887 -0.8412
  762MOL0     H 2822   9.247   1.362   6.726 -1.4942 -1.2899  1.0170
  762MOL0     H 2823   9.229   1.363   6.896 -1.1027  0.0041  0.0900
  762MOL0     H 2824   9.155   1.560   6.758  1.2573  2.4764 -0.4222
  762MOL0     H 2825   9.317   1.622   6.770 -0.2162  0.5115  1.6719
  762MOL0     H 2826   9.236   1.716   6.954  1.9362 -0.7909 -0.2435
  762MOL0     H 2827   9.291   1.552   7.023  2.5475  0.5860 -1.7402
  762MOL0     H 2828   9.080   1.618   7.118  1.3116 -2.0813  0.7116
  762MOL0     H 2829   9.060   1.474   7.008  0.1798 -0.1613  0.1688
  762MOL0     H 2830   8.845   1.840   6.830 -2.2095 -1.4396 -1.9946
  762MOL0     H 2831   8.577   1.918   6.771  0.2694  2.5718 -0.9881
  762MOL0     H 2832   8.539   2.015   6.915 -1.1321 -0.9159  0.5180
  762MOL0     H 2833   8.694   2.031   6.840  2.4874 -1.7676  2.3813
  762MOL0     H 2834   8.424   2.027   7.417  0.4655 -0.2355 -1.4564
  762MOL0     H 2835   8.251   2.069   7.559  1.7589  0.3409  0.5311
  762MOL0     H 2836   7.925   2.032   7.354  1.4233  0.4935  0.9037
  762MOL0     H 2837   7.855   1.873   7.392 -0.5066  0.8425 -1.2000
  762MOL0     H 2838   7.811   2.112   7.565  1.1030 -2.2641  2.5734
  762MOL0     H 2839   7.706   2.088   7.421 -2.4136 -0.1862  3.2250
  762MOL0     H 2840   7.714   1.958   7.687 -1.2925 -0.8153  1.0865
  762MOL0     H 2841   7.695   1.843   7.561 -0.2315 -0.3097  2.2980
  762MOL0     H 2842   7.532   2.076   7.653 -0.8020  0.6524 -0.7931
  762MOL0     H 2843   7.501   2.027   7.489  2.3566  1.5482 -1.0759
  762MOL0     H 2844   7.481   1.869   7.746  1.4808  1.0151  0.6289
  762MOL0     H 2845   7.451   1.816   7.572 -0.1921  0.7526 -1.0585
  762MOL0     H 2846   7.327   2.055   7.698  0.0015  0.7078 -2.0022
  762MOL0     H 2847   7.273   1.990   7.549  0.7637 -1.7784 -0.3307
  762MOL0     H 2848   7.270   1.816   7.806 -1.2218  0.5301  1.0335
  762MOL0     H 2849   7.183   1.791   7.658  2.2253  0.2460 -1.5573
  762MOL0     H 2850   7.136   1.995   7.873 -1.5768  0.0740  0.5525
  762MOL0     H 2851   7.040   1.862   7.850 -0.9730 -0.7512 -2.5538
  762MOL0     H 2852   8.042   1.727   7.367  3.8952 -1.9101 -0.4632
  762MOL0     H 2853   8.250   1.671   7.276 -0.5830 -0.0922  0.1903
  762MOL0     H 2854   8.628   1.647   7.229  1.4537 -0.9858 -0.5846
  762MOL0     H 2855   8.844   1.553   7.154 -1.4224 -1.5110  0.5350
  762MOL0     H 2856  10.736   1.355   6.769 -1.3825 -0.3517  0.3884
  762MOL0     H 2857  10.978   1.306   6.736 -2.0325  2.5368 -2.3545
  762MOL0     H 2858  11.296   1.137   6.539  1.2480  1.4871  0.1126
  762MOL0     H 2859  11.541   1.104   6.515 -2.8395 -1.4199 -3.2286
  762MOL0     H 2860  11.775   1.062   6.512  0.2730  0.1618  0.1640
  762MOL0     H 2861  11.741   1.166   6.656  0.9166  0.3659 -1.3014
  762MOL0     H 2862  11.903   1.095   6.781 -2.3553 -0.2108 -0.5000
  762MOL0     H 2863  11.958   1.159   6.626 -0.3215  1.9056  2.1028
  762MOL0     H 2864  11.970   0.896   6.564  1.6856 -2.0175  0.8841
  762MOL0     H 2865  11.980   0.883   6.742  0.0983 -2.5309 -1.7390
  762MOL0     H 2866  12.178   1.042   6.556  0.1646 -0.5163  0.9723
  762MOL0     H 2867  12.227   0.910   6.646  0.1575  0.2337  0.6133
  762MOL0     H 2868  12.229   1.216   6.943  0.9358  0.0059 -0.5800
  762MOL0     H 2869  11.550   0.856   6.864 -0.1734  0.8547  0.3074
  762MOL0     H 2870  11.322   0.901   6.906  3.6819 -0.1281  1.9431
  763MOL0     O 2871   4.796   5.542  10.541 -0.7119 -0.3613 -0.2482
  763MOL0     C 2872   4.808   5.505  10.660 -0.9722  0.2042  0.4683
  763MOL0     O 2873   4.704   5.473  10.740  0.3955 -0.0943  0.8759
  763MOL0     C 2874   4.576   5.469  10.678 -0.8883  0.4791 -0.4234
  763MOL0     C 2875   4.489   5.359  10.694  0.4844  0.2651 -0.3983
  763MOL0     C 2876   4.354   5.365  10.645  0.3355  0.0804 -0.7097
  763MOL0     C 2877   4.297   5.484  10.599 -0.5728  0.0492 -0.2062
  763MOL0     O 2878   4.170   5.494  10.541  0.0227 -0.3433  0.3130
  763MOL0     C 2879   4.070   5.421  10.614 -0.0101  0.7222  0.2423
  763MOL0     C 2880   3.935   5.453  10.550  1.0578  0.5092  0.4751
  763MOL0     C 2881   3.808   5.403  10.636 -0.2004  0.1394 -0.9339
  763MOL0     C 2882   3.680   5.460  10.594  1.1887 -0.9796  0.2053
  763MOL0     C 2883   3.565   5.398  10.667  0.3056 -0.2356  0.8284
  763MOL0     C 2884   3.428   5.468  10.645 -1.3512  0.0572 -0.0736
  763MOL0     C 2885   3.304   5.402  10.717  0.3327  0.2294 -0.0043
  763MOL0     C 2886   3.290   5.450  10.858 -1.1483 -0.3434  0.7018
  763MOL0     N 2887   3.155   5.480  10.907  0.5712 -0.3935 -0.9226
  763MOL0     C 2888   3.052   5.394  10.912 -0.0789 -0.3398 -0.5291
  763MOL0     C 2889   2.949   5.463  10.955  0.5325 -0.5427  1.0325
  763MOL0     C 2890   2.808   5.418  10.980 -0.0204 -0.7366 -0.1592
  763MOL0     C 2891   2.783   5.393  11.131  0.2459 -0.4680  0.0587
  763MOL0     C 2892   2.640   5.363  11.175  0.2869  0.2587 -0.4582
  763MOL0     C 2893   2.634   5.357  11.330  1.4038  0.2155  0.0392
  763MOL0     O 2894   2.620   5.480  11.388 -0.0600 -0.0506 -0.5081
  763MOL0     C 2895   2.553   5.486  11.504  0.0792 -0.8267  0.3025
  763MOL0     C 2896   2.586   5.388  11.602 -0.3192  0.1339  0.9040
  763MOL0     C 2897   2.509   5.376  11.720 -0.6725  0.4156 -0.2095
  763MOL0     C 2898   2.520   5.253  11.816 -0.2856  0.0308  0.6330
  763MOL0     C 2899   2.403   5.466  11.736 -1.2692  0.2300 -0.0946
  763MOL0     C 2900   2.319   5.465  11.853  0.1043 -0.0530  0.2393
  763MOL0     O 2901   2.269   5.350  11.892  0.3436  0.1614 -0.2729
  763MOL0     C 2902   2.154   5.334  11.974 -0.7066  0.9826  0.2479
  763MOL0     C 2903   2.063   5.425  12.029 -0.6118  0.0187  0.4530
  763MOL0     C 2904   1.956   5.394  12.117  0.0606  0.4005 -0.6433
  763MOL0     C 2905   1.952   5.257  12.161 -0.3574 -0.4017 -0.8049
  763MOL0     O 2906   1.861   5.213  12.253  0.3640  0.1216  0.3307
  763MOL0     C 2907   1.740   5.286  12.275 -0.3014  0.9886 -0.2836
  763MOL0     C 2908   1.641   5.219  12.365 -0.6992  0.0122 -0.7752
  763MOL0     C 2909   1.517   5.311  12.370  0.5813  0.4003 -0.0663
  763MOL0     C 2910   1.406   5.253  12.460  0.7699 -0.0201  0.1900
  763MOL0     C 2911   1.291   5.361  12.482  0.2456 -0.4463 -0.2763
  763MOL0     C 2912   1.153   5.335  12.537  0.2226 -0.0021 -0.5776
  763MOL0     C 2913   1.166   5.325  12.693 -0.7489  0.5299  0.7489
  763MOL0     C 2914   1.060   5.235  12.764 -0.1454 -0.5155  0.3821
  763MOL0    Cl 2915   0.902   5.234  12.674  0.1209 -0.0094 -0.1876
  763MOL0     C 2916   2.052   5.162  12.122  0.1440 -0.6030  0.7864
  763MOL0     C 2917   2.145   5.198  12.026 -0.6731  0.1693 -0.1514
  763MOL0     O 2918   2.294   5.574  11.895  0.5971  0.2728 -0.6737
  763MOL0     C 2919   2.373   5.565  11.638  0.1894 -0.3994 -0.8394
  763MOL0     C 2920   2.447   5.576  11.530 -1.6002 -0.1098 -0.3700
  763MOL0     N 2921   2.988   5.595  10.981  0.0899 -0.8147  0.6341
  763MOL0     N 2922   3.116   5.602  10.957 -0.2169 -0.3414 -0.0095
  763MOL0     C 2923   4.382   5.591  10.588 -0.0561  0.4043 -0.3587
  763MOL0     C 2924   4.521   5.586  10.627  0.1520 -0.5323  0.3674
  763MOL0     C 2925   4.941   5.483  10.714 -0.0321  0.1739 -0.8480
  763MOL0     C 2926   5.058   5.557  10.680  0.1129 -0.0957 -1.3762
  763MOL0     C 2927   5.186   5.524  10.735 -0.0486  0.2380 -1.2244
  763MOL0     C 2928   5.201   5.428  10.843  0.0753 -0.5524  0.3031
  763MOL0     O 2929   5.322   5.389  10.882 -0.2151 -0.6941 -0.5888
  763MOL0     C 2930   5.326   5.310  11.000  0.5051 -0.1900  0.0331
  763MOL0     C 2931   5.473   5.330  11.046  0.7030  0.2444  0.8048
  763MOL0     C 2932   5.479   5.253  11.184 -0.1691  0.3975  0.0835
  763MOL0     C 2933   5.622   5.280  11.246 -0.8422  0.2057 -0.5696
  763MOL0     C 2934   5.637   5.177  11.352  0.0873  0.4084 -1.1095
  763MOL0     C 2935   5.655   5.090  11.438 -0.6589 -0.2037  0.3183
  763MOL0     C 2936   5.077   5.356  10.872  0.1369 -0.0276  0.3647
  763MOL0     C 2937   4.953   5.386  10.816  0.0121 -0.8170  0.0879
  763MOL0     H 2938   4.536   5.266  10.725  1.8341  1.0807  0.0852
  763MOL0     H 2939   4.296   5.273  10.647  2.2220 -1.1391  0.9126
  763MOL0     H 2940   4.087   5.313  10.607  3.8783  1.3115 -3.6137
  763MOL0     H 2941   4.067   5.453  10.719 -3.7962  2.1727 -0.1796
  763MOL0     H 2942   3.917   5.560  10.539 -1.8742  0.3140  2.1732
  763MOL0     H 2943   3.933   5.409  10.450  0.6077  0.6871  0.4026
  763MOL0     H 2944   3.785   5.296  10.630 -1.6495  0.3312  0.5119
  763MOL0     H 2945   3.833   5.425  10.740  0.5326 -1.7469 -0.6744
  763MOL0     H 2946   3.673   5.566  10.618  0.0969 -0.0322 -3.6181
  763MOL0     H 2947   3.673   5.452  10.485 -0.0461  0.3727  0.1581
  763MOL0     H 2948   3.563   5.294  10.635  0.2333  0.5742 -2.0116
  763MOL0     H 2949   3.582   5.401  10.775  0.5367  2.2925  0.7767
  763MOL0     H 2950   3.430   5.571  10.679 -1.0080  0.3821 -1.0357
  763MOL0     H 2951   3.403   5.468  10.539 -0.2473  0.5389 -0.3516
  763MOL0     H 2952   3.207   5.418  10.669  0.0259 -3.2021 -0.8040
  763MOL0     H 2953   3.318   5.293  10.717  1.1553  0.3134 -1.6589
  763MOL0     H 2954   3.361   5.533  10.857 -0.2038 -1.1053 -1.4839
  763MOL0     H 2955   3.327   5.385  10.938 -1.1617 -0.4297  0.6378
  763MOL0     H 2956   3.064   5.290  10.884  2.1399 -0.0868 -0.7448
  763MOL0     H 2957   2.750   5.501  10.940  0.9039  1.2643  2.3893
  763MOL0     H 2958   2.786   5.324  10.928  0.4310 -0.4776 -0.8306
  763MOL0     H 2959   2.811   5.479  11.192 -0.4108  0.4173 -0.8485
  763MOL0     H 2960   2.846   5.310  11.165 -0.2336 -0.6538  0.5123
  763MOL0     H 2961   2.604   5.266  11.139  0.3457  0.4981 -1.1712
  763MOL0     H 2962   2.580   5.446  11.136  0.9785  3.4968  4.5108
  763MOL0     H 2963   2.728   5.312  11.364 -0.4648 -3.9373  0.3029
  763MOL0     H 2964   2.545   5.298  11.356  1.8649 -0.5393 -0.0449
  763MOL0     H 2965   2.657   5.308  11.587  0.4751  1.0686 -0.6139
  763MOL0     H 2966   2.430   5.192  11.800  0.4380 -1.4486  1.8600
  763MOL0     H 2967   2.607   5.191  11.790  1.0753  1.8989  0.5551
  763MOL0     H 2968   2.525   5.283  11.921 -0.5639  1.9607  0.1153
  763MOL0     H 2969   2.076   5.532  12.010  1.2607 -0.1928  0.3447
  763MOL0     H 2970   1.882   5.465  12.152 -2.0355 -1.9739  0.0150
  763MOL0     H 2971   1.755   5.387  12.315 -1.8415  1.0275  0.2651
  763MOL0     H 2972   1.698   5.308  12.176  2.1636  0.3778 -1.5642
  763MOL0     H 2973   1.610   5.119  12.333  0.1377 -1.1613  1.8706
  763MOL0     H 2974   1.688   5.214  12.463  0.8867 -1.5931 -1.5682
  763MOL0     H 2975   1.485   5.310  12.266  0.7683 -0.7144 -0.1233
  763MOL0     H 2976   1.553   5.406  12.411  1.5432  1.1019 -2.3561
  763MOL0     H 2977   1.362   5.159  12.427  1.3693 -0.9144  1.7755
  763MOL0     H 2978   1.450   5.217  12.554  1.4277 -0.5083 -0.2960
  763MOL0     H 2979   1.274   5.392  12.378  0.4983 -2.5738 -1.0128
  763MOL0     H 2980   1.339   5.447  12.528 -0.0386 -0.9769  1.0380
  763MOL0     H 2981   1.085   5.418  12.512 -0.8193 -1.0654 -1.3714
  763MOL0     H 2982   1.118   5.239  12.500 -0.6958  0.0181  0.1830
  763MOL0     H 2983   1.145   5.427  12.725  3.5613  1.5610  0.9494
  763MOL0     H 2984   1.267   5.304  12.731 -0.6849  1.5614  1.1870
  763MOL0     H 2985   1.038   5.269  12.865  0.7638 -0.5239  0.5850
  763MOL0     H 2986   1.082   5.128  12.755  1.9827 -0.1699  1.0504
  763MOL0     H 2987   2.048   5.060  12.159  2.0722 -0.9515  0.1479
  763MOL0     H 2988   2.215   5.125  11.988 -1.5871  0.4194 -2.4925
  763MOL0     H 2989   2.287   5.630  11.645  0.9516  0.8459 -2.5077
  763MOL0     H 2990   2.430   5.641  11.444  1.3279  0.2278 -0.7802
  763MOL0     H 2991   4.335   5.678  10.544  0.6848 -0.2102 -2.4765
  763MOL0     H 2992   4.579   5.678  10.634 -0.9619  0.2660 -0.5403
  763MOL0     H 2993   5.061   5.635  10.605  2.6118 -0.6372 -1.9284
  763MOL0     H 2994   5.278   5.567  10.696 -0.1273  2.5448  0.8688
  763MOL0     H 2995   5.249   5.333  11.075  0.2884 -1.8831  0.3793
  763MOL0     H 2996   5.315   5.202  10.988 -2.3581  0.2764 -3.3179
  763MOL0     H 2997   5.499   5.433  11.070 -0.2505  0.6819  0.0038
  763MOL0     H 2998   5.544   5.286  10.975 -0.6064  0.6653 -0.8211
  763MOL0     H 2999   5.467   5.145  11.175  4.9085 -0.4051  0.2261
  763MOL0     H 3000   5.399   5.296  11.245 -1.2962 -0.8368 -0.4797
  763MOL0     H 3001   5.627   5.383  11.282  0.4816 -0.5455  1.5508
  763MOL0     H 3002   5.694   5.269  11.165 -2.9984 -1.3339 -2.4011
  763MOL0     H 3003   5.655   5.012  11.513  3.8793 -1.4102 -0.6528
  763MOL0     H 3004   5.059   5.277  10.944  0.8698 -1.1481 -0.6565
  763MOL0     H 3005   4.868   5.320  10.836  0.9995 -3.5049 -3.5587
  764MOL0     O 3006   1.116   9.236   3.212 -0.6243  0.3240 -0.6042
  764MOL0     C 3007   1.190   9.319   3.156 -0.5125  0.8378 -0.4707
  764MOL0     O 3008   1.146   9.430   3.100 -0.1301  0.1961 -0.5434
  764MOL0     C 3009   1.010   9.461   3.116  0.2325  0.6116  0.0607
  764MOL0     C 3010   0.910   9.432   3.019  0.1482  0.2740 -0.2364
  764MOL0     C 3011   0.776   9.440   3.046  0.0728  0.4137  1.1502
  764MOL0     C 3012   0.728   9.491   3.164  0.1817 -0.1615 -0.2895
  764MOL0     O 3013   0.587   9.477   3.185 -0.0920 -0.3129  0.1955
  764MOL0     C 3014   0.545   9.576   3.280 -0.7591 -0.2408  0.5904
  764MOL0     C 3015   0.392   9.577   3.280 -0.1460  0.7760  0.3404
  764MOL0     C 3016   0.330   9.634   3.151  1.1282  0.3703 -0.3848
  764MOL0     C 3017   0.181   9.664   3.188  0.3412 -0.8092  0.4116
  764MOL0     C 3018   0.105   9.717   3.067  0.3939  0.2501 -0.5802
  764MOL0     C 3019  -0.030   9.793   3.096  0.7520 -0.1201  0.4337
  764MOL0     C 3020  -0.001   9.935   3.164 -0.5326  0.0162 -0.1565
  764MOL0     C 3021  -0.141   9.997   3.206  0.4341  1.1566  0.1452
  764MOL0     N 3022  -0.219  10.052   3.092  0.6164  0.0737  0.0014
  764MOL0     C 3023  -0.285  10.173   3.108 -0.1589 -0.0982 -0.2308
  764MOL0     C 3024  -0.338  10.199   2.983 -0.1334  0.2202 -0.5025
  764MOL0     C 3025  -0.420  10.313   2.937  0.3193  0.2780  0.0536
  764MOL0     C 3026  -0.533  10.364   3.035  0.3652  0.1108 -0.6030
  764MOL0     C 3027  -0.649  10.259   3.046 -0.2274  0.0110 -0.5406
  764MOL0     C 3028  -0.783  10.324   3.092 -0.1057  0.3240 -0.2618
  764MOL0     O 3029  -0.841  10.405   2.992  0.4322  0.1125  0.2367
  764MOL0     C 3030  -0.971  10.451   3.017  0.4142  0.8471  0.0996
  764MOL0     C 3031  -1.025  10.548   2.933  0.5364 -0.9640  0.4080
  764MOL0     C 3032  -1.158  10.590   2.935  0.0510 -0.4545  0.6518
  764MOL0     C 3033  -1.204  10.681   2.822  0.4348  0.3875  0.2816
  764MOL0     C 3034  -1.250  10.528   3.031 -0.7328 -0.4859 -0.2644
  764MOL0     C 3035  -1.394  10.555   3.049  0.6027  0.0753  0.1562
  764MOL0     O 3036  -1.439  10.530   3.177 -0.0682  0.0262 -0.4848
  764MOL0     C 3037  -1.571  10.569   3.204  0.8846  0.3149 -0.0441
  764MOL0     C 3038  -1.659  10.483   3.266  0.2697  0.2422 -0.3275
  764MOL0     C 3039  -1.795  10.514   3.292  0.7420  0.6637 -0.1938
  764MOL0     C 3040  -1.845  10.642   3.254 -0.3907  0.9037 -0.1409
  764MOL0     O 3041  -1.969  10.689   3.276 -0.0649  0.1042  0.5754
  764MOL0     C 3042  -2.085  10.610   3.297 -0.6446  0.2556 -0.6500
  764MOL0     C 3043  -2.131  10.595   3.436  0.8881  0.0013  0.1971
  764MOL0     C 3044  -2.177  10.723   3.512  0.7093  0.1017 -1.1675
  764MOL0     C 3045  -2.236  10.697   3.652  0.2439 -0.3129 -1.3820
  764MOL0     C 3046  -2.286  10.823   3.726 -0.4437  0.2041  0.0692
  764MOL0     C 3047  -2.329  10.794   3.875 -0.6275  0.2632  0.2016
  764MOL0     C 3048  -2.389  10.931   3.932  0.3456  0.0466  0.7711
  764MOL0     C 3049  -2.512  10.906   4.017  0.2014 -0.0351  0.4779
  764MOL0    Cl 3050  -2.486  10.785   4.135  0.2212 -0.1711 -0.1825
  764MOL0     C 3051  -1.759  10.739   3.198  0.2984 -1.2149 -1.1641
  764MOL0     C 3052  -1.623  10.704   3.178 -0.6401 -0.1716  0.0573
  764MOL0     O 3053  -1.470  10.599   2.969 -0.7714 -0.7388  1.0284
  764MOL0     C 3054  -1.191  10.442   3.127 -0.6277  0.0293  0.2333
  764MOL0     C 3055  -1.044  10.407   3.126 -0.7360 -0.2691  0.4910
  764MOL0     N 3056  -0.307  10.096   2.894 -1.0208  0.3711  0.1948
  764MOL0     N 3057  -0.229  10.005   2.962  0.6170  0.2717  0.0518
  764MOL0     C 3058   0.827   9.533   3.255  0.1290 -0.4441  0.8704
  764MOL0     C 3059   0.965   9.510   3.237  0.0475 -0.0925  0.5344
  764MOL0     C 3060   1.329   9.297   3.147 -1.0801  0.2331  0.0853
  764MOL0     C 3061   1.410   9.409   3.140 -0.7596 -0.2546 -0.2090
  764MOL0     C 3062   1.545   9.388   3.107  0.2835  0.5070 -0.5116
  764MOL0     C 3063   1.593   9.260   3.074 -0.8422  0.7523 -0.5355
  764MOL0     O 3064   1.726   9.247   3.040  0.1745  0.5261 -0.2803
  764MOL0     C 3065   1.823   9.343   3.073  0.4029 -0.6628  0.2909
  764MOL0     C 3066   1.954   9.269   3.079 -0.3527  0.1158  0.2315
  764MOL0     C 3067   2.078   9.353   3.105 -0.1325  0.1592 -0.7635
  764MOL0     C 3068   2.193   9.261   3.152  0.3467  0.5144  0.3057
  764MOL0     C 3069   2.232   9.158   3.053 -0.2498  0.0205 -0.1580
  764MOL0     C 3070   2.260   9.082   2.961 -0.3305  0.4778  0.0489
  764MOL0     C 3071   1.521   9.148   3.092  0.4170  0.1770 -0.2787
  764MOL0     C 3072   1.382   9.165   3.133  0.0269  0.6506  1.3272
  764MOL0     H 3073   0.936   9.402   2.918  0.1554  3.7418 -1.4164
  764MOL0     H 3074   0.705   9.401   2.973  0.7775 -0.5474  0.9554
  764MOL0     H 3075   0.575   9.550   3.382 -0.9377 -2.9942  0.0041
  764MOL0     H 3076   0.591   9.675   3.268 -1.0620 -0.1606  0.0774
  764MOL0     H 3077   0.342   9.482   3.301 -0.7747  0.7387 -1.2171
  764MOL0     H 3078   0.355   9.631   3.368  0.1142  1.9406 -0.2489
  764MOL0     H 3079   0.372   9.720   3.098 -4.1238  1.7312 -2.9523
  764MOL0     H 3080   0.320   9.556   3.074 -4.1744 -1.2729  1.4952
  764MOL0     H 3081   0.119   9.587   3.235 -2.0477  1.2843  0.9123
  764MOL0     H 3082   0.184   9.745   3.262 -0.1665 -0.4861  0.0844
  764MOL0     H 3083   0.177   9.782   3.016 -0.1598  1.3955  0.0625
  764MOL0     H 3084   0.097   9.634   2.996  2.9247  1.3837 -2.3434
  764MOL0     H 3085  -0.071   9.809   2.996  2.7944 -0.3851 -0.5012
  764MOL0     H 3086  -0.099   9.730   3.153 -0.9220  2.0286  0.9130
  764MOL0     H 3087   0.064   9.926   3.251  0.9646  0.3170 -1.1877
  764MOL0     H 3088   0.046  10.007   3.095  2.0611 -2.3865 -1.1308
  764MOL0     H 3089  -0.127  10.077   3.279  0.1877  0.1794  1.2931
  764MOL0     H 3090  -0.206   9.923   3.254  1.6861 -0.0253  0.0808
  764MOL0     H 3091  -0.276  10.233   3.198  1.5738 -0.1808 -0.3141
  764MOL0     H 3092  -0.355  10.397   2.911  0.3116 -0.2497 -1.7730
  764MOL0     H 3093  -0.453  10.294   2.835  3.9250  2.6692 -1.7952
  764MOL0     H 3094  -0.570  10.455   2.986  1.1476 -0.2398 -1.9173
  764MOL0     H 3095  -0.497  10.386   3.136 -1.6558 -0.7225  0.3556
  764MOL0     H 3096  -0.605  10.189   3.117 -0.7638 -0.2930 -0.5136
  764MOL0     H 3097  -0.672  10.212   2.950  0.3799  0.5736 -0.9738
  764MOL0     H 3098  -0.775  10.374   3.189  0.9600  1.2457 -0.8042
  764MOL0     H 3099  -0.839  10.232   3.113  1.7914 -1.0543 -0.9358
  764MOL0     H 3100  -0.953  10.592   2.865  1.2364  2.2392  2.9662
  764MOL0     H 3101  -1.128  10.696   2.745  1.6282 -1.5864  0.9981
  764MOL0     H 3102  -1.285  10.628   2.771 -0.7101  0.5739  1.8291
  764MOL0     H 3103  -1.249  10.774   2.860  0.5227 -0.2262  1.9575
  764MOL0     H 3104  -1.625  10.382   3.287 -1.7734 -0.6393 -0.9776
  764MOL0     H 3105  -1.866  10.445   3.337  1.8470 -0.0588  0.5003
  764MOL0     H 3106  -2.163  10.669   3.249  1.3557  2.6231 -1.2038
  764MOL0     H 3107  -2.071  10.510   3.256 -0.4419 -0.7957  1.7830
  764MOL0     H 3108  -2.206  10.516   3.441  3.7725 -2.9986 -0.2389
  764MOL0     H 3109  -2.056  10.541   3.493  0.0124 -0.7316  0.6795
  764MOL0     H 3110  -2.265  10.769   3.467 -1.7311 -1.5362  1.5640
  764MOL0     H 3111  -2.091  10.790   3.518  0.0012  0.8921  1.7501
  764MOL0     H 3112  -2.326  10.636   3.641 -2.3396  2.9613 -0.1547
  764MOL0     H 3113  -2.165  10.640   3.713 -0.7182  1.7212  1.9623
  764MOL0     H 3114  -2.372  10.862   3.671 -0.8257  1.6322  1.6140
  764MOL0     H 3115  -2.207  10.899   3.722 -2.3365  2.3680  1.0552
  764MOL0     H 3116  -2.397  10.708   3.872 -0.7406  0.3741 -1.8895
  764MOL0     H 3117  -2.243  10.761   3.934 -1.5053 -1.9193  0.3646
  764MOL0     H 3118  -2.420  10.992   3.846 -2.0120 -2.4848 -0.3507
  764MOL0     H 3119  -2.318  10.988   3.991  0.1656  0.2746  0.7660
  764MOL0     H 3120  -2.596  10.877   3.952  1.4687 -3.8936  0.3514
  764MOL0     H 3121  -2.538  11.002   4.062 -1.2316  0.8275 -1.9328
  764MOL0     H 3122  -1.790  10.842   3.183  1.0094 -0.5719  1.2783
  764MOL0     H 3123  -1.551  10.772   3.135  1.2775 -0.8327  1.9989
  764MOL0     H 3124  -1.248  10.392   3.205  0.4976  2.6012  2.8939
  764MOL0     H 3125  -1.017  10.338   3.205  0.9529  0.5175  0.6309
  764MOL0     H 3126   0.799   9.585   3.347  1.8016  2.4031 -0.0988
  764MOL0     H 3127   1.035   9.532   3.317 -2.6191  0.3470  2.9576
  764MOL0     H 3128   1.371   9.505   3.172 -2.6258 -1.7281  2.2562
  764MOL0     H 3129   1.609   9.476   3.108 -1.5144  1.9431 -2.2327
  764MOL0     H 3130   1.823   9.423   2.998 -2.1189 -0.6859  0.1934
  764MOL0     H 3131   1.808   9.400   3.165  1.1229  1.4498 -0.8077
  764MOL0     H 3132   1.968   9.215   2.985 -1.7714 -1.5180  0.8966
  764MOL0     H 3133   1.946   9.197   3.162 -1.2022 -0.0201  0.0419
  764MOL0     H 3134   2.054   9.434   3.175 -0.4178  1.2502 -2.0841
  764MOL0     H 3135   2.099   9.403   3.010  0.1503  2.6756  0.5401
  764MOL0     H 3136   2.170   9.209   3.246  1.5412  0.0103  0.3392
  764MOL0     H 3137   2.278   9.326   3.177  0.2697  0.2898  1.1906
  764MOL0     H 3138   2.302   9.018   2.886  3.2921  0.3556  1.9516
  764MOL0     H 3139   1.569   9.051   3.079  0.2910  0.3169 -2.0510
  764MOL0     H 3140   1.310   9.085   3.145 -0.1798  0.8981  1.7735
  765MOL0     O 3141   9.316   7.288  10.955  0.1994  0.2204  0.7685
  765MOL0     C 3142   9.427   7.270  11.011  0.6378  0.1515  0.1294
  765MOL0     O 3143   9.443   7.205  11.119  0.1616 -0.0170  0.4263
  765MOL0     C 3144   9.343   7.130  11.173 -0.3649 -0.4494 -0.4952
  765MOL0     C 3145   9.246   7.058  11.098 -0.2813 -0.3558 -0.2051
  765MOL0     C 3146   9.160   6.975  11.166  0.7729  0.5140 -0.6270
  765MOL0     C 3147   9.163   6.963  11.307  0.4037 -0.3045  0.5916
  765MOL0     O 3148   9.079   6.880  11.379 -0.1985  0.2536  0.0869
  765MOL0     C 3149   8.947   6.851  11.347  0.0642 -0.7116 -0.8257
  765MOL0     C 3150   8.875   6.805  11.468  0.0381 -0.1409 -0.3268
  765MOL0     C 3151   8.722   6.832  11.452  0.0323  0.1220  0.2073
  765MOL0     C 3152   8.656   6.824  11.595 -0.4498 -0.1322 -0.2406
  765MOL0     C 3153   8.501   6.796  11.578 -0.5796  0.0525 -0.1289
  765MOL0     C 3154   8.417   6.822  11.709 -0.1756  0.3379 -0.0883
  765MOL0     C 3155   8.268   6.808  11.675  0.5337  0.3220 -0.0297
  765MOL0     C 3156   8.180   6.850  11.793  0.0124  0.2385  0.6665
  765MOL0     N 3157   8.032   6.819  11.774  0.1796 -0.0007 -0.0065
  765MOL0     C 3158   7.966   6.837  11.661 -0.5031 -0.1372 -0.3594
  765MOL0     C 3159   7.848   6.790  11.680  0.5128 -0.3857  0.0751
  765MOL0     C 3160   7.729   6.790  11.594  0.0838 -0.5734  0.9782
  765MOL0     C 3161   7.700   6.643  11.555 -0.5110  0.2688 -0.3740
  765MOL0     C 3162   7.611   6.635  11.428 -0.2300 -0.0795 -0.7612
  765MOL0     C 3163   7.526   6.511  11.418 -0.6675  0.8284 -1.3099
  765MOL0     O 3164   7.421   6.493  11.517 -0.7180 -0.2895 -0.4192
  765MOL0     C 3165   7.307   6.569  11.505 -0.5750  0.7136 -0.2730
  765MOL0     C 3166   7.235   6.574  11.388  0.2110 -0.2885  0.9611
  765MOL0     C 3167   7.104   6.636  11.385  0.5495  0.0385  0.9536
  765MOL0     C 3168   7.030   6.611  11.259  0.0193  0.1550  0.2474
  765MOL0     C 3169   7.058   6.707  11.503 -0.2370  0.5717  0.5789
  765MOL0     C 3170   6.926   6.777  11.508 -0.3735 -0.0377 -0.3138
  765MOL0     O 3171   6.847   6.769  11.399  0.6764 -0.1511 -0.6951
  765MOL0     C 3172   6.715   6.822  11.402 -0.8092  1.0570  0.3728
  765MOL0     C 3173   6.623   6.742  11.338 -0.8177  0.0021 -0.4457
  765MOL0     C 3174   6.485   6.760  11.343 -1.8198  0.9559 -0.2726
  765MOL0     C 3175   6.437   6.869  11.420  0.3372 -0.1481  0.2655
  765MOL0     O 3176   6.303   6.883  11.428 -1.0742  0.2067 -0.0764
  765MOL0     C 3177   6.246   6.989  11.509  0.1210  0.4816  0.3770
  765MOL0     C 3178   6.096   6.981  11.497  0.1156  0.3733  0.2745
  765MOL0     C 3179   6.020   7.111  11.511 -0.4174 -0.4846  0.0965
  765MOL0     C 3180   5.901   7.092  11.596 -0.2890  0.4703 -0.1667
  765MOL0     C 3181   5.816   7.211  11.587  0.5493 -0.0202 -0.0622
  765MOL0     C 3182   5.687   7.194  11.665 -0.0843  0.5593  0.1245
  765MOL0     C 3183   5.590   7.305  11.631  1.7749  0.2409  0.1352
  765MOL0     C 3184   5.463   7.304  11.715 -0.2215  0.5958 -1.0667
  765MOL0    Cl 3185   5.324   7.376  11.627  0.6124 -0.4151 -0.0154
  765MOL0     C 3186   6.534   6.955  11.482  0.0917  0.1508 -0.2790
  765MOL0     C 3187   6.673   6.928  11.477  0.9741 -0.6561  0.8756
  765MOL0     O 3188   6.900   6.838  11.615  0.4854 -0.2268  0.0353
  765MOL0     C 3189   7.145   6.717  11.608  0.4444 -0.0733  0.7614
  765MOL0     C 3190   7.260   6.643  11.615 -0.7980 -0.1176  0.5583
  765MOL0     N 3191   7.840   6.735  11.804  0.7276  0.2025  0.0204
  765MOL0     N 3192   7.948   6.763  11.867 -0.2548  0.2263 -0.2091
  765MOL0     C 3193   9.255   7.041  11.381 -0.0756  0.5650  0.5678
  765MOL0     C 3194   9.331   7.127  11.314  0.0756 -0.7163  0.0366
  765MOL0     C 3195   9.541   7.345  10.943  0.2948 -0.3624 -0.5167
  765MOL0     C 3196   9.518   7.448  10.848  0.6616 -0.3058 -1.1399
  765MOL0     C 3197   9.617   7.490  10.764 -0.5684  0.2732 -0.2248
  765MOL0     C 3198   9.750   7.456  10.789 -0.2439 -0.2369  0.4108
  765MOL0     O 3199   9.855   7.519  10.722 -0.1805  0.2550 -1.3144
  765MOL0     C 3200   9.991   7.497  10.753  0.7638  0.0493 -0.4351
  765MOL0     C 3201  10.081   7.617  10.723 -0.0074 -0.3502 -0.2455
  765MOL0     C 3202  10.222   7.576  10.767 -0.3199  0.5412 -0.6587
  765MOL0     C 3203  10.309   7.697  10.733 -0.0303  0.7475 -0.4670
  765MOL0     C 3204  10.451   7.674  10.737 -0.3730 -0.0071 -0.0358
  765MOL0     C 3205  10.566   7.644  10.728 -0.0407  0.4828  0.4144
  765MOL0     C 3206   9.773   7.364  10.891 -0.0491  0.2086  0.3590
  765MOL0     C 3207   9.671   7.310  10.963  0.1605  0.8471  0.6455
  765MOL0     H 3208   9.251   7.057  10.989  1.5056  1.5735 -0.1971
  765MOL0     H 3209   9.083   6.920  11.113  0.5025  0.5980 -0.3277
  765MOL0     H 3210   8.908   6.945  11.307  2.5787  1.2314  0.9147
  765MOL0     H 3211   8.940   6.787  11.259  0.2228  1.3481 -2.4185
  765MOL0     H 3212   8.897   6.699  11.480  0.3447  0.0311  0.6797
  765MOL0     H 3213   8.905   6.857  11.559  1.4915  0.9038 -1.3426
  765MOL0     H 3214   8.698   6.927  11.403 -0.7083 -1.5087 -2.8695
  765MOL0     H 3215   8.688   6.757  11.379  1.2278  1.6666 -2.0554
  765MOL0     H 3216   8.702   6.759  11.671 -0.0620  2.1706  1.6205
  765MOL0     H 3217   8.677   6.925  11.630  0.1778 -0.6502  0.9502
  765MOL0     H 3218   8.458   6.856  11.497  1.5793  0.9327 -0.6869
  765MOL0     H 3219   8.486   6.693  11.543 -0.7253 -0.0752  0.3079
  765MOL0     H 3220   8.431   6.743  11.783 -0.3382  1.3809  1.0911
  765MOL0     H 3221   8.438   6.923  11.744  2.1525 -0.1477  0.0533
  765MOL0     H 3222   8.243   6.878  11.595  1.7686 -0.9231 -1.6003
  765MOL0     H 3223   8.233   6.714  11.632  0.9253  0.2441 -0.1883
  765MOL0     H 3224   8.201   6.956  11.808  2.7493 -0.2948  1.0122
  765MOL0     H 3225   8.209   6.796  11.883  0.3697  1.4632  1.3109
  765MOL0     H 3226   8.001   6.880  11.567  1.4098  0.0345  0.3806
  765MOL0     H 3227   7.645   6.837  11.644  0.6391 -0.6100  1.9779
  765MOL0     H 3228   7.748   6.853  11.507 -0.5764 -1.5362  0.1121
  765MOL0     H 3229   7.648   6.611  11.646 -0.8093  1.2726 -0.1836
  765MOL0     H 3230   7.784   6.573  11.560  1.6402  2.5424 -2.3646
  765MOL0     H 3231   7.676   6.638  11.340  1.7666 -0.6399  0.6107
  765MOL0     H 3232   7.529   6.707  11.432 -2.0916 -2.1351  0.0532
  765MOL0     H 3233   7.589   6.423  11.433 -0.3996  1.1192 -0.6752
  765MOL0     H 3234   7.490   6.513  11.315  0.1262 -1.5118 -1.6986
  765MOL0     H 3235   7.261   6.505  11.308 -0.3245 -1.9004  2.1239
  765MOL0     H 3236   7.023   6.712  11.217 -1.0297 -0.0761 -0.1508
  765MOL0     H 3237   7.097   6.562  11.187  2.2830 -0.4727  2.6341
  765MOL0     H 3238   6.937   6.555  11.268 -1.1105  1.9794  0.5443
  765MOL0     H 3239   6.662   6.662  11.276 -2.5732 -0.8307 -0.5165
  765MOL0     H 3240   6.419   6.697  11.284 -0.8986 -0.3523  0.0455
  765MOL0     H 3241   6.271   6.975  11.615  0.1145 -1.6312  0.1425
  765MOL0     H 3242   6.287   7.088  11.488  1.4638 -0.3169 -0.8638
  765MOL0     H 3243   6.076   6.940  11.398  4.2205  1.2514 -1.0897
  765MOL0     H 3244   6.072   6.921  11.586  0.9394  2.2704  1.8542
  765MOL0     H 3245   5.981   7.141  11.413 -2.0748  3.1566  1.6620
  765MOL0     H 3246   6.080   7.194  11.549  1.0920 -0.5856 -1.9115
  765MOL0     H 3247   5.855   6.997  11.568 -1.0689  0.6141  0.5926
  765MOL0     H 3248   5.931   7.075  11.700  1.3329  2.4535 -0.2480
  765MOL0     H 3249   5.790   7.214  11.481  0.3595 -0.6084 -0.0385
  765MOL0     H 3250   5.861   7.308  11.610 -2.7604  1.4221  0.9287
  765MOL0     H 3251   5.642   7.095  11.655  1.7644 -0.4688  1.4933
  765MOL0     H 3252   5.697   7.202  11.773 -2.2520 -4.2396  0.9201
  765MOL0     H 3253   5.571   7.282  11.526  4.4611 -1.8126 -0.0065
  765MOL0     H 3254   5.636   7.404  11.644  0.5188  0.6112  2.2943
  765MOL0     H 3255   5.476   7.338  11.818  0.9995 -0.2724 -0.9087
  765MOL0     H 3256   5.444   7.197  11.718  2.6601  0.0030  0.1347
  765MOL0     H 3257   6.500   7.035  11.547 -2.7471 -0.4967 -0.8146
  765MOL0     H 3258   6.735   6.995  11.534  0.3165  0.3103  0.4729
  765MOL0     H 3259   7.107   6.763  11.698 -4.4038 -2.1983  0.1024
  765MOL0     H 3260   7.313   6.651  11.709 -1.3350  1.7018  0.7374
  765MOL0     H 3261   9.274   7.037  11.487  3.8208 -1.4321 -0.0325
  765MOL0     H 3262   9.401   7.185  11.373 -0.4568  1.1286 -1.0650
  765MOL0     H 3263   9.415   7.474  10.823  0.6008  1.4069  0.6269
  765MOL0     H 3264   9.602   7.574  10.698  0.6504  2.1825  1.8008
  765MOL0     H 3265   9.994   7.489  10.862  0.4915 -1.7470 -0.5328
  765MOL0     H 3266  10.016   7.399  10.710 -0.6914 -1.2425  1.4819
  765MOL0     H 3267  10.046   7.704  10.778 -1.7944 -0.1530 -1.5904
  765MOL0     H 3268  10.072   7.636  10.616 -0.1767 -4.0529 -1.0420
  765MOL0     H 3269  10.246   7.479  10.723 -2.7088  0.2725 -1.5315
  765MOL0     H 3270  10.214   7.566  10.876 -2.1332  0.6691 -0.7415
  765MOL0     H 3271  10.287   7.781  10.800 -1.6620 -1.0636  1.4201
  765MOL0     H 3272  10.282   7.737  10.635  2.8885  4.2613 -0.0599
  765MOL0     H 3273  10.670   7.616  10.721 -0.0493  0.5421  0.0710
  765MOL0     H 3274   9.871   7.335  10.927 -0.2584 -0.1463  0.6543
  765MOL0     H 3275   9.703   7.243  11.043 -1.1088 -1.2075 -0.4800
  766MOL0     O 3276   5.127   0.594  10.497  0.1827 -0.2096  0.6527
  766MOL0     C 3277   5.133   0.478  10.528  0.5831 -0.0370  0.7443
  766MOL0     O 3278   5.043   0.410  10.603 -0.3108  0.2046 -0.5464
  766MOL0     C 3279   4.913   0.448  10.630  0.0314 -0.2780  0.6520
  766MOL0     C 3280   4.831   0.523  10.541 -0.3766  0.1874  0.6135
  766MOL0     C 3281   4.704   0.558  10.580  0.1522  0.1880 -0.7514
  766MOL0     C 3282   4.646   0.505  10.699 -0.0981 -0.5946 -0.6234
  766MOL0     O 3283   4.519   0.532  10.730  0.3381 -0.6530  0.3887
  766MOL0     C 3284   4.496   0.657  10.798 -0.2379 -0.0070 -1.3121
  766MOL0     C 3285   4.341   0.687  10.789 -0.7834  0.0531 -0.8485
  766MOL0     C 3286   4.299   0.702  10.640 -0.3593 -0.1262 -1.3035
  766MOL0     C 3287   4.147   0.676  10.643  0.6507  0.0273  0.1757
  766MOL0     C 3288   4.068   0.659  10.507  0.1473  0.5105  0.2972
  766MOL0     C 3289   4.095   0.774  10.404  0.8606 -0.0230 -0.6855
  766MOL0     C 3290   4.031   0.917  10.431 -0.0088  0.6359 -0.7024
  766MOL0     C 3291   3.880   0.914  10.452  0.2898  0.2165  0.4987
  766MOL0     N 3292   3.818   1.051  10.457 -0.1404 -0.1652  0.0911
  766MOL0     C 3293   3.683   1.076  10.427  0.0226  0.7834 -0.2292
  766MOL0     C 3294   3.668   1.198  10.462 -0.5485 -0.3249 -0.2839
  766MOL0     C 3295   3.539   1.280  10.465  0.2777 -0.2328 -0.1831
  766MOL0     C 3296   3.496   1.330  10.324 -0.8636 -0.7022 -0.2280
  766MOL0     C 3297   3.372   1.430  10.337  0.5943 -0.5814  0.9071
  766MOL0     C 3298   3.327   1.479  10.199 -0.3171 -0.0558 -0.1760
  766MOL0     O 3299   3.244   1.595  10.206  0.2172 -0.1656 -0.1014
  766MOL0     C 3300   3.107   1.575  10.217 -0.5784 -0.0582  0.3466
  766MOL0     C 3301   3.040   1.457  10.256 -0.3087 -0.4499 -0.8431
  766MOL0     C 3302   2.903   1.444  10.261 -0.2938  0.5620  0.0934
  766MOL0     C 3303   2.855   1.313  10.308 -0.0935  0.6533  0.3509
  766MOL0     C 3304   2.816   1.548  10.229  0.2681 -0.7633  0.0407
  766MOL0     C 3305   2.662   1.539  10.232  0.0302  0.4622 -0.0042
  766MOL0     O 3306   2.595   1.665  10.229  0.2475  0.2402  0.2325
  766MOL0     C 3307   2.461   1.675  10.229  0.2022 -0.1061 -0.8162
  766MOL0     C 3308   2.388   1.717  10.109 -0.5412  0.1784 -0.1760
  766MOL0     C 3309   2.245   1.723  10.123 -0.1893 -0.3260  0.4591
  766MOL0     C 3310   2.177   1.697  10.237  1.3938  0.3584 -0.1158
  766MOL0     O 3311   2.042   1.709  10.237  0.1743  0.0315  0.1468
  766MOL0     C 3312   1.958   1.626  10.324  0.2382  0.2909  0.1365
  766MOL0     C 3313   1.810   1.664  10.299 -1.0115  0.3091  0.1446
  766MOL0     C 3314   1.794   1.808  10.334  0.2355  0.1046  0.2259
  766MOL0     C 3315   1.636   1.830  10.333 -0.2675 -0.0509  0.4634
  766MOL0     C 3316   1.617   1.982  10.321  0.4782 -0.5194 -1.0265
  766MOL0     C 3317   1.471   2.017  10.320  0.3683  0.7660  0.2622
  766MOL0     C 3318   1.456   2.169  10.309 -0.1742 -0.4951  0.0155
  766MOL0     C 3319   1.308   2.203  10.287 -0.3932 -0.2377 -0.3493
  766MOL0    Cl 3320   1.268   2.137  10.125  0.6609  0.0182  0.1321
  766MOL0     C 3321   2.249   1.661  10.348  0.9022 -0.0436 -0.3239
  766MOL0     C 3322   2.391   1.651  10.347  0.8342 -0.5188  0.2228
  766MOL0     O 3323   2.606   1.430  10.229 -0.2379  0.3912 -0.1024
  766MOL0     C 3324   2.887   1.668  10.187 -0.8946  0.3546  0.1629
  766MOL0     C 3325   3.029   1.679  10.184  0.9692 -0.4370  0.0962
  766MOL0     N 3326   3.785   1.249  10.501  0.1489  0.4527  0.2049
  766MOL0     N 3327   3.884   1.167  10.498  0.0530 -0.0496 -0.6682
  766MOL0     C 3328   4.723   0.433  10.789  0.7337 -0.6833  0.1838
  766MOL0     C 3329   4.855   0.401  10.753  0.0837 -0.5624  0.1474
  766MOL0     C 3330   5.260   0.408  10.487  0.4655 -0.4521  0.1809
  766MOL0     C 3331   5.375   0.475  10.442  0.0456  0.1127  0.7479
  766MOL0     C 3332   5.486   0.404  10.398 -0.3367  0.1748 -0.3613
  766MOL0     C 3333   5.493   0.263  10.415  0.2743  0.3805 -0.4552
  766MOL0     O 3334   5.598   0.175  10.383  0.6775  0.2170 -0.1175
  766MOL0     C 3335   5.698   0.235  10.294 -0.4067 -0.0456 -0.0252
  766MOL0     C 3336   5.820   0.142  10.282 -0.2952  0.6260 -0.4024
  766MOL0     C 3337   5.882   0.093  10.418  0.0562 -0.1519 -0.4488
  766MOL0     C 3338   6.021   0.028  10.385  0.5490  0.7062  0.9802
  766MOL0     C 3339   6.007  -0.111  10.343  0.4180 -0.2912  0.1407
  766MOL0     C 3340   5.981  -0.226  10.297 -0.3797  0.1769 -0.5336
  766MOL0     C 3341   5.381   0.196  10.467 -0.1336 -1.1419  0.2278
  766MOL0     C 3342   5.259   0.264  10.494  0.1092 -0.0474 -0.1246
  766MOL0     H 3343   4.865   0.566  10.447  0.6001  1.3646  1.4768
  766MOL0     H 3344   4.641   0.631  10.529 -0.5872  1.7185  2.0997
  766MOL0     H 3345   4.517   0.647  10.905 -1.3285  0.9228 -0.9865
  766MOL0     H 3346   4.551   0.739  10.750 -2.3279  1.6752 -1.0187
  766MOL0     H 3347   4.286   0.604  10.833  2.3797 -1.8041 -0.0720
  766MOL0     H 3348   4.332   0.780  10.846 -0.0034 -1.2338  1.5239
  766MOL0     H 3349   4.325   0.803  10.607 -2.2579  0.4885 -1.0331
  766MOL0     H 3350   4.340   0.622  10.577 -0.6327 -0.6279 -0.8513
  766MOL0     H 3351   4.129   0.589  10.707  0.0217 -1.3666 -1.7896
  766MOL0     H 3352   4.086   0.754  10.689  0.6329  1.5508 -2.2289
  766MOL0     H 3353   4.088   0.562  10.461 -2.2857  0.6513 -1.2128
  766MOL0     H 3354   3.963   0.652  10.537  0.0743  1.3471  0.2472
  766MOL0     H 3355   4.204   0.778  10.399  0.8217  0.8271 -1.1079
  766MOL0     H 3356   4.072   0.749  10.300  1.2888 -0.7948 -0.5993
  766MOL0     H 3357   4.081   0.973  10.511  0.1156 -1.2199  0.5838
  766MOL0     H 3358   4.054   0.976  10.342  0.8064  2.2835  0.5397
  766MOL0     H 3359   3.869   0.864  10.548  0.7934 -2.9391 -0.9372
  766MOL0     H 3360   3.832   0.847  10.380  0.8930 -1.2593  1.4234
  766MOL0     H 3361   3.619   1.003  10.379  0.4265 -0.1581  0.6187
  766MOL0     H 3362   3.450   1.221  10.489  0.2367 -0.2491 -0.3720
  766MOL0     H 3363   3.546   1.363  10.535 -2.9867  1.2486 -1.4465
  766MOL0     H 3364   3.475   1.242  10.263 -2.6754 -0.6100  0.1992
  766MOL0     H 3365   3.575   1.382  10.269 -1.4489  0.7563  0.2772
  766MOL0     H 3366   3.394   1.520  10.394  1.1637  1.2575 -1.9900
  766MOL0     H 3367   3.286   1.379  10.382  0.6000 -1.0892  0.3707
  766MOL0     H 3368   3.269   1.396  10.156 -0.0820 -1.5295  2.1761
  766MOL0     H 3369   3.416   1.487  10.137 -0.1930 -0.6821 -0.0880
  766MOL0     H 3370   3.099   1.372  10.289 -2.3479 -1.5638  0.1684
  766MOL0     H 3371   2.795   1.275  10.225 -1.1641  1.2102  0.8512
  766MOL0     H 3372   2.933   1.238  10.321 -2.0260 -1.3717  0.8420
  766MOL0     H 3373   2.796   1.307  10.400 -1.2960 -0.7945 -0.4686
  766MOL0     H 3374   2.434   1.748  10.016  1.4024 -0.1098  0.6287
  766MOL0     H 3375   2.196   1.757  10.032  1.8827 -1.3919 -1.1445
  766MOL0     H 3376   1.980   1.520  10.306  0.0145  0.3359 -0.4196
  766MOL0     H 3377   1.974   1.634  10.432  0.8549 -0.2160  0.0863
  766MOL0     H 3378   1.772   1.639  10.200 -0.4673  1.0261 -0.2631
  766MOL0     H 3379   1.749   1.606  10.368 -3.4490  2.9470  0.3931
  766MOL0     H 3380   1.830   1.883  10.263  0.7734  0.4512  0.8548
  766MOL0     H 3381   1.830   1.821  10.437 -0.1370 -1.6318  0.6022
  766MOL0     H 3382   1.586   1.785  10.247 -3.8565  1.4757  1.5387
  766MOL0     H 3383   1.599   1.788  10.427 -0.4075 -2.8962 -0.7603
  766MOL0     H 3384   1.664   2.020  10.230  0.1316  3.6624  0.3479
  766MOL0     H 3385   1.671   2.016  10.410 -0.2618 -2.3055  0.1675
  766MOL0     H 3386   1.423   1.963  10.238  1.8027 -1.4052  0.7592
  766MOL0     H 3387   1.415   1.984  10.408 -1.6490  1.1080 -0.8353
  766MOL0     H 3388   1.517   2.210  10.228  0.5330  1.7915  1.6068
  766MOL0     H 3389   1.490   2.218  10.401  4.8087 -2.2154 -0.6334
  766MOL0     H 3390   1.309   2.312  10.284  0.6268 -0.2666 -2.9163
  766MOL0     H 3391   1.245   2.163  10.367  3.3061 -2.6805  1.6283
  766MOL0     H 3392   2.195   1.646  10.441 -1.2357 -0.6146 -1.5781
  766MOL0     H 3393   2.442   1.618  10.438  0.3022  0.3493  0.8456
  766MOL0     H 3394   2.818   1.744  10.148 -4.5812 -1.1056  3.1764
  766MOL0     H 3395   3.072   1.772  10.148  1.3886 -0.9169 -0.6470
  766MOL0     H 3396   4.677   0.391  10.878  0.0056 -1.6826 -0.6502
  766MOL0     H 3397   4.909   0.344  10.828 -0.7697  0.8529  1.9064
  766MOL0     H 3398   5.375   0.584  10.441 -0.0312  0.1249 -1.0771
  766MOL0     H 3399   5.569   0.453  10.348 -0.2845  1.3234  0.8110
  766MOL0     H 3400   5.657   0.248  10.194  2.5613 -1.0356 -1.4601
  766MOL0     H 3401   5.736   0.330  10.333  0.9309 -0.5268 -0.1218
  766MOL0     H 3402   5.897   0.196  10.227 -0.6803  0.3692 -1.2014
  766MOL0     H 3403   5.799   0.049  10.228  3.7087 -0.2076 -0.7878
  766MOL0     H 3404   5.816   0.037  10.485  0.5974  1.5694  1.6406
  766MOL0     H 3405   5.894   0.185  10.477  0.6501  1.1460 -2.4821
  766MOL0     H 3406   6.081   0.040  10.476  1.5806 -2.3401  0.8115
  766MOL0     H 3407   6.074   0.078  10.304 -1.6378 -0.3201 -1.2306
  766MOL0     H 3408   5.970  -0.328  10.266  0.5605 -0.7185  1.8780
  766MOL0     H 3409   5.376   0.088  10.469 -0.3934 -1.1532 -0.7718
  766MOL0     H 3410   5.174   0.208  10.532  1.2435 -1.2548  0.7540
  767MOL0     O 3411   6.117   1.746   3.972  0.2834  0.3189  0.0403
  767MOL0     C 3412   6.205   1.685   3.926  0.4264  0.2275  0.1052
  767MOL0     O 3413   6.190   1.587   3.831 -0.2347  0.1408  0.0313
  767MOL0     C 3414   6.066   1.539   3.798 -0.1278  0.4505  0.1239
  767MOL0     C 3415   6.001   1.592   3.683 -0.1200  0.2620 -0.2616
  767MOL0     C 3416   5.874   1.550   3.656  0.6352 -0.3835  0.9422
  767MOL0     C 3417   5.806   1.452   3.736 -0.1237  0.1965  0.2233
  767MOL0     O 3418   5.678   1.421   3.702  0.1984  0.5838  0.0832
  767MOL0     C 3419   5.592   1.340   3.787  0.3686  0.0434  0.9129
  767MOL0     C 3420   5.449   1.347   3.733  0.2846  0.2332 -0.2732
  767MOL0     C 3421   5.345   1.270   3.827  0.3466  0.1127 -0.1169
  767MOL0     C 3422   5.209   1.295   3.764  0.3603 -0.9101 -0.2613
  767MOL0     C 3423   5.097   1.231   3.843 -1.0554  0.5737  0.4813
  767MOL0     C 3424   4.961   1.226   3.784 -0.0822  0.2267  0.8989
  767MOL0     C 3425   4.907   1.371   3.751  0.0196  0.3239 -0.4615
  767MOL0     C 3426   4.782   1.357   3.653 -0.0331  0.6866  0.7013
  767MOL0     N 3427   4.675   1.278   3.711  1.0075  0.0057  0.1761
  767MOL0     C 3428   4.573   1.328   3.793 -0.2303  0.8552 -0.6097
  767MOL0     C 3429   4.487   1.225   3.803  0.3759 -0.2808 -0.5487
  767MOL0     C 3430   4.357   1.224   3.878  0.4517 -1.2102  0.3512
  767MOL0     C 3431   4.253   1.133   3.819 -0.8894  0.6760  0.5170
  767MOL0     C 3432   4.225   1.164   3.665  0.1065 -0.6003 -0.6531
  767MOL0     C 3433   4.097   1.094   3.641  0.3186  0.5007  0.3080
  767MOL0     O 3434   3.995   1.193   3.627 -0.2449 -0.3346  0.4229
  767MOL0     C 3435   3.863   1.154   3.594 -0.2529  0.2301 -0.6070
  767MOL0     C 3436   3.771   1.259   3.592 -0.1531  0.2674  0.9237
  767MOL0     C 3437   3.633   1.240   3.548 -0.5961  0.3396 -1.0979
  767MOL0     C 3438   3.548   1.360   3.533 -0.1570  0.1928 -1.2053
  767MOL0     C 3439   3.599   1.112   3.499 -0.3035 -0.0868  0.5836
  767MOL0     C 3440   3.458   1.084   3.444  0.5047 -0.3946  0.8524
  767MOL0     O 3441   3.449   0.975   3.357 -0.6610  0.4812 -0.6748
  767MOL0     C 3442   3.319   0.931   3.330 -0.2660  0.0101 -0.5204
  767MOL0     C 3443   3.270   0.952   3.205 -0.3500 -1.7104  0.8365
  767MOL0     C 3444   3.139   0.921   3.177 -0.1001 -0.0072  0.2448
  767MOL0     C 3445   3.051   0.872   3.272 -0.1821  0.4289  0.7067
  767MOL0     O 3446   2.922   0.840   3.234 -0.7091 -1.1630  0.3815
  767MOL0     C 3447   2.821   0.863   3.338  0.6926  0.3401  0.9522
  767MOL0     C 3448   2.682   0.890   3.271 -0.3168 -0.1052 -0.8753
  767MOL0     C 3449   2.688   0.994   3.161  0.6542 -0.2582 -0.5442
  767MOL0     C 3450   2.554   1.006   3.094  0.4810 -0.1641  0.2432
  767MOL0     C 3451   2.543   1.135   3.004  0.3601 -0.6053  0.3558
  767MOL0     C 3452   2.618   1.102   2.872  0.5861  0.2280  0.1808
  767MOL0     C 3453   2.638   1.221   2.792 -1.0878 -0.0579 -0.4074
  767MOL0     C 3454   2.778   1.231   2.735 -0.0947  0.2260  0.4183
  767MOL0    Cl 3455   2.900   1.280   2.857 -0.0059 -0.2655  0.0719
  767MOL0     C 3456   3.101   0.856   3.399 -0.9405  0.0424 -0.0789
  767MOL0     C 3457   3.236   0.881   3.434  0.3556  0.3348  0.2286
  767MOL0     O 3458   3.362   1.162   3.464 -0.0846 -0.5825  0.0691
  767MOL0     C 3459   3.689   1.004   3.517  0.4915 -0.4564  0.2783
  767MOL0     C 3460   3.815   1.025   3.563 -0.1332  0.6370  0.0709
  767MOL0     N 3461   4.537   1.112   3.747 -0.0860 -0.7791  0.3081
  767MOL0     N 3462   4.648   1.148   3.693  0.4088  0.4291  0.1802
  767MOL0     C 3463   5.877   1.405   3.849  0.3062 -0.9452  0.4676
  767MOL0     C 3464   6.008   1.436   3.874  0.4440 -1.0446  0.2309
  767MOL0     C 3465   6.339   1.722   3.974 -0.0916  0.0234 -1.2303
  767MOL0     C 3466   6.453   1.672   3.903  0.3885 -0.6468  0.3106
  767MOL0     C 3467   6.578   1.711   3.937 -0.3709  0.2754 -0.5643
  767MOL0     C 3468   6.597   1.799   4.044  0.9607  0.6026 -0.3480
  767MOL0     O 3469   6.730   1.828   4.062 -0.2662  0.6887 -0.9252
  767MOL0     C 3470   6.754   1.940   4.146  0.2652 -0.0681  0.3490
  767MOL0     C 3471   6.882   2.007   4.117 -0.7089 -0.0968  0.5788
  767MOL0     C 3472   6.962   2.019   4.243  0.2069 -1.3742  0.2019
  767MOL0     C 3473   7.049   2.149   4.257  0.3859 -0.5080  0.2995
  767MOL0     C 3474   7.156   2.141   4.157 -0.3110 -0.9953 -0.6791
  767MOL0     C 3475   7.260   2.119   4.093 -0.4069  0.9268  0.3197
  767MOL0     C 3476   6.491   1.841   4.121  0.2158  0.5441 -0.9475
  767MOL0     C 3477   6.363   1.806   4.084  0.4483  0.6282 -0.0991
  767MOL0     H 3478   6.057   1.666   3.628  0.2096  0.9376  0.9493
  767MOL0     H 3479   5.826   1.585   3.565 -0.1420 -0.4896  1.3101
  767MOL0     H 3480   5.611   1.232   3.787 -2.2954 -0.5317  2.7846
  767MOL0     H 3481   5.595   1.369   3.892 -1.7828 -0.6277  1.1978
  767MOL0     H 3482   5.416   1.451   3.730 -0.3539  0.0161 -0.9440
  767MOL0     H 3483   5.440   1.302   3.634 -4.3855 -3.3867  1.4234
  767MOL0     H 3484   5.357   1.162   3.836 -3.7415 -0.3741  1.4408
  767MOL0     H 3485   5.341   1.313   3.928  2.7830  1.0756 -0.3601
  767MOL0     H 3486   5.185   1.402   3.773 -0.1787 -1.0895  0.4913
  767MOL0     H 3487   5.204   1.268   3.658 -1.5146  0.8074 -0.6789
  767MOL0     H 3488   5.122   1.124   3.847  0.3839  0.9253  1.9397
  767MOL0     H 3489   5.111   1.275   3.942  1.8303  0.2369  0.3170
  767MOL0     H 3490   4.961   1.159   3.698 -2.3839  0.7305  0.4291
  767MOL0     H 3491   4.893   1.191   3.863 -2.6665  1.3810 -0.6688
  767MOL0     H 3492   4.870   1.418   3.843  0.7367  3.2054 -1.5399
  767MOL0     H 3493   4.987   1.434   3.712  1.4672 -1.7197 -0.9475
  767MOL0     H 3494   4.815   1.316   3.558 -0.8964  3.8087 -1.1032
  767MOL0     H 3495   4.735   1.455   3.637  1.4468  1.5426  1.3524
  767MOL0     H 3496   4.551   1.426   3.834  0.4185  0.8847 -0.3304
  767MOL0     H 3497   4.379   1.198   3.982 -0.9917 -1.4000  0.6299
  767MOL0     H 3498   4.325   1.326   3.898  0.2084 -1.5167  1.6267
  767MOL0     H 3499   4.165   1.132   3.885 -0.7437  0.5972  0.7131
  767MOL0     H 3500   4.290   1.030   3.828 -0.8977  0.8063  2.9003
  767MOL0     H 3501   4.302   1.133   3.594  0.0372  1.8291 -1.8904
  767MOL0     H 3502   4.220   1.272   3.648 -0.5724 -0.4731  0.2655
  767MOL0     H 3503   4.072   1.010   3.706  2.0697 -1.0843 -0.9658
  767MOL0     H 3504   4.113   1.035   3.550 -4.3673 -2.5240  1.1080
  767MOL0     H 3505   3.802   1.361   3.612 -0.6123  1.1240 -2.3086
  767MOL0     H 3506   3.608   1.450   3.548  1.0004 -1.0228  2.6473
  767MOL0     H 3507   3.496   1.363   3.437  0.4019  1.2831 -1.4883
  767MOL0     H 3508   3.493   1.362   3.628  2.6352  1.0669  0.5083
  767MOL0     H 3509   3.338   0.995   3.132  0.2840 -1.3030  1.6548
  767MOL0     H 3510   3.117   0.942   3.073  2.7721 -0.2247 -0.4891
  767MOL0     H 3511   2.810   0.772   3.399 -3.0240  2.2217  3.4401
  767MOL0     H 3512   2.842   0.945   3.407 -1.1986  0.1466  1.8253
  767MOL0     H 3513   2.639   0.797   3.233  0.3838 -0.9469  0.3182
  767MOL0     H 3514   2.617   0.915   3.356  1.6670  1.1833  0.3461
  767MOL0     H 3515   2.758   0.958   3.085  0.5671  1.1797 -1.3398
  767MOL0     H 3516   2.716   1.095   3.192 -1.8133 -0.1485  1.6541
  767MOL0     H 3517   2.536   0.919   3.031  1.3205 -0.4953  0.4447
  767MOL0     H 3518   2.484   1.004   3.178  0.6432  0.7451  0.4051
  767MOL0     H 3519   2.596   1.215   3.058 -0.5318 -0.2137  0.6858
  767MOL0     H 3520   2.438   1.164   2.987  1.1108  1.0547 -1.8760
  767MOL0     H 3521   2.715   1.058   2.897  0.9549  0.3686 -0.9369
  767MOL0     H 3522   2.568   1.023   2.816  1.1252 -0.9454  1.2987
  767MOL0     H 3523   2.618   1.314   2.846 -3.0305  0.5319 -2.0179
  767MOL0     H 3524   2.567   1.221   2.709 -0.1194  1.0337 -1.2805
  767MOL0     H 3525   2.779   1.296   2.648 -2.2425  0.6703  0.6685
  767MOL0     H 3526   2.801   1.128   2.705 -1.0004  0.5480 -1.5136
  767MOL0     H 3527   3.048   0.801   3.476  1.9947 -0.6012  1.6297
  767MOL0     H 3528   3.280   0.853   3.530  0.8213  0.9688  0.2057
  767MOL0     H 3529   3.652   0.909   3.480 -0.6148  0.1856 -0.3247
  767MOL0     H 3530   3.875   0.937   3.585 -0.4451 -0.3056 -2.5563
  767MOL0     H 3531   5.838   1.328   3.915 -0.7686 -0.0976  0.8396
  767MOL0     H 3532   6.061   1.401   3.962  2.5379  1.0886 -0.0789
  767MOL0     H 3533   6.449   1.603   3.819 -1.9419 -0.4113  0.1818
  767MOL0     H 3534   6.657   1.675   3.872 -0.6398 -2.4321  0.4649
  767MOL0     H 3535   6.680   2.018   4.123  0.5905  0.3548  0.7140
  767MOL0     H 3536   6.739   1.928   4.254 -0.9704  2.4326  0.5461
  767MOL0     H 3537   6.875   2.106   4.070  3.0617  0.0271 -0.0738
  767MOL0     H 3538   6.935   1.944   4.045  0.3578  1.9109 -0.5056
  767MOL0     H 3539   7.024   1.930   4.245  0.0030 -1.5158  1.8001
  767MOL0     H 3540   6.896   2.011   4.330  2.3903  0.6797  2.2131
  767MOL0     H 3541   7.098   2.155   4.355 -0.5987  2.5656  0.7137
  767MOL0     H 3542   6.996   2.244   4.245  2.2068  0.2794 -2.3328
  767MOL0     H 3543   7.331   2.086   4.019 -0.2203  1.5546  0.2124
  767MOL0     H 3544   6.498   1.913   4.202  0.8393  2.4641 -2.6320
  767MOL0     H 3545   6.279   1.843   4.142  0.9155 -0.4216  1.3079
  768MOL0     O 3546   3.205   7.582  11.154 -0.2931  0.0628  0.6659
  768MOL0     C 3547   3.269   7.537  11.060  0.4078  1.0155  0.0211
  768MOL0     O 3548   3.238   7.551  10.929 -0.1153 -0.2138  1.1335
  768MOL0     C 3549   3.151   7.652  10.897  0.4173 -0.3185  0.1632
  768MOL0     C 3550   3.192   7.786  10.901  0.5384 -0.7167 -0.4748
  768MOL0     C 3551   3.105   7.885  10.847 -0.3238  0.7792  0.6108
  768MOL0     C 3552   2.987   7.850  10.803  0.0630  0.2258 -0.5240
  768MOL0     O 3553   2.919   7.964  10.755  0.2119  0.9320 -0.7287
  768MOL0     C 3554   2.798   7.942  10.668 -1.0662  0.6715  0.4040
  768MOL0     C 3555   2.786   8.073  10.588  0.5290 -1.0780 -0.0650
  768MOL0     C 3556   2.692   8.074  10.470  0.3494  0.6348  0.4027
  768MOL0     C 3557   2.549   8.042  10.508  0.1061  0.1051 -0.2785
  768MOL0     C 3558   2.463   8.079  10.390  0.4551 -0.4911  0.4943
  768MOL0     C 3559   2.319   8.022  10.399  0.0198 -0.2742  0.1456
  768MOL0     C 3560   2.302   7.884  10.342  0.3001 -0.1234 -0.5435
  768MOL0     C 3561   2.154   7.836  10.351  0.7036  0.2560 -0.0491
  768MOL0     N 3562   2.065   7.909  10.254 -0.0107 -0.3903 -0.2001
  768MOL0     C 3563   2.053   7.879  10.122 -0.0730  0.6908  0.1023
  768MOL0     C 3564   1.953   7.959  10.084 -0.0443 -0.6904 -0.0998
  768MOL0     C 3565   1.897   7.975   9.947  0.0349  0.0994 -0.3008
  768MOL0     C 3566   1.741   7.952   9.949 -0.6445  0.0863 -0.1167
  768MOL0     C 3567   1.675   7.979   9.814 -0.7869 -0.7702 -0.9193
  768MOL0     C 3568   1.522   7.988   9.833 -0.0430  0.2170  0.1039
  768MOL0     O 3569   1.462   7.869   9.895 -0.1104  0.3248  0.7023
  768MOL0     C 3570   1.332   7.859   9.939  0.2122  0.0604  0.0191
  768MOL0     C 3571   1.301   7.754  10.018  0.0394  0.7343 -0.5799
  768MOL0     C 3572   1.162   7.732  10.057  0.3775 -0.5539  0.1283
  768MOL0     C 3573   1.137   7.624  10.165 -0.6519  0.1583  0.2474
  768MOL0     C 3574   1.053   7.819  10.017 -0.0218  0.2086 -0.3726
  768MOL0     C 3575   0.916   7.792  10.054  0.5988 -0.2581 -0.1119
  768MOL0     O 3576   0.822   7.834   9.960  0.1938 -0.2541 -0.5060
  768MOL0     C 3577   0.689   7.819   9.982 -0.5015 -0.5144 -0.6025
  768MOL0     C 3578   0.624   7.862  10.095 -0.0355  0.9714 -0.9330
  768MOL0     C 3579   0.488   7.831  10.116  0.2620 -0.0884  0.1151
  768MOL0     C 3580   0.407   7.762  10.017 -0.9472 -1.0569  0.5212
  768MOL0     O 3581   0.278   7.729  10.047 -0.0076 -0.2343 -0.1455
  768MOL0     C 3582   0.233   7.605   9.983 -0.2923  0.0965 -0.1782
  768MOL0     C 3583   0.079   7.579  10.000 -0.4745  0.1237  0.3247
  768MOL0     C 3584  -0.008   7.703  10.013  0.3196  0.7096 -0.3784
  768MOL0     C 3585  -0.156   7.666  10.020 -0.7791  0.0100  0.0750
  768MOL0     C 3586  -0.230   7.795  10.007  0.0714  0.5847  0.0477
  768MOL0     C 3587  -0.385   7.777   9.968 -0.0547 -0.0896  0.0520
  768MOL0     C 3588  -0.454   7.911   9.953 -2.0258 -0.4607  0.4858
  768MOL0     C 3589  -0.608   7.897   9.929  0.8676 -0.0034 -0.7873
  768MOL0    Cl 3590  -0.685   7.860  10.091 -0.0897 -0.0825  0.5747
  768MOL0     C 3591   0.472   7.739   9.895 -0.4228  0.3323 -1.2560
  768MOL0     C 3592   0.610   7.763   9.879  0.9957  0.6326  0.0271
  768MOL0     O 3593   0.894   7.732  10.159  0.3733  0.9235 -0.1721
  768MOL0     C 3594   1.094   7.928   9.937  0.3797  0.7298  0.6362
  768MOL0     C 3595   1.227   7.947   9.899 -0.3464  0.3824  0.0472
  768MOL0     N 3596   1.913   8.048  10.184 -0.8700  0.4374  0.0809
  768MOL0     N 3597   1.984   8.014  10.288  0.6112  0.0909  0.7610
  768MOL0     C 3598   2.940   7.723  10.807  0.7163  0.6168 -0.0740
  768MOL0     C 3599   3.022   7.619  10.858 -0.1733 -0.2841  0.0614
  768MOL0     C 3600   3.398   7.474  11.093 -0.8465  0.5435 -0.1913
  768MOL0     C 3601   3.490   7.528  11.186 -0.8092 -0.7157  0.7395
  768MOL0     C 3602   3.613   7.465  11.201  0.6000  0.8038 -0.2615
  768MOL0     C 3603   3.644   7.352  11.124 -0.2802 -0.3092  0.3914
  768MOL0     O 3604   3.768   7.286  11.141 -0.9894  0.4614 -0.5984
  768MOL0     C 3605   3.896   7.361  11.137 -0.1997  0.3599 -0.3801
  768MOL0     C 3606   3.927   7.435  11.012  0.1635 -0.0923  0.3937
  768MOL0     C 3607   4.014   7.367  10.906  0.9191 -0.3186 -0.3518
  768MOL0     C 3608   3.943   7.242  10.845  0.6134  0.4559 -0.1716
  768MOL0     C 3609   3.821   7.284  10.774  0.0499 -0.2440 -0.0968
  768MOL0     C 3610   3.718   7.336  10.723 -0.0382 -0.0341 -0.0491
  768MOL0     C 3611   3.552   7.293  11.037 -0.2527 -0.6347 -0.2403
  768MOL0     C 3612   3.432   7.356  11.016 -0.1634  0.1386 -0.1659
  768MOL0     H 3613   3.292   7.820  10.926 -0.4015  0.7681  1.5954
  768MOL0     H 3614   3.135   7.990  10.853  2.9522  0.0304 -0.7206
  768MOL0     H 3615   2.821   7.864  10.596 -2.1154  0.7967 -0.0938
  768MOL0     H 3616   2.703   7.921  10.719 -0.9537  0.3009  0.4628
  768MOL0     H 3617   2.754   8.155  10.653  0.8167 -2.5264  1.9658
  768MOL0     H 3618   2.885   8.095  10.547  0.9613 -1.5602  0.7208
  768MOL0     H 3619   2.709   8.176  10.434 -1.0096  1.2080  1.2899
  768MOL0     H 3620   2.725   8.009  10.389  1.2702  2.4587 -0.7617
  768MOL0     H 3621   2.563   7.935  10.528  2.4503  0.4123  0.0998
  768MOL0     H 3622   2.506   8.104  10.587 -2.5328 -0.3514 -1.2850
  768MOL0     H 3623   2.450   8.187  10.384 -1.0728 -0.5055  2.4456
  768MOL0     H 3624   2.504   8.038  10.296 -1.6446  1.8935 -1.6071
  768MOL0     H 3625   2.300   8.017  10.507  3.0110  0.4952  0.7768
  768MOL0     H 3626   2.246   8.093  10.358  2.0746  0.7109 -2.0730
  768MOL0     H 3627   2.327   7.878  10.236  0.5744 -1.0712 -0.4337
  768MOL0     H 3628   2.365   7.812  10.394 -0.1284 -0.5837 -0.6589
  768MOL0     H 3629   2.134   7.844  10.458 -0.8930  0.1272 -0.3145
  768MOL0     H 3630   2.139   7.732  10.322 -1.7886  0.5624 -0.1504
  768MOL0     H 3631   2.119   7.820  10.059  0.2309  1.6724 -0.5242
  768MOL0     H 3632   1.919   8.073   9.903  1.4325 -0.6050 -1.2172
  768MOL0     H 3633   1.942   7.908   9.874 -0.7282  1.4651 -2.1110
  768MOL0     H 3634   1.704   8.029  10.017 -0.7237  0.7524 -0.8991
  768MOL0     H 3635   1.717   7.856   9.996  1.8236 -0.5794 -0.0814
  768MOL0     H 3636   1.696   7.898   9.744 -3.3613 -0.4974 -2.1114
  768MOL0     H 3637   1.724   8.068   9.773  1.5638 -1.9884 -0.9383
  768MOL0     H 3638   1.464   8.008   9.743 -0.4053 -1.8628 -0.1737
  768MOL0     H 3639   1.502   8.072   9.900  1.5287 -0.8625  2.0708
  768MOL0     H 3640   1.376   7.692  10.066 -2.9245 -2.1218  0.7916
  768MOL0     H 3641   1.228   7.564  10.167 -0.0458  1.0341 -0.5738
  768MOL0     H 3642   1.130   7.673  10.263  1.2255  1.2253 -0.1008
  768MOL0     H 3643   1.052   7.555  10.156 -3.4478  3.1664  1.4599
  768MOL0     H 3644   0.672   7.935  10.160 -2.2562  2.5955 -0.9953
  768MOL0     H 3645   0.444   7.857  10.212  0.0187 -2.0205  0.5611
  768MOL0     H 3646   0.263   7.599   9.878  1.1015 -2.0356  0.2821
  768MOL0     H 3647   0.288   7.519  10.020  4.1358  2.5806 -0.3362
  768MOL0     H 3648   0.050   7.534   9.905  2.1721 -0.6133 -0.2165
  768MOL0     H 3649   0.044   7.502  10.069 -0.3565 -1.6590 -1.5241
  768MOL0     H 3650   0.017   7.782   9.942  0.2321  1.6348  0.5851
  768MOL0     H 3651   0.005   7.742  10.115 -1.1736 -2.8373  1.3745
  768MOL0     H 3652  -0.189   7.611   9.931 -0.7158 -0.2450  0.2058
  768MOL0     H 3653  -0.179   7.610  10.111 -0.0201  0.6151  0.6443
  768MOL0     H 3654  -0.194   7.870   9.936 -2.3124  3.4459  1.6752
  768MOL0     H 3655  -0.229   7.847  10.103 -0.9292 -0.4535  0.6524
  768MOL0     H 3656  -0.404   7.709   9.884  2.9667  0.8763 -1.5678
  768MOL0     H 3657  -0.437   7.733  10.053  0.6048  0.9523  1.0321
  768MOL0     H 3658  -0.406   7.958   9.866 -1.6145 -0.9954  0.4218
  768MOL0     H 3659  -0.437   7.974  10.041 -2.6926  1.9295 -0.9883
  768MOL0     H 3660  -0.638   7.821   9.856 -1.4003 -0.8703  0.9336
  768MOL0     H 3661  -0.636   7.996   9.890  1.7608 -0.2662 -2.1882
  768MOL0     H 3662   0.409   7.697   9.817 -3.9043 -2.1341  2.4933
  768MOL0     H 3663   0.661   7.725   9.791 -0.8981 -1.5954 -0.1861
  768MOL0     H 3664   1.028   8.008   9.907  1.3183  0.8291 -1.2837
  768MOL0     H 3665   1.250   8.035   9.841 -0.8025  0.9335  0.6946
  768MOL0     H 3666   2.843   7.710  10.759 -0.1275  1.4026  1.3414
  768MOL0     H 3667   2.993   7.515  10.850  1.0490 -0.7062  0.8074
  768MOL0     H 3668   3.456   7.611  11.247 -2.0384 -2.6965  2.9046
  768MOL0     H 3669   3.691   7.499  11.269  1.8415 -0.5500 -0.9367
  768MOL0     H 3670   3.888   7.433  11.218 -0.4959 -1.1180  0.9469
  768MOL0     H 3671   3.983   7.295  11.151  1.6728  2.5072 -1.2925
  768MOL0     H 3672   3.988   7.522  11.038  0.5612 -0.8768  2.3388
  768MOL0     H 3673   3.837   7.468  10.960  2.9633  1.1843 -4.1850
  768MOL0     H 3674   4.113   7.334  10.942  1.0952 -2.0957 -2.2431
  768MOL0     H 3675   4.029   7.440  10.826 -0.6138  0.1710 -0.2153
  768MOL0     H 3676   3.919   7.170  10.924  0.5382 -1.8813 -2.2233
  768MOL0     H 3677   4.013   7.203  10.771  1.7511  2.2642 -0.1169
  768MOL0     H 3678   3.622   7.372  10.691 -2.2352 -3.8334  1.5529
  768MOL0     H 3679   3.588   7.199  10.996 -0.3454 -1.4826  1.5271
  768MOL0     H 3680   3.360   7.312  10.947 -1.0490  1.1441  0.0729
  769MOL0     O 3681  10.898   6.693   4.580 -0.7836  0.2977 -0.0465
  769MOL0     C 3682  10.942   6.612   4.660  0.7999  0.7766  0.6261
  769MOL0     O 3683  10.862   6.548   4.759  0.1255  0.4175  0.2601
  769MOL0     C 3684  10.722   6.556   4.756  0.0616  0.7654  0.0170
  769MOL0     C 3685  10.656   6.439   4.800 -0.4182 -0.9591  0.4176
  769MOL0     C 3686  10.519   6.434   4.795  0.6359  0.8728  0.8256
  769MOL0     C 3687  10.439   6.527   4.740 -0.0801  0.5099 -0.1216
  769MOL0     O 3688  10.302   6.502   4.731 -0.2380  0.3436 -0.9911
  769MOL0     C 3689  10.234   6.582   4.639  0.0593 -0.4850 -0.0634
  769MOL0     C 3690  10.118   6.490   4.596 -0.2856 -0.7544 -0.3743
  769MOL0     C 3691  10.023   6.573   4.509  0.5131 -0.5905 -0.3173
  769MOL0     C 3692   9.867   6.548   4.550 -0.2775 -0.8734  0.3817
  769MOL0     C 3693   9.780   6.609   4.440  0.0027  0.0978  0.4212
  769MOL0     C 3694   9.632   6.560   4.453  0.1073  1.0144 -0.7318
  769MOL0     C 3695   9.539   6.650   4.377  0.4199 -0.5147  0.3584
  769MOL0     C 3696   9.403   6.591   4.389  0.5511 -0.6686  0.7678
  769MOL0     N 3697   9.320   6.626   4.268 -0.9425 -0.2353 -0.9825
  769MOL0     C 3698   9.367   6.608   4.139 -0.3318  0.4300 -0.9112
  769MOL0     C 3699   9.274   6.665   4.061  0.5191 -0.0246 -0.3544
  769MOL0     C 3700   9.251   6.633   3.919 -1.0064  0.6850  0.4665
  769MOL0     C 3701   9.238   6.761   3.840  0.9206 -0.5608 -0.0627
  769MOL0     C 3702   9.093   6.816   3.824 -0.1669  0.3095  0.3596
  769MOL0     C 3703   9.000   6.722   3.748 -0.1516 -0.1851 -0.0700
  769MOL0     O 3704   8.876   6.793   3.736 -0.1862  0.1818 -0.3739
  769MOL0     C 3705   8.765   6.739   3.663 -0.8681  0.0364 -0.7743
  769MOL0     C 3706   8.748   6.606   3.626  1.0556  0.1366  0.1198
  769MOL0     C 3707   8.632   6.558   3.571  0.3784  0.6126 -0.1130
  769MOL0     C 3708   8.617   6.403   3.552 -0.8300 -0.2904  0.6119
  769MOL0     C 3709   8.519   6.646   3.546  0.5243  0.7990 -0.4390
  769MOL0     C 3710   8.383   6.610   3.478  0.3177 -0.9621 -0.2269
  769MOL0     O 3711   8.379   6.501   3.396  0.1874 -0.4561  0.2185
  769MOL0     C 3712   8.265   6.476   3.333  0.6621  0.0814 -0.3974
  769MOL0     C 3713   8.251   6.460   3.191 -0.8492  0.3611 -0.0475
  769MOL0     C 3714   8.137   6.408   3.124  0.9643 -0.1225 -0.3119
  769MOL0     C 3715   8.031   6.371   3.211 -0.0458 -0.9146  0.2218
  769MOL0     O 3716   7.928   6.302   3.147  0.3553  0.1201  0.1049
  769MOL0     C 3717   7.982   6.190   3.073 -0.6574  0.1974 -0.3940
  769MOL0     C 3718   7.945   6.203   2.926 -0.2818 -0.7958 -0.0211
  769MOL0     C 3719   7.794   6.162   2.901  0.1689 -0.4319  0.6750
  769MOL0     C 3720   7.757   6.184   2.753 -0.2752  0.2003 -0.8643
  769MOL0     C 3721   7.632   6.114   2.720  0.0176 -0.0819 -0.5515
  769MOL0     C 3722   7.639   6.075   2.572  0.6535 -0.4263 -0.4770
  769MOL0     C 3723   7.678   6.187   2.475 -0.4563  0.1428  1.3125
  769MOL0     C 3724   7.769   6.146   2.366  0.0892 -0.0813 -0.7039
  769MOL0    Cl 3725   7.718   5.998   2.279 -0.4057  0.5077  0.0534
  769MOL0     C 3726   8.041   6.390   3.345  0.3258  1.1665  0.6847
  769MOL0     C 3727   8.157   6.440   3.407  0.6948  0.5198 -0.0672
  769MOL0     O 3728   8.295   6.694   3.497  0.3535 -0.1588  1.0289
  769MOL0     C 3729   8.533   6.773   3.594 -0.8788 -0.1150 -0.4385
  769MOL0     C 3730   8.649   6.817   3.657  0.0375  0.1716  1.0031
  769MOL0     N 3731   9.186   6.731   4.135 -0.0127  0.0061 -0.0781
  769MOL0     N 3732   9.209   6.698   4.262  0.0261 -0.3075  0.1205
  769MOL0     C 3733  10.501   6.651   4.715 -0.3434  0.4129 -0.1218
  769MOL0     C 3734  10.640   6.664   4.710  0.0952 -0.2581 -0.2323
  769MOL0     C 3735  11.084   6.589   4.656 -0.4283  1.2016  0.1429
  769MOL0     C 3736  11.130   6.475   4.724 -0.4441  0.0190 -0.2411
  769MOL0     C 3737  11.262   6.442   4.713 -0.6886 -0.2609  0.1906
  769MOL0     C 3738  11.355   6.524   4.650 -0.1669  0.1633  0.2733
  769MOL0     O 3739  11.488   6.500   4.649 -0.0442  0.0040  0.0336
  769MOL0     C 3740  11.547   6.401   4.739 -0.4238  0.5690 -0.4867
  769MOL0     C 3741  11.697   6.448   4.752 -0.2458 -0.0129 -0.0056
  769MOL0     C 3742  11.778   6.410   4.626 -0.5699  0.3969 -1.2693
  769MOL0     C 3743  11.926   6.442   4.641  0.4198  0.4420 -1.2996
  769MOL0     C 3744  11.957   6.586   4.662 -0.3571  1.0348 -0.4231
  769MOL0     C 3745  11.975   6.705   4.680  0.1115  0.8627  0.5633
  769MOL0     C 3746  11.302   6.638   4.578  0.4730  0.5739 -0.6638
  769MOL0     C 3747  11.171   6.673   4.589  0.7271 -0.5553  0.5858
  769MOL0     H 3748  10.719   6.359   4.836 -0.0215  0.0109  1.9586
  769MOL0     H 3749  10.460   6.347   4.823 -1.4989  1.4051 -1.6531
  769MOL0     H 3750  10.206   6.674   4.691 -0.7886  0.0282 -1.3688
  769MOL0     H 3751  10.291   6.607   4.549 -1.1438 -0.8903 -0.9759
  769MOL0     H 3752  10.160   6.412   4.531  1.8570 -0.3441  0.4304
  769MOL0     H 3753  10.072   6.460   4.691 -1.6951 -0.8824 -1.0813
  769MOL0     H 3754  10.045   6.677   4.534 -0.6955 -0.8598  2.1952
  769MOL0     H 3755  10.034   6.550   4.403  1.8671  1.7947 -0.7626
  769MOL0     H 3756   9.836   6.443   4.564 -0.0736 -0.6513  2.9766
  769MOL0     H 3757   9.848   6.600   4.644  3.0048  2.8346 -0.7315
  769MOL0     H 3758   9.776   6.718   4.452 -0.2202  0.0433  0.8533
  769MOL0     H 3759   9.820   6.586   4.341  2.5586  0.6026  1.2742
  769MOL0     H 3760   9.624   6.461   4.407 -4.9813  1.6318 -1.7010
  769MOL0     H 3761   9.606   6.547   4.558 -1.2861 -0.5752 -1.2294
  769MOL0     H 3762   9.535   6.751   4.417 -0.2528  0.7756 -2.7091
  769MOL0     H 3763   9.579   6.657   4.276  0.4486 -2.9842  0.1251
  769MOL0     H 3764   9.351   6.632   4.476 -1.0254  1.3361 -0.9734
  769MOL0     H 3765   9.401   6.483   4.406  1.2102 -0.3750  2.9318
  769MOL0     H 3766   9.445   6.538   4.111  0.0606 -0.5425  2.2720
  769MOL0     H 3767   9.351   6.600   3.890 -1.6644 -1.2897  0.3419
  769MOL0     H 3768   9.176   6.555   3.906  0.0868 -0.6891  2.0308
  769MOL0     H 3769   9.275   6.752   3.738  1.7346  3.6789 -0.3058
  769MOL0     H 3770   9.300   6.842   3.879 -0.3264  1.0185 -1.2210
  769MOL0     H 3771   9.105   6.915   3.780 -2.0365  1.7235  2.7624
  769MOL0     H 3772   9.043   6.839   3.918 -3.0079  1.7294 -1.3491
  769MOL0     H 3773   8.977   6.630   3.802  0.8609 -1.5232 -1.7867
  769MOL0     H 3774   9.023   6.699   3.644  1.6381 -2.1059  0.6785
  769MOL0     H 3775   8.818   6.526   3.647 -0.5999 -1.1693  0.8944
  769MOL0     H 3776   8.516   6.371   3.579 -0.8522 -1.2702 -0.5951
  769MOL0     H 3777   8.643   6.379   3.449  1.3476 -2.2706  1.5221
  769MOL0     H 3778   8.690   6.348   3.613 -0.6030  1.2429  1.8137
  769MOL0     H 3779   8.332   6.493   3.127 -1.2956  2.4452  0.4128
  769MOL0     H 3780   8.134   6.394   3.016  3.0764 -3.0827 -0.1089
  769MOL0     H 3781   8.087   6.160   3.076 -0.9770 -1.3922 -2.4216
  769MOL0     H 3782   7.936   6.096   3.105  0.8072 -0.7818 -1.0747
  769MOL0     H 3783   7.960   6.310   2.905 -0.6154 -0.7302  0.0654
  769MOL0     H 3784   8.011   6.143   2.863  1.2287  1.4636 -0.7209
  769MOL0     H 3785   7.736   6.225   2.969  0.9996  1.7597 -0.5450
  769MOL0     H 3786   7.776   6.058   2.930  2.4414 -1.5147 -1.4682
  769MOL0     H 3787   7.738   6.291   2.739 -1.9348  0.2788  1.4823
  769MOL0     H 3788   7.841   6.152   2.691  0.8032 -1.9482  1.5273
  769MOL0     H 3789   7.540   6.172   2.732 -1.2776 -2.2988  1.0538
  769MOL0     H 3790   7.621   6.030   2.790 -0.6326 -0.0311 -0.5881
  769MOL0     H 3791   7.719   6.001   2.575  1.0056 -0.0286  0.2509
  769MOL0     H 3792   7.537   6.041   2.551  0.3343 -1.7465  2.6511
  769MOL0     H 3793   7.732   6.269   2.523  0.1042  0.8598 -0.4557
  769MOL0     H 3794   7.594   6.222   2.415  0.8095 -0.7271 -1.0977
  769MOL0     H 3795   7.864   6.130   2.417  0.3910 -1.9133 -1.7629
  769MOL0     H 3796   7.777   6.225   2.290 -0.6205 -0.5397 -1.2791
  769MOL0     H 3797   7.951   6.366   3.401 -0.4581  2.1660 -0.1062
  769MOL0     H 3798   8.165   6.439   3.516 -2.7500  0.2928  0.3100
  769MOL0     H 3799   8.458   6.848   3.573 -0.2642  1.4957  2.5492
  769MOL0     H 3800   8.647   6.921   3.687 -0.0949  0.3664  0.3350
  769MOL0     H 3801  10.440   6.740   4.708  0.9682  1.5200  1.6987
  769MOL0     H 3802  10.691   6.758   4.693  1.0934 -0.7319  0.0756
  769MOL0     H 3803  11.061   6.420   4.787 -0.0295 -1.2941 -0.9066
  769MOL0     H 3804  11.300   6.355   4.765 -1.6761 -0.1055  1.2156
  769MOL0     H 3805  11.501   6.391   4.838  1.4784 -0.7711  0.3124
  769MOL0     H 3806  11.545   6.304   4.687 -1.2609  1.0276 -1.3393
  769MOL0     H 3807  11.739   6.408   4.845 -0.0179  1.0383  0.3615
  769MOL0     H 3808  11.701   6.555   4.773  4.7112 -0.1530  0.8275
  769MOL0     H 3809  11.738   6.465   4.541  1.4082  2.2748 -1.0668
  769MOL0     H 3810  11.756   6.303   4.619 -1.8727  0.2889  2.2499
  769MOL0     H 3811  11.975   6.408   4.550 -0.2419 -0.1531 -1.4468
  769MOL0     H 3812  11.966   6.384   4.724 -1.8084  0.9225  0.2097
  769MOL0     H 3813  11.984   6.808   4.709  2.4910  0.7687  0.3089
  769MOL0     H 3814  11.369   6.709   4.530  0.7955  2.4975  2.3439
  769MOL0     H 3815  11.138   6.752   4.522  3.1856  1.1960  1.3168
  770MOL0     O 3816   3.363  11.332   7.747  0.2739  0.1290  0.1038
  770MOL0     C 3817   3.279  11.424   7.759 -0.1436  0.6307 -0.1814
  770MOL0     O 3818   3.317  11.549   7.783  0.2921 -1.1193  0.1730
  770MOL0     C 3819   3.452  11.569   7.807 -0.0762  0.3966 -0.0720
  770MOL0     C 3820   3.539  11.585   7.705 -0.2456 -0.1207 -0.3830
  770MOL0     C 3821   3.675  11.606   7.723  0.6221 -0.0722 -0.5709
  770MOL0     C 3822   3.735  11.593   7.852 -0.1628 -0.3689  0.3141
  770MOL0     O 3823   3.862  11.617   7.888 -0.1272 -0.0067  0.8564
  770MOL0     C 3824   3.966  11.630   7.791  0.3695 -1.7301 -0.0015
  770MOL0     C 3825   4.019  11.771   7.803 -0.0949  0.3360 -0.4691
  770MOL0     C 3826   4.099  11.802   7.671  1.1503  0.0345  0.3414
  770MOL0     C 3827   4.207  11.901   7.695  0.7011  0.2219  1.3553
  770MOL0     C 3828   4.272  11.933   7.555 -0.7081 -0.2192 -0.1947
  770MOL0     C 3829   4.361  12.059   7.581 -0.3603 -0.1385  0.2904
  770MOL0     C 3830   4.452  12.096   7.465 -0.1824 -0.3555 -0.7471
  770MOL0     C 3831   4.561  11.989   7.447 -0.1367  0.3305 -0.6855
  770MOL0     N 3832   4.642  11.992   7.564 -0.2477 -0.4467 -0.1669
  770MOL0     C 3833   4.657  11.891   7.656  0.5632 -0.0889  0.8228
  770MOL0     C 3834   4.773  11.926   7.722 -0.2083 -0.4280 -0.3085
  770MOL0     C 3835   4.835  11.842   7.824 -0.1071 -0.4836 -0.0481
  770MOL0     C 3836   4.745  11.827   7.943  0.7577 -0.4531 -0.1926
  770MOL0     C 3837   4.737  11.955   8.023  0.0579  0.6532 -0.4813
  770MOL0     C 3838   4.638  11.962   8.137  1.1607  0.3925  0.5275
  770MOL0     O 3839   4.665  11.858   8.228  0.8762  0.5515  0.1908
  770MOL0     C 3840   4.628  11.860   8.357 -0.1579 -0.2630 -0.6054
  770MOL0     C 3841   4.510  11.919   8.393 -0.4868 -0.3684 -0.0573
  770MOL0     C 3842   4.469  11.924   8.530  0.0194 -0.0808 -0.8146
  770MOL0     C 3843   4.339  11.992   8.577  0.2097 -0.4408 -0.2845
  770MOL0     C 3844   4.558  11.869   8.632  0.1454 -0.3686  0.2071
  770MOL0     C 3845   4.546  11.858   8.780  0.4665 -0.6058 -0.4841
  770MOL0     O 3846   4.649  11.811   8.857 -0.9906 -0.1804 -0.3730
  770MOL0     C 3847   4.660  11.827   8.993  0.6900  0.5568  0.0886
  770MOL0     C 3848   4.701  11.713   9.066  0.0325 -0.1608 -0.2290
  770MOL0     C 3849   4.684  11.711   9.198  0.2042  0.2865  0.7160
  770MOL0     C 3850   4.640  11.829   9.269 -0.4070 -0.0816 -0.9755
  770MOL0     O 3851   4.624  11.828   9.404  0.9406  0.7682 -0.0679
  770MOL0     C 3852   4.589  11.699   9.452  0.7215  0.0725 -0.7827
  770MOL0     C 3853   4.562  11.705   9.597 -0.1370 -0.4023  0.8951
  770MOL0     C 3854   4.685  11.697   9.674 -0.1539  0.1464  0.8824
  770MOL0     C 3855   4.667  11.737   9.814  0.0396  0.3364  0.5916
  770MOL0     C 3856   4.783  11.692   9.911 -0.2157 -0.8048 -0.0073
  770MOL0     C 3857   4.847  11.561   9.882  0.3790  0.7723 -0.7201
  770MOL0     C 3858   4.746  11.448   9.884 -0.6010  0.2691 -0.2322
  770MOL0     C 3859   4.817  11.322   9.842  0.2790 -0.6650 -0.6859
  770MOL0    Cl 3860   4.699  11.200   9.837  0.1774 -0.1185 -0.0131
  770MOL0     C 3861   4.619  11.946   9.202  0.2602  0.0497  0.0285
  770MOL0     C 3862   4.626  11.945   9.061 -0.9353 -0.1574 -0.4346
  770MOL0     O 3863   4.432  11.872   8.820 -0.1265  0.0556  0.2519
  770MOL0     C 3864   4.676  11.801   8.583  0.0864 -1.1911 -0.4304
  770MOL0     C 3865   4.701  11.792   8.448  0.2353 -0.4318 -0.6097
  770MOL0     N 3866   4.826  12.037   7.667 -0.2642 -0.4657  0.5275
  770MOL0     N 3867   4.741  12.084   7.588 -0.2879  0.6317 -0.3220
  770MOL0     C 3868   3.652  11.584   7.963  0.3254  0.2150  0.6692
  770MOL0     C 3869   3.508  11.572   7.935  0.9404  0.9311  0.1769
  770MOL0     C 3870   3.135  11.393   7.727  0.5484 -0.0786  0.0243
  770MOL0     C 3871   3.049  11.503   7.718  0.5018 -0.5319 -0.0414
  770MOL0     C 3872   2.915  11.489   7.675  0.2408 -0.7887  0.6216
  770MOL0     C 3873   2.864  11.362   7.634  0.4336  0.1075  0.9849
  770MOL0     O 3874   2.735  11.354   7.577  0.1641  0.2322  0.1666
  770MOL0     C 3875   2.660  11.226   7.584 -0.4515 -0.2038  0.2859
  770MOL0     C 3876   2.516  11.261   7.614 -0.3299  0.1339  0.2834
  770MOL0     C 3877   2.456  11.310   7.478  0.4222  0.1185 -0.4585
  770MOL0     C 3878   2.340  11.411   7.517  0.0639  0.6711  0.0163
  770MOL0     C 3879   2.214  11.339   7.560  0.0247 -0.6356 -0.1993
  770MOL0     C 3880   2.124  11.271   7.601 -0.5494 -0.2401 -0.2225
  770MOL0     C 3881   2.959  11.253   7.641  0.2787 -0.8104 -0.3950
  770MOL0     C 3882   3.087  11.269   7.682  0.3713 -0.1968  0.0050
  770MOL0     H 3883   3.495  11.599   7.606  1.9521  0.2549 -1.3659
  770MOL0     H 3884   3.733  11.639   7.638  0.0392 -0.0387 -0.9590
  770MOL0     H 3885   4.051  11.565   7.817  0.2935 -1.7907  0.0955
  770MOL0     H 3886   3.929  11.615   7.689 -3.1313  1.2772  0.6328
  770MOL0     H 3887   3.936  11.840   7.822  0.0514  0.7148 -1.1735
  770MOL0     H 3888   4.084  11.773   7.891 -1.9404  0.8413  0.9561
  770MOL0     H 3889   4.136  11.709   7.627 -1.4541 -0.1585 -1.6832
  770MOL0     H 3890   4.026  11.841   7.600 -2.0246 -0.5376  3.0497
  770MOL0     H 3891   4.177  11.993   7.746  1.1238  0.4385  1.2181
  770MOL0     H 3892   4.281  11.857   7.763  0.6017 -0.0180  1.3100
  770MOL0     H 3893   4.328  11.847   7.516  1.2246  1.7351 -1.9299
  770MOL0     H 3894   4.191  11.966   7.490 -1.5174 -0.8905  0.4511
  770MOL0     H 3895   4.297  12.147   7.588  3.0086  2.4951  0.5180
  770MOL0     H 3896   4.422  12.057   7.672  0.1536  1.2513  0.0054
  770MOL0     H 3897   4.394  12.091   7.373 -0.1431  0.8209 -0.8422
  770MOL0     H 3898   4.488  12.197   7.485  1.5285 -1.4126  2.2796
  770MOL0     H 3899   4.615  12.012   7.354  1.2939  0.2901  0.1137
  770MOL0     H 3900   4.510  11.894   7.427 -0.4457 -0.0395  1.6359
  770MOL0     H 3901   4.604  11.797   7.662 -0.3460 -0.0056 -3.1582
  770MOL0     H 3902   4.859  11.748   7.773  4.7232  0.9298 -0.9222
  770MOL0     H 3903   4.933  11.874   7.861 -1.3580  3.0252  0.6593
  770MOL0     H 3904   4.776  11.753   8.017 -0.5550  1.4161  2.4003
  770MOL0     H 3905   4.641  11.812   7.915 -0.1013  0.6843  2.1946
  770MOL0     H 3906   4.721  12.045   7.961  0.8227  0.3441 -1.1544
  770MOL0     H 3907   4.835  11.968   8.069  0.8228 -2.7771 -0.9292
  770MOL0     H 3908   4.536  11.966   8.098  2.1407  0.2407 -2.2402
  770MOL0     H 3909   4.650  12.058   8.189  0.5868  1.2445 -0.8423
  770MOL0     H 3910   4.456  11.968   8.312  2.8860 -1.2457 -3.1254
  770MOL0     H 3911   4.292  12.041   8.490  1.3342 -0.2102 -0.7803
  770MOL0     H 3912   4.268  11.913   8.602  0.5398 -1.4769 -2.3760
  770MOL0     H 3913   4.346  12.057   8.664  1.5919 -1.3995  0.3382
  770MOL0     H 3914   4.723  11.619   9.016  0.7534 -0.0814 -0.0708
  770MOL0     H 3915   4.713  11.615   9.239 -0.5412  0.4193  1.5884
  770MOL0     H 3916   4.495  11.660   9.411  1.2857 -2.9473  0.5343
  770MOL0     H 3917   4.673  11.632   9.434  0.9733 -0.1747  1.1430
  770MOL0     H 3918   4.518  11.803   9.614 -1.7590 -1.0766  0.7419
  770MOL0     H 3919   4.492  11.632   9.640 -1.3907  1.2811  1.7960
  770MOL0     H 3920   4.762  11.746   9.613 -0.6622 -0.4773 -0.2822
  770MOL0     H 3921   4.720  11.595   9.658  2.7198  0.9237  1.6052
  770MOL0     H 3922   4.653  11.845   9.817 -0.9778  0.2044  2.3648
  770MOL0     H 3923   4.577  11.694   9.860 -0.7355  1.1493 -0.1273
  770MOL0     H 3924   4.742  11.698  10.013  2.6146  1.0040  1.1354
  770MOL0     H 3925   4.856  11.774   9.906  1.2496 -1.7889  2.7994
  770MOL0     H 3926   4.894  11.565   9.782 -1.7945  0.3852 -1.8081
  770MOL0     H 3927   4.925  11.547   9.957  0.8072 -4.0031 -1.7684
  770MOL0     H 3928   4.655  11.461   9.823 -1.6227 -2.8483  0.4681
  770MOL0     H 3929   4.699  11.438   9.982 -1.2999  1.8403 -0.3605
  770MOL0     H 3930   4.898  11.281   9.902  0.0695 -4.8803 -2.9155
  770MOL0     H 3931   4.859  11.338   9.743  0.6282 -0.7530 -0.5538
  770MOL0     H 3932   4.595  12.037   9.256 -0.2952 -0.5035  0.7368
  770MOL0     H 3933   4.612  12.043   9.015  1.5212  0.5798  0.2419
  770MOL0     H 3934   4.745  11.756   8.653  0.0419  0.9907  1.1322
  770MOL0     H 3935   4.783  11.730   8.412 -1.6928 -2.4440 -1.8116
  770MOL0     H 3936   3.696  11.590   8.061  0.4822  0.6672  0.5698
  770MOL0     H 3937   3.447  11.561   8.023 -0.2277 -2.4056 -0.8920
  770MOL0     H 3938   3.094  11.593   7.758 -0.3878 -0.7657  1.5808
  770MOL0     H 3939   2.850  11.575   7.664 -0.0672 -1.1534 -0.5636
  770MOL0     H 3940   2.684  11.187   7.485 -0.2308  1.0630 -0.1781
  770MOL0     H 3941   2.704  11.157   7.657  1.3215  0.8500  0.2748
  770MOL0     H 3942   2.519  11.339   7.691  3.8887  1.9502 -1.4289
  770MOL0     H 3943   2.454  11.180   7.654  0.4938 -0.3627  0.5757
  770MOL0     H 3944   2.415  11.225   7.422  0.6853  0.9305 -1.9368
  770MOL0     H 3945   2.528  11.358   7.412 -1.0359  1.5831 -1.0551
  770MOL0     H 3946   2.318  11.463   7.423  0.7463  0.2575 -0.3813
  770MOL0     H 3947   2.370  11.492   7.585  1.1190 -0.2900  0.7227
  770MOL0     H 3948   2.043  11.213   7.642 -0.6905 -1.9008 -2.6467
  770MOL0     H 3949   2.935  11.153   7.607  3.5234 -2.0432  0.5257
  770MOL0     H 3950   3.161  11.190   7.678  1.0268  0.3034  1.5012
  771MOL0     O 3951   9.526   4.941  10.864  0.0699  0.1942 -0.6329
  771MOL0     C 3952   9.519   4.984  10.747  0.6709 -0.1576  0.0147
  771MOL0     O 3953   9.401   5.009  10.684  0.3316 -0.7677 -0.1808
  771MOL0     C 3954   9.282   4.973  10.738  1.2861 -0.7522 -0.5410
  771MOL0     C 3955   9.172   5.046  10.694  0.5309  0.4782 -1.3886
  771MOL0     C 3956   9.044   5.001  10.725  0.2590  0.7536 -0.5940
  771MOL0     C 3957   9.013   4.887  10.798 -0.8335  0.2844 -0.0167
  771MOL0     O 3958   8.887   4.854  10.824  0.4944  0.0814  0.0106
  771MOL0     C 3959   8.833   4.749  10.747 -0.0715  0.5544 -0.7242
  771MOL0     C 3960   8.725   4.674  10.822 -0.4439 -0.5190 -0.3771
  771MOL0     C 3961   8.599   4.755  10.828  0.0107 -0.1528 -0.3533
  771MOL0     C 3962   8.558   4.778  10.972  0.3932  1.0963 -0.0691
  771MOL0     C 3963   8.407   4.766  10.988  0.4219 -0.3577  0.1961
  771MOL0     C 3964   8.365   4.756  11.130  0.9239  0.5090  0.0828
  771MOL0     C 3965   8.424   4.845  11.232 -0.4826 -0.9148  0.1812
  771MOL0     C 3966   8.363   4.821  11.363  0.1035  0.0365 -0.1483
  771MOL0     N 3967   8.230   4.872  11.377  0.1460  0.1964 -0.1429
  771MOL0     C 3968   8.116   4.800  11.398 -0.2441  0.3150 -0.4860
  771MOL0     C 3969   8.014   4.890  11.420  0.0889  0.7125 -0.7066
  771MOL0     C 3970   7.872   4.854  11.455 -0.1991 -0.3556  0.4969
  771MOL0     C 3971   7.814   4.951  11.556 -0.3617 -0.1512  0.7055
  771MOL0     C 3972   7.746   4.895  11.676  0.4406  0.1765 -0.6080
  771MOL0     C 3973   7.606   4.842  11.645 -0.8881  0.6714  0.5897
  771MOL0     O 3974   7.608   4.761  11.526 -0.8763 -0.5586 -0.3049
  771MOL0     C 3975   7.497   4.685  11.489 -0.1239 -0.6275 -0.2310
  771MOL0     C 3976   7.494   4.601  11.383 -0.3149  0.1202  1.0149
  771MOL0     C 3977   7.384   4.527  11.352 -0.1286  0.0645  0.6529
  771MOL0     C 3978   7.399   4.441  11.226  0.6778  0.0739 -0.4019
  771MOL0     C 3979   7.267   4.531  11.438 -0.4352 -0.4214 -0.5054
  771MOL0     C 3980   7.134   4.470  11.395  0.5101 -0.2919 -0.0610
  771MOL0     O 3981   7.135   4.346  11.335 -0.0979  0.4738  0.5028
  771MOL0     C 3982   7.020   4.287  11.312  0.3619  0.1261 -0.9610
  771MOL0     C 3983   6.925   4.346  11.228 -0.1295  0.3868 -0.2656
  771MOL0     C 3984   6.796   4.291  11.214 -0.1307  0.3220  0.3283
  771MOL0     C 3985   6.762   4.177  11.291  0.5876  0.8587 -0.1590
  771MOL0     O 3986   6.641   4.108  11.288  0.2944 -0.4974  0.5062
  771MOL0     C 3987   6.535   4.166  11.207  0.8770 -0.5162 -0.0504
  771MOL0     C 3988   6.415   4.090  11.228 -0.0549  0.1900  0.0541
  771MOL0     C 3989   6.299   4.125  11.141 -0.3907 -0.2181 -0.1481
  771MOL0     C 3990   6.164   4.068  11.188  0.6166 -0.4249  0.1816
  771MOL0     C 3991   6.065   4.085  11.080  0.1596  0.3106  0.6989
  771MOL0     C 3992   5.929   4.031  11.125  0.1596  0.1107  0.5620
  771MOL0     C 3993   5.824   4.035  11.002 -0.2126 -0.6175 -1.3850
  771MOL0     C 3994   5.721   3.922  11.020  0.1734 -0.1200  0.0484
  771MOL0    Cl 3995   5.794   3.769  10.966  0.2108 -0.6836  0.5228
  771MOL0     C 3996   6.869   4.102  11.360 -0.0331  0.1143 -0.0689
  771MOL0     C 3997   6.994   4.165  11.376 -0.0636  0.0709 -0.4838
  771MOL0     O 3998   7.036   4.545  11.402 -0.0870  0.0929  0.3039
  771MOL0     C 3999   7.268   4.623  11.547 -0.2552  0.4747  0.9538
  771MOL0     C 4000   7.380   4.696  11.563 -1.0522  0.3045 -0.6241
  771MOL0     N 4001   8.071   5.015  11.411 -0.5849  0.0059  1.1664
  771MOL0     N 4002   8.195   5.002  11.380  0.0274 -0.0937  0.2298
  771MOL0     C 4003   9.122   4.817  10.850 -0.6240  0.7934  0.4096
  771MOL0     C 4004   9.255   4.855  10.823  0.3495 -0.6015 -0.9293
  771MOL0     C 4005   9.645   4.990  10.662 -0.2151 -0.3125 -0.4591
  771MOL0     C 4006   9.767   4.946  10.706 -0.8305 -0.3035  0.1272
  771MOL0     C 4007   9.881   4.970  10.636  0.2799 -0.6783  0.3069
  771MOL0     C 4008   9.881   5.024  10.511  0.3982  0.7178 -0.8656
  771MOL0     O 4009  10.005   5.037  10.450  0.5287 -0.2404 -0.2707
  771MOL0     C 4010   9.997   5.066  10.309 -0.7510  0.4582 -0.6112
  771MOL0     C 4011  10.139   5.038  10.260  0.3071 -0.9099  0.6912
  771MOL0     C 4012  10.183   4.891  10.274 -0.2203  1.4682  0.4789
  771MOL0     C 4013  10.295   4.847  10.176 -0.2931 -0.1656 -0.5312
  771MOL0     C 4014  10.418   4.930  10.163  0.0980  0.0975 -0.5024
  771MOL0     C 4015  10.519   4.992  10.156 -0.1765  0.7350  0.3696
  771MOL0     C 4016   9.755   5.047  10.453  0.1106 -0.3633  1.1941
  771MOL0     C 4017   9.636   5.028  10.524  0.9662  0.7762  0.2132
  771MOL0     H 4018   9.181   5.141  10.642  1.8627  0.9553 -0.3564
  771MOL0     H 4019   8.949   5.043  10.692 -1.3863 -0.2469  2.4027
  771MOL0     H 4020   8.787   4.789  10.656 -0.0731  0.4604 -0.7653
  771MOL0     H 4021   8.911   4.681  10.711  3.5762  2.6474  2.3699
  771MOL0     H 4022   8.696   4.575  10.786  0.8551 -1.1901  0.3325
  771MOL0     H 4023   8.783   4.653  10.913  3.8916  0.9893 -2.5093
  771MOL0     H 4024   8.593   4.855  10.783 -1.2781 -0.1241 -0.1680
  771MOL0     H 4025   8.525   4.688  10.783  2.0667 -0.8442 -2.9391
  771MOL0     H 4026   8.599   4.695  11.030  1.1097  0.0165 -2.0156
  771MOL0     H 4027   8.608   4.868  11.008  1.3027  0.4809  0.2276
  771MOL0     H 4028   8.365   4.852  10.935 -2.6859 -1.9828 -0.2078
  771MOL0     H 4029   8.362   4.684  10.931  0.3931 -0.1643 -0.0648
  771MOL0     H 4030   8.258   4.782  11.134  0.3003 -1.8261  0.2235
  771MOL0     H 4031   8.368   4.651  11.161 -3.5141 -0.4575 -1.9218
  771MOL0     H 4032   8.532   4.830  11.227 -0.5832 -1.8013  0.6160
  771MOL0     H 4033   8.402   4.944  11.191 -0.0864 -2.0621 -3.1047
  771MOL0     H 4034   8.425   4.877  11.435 -1.3668 -0.2914  1.4453
  771MOL0     H 4035   8.364   4.716  11.393 -1.0142  0.3962  1.2666
  771MOL0     H 4036   8.104   4.692  11.403 -0.0062  0.2349 -1.5740
  771MOL0     H 4037   7.823   4.861  11.357  0.0766 -0.4764  0.3481
  771MOL0     H 4038   7.859   4.752  11.493 -0.0612 -0.5627  0.0012
  771MOL0     H 4039   7.755   5.025  11.500  0.1431 -2.6671 -3.6416
  771MOL0     H 4040   7.897   5.011  11.593 -1.4314  1.0658  1.1927
  771MOL0     H 4041   7.735   4.971  11.754  3.4279  1.0884 -0.9362
  771MOL0     H 4042   7.803   4.813  11.722 -0.3275 -0.4361 -0.7315
  771MOL0     H 4043   7.537   4.925  11.623 -1.1122  0.0740 -1.1547
  771MOL0     H 4044   7.567   4.784  11.729 -0.4843 -2.4949 -1.2353
  771MOL0     H 4045   7.588   4.584  11.331 -1.0588 -0.3589 -0.2253
  771MOL0     H 4046   7.319   4.480  11.163 -1.2094 -2.1530  0.4798
  771MOL0     H 4047   7.493   4.475  11.182  0.8460  0.6124  0.3670
  771MOL0     H 4048   7.386   4.333  11.239 -1.5375  0.1353 -1.6407
  771MOL0     H 4049   6.954   4.438  11.179  0.2932 -1.0151 -2.8252
  771MOL0     H 4050   6.720   4.349  11.162  0.0102  0.3299  0.1270
  771MOL0     H 4051   6.511   4.269  11.234 -1.6939 -1.1218  0.2721
  771MOL0     H 4052   6.566   4.175  11.102 -1.5477  3.0296 -0.6466
  771MOL0     H 4053   6.442   3.985  11.217  0.2414  0.1399  1.1037
  771MOL0     H 4054   6.391   4.104  11.334 -3.4334 -0.9851 -0.4267
  771MOL0     H 4055   6.323   4.099  11.038  0.2987 -0.2040  0.0010
  771MOL0     H 4056   6.295   4.234  11.151 -2.6638 -0.3010  0.4669
  771MOL0     H 4057   6.175   3.961  11.208  0.1151 -1.1463 -2.8747
  771MOL0     H 4058   6.128   4.122  11.276  0.0114 -0.5794  0.0330
  771MOL0     H 4059   6.105   4.032  10.994 -1.9328 -0.8593  0.3676
  771MOL0     H 4060   6.057   4.193  11.062 -0.7968  0.0208 -0.8119
  771MOL0     H 4061   5.935   3.933  11.175  0.6489 -0.3406 -0.3469
  771MOL0     H 4062   5.871   4.099  11.188 -2.7256 -0.4206 -1.3506
  771MOL0     H 4063   5.868   4.033  10.902  2.5020  1.2830 -0.3523
  771MOL0     H 4064   5.773   4.129  11.027 -0.9382 -1.7858  2.1509
  771MOL0     H 4065   5.628   3.944  10.966 -2.2577  2.6777  4.7503
  771MOL0     H 4066   5.686   3.917  11.123 -0.2182  0.5691 -0.0468
  771MOL0     H 4067   6.859   4.010  11.416  2.2606 -0.0333  0.1623
  771MOL0     H 4068   7.067   4.114  11.439  0.2912  1.8942  0.6787
  771MOL0     H 4069   7.175   4.630  11.602 -2.0867 -0.8137 -1.7640
  771MOL0     H 4070   7.363   4.763  11.647  2.1210  1.6045 -0.8390
  771MOL0     H 4071   9.086   4.732  10.908 -0.6477 -0.4212 -1.3066
  771MOL0     H 4072   9.339   4.788  10.839  0.2221 -1.5887 -3.7824
  771MOL0     H 4073   9.774   4.899  10.803 -3.4160  0.5256  0.7772
  771MOL0     H 4074   9.970   4.949  10.694  0.9181 -0.4963 -0.5731
  771MOL0     H 4075   9.926   4.996  10.264 -0.1314 -2.3557  2.4174
  771MOL0     H 4076   9.966   5.171  10.303 -2.3814  0.0243 -0.2575
  771MOL0     H 4077  10.205   5.103  10.318  3.7812 -1.7240 -1.9825
  771MOL0     H 4078  10.135   5.063  10.153 -2.3661 -1.3062  0.6378
  771MOL0     H 4079  10.092   4.833  10.259  0.6091  0.7099 -2.0677
  771MOL0     H 4080  10.233   4.879  10.371 -0.4004 -0.7739  0.3418
  771MOL0     H 4081  10.255   4.846  10.074  0.2667  0.3642 -0.7665
  771MOL0     H 4082  10.327   4.749  10.210 -0.0558  0.2700  0.5618
  771MOL0     H 4083  10.609   5.043  10.130  1.5332 -2.2366  0.0064
  771MOL0     H 4084   9.735   5.088  10.354 -1.5198  0.7122  1.9197
  771MOL0     H 4085   9.535   5.022  10.485 -0.0856 -1.7474  2.9533
  772MOL0     O 4086   7.752   0.422  10.030 -0.1514  0.2277  0.3677
  772MOL0     C 4087   7.832   0.342  10.072  0.3436 -0.4756  0.4897
  772MOL0     O 4088   7.805   0.244  10.165  0.1784 -0.4285  0.7023
  772MOL0     C 4089   7.675   0.212  10.210 -0.1469  0.3065  0.7892
  772MOL0     C 4090   7.619   0.084  10.183 -0.3784  0.2650 -0.2444
  772MOL0     C 4091   7.496   0.049  10.236  0.3734 -0.3194 -0.5884
  772MOL0     C 4092   7.413   0.133  10.315  0.2529  0.7029  0.5643
  772MOL0     O 4093   7.281   0.098  10.360  0.1473 -0.0994  0.2312
  772MOL0     C 4094   7.211   0.002  10.279 -0.4387  0.7888 -0.0369
  772MOL0     C 4095   7.064   0.039  10.284  0.0664  0.3276 -0.0948
  772MOL0     C 4096   6.988  -0.061  10.200  0.2218 -0.4554 -0.0028
  772MOL0     C 4097   6.837  -0.032  10.195  0.5511 -0.6239 -0.2578
  772MOL0     C 4098   6.755  -0.159  10.166  0.0877 -0.1765 -0.8531
  772MOL0     C 4099   6.611  -0.115  10.160  0.4100 -0.3022  0.3043
  772MOL0     C 4100   6.521  -0.218  10.100 -0.9528  1.1593  0.6746
  772MOL0     C 4101   6.372  -0.173  10.094 -0.2130  0.1769 -0.2854
  772MOL0     N 4102   6.288  -0.264  10.014 -0.6303  0.2557  0.0109
  772MOL0     C 4103   6.215  -0.381  10.055 -1.0159 -0.9614 -0.7569
  772MOL0     C 4104   6.145  -0.414   9.944 -0.2837  0.0807 -0.2289
  772MOL0     C 4105   6.054  -0.537   9.931  0.2134 -0.4763 -0.5678
  772MOL0     C 4106   5.908  -0.495   9.897  0.4306 -0.1953 -0.0536
  772MOL0     C 4107   5.811  -0.612   9.884  0.4339 -0.3017 -0.3063
  772MOL0     C 4108   5.673  -0.564   9.930 -0.5549  0.0207  1.0039
  772MOL0     O 4109   5.603  -0.682   9.951  0.1771  0.4884 -0.3509
  772MOL0     C 4110   5.473  -0.660   9.989 -0.6022 -0.0511  0.0339
  772MOL0     C 4111   5.394  -0.774  10.009  0.0610  0.2838  0.5888
  772MOL0     C 4112   5.274  -0.781  10.072  0.1190 -0.6712 -0.4216
  772MOL0     C 4113   5.228  -0.916  10.110 -0.2035  0.6863  0.1999
  772MOL0     C 4114   5.210  -0.657  10.101 -0.1765  0.1082 -0.5364
  772MOL0     C 4115   5.071  -0.652  10.158 -0.0647 -0.3841 -0.0197
  772MOL0     O 4116   5.019  -0.530  10.198 -0.5443  0.3866  1.0619
  772MOL0     C 4117   4.885  -0.531  10.222  0.3459 -0.9387  0.1019
  772MOL0     C 4118   4.818  -0.604  10.327 -0.4187 -0.7571  0.5000
  772MOL0     C 4119   4.678  -0.582  10.338 -0.2395 -0.3601  0.0134
  772MOL0     C 4120   4.611  -0.498  10.254 -0.4655  0.5519  0.1915
  772MOL0     O 4121   4.476  -0.493  10.270 -0.1853  0.2480  0.2241
  772MOL0     C 4122   4.418  -0.365  10.297  0.4235  0.2573 -0.2725
  772MOL0     C 4123   4.271  -0.360  10.295  0.4529  0.0679 -0.0229
  772MOL0     C 4124   4.216  -0.217  10.288  1.4024  0.0978  0.2289
  772MOL0     C 4125   4.078  -0.208  10.211 -0.4043 -0.6421 -0.9600
  772MOL0     C 4126   4.055  -0.054  10.185  0.4528  0.4794  0.1095
  772MOL0     C 4127   4.025   0.026  10.312 -0.0445  0.7391  0.3184
  772MOL0     C 4128   3.994   0.169  10.271  0.4554  0.2171 -0.1373
  772MOL0     C 4129   3.890   0.229  10.360  0.4548  0.2976  0.1302
  772MOL0    Cl 4130   3.887   0.409  10.329  0.0495 -0.1742 -0.3208
  772MOL0     C 4131   4.679  -0.418  10.163  1.0316  0.3616 -0.3635
  772MOL0     C 4132   4.816  -0.439  10.138  0.4205 -0.0721  0.0991
  772MOL0     O 4133   5.004  -0.759  10.166 -0.3251  0.2127 -0.2756
  772MOL0     C 4134   5.281  -0.542  10.068  0.1921  0.2387 -0.2551
  772MOL0     C 4135   5.410  -0.542  10.016  0.4409 -0.4174 -1.0431
  772MOL0     N 4136   6.148  -0.307   9.857 -0.7025 -0.3634 -0.2932
  772MOL0     N 4137   6.236  -0.224   9.895  0.0013  0.0467  0.0958
  772MOL0     C 4138   7.468   0.261  10.321  1.1847 -0.8222 -0.4396
  772MOL0     C 4139   7.589   0.309  10.270 -0.1937  0.5370 -0.8320
  772MOL0     C 4140   7.973   0.341  10.010  0.6057 -0.0230  0.2113
  772MOL0     C 4141   8.072   0.242  10.038  0.6717 -0.9673  0.1012
  772MOL0     C 4142   8.195   0.232   9.972  0.0817 -1.1471 -0.0448
  772MOL0     C 4143   8.235   0.336   9.881  0.5738 -0.6560 -0.2222
  772MOL0     O 4144   8.364   0.329   9.849 -0.3397  0.1184  0.4414
  772MOL0     C 4145   8.429   0.405   9.749  0.2412  0.0431  0.5991
  772MOL0     C 4146   8.473   0.546   9.805  0.4103 -0.2709  0.4192
  772MOL0     C 4147   8.584   0.604   9.712  0.7444 -0.1854  0.7996
  772MOL0     C 4148   8.646   0.735   9.767 -0.4424 -0.4221 -0.5351
  772MOL0     C 4149   8.686   0.716   9.908 -0.4827 -0.9142 -0.0754
  772MOL0     C 4150   8.705   0.715  10.028  0.0839  0.6530  0.1915
  772MOL0     C 4151   8.138   0.436   9.848  0.0383 -0.0986 -0.0200
  772MOL0     C 4152   8.013   0.436   9.908  0.1435  1.0271 -0.2090
  772MOL0     H 4153   7.696   0.020  10.141  0.3245 -0.6736  2.2917
  772MOL0     H 4154   7.471  -0.052  10.206  1.3377 -0.3161 -1.4588
  772MOL0     H 4155   7.248  -0.000  10.176 -0.1382  1.0647  0.0662
  772MOL0     H 4156   7.212  -0.101  10.317 -0.3328  0.8174  0.0376
  772MOL0     H 4157   7.032   0.026  10.388 -0.5173 -2.0363 -0.5020
  772MOL0     H 4158   7.045   0.143  10.258 -0.9524  0.2017  0.1233
  772MOL0     H 4159   7.020  -0.055  10.096 -1.9507 -0.1037 -0.7087
  772MOL0     H 4160   7.002  -0.164  10.235  1.4827 -1.1565 -2.3704
  772MOL0     H 4161   6.810   0.019  10.288  0.7955 -2.3960  0.8274
  772MOL0     H 4162   6.819   0.046  10.120 -0.3703  0.1870  0.7631
  772MOL0     H 4163   6.791  -0.210  10.077  3.2335  1.0267 -0.3927
  772MOL0     H 4164   6.765  -0.222  10.255 -3.2954  4.1525  3.1701
  772MOL0     H 4165   6.574  -0.099  10.261  3.8805  1.5274  1.4707
  772MOL0     H 4166   6.590  -0.023  10.105 -0.6452 -0.5595  0.2644
  772MOL0     H 4167   6.563  -0.242  10.002 -3.0386  0.9600 -0.2197
  772MOL0     H 4168   6.521  -0.311  10.156  0.0191  0.7034 -0.0516
  772MOL0     H 4169   6.359  -0.076  10.046  3.2114  0.1753 -1.4378
  772MOL0     H 4170   6.330  -0.173  10.195 -0.6712 -1.4559 -0.4402
  772MOL0     H 4171   6.226  -0.432  10.150  1.1593 -3.5070 -2.2389
  772MOL0     H 4172   6.096  -0.605   9.856 -1.9032 -0.5688 -1.7508
  772MOL0     H 4173   6.060  -0.603  10.017 -0.3371 -0.8299 -0.7962
  772MOL0     H 4174   5.907  -0.445   9.800  3.2835 -1.4305 -0.8323
  772MOL0     H 4175   5.870  -0.425   9.972 -0.2519  3.9163 -3.7617
  772MOL0     H 4176   5.843  -0.679   9.965 -0.4041  0.3075  0.5612
  772MOL0     H 4177   5.823  -0.660   9.787 -0.7347 -1.1396 -0.0647
  772MOL0     H 4178   5.640  -0.499   9.849  4.6053  3.3972  1.1314
  772MOL0     H 4179   5.680  -0.508  10.023 -1.1680  0.6143  0.7021
  772MOL0     H 4180   5.447  -0.862   9.972 -0.0180  0.1791  0.7263
  772MOL0     H 4181   5.133  -0.931  10.059  0.3624  2.2239 -1.4171
  772MOL0     H 4182   5.299  -0.990  10.073  0.6772  1.1068  1.0017
  772MOL0     H 4183   5.223  -0.922  10.219  0.8044  0.7297  0.2602
  772MOL0     H 4184   4.875  -0.670  10.392  1.1067 -1.9669 -1.9037
  772MOL0     H 4185   4.622  -0.627  10.419 -0.1615  0.0359  0.2883
  772MOL0     H 4186   4.449  -0.337  10.398 -1.9063 -0.5503  0.7317
  772MOL0     H 4187   4.452  -0.285  10.230 -1.0262  3.6470  2.7298
  772MOL0     H 4188   4.237  -0.412  10.205 -1.3867  1.7133 -0.3457
  772MOL0     H 4189   4.228  -0.422  10.375 -0.4261 -2.4378 -2.2618
  772MOL0     H 4190   4.297  -0.160  10.243  1.5650  1.5235  2.1992
  772MOL0     H 4191   4.196  -0.184  10.391  1.2118 -0.3910  0.3531
  772MOL0     H 4192   4.097  -0.264  10.119 -1.0868 -0.0182 -1.4872
  772MOL0     H 4193   4.000  -0.256  10.271  1.3275 -1.7033  0.5539
  772MOL0     H 4194   3.965  -0.039  10.125  1.1185  2.0014 -0.5756
  772MOL0     H 4195   4.132  -0.016  10.117  0.4415 -0.0854 -0.2304
  772MOL0     H 4196   3.935  -0.017  10.357  1.0496 -1.1654  0.8246
  772MOL0     H 4197   4.107   0.025  10.385  0.0939 -1.2889  0.1980
  772MOL0     H 4198   3.961   0.162  10.167  1.6642  1.4893 -0.6347
  772MOL0     H 4199   4.083   0.230  10.258 -0.1285  0.5641 -3.5671
  772MOL0     H 4200   3.905   0.211  10.467 -2.3470 -0.9209  0.4106
  772MOL0     H 4201   3.790   0.196  10.329  0.7358  0.3868 -0.9147
  772MOL0     H 4202   4.633  -0.349  10.093  3.3797 -0.8547 -3.3205
  772MOL0     H 4203   4.870  -0.394  10.055  0.3059  0.5983  0.3804
  772MOL0     H 4204   5.235  -0.449  10.100 -1.7678 -0.7484 -0.0191
  772MOL0     H 4205   5.460  -0.446  10.013 -0.9025  0.6359  2.9975
  772MOL0     H 4206   7.403   0.336  10.365  0.7919 -1.2941 -0.1920
  772MOL0     H 4207   7.627   0.409  10.288  1.5222 -0.1741 -0.2719
  772MOL0     H 4208   8.039   0.163  10.106 -0.7231  0.1557  0.7961
  772MOL0     H 4209   8.266   0.156  10.004  0.4531 -1.3191 -1.2178
  772MOL0     H 4210   8.515   0.343   9.721 -1.2074 -1.4568 -0.7464
  772MOL0     H 4211   8.373   0.424   9.657 -0.9842  0.9159  1.4901
  772MOL0     H 4212   8.515   0.538   9.906  2.5587  2.4818 -0.1278
  772MOL0     H 4213   8.385   0.611   9.803 -0.8825 -1.9582 -1.5037
  772MOL0     H 4214   8.545   0.628   9.613  0.9415  0.9382  0.9826
  772MOL0     H 4215   8.672   0.540   9.697 -0.1229 -0.7941 -2.3851
  772MOL0     H 4216   8.580   0.823   9.761  2.5800  1.9411 -1.9152
  772MOL0     H 4217   8.729   0.766   9.702 -2.1074  1.2636 -2.0126
  772MOL0     H 4218   8.721   0.724  10.134 -3.0766 -1.1727  0.9597
  772MOL0     H 4219   8.164   0.498   9.763  1.6139 -1.3138 -0.4817
  772MOL0     H 4220   7.944   0.510   9.868 -0.9204 -0.6049 -1.5593
  773MOL0     O 4221   0.383   0.434   7.744  0.7158 -1.2675  0.3609
  773MOL0     C 4222   0.290   0.371   7.697 -0.8521 -0.0993  0.3655
  773MOL0     O 4223   0.185   0.313   7.761  0.0631  0.2056 -0.6817
  773MOL0     C 4224   0.171   0.316   7.893  1.2642  0.0815 -0.3824
  773MOL0     C 4225   0.043   0.272   7.933 -0.3306 -0.2076  1.3624
  773MOL0     C 4226   0.012   0.263   8.073 -0.1735  0.4884  0.0707
  773MOL0     C 4227   0.107   0.306   8.172  1.0587 -0.2091  0.3423
  773MOL0     O 4228   0.087   0.303   8.308 -0.1293 -0.1018  0.3792
  773MOL0     C 4229  -0.048   0.336   8.349 -0.6224 -0.0072  0.4336
  773MOL0     C 4230  -0.039   0.359   8.503  0.1610 -1.6674 -0.0267
  773MOL0     C 4231  -0.189   0.351   8.554  0.2433 -0.0191  0.1922
  773MOL0     C 4232  -0.292   0.461   8.502 -0.8229  0.2020 -0.3098
  773MOL0     C 4233  -0.418   0.479   8.578  0.3148  0.9353  0.2259
  773MOL0     C 4234  -0.525   0.561   8.502 -0.3497  1.4404 -0.0255
  773MOL0     C 4235  -0.668   0.555   8.571  0.4102 -0.2236  0.8986
  773MOL0     C 4236  -0.697   0.669   8.672 -0.3915 -0.2662  0.4155
  773MOL0     N 4237  -0.826   0.668   8.735  0.6792 -0.5281  0.0089
  773MOL0     C 4238  -0.944   0.642   8.677  0.2225 -0.2599  0.3535
  773MOL0     C 4239  -1.024   0.640   8.785  0.6317 -0.2597 -0.5330
  773MOL0     C 4240  -1.164   0.620   8.784  0.7895  0.4949  0.5003
  773MOL0     C 4241  -1.247   0.751   8.768  0.3912  0.1382  0.8645
  773MOL0     C 4242  -1.383   0.736   8.718  0.6288 -0.6483  0.8863
  773MOL0     C 4243  -1.446   0.602   8.752 -0.0797  0.4362  0.3686
  773MOL0     O 4244  -1.486   0.610   8.890  0.6197 -0.6540  0.5473
  773MOL0     C 4245  -1.620   0.574   8.906 -0.7156 -0.0833 -0.1909
  773MOL0     C 4246  -1.681   0.603   9.032 -0.0310 -0.2134  0.7579
  773MOL0     C 4247  -1.814   0.555   9.065  0.2169 -0.6278  0.3094
  773MOL0     C 4248  -1.859   0.597   9.198 -0.1083 -0.2737  0.4160
  773MOL0     C 4249  -1.883   0.472   8.979  0.5567  0.3462 -0.5295
  773MOL0     C 4250  -2.032   0.421   8.994 -0.5729  0.6368 -0.2782
  773MOL0     O 4251  -2.085   0.351   8.896 -0.0407  0.4728  0.3952
  773MOL0     C 4252  -2.221   0.334   8.886 -0.7583  0.7873  1.4459
  773MOL0     C 4253  -2.280   0.204   8.903 -0.1343 -1.1131 -0.2951
  773MOL0     C 4254  -2.414   0.186   8.898  0.0889  0.6115  0.7160
  773MOL0     C 4255  -2.496   0.297   8.888  1.3296  0.3236 -0.2368
  773MOL0     O 4256  -2.628   0.254   8.909 -0.0551  0.1446  0.1105
  773MOL0     C 4257  -2.699   0.200   8.788 -1.0480  0.7186 -0.0425
  773MOL0     C 4258  -2.849   0.218   8.807 -0.4368  0.6260  0.8279
  773MOL0     C 4259  -2.918   0.161   8.678  0.5054 -0.5079 -0.4578
  773MOL0     C 4260  -2.888   0.022   8.641  1.3986 -0.0430  0.3139
  773MOL0     C 4261  -2.954  -0.032   8.512  0.0845  0.1589  0.4838
  773MOL0     C 4262  -3.107  -0.024   8.515 -0.3629 -0.0967 -0.2640
  773MOL0     C 4263  -3.181  -0.065   8.644  0.7343 -0.0913  0.4045
  773MOL0     C 4264  -3.333  -0.076   8.617 -0.0002 -0.0231 -0.4099
  773MOL0    Cl 4265  -3.436  -0.063   8.761  0.1272 -0.4890  0.6040
  773MOL0     C 4266  -2.439   0.427   8.876  0.0923  0.3443  0.3607
  773MOL0     C 4267  -2.302   0.443   8.872  0.3880 -0.3004 -0.4669
  773MOL0     O 4268  -2.086   0.439   9.100 -0.3191  0.0290  0.1058
  773MOL0     C 4269  -1.819   0.443   8.855 -0.0586  0.2367 -1.2125
  773MOL0     C 4270  -1.689   0.486   8.830  0.4721  0.6755 -0.2085
  773MOL0     N 4271  -0.956   0.649   8.906  0.3567  0.6221 -0.2798
  773MOL0     N 4272  -0.838   0.671   8.871 -0.4363 -0.7227  0.3216
  773MOL0     C 4273   0.229   0.348   8.135 -0.7422  0.8272 -0.0755
  773MOL0     C 4274   0.267   0.347   7.996  0.6027 -1.0714  0.4290
  773MOL0     C 4275   0.294   0.342   7.552  0.1018 -0.5009  0.4021
  773MOL0     C 4276   0.403   0.390   7.469  0.5722  0.1575  0.3684
  773MOL0     C 4277   0.402   0.376   7.330  0.6443 -0.5905 -0.1091
  773MOL0     C 4278   0.299   0.301   7.271  0.9079  0.5562 -0.6856
  773MOL0     O 4279   0.308   0.292   7.141  0.3018  0.4016  0.4926
  773MOL0     C 4280   0.205   0.229   7.057  0.6503 -0.1972 -0.2464
  773MOL0     C 4281   0.228   0.274   6.910  1.1422  0.7973 -0.4480
  773MOL0     C 4282   0.138   0.201   6.803 -0.3796  1.4025 -0.0517
  773MOL0     C 4283  -0.010   0.230   6.809  0.4043 -0.0798  0.0274
  773MOL0     C 4284  -0.083   0.180   6.924 -0.3089  0.7296 -1.0494
  773MOL0     C 4285  -0.142   0.137   7.030  0.1224 -1.2307  1.0846
  773MOL0     C 4286   0.195   0.255   7.348 -0.2420  0.3334  0.2221
  773MOL0     C 4287   0.189   0.272   7.485 -0.1788  0.4164 -0.1529
  773MOL0     H 4288  -0.030   0.234   7.861 -0.6157 -0.4843  1.7925
  773MOL0     H 4289  -0.085   0.224   8.102  0.0191  1.2388  1.8438
  773MOL0     H 4290  -0.092   0.429   8.312 -0.8392 -0.5580 -0.7102
  773MOL0     H 4291  -0.106   0.245   8.330  0.2740 -1.0052  2.1703
  773MOL0     H 4292   0.030   0.287   8.547 -0.1264 -1.0494  1.4759
  773MOL0     H 4293   0.001   0.458   8.526 -4.3444  0.5178 -0.6045
  773MOL0     H 4294  -0.231   0.253   8.529 -2.0901  1.1237 -0.6904
  773MOL0     H 4295  -0.185   0.350   8.664 -0.1151  4.1003  0.3810
  773MOL0     H 4296  -0.243   0.557   8.518 -0.4900 -0.0834  0.4000
  773MOL0     H 4297  -0.314   0.446   8.395  1.9340  0.8089 -1.0488
  773MOL0     H 4298  -0.461   0.380   8.598 -1.5985  1.4460 -1.1170
  773MOL0     H 4299  -0.407   0.531   8.673 -0.3102  0.7594  0.4006
  773MOL0     H 4300  -0.484   0.662   8.496  4.7315 -0.2207  1.3747
  773MOL0     H 4301  -0.542   0.518   8.403  2.7571 -1.2478  0.4439
  773MOL0     H 4302  -0.751   0.550   8.500  0.5981  2.6889  0.3606
  773MOL0     H 4303  -0.681   0.462   8.627 -1.1824 -0.2785  0.5014
  773MOL0     H 4304  -0.670   0.766   8.630  4.9001 -0.8221  1.8582
  773MOL0     H 4305  -0.625   0.658   8.753 -2.0006 -3.8551  1.5303
  773MOL0     H 4306  -0.973   0.643   8.573  0.6455  0.6656  0.2351
  773MOL0     H 4307  -1.175   0.559   8.694  0.3101  0.8914  0.2878
  773MOL0     H 4308  -1.201   0.556   8.864  1.9468 -1.0596 -0.1525
  773MOL0     H 4309  -1.200   0.817   8.694 -2.2602  0.8748 -0.2879
  773MOL0     H 4310  -1.248   0.804   8.864 -2.8122 -0.0477  1.0212
  773MOL0     H 4311  -1.374   0.735   8.609 -1.5555  1.5826  0.5859
  773MOL0     H 4312  -1.440   0.821   8.756  3.1886  0.3587  2.8118
  773MOL0     H 4313  -1.391   0.512   8.722 -1.3974 -0.1415 -0.4442
  773MOL0     H 4314  -1.528   0.611   8.681  0.8475  3.0003 -0.4722
  773MOL0     H 4315  -1.628   0.661   9.107 -1.0159 -1.8645  2.8463
  773MOL0     H 4316  -1.965   0.623   9.198  0.3233  1.6739  0.3210
  773MOL0     H 4317  -1.836   0.512   9.263  0.7254 -1.0743 -0.8813
  773MOL0     H 4318  -1.806   0.688   9.231  2.9731 -0.5285 -3.1611
  773MOL0     H 4319  -2.214   0.123   8.934 -0.0683 -1.3821 -1.1059
  773MOL0     H 4320  -2.455   0.087   8.916  0.5423  0.3784  0.4904
  773MOL0     H 4321  -2.658   0.248   8.698  3.0513 -0.3786  1.0543
  773MOL0     H 4322  -2.678   0.094   8.772  2.7266  1.3798 -0.4083
  773MOL0     H 4323  -2.892   0.170   8.896 -0.9016 -3.2449 -1.2513
  773MOL0     H 4324  -2.861   0.327   8.813 -1.8794  0.6658 -1.4330
  773MOL0     H 4325  -2.900   0.226   8.592 -2.3994  0.2982 -0.5538
  773MOL0     H 4326  -3.024   0.169   8.703  0.0170 -2.5154 -1.6427
  773MOL0     H 4327  -2.781   0.018   8.617  0.9031  1.8384 -2.6760
  773MOL0     H 4328  -2.905  -0.045   8.726 -0.9502 -1.5546 -1.2135
  773MOL0     H 4329  -2.921  -0.136   8.512 -2.0799 -0.6882  3.8435
  773MOL0     H 4330  -2.904   0.009   8.424  2.5955  3.7840  3.2381
  773MOL0     H 4331  -3.126   0.082   8.495 -0.0823  0.1199  0.5771
  773MOL0     H 4332  -3.140  -0.085   8.430  1.5215 -0.5510 -0.7110
  773MOL0     H 4333  -3.162  -0.001   8.731  0.2105  0.1863  0.3191
  773MOL0     H 4334  -3.160  -0.168   8.676  1.0786 -0.0881  0.1938
  773MOL0     H 4335  -3.348  -0.165   8.556 -2.3493  0.6625 -0.9450
  773MOL0     H 4336  -3.349   0.013   8.555 -0.2420  2.4264  2.8437
  773MOL0     H 4337  -2.497   0.518   8.883  2.0397  1.7055 -0.1240
  773MOL0     H 4338  -2.256   0.541   8.862 -1.3429  0.6075  0.0491
  773MOL0     H 4339  -1.874   0.381   8.786 -2.2661  0.5900  0.1100
  773MOL0     H 4340  -1.632   0.436   8.753  1.4135  1.2747  0.0809
  773MOL0     H 4341   0.296   0.390   8.210 -1.5025  1.9945 -0.0247
  773MOL0     H 4342   0.366   0.382   7.970  0.1706 -2.3091 -3.6843
  773MOL0     H 4343   0.486   0.442   7.516  0.1694 -0.2940  1.6129
  773MOL0     H 4344   0.481   0.412   7.265  1.3834 -2.3003 -0.2242
  773MOL0     H 4345   0.211   0.120   7.065 -2.8360 -0.6377 -1.8106
  773MOL0     H 4346   0.101   0.253   7.082  0.7487  1.9044 -1.6370
  773MOL0     H 4347   0.335   0.262   6.894  1.7520  1.7346  2.4135
  773MOL0     H 4348   0.202   0.380   6.905 -0.5645  0.4013 -0.8143
  773MOL0     H 4349   0.149   0.092   6.814  0.8699  1.7306  2.7775
  773MOL0     H 4350   0.181   0.225   6.706  0.4594 -0.7923 -0.2728
  773MOL0     H 4351  -0.073   0.182   6.733 -0.5226 -0.5485  1.0693
  773MOL0     H 4352  -0.023   0.339   6.804  0.3406 -0.1313 -2.0357
  773MOL0     H 4353  -0.183   0.113   7.126  1.1013  1.3377  2.2474
  773MOL0     H 4354   0.111   0.197   7.311 -0.7726 -0.4319  2.4749
  773MOL0     H 4355   0.105   0.232   7.542  2.1196  1.4452  4.3599
  774MOL0     O 4356   7.225   7.812   0.962  0.0492  0.0281 -0.1261
  774MOL0     C 4357   7.293   7.715   0.990  0.1811 -0.2932 -0.3232
  774MOL0     O 4358   7.253   7.608   1.071  0.4100 -0.7795 -0.0701
  774MOL0     C 4359   7.118   7.603   1.110 -0.7086  1.1873  0.1034
  774MOL0     C 4360   7.096   7.568   1.240 -0.3562  0.1772 -0.1671
  774MOL0     C 4361   6.967   7.540   1.287 -0.0058  0.7828  0.1293
  774MOL0     C 4362   6.861   7.545   1.201  0.2233  0.1044  1.0316
  774MOL0     O 4363   6.725   7.508   1.224 -0.0821 -0.9115  0.1069
  774MOL0     C 4364   6.707   7.415   1.326 -0.1744  0.1676 -0.3493
  774MOL0     C 4365   6.727   7.274   1.278 -0.3950  0.7471 -0.3580
  774MOL0     C 4366   6.629   7.251   1.161 -0.5816  0.2462  0.2813
  774MOL0     C 4367   6.599   7.098   1.151 -0.1860 -0.4201 -1.0290
  774MOL0     C 4368   6.492   7.074   1.034  0.7000  0.4595 -0.0217
  774MOL0     C 4369   6.351   7.126   1.055  0.3706  0.5756 -1.0183
  774MOL0     C 4370   6.252   7.074   0.947 -0.4208 -0.1138 -0.4845
  774MOL0     C 4371   6.220   6.926   0.953  0.0463 -0.3214 -0.2162
  774MOL0     N 4372   6.163   6.890   1.091 -0.3152 -0.2386  0.7349
  774MOL0     C 4373   6.035   6.899   1.124  0.1841 -0.2386 -0.3959
  774MOL0     C 4374   6.034   6.877   1.259 -0.3085 -0.3262  0.0278
  774MOL0     C 4375   5.913   6.870   1.334 -0.0355  0.1502  0.4678
  774MOL0     C 4376   5.922   6.903   1.485 -0.6909  0.5475 -0.5502
  774MOL0     C 4377   5.936   7.050   1.499  0.3033  0.4532 -0.5790
  774MOL0     C 4378   5.913   7.096   1.646 -0.2054 -0.3962 -0.1005
  774MOL0     O 4379   5.953   7.233   1.665  0.2107  0.4442  0.0353
  774MOL0     C 4380   6.053   7.268   1.745 -0.3618  0.2120 -0.1291
  774MOL0     C 4381   6.045   7.383   1.824  0.5192 -0.1358 -0.0583
  774MOL0     C 4382   6.152   7.425   1.898  0.1838 -0.2225 -0.0024
  774MOL0     C 4383   6.146   7.541   1.981  0.6269 -0.3228  0.2120
  774MOL0     C 4384   6.271   7.347   1.900 -0.1094 -0.6142 -0.5163
  774MOL0     C 4385   6.384   7.376   1.985  0.5491 -0.2735  0.2043
  774MOL0     O 4386   6.425   7.508   1.991  0.7513  0.5944  0.1357
  774MOL0     C 4387   6.518   7.555   2.077  0.2673 -0.4423  0.3284
  774MOL0     C 4388   6.618   7.651   2.037 -0.3421  0.7252  0.4796
  774MOL0     C 4389   6.731   7.680   2.112  0.7313 -0.5663 -0.1465
  774MOL0     C 4390   6.753   7.604   2.223  0.1621 -0.4893 -1.4400
  774MOL0     O 4391   6.867   7.634   2.299  0.2174  0.4721  0.2058
  774MOL0     C 4392   6.835   7.725   2.412  0.1858 -0.1272  0.2452
  774MOL0     C 4393   6.959   7.804   2.455 -0.3198 -0.0112 -0.1722
  774MOL0     C 4394   7.032   7.727   2.558  0.1747  0.3092 -0.3702
  774MOL0     C 4395   7.103   7.605   2.497  0.4397  0.1921 -0.3506
  774MOL0     C 4396   7.178   7.530   2.603 -0.4903  0.7329 -0.1210
  774MOL0     C 4397   7.087   7.424   2.669  0.4010 -0.4929  1.0936
  774MOL0     C 4398   7.166   7.371   2.792 -0.1155 -0.3056  0.3953
  774MOL0     C 4399   7.101   7.253   2.858  0.1602  0.1558  0.7027
  774MOL0    Cl 4400   6.943   7.290   2.934 -0.2080 -0.3316  0.1531
  774MOL0     C 4401   6.649   7.525   2.283 -1.0227  0.4316  0.4886
  774MOL0     C 4402   6.533   7.501   2.202  0.0502  0.3026  0.4831
  774MOL0     O 4403   6.434   7.285   2.052 -0.3642 -0.2667 -0.1596
  774MOL0     C 4404   6.279   7.225   1.831 -0.0514 -0.6400  0.6643
  774MOL0     C 4405   6.170   7.184   1.751 -0.2962  0.3669 -0.6410
  774MOL0     N 4406   6.165   6.834   1.303 -1.0675  0.2538 -0.4088
  774MOL0     N 4407   6.237   6.848   1.198  0.4032 -0.0070  0.2398
  774MOL0     C 4408   6.883   7.597   1.073 -0.0727 -0.6857 -0.1653
  774MOL0     C 4409   7.009   7.619   1.017  0.0694  0.2925  0.1086
  774MOL0     C 4410   7.434   7.720   0.948  0.8607  0.5108  0.2437
  774MOL0     C 4411   7.500   7.835   0.898  0.0079  0.1935 -0.5728
  774MOL0     C 4412   7.631   7.830   0.848 -0.7390 -0.6467  0.0863
  774MOL0     C 4413   7.700   7.707   0.838  0.3663  0.4216 -0.0767
  774MOL0     O 4414   7.830   7.718   0.799  0.4182 -0.1737  0.5209
  774MOL0     C 4415   7.923   7.610   0.806 -0.1165  0.0059  0.1184
  774MOL0     C 4416   8.057   7.644   0.739  0.7541 -0.8066  1.0092
  774MOL0     C 4417   8.136   7.749   0.812  0.4019  0.2386  0.8786
  774MOL0     C 4418   8.287   7.747   0.778 -0.5954 -0.5593  0.5623
  774MOL0     C 4419   8.303   7.792   0.641  0.5030  0.4865 -0.3054
  774MOL0     C 4420   8.309   7.832   0.523 -0.1877  0.6275  0.0272
  774MOL0     C 4421   7.634   7.593   0.889 -0.1356  0.8671 -0.4551
  774MOL0     C 4422   7.505   7.599   0.938 -0.4864 -0.2180  0.0156
  774MOL0     H 4423   7.186   7.566   1.300  0.8757  0.6317 -1.9069
  774MOL0     H 4424   6.950   7.500   1.386  1.0003 -0.7345 -0.2738
  774MOL0     H 4425   6.759   7.440   1.419 -1.9137 -0.1056  0.7261
  774MOL0     H 4426   6.603   7.418   1.358 -0.4202 -1.7663 -0.8243
  774MOL0     H 4427   6.833   7.258   1.254 -1.4410 -3.0548 -3.4544
  774MOL0     H 4428   6.695   7.213   1.364  1.6399 -0.5728 -0.4530
  774MOL0     H 4429   6.538   7.308   1.180 -0.6095  0.0855  0.6428
  774MOL0     H 4430   6.671   7.288   1.068  0.4794 -0.8090  0.3174
  774MOL0     H 4431   6.689   7.038   1.145  1.4475  1.8730 -0.7440
  774MOL0     H 4432   6.545   7.070   1.242  1.2106  1.7044  0.5636
  774MOL0     H 4433   6.524   7.117   0.939 -0.2817 -0.3356 -0.7311
  774MOL0     H 4434   6.479   6.966   1.025  0.9635  0.5733 -2.3646
  774MOL0     H 4435   6.310   7.084   1.147 -1.8088  0.6255 -1.9153
  774MOL0     H 4436   6.349   7.234   1.067 -3.3919  0.4760  0.5975
  774MOL0     H 4437   6.157   7.129   0.950 -0.8999 -0.9209 -0.5614
  774MOL0     H 4438   6.305   7.089   0.853  0.5174 -0.6953 -0.0538
  774MOL0     H 4439   6.302   6.858   0.929 -0.9983 -1.6644 -0.0902
  774MOL0     H 4440   6.141   6.916   0.877 -0.7343  1.9016  0.2251
  774MOL0     H 4441   5.948   6.926   1.067 -0.7592  0.0706  1.1372
  774MOL0     H 4442   5.836   6.925   1.279  1.3053  0.7427 -0.8766
  774MOL0     H 4443   5.888   6.764   1.322 -0.0982  0.4598 -2.8131
  774MOL0     H 4444   6.011   6.850   1.521 -0.2769  1.6522  0.0916
  774MOL0     H 4445   5.835   6.860   1.535 -0.5712 -0.2732 -1.0316
  774MOL0     H 4446   5.856   7.101   1.444 -1.4097 -2.5412 -1.1013
  774MOL0     H 4447   6.037   7.075   1.466 -0.1167  0.7665 -1.6896
  774MOL0     H 4448   5.978   7.029   1.701  0.3904 -2.8762 -3.4921
  774MOL0     H 4449   5.810   7.085   1.681 -0.3250 -1.4412 -0.7343
  774MOL0     H 4450   5.951   7.438   1.819 -1.4754 -3.3057 -0.2284
  774MOL0     H 4451   6.053   7.595   1.963  0.1286 -1.8402 -2.3220
  774MOL0     H 4452   6.136   7.507   2.085 -3.3240 -1.4175 -0.3656
  774MOL0     H 4453   6.219   7.619   1.959 -0.3481  0.8078  0.9012
  774MOL0     H 4454   6.612   7.700   1.940  0.1928  0.8046  0.4854
  774MOL0     H 4455   6.802   7.748   2.067 -1.1927 -0.9067 -4.1627
  774MOL0     H 4456   6.780   7.810   2.370 -0.9897 -0.9015  0.1819
  774MOL0     H 4457   6.777   7.676   2.490 -0.7433 -0.2562 -0.5210
  774MOL0     H 4458   7.030   7.832   2.377  1.2947 -0.8144  0.9554
  774MOL0     H 4459   6.931   7.894   2.512  0.5772 -0.8282  1.6351
  774MOL0     H 4460   6.966   7.684   2.634 -1.8240  0.9431 -1.6887
  774MOL0     H 4461   7.102   7.790   2.614  1.4291 -2.3527  1.3030
  774MOL0     H 4462   7.026   7.546   2.448 -2.6709  1.3691  2.7184
  774MOL0     H 4463   7.176   7.647   2.426  0.6529 -0.2946 -0.4224
  774MOL0     H 4464   7.220   7.599   2.677 -1.1825  1.2351 -0.1893
  774MOL0     H 4465   7.263   7.477   2.560 -2.2967 -2.0881 -0.5200
  774MOL0     H 4466   6.989   7.461   2.700 -0.1931 -1.0189 -0.0529
  774MOL0     H 4467   7.076   7.342   2.597 -1.3553  0.9774 -0.4226
  774MOL0     H 4468   7.189   7.444   2.871 -0.7203 -1.3399  1.5548
  774MOL0     H 4469   7.264   7.344   2.752 -0.3760 -2.5282  1.1113
  774MOL0     H 4470   7.147   7.203   2.943 -0.9768  2.0852  2.5462
  774MOL0     H 4471   7.100   7.183   2.773  1.6282 -0.7685  1.4026
  774MOL0     H 4472   6.652   7.458   2.368  1.9441 -3.3928 -2.2750
  774MOL0     H 4473   6.474   7.422   2.248  1.7952 -1.1452  0.3581
  774MOL0     H 4474   6.365   7.159   1.841 -1.2064 -1.9750  2.4211
  774MOL0     H 4475   6.178   7.086   1.706 -0.9476 -0.2858  0.6286
  774MOL0     H 4476   6.796   7.610   1.010  1.3268 -2.0375 -2.5257
  774MOL0     H 4477   7.034   7.655   0.917  0.8810 -0.0800  0.1674
  774MOL0     H 4478   7.469   7.938   0.912 -0.0782 -0.0577  1.2900
  774MOL0     H 4479   7.676   7.926   0.825 -2.8106  0.9370  2.1085
  774MOL0     H 4480   7.934   7.577   0.909 -0.8051 -0.1055  0.1559
  774MOL0     H 4481   7.878   7.519   0.765 -2.0417  1.5413 -1.3806
  774MOL0     H 4482   8.035   7.675   0.636  0.9495 -3.5417  0.0559
  774MOL0     H 4483   8.130   7.564   0.726  2.6727  1.0052 -0.1945
  774MOL0     H 4484   8.119   7.737   0.919 -1.1728  0.7552  0.7059
  774MOL0     H 4485   8.094   7.844   0.780  0.0953 -0.3226 -0.4604
  774MOL0     H 4486   8.333   7.649   0.792 -0.1450 -0.4476 -0.0858
  774MOL0     H 4487   8.339   7.814   0.847 -2.6265  0.3158  1.3289
  774MOL0     H 4488   8.305   7.864   0.421  1.6516 -1.1282 -0.6561
  774MOL0     H 4489   7.684   7.496   0.880 -2.2333 -0.3919  0.6254
  774MOL0     H 4490   7.453   7.506   0.956 -0.9856 -0.5500 -2.6576
  775MOL0     O 4491   7.694   6.199   8.947  0.4305 -0.1435  0.1450
  775MOL0     C 4492   7.689   6.238   8.827 -0.9837 -0.6958 -0.0983
  775MOL0     O 4493   7.585   6.304   8.768 -0.3405  0.4158 -0.3397
  775MOL0     C 4494   7.461   6.294   8.830 -0.3226 -0.2086 -0.3849
  775MOL0     C 4495   7.413   6.409   8.875  0.1911 -0.4181 -0.1333
  775MOL0     C 4496   7.275   6.418   8.923 -0.5111 -0.2850  0.1337
  775MOL0     C 4497   7.185   6.311   8.911  0.8117 -0.4675 -0.3380
  775MOL0     O 4498   7.052   6.319   8.948 -0.4014 -0.0705 -0.0152
  775MOL0     C 4499   6.943   6.246   8.885 -0.2615  0.0720 -0.3920
  775MOL0     C 4500   6.902   6.327   8.751 -0.5105  0.7928 -0.6939
  775MOL0     C 4501   6.773   6.275   8.682 -0.0007  0.7641  0.8175
  775MOL0     C 4502   6.682   6.386   8.641  0.9167  0.5400  0.0805
  775MOL0     C 4503   6.590   6.350   8.522  0.0148 -0.3303 -0.5662
  775MOL0     C 4504   6.497   6.474   8.491  0.5795 -1.3921  0.5327
  775MOL0     C 4505   6.393   6.422   8.391  1.4450  1.0136  0.1656
  775MOL0     C 4506   6.451   6.437   8.247  0.2803  0.1181 -0.4245
  775MOL0     N 4507   6.365   6.385   8.143  0.4029 -0.0423  0.2467
  775MOL0     C 4508   6.356   6.256   8.092  0.0939 -0.0004 -0.1227
  775MOL0     C 4509   6.258   6.265   8.001 -0.1516 -1.0194  0.1675
  775MOL0     C 4510   6.211   6.144   7.921  0.3229 -0.2820 -1.3387
  775MOL0     C 4511   6.085   6.080   7.993  0.5120  0.1694  0.3826
  775MOL0     C 4512   6.058   5.943   7.917  0.0299 -0.5294  0.9355
  775MOL0     C 4513   6.015   5.950   7.777  0.9980 -0.4363 -0.6944
  775MOL0     O 4514   5.883   6.001   7.783 -0.0471  0.1531 -0.4251
  775MOL0     C 4515   5.825   6.020   7.662 -0.2706  0.1128  0.6151
  775MOL0     C 4516   5.689   6.057   7.661 -0.6046  0.5048 -0.0737
  775MOL0     C 4517   5.602   6.060   7.551 -0.3583 -0.3753  0.3175
  775MOL0     C 4518   5.450   6.064   7.586  0.2355 -0.4190 -1.5890
  775MOL0     C 4519   5.663   6.048   7.421  0.1602 -0.1618  0.3938
  775MOL0     C 4520   5.589   6.056   7.289  0.3102 -0.4272 -0.5801
  775MOL0     O 4521   5.668   6.075   7.181  0.1787  0.7939  0.3397
  775MOL0     C 4522   5.603   6.083   7.058 -0.1191  0.3430  0.3611
  775MOL0     C 4523   5.649   6.191   6.984 -0.2993 -0.0364  0.0029
  775MOL0     C 4524   5.593   6.220   6.860 -0.6817 -0.0395  0.3276
  775MOL0     C 4525   5.501   6.137   6.798 -0.1190  1.4725 -0.7783
  775MOL0     O 4526   5.450   6.165   6.675  0.2217 -0.1656 -0.1133
  775MOL0     C 4527   5.547   6.151   6.570 -0.4158  0.3992  0.4034
  775MOL0     C 4528   5.491   6.032   6.486  0.5074 -0.4507  0.0774
  775MOL0     C 4529   5.543   5.891   6.530  1.2010 -0.0910  0.0577
  775MOL0     C 4530   5.526   5.797   6.412  0.1968  0.3289 -1.3840
  775MOL0     C 4531   5.493   5.661   6.460  0.3938 -0.1073  0.0309
  775MOL0     C 4532   5.347   5.639   6.513  0.2335 -0.6641  0.1431
  775MOL0     C 4533   5.230   5.666   6.413  0.1709  0.5403 -0.4229
  775MOL0     C 4534   5.091   5.632   6.474 -0.2358  0.2050  0.3451
  775MOL0    Cl 4535   5.068   5.701   6.633 -0.1758  0.0120  0.0726
  775MOL0     C 4536   5.453   6.024   6.873 -0.1198 -0.2850 -0.3790
  775MOL0     C 4537   5.507   5.997   7.005  0.5388  0.9454  0.7148
  775MOL0     O 4538   5.466   6.048   7.288  0.1161  0.3019 -0.8366
  775MOL0     C 4539   5.803   6.034   7.415  0.1304  0.4954  0.2696
  775MOL0     C 4540   5.878   6.009   7.532 -0.1916 -1.0115  0.7225
  775MOL0     N 4541   6.203   6.389   7.997  0.0366 -0.0633 -0.3354
  775MOL0     N 4542   6.263   6.461   8.087 -0.2518  0.0465  0.0002
  775MOL0     C 4543   7.237   6.199   8.848  0.1134  0.0361 -0.1720
  775MOL0     C 4544   7.370   6.192   8.806  0.4257  0.5721  0.1301
  775MOL0     C 4545   7.804   6.216   8.735  0.4419 -1.1191  0.7386
  775MOL0     C 4546   7.939   6.207   8.778 -0.9970 -0.0356 -0.2744
  775MOL0     C 4547   8.047   6.174   8.689 -0.7544 -0.1935 -0.2865
  775MOL0     C 4548   8.018   6.164   8.559  0.1728  0.5401  0.3784
  775MOL0     O 4549   8.127   6.139   8.479  0.0976  0.0834  0.1651
  775MOL0     C 4550   8.126   6.168   8.340  0.1133 -0.2142  0.2448
  775MOL0     C 4551   8.261   6.228   8.304 -0.3526 -0.2512  0.9894
  775MOL0     C 4552   8.385   6.146   8.344 -0.0408 -0.5315 -0.0730
  775MOL0     C 4553   8.514   6.228   8.353  0.2895 -0.0974 -0.1126
  775MOL0     C 4554   8.614   6.132   8.397  0.1308  1.6051 -0.3611
  775MOL0     C 4555   8.700   6.044   8.410  0.1031  0.2294  0.3957
  775MOL0     C 4556   7.892   6.182   8.513  0.3093 -0.2465  0.4341
  775MOL0     C 4557   7.783   6.193   8.600 -0.1001  0.0655 -0.6965
  775MOL0     H 4558   7.476   6.497   8.885 -0.2896 -0.0905  0.0850
  775MOL0     H 4559   7.243   6.510   8.971  0.0769 -1.1274  2.2664
  775MOL0     H 4560   6.968   6.139   8.880 -2.7073 -0.7148  1.6485
  775MOL0     H 4561   6.856   6.252   8.952 -1.0933 -2.3178 -1.1384
  775MOL0     H 4562   6.886   6.428   8.789 -0.9064  1.3003 -2.1608
  775MOL0     H 4563   6.984   6.315   8.680  0.6395 -3.8887  1.0555
  775MOL0     H 4564   6.804   6.231   8.587  0.4587  3.7043 -0.5050
  775MOL0     H 4565   6.717   6.210   8.750  0.8504 -0.5870  0.2481
  775MOL0     H 4566   6.624   6.407   8.731  1.9237  3.0017  0.2308
  775MOL0     H 4567   6.734   6.482   8.627  0.4900  0.7040 -0.3878
  775MOL0     H 4568   6.659   6.327   8.440  0.4868 -0.9078 -0.0159
  775MOL0     H 4569   6.539   6.260   8.557  2.6922 -1.8483 -0.3247
  775MOL0     H 4570   6.447   6.505   8.583  0.8929 -0.6240  0.4505
  775MOL0     H 4571   6.561   6.555   8.455 -0.0810 -0.6569  0.9936
  775MOL0     H 4572   6.361   6.319   8.411 -0.0039  1.3008 -0.5638
  775MOL0     H 4573   6.299   6.477   8.404  1.1186  0.5595 -0.2424
  775MOL0     H 4574   6.549   6.390   8.241  0.0473 -0.2475 -1.4682
  775MOL0     H 4575   6.455   6.543   8.222 -3.1652  0.4133 -0.2223
  775MOL0     H 4576   6.406   6.163   8.118  1.9720  1.7269  3.0533
  775MOL0     H 4577   6.184   6.175   7.820 -0.0754  0.5295 -0.9901
  775MOL0     H 4578   6.293   6.071   7.918  1.0591  0.1631  2.5639
  775MOL0     H 4579   5.991   6.134   7.997  0.9766  0.9608  4.2565
  775MOL0     H 4580   6.127   6.067   8.093  5.0519  0.2907 -1.2528
  775MOL0     H 4581   5.977   5.885   7.962  0.1215  0.2805  2.2118
  775MOL0     H 4582   6.149   5.882   7.921  0.2107 -0.4744 -1.3161
  775MOL0     H 4583   6.026   5.850   7.732  4.6238 -0.2642 -0.4893
  775MOL0     H 4584   6.090   6.008   7.723  1.2256  1.6257  1.6746
  775MOL0     H 4585   5.656   6.076   7.762  0.3443 -2.9077  1.0229
  775MOL0     H 4586   5.458   6.066   7.696  1.7884 -0.5802 -1.6818
  775MOL0     H 4587   5.413   6.159   7.546  0.8800  0.6021  0.0995
  775MOL0     H 4588   5.377   5.986   7.563 -0.2459 -0.4780 -0.0242
  775MOL0     H 4589   5.729   6.256   7.017 -0.8932  0.9475 -0.4362
  775MOL0     H 4590   5.629   6.318   6.830  0.6854  2.7404  8.3471
  775MOL0     H 4591   5.556   6.234   6.499  1.6218 -2.6400 -3.2703
  775MOL0     H 4592   5.648   6.134   6.608  1.0124 -0.3409 -3.3471
  775MOL0     H 4593   5.382   6.031   6.490  0.5097  0.7782  1.0794
  775MOL0     H 4594   5.504   6.058   6.381 -3.0443 -1.9137 -0.8716
  775MOL0     H 4595   5.472   5.860   6.606  0.0247 -3.1128 -2.0489
  775MOL0     H 4596   5.645   5.880   6.568  1.1356  0.5307  0.4243
  775MOL0     H 4597   5.444   5.837   6.351 -1.2183 -0.9619 -0.3961
  775MOL0     H 4598   5.619   5.812   6.357  1.1366  3.2982  0.7083
  775MOL0     H 4599   5.565   5.649   6.541 -1.0730  1.7693  1.6818
  775MOL0     H 4600   5.521   5.585   6.387  3.9173  1.1564 -0.1201
  775MOL0     H 4601   5.347   5.533   6.541  0.5663 -0.6720  0.1110
  775MOL0     H 4602   5.327   5.702   6.600 -0.1100  0.5339 -0.7654
  775MOL0     H 4603   5.250   5.608   6.323 -0.5968 -0.5806  0.1156
  775MOL0     H 4604   5.231   5.775   6.401  0.4916  0.8199  1.6949
  775MOL0     H 4605   5.083   5.524   6.485  0.0562 -0.1533 -2.2969
  775MOL0     H 4606   5.016   5.668   6.403 -0.0152  1.1305  0.5653
  775MOL0     H 4607   5.387   5.953   6.825  2.0365 -2.4658 -0.3119
  775MOL0     H 4608   5.484   5.902   7.052 -0.7002 -0.1111 -1.8845
  775MOL0     H 4609   5.856   6.038   7.320 -2.1900 -3.5294 -1.4949
  775MOL0     H 4610   5.986   5.992   7.528  0.1830  0.0137  3.6260
  775MOL0     H 4611   7.172   6.113   8.837 -0.6155  0.4929  0.4737
  775MOL0     H 4612   7.403   6.113   8.739 -0.3635  1.9520 -1.9904
  775MOL0     H 4613   7.951   6.224   8.884  2.4849 -2.5049 -0.1072
  775MOL0     H 4614   8.150   6.168   8.723 -0.6209  1.8785 -0.2387
  775MOL0     H 4615   8.103   6.078   8.281 -0.3096 -1.9797  2.9520
  775MOL0     H 4616   8.046   6.240   8.323 -0.9404 -0.5735  3.2061
  775MOL0     H 4617   8.271   6.325   8.355 -0.5177  0.0897  0.3903
  775MOL0     H 4618   8.261   6.250   8.196  1.0408  0.7564  1.1615
  775MOL0     H 4619   8.395   6.065   8.271  1.5007 -0.9473  0.5686
  775MOL0     H 4620   8.366   6.106   8.444  0.0744 -1.6755 -0.4881
  775MOL0     H 4621   8.500   6.318   8.412 -1.8363  0.6932 -1.7003
  775MOL0     H 4622   8.536   6.274   8.256 -3.6663 -0.7740 -1.5169
  775MOL0     H 4623   8.779   5.972   8.409  1.1242  1.2867  1.2206
  775MOL0     H 4624   7.869   6.183   8.407 -1.0580  3.6919  0.5859
  775MOL0     H 4625   7.686   6.195   8.552 -0.4803 -0.5280  0.0263
  776MOL0     O 4626   9.531   4.253   6.386 -0.0823  0.2060  0.0537
  776MOL0     C 4627   9.591   4.268   6.492 -0.2969 -0.5983  1.1022
  776MOL0     O 4628   9.533   4.301   6.610 -0.5349 -0.1043  0.4588
  776MOL0     C 4629   9.416   4.373   6.614  0.0976  0.2906 -0.2983
  776MOL0     C 4630   9.365   4.457   6.514 -0.3070 -0.4021 -0.2447
  776MOL0     C 4631   9.257   4.548   6.535  0.1270 -0.0443  0.5048
  776MOL0     C 4632   9.185   4.551   6.657  0.1541  0.1501 -0.1333
  776MOL0     O 4633   9.086   4.642   6.671 -0.6064  0.4728 -0.2791
  776MOL0     C 4634   8.955   4.588   6.689 -0.3421 -1.0460  0.3438
  776MOL0     C 4635   8.860   4.702   6.714  0.0505 -0.6870 -1.1224
  776MOL0     C 4636   8.839   4.783   6.584 -0.1531 -0.1009 -1.2075
  776MOL0     C 4637   8.692   4.782   6.540  0.3882 -0.3091  0.6828
  776MOL0     C 4638   8.687   4.876   6.412 -0.3701 -0.0745  0.2756
  776MOL0     C 4639   8.551   4.950   6.391  0.3229 -0.1488  0.4796
  776MOL0     C 4640   8.544   5.083   6.474  0.8473  0.1260 -0.5772
  776MOL0     C 4641   8.410   5.084   6.555  0.0966 -0.6509 -0.1088
  776MOL0     N 4642   8.301   5.097   6.464  0.0716  0.1341 -0.0164
  776MOL0     C 4643   8.211   5.195   6.470  0.0183  0.1159  0.4757
  776MOL0     C 4644   8.107   5.162   6.378  0.2745 -0.1002 -0.0734
  776MOL0     C 4645   7.988   5.232   6.333  0.0738 -0.5176  0.5168
  776MOL0     C 4646   7.862   5.151   6.328 -0.5155  0.9186  0.7760
  776MOL0     C 4647   7.740   5.234   6.307  0.1905  0.2122 -0.5117
  776MOL0     C 4648   7.603   5.152   6.288 -1.0257 -0.6465 -0.2492
  776MOL0     O 4649   7.578   5.103   6.422 -0.1089 -0.0336  0.2336
  776MOL0     C 4650   7.486   5.166   6.504 -0.7721  0.1751  0.2971
  776MOL0     C 4651   7.404   5.271   6.465  0.8890 -1.2366 -0.1973
  776MOL0     C 4652   7.311   5.329   6.554 -0.4378  0.0864  0.0788
  776MOL0     C 4653   7.216   5.428   6.492  1.0815  0.3865  0.1663
  776MOL0     C 4654   7.308   5.285   6.687  0.9343  0.3806 -0.0438
  776MOL0     C 4655   7.219   5.354   6.779 -0.2627 -0.4351 -0.5458
  776MOL0     O 4656   7.146   5.285   6.871  0.1546  0.0024  0.1813
  776MOL0     C 4657   7.015   5.332   6.882  0.0262  0.1767  1.0525
  776MOL0     C 4658   6.926   5.281   6.790  0.5902 -0.1972  0.4320
  776MOL0     C 4659   6.784   5.334   6.788  0.5540 -0.5156 -0.9882
  776MOL0     C 4660   6.740   5.426   6.884  0.0257 -0.0206  0.4949
  776MOL0     O 4661   6.605   5.454   6.893  0.1116  0.1300  0.2447
  776MOL0     C 4662   6.546   5.518   7.011 -0.0162 -0.6937 -0.1340
  776MOL0     C 4663   6.401   5.573   6.978  0.3477 -0.6629  0.1741
  776MOL0     C 4664   6.387   5.657   6.852  0.1836  0.6350 -0.0202
  776MOL0     C 4665   6.449   5.791   6.866 -0.1841 -0.0183  0.5613
  776MOL0     C 4666   6.396   5.870   6.738 -0.0486  0.2849 -0.4689
  776MOL0     C 4667   6.414   6.022   6.724 -0.4286 -0.2802  0.1722
  776MOL0     C 4668   6.542   6.058   6.643 -0.0859 -0.5207  0.0846
  776MOL0     C 4669   6.548   6.016   6.501  0.2348  0.5264  0.3419
  776MOL0    Cl 4670   6.601   6.145   6.387  0.6210  0.0724 -0.1677
  776MOL0     C 4671   6.833   5.467   6.978 -0.2277  0.3732  0.8745
  776MOL0     C 4672   6.972   5.425   6.979 -0.2712  0.7284 -0.4325
  776MOL0     O 4673   7.215   5.477   6.772  0.4770  0.7518 -0.5005
  776MOL0     C 4674   7.393   5.184   6.730 -0.1650 -0.3012  0.9484
  776MOL0     C 4675   7.486   5.121   6.640 -0.5001 -0.0225 -0.2859
  776MOL0     N 4676   8.140   5.028   6.334  0.3067  0.6264 -0.3604
  776MOL0     N 4677   8.253   4.998   6.389 -0.4848 -0.2368 -0.2765
  776MOL0     C 4678   9.237   4.471   6.761 -0.0928  0.1669  0.6912
  776MOL0     C 4679   9.348   4.377   6.741 -0.2659 -0.5129 -0.3261
  776MOL0     C 4680   9.739   4.260   6.501  0.2588  0.2524 -0.2207
  776MOL0     C 4681   9.807   4.241   6.625 -0.0953  0.1868 -0.2993
  776MOL0     C 4682   9.945   4.237   6.635 -0.4855  0.7394 -0.0060
  776MOL0     C 4683  10.015   4.253   6.519 -0.1359 -0.2005  0.4932
  776MOL0     O 4684  10.153   4.268   6.526 -0.6880  0.1726  0.0209
  776MOL0     C 4685  10.212   4.406   6.518  0.2589  0.2993 -0.3858
  776MOL0     C 4686  10.344   4.409   6.441 -0.4854  0.6832 -0.4977
  776MOL0     C 4687  10.442   4.292   6.474  0.7395  0.3132 -0.2699
  776MOL0     C 4688  10.477   4.258   6.619  0.4281 -0.5002 -0.0503
  776MOL0     C 4689  10.614   4.221   6.634  0.1037 -0.5389  0.4876
  776MOL0     C 4690  10.727   4.188   6.652  0.6348  0.3050  0.6085
  776MOL0     C 4691   9.955   4.279   6.396  0.3097 -0.4673  0.4873
  776MOL0     C 4692   9.814   4.276   6.386 -0.8009 -0.7436  0.1446
  776MOL0     H 4693   9.417   4.455   6.418  3.1258 -0.4160  1.4844
  776MOL0     H 4694   9.221   4.615   6.458  3.2721  0.7803 -0.3945
  776MOL0     H 4695   8.931   4.537   6.596  2.0831 -1.3835 -0.1570
  776MOL0     H 4696   8.949   4.514   6.769 -3.0643 -0.4166  0.8076
  776MOL0     H 4697   8.760   4.678   6.750 -0.0005  1.5541  0.4239
  776MOL0     H 4698   8.900   4.758   6.799 -0.4755 -0.5841 -0.9391
  776MOL0     H 4699   8.851   4.887   6.615 -0.9866  0.2667 -2.0703
  776MOL0     H 4700   8.899   4.751   6.498 -1.0568 -0.2953 -1.7795
  776MOL0     H 4701   8.667   4.676   6.525  0.4121 -0.0452 -1.6264
  776MOL0     H 4702   8.627   4.817   6.621 -2.1556 -2.3964 -0.3190
  776MOL0     H 4703   8.754   4.961   6.422  0.1823 -0.7212  3.1167
  776MOL0     H 4704   8.713   4.811   6.328  3.8939  3.5025 -1.5238
  776MOL0     H 4705   8.554   4.972   6.284  2.5599 -3.8389 -0.3796
  776MOL0     H 4706   8.469   4.883   6.420  0.8040 -0.2018  1.7646
  776MOL0     H 4707   8.628   5.076   6.543  0.3174 -0.1311  0.0515
  776MOL0     H 4708   8.558   5.179   6.423  0.6116  0.1997 -0.5078
  776MOL0     H 4709   8.430   5.166   6.625  0.3671  1.2643 -2.2785
  776MOL0     H 4710   8.386   4.996   6.615 -0.7385 -0.3059  0.0797
  776MOL0     H 4711   8.215   5.288   6.525 -2.1272  1.0551 -0.8322
  776MOL0     H 4712   7.968   5.318   6.397 -2.8076  1.7485 -3.0167
  776MOL0     H 4713   8.011   5.272   6.233 -0.0112 -3.7407 -0.9334
  776MOL0     H 4714   7.855   5.090   6.418 -1.1687  0.4518  0.4182
  776MOL0     H 4715   7.876   5.075   6.251  1.0698  1.2751  0.6757
  776MOL0     H 4716   7.757   5.291   6.216  1.6358  2.4105  1.0407
  776MOL0     H 4717   7.720   5.306   6.387 -0.9322  0.4286 -0.9709
  776MOL0     H 4718   7.621   5.063   6.227 -0.7508 -0.6482 -0.1682
  776MOL0     H 4719   7.534   5.226   6.247  2.5019  2.2822 -1.4237
  776MOL0     H 4720   7.415   5.315   6.366  2.5542 -2.0034 -0.3806
  776MOL0     H 4721   7.119   5.402   6.537  0.6903  0.9730 -0.3207
  776MOL0     H 4722   7.232   5.534   6.509 -0.7552  1.2310 -2.7267
  776MOL0     H 4723   7.204   5.419   6.384  1.8984  0.1412  0.0890
  776MOL0     H 4724   6.967   5.209   6.720  2.0781  0.0252  1.0462
  776MOL0     H 4725   6.712   5.295   6.717 -2.2954  1.0918  0.8453
  776MOL0     H 4726   6.538   5.442   7.089  0.6738 -0.1531  0.4816
  776MOL0     H 4727   6.614   5.594   7.050 -1.5134 -0.7843  2.9522
  776MOL0     H 4728   6.337   5.487   6.955 -1.8382  0.6185  1.1715
  776MOL0     H 4729   6.360   5.628   7.063 -0.8112 -0.5603 -0.4313
  776MOL0     H 4730   6.281   5.658   6.825 -0.1070 -1.9705  0.7598
  776MOL0     H 4731   6.434   5.611   6.764  0.7741  0.6298  0.2909
  776MOL0     H 4732   6.424   5.835   6.963 -0.2829  1.4257 -0.0881
  776MOL0     H 4733   6.557   5.785   6.850 -0.0103  3.1777 -0.2857
  776MOL0     H 4734   6.290   5.852   6.716 -0.2449  0.6627  0.1307
  776MOL0     H 4735   6.441   5.818   6.653 -1.6292 -0.4155 -0.9199
  776MOL0     H 4736   6.330   6.063   6.666  1.0149 -0.0733 -1.8882
  776MOL0     H 4737   6.419   6.066   6.824 -0.1211  2.5199 -0.9656
  776MOL0     H 4738   6.630   6.026   6.699  1.7574  1.0709 -1.7503
  776MOL0     H 4739   6.550   6.167   6.648 -3.1812 -0.0613 -2.0552
  776MOL0     H 4740   6.450   5.981   6.470  1.9282 -2.1684 -2.6407
  776MOL0     H 4741   6.615   5.929   6.494 -1.1315 -0.4366 -1.8089
  776MOL0     H 4742   6.809   5.543   7.052 -0.3202  1.6507 -0.4144
  776MOL0     H 4743   7.050   5.470   7.041  0.6461  0.6551 -1.5016
  776MOL0     H 4744   7.398   5.157   6.835  0.2592 -4.3927  0.0320
  776MOL0     H 4745   7.543   5.040   6.683 -1.2973 -0.2555  0.3693
  776MOL0     H 4746   9.198   4.479   6.861 -2.3637  2.6840 -0.2839
  776MOL0     H 4747   9.387   4.319   6.824  0.1186  0.1661 -0.0284
  776MOL0     H 4748   9.747   4.213   6.711  0.0800  2.1622  0.5363
  776MOL0     H 4749  10.006   4.213   6.721  1.0708  2.6610 -0.5024
  776MOL0     H 4750  10.143   4.477   6.471 -0.6766 -0.8877 -0.8661
  776MOL0     H 4751  10.241   4.438   6.618  4.0164 -1.2960 -0.7818
  776MOL0     H 4752  10.404   4.500   6.451  1.3597 -0.3501 -1.5594
  776MOL0     H 4753  10.318   4.403   6.335 -0.4586  0.9965 -0.5221
  776MOL0     H 4754  10.531   4.316   6.415 -1.5693  3.0746 -2.9474
  776MOL0     H 4755  10.405   4.204   6.419  2.6827  0.0074 -1.1769
  776MOL0     H 4756  10.412   4.176   6.650 -4.4482  2.7757 -0.5241
  776MOL0     H 4757  10.443   4.344   6.678 -1.9132 -2.1052  1.0875
  776MOL0     H 4758  10.826   4.157   6.680  2.1874  4.1102 -0.0402
  776MOL0     H 4759  10.022   4.288   6.311  0.1652  1.2978  0.5262
  776MOL0     H 4760   9.765   4.279   6.289 -0.5261  1.1754  0.0208
  777MOL0     O 4761   0.582   5.900   0.524  0.1205  0.3659 -0.1720
  777MOL0     C 4762   0.696   5.903   0.569 -0.2993 -0.0836  0.1087
  777MOL0     O 4763   0.733   5.982   0.684 -0.9208 -0.6294  0.0176
  777MOL0     C 4764   0.638   6.033   0.771 -0.0697  0.1928  0.3913
  777MOL0     C 4765   0.605   5.958   0.878 -0.3396  0.6669  0.0171
  777MOL0     C 4766   0.512   6.005   0.975 -0.0696  0.7354 -0.4955
  777MOL0     C 4767   0.462   6.136   0.975 -0.7725  1.1171  0.0877
  777MOL0     O 4768   0.384   6.175   1.080 -0.0282 -0.8828  0.5563
  777MOL0     C 4769   0.455   6.211   1.196 -0.1069  0.3497 -1.0898
  777MOL0     C 4770   0.518   6.343   1.194 -0.1053  0.1287  0.2764
  777MOL0     C 4771   0.421   6.463   1.183 -0.5902 -0.4432 -0.2110
  777MOL0     C 4772   0.503   6.594   1.150 -0.0009 -0.2291  0.1011
  777MOL0     C 4773   0.430   6.727   1.189  0.6065 -0.3136  0.3522
  777MOL0     C 4774   0.305   6.765   1.099  1.3656 -0.7571 -0.8047
  777MOL0     C 4775   0.343   6.792   0.952 -0.4723  1.1554 -0.1913
  777MOL0     C 4776   0.389   6.931   0.906  0.1568  0.4270  0.2374
  777MOL0     N 4777   0.279   7.027   0.928  0.5003 -0.4011  0.6333
  777MOL0     C 4778   0.150   7.014   0.893 -0.4191  0.8081 -0.6293
  777MOL0     C 4779   0.087   7.126   0.938  0.2584 -0.4701 -0.2843
  777MOL0     C 4780  -0.060   7.161   0.911  0.0193 -0.0716 -0.1792
  777MOL0     C 4781  -0.092   7.309   0.956  0.1160  0.0783  0.5089
  777MOL0     C 4782  -0.220   7.357   0.890  0.8283 -0.5148 -0.9867
  777MOL0     C 4783  -0.339   7.263   0.901  0.1401 -1.0196 -0.4853
  777MOL0     O 4784  -0.386   7.250   1.037  0.1782  0.6868 -0.4611
  777MOL0     C 4785  -0.525   7.257   1.059  0.8093  0.3982 -0.3172
  777MOL0     C 4786  -0.629   7.290   0.974 -0.8850  0.4725  0.2985
  777MOL0     C 4787  -0.756   7.308   1.021 -0.1737 -0.1686  0.1878
  777MOL0     C 4788  -0.861   7.349   0.920 -0.4578 -0.4376 -0.6334
  777MOL0     C 4789  -0.796   7.275   1.151  0.5261  1.4437  0.0640
  777MOL0     C 4790  -0.931   7.266   1.212  0.0944  0.8192  0.5505
  777MOL0     O 4791  -1.037   7.300   1.128  0.1731 -0.0623 -0.0257
  777MOL0     C 4792  -1.159   7.244   1.146 -0.0949 -0.3453 -0.1865
  777MOL0     C 4793  -1.269   7.304   1.205 -0.8024  0.5541  0.0457
  777MOL0     C 4794  -1.385   7.243   1.237 -0.2325  0.6954  0.0485
  777MOL0     C 4795  -1.400   7.107   1.209 -0.4055  0.8416  0.2203
  777MOL0     O 4796  -1.522   7.048   1.250  0.2305  1.0162 -0.6701
  777MOL0     C 4797  -1.551   6.922   1.202  0.1094  0.0510 -0.2165
  777MOL0     C 4798  -1.697   6.891   1.231 -0.6501  0.5395  0.6468
  777MOL0     C 4799  -1.723   6.896   1.385 -0.4199 -0.3406  0.4589
  777MOL0     C 4800  -1.675   6.771   1.469  0.0294  1.1113  0.0506
  777MOL0     C 4801  -1.774   6.662   1.450 -0.5173  0.2696  0.2125
  777MOL0     C 4802  -1.736   6.535   1.516 -0.0772 -0.0726  0.1060
  777MOL0     C 4803  -1.846   6.432   1.489  0.4237  0.7595 -0.0823
  777MOL0     C 4804  -1.805   6.306   1.561 -0.0650 -0.4957  0.3690
  777MOL0    Cl 4805  -1.712   6.212   1.451 -0.5994 -0.4242 -0.5242
  777MOL0     C 4806  -1.286   7.040   1.155  0.1064  0.5797  0.3024
  777MOL0     C 4807  -1.166   7.105   1.115  0.3787  0.0361  0.4832
  777MOL0     O 4808  -0.943   7.216   1.322 -0.2294 -0.5311 -0.0940
  777MOL0     C 4809  -0.690   7.246   1.242  0.0140  0.0409 -0.5159
  777MOL0     C 4810  -0.557   7.240   1.198 -0.1538 -0.6121  0.6274
  777MOL0     N 4811   0.175   7.200   1.012  0.1637  0.5301  0.5882
  777MOL0     N 4812   0.291   7.142   1.001  0.3397 -0.2791 -0.2755
  777MOL0     C 4813   0.481   6.198   0.856 -0.0800 -1.2063 -0.0370
  777MOL0     C 4814   0.569   6.153   0.750  1.2631 -0.1684 -0.7993
  777MOL0     C 4815   0.808   5.851   0.490 -0.3942 -0.5481 -0.4963
  777MOL0     C 4816   0.788   5.785   0.364  0.5082 -0.4193 -0.0249
  777MOL0     C 4817   0.893   5.735   0.287 -0.2919 -0.2820  0.1529
  777MOL0     C 4818   1.022   5.746   0.337  0.3758  0.0156  0.4227
  777MOL0     O 4819   1.118   5.697   0.250 -0.4529  0.5420 -0.7509
  777MOL0     C 4820   1.227   5.635   0.319  0.0242 -0.4969  0.3627
  777MOL0     C 4821   1.307   5.548   0.219 -0.0449 -0.4117  0.2753
  777MOL0     C 4822   1.217   5.436   0.164  0.0166 -0.7008 -0.6072
  777MOL0     C 4823   1.205   5.323   0.267  0.6676  0.1316  0.0303
  777MOL0     C 4824   1.109   5.223   0.229  0.0198 -0.9573  0.0603
  777MOL0     C 4825   1.022   5.141   0.202 -0.4132 -0.2385 -0.6095
  777MOL0     C 4826   1.047   5.826   0.451 -0.0926  0.1639  0.2237
  777MOL0     C 4827   0.939   5.864   0.532  0.3944 -0.1257 -0.0305
  777MOL0     H 4828   0.652   5.861   0.884 -0.1273  0.8172  1.0287
  777MOL0     H 4829   0.490   5.939   1.059  2.1243 -0.6582 -0.9479
  777MOL0     H 4830   0.381   6.201   1.276 -0.7782 -1.1164 -1.8528
  777MOL0     H 4831   0.532   6.140   1.227 -0.8798 -1.0991 -2.3583
  777MOL0     H 4832   0.572   6.356   1.288  0.1326 -1.6410  0.4113
  777MOL0     H 4833   0.594   6.343   1.116 -0.4603 -1.0093 -0.0941
  777MOL0     H 4834   0.337   6.444   1.116 -0.3397 -1.0409 -0.3692
  777MOL0     H 4835   0.368   6.474   1.278 -0.2731 -1.4982  0.1073
  777MOL0     H 4836   0.593   6.572   1.208 -0.3849  1.0901  1.2632
  777MOL0     H 4837   0.535   6.603   1.046  1.0070  0.6518  0.4767
  777MOL0     H 4838   0.397   6.716   1.293 -2.2615 -1.7317 -0.6199
  777MOL0     H 4839   0.500   6.809   1.169 -0.0253  0.7768  2.2913
  777MOL0     H 4840   0.229   6.687   1.092  0.4800  0.0461 -0.4848
  777MOL0     H 4841   0.262   6.860   1.133  1.5311  0.2520 -3.2042
  777MOL0     H 4842   0.411   6.715   0.915 -0.0424  1.1368  0.6273
  777MOL0     H 4843   0.256   6.762   0.893 -1.3440 -0.0697  1.6376
  777MOL0     H 4844   0.418   6.926   0.800 -0.2242 -0.9431  0.1857
  777MOL0     H 4845   0.486   6.956   0.948  1.7675 -1.5679 -1.9956
  777MOL0     H 4846   0.108   6.933   0.835 -0.6775  0.6412 -0.2117
  777MOL0     H 4847  -0.078   7.154   0.803 -0.5931 -3.0572  0.0372
  777MOL0     H 4848  -0.119   7.083   0.959  1.3681 -0.9955  0.0305
  777MOL0     H 4849  -0.013   7.379   0.929 -0.0302 -0.2243 -0.7870
  777MOL0     H 4850  -0.099   7.300   1.065  0.0328  2.1888  0.7167
  777MOL0     H 4851  -0.201   7.369   0.783  1.6924 -2.5898 -1.1092
  777MOL0     H 4852  -0.258   7.453   0.927  1.1140 -0.9136  0.4097
  777MOL0     H 4853  -0.299   7.163   0.882  1.2071 -1.4635  3.2455
  777MOL0     H 4854  -0.419   7.293   0.833  1.1223 -0.2867 -1.3266
  777MOL0     H 4855  -0.620   7.301   0.866 -1.0242 -1.1923  0.0959
  777MOL0     H 4856  -0.922   7.434   0.951  0.3993  0.9736 -2.5922
  777MOL0     H 4857  -0.823   7.367   0.819 -0.4815  1.5606 -0.3377
  777MOL0     H 4858  -0.932   7.267   0.907 -0.0385 -1.3482  2.2337
  777MOL0     H 4859  -1.259   7.409   1.230  0.9333  0.5787 -0.6393
  777MOL0     H 4860  -1.467   7.295   1.287 -3.2429 -1.6105 -2.1248
  777MOL0     H 4861  -1.529   6.909   1.096  1.3689 -1.0053  0.1358
  777MOL0     H 4862  -1.495   6.849   1.263  0.7002 -1.0222 -1.9824
  777MOL0     H 4863  -1.772   6.957   1.186 -0.6561  1.2362  1.6407
  777MOL0     H 4864  -1.719   6.788   1.203  1.4005  0.0033  0.8640
  777MOL0     H 4865  -1.824   6.927   1.414 -0.7466 -1.2223  0.3068
  777MOL0     H 4866  -1.652   6.967   1.428  0.0851 -2.6027  3.7625
  777MOL0     H 4867  -1.574   6.742   1.440  0.0654  1.7279 -0.4514
  777MOL0     H 4868  -1.691   6.797   1.574 -3.3375  2.9982 -0.7679
  777MOL0     H 4869  -1.798   6.653   1.343  2.7954 -0.2900 -0.6064
  777MOL0     H 4870  -1.869   6.689   1.495  0.3612 -1.5689  3.4916
  777MOL0     H 4871  -1.642   6.496   1.478 -0.0664  1.6499 -1.8504
  777MOL0     H 4872  -1.729   6.542   1.625 -2.6237 -0.9114  0.3885
  777MOL0     H 4873  -1.857   6.408   1.383  2.2468 -1.1038  0.0870
  777MOL0     H 4874  -1.933   6.481   1.533 -0.8428  1.8616 -3.5109
  777MOL0     H 4875  -1.900   6.256   1.585  0.5426 -2.0533 -0.3173
  777MOL0     H 4876  -1.762   6.329   1.659 -0.7176  3.1164 -0.0766
  777MOL0     H 4877  -1.282   6.935   1.128 -2.4395  0.8202 -1.2969
  777MOL0     H 4878  -1.070   7.061   1.089  1.6965  3.5154 -1.1099
  777MOL0     H 4879  -0.706   7.243   1.350 -2.5207  3.8376 -0.5656
  777MOL0     H 4880  -0.484   7.205   1.271  1.1231 -2.7087 -1.4851
  777MOL0     H 4881   0.439   6.298   0.845  0.6144 -1.0361 -1.2127
  777MOL0     H 4882   0.572   6.214   0.661 -0.8236  1.4611  0.1442
  777MOL0     H 4883   0.691   5.762   0.321 -0.0121 -0.3314  1.0753
  777MOL0     H 4884   0.877   5.685   0.192  2.1585 -2.2724  0.6689
  777MOL0     H 4885   1.291   5.722   0.340 -2.2845  2.1955 -2.6728
  777MOL0     H 4886   1.200   5.580   0.409 -1.4867  1.9455  1.5040
  777MOL0     H 4887   1.395   5.518   0.276  0.9712  1.8284  0.0137
  777MOL0     H 4888   1.344   5.607   0.134 -0.9809 -2.5950 -1.7693
  777MOL0     H 4889   1.257   5.394   0.071 -3.4749 -0.5855 -2.3265
  777MOL0     H 4890   1.121   5.479   0.134  0.9982 -0.0758 -3.1000
  777MOL0     H 4891   1.172   5.382   0.354 -3.5016 -1.1685 -0.4544
  777MOL0     H 4892   1.302   5.283   0.296  0.4003 -0.8506 -0.3714
  777MOL0     H 4893   0.943   5.070   0.189  0.5872 -2.0697  2.3303
  777MOL0     H 4894   1.146   5.845   0.490 -0.3597  2.0632  0.0441
  777MOL0     H 4895   0.973   5.906   0.627  0.8849  1.8206 -1.0150
  778MOL0     O 4896   6.250   7.479   2.907  0.0774  1.0151  0.1276
  778MOL0     C 4897   6.283   7.358   2.901 -0.6280 -0.0413  0.1132
  778MOL0     O 4898   6.387   7.294   2.959  0.0170  0.0656  0.4471
  778MOL0     C 4899   6.461   7.364   3.052  0.4903  0.1807 -0.3817
  778MOL0     C 4900   6.414   7.469   3.140  0.3204  0.0383  0.3612
  778MOL0     C 4901   6.497   7.514   3.240 -0.4744  0.7421  0.4580
  778MOL0     C 4902   6.630   7.480   3.247 -0.0855 -0.0981 -1.0204
  778MOL0     O 4903   6.716   7.547   3.340 -0.0285  0.5843 -0.0145
  778MOL0     C 4904   6.730   7.480   3.463  1.0711  0.1815 -0.2469
  778MOL0     C 4905   6.617   7.498   3.563  0.8594  0.2012 -0.1187
  778MOL0     C 4906   6.631   7.422   3.703  0.0962  0.0444  1.0936
  778MOL0     C 4907   6.524   7.475   3.802  0.6041 -1.2053 -0.5842
  778MOL0     C 4908   6.541   7.402   3.932 -0.0660  0.3006 -0.0348
  778MOL0     C 4909   6.419   7.427   4.014  0.1769 -0.5374  0.0387
  778MOL0     C 4910   6.413   7.330   4.131 -0.0975  0.0269 -0.2894
  778MOL0     C 4911   6.289   7.340   4.226 -0.3947  0.2615 -0.1736
  778MOL0     N 4912   6.293   7.231   4.328  0.0343  0.9373 -0.0738
  778MOL0     C 4913   6.238   7.240   4.452 -0.1979  0.1585  0.2662
  778MOL0     C 4914   6.240   7.108   4.491 -0.5014  0.0618  1.0834
  778MOL0     C 4915   6.186   7.072   4.625  0.4131 -0.0129 -0.3261
  778MOL0     C 4916   6.029   7.054   4.618 -0.7636 -0.2770 -0.0012
  778MOL0     C 4917   5.957   7.073   4.745  0.2165  0.1561  0.5933
  778MOL0     C 4918   5.810   7.038   4.742  0.4176 -0.0715 -0.6110
  778MOL0     O 4919   5.799   6.898   4.726  0.0724 -0.0091 -0.2108
  778MOL0     C 4920   5.674   6.848   4.696  0.4918  0.0894  0.6771
  778MOL0     C 4921   5.669   6.701   4.680  0.6881  0.2384  0.5861
  778MOL0     C 4922   5.544   6.645   4.646 -0.1672  0.0096 -0.1472
  778MOL0     C 4923   5.543   6.497   4.611 -0.9465  0.1671  0.0683
  778MOL0     C 4924   5.420   6.721   4.652 -0.0878 -0.0647  0.0270
  778MOL0     C 4925   5.284   6.674   4.615 -0.7325 -0.5791 -0.1849
  778MOL0     O 4926   5.177   6.760   4.609 -0.3062  0.0581  0.2601
  778MOL0     C 4927   5.054   6.705   4.586  0.2831 -0.5565  0.2184
  778MOL0     C 4928   5.022   6.676   4.451  0.1117 -0.6716 -0.5831
  778MOL0     C 4929   4.896   6.633   4.428 -0.1340  0.4175 -0.9587
  778MOL0     C 4930   4.802   6.596   4.527  0.3310  0.2948  1.1110
  778MOL0     O 4931   4.666   6.561   4.521 -0.3012  0.1527  0.0690
  778MOL0     C 4932   4.583   6.657   4.446 -0.0634  0.3507 -0.1267
  778MOL0     C 4933   4.569   6.787   4.525  0.4417  0.3529 -0.4153
  778MOL0     C 4934   4.452   6.786   4.614  0.1538  0.3520  0.3499
  778MOL0     C 4935   4.409   6.926   4.668 -0.2451 -0.4526 -0.3681
  778MOL0     C 4936   4.513   6.992   4.768 -0.2124  0.3539 -0.6318
  778MOL0     C 4937   4.583   6.900   4.870  0.5838  0.9260 -0.3448
  778MOL0     C 4938   4.640   6.980   4.992  0.1352  0.5322  0.7667
  778MOL0     C 4939   4.733   7.092   4.953 -0.9100 -0.6888 -0.7792
  778MOL0    Cl 4940   4.838   7.146   5.098 -0.1704 -0.1649 -0.0153
  778MOL0     C 4941   4.846   6.602   4.661 -0.7610 -0.8273 -0.0148
  778MOL0     C 4942   4.969   6.663   4.691 -0.3774 -0.3569 -0.0733
  778MOL0     O 4943   5.265   6.549   4.612  0.1393 -0.2141  0.7032
  778MOL0     C 4944   5.432   6.856   4.662 -0.6787  0.3011  0.3253
  778MOL0     C 4945   5.554   6.914   4.693  0.0098  0.3113 -0.9767
  778MOL0     N 4946   6.281   7.029   4.388 -0.2796  0.7985 -0.6349
  778MOL0     N 4947   6.325   7.104   4.291 -1.1124  0.2788 -0.0278
  778MOL0     C 4948   6.669   7.374   3.174 -0.0267 -0.5020  0.4714
  778MOL0     C 4949   6.587   7.311   3.080  0.4773 -0.3094 -0.5497
  778MOL0     C 4950   6.203   7.270   2.813  0.9608 -0.0879  0.4199
  778MOL0     C 4951   6.080   7.314   2.755 -0.2228 -0.2174 -0.1995
  778MOL0     C 4952   5.990   7.241   2.680  0.0544  0.6534  0.8048
  778MOL0     C 4953   6.037   7.109   2.646 -0.5521  0.7291 -0.0378
  778MOL0     O 4954   5.938   7.029   2.590  0.1357 -0.0551 -0.6449
  778MOL0     C 4955   5.951   6.892   2.584 -0.0916  1.2403  0.2101
  778MOL0     C 4956   5.889   6.827   2.713  0.1005 -0.2996 -0.0333
  778MOL0     C 4957   5.950   6.877   2.849 -0.2561 -0.5501  0.3970
  778MOL0     C 4958   5.885   6.818   2.974  0.0012 -0.4784 -0.2262
  778MOL0     C 4959   5.856   6.675   2.967 -0.2491  0.0529 -0.5321
  778MOL0     C 4960   5.838   6.553   2.947  0.0634 -0.9985  0.5451
  778MOL0     C 4961   6.168   7.066   2.689 -0.5271  0.3939  0.2739
  778MOL0     C 4962   6.246   7.147   2.770 -0.3527  1.0168  0.7678
  778MOL0     H 4963   6.312   7.506   3.138  0.2275 -0.2325 -0.3292
  778MOL0     H 4964   6.462   7.596   3.303  1.6757  1.1636  1.2009
  778MOL0     H 4965   6.749   7.375   3.439  1.4970  0.1587  0.1931
  778MOL0     H 4966   6.823   7.514   3.509  1.1744 -0.9395  0.3820
  778MOL0     H 4967   6.599   7.604   3.580  0.0790  0.1083 -0.2960
  778MOL0     H 4968   6.523   7.467   3.515 -0.0390 -1.8309  2.6722
  778MOL0     H 4969   6.619   7.314   3.692  3.5596 -0.1673 -3.1173
  778MOL0     H 4970   6.734   7.429   3.740  1.2489 -0.4908 -1.7753
  778MOL0     H 4971   6.547   7.579   3.824  0.7931 -1.7759  2.3814
  778MOL0     H 4972   6.425   7.468   3.757 -1.5255  0.6451  3.3088
  778MOL0     H 4973   6.531   7.298   3.900 -1.5606  0.9470 -1.8275
  778MOL0     H 4974   6.635   7.419   3.985  0.5023 -2.0488 -0.1962
  778MOL0     H 4975   6.412   7.533   4.040  2.1660 -0.1607 -0.7564
  778MOL0     H 4976   6.330   7.408   3.954 -2.1982  2.6846  2.2020
  778MOL0     H 4977   6.396   7.232   4.086 -2.6188 -0.5644  1.7196
  778MOL0     H 4978   6.511   7.325   4.181  0.1932 -2.4884 -0.9343
  778MOL0     H 4979   6.193   7.337   4.174 -1.2137 -0.8249  1.3464
  778MOL0     H 4980   6.300   7.433   4.283  3.8430 -0.7562  1.0333
  778MOL0     H 4981   6.209   7.331   4.503  1.4770 -0.1821  1.9857
  778MOL0     H 4982   6.233   6.978   4.655  0.5767  0.1240 -0.1553
  778MOL0     H 4983   6.216   7.153   4.692  1.8457 -2.0710  1.6650
  778MOL0     H 4984   5.998   6.952   4.594  3.1331 -1.2633 -1.7115
  778MOL0     H 4985   5.987   7.114   4.536  0.4201 -0.2545 -0.6147
  778MOL0     H 4986   5.966   7.179   4.770  2.3596 -0.1618  1.4610
  778MOL0     H 4987   6.013   7.016   4.820 -0.3889 -0.5520  0.5215
  778MOL0     H 4988   5.755   7.096   4.667 -3.3993 -1.5577  0.8188
  778MOL0     H 4989   5.763   7.065   4.836  1.2449 -1.0270  0.0995
  778MOL0     H 4990   5.756   6.638   4.695  0.1436 -0.5332  0.5911
  778MOL0     H 4991   5.646   6.463   4.618 -0.9897  0.0886  0.3588
  778MOL0     H 4992   5.483   6.444   4.687 -3.4910 -1.3833 -2.8039
  778MOL0     H 4993   5.499   6.459   4.519 -0.8941 -1.7594  0.7818
  778MOL0     H 4994   5.100   6.691   4.377 -0.2335  0.4891 -0.7344
  778MOL0     H 4995   4.860   6.643   4.326 -2.8129 -2.4854 -0.4451
  778MOL0     H 4996   4.631   6.680   4.350  1.1274  0.5666  0.4968
  778MOL0     H 4997   4.489   6.608   4.419 -0.4265  1.7061 -1.4395
  778MOL0     H 4998   4.658   6.807   4.586 -0.3810  0.7664  0.6986
  778MOL0     H 4999   4.551   6.861   4.446 -0.6391 -0.6688 -1.1542
  778MOL0     H 5000   4.470   6.709   4.690  1.3828 -1.5668 -1.7837
  778MOL0     H 5001   4.364   6.760   4.555 -0.5561  1.0963  1.0398
  778MOL0     H 5002   4.410   6.993   4.582  3.4246 -0.4449 -0.4917
  778MOL0     H 5003   4.312   6.924   4.720 -0.8043  1.7192 -1.2270
  778MOL0     H 5004   4.455   7.072   4.815  0.0741  1.1809 -1.6403
  778MOL0     H 5005   4.599   7.040   4.720  0.4217 -1.0059 -0.8998
  778MOL0     H 5006   4.517   6.821   4.906 -0.4133  1.7263 -0.3593
  778MOL0     H 5007   4.665   6.856   4.812  0.4738 -0.8606  0.7807
  778MOL0     H 5008   4.692   6.910   5.058 -0.5664  1.9699  2.9532
  778MOL0     H 5009   4.557   7.008   5.058 -0.1662  0.2097  0.5284
  778MOL0     H 5010   4.670   7.179   4.936  0.7157  0.8995  0.7699
  778MOL0     H 5011   4.800   7.069   4.869 -2.8005  1.0281 -2.8689
  778MOL0     H 5012   4.781   6.576   4.743 -0.4593 -3.0420 -0.4058
  778MOL0     H 5013   5.006   6.685   4.790 -0.0647  0.7874 -0.4240
  778MOL0     H 5014   5.346   6.922   4.673 -0.6956  0.2851  0.2854
  778MOL0     H 5015   5.578   7.020   4.705  0.5870  0.0373  0.5189
  778MOL0     H 5016   6.768   7.330   3.187  0.7449  1.5458  2.0016
  778MOL0     H 5017   6.632   7.236   3.016 -1.9085 -0.3780 -2.2813
  778MOL0     H 5018   6.050   7.414   2.785 -3.4385 -1.5084  1.2569
  778MOL0     H 5019   5.888   7.254   2.646  0.2548 -3.2977 -1.9721
  778MOL0     H 5020   5.897   6.851   2.498 -0.1673 -0.1129  0.8753
  778MOL0     H 5021   6.055   6.860   2.571 -0.1146  0.0686  2.4784
  778MOL0     H 5022   5.895   6.718   2.713  0.6256 -0.2794 -0.5408
  778MOL0     H 5023   5.784   6.857   2.715  0.0632 -0.4771  0.8937
  778MOL0     H 5024   5.940   6.986   2.845  2.0860 -0.2994 -0.2532
  778MOL0     H 5025   6.054   6.845   2.838  0.2018 -0.9779  4.4721
  778MOL0     H 5026   5.795   6.874   3.002  1.2948  1.9459 -0.6546
  778MOL0     H 5027   5.954   6.835   3.057 -1.4336  2.2384  0.5464
  778MOL0     H 5028   5.814   6.449   2.935 -5.5155  0.0768 -0.7808
  778MOL0     H 5029   6.207   6.969   2.660  1.0384  1.4209 -1.2329
  778MOL0     H 5030   6.342   7.102   2.793 -0.2621 -0.3003 -1.8150
  779MOL0     O 5031   4.810   5.647   7.089  0.2503 -0.0367  0.1617
  779MOL0     C 5032   4.895   5.570   7.138 -0.5138 -0.0598 -0.0845
  779MOL0     O 5033   4.920   5.546   7.270 -0.3109 -0.6205 -0.6710
  779MOL0     C 5034   4.804   5.572   7.343 -0.7764 -0.5009  0.6639
  779MOL0     C 5035   4.773   5.697   7.402  0.2012  0.6580  0.2403
  779MOL0     C 5036   4.663   5.722   7.479 -0.3131  0.0870 -0.4113
  779MOL0     C 5037   4.562   5.620   7.490 -0.4769  0.4576  0.3671
  779MOL0     O 5038   4.452   5.647   7.560  0.1954  0.5226  0.5782
  779MOL0     C 5039   4.329   5.590   7.519  0.1159  0.5431 -0.4472
  779MOL0     C 5040   4.287   5.472   7.611 -0.4521  0.2025 -0.0964
  779MOL0     C 5041   4.162   5.405   7.538  0.4578 -0.7208  0.0364
  779MOL0     C 5042   4.096   5.296   7.630  0.1059 -0.3205 -0.6033
  779MOL0     C 5043   3.956   5.256   7.585  0.2817 -0.0837 -0.3465
  779MOL0     C 5044   3.882   5.194   7.701 -0.2876 -0.4459  0.4022
  779MOL0     C 5045   3.752   5.128   7.658  0.0164  0.5399 -0.8012
  779MOL0     C 5046   3.641   5.226   7.624  0.1502 -0.1816 -0.5964
  779MOL0     N 5047   3.554   5.179   7.509 -0.3653 -1.0589 -1.0699
  779MOL0     C 5048   3.422   5.211   7.503 -0.0447 -0.0759 -1.2234
  779MOL0     C 5049   3.377   5.143   7.395 -0.3896 -0.2829 -0.4295
  779MOL0     C 5050   3.235   5.141   7.340 -0.1930 -0.2585  0.2522
  779MOL0     C 5051   3.204   5.273   7.259  0.3284  0.3868 -0.3148
  779MOL0     C 5052   3.194   5.253   7.107 -0.3265  0.5434 -1.0204
  779MOL0     C 5053   3.062   5.178   7.079 -0.6998 -0.4555  0.6654
  779MOL0     O 5054   3.036   5.200   6.941  0.0227 -0.2635  0.4007
  779MOL0     C 5055   2.906   5.157   6.902  0.3750 -0.6886 -0.4963
  779MOL0     C 5056   2.804   5.094   6.975 -0.2510  1.3954 -1.0026
  779MOL0     C 5057   2.678   5.062   6.920  0.4718 -0.2795 -0.1067
  779MOL0     C 5058   2.565   5.035   7.015  0.0218 -0.2906 -0.0133
  779MOL0     C 5059   2.653   5.086   6.781 -0.1839 -0.2836 -0.3681
  779MOL0     C 5060   2.523   5.071   6.707 -0.3568 -0.6994  0.3179
  779MOL0     O 5061   2.510   5.129   6.587 -0.3255  0.4064 -0.1718
  779MOL0     C 5062   2.399   5.104   6.503 -0.4420  0.0290 -0.4170
  779MOL0     C 5063   2.417   5.109   6.367 -0.2290 -0.0159  0.5547
  779MOL0     C 5064   2.306   5.078   6.282 -0.4494  0.5357 -0.2325
  779MOL0     C 5065   2.179   5.061   6.332  0.3113 -0.1910  0.1625
  779MOL0     O 5066   2.085   5.035   6.232 -0.7196  0.9162 -0.1885
  779MOL0     C 5067   1.954   5.085   6.253  0.2456 -0.0250  0.4997
  779MOL0     C 5068   1.864   5.028   6.149 -0.0851  0.7860  0.1110
  779MOL0     C 5069   1.720   5.011   6.191  0.5278  0.3128  0.0298
  779MOL0     C 5070   1.653   5.137   6.240  0.8857 -0.6505 -0.0195
  779MOL0     C 5071   1.529   5.124   6.325  0.2681  0.1851  0.0314
  779MOL0     C 5072   1.414   5.061   6.253  0.8471  0.0764  0.7516
  779MOL0     C 5073   1.298   5.075   6.348  0.7097 -0.2368 -0.8932
  779MOL0     C 5074   1.175   5.069   6.251 -0.6578 -0.1060  0.6518
  779MOL0    Cl 5075   1.041   5.074   6.364  0.1855  0.2755  0.0690
  779MOL0     C 5076   2.157   5.075   6.467  0.1067 -0.3992  0.5819
  779MOL0     C 5077   2.267   5.094   6.557  0.0093  0.9275 -0.0074
  779MOL0     O 5078   2.442   4.998   6.757  0.2440  0.8679  0.1068
  779MOL0     C 5079   2.757   5.145   6.704  0.3406 -0.0009  0.6365
  779MOL0     C 5080   2.881   5.174   6.763  0.1557  0.2801 -0.2654
  779MOL0     N 5081   3.482   5.069   7.345 -0.8171 -0.5697 -0.0694
  779MOL0     N 5082   3.583   5.083   7.421 -0.3501 -0.8058  0.0570
  779MOL0     C 5083   4.598   5.489   7.442 -0.2409 -0.1825  0.5892
  779MOL0     C 5084   4.714   5.468   7.377 -0.3572 -0.5486  0.2595
  779MOL0     C 5085   4.976   5.484   7.048  0.1510 -0.0626 -0.2527
  779MOL0     C 5086   5.025   5.359   7.093  0.3335  0.1581 -0.4938
  779MOL0     C 5087   5.102   5.272   7.013 -0.2157  0.3224 -0.8679
  779MOL0     C 5088   5.114   5.307   6.880  0.5639 -0.1408  0.1567
  779MOL0     O 5089   5.197   5.238   6.798 -1.3071 -0.4960  0.1302
  779MOL0     C 5090   5.298   5.145   6.845 -0.4838 -0.1161 -0.3859
  779MOL0     C 5091   5.422   5.139   6.752  0.5654  1.0019  0.5426
  779MOL0     C 5092   5.553   5.067   6.810  0.1070  0.8958 -0.2130
  779MOL0     C 5093   5.661   5.018   6.709  0.1214 -0.3494  0.1773
  779MOL0     C 5094   5.755   4.924   6.765  0.0098  0.5898 -1.0527
  779MOL0     C 5095   5.844   4.850   6.808  0.1773  0.5843 -0.2034
  779MOL0     C 5096   5.059   5.424   6.832 -0.4895  0.0624  0.2650
  779MOL0     C 5097   4.995   5.514   6.913  0.7203 -0.0394 -0.1239
  779MOL0     H 5098   4.853   5.767   7.381  0.3567  0.5296  0.4057
  779MOL0     H 5099   4.650   5.823   7.519 -1.5153 -0.5067  0.7943
  779MOL0     H 5100   4.253   5.668   7.526 -1.5369 -1.0038 -0.4780
  779MOL0     H 5101   4.343   5.561   7.415  4.2447 -3.3817  0.8677
  779MOL0     H 5102   4.364   5.395   7.629 -0.4304  0.1658 -0.3374
  779MOL0     H 5103   4.252   5.511   7.706 -1.2207  0.3668 -0.4424
  779MOL0     H 5104   4.086   5.480   7.511 -1.6394 -2.0171  1.9323
  779MOL0     H 5105   4.180   5.351   7.445 -1.0340 -3.2445  1.1152
  779MOL0     H 5106   4.164   5.210   7.622 -0.4911 -0.7646 -1.0294
  779MOL0     H 5107   4.079   5.338   7.729 -2.8707  1.3217 -1.6647
  779MOL0     H 5108   3.907   5.347   7.548  1.3411  0.3767 -0.6771
  779MOL0     H 5109   3.950   5.191   7.497  1.6225  0.6543 -1.0122
  779MOL0     H 5110   3.950   5.117   7.740  0.9125 -0.5686 -1.7718
  779MOL0     H 5111   3.863   5.275   7.771 -0.3764  0.7230 -0.9308
  779MOL0     H 5112   3.774   5.056   7.579 -0.3942 -1.9946  1.2425
  779MOL0     H 5113   3.726   5.075   7.750 -0.4633  1.6532 -0.2777
  779MOL0     H 5114   3.710   5.299   7.581  2.8263 -2.0835  0.2541
  779MOL0     H 5115   3.586   5.267   7.709 -1.1983  1.8480 -2.3385
  779MOL0     H 5116   3.375   5.280   7.572  0.1015 -0.8830 -0.2949
  779MOL0     H 5117   3.216   5.061   7.268 -1.0633  3.4387 -4.1136
  779MOL0     H 5118   3.159   5.134   7.418  0.4199 -1.5032  0.7656
  779MOL0     H 5119   3.290   5.339   7.276  1.9437 -1.8193  0.4696
  779MOL0     H 5120   3.113   5.320   7.296  0.6531 -0.9567  2.4417
  779MOL0     H 5121   3.283   5.200   7.072 -0.8213 -2.3845  1.7417
  779MOL0     H 5122   3.189   5.352   7.061  1.5552  0.9518 -0.4279
  779MOL0     H 5123   2.969   5.208   7.130 -1.7425 -1.2963 -0.6734
  779MOL0     H 5124   3.091   5.076   7.106  2.0250  0.4988  1.7028
  779MOL0     H 5125   2.814   5.075   7.081 -3.3738 -1.0575 -1.0042
  779MOL0     H 5126   2.502   5.124   7.024 -1.8588 -1.5234 -0.4071
  779MOL0     H 5127   2.510   4.944   6.991  1.0942 -1.1380  0.6905
  779MOL0     H 5128   2.608   5.004   7.110  0.0425 -0.6734 -0.1486
  779MOL0     H 5129   2.513   5.140   6.325 -0.2113  1.1703  1.4510
  779MOL0     H 5130   2.333   5.090   6.178 -2.1949  3.2746 -0.4523
  779MOL0     H 5131   1.917   5.043   6.346 -0.0367 -1.9513 -0.4406
  779MOL0     H 5132   1.949   5.194   6.252  0.3068 -0.0130  1.0920
  779MOL0     H 5133   1.866   5.097   6.065  0.1712 -1.0725 -1.4861
  779MOL0     H 5134   1.899   4.929   6.117 -1.3641 -0.1219  1.3567
  779MOL0     H 5135   1.714   4.929   6.263 -0.3273 -0.1738 -0.5918
  779MOL0     H 5136   1.663   4.965   6.110  2.6008  0.4279 -1.5779
  779MOL0     H 5137   1.719   5.205   6.294 -1.3661  1.3209  0.4544
  779MOL0     H 5138   1.624   5.204   6.159  0.0816 -0.4132  0.4478
  779MOL0     H 5139   1.504   5.222   6.367 -3.0456 -0.6005  0.1660
  779MOL0     H 5140   1.545   5.072   6.419  3.4501  0.5216 -0.2284
  779MOL0     H 5141   1.402   5.104   6.153  2.9164  2.2778  1.3482
  779MOL0     H 5142   1.430   4.953   6.248 -1.9078 -0.3424 -0.4992
  779MOL0     H 5143   1.298   5.169   6.404 -0.7438 -0.9050  0.2917
  779MOL0     H 5144   1.289   4.988   6.413 -0.9761  0.8934  0.4556
  779MOL0     H 5145   1.163   4.977   6.194 -2.9448  0.2185  0.5403
  779MOL0     H 5146   1.168   5.158   6.189 -2.3699 -1.4188 -1.1436
  779MOL0     H 5147   2.054   5.090   6.498  0.2343  2.7083 -0.2026
  779MOL0     H 5148   2.241   5.109   6.661 -0.6905 -0.7370  0.0883
  779MOL0     H 5149   2.743   5.163   6.598  0.4843 -3.8820 -0.1967
  779MOL0     H 5150   2.956   5.221   6.700 -0.4526  1.3440 -0.2272
  779MOL0     H 5151   4.523   5.415   7.469  1.4189 -1.8401  0.8567
  779MOL0     H 5152   4.731   5.373   7.327 -0.3655 -0.2377 -0.3341
  779MOL0     H 5153   5.012   5.333   7.197 -2.2242  1.8837 -0.2739
  779MOL0     H 5154   5.143   5.179   7.051  0.7601  1.8516  2.2719
  779MOL0     H 5155   5.333   5.175   6.944  0.4110  0.3768 -0.8287
  779MOL0     H 5156   5.258   5.045   6.862  3.7814 -1.8773  0.6477
  779MOL0     H 5157   5.437   5.243   6.721 -1.5692  1.0774 -0.3975
  779MOL0     H 5158   5.390   5.094   6.658  3.4054  0.1632 -0.1337
  779MOL0     H 5159   5.518   4.983   6.870 -2.6964  1.8539 -0.3677
  779MOL0     H 5160   5.602   5.130   6.885 -1.2032  0.7602  0.8034
  779MOL0     H 5161   5.715   5.105   6.671  3.4170 -2.2247  0.0958
  779MOL0     H 5162   5.608   4.962   6.632 -0.9478 -3.4255  2.8835
  779MOL0     H 5163   5.918   4.794   6.860  1.0056  1.1466 -0.7537
  779MOL0     H 5164   5.076   5.451   6.728  1.6807  1.9823  1.0216
  779MOL0     H 5165   4.954   5.605   6.870 -4.5968 -2.0763 -0.1084
  780MOL0     O 5166  11.166   6.470   4.269  0.0485 -0.2148  0.5864
  780MOL0     C 5167  11.128   6.367   4.201  0.1852 -0.2024 -0.3937
  780MOL0     O 5168  11.020   6.354   4.132 -0.7081  0.4884  0.1901
  780MOL0     C 5169  10.932   6.460   4.148 -0.2295  0.4746 -0.5347
  780MOL0     C 5170  10.817   6.431   4.229  0.2761 -0.0779  0.9093
  780MOL0     C 5171  10.734   6.535   4.265 -0.4435 -0.1438  0.5416
  780MOL0     C 5172  10.760   6.667   4.210  0.0186 -0.1558 -1.8705
  780MOL0     O 5173  10.681   6.771   4.243  0.1305  0.5342  0.2727
  780MOL0     C 5174  10.665   6.807   4.385  0.7443  0.3810  0.0426
  780MOL0     C 5175  10.582   6.934   4.407 -0.9267  0.3251  0.5799
  780MOL0     C 5176  10.435   6.903   4.374  0.6424  0.6198 -0.1752
  780MOL0     C 5177  10.361   7.038   4.388 -0.3163 -0.2086 -0.1620
  780MOL0     C 5178  10.212   7.024   4.345 -0.1208 -0.3306  0.7699
  780MOL0     C 5179  10.113   6.997   4.453  0.6440  0.0275 -0.2686
  780MOL0     C 5180   9.978   6.935   4.390  0.1477  1.2632 -0.3364
  780MOL0     C 5181   9.913   7.035   4.290  0.1275 -0.5131  0.3491
  780MOL0     N 5182   9.776   7.021   4.248  0.1899 -0.2164 -1.1720
  780MOL0     C 5183   9.668   7.039   4.332  0.4985  0.5715 -0.2232
  780MOL0     C 5184   9.559   7.010   4.252  0.3719  0.0307  0.9031
  780MOL0     C 5185   9.419   7.024   4.302  0.7504  0.5345 -0.3634
  780MOL0     C 5186   9.334   7.090   4.209  0.4228  0.2446 -0.3236
  780MOL0     C 5187   9.187   7.102   4.252  0.2445 -0.2152  1.1470
  780MOL0     C 5188   9.094   7.157   4.131  0.3987  0.4596  0.3437
  780MOL0     O 5189   8.967   7.128   4.184 -0.6911  0.7958  0.2304
  780MOL0     C 5190   8.856   7.156   4.119  0.0740  0.4735  0.0483
  780MOL0     C 5191   8.752   7.208   4.193 -0.0165 -0.2744 -0.8594
  780MOL0     C 5192   8.615   7.236   4.147 -0.2331 -0.2120 -0.2966
  780MOL0     C 5193   8.527   7.303   4.251 -0.4128 -0.2643 -0.6926
  780MOL0     C 5194   8.586   7.189   4.016 -0.1521  0.2679 -0.3026
  780MOL0     C 5195   8.460   7.210   3.951 -0.0407  0.5481 -0.0930
  780MOL0     O 5196   8.438   7.122   3.853 -0.0799 -0.1466 -0.0968
  780MOL0     C 5197   8.326   7.132   3.783 -0.0967  0.0429 -0.0080
  780MOL0     C 5198   8.340   7.113   3.649 -0.2091 -0.5525 -0.1441
  780MOL0     C 5199   8.233   7.099   3.565  0.1812 -0.1123  0.1630
  780MOL0     C 5200   8.096   7.115   3.612 -0.5395 -0.2249  0.0345
  780MOL0     O 5201   7.988   7.107   3.523  0.8726  0.4205 -1.0791
  780MOL0     C 5202   7.932   7.237   3.485  1.2218 -0.3031  0.4679
  780MOL0     C 5203   7.825   7.213   3.364 -0.3878  1.8279 -0.8826
  780MOL0     C 5204   7.692   7.170   3.421 -0.2611  0.0672  0.0940
  780MOL0     C 5205   7.614   7.076   3.342 -0.3579  0.3064  0.2519
  780MOL0     C 5206   7.574   7.128   3.204  1.1998 -0.0919  0.3469
  780MOL0     C 5207   7.503   7.018   3.115 -0.0538 -0.1841 -0.4166
  780MOL0     C 5208   7.463   7.067   2.980 -0.6514  0.7432  0.7321
  780MOL0     C 5209   7.403   6.949   2.910  0.0243 -0.4048  0.4571
  780MOL0    Cl 5210   7.346   6.988   2.738  0.4240  0.2307  0.3195
  780MOL0     C 5211   8.088   7.126   3.752 -0.4829 -1.2450 -0.0616
  780MOL0     C 5212   8.195   7.146   3.835 -0.0159 -0.1221 -0.0213
  780MOL0     O 5213   8.385   7.297   3.998 -0.1571 -0.0023  0.2544
  780MOL0     C 5214   8.691   7.118   3.942  0.0927 -0.7545  0.1560
  780MOL0     C 5215   8.817   7.106   3.995  0.3432  0.0045 -0.4002
  780MOL0     N 5216   9.602   6.967   4.128 -0.7678 -0.7963  0.0356
  780MOL0     N 5217   9.731   6.994   4.119  0.8370 -0.3073  0.1501
  780MOL0     C 5218  10.865   6.692   4.124  0.4256 -0.1343  0.6504
  780MOL0     C 5219  10.956   6.592   4.095 -0.5321  0.2121  0.3760
  780MOL0     C 5220  11.205   6.249   4.231 -0.1940 -0.5748 -0.1117
  780MOL0     C 5221  11.315   6.252   4.316 -0.7625  0.0323  0.6223
  780MOL0     C 5222  11.387   6.134   4.354 -0.1221 -0.4593 -0.3904
  780MOL0     C 5223  11.343   6.007   4.307 -0.3523 -0.6736 -0.2125
  780MOL0     O 5224  11.401   5.879   4.345  0.7158 -0.2190  0.0172
  780MOL0     C 5225  11.527   5.890   4.396 -0.7831  0.0950 -0.2917
  780MOL0     C 5226  11.588   5.750   4.413 -0.5869  0.4500 -0.0862
  780MOL0     C 5227  11.615   5.673   4.278 -0.3198 -0.3916 -0.2111
  780MOL0     C 5228  11.693   5.546   4.312 -0.7650 -0.1245  0.4224
  780MOL0     C 5229  11.677   5.454   4.201 -0.6418 -0.1117  0.1023
  780MOL0     C 5230  11.679   5.385   4.102 -0.2667  0.5134  0.9053
  780MOL0     C 5231  11.228   6.004   4.227  0.6292  0.5131 -0.1384
  780MOL0     C 5232  11.165   6.120   4.184  0.5002 -0.4034 -0.3178
  780MOL0     H 5233  10.796   6.331   4.267  4.0340 -1.8289 -1.0472
  780MOL0     H 5234  10.655   6.523   4.339  1.0890  0.1745  2.3234
  780MOL0     H 5235  10.605   6.730   4.433 -1.8060  0.7331 -2.3441
  780MOL0     H 5236  10.767   6.816   4.424  1.3664  0.0346 -1.4252
  780MOL0     H 5237  10.584   6.962   4.513  3.2731  1.1441  0.4451
  780MOL0     H 5238  10.628   7.016   4.350 -2.2124 -1.3517 -3.2012
  780MOL0     H 5239  10.434   6.851   4.277 -1.2907 -1.4607  0.8743
  780MOL0     H 5240  10.392   6.824   4.436 -0.3087  0.5529 -0.8888
  780MOL0     H 5241  10.369   7.072   4.491  1.1056 -1.5287  0.1859
  780MOL0     H 5242  10.404   7.114   4.322 -1.4202  0.7827  0.2115
  780MOL0     H 5243  10.200   7.120   4.294  2.5926  0.0943  0.7842
  780MOL0     H 5244  10.201   6.956   4.261  4.5079 -0.6547  0.1906
  780MOL0     H 5245  10.155   6.935   4.532  0.7978 -0.8134 -0.9952
  780MOL0     H 5246  10.092   7.093   4.502  2.1877  1.0210 -1.4478
  780MOL0     H 5247   9.993   6.841   4.336  4.0791  2.3962 -1.5848
  780MOL0     H 5248   9.904   6.905   4.464 -1.4957  0.2808 -2.2979
  780MOL0     H 5249   9.971   7.025   4.197 -1.4297  3.0785 -1.1681
  780MOL0     H 5250   9.933   7.136   4.327  1.9520 -1.4829  2.2185
  780MOL0     H 5251   9.671   7.087   4.430 -3.0763  0.2382  0.1946
  780MOL0     H 5252   9.385   6.924   4.331 -2.4561  0.8824 -2.3985
  780MOL0     H 5253   9.422   7.087   4.392  0.7171  0.9822 -0.6728
  780MOL0     H 5254   9.336   7.035   4.114  1.8720  0.7479 -0.5974
  780MOL0     H 5255   9.376   7.190   4.192  1.1876 -0.2916 -1.7972
  780MOL0     H 5256   9.175   7.178   4.330  1.9771  1.2773  0.0407
  780MOL0     H 5257   9.160   7.003   4.291  4.3152 -2.2386 -0.6069
  780MOL0     H 5258   9.114   7.092   4.045 -1.1205 -2.8024  2.2712
  780MOL0     H 5259   9.116   7.264   4.125 -3.2224  1.4830  2.5592
  780MOL0     H 5260   8.779   7.228   4.297  1.4602 -3.0477 -0.6092
  780MOL0     H 5261   8.548   7.411   4.255 -1.2151 -0.1341  2.2385
  780MOL0     H 5262   8.420   7.291   4.231 -0.4026  0.3225 -1.1401
  780MOL0     H 5263   8.532   7.252   4.347  0.1159  0.1139 -0.5151
  780MOL0     H 5264   8.438   7.107   3.603 -0.7752 -1.2856 -1.3019
  780MOL0     H 5265   8.252   7.093   3.458 -3.5241  1.1534 -0.7182
  780MOL0     H 5266   7.878   7.289   3.565  0.6069  0.0612 -0.1834
  780MOL0     H 5267   8.010   7.302   3.444 -1.7401  2.9440 -0.4506
  780MOL0     H 5268   7.806   7.309   3.315  0.1094  2.9500  1.0329
  780MOL0     H 5269   7.867   7.148   3.286  0.9113 -0.4650  1.5809
  780MOL0     H 5270   7.627   7.249   3.461 -1.7892 -3.0162  4.5005
  780MOL0     H 5271   7.715   7.126   3.519  2.2249 -0.2276 -0.5734
  780MOL0     H 5272   7.675   6.985   3.335 -0.2454  0.4699 -1.6519
  780MOL0     H 5273   7.525   7.038   3.392 -0.1215  0.8638  1.1187
  780MOL0     H 5274   7.654   7.168   3.141  1.1715 -1.3311 -0.5175
  780MOL0     H 5275   7.509   7.214   3.222  2.6314  1.1297 -0.1604
  780MOL0     H 5276   7.557   6.923   3.111  2.6129  1.2672 -1.9243
  780MOL0     H 5277   7.407   6.999   3.163  1.3561  0.8406  3.1726
  780MOL0     H 5278   7.548   7.099   2.919 -2.0519  2.1860 -0.5589
  780MOL0     H 5279   7.389   7.145   2.994 -1.1202  0.8507 -1.8115
  780MOL0     H 5280   7.317   6.900   2.956  1.1853 -2.2454  0.7601
  780MOL0     H 5281   7.473   6.865   2.904  3.2254  2.1141 -1.4598
  780MOL0     H 5282   7.989   7.142   3.794  0.1841  2.5599  0.3475
  780MOL0     H 5283   8.176   7.166   3.940 -3.6560  1.5003 -0.8177
  780MOL0     H 5284   8.677   7.077   3.843 -2.3131  1.8910 -0.7285
  780MOL0     H 5285   8.882   7.044   3.934  0.0560 -0.6249 -0.0837
  780MOL0     H 5286  10.860   6.790   4.079 -0.6735 -0.4177  0.0934
  780MOL0     H 5287  11.042   6.612   4.031 -0.4132  1.9657  1.0133
  780MOL0     H 5288  11.334   6.349   4.362 -1.3085  1.7960 -2.5396
  780MOL0     H 5289  11.477   6.149   4.413 -0.2045 -1.4057 -0.0012
  780MOL0     H 5290  11.589   5.957   4.337 -0.2585  0.6235  0.8184
  780MOL0     H 5291  11.511   5.945   4.489  1.0598  3.3655 -1.7399
  780MOL0     H 5292  11.537   5.675   4.474  4.0708 -1.8463  1.3983
  780MOL0     H 5293  11.686   5.775   4.455 -0.6950  1.6828 -0.5118
  780MOL0     H 5294  11.672   5.728   4.202 -0.5572 -0.3693 -0.3745
  780MOL0     H 5295  11.521   5.648   4.228 -0.9928  0.2264  0.7204
  780MOL0     H 5296  11.649   5.496   4.399  1.3461 -0.5633  1.3305
  780MOL0     H 5297  11.800   5.561   4.331 -0.8124 -0.5740  1.0683
  780MOL0     H 5298  11.681   5.337   4.007  1.2020 -0.1406  1.2442
  780MOL0     H 5299  11.190   5.907   4.195 -0.9779  0.8222  0.7621
  780MOL0     H 5300  11.075   6.129   4.125  1.3130  0.8027 -1.4243
  781MOL0     O 5301   4.682  10.271   8.583  0.1683 -0.1490  0.6568
  781MOL0     C 5302   4.738  10.360   8.646 -0.9610 -0.1548  0.0409
  781MOL0     O 5303   4.669  10.461   8.713 -0.0079 -0.6234  0.1972
  781MOL0     C 5304   4.528  10.460   8.716  0.1483  0.2343 -0.2357
  781MOL0     C 5305   4.449  10.565   8.669  0.3636 -0.2230 -0.1426
  781MOL0     C 5306   4.310  10.571   8.690  0.0310 -0.2033 -0.5999
  781MOL0     C 5307   4.242  10.474   8.749 -0.4202  0.3349  0.0896
  781MOL0     O 5308   4.109  10.498   8.767  0.6477 -0.2023 -0.1136
  781MOL0     C 5309   4.034  10.392   8.839 -0.0027 -1.0972  0.3048
  781MOL0     C 5310   3.901  10.446   8.879 -0.3517  0.1319  0.8386
  781MOL0     C 5311   3.906  10.561   8.983  0.1788 -0.4366  0.2065
  781MOL0     C 5312   3.776  10.642   9.002 -0.1932  0.1278  0.2911
  781MOL0     C 5313   3.662  10.566   9.073  0.3523 -0.5728 -1.2553
  781MOL0     C 5314   3.538  10.652   9.085  0.2577 -0.8724  0.0595
  781MOL0     C 5315   3.420  10.575   9.138 -0.3308  0.2732  0.5228
  781MOL0     C 5316   3.296  10.656   9.162 -0.0171 -0.2353  0.2242
  781MOL0     N 5317   3.178  10.575   9.170  0.2035 -0.6212  0.1036
  781MOL0     C 5318   3.072  10.590   9.266  0.9565  0.8568 -0.7337
  781MOL0     C 5319   2.982  10.505   9.249  0.0273  0.1888 -0.0211
  781MOL0     C 5320   2.883  10.473   9.356 -0.6843 -0.1183  0.3313
  781MOL0     C 5321   2.747  10.538   9.330  0.6589 -0.1614  0.2828
  781MOL0     C 5322   2.662  10.484   9.447  0.3881  0.0923 -0.0257
  781MOL0     C 5323   2.523  10.545   9.430 -0.2901  0.3909  0.4713
  781MOL0     O 5324   2.427  10.487   9.525 -0.6731  0.0224 -0.0047
  781MOL0     C 5325   2.301  10.516   9.502 -0.6570 -1.0318  0.0275
  781MOL0     C 5326   2.261  10.636   9.432  0.2246 -0.0263  0.8303
  781MOL0     C 5327   2.127  10.660   9.420  0.7226 -0.2322  1.6733
  781MOL0     C 5328   2.092  10.796   9.348  0.0854 -0.8169 -0.0700
  781MOL0     C 5329   2.030  10.561   9.457 -0.0487  0.2558  0.6897
  781MOL0     C 5330   1.886  10.567   9.422  0.7030 -0.2351 -0.1270
  781MOL0     O 5331   1.828  10.440   9.411  0.2879  0.3002 -0.3349
  781MOL0     C 5332   1.693  10.421   9.388 -0.3002 -0.6311  0.1426
  781MOL0     C 5333   1.630  10.307   9.452 -0.2639 -0.1704  0.1654
  781MOL0     C 5334   1.486  10.304   9.452 -1.0753 -0.4535 -0.2855
  781MOL0     C 5335   1.413  10.394   9.371 -0.0107 -0.0815  0.1907
  781MOL0     O 5336   1.276  10.398   9.364  0.1522 -0.1733 -0.3714
  781MOL0     C 5337   1.202  10.279   9.333 -0.3887  0.9648 -0.1836
  781MOL0     C 5338   1.061  10.309   9.308 -0.4134  0.2185 -0.8224
  781MOL0     C 5339   0.973  10.184   9.313  0.2800 -0.4764 -0.4186
  781MOL0     C 5340   0.833  10.233   9.309 -0.5774 -0.1440 -0.3161
  781MOL0     C 5341   0.746  10.128   9.245 -0.1373  1.5489  0.0792
  781MOL0     C 5342   0.620  10.182   9.182  0.7564  0.0009  1.0274
  781MOL0     C 5343   0.589  10.092   9.061  0.1002 -0.2187  0.1903
  781MOL0     C 5344   0.437  10.096   9.023 -0.8185  0.2667  0.1765
  781MOL0    Cl 5345   0.416  10.252   8.947  0.1740 -0.4501 -0.2829
  781MOL0     C 5346   1.471  10.494   9.295  0.0816  0.2677 -0.6192
  781MOL0     C 5347   1.606  10.508   9.309 -0.1134 -0.6698 -0.3080
  781MOL0     O 5348   1.829  10.678   9.403  0.0167 -0.1937  0.4875
  781MOL0     C 5349   2.074  10.445   9.534  0.2743 -0.5414  0.1384
  781MOL0     C 5350   2.204  10.427   9.544 -0.4127 -0.2702  0.4418
  781MOL0     N 5351   3.026  10.432   9.141 -0.4392  0.1434  0.2879
  781MOL0     N 5352   3.140  10.474   9.101  0.0722 -0.5570  0.0159
  781MOL0     C 5353   4.317  10.366   8.792 -0.3432 -0.2264  0.1187
  781MOL0     C 5354   4.460  10.356   8.776 -0.0133 -0.0650 -0.2712
  781MOL0     C 5355   4.872  10.387   8.613  0.9820  1.4238 -0.4266
  781MOL0     C 5356   4.931  10.510   8.618 -0.0911 -0.1298  0.2795
  781MOL0     C 5357   5.055  10.540   8.559  0.2627 -0.6837 -0.1272
  781MOL0     C 5358   5.124  10.444   8.491  0.4453 -0.6562  0.2556
  781MOL0     O 5359   5.244  10.474   8.434 -0.4022  0.3560  0.0822
  781MOL0     C 5360   5.358  10.385   8.451 -0.4730 -0.2304  0.2302
  781MOL0     C 5361   5.380  10.301   8.316 -0.4085  0.3046 -0.7748
  781MOL0     C 5362   5.436  10.394   8.202 -0.6678  0.6942  0.5247
  781MOL0     C 5363   5.429  10.317   8.062 -0.2155 -0.1980 -0.6656
  781MOL0     C 5364   5.542  10.227   8.050 -0.0071  0.2651  0.1079
  781MOL0     C 5365   5.627  10.138   8.060  0.4250 -0.4478 -0.3527
  781MOL0     C 5366   5.063  10.312   8.492 -0.5154  0.2164 -0.3488
  781MOL0     C 5367   4.945  10.282   8.555 -0.4615 -0.0711 -0.7269
  781MOL0     H 5368   4.499  10.645   8.615 -2.3869  1.3061 -0.6348
  781MOL0     H 5369   4.250  10.660   8.675  3.1794  2.3795  0.7887
  781MOL0     H 5370   4.021  10.307   8.771  2.1484 -0.7537 -0.6243
  781MOL0     H 5371   4.074  10.366   8.937  0.2900  1.5498  0.9513
  781MOL0     H 5372   3.865  10.485   8.783 -0.8015 -3.1546 -0.4875
  781MOL0     H 5373   3.837  10.368   8.920  2.0133 -1.0060  2.6019
  781MOL0     H 5374   3.939  10.532   9.082  0.2528  0.1052  0.3450
  781MOL0     H 5375   3.984  10.627   8.945  2.1204 -2.6187  0.1902
  781MOL0     H 5376   3.802  10.722   9.073 -3.5463 -0.0549  1.8949
  781MOL0     H 5377   3.726  10.692   8.919 -1.7269  0.3617  1.3025
  781MOL0     H 5378   3.641  10.471   9.022  0.8220 -2.1666  1.3197
  781MOL0     H 5379   3.694  10.553   9.177  2.8513  0.0122 -1.8839
  781MOL0     H 5380   3.553  10.741   9.146  3.6803 -0.4794 -1.1408
  781MOL0     H 5381   3.514  10.686   8.984  0.0500 -1.9927 -0.2918
  781MOL0     H 5382   3.402  10.490   9.072  1.1112  0.3842 -0.0583
  781MOL0     H 5383   3.454  10.537   9.235  1.9330  1.1519  0.1376
  781MOL0     H 5384   3.292  10.729   9.080  1.7065 -1.4565 -1.0307
  781MOL0     H 5385   3.307  10.722   9.249  2.3621  0.6035 -0.6181
  781MOL0     H 5386   3.053  10.660   9.347 -1.0540  2.8742 -2.8206
  781MOL0     H 5387   2.871  10.364   9.359  0.6138 -0.2956  3.5269
  781MOL0     H 5388   2.926  10.498   9.454 -1.6485 -0.3582  0.8315
  781MOL0     H 5389   2.701  10.509   9.235  0.2170 -0.3613  0.5545
  781MOL0     H 5390   2.751  10.647   9.331  1.8561 -0.1732 -0.6053
  781MOL0     H 5391   2.707  10.511   9.543  1.3014 -0.0783 -0.4001
  781MOL0     H 5392   2.652  10.375   9.444 -1.0257  0.0795  2.3491
  781MOL0     H 5393   2.491  10.518   9.329 -3.3202  1.1877  1.1161
  781MOL0     H 5394   2.525  10.654   9.438  0.3034  0.4795 -0.6735
  781MOL0     H 5395   2.327  10.720   9.415 -1.2624  1.3715  1.7616
  781MOL0     H 5396   2.035  10.775   9.258  1.3415  0.1412 -1.1288
  781MOL0     H 5397   2.025  10.850   9.416  1.2143 -1.1760  1.3949
  781MOL0     H 5398   2.178  10.862   9.334 -0.9511  1.2723  2.5349
  781MOL0     H 5399   1.690  10.236   9.507 -1.4078 -3.7523 -2.7180
  781MOL0     H 5400   1.432  10.245   9.525  0.5678 -0.9922  0.5566
  781MOL0     H 5401   1.248  10.225   9.250 -2.0719 -1.6014  0.4572
  781MOL0     H 5402   1.208  10.212   9.419 -1.1696 -1.0880 -1.6441
  781MOL0     H 5403   1.020  10.383   9.377 -2.4636 -1.1766 -0.4661
  781MOL0     H 5404   1.042  10.344   9.206 -0.0269 -0.8667 -1.2714
  781MOL0     H 5405   0.987  10.129   9.406 -1.3449  0.5806  0.4843
  781MOL0     H 5406   0.994  10.114   9.232 -2.2844 -4.8677  2.3233
  781MOL0     H 5407   0.801  10.250   9.412  0.3753  0.3460 -0.0860
  781MOL0     H 5408   0.824  10.328   9.255 -3.1741 -1.2070 -1.9509
  781MOL0     H 5409   0.718  10.047   9.313 -1.1908  1.2606 -0.6642
  781MOL0     H 5410   0.797  10.069   9.167 -2.4350 -1.2692  0.5273
  781MOL0     H 5411   0.532  10.191   9.246  0.4559 -0.6094  0.7052
  781MOL0     H 5412   0.643  10.283   9.148 -1.3049  0.6002  1.2925
  781MOL0     H 5413   0.613   9.987   9.081  0.3151 -0.6533 -2.0287
  781MOL0     H 5414   0.656  10.129   8.983  2.5394 -0.0726  2.2347
  781MOL0     H 5415   0.362  10.075   9.099 -1.4249  1.1573 -0.1709
  781MOL0     H 5416   0.424  10.025   8.940  0.5955 -2.6371  2.2669
  781MOL0     H 5417   1.411  10.556   9.230 -2.6845  0.3639  1.8154
  781MOL0     H 5418   1.647  10.596   9.260  1.3857 -1.5323 -0.6467
  781MOL0     H 5419   2.008  10.371   9.577 -0.9287  0.5980  0.3070
  781MOL0     H 5420   2.233  10.335   9.593  0.1092  0.1637  0.9517
  781MOL0     H 5421   4.260  10.288   8.843 -2.9373  1.8754  0.7076
  781MOL0     H 5422   4.507  10.266   8.811  1.4972  1.2124  1.1480
  781MOL0     H 5423   4.881  10.601   8.650 -0.3415  0.8491 -2.6046
  781MOL0     H 5424   5.104  10.636   8.576 -0.8045 -0.5012  2.4458
  781MOL0     H 5425   5.437  10.460   8.458 -0.4038 -0.3335  0.5562
  781MOL0     H 5426   5.343  10.333   8.546  2.3374 -3.5667 -0.9726
  781MOL0     H 5427   5.281  10.256   8.300 -0.3852 -1.4789  2.9722
  781MOL0     H 5428   5.453  10.220   8.330 -1.2283 -0.4750 -0.8570
  781MOL0     H 5429   5.538  10.420   8.231 -0.3005  0.3853 -0.4320
  781MOL0     H 5430   5.373  10.483   8.191 -0.6415  0.6601  0.0833
  781MOL0     H 5431   5.444  10.389   7.981  0.0165  0.1826 -0.2881
  781MOL0     H 5432   5.331  10.271   8.052 -0.6814  0.8286 -0.9939
  781MOL0     H 5433   5.699  10.060   8.073 -2.3739 -3.4962 -1.4975
  781MOL0     H 5434   5.119  10.236   8.438  0.0311 -0.0500  0.5680
  781MOL0     H 5435   4.904  10.184   8.536  1.3224 -1.4924  2.1419
  782MOL0     O 5436   5.291   9.251   7.416  0.0576 -1.2317 -0.2253
  782MOL0     C 5437   5.293   9.232   7.540 -0.1514 -0.2755  0.1402
  782MOL0     O 5438   5.224   9.302   7.645  0.0235 -0.0093  0.5165
  782MOL0     C 5439   5.139   9.401   7.610  0.3876 -0.1443 -0.2290
  782MOL0     C 5440   5.017   9.365   7.563  1.1589 -0.4428  0.6587
  782MOL0     C 5441   4.919   9.458   7.532 -0.8907  0.0197 -1.0290
  782MOL0     C 5442   4.932   9.596   7.547  0.5675 -0.0948  0.3313
  782MOL0     O 5443   4.833   9.691   7.516 -0.3324  0.9192 -0.3578
  782MOL0     C 5444   4.704   9.639   7.474  0.2470  0.1527 -0.1662
  782MOL0     C 5445   4.594   9.748   7.475 -0.5052  0.0130 -0.1781
  782MOL0     C 5446   4.449   9.717   7.469  0.7449 -0.1358 -0.0252
  782MOL0     C 5447   4.363   9.836   7.493 -0.1205  0.7088  0.3401
  782MOL0     C 5448   4.216   9.807   7.451  0.0467 -0.1483  0.5743
  782MOL0     C 5449   4.133   9.930   7.485  0.3442  0.1085  0.4169
  782MOL0     C 5450   3.982   9.901   7.474  0.6729 -0.2957 -0.5419
  782MOL0     C 5451   3.906  10.024   7.503 -0.4757 -0.9559 -0.2598
  782MOL0     N 5452   3.768  10.009   7.464 -0.2861  0.9763  0.5999
  782MOL0     C 5453   3.685   9.906   7.497  0.2341 -0.3623 -0.7804
  782MOL0     C 5454   3.568   9.927   7.433  0.4924  0.3023  1.0354
  782MOL0     C 5455   3.437   9.852   7.455  1.0180 -0.3022 -0.3101
  782MOL0     C 5456   3.367   9.818   7.327 -1.1416  0.5488 -0.6735
  782MOL0     C 5457   3.265   9.709   7.350  0.4221  0.5415 -0.1599
  782MOL0     C 5458   3.131   9.774   7.396 -0.4002  0.1213 -0.2100
  782MOL0     O 5459   3.035   9.664   7.425  0.0282 -0.6973  0.7389
  782MOL0     C 5460   2.898   9.685   7.440 -0.0829  0.3302 -0.1001
  782MOL0     C 5461   2.818   9.575   7.449 -0.7175 -0.2972 -0.7176
  782MOL0     C 5462   2.682   9.584   7.446  1.0602  0.3676 -0.3550
  782MOL0     C 5463   2.592   9.463   7.461  0.1826 -0.0722 -0.0451
  782MOL0     C 5464   2.622   9.713   7.448 -0.3267 -0.6178 -0.0007
  782MOL0     C 5465   2.480   9.751   7.436  0.2768  0.3190 -0.7017
  782MOL0     O 5466   2.402   9.664   7.359  0.4802 -0.4281  0.3696
  782MOL0     C 5467   2.261   9.674   7.366 -0.4728  0.7988 -0.5564
  782MOL0     C 5468   2.181   9.780   7.317  0.0036  0.2334  0.7828
  782MOL0     C 5469   2.044   9.790   7.339  0.1682 -0.8531  0.4509
  782MOL0     C 5470   1.978   9.695   7.410  0.0492  0.2447  0.1352
  782MOL0     O 5471   1.843   9.701   7.420  0.2036 -0.4093 -0.5995
  782MOL0     C 5472   1.765   9.621   7.503  0.0763  0.5310 -0.2879
  782MOL0     C 5473   1.623   9.687   7.530  0.6817 -0.3720 -0.7626
  782MOL0     C 5474   1.535   9.670   7.404  0.4397  0.4323  0.5778
  782MOL0     C 5475   1.407   9.762   7.410 -0.6140  0.4122  0.9801
  782MOL0     C 5476   1.290   9.703   7.349 -0.0330  0.3328 -0.3960
  782MOL0     C 5477   1.168   9.801   7.362  0.0269  0.5221 -0.0929
  782MOL0     C 5478   1.043   9.730   7.309  0.1683 -0.4834 -0.4221
  782MOL0     C 5479   0.924   9.821   7.336  0.3617  0.7506  0.7666
  782MOL0    Cl 5480   0.782   9.734   7.277 -0.1252 -0.1584 -0.2124
  782MOL0     C 5481   2.057   9.582   7.463  0.1147  0.4215  0.1558
  782MOL0     C 5482   2.199   9.581   7.445  0.2769  0.7220 -0.6022
  782MOL0     O 5483   2.435   9.853   7.494  0.1009  0.7615  0.3087
  782MOL0     C 5484   2.709   9.819   7.461 -0.6247  0.2984  0.2316
  782MOL0     C 5485   2.846   9.814   7.455  0.1223  0.3798 -0.2610
  782MOL0     N 5486   3.589  10.027   7.345  0.1163 -0.4392 -0.0279
  782MOL0     N 5487   3.704  10.074   7.357 -0.1325 -0.2955  0.2551
  782MOL0     C 5488   5.055   9.635   7.593 -0.3363 -0.1534 -0.0756
  782MOL0     C 5489   5.156   9.541   7.624 -0.7310  0.2942 -0.0433
  782MOL0     C 5490   5.403   9.142   7.591 -0.0164 -0.1756 -0.8969
  782MOL0     C 5491   5.487   9.071   7.510  0.1260 -1.2681  0.1514
  782MOL0     C 5492   5.597   9.008   7.571  0.3276  1.0538 -0.5817
  782MOL0     C 5493   5.628   9.002   7.709  0.3592  0.3008  0.0909
  782MOL0     O 5494   5.745   8.936   7.752  0.3979 -0.5172  0.2922
  782MOL0     C 5495   5.807   8.989   7.871  0.3197  0.4987 -0.7330
  782MOL0     C 5496   5.952   8.993   7.831 -0.1283  0.6017 -0.7442
  782MOL0     C 5497   6.018   8.851   7.806  0.6544  0.4416  0.1794
  782MOL0     C 5498   6.160   8.863   7.771  0.0530  0.2461  0.4246
  782MOL0     C 5499   6.212   8.723   7.746  0.3144  0.0945 -0.3625
  782MOL0     C 5500   6.250   8.602   7.739 -1.0382  0.0618  0.3413
  782MOL0     C 5501   5.530   9.070   7.782 -0.3415 -0.0816 -0.2950
  782MOL0     C 5502   5.427   9.137   7.729 -0.1263 -0.1955  0.3772
  782MOL0     H 5503   4.994   9.263   7.533 -0.9487  1.0122 -3.4992
  782MOL0     H 5504   4.823   9.408   7.521 -1.3922  0.4591  1.0818
  782MOL0     H 5505   4.713   9.587   7.378 -0.3150 -0.1904 -0.0434
  782MOL0     H 5506   4.665   9.558   7.537 -1.3728  1.8350  1.1132
  782MOL0     H 5507   4.614   9.809   7.563 -1.3555  1.0904 -0.7147
  782MOL0     H 5508   4.619   9.814   7.391  1.6684  2.5744  2.2849
  782MOL0     H 5509   4.424   9.686   7.367 -0.8393 -1.2358  0.6609
  782MOL0     H 5510   4.411   9.638   7.534 -1.4719  1.2945  0.5371
  782MOL0     H 5511   4.358   9.857   7.600 -0.3478  2.7322 -0.0205
  782MOL0     H 5512   4.395   9.926   7.439 -2.7612  0.6066 -1.5787
  782MOL0     H 5513   4.210   9.799   7.342 -1.4758  0.7939  0.5710
  782MOL0     H 5514   4.163   9.726   7.502 -2.5012 -0.9191 -2.9046
  782MOL0     H 5515   4.154   9.977   7.582 -3.6017 -0.6100  1.8118
  782MOL0     H 5516   4.159   9.991   7.399 -0.0743 -0.1754  0.0862
  782MOL0     H 5517   3.951   9.862   7.377 -1.2015 -0.5137  0.1039
  782MOL0     H 5518   3.947   9.827   7.548 -0.2815  3.4687  3.1816
  782MOL0     H 5519   3.941  10.109   7.443  0.8160 -1.3179 -0.0568
  782MOL0     H 5520   3.909  10.062   7.606 -0.2302  1.5546 -1.1159
  782MOL0     H 5521   3.701   9.834   7.577  0.1828 -0.1009 -0.5316
  782MOL0     H 5522   3.451   9.760   7.513  0.0919 -0.1106  0.2310
  782MOL0     H 5523   3.379   9.915   7.523 -0.3187 -0.5918 -1.1687
  782MOL0     H 5524   3.445   9.796   7.253 -0.9418  2.3410 -1.0631
  782MOL0     H 5525   3.312   9.902   7.284  0.6148  2.2120  0.1508
  782MOL0     H 5526   3.307   9.627   7.409 -0.2020  1.0215  0.9840
  782MOL0     H 5527   3.245   9.665   7.251 -0.9028  0.1367  0.2580
  782MOL0     H 5528   3.084   9.834   7.318 -2.4700 -0.8585  0.2165
  782MOL0     H 5529   3.153   9.829   7.488  0.6686 -1.4535  0.5348
  782MOL0     H 5530   2.856   9.477   7.423 -1.9510 -0.5612 -1.6033
  782MOL0     H 5531   2.659   9.376   7.458 -0.2111 -0.4626 -4.6213
  782MOL0     H 5532   2.529   9.458   7.550  0.2509 -3.4093 -0.0734
  782MOL0     H 5533   2.524   9.460   7.376 -0.1972  1.4120  0.1899
  782MOL0     H 5534   2.232   9.848   7.250  0.4665 -1.2515 -0.4200
  782MOL0     H 5535   1.986   9.868   7.292 -0.8534 -1.4492  0.6981
  782MOL0     H 5536   1.747   9.522   7.461 -1.7044  0.5502  0.3395
  782MOL0     H 5537   1.812   9.610   7.601 -2.0928  1.8063  0.9836
  782MOL0     H 5538   1.580   9.641   7.620  1.7674 -3.4254 -1.6839
  782MOL0     H 5539   1.642   9.793   7.553  0.1681 -0.7300  1.5229
  782MOL0     H 5540   1.512   9.564   7.416  2.3683 -0.6306 -3.4543
  782MOL0     H 5541   1.591   9.675   7.311 -2.1214  0.9398 -1.0420
  782MOL0     H 5542   1.375   9.785   7.512 -2.8902  2.0085 -0.0221
  782MOL0     H 5543   1.429   9.863   7.376  0.2114  0.5596  1.8855
  782MOL0     H 5544   1.265   9.606   7.393  1.3274  0.7148  1.2849
  782MOL0     H 5545   1.306   9.686   7.242 -2.3503  1.9043 -1.0706
  782MOL0     H 5546   1.152   9.826   7.467 -0.0831 -0.3796  0.1077
  782MOL0     H 5547   1.189   9.892   7.304  0.7034 -0.4984 -1.5226
  782MOL0     H 5548   1.033   9.637   7.366  1.2472 -1.2255 -1.3682
  782MOL0     H 5549   1.044   9.691   7.206 -2.5055 -2.2078  0.1042
  782MOL0     H 5550   0.953   9.913   7.283 -1.5310 -0.2617 -2.2944
  782MOL0     H 5551   0.898   9.837   7.441 -0.7125 -1.9105  0.9742
  782MOL0     H 5552   2.002   9.506   7.517 -0.5473  1.6765  1.2995
  782MOL0     H 5553   2.259   9.502   7.489  0.3788 -0.0344 -2.0286
  782MOL0     H 5554   2.679   9.923   7.445 -3.7901 -0.5292  0.1620
  782MOL0     H 5555   2.898   9.909   7.457 -1.0071  1.0032 -0.1084
  782MOL0     H 5556   5.064   9.743   7.585  1.2779 -0.2930 -0.5133
  782MOL0     H 5557   5.247   9.573   7.674  0.3103  1.0278 -2.2916
  782MOL0     H 5558   5.462   9.050   7.407  1.4637 -1.4875 -0.1468
  782MOL0     H 5559   5.647   8.945   7.498 -0.2779 -0.2872  0.1271
  782MOL0     H 5560   5.782   9.086   7.917  1.4731  0.4235  0.0755
  782MOL0     H 5561   5.789   8.909   7.943  0.2254 -0.0727 -1.3863
  782MOL0     H 5562   6.005   9.035   7.917 -0.5840  0.6551 -0.4893
  782MOL0     H 5563   5.972   9.058   7.745  1.3003  1.9342  0.5204
  782MOL0     H 5564   5.960   8.803   7.727 -0.8997  3.2534 -0.4978
  782MOL0     H 5565   6.003   8.796   7.900 -0.9811 -2.4051 -1.5941
  782MOL0     H 5566   6.213   8.924   7.846 -0.6589 -0.8919  1.9053
  782MOL0     H 5567   6.173   8.913   7.674 -0.3311 -1.2875 -0.4409
  782MOL0     H 5568   6.283   8.503   7.714 -1.0992  0.7620 -2.9602
  782MOL0     H 5569   5.538   9.087   7.889  0.4196  0.8498 -0.4799
  782MOL0     H 5570   5.356   9.177   7.802 -1.0388  2.8073 -1.9443
  783MOL0     O 5571   6.576   1.236   0.481  0.3007 -0.3439  0.2832
  783MOL0     C 5572   6.560   1.344   0.534  0.4032  0.5211 -0.1668
  783MOL0     O 5573   6.432   1.405   0.555 -0.8056  0.8859 -0.1543
  783MOL0     C 5574   6.326   1.344   0.493  1.0163  0.2396 -0.2636
  783MOL0     C 5575   6.205   1.324   0.555  0.5034  0.7449 -0.9426
  783MOL0     C 5576   6.091   1.279   0.485  0.1829  0.2997  0.7412
  783MOL0     C 5577   6.101   1.264   0.340  0.1397 -0.0087 -0.0190
  783MOL0     O 5578   6.003   1.228   0.254  0.8069  0.3194 -0.3255
  783MOL0     C 5579   5.856   1.244   0.300 -0.1240 -0.3343  0.3204
  783MOL0     C 5580   5.773   1.251   0.174  0.6882  0.1190  0.4613
  783MOL0     C 5581   5.626   1.266   0.223 -0.6627  0.5542  0.7868
  783MOL0     C 5582   5.522   1.223   0.121 -0.3132 -0.2708 -0.1877
  783MOL0     C 5583   5.391   1.301   0.151 -0.9215  0.1101 -0.2730
  783MOL0     C 5584   5.259   1.262   0.081 -0.6352 -0.0786 -0.4489
  783MOL0     C 5585   5.285   1.235  -0.073  1.1896  0.0250 -0.0050
  783MOL0     C 5586   5.142   1.220  -0.133  0.3194 -0.2084  0.8982
  783MOL0     N 5587   5.080   1.354  -0.151  0.4724 -0.1189 -0.2653
  783MOL0     C 5588   5.130   1.479  -0.197 -0.6203  0.0865 -0.4396
  783MOL0     C 5589   5.043   1.568  -0.145 -0.1261  0.4498  0.3562
  783MOL0     C 5590   5.040   1.719  -0.156 -0.6283  0.3819 -0.7917
  783MOL0     C 5591   4.948   1.756  -0.274  0.0829 -0.7361  0.5311
  783MOL0     C 5592   4.822   1.812  -0.230  0.7050 -0.0688 -0.2634
  783MOL0     C 5593   4.714   1.839  -0.335  0.2451 -0.6301  0.0910
  783MOL0     O 5594   4.612   1.929  -0.292  0.6619  0.8928  0.0011
  783MOL0     C 5595   4.488   1.904  -0.345 -0.2732 -0.2936  0.0685
  783MOL0     C 5596   4.462   1.852  -0.471 -0.1231 -0.5528  0.2321
  783MOL0     C 5597   4.330   1.840  -0.524 -0.7357  0.8550 -0.6226
  783MOL0     C 5598   4.326   1.757  -0.661 -0.8753 -0.3104 -0.7332
  783MOL0     C 5599   4.224   1.893  -0.457 -0.8885 -0.0426 -0.7232
  783MOL0     C 5600   4.089   1.873  -0.502  0.3946 -0.0932 -0.6578
  783MOL0     O 5601   4.039   1.742  -0.519  0.4587  0.4480 -0.2130
  783MOL0     C 5602   3.907   1.725  -0.545  0.3538  0.1467  0.3937
  783MOL0     C 5603   3.880   1.661  -0.669 -0.0971  0.1600 -0.0330
  783MOL0     C 5604   3.750   1.608  -0.684 -0.6455 -0.7243 -0.4267
  783MOL0     C 5605   3.648   1.648  -0.605 -0.0250 -0.3529  0.2439
  783MOL0     O 5606   3.522   1.609  -0.637  0.5642  0.0655  0.1786
  783MOL0     C 5607   3.423   1.615  -0.529  0.3952  0.4916 -0.0483
  783MOL0     C 5608   3.324   1.502  -0.570 -0.2137 -0.3414  0.0594
  783MOL0     C 5609   3.372   1.360  -0.565  0.3479  0.4661  0.2924
  783MOL0     C 5610   3.381   1.309  -0.427  0.1368 -0.2363 -0.3748
  783MOL0     C 5611   3.414   1.158  -0.405  0.1546  0.2290 -0.0165
  783MOL0     C 5612   3.445   1.133  -0.255  0.6466 -0.8313  0.2581
  783MOL0     C 5613   3.442   0.985  -0.223  0.1699 -0.4938  0.2706
  783MOL0     C 5614   3.476   0.968  -0.078  0.3608 -1.1300 -0.0234
  783MOL0    Cl 5615   3.325   1.013   0.011  0.1852  0.2645  0.1022
  783MOL0     C 5616   3.673   1.738  -0.496  0.0753 -0.0203  0.7922
  783MOL0     C 5617   3.803   1.768  -0.469  0.6268 -0.4708 -0.2944
  783MOL0     O 5618   4.018   1.969  -0.492 -0.5919 -0.0423 -0.2946
  783MOL0     C 5619   4.241   1.946  -0.333 -0.5285 -0.4088 -0.0985
  783MOL0     C 5620   4.376   1.952  -0.277 -0.9520 -0.8359  0.0179
  783MOL0     N 5621   4.932   1.502  -0.088  0.2999 -0.3489 -0.3894
  783MOL0     N 5622   4.956   1.378  -0.111 -0.0736 -0.4926 -0.0619
  783MOL0     C 5623   6.225   1.275   0.279  0.3522 -0.4364 -0.0894
  783MOL0     C 5624   6.333   1.319   0.359 -0.0983  0.4192 -0.0340
  783MOL0     C 5625   6.668   1.396   0.621  0.2125 -0.5843 -0.8595
  783MOL0     C 5626   6.653   1.523   0.681  0.2251  0.7528  0.4909
  783MOL0     C 5627   6.766   1.582   0.756 -0.2257 -0.3884  0.1826
  783MOL0     C 5628   6.893   1.508   0.767  0.6026  0.5922 -0.1407
  783MOL0     O 5629   6.998   1.561   0.839  0.1773  0.3100 -0.5109
  783MOL0     C 5630   7.113   1.482   0.870  0.1479 -0.6286 -0.1321
  783MOL0     C 5631   7.073   1.428   1.010 -0.3392  0.0740 -0.3566
  783MOL0     C 5632   7.188   1.339   1.057 -0.3892  0.4980  0.1661
  783MOL0     C 5633   7.214   1.200   0.986 -0.4629  0.0585  0.5627
  783MOL0     C 5634   7.330   1.229   0.909 -1.1408 -0.1209  0.2214
  783MOL0     C 5635   7.435   1.256   0.850 -0.4249 -0.2874 -0.1415
  783MOL0     C 5636   6.897   1.385   0.690 -0.8476  0.0149  0.4074
  783MOL0     C 5637   6.789   1.331   0.620 -0.7809  0.2594 -0.2289
  783MOL0     H 5638   6.202   1.349   0.661 -2.2030 -2.1073 -0.1986
  783MOL0     H 5639   5.987   1.282   0.519 -0.2239 -0.4036 -0.3766
  783MOL0     H 5640   5.823   1.169   0.371  0.7898  0.0343  1.1511
  783MOL0     H 5641   5.843   1.344   0.342 -1.4533 -0.5393  0.4470
  783MOL0     H 5642   5.788   1.333   0.103  0.3576 -0.1896  0.0284
  783MOL0     H 5643   5.798   1.160   0.118  4.5517  0.0345  2.0368
  783MOL0     H 5644   5.610   1.214   0.318  1.6456  0.3246  1.0870
  783MOL0     H 5645   5.624   1.374   0.240  1.9960  0.5822  1.2619
  783MOL0     H 5646   5.566   1.240   0.022 -0.8136 -0.3054 -0.4203
  783MOL0     H 5647   5.508   1.117   0.141 -0.1504 -0.3496 -0.4868
  783MOL0     H 5648   5.366   1.291   0.257 -1.6795  0.7289 -0.3827
  783MOL0     H 5649   5.399   1.406   0.122 -1.6891  0.1111 -0.5096
  783MOL0     H 5650   5.213   1.178   0.134 -1.0491  1.0933  1.1208
  783MOL0     H 5651   5.195   1.350   0.079 -0.4916  0.0912  1.4594
  783MOL0     H 5652   5.350   1.308  -0.123  2.2655 -1.0749 -0.2707
  783MOL0     H 5653   5.342   1.142  -0.079  1.2431  0.1434 -1.5322
  783MOL0     H 5654   5.084   1.152  -0.070  0.0557  2.5703  3.9338
  783MOL0     H 5655   5.154   1.171  -0.230  2.1133 -0.4098  1.1825
  783MOL0     H 5656   5.221   1.499  -0.252  0.1825 -0.0736  0.7738
  783MOL0     H 5657   4.993   1.754  -0.064 -0.1491 -0.4354 -0.2275
  783MOL0     H 5658   5.141   1.762  -0.163  0.2925 -1.5777 -0.3208
  783MOL0     H 5659   4.917   1.675  -0.340 -0.0877  1.0031 -1.6184
  783MOL0     H 5660   4.997   1.833  -0.334 -0.9744 -2.1222 -2.3045
  783MOL0     H 5661   4.831   1.902  -0.169 -0.4394 -1.7916  2.6720
  783MOL0     H 5662   4.777   1.734  -0.168 -2.2296  2.2129  0.6998
  783MOL0     H 5663   4.669   1.742  -0.359  0.2496 -0.5082 -0.4301
  783MOL0     H 5664   4.762   1.873  -0.427  0.8125  0.6036  0.8162
  783MOL0     H 5665   4.547   1.822  -0.532 -0.4744  0.7747 -0.9568
  783MOL0     H 5666   4.248   1.681  -0.647  0.6106 -1.6110  1.0236
  783MOL0     H 5667   4.296   1.822  -0.744 -1.9955 -1.0641 -0.9462
  783MOL0     H 5668   4.419   1.704  -0.686  0.3202  0.5558  1.6281
  783MOL0     H 5669   3.958   1.644  -0.742  1.8779 -1.0629  2.1927
  783MOL0     H 5670   3.722   1.558  -0.776 -0.2992 -2.7260  0.4982
  783MOL0     H 5671   3.458   1.603  -0.426 -1.3940 -2.8515  0.2652
  783MOL0     H 5672   3.369   1.709  -0.544  0.3868  0.3433 -1.0726
  783MOL0     H 5673   3.241   1.514  -0.500  0.4679 -1.4370  1.0767
  783MOL0     H 5674   3.290   1.517  -0.673  2.0558  0.3276 -0.6462
  783MOL0     H 5675   3.468   1.363  -0.618  1.1622 -0.0627  1.6631
  783MOL0     H 5676   3.308   1.296  -0.626  1.3124 -1.1854  0.9310
  783MOL0     H 5677   3.440   1.374  -0.361 -0.0985 -0.4907  0.0926
  783MOL0     H 5678   3.283   1.318  -0.379  1.5225 -0.5131  2.7939
  783MOL0     H 5679   3.496   1.123  -0.468  0.6716 -0.6626  1.1056
  783MOL0     H 5680   3.325   1.104  -0.441 -0.8371  1.5547  0.3669
  783MOL0     H 5681   3.540   1.180  -0.228  0.3087  1.1041 -1.6705
  783MOL0     H 5682   3.368   1.182  -0.194 -0.3500  2.5884 -3.3476
  783MOL0     H 5683   3.514   0.924  -0.278 -1.0759 -2.5664  0.8296
  783MOL0     H 5684   3.342   0.944  -0.234 -0.4202  0.0306  3.0643
  783MOL0     H 5685   3.565   1.016  -0.036  2.1804 -4.5263  0.3552
  783MOL0     H 5686   3.504   0.863  -0.062  1.1785 -0.8601  0.3527
  783MOL0     H 5687   3.604   1.784  -0.426  1.2463  2.5531  0.3669
  783MOL0     H 5688   3.823   1.826  -0.379  0.1374  0.4818 -0.7830
  783MOL0     H 5689   4.159   1.984  -0.272 -0.4947 -0.4490 -0.0277
  783MOL0     H 5690   4.397   1.989  -0.177  0.9679  0.5548 -0.8292
  783MOL0     H 5691   6.240   1.248   0.174 -0.9786  2.6028 -1.1796
  783MOL0     H 5692   6.429   1.330   0.310  0.1472 -0.7469  0.1454
  783MOL0     H 5693   6.558   1.575   0.674  0.2891  0.7333 -0.6030
  783MOL0     H 5694   6.750   1.681   0.796  2.1225  1.5500 -3.1856
  783MOL0     H 5695   7.137   1.417   0.786 -2.1303 -1.4955 -0.1827
  783MOL0     H 5696   7.209   1.534   0.888 -0.0885 -0.3851  0.4765
  783MOL0     H 5697   6.986   1.361   1.018 -1.8919  2.0563 -0.0473
  783MOL0     H 5698   7.058   1.504   1.087  1.8064  0.5906 -0.3916
  783MOL0     H 5699   7.160   1.309   1.159  0.7850  0.5266  0.5084
  783MOL0     H 5700   7.280   1.397   1.065 -0.6280  0.7247  1.6628
  783MOL0     H 5701   7.143   1.184   0.904  2.0955  1.2324 -2.0623
  783MOL0     H 5702   7.235   1.108   1.041  0.8516 -1.7088 -2.6040
  783MOL0     H 5703   7.510   1.277   0.777 -2.0875 -0.2063 -1.9185
  783MOL0     H 5704   6.991   1.332   0.684 -2.2117 -2.5883  0.3100
  783MOL0     H 5705   6.813   1.237   0.572 -0.3731  0.3375 -0.1856
  784MOL0     O 5706   0.612   8.506   1.225  0.1585  0.1388 -0.0600
  784MOL0     C 5707   0.670   8.617   1.222  0.0824 -0.3944  1.3393
  784MOL0     O 5708   0.613   8.732   1.165  0.8031 -0.1740  0.1959
  784MOL0     C 5709   0.482   8.726   1.119  0.4139 -0.3840 -0.4445
  784MOL0     C 5710   0.450   8.762   0.988  0.0643 -0.3607 -0.1859
  784MOL0     C 5711   0.310   8.759   0.955 -0.2564  0.8299  0.2761
  784MOL0     C 5712   0.211   8.726   1.046 -0.1061  0.3930  0.2473
  784MOL0     O 5713   0.079   8.745   1.006 -0.1818  0.0235 -0.2794
  784MOL0     C 5714  -0.034   8.672   1.069 -0.1546  0.8897 -0.5391
  784MOL0     C 5715  -0.162   8.715   1.007 -0.5873  0.2653 -0.5971
  784MOL0     C 5716  -0.277   8.609   1.005 -0.5760  0.5047  0.0995
  784MOL0     C 5717  -0.320   8.571   1.148  0.3998 -0.4404 -0.4266
  784MOL0     C 5718  -0.446   8.482   1.156  0.1136  0.7149  0.2011
  784MOL0     C 5719  -0.494   8.483   1.302 -0.4640 -0.0156  0.3261
  784MOL0     C 5720  -0.637   8.438   1.316 -0.1199 -0.2918  0.1901
  784MOL0     C 5721  -0.669   8.426   1.465  0.3053  0.3317 -0.9315
  784MOL0     N 5722  -0.763   8.313   1.490 -0.7500 -1.3290  0.1313
  784MOL0     C 5723  -0.725   8.176   1.474 -0.9431  0.1662 -0.6708
  784MOL0     C 5724  -0.826   8.099   1.520  0.2562  0.2858  0.5451
  784MOL0     C 5725  -0.826   7.943   1.540 -1.0124 -0.5813 -0.3070
  784MOL0     C 5726  -0.893   7.860   1.432  0.8490 -0.4645 -0.3531
  784MOL0     C 5727  -0.968   7.935   1.322 -0.8005  0.1594  0.2316
  784MOL0     C 5728  -1.043   7.844   1.226 -0.1601  0.4736  0.0271
  784MOL0     O 5729  -1.168   7.811   1.290  0.1113 -0.1634 -0.3324
  784MOL0     C 5730  -1.251   7.734   1.217 -0.1193 -0.1795  0.0894
  784MOL0     C 5731  -1.223   7.680   1.089  0.3724 -0.4434 -0.6824
  784MOL0     C 5732  -1.327   7.621   1.013  0.4424 -0.4860  0.0862
  784MOL0     C 5733  -1.288   7.565   0.878  0.2909  0.6714 -0.1453
  784MOL0     C 5734  -1.463   7.620   1.061  0.0473  0.3699  0.0368
  784MOL0     C 5735  -1.581   7.581   0.975  0.0346 -0.5901  0.4455
  784MOL0     O 5736  -1.689   7.545   1.050  0.4892  0.3213  0.7496
  784MOL0     C 5737  -1.792   7.486   0.983  0.0871 -0.7618 -0.5176
  784MOL0     C 5738  -1.919   7.525   1.017 -0.0134  0.2726 -0.1896
  784MOL0     C 5739  -2.028   7.454   0.963 -0.1610 -0.3444  0.0563
  784MOL0     C 5740  -2.017   7.367   0.858 -0.1105  0.1928 -0.2961
  784MOL0     O 5741  -2.120   7.317   0.786  0.4403 -1.8034  0.0854
  784MOL0     C 5742  -2.161   7.180   0.830 -0.4912  0.1824 -0.4822
  784MOL0     C 5743  -2.108   7.064   0.741  0.7436 -0.6368  0.4390
  784MOL0     C 5744  -2.157   7.070   0.600  0.0945 -0.2813  0.8479
  784MOL0     C 5745  -2.305   7.047   0.588 -0.3908 -0.2472 -0.4664
  784MOL0     C 5746  -2.346   6.987   0.452 -0.2765  0.1373 -0.5833
  784MOL0     C 5747  -2.300   6.842   0.438  0.8404  0.0665 -0.5604
  784MOL0     C 5748  -2.365   6.739   0.541  0.4287 -0.8701 -0.3108
  784MOL0     C 5749  -2.320   6.589   0.532 -0.6497  0.2352  0.0850
  784MOL0    Cl 5750  -2.384   6.500   0.662 -0.5237  0.1826  0.2118
  784MOL0     C 5751  -1.889   7.325   0.816 -0.5719 -1.6902 -0.5223
  784MOL0     C 5752  -1.775   7.390   0.884 -0.1674  0.4219  0.5402
  784MOL0     O 5753  -1.575   7.597   0.853 -0.2692 -0.2319  0.3114
  784MOL0     C 5754  -1.490   7.673   1.189  0.2296 -0.4456  0.7356
  784MOL0     C 5755  -1.381   7.717   1.274  0.1096 -0.1737  0.8609
  784MOL0     N 5756  -0.929   8.193   1.551  0.3478 -0.0577  0.3452
  784MOL0     N 5757  -0.886   8.316   1.533  0.1892 -0.7205 -0.0025
  784MOL0     C 5758   0.244   8.699   1.175  0.8157  0.3405 -0.4284
  784MOL0     C 5759   0.378   8.692   1.212  0.3268  0.0768  0.1949
  784MOL0     C 5760   0.815   8.619   1.242 -0.5650 -0.4072  0.0941
  784MOL0     C 5761   0.886   8.738   1.245 -0.0108  0.0185 -0.0788
  784MOL0     C 5762   1.025   8.739   1.265  0.4610  0.6122 -0.5460
  784MOL0     C 5763   1.100   8.624   1.278 -0.8180  0.2605  0.2010
  784MOL0     O 5764   1.236   8.643   1.297  0.2407 -0.0088 -0.4697
  784MOL0     C 5765   1.284   8.602   1.420 -1.0650 -0.1524 -0.0367
  784MOL0     C 5766   1.432   8.638   1.433  0.2498 -0.6757  1.2170
  784MOL0     C 5767   1.527   8.534   1.379 -1.3682 -0.9261 -0.2747
  784MOL0     C 5768   1.666   8.594   1.357 -0.5214 -0.3948 -1.3147
  784MOL0     C 5769   1.750   8.493   1.292  0.4829  0.3831 -0.6443
  784MOL0     C 5770   1.807   8.401   1.236  0.1243  0.1980  0.3541
  784MOL0     C 5771   1.032   8.499   1.278 -0.5419 -0.4483 -0.4505
  784MOL0     C 5772   0.894   8.499   1.255 -0.1804  0.0747  1.1147
  784MOL0     H 5773   0.520   8.810   0.920  1.5721 -1.5582  0.4615
  784MOL0     H 5774   0.268   8.798   0.862 -0.8967  1.8183  0.9642
  784MOL0     H 5775  -0.020   8.564   1.061 -0.9810  0.7724 -0.5486
  784MOL0     H 5776  -0.043   8.689   1.176  0.7457  1.4127 -0.5442
  784MOL0     H 5777  -0.202   8.803   1.057 -1.5640 -1.7580  2.4955
  784MOL0     H 5778  -0.140   8.734   0.902 -0.4555 -1.4438 -0.9056
  784MOL0     H 5779  -0.370   8.654   0.968  0.4361  1.2792 -1.6335
  784MOL0     H 5780  -0.255   8.528   0.935 -1.6254 -1.2896  1.7305
  784MOL0     H 5781  -0.237   8.509   1.184  1.9847  1.1138 -1.2811
  784MOL0     H 5782  -0.338   8.663   1.203 -2.7191  1.4539 -4.1172
  784MOL0     H 5783  -0.520   8.521   1.086  0.1209  0.3279 -0.0250
  784MOL0     H 5784  -0.428   8.380   1.122 -0.1626  0.3672  1.0776
  784MOL0     H 5785  -0.413   8.439   1.361  1.4725 -0.2596 -2.3122
  784MOL0     H 5786  -0.499   8.590   1.324  0.8462  0.2514 -0.5470
  784MOL0     H 5787  -0.701   8.519   1.280 -0.8918  0.9500  3.9107
  784MOL0     H 5788  -0.651   8.343   1.264  0.2959  0.4929 -1.4205
  784MOL0     H 5789  -0.713   8.520   1.501  1.3133 -0.0509  1.4725
  784MOL0     H 5790  -0.573   8.402   1.513  0.1221 -0.5092 -0.9752
  784MOL0     H 5791  -0.625   8.143   1.446 -0.0982  1.5962  0.5002
  784MOL0     H 5792  -0.719   7.919   1.541 -0.6253  1.0335 -0.3024
  784MOL0     H 5793  -0.868   7.911   1.636  0.1307 -1.3462 -0.0321
  784MOL0     H 5794  -0.968   7.803   1.487 -0.2946 -0.8184 -2.2113
  784MOL0     H 5795  -0.824   7.791   1.382  1.4113 -0.1515 -0.0152
  784MOL0     H 5796  -0.888   7.976   1.260 -0.8002 -0.6730 -0.3390
  784MOL0     H 5797  -1.033   8.012   1.364 -0.3493 -0.4819  2.2228
  784MOL0     H 5798  -0.983   7.756   1.198  1.3810  1.2196  0.8422
  784MOL0     H 5799  -1.057   7.903   1.135  2.4665 -0.2741 -0.9666
  784MOL0     H 5800  -1.121   7.675   1.052  1.1975 -1.2487  1.5262
  784MOL0     H 5801  -1.270   7.652   0.815  0.8292  0.8077  0.1826
  784MOL0     H 5802  -1.201   7.505   0.907 -0.9173  0.3659  3.2828
  784MOL0     H 5803  -1.355   7.484   0.850  3.0486 -2.5603  1.7619
  784MOL0     H 5804  -1.917   7.579   1.111  0.5306 -0.5660  0.2942
  784MOL0     H 5805  -2.129   7.469   0.999  0.5168  1.5398  1.3352
  784MOL0     H 5806  -2.134   7.163   0.934  0.8415 -2.7726 -1.2186
  784MOL0     H 5807  -2.270   7.180   0.826 -0.4993  0.2326 -0.2537
  784MOL0     H 5808  -1.998   7.067   0.742  0.8554 -2.5844 -0.6713
  784MOL0     H 5809  -2.137   6.964   0.775  0.1337 -2.1634 -3.9245
  784MOL0     H 5810  -2.095   7.006   0.537 -1.3510  0.6682 -1.7275
  784MOL0     H 5811  -2.149   7.168   0.553  0.9358 -0.9945 -0.5513
  784MOL0     H 5812  -2.347   6.988   0.671 -1.3226  0.7790 -0.1864
  784MOL0     H 5813  -2.354   7.144   0.598 -1.7563 -0.8112 -1.3264
  784MOL0     H 5814  -2.307   7.057   0.378  1.8088  0.1643  0.4632
  784MOL0     H 5815  -2.452   7.010   0.442  0.4634  3.4946 -1.9560
  784MOL0     H 5816  -2.313   6.799   0.338 -1.7846  0.6266 -0.5367
  784MOL0     H 5817  -2.193   6.837   0.458  0.9398  1.1835 -0.7619
  784MOL0     H 5818  -2.473   6.740   0.527  0.2251  0.2777  1.0967
  784MOL0     H 5819  -2.336   6.778   0.639 -0.0268  0.3544 -0.6451
  784MOL0     H 5820  -2.213   6.583   0.512 -1.3384 -1.0577 -4.2161
  784MOL0     H 5821  -2.350   6.557   0.432  1.7644  1.2484 -1.0316
  784MOL0     H 5822  -1.874   7.256   0.734  0.2763 -0.7136 -1.2190
  784MOL0     H 5823  -1.671   7.363   0.869  0.0663  1.4299  0.2898
  784MOL0     H 5824  -1.592   7.683   1.225  0.4326  0.8515  0.9809
  784MOL0     H 5825  -1.405   7.747   1.376 -0.7296  0.8853  0.3668
  784MOL0     H 5826   0.162   8.688   1.246  0.8858 -2.2851 -0.6773
  784MOL0     H 5827   0.396   8.674   1.317 -2.1963 -4.0388  0.1285
  784MOL0     H 5828   0.828   8.830   1.241 -3.2921 -1.5429  4.3055
  784MOL0     H 5829   1.071   8.834   1.291  1.1030  0.1721 -0.0263
  784MOL0     H 5830   1.232   8.669   1.488 -1.9702 -0.4306 -0.4369
  784MOL0     H 5831   1.262   8.497   1.442  1.3807 -0.3264  2.0540
  784MOL0     H 5832   1.440   8.652   1.541  0.0550 -1.9702  1.4182
  784MOL0     H 5833   1.455   8.731   1.380  0.6411 -0.9359  0.9264
  784MOL0     H 5834   1.493   8.488   1.286 -1.1923  0.0899 -0.8471
  784MOL0     H 5835   1.522   8.453   1.453  0.1315 -0.5811  0.2213
  784MOL0     H 5836   1.709   8.627   1.452  1.4950  1.3230 -2.7117
  784MOL0     H 5837   1.672   8.679   1.288 -1.3924  0.7402 -0.0365
  784MOL0     H 5838   1.865   8.318   1.202 -0.2658  1.2032 -3.1627
  784MOL0     H 5839   1.080   8.405   1.305 -0.7806 -0.2009  0.9113
  784MOL0     H 5840   0.842   8.403   1.255 -2.8253  1.3942 -0.1564
  785MOL0     O 5841   8.789   1.399   0.352 -0.1289 -0.1858 -0.9674
  785MOL0     C 5842   8.750   1.425   0.237  0.5224  0.8107  0.0445
  785MOL0     O 5843   8.622   1.402   0.183 -0.0247  0.1098 -0.1359
  785MOL0     C 5844   8.517   1.339   0.255 -1.1403 -0.3222 -0.0509
  785MOL0     C 5845   8.397   1.329   0.193 -1.0457 -0.1578 -0.3276
  785MOL0     C 5846   8.290   1.258   0.241  0.8151  1.3207 -0.2477
  785MOL0     C 5847   8.305   1.202   0.371 -0.5689  0.5996 -0.1235
  785MOL0     O 5848   8.209   1.122   0.424  0.3775  0.7251  0.0157
  785MOL0     C 5849   8.074   1.173   0.419  0.6749  1.3036  0.7588
  785MOL0     C 5850   7.982   1.065   0.369  0.2485 -0.6958 -0.5799
  785MOL0     C 5851   7.839   1.121   0.374  0.6927 -0.0343  0.9119
  785MOL0     C 5852   7.746   1.023   0.304 -1.0182 -0.7538 -0.4127
  785MOL0     C 5853   7.601   1.070   0.317 -0.2902 -0.5886 -0.7693
  785MOL0     C 5854   7.500   0.955   0.303  0.8915 -0.5923  0.0154
  785MOL0     C 5855   7.366   1.022   0.317 -0.2164  0.8279 -0.2503
  785MOL0     C 5856   7.260   0.907   0.296 -0.2168  0.7148 -0.9421
  785MOL0     N 5857   7.127   0.964   0.284  1.3537  0.0216  0.2017
  785MOL0     C 5858   7.066   0.989   0.160 -0.3061 -0.5261 -0.8181
  785MOL0     C 5859   6.930   1.004   0.190 -0.1495  0.3388  0.6216
  785MOL0     C 5860   6.822   1.026   0.082 -0.8505  0.0579  0.4413
  785MOL0     C 5861   6.683   0.974   0.125 -0.4118 -0.4439  0.6283
  785MOL0     C 5862   6.580   1.026   0.022  0.7441 -0.4147 -0.0444
  785MOL0     C 5863   6.440   0.981   0.048  0.2778  0.0197 -0.6713
  785MOL0     O 5864   6.434   0.838   0.069 -0.1861  0.4093 -0.0579
  785MOL0     C 5865   6.313   0.775   0.105 -0.8304 -0.8587  0.4314
  785MOL0     C 5866   6.201   0.806   0.029 -0.8580  0.6166 -0.1885
  785MOL0     C 5867   6.072   0.764   0.053 -1.1631  0.4592 -0.0541
  785MOL0     C 5868   5.956   0.812  -0.034 -0.4891 -0.3377 -0.0794
  785MOL0     C 5869   6.060   0.681   0.165  0.7352  0.1581 -0.1832
  785MOL0     C 5870   5.922   0.616   0.195  0.7563 -1.0469 -0.2226
  785MOL0     O 5871   5.888   0.617   0.329  0.7201 -0.0079 -0.1314
  785MOL0     C 5872   5.765   0.568   0.355  0.1031 -0.4107 -0.0657
  785MOL0     C 5873   5.733   0.432   0.318 -0.9284  0.3752 -0.2187
  785MOL0     C 5874   5.623   0.366   0.376  0.6041 -0.2732  0.3009
  785MOL0     C 5875   5.535   0.441   0.460 -0.0007 -0.1942  0.1782
  785MOL0     O 5876   5.430   0.369   0.523 -0.5115  0.3073  0.5011
  785MOL0     C 5877   5.307   0.435   0.543 -0.0006  0.1386  0.6296
  785MOL0     C 5878   5.191   0.343   0.610  0.1542  0.3965 -0.1380
  785MOL0     C 5879   5.158   0.364   0.758 -0.7951  0.9811  0.8125
  785MOL0     C 5880   5.042   0.282   0.815  0.6980  0.8326 -0.3381
  785MOL0     C 5881   4.906   0.348   0.822  0.9281  0.4743  0.2450
  785MOL0     C 5882   4.804   0.255   0.892 -0.0947  0.4327 -0.7010
  785MOL0     C 5883   4.826   0.224   1.045 -0.0615 -0.4399  1.2818
  785MOL0     C 5884   4.701   0.147   1.096 -0.3202 -0.2772 -0.2223
  785MOL0    Cl 5885   4.568   0.258   1.126  0.0664  0.3352 -0.0265
  785MOL0     C 5886   5.574   0.571   0.495  0.3688  0.2654 -0.4397
  785MOL0     C 5887   5.677   0.640   0.432  0.4970  0.1445 -0.8054
  785MOL0     O 5888   5.855   0.572   0.103 -0.0418 -0.1544  0.4221
  785MOL0     C 5889   6.174   0.654   0.249  0.5918 -0.1828 -0.2001
  785MOL0     C 5890   6.299   0.693   0.212 -1.5326 -0.9874 -0.6335
  785MOL0     N 5891   6.919   0.992   0.329 -0.2141  1.0752 -0.4168
  785MOL0     N 5892   7.031   0.967   0.378  0.1121 -0.3985 -1.3567
  785MOL0     C 5893   8.417   1.209   0.442 -0.4664 -0.8655 -0.7721
  785MOL0     C 5894   8.526   1.274   0.384 -0.7622 -1.0140  0.9826
  785MOL0     C 5895   8.852   1.473   0.148  0.5460  0.2651  0.6844
  785MOL0     C 5896   8.984   1.490   0.196 -0.3406 -0.1403  0.3377
  785MOL0     C 5897   9.090   1.509   0.108 -0.6905  0.2917 -0.8120
  785MOL0     C 5898   9.060   1.547  -0.022 -0.3843  0.0756 -0.3322
  785MOL0     O 5899   9.153   1.595  -0.112 -0.4983 -0.6709 -0.1319
  785MOL0     C 5900   9.300   1.592  -0.094 -0.2030  0.3745 -0.9245
  785MOL0     C 5901   9.362   1.665  -0.210  0.2064 -0.1251 -0.1197
  785MOL0     C 5902   9.514   1.642  -0.199 -0.0921  0.0560 -0.6503
  785MOL0     C 5903   9.586   1.664  -0.330  0.3868  0.4300 -0.5860
  785MOL0     C 5904   9.535   1.564  -0.435 -0.1782 -0.0629  0.4793
  785MOL0     C 5905   9.498   1.473  -0.518  0.1067 -0.4553  0.2755
  785MOL0     C 5906   8.935   1.538  -0.070  0.3635  0.6980  0.6271
  785MOL0     C 5907   8.826   1.497   0.017 -0.3325  0.2133 -0.3937
  785MOL0     H 5908   8.381   1.371   0.094 -0.2098  0.1745 -0.3310
  785MOL0     H 5909   8.199   1.236   0.186 -1.8145  3.7709  2.6982
  785MOL0     H 5910   8.052   1.199   0.523  0.1665  1.4870  0.6087
  785MOL0     H 5911   8.062   1.263   0.359  0.4952  1.5224  1.1259
  785MOL0     H 5912   8.022   1.045   0.270  2.0288  2.9575 -0.7488
  785MOL0     H 5913   8.005   0.988   0.443  1.2348  1.5705  1.6254
  785MOL0     H 5914   7.814   1.133   0.480 -0.0416 -0.2854  0.7758
  785MOL0     H 5915   7.830   1.216   0.320  2.7085 -1.2997 -1.8990
  785MOL0     H 5916   7.788   1.007   0.204  0.1860 -1.4417  0.1699
  785MOL0     H 5917   7.772   0.927   0.351 -0.4671 -0.0956  0.6715
  785MOL0     H 5918   7.590   1.116   0.416 -0.0824 -1.2339 -0.4385
  785MOL0     H 5919   7.582   1.159   0.257 -1.7462 -0.6547 -0.4404
  785MOL0     H 5920   7.513   0.905   0.207  0.4155  0.7737 -0.7888
  785MOL0     H 5921   7.519   0.884   0.384  0.0666 -0.1732  0.5903
  785MOL0     H 5922   7.358   1.070   0.415 -1.0745  1.8704 -0.8131
  785MOL0     H 5923   7.343   1.103   0.247 -1.5269 -2.0184 -3.4297
  785MOL0     H 5924   7.260   0.837   0.380 -0.2595  3.1043  1.1648
  785MOL0     H 5925   7.287   0.857   0.202 -0.8959  1.3414 -1.4911
  785MOL0     H 5926   7.125   0.997   0.068  0.7783  1.9886 -0.0037
  785MOL0     H 5927   6.822   1.134   0.064  0.5049 -0.5427 -5.4823
  785MOL0     H 5928   6.855   0.968  -0.005 -2.2077  1.6052 -1.1904
  785MOL0     H 5929   6.650   1.013   0.222  0.7749 -0.3347  1.0065
  785MOL0     H 5930   6.675   0.865   0.130  0.8798 -0.5197  2.2163
  785MOL0     H 5931   6.602   0.994  -0.080 -1.0459 -0.2457 -0.5216
  785MOL0     H 5932   6.573   1.135   0.017  1.4825 -0.1618  2.8312
  785MOL0     H 5933   6.383   1.015  -0.039 -0.2628  0.9093  0.0129
  785MOL0     H 5934   6.394   1.028   0.136 -1.2779 -1.7692 -0.4601
  785MOL0     H 5935   6.211   0.865  -0.062 -2.2979 -1.4425 -1.7642
  785MOL0     H 5936   5.876   0.833   0.038  1.6061 -0.3083  2.3817
  785MOL0     H 5937   5.980   0.901  -0.091 -0.5999  0.8225  1.6209
  785MOL0     H 5938   5.921   0.735  -0.104 -0.4764 -1.5452  1.1887
  785MOL0     H 5939   5.799   0.371   0.257  0.4796  0.3420  1.2547
  785MOL0     H 5940   5.599   0.261   0.366 -4.0981  0.3135  2.6119
  785MOL0     H 5941   5.332   0.516   0.612  0.1254  0.2870  0.4106
  785MOL0     H 5942   5.263   0.484   0.456  0.7942  0.0466  0.1650
  785MOL0     H 5943   5.099   0.368   0.556  1.0779  0.0278 -1.9983
  785MOL0     H 5944   5.214   0.239   0.583 -3.9384 -1.0882  1.2580
  785MOL0     H 5945   5.146   0.470   0.783  0.0202  0.9158  1.5308
  785MOL0     H 5946   5.254   0.343   0.807 -0.0521  4.5381  1.1511
  785MOL0     H 5947   5.040   0.182   0.770 -2.1799  0.4084  0.5301
  785MOL0     H 5948   5.069   0.265   0.920 -2.0708  3.8788  1.0399
  785MOL0     H 5949   4.866   0.369   0.723 -0.3658  3.9585  1.3282
  785MOL0     H 5950   4.916   0.445   0.872  2.7099  0.7380 -0.5611
  785MOL0     H 5951   4.706   0.299   0.872  0.3970  1.6642 -0.5236
  785MOL0     H 5952   4.800   0.161   0.836  0.2950 -1.6165  2.4898
  785MOL0     H 5953   4.852   0.314   1.100  3.0654 -0.2742 -0.2135
  785MOL0     H 5954   4.908   0.152   1.054 -0.4063 -1.0366 -0.1483
  785MOL0     H 5955   4.737   0.083   1.177  0.1851 -1.1260 -1.0826
  785MOL0     H 5956   4.681   0.082   1.010  3.1866  0.4078 -1.7384
  785MOL0     H 5957   5.518   0.626   0.569 -2.6730 -2.8772 -0.1394
  785MOL0     H 5958   5.682   0.745   0.461  0.4261 -0.2858  0.9099
  785MOL0     H 5959   6.161   0.599   0.342 -0.6020  2.2253  1.1425
  785MOL0     H 5960   6.381   0.640   0.260 -0.8311  1.2052  0.7313
  785MOL0     H 5961   8.416   1.160   0.539 -4.4670 -3.7209 -1.9655
  785MOL0     H 5962   8.622   1.276   0.435  0.5788 -0.9860 -1.3881
  785MOL0     H 5963   9.011   1.477   0.300  0.5990  2.7829  0.5633
  785MOL0     H 5964   9.187   1.506   0.157 -1.3828 -0.7060  0.5721
  785MOL0     H 5965   9.323   1.641   0.001  1.4700  1.5592 -1.8832
  785MOL0     H 5966   9.334   1.488  -0.098 -0.8001  0.1333 -0.0890
  785MOL0     H 5967   9.355   1.774  -0.195 -0.5023 -0.3012  0.9212
  785MOL0     H 5968   9.319   1.644  -0.308 -1.9448  0.8358  0.5456
  785MOL0     H 5969   9.545   1.542  -0.168 -0.2887 -0.8345 -3.0700
  785MOL0     H 5970   9.559   1.713  -0.128 -0.1865 -2.8797  2.5722
  785MOL0     H 5971   9.690   1.631  -0.339  0.2493  0.6506 -5.7916
  785MOL0     H 5972   9.591   1.768  -0.363  1.5370 -0.1787 -2.4900
  785MOL0     H 5973   9.473   1.383  -0.572  0.3609 -2.4626  3.2550
  785MOL0     H 5974   8.924   1.558  -0.176 -1.0323  3.6275  1.2178
  785MOL0     H 5975   8.730   1.475  -0.028 -0.6121 -1.3458  0.8713
  786MOL0     O 5976  10.494   6.795   2.272  0.8399  0.4723  0.7740
  786MOL0     C 5977  10.584   6.777   2.361 -0.5114 -0.7032 -0.1089
  786MOL0     O 5978  10.612   6.868   2.465 -0.5336  0.1224 -0.2504
  786MOL0     C 5979  10.558   6.990   2.453 -0.8439 -0.2293  0.8806
  786MOL0     C 5980  10.602   7.076   2.350  0.1654  0.1789  0.2050
  786MOL0     C 5981  10.595   7.212   2.366  0.4932 -0.1529 -0.6196
  786MOL0     C 5982  10.529   7.270   2.481 -0.4817  0.0840 -0.2369
  786MOL0     O 5983  10.507   7.403   2.500 -0.2719  0.6779 -0.0485
  786MOL0     C 5984  10.457   7.473   2.389  0.6369 -0.1182 -0.7793
  786MOL0     C 5985  10.302   7.475   2.399 -0.7449 -0.2608 -0.0742
  786MOL0     C 5986  10.237   7.544   2.280 -0.7382  0.2241  0.1887
  786MOL0     C 5987  10.086   7.558   2.300  0.2103  0.3707 -0.0552
  786MOL0     C 5988  10.018   7.665   2.213 -0.3766 -0.2759 -0.2904
  786MOL0     C 5989   9.873   7.698   2.246  0.9603  0.9278  0.6328
  786MOL0     C 5990   9.790   7.612   2.156  0.4364  0.5688  0.2182
  786MOL0     C 5991   9.648   7.599   2.214 -0.0981  0.0364  0.3271
  786MOL0     N 5992   9.558   7.506   2.151  0.7771  0.5658  0.3137
  786MOL0     C 5993   9.522   7.500   2.020 -0.6446 -0.4517 -0.0241
  786MOL0     C 5994   9.437   7.395   2.002  0.2286  0.0994  0.6543
  786MOL0     C 5995   9.356   7.361   1.882  0.0973  0.3485  0.3582
  786MOL0     C 5996   9.207   7.387   1.897 -1.0805  0.0421 -0.2861
  786MOL0     C 5997   9.146   7.343   1.765 -0.1664 -0.5217  0.6686
  786MOL0     C 5998   8.990   7.328   1.782 -0.3245 -0.6094  0.1144
  786MOL0     O 5999   8.938   7.274   1.658 -0.0701  0.3188 -0.2357
  786MOL0     C 6000   8.822   7.205   1.663  0.2322 -0.4923  0.9934
  786MOL0     C 6001   8.728   7.207   1.776  0.1050 -0.1287  0.3919
  786MOL0     C 6002   8.603   7.131   1.763 -0.4445 -0.1751 -0.2408
  786MOL0     C 6003   8.509   7.146   1.885  0.1526  0.8080  0.3191
  786MOL0     C 6004   8.577   7.050   1.655 -0.6721  0.1889  0.3170
  786MOL0     C 6005   8.469   6.955   1.643 -0.1161  0.1889 -0.0721
  786MOL0     O 6006   8.361   6.965   1.727 -0.4177  0.6708 -0.3687
  786MOL0     C 6007   8.244   6.890   1.725  0.1010  0.2322  0.5697
  786MOL0     C 6008   8.213   6.791   1.629  0.1965  0.4539 -0.5789
  786MOL0     C 6009   8.090   6.739   1.617 -0.5644  0.0050 -0.4780
  786MOL0     C 6010   7.995   6.765   1.714  0.7884  0.4756 -0.4024
  786MOL0     O 6011   7.863   6.720   1.717 -0.3857  0.1911  0.1089
  786MOL0     C 6012   7.815   6.628   1.624  0.1902  0.8280  0.1477
  786MOL0     C 6013   7.662   6.637   1.652 -0.0882 -0.8161  0.6687
  786MOL0     C 6014   7.590   6.770   1.602 -0.0647 -0.9508 -0.1276
  786MOL0     C 6015   7.441   6.780   1.642 -0.5067 -0.0165  0.1665
  786MOL0     C 6016   7.383   6.908   1.612 -0.5729 -0.0177 -0.0138
  786MOL0     C 6017   7.240   6.931   1.672 -0.5798  0.9841  0.0651
  786MOL0     C 6018   7.255   6.961   1.826 -0.5820 -0.6319  0.2004
  786MOL0     C 6019   7.122   7.000   1.891 -0.1049  0.2674  0.2141
  786MOL0    Cl 6020   7.032   6.847   1.920  0.4018  0.0281 -0.4353
  786MOL0     C 6021   8.026   6.854   1.812 -0.7294 -0.7715 -0.8494
  786MOL0     C 6022   8.148   6.927   1.817 -0.8744 -0.1377 -0.3245
  786MOL0     O 6023   8.493   6.861   1.566  0.1926  0.0626 -0.2427
  786MOL0     C 6024   8.677   7.055   1.552  0.0584 -0.0569 -1.0067
  786MOL0     C 6025   8.795   7.135   1.550  0.0072  0.3552  0.6143
  786MOL0     N 6026   9.410   7.353   2.133  0.3009  0.1113 -0.3807
  786MOL0     N 6027   9.481   7.415   2.217 -0.3614  0.6049 -0.3044
  786MOL0     C 6028  10.477   7.184   2.572  0.5526 -0.5820 -0.0026
  786MOL0     C 6029  10.493   7.045   2.563 -0.5499 -0.0718  0.6235
  786MOL0     C 6030  10.640   6.640   2.375  1.0271 -0.6126 -0.0212
  786MOL0     C 6031  10.752   6.621   2.456 -0.3736 -0.3252 -0.0499
  786MOL0     C 6032  10.812   6.493   2.474 -0.0213 -0.8462 -0.5866
  786MOL0     C 6033  10.754   6.382   2.405 -0.4290 -0.6866 -0.7005
  786MOL0     O 6034  10.818   6.258   2.420  0.1766  0.7113 -0.1111
  786MOL0     C 6035  10.753   6.133   2.383 -1.2297  0.4964  0.6664
  786MOL0     C 6036  10.851   6.024   2.408 -0.2682  0.5684 -0.5758
  786MOL0     C 6037  10.875   5.940   2.287 -0.0783  0.8399  0.3354
  786MOL0     C 6038  10.956   6.017   2.184 -0.9079  0.0424  0.4508
  786MOL0     C 6039  11.054   5.935   2.105 -0.5736 -0.0003 -0.3360
  786MOL0     C 6040  11.124   5.869   2.034 -0.0409  1.0210 -0.7971
  786MOL0     C 6041  10.650   6.405   2.311  0.9441 -0.0199 -0.9893
  786MOL0     C 6042  10.589   6.535   2.301 -0.4419 -0.3340  0.4744
  786MOL0     H 6043  10.660   7.039   2.267 -1.1592 -0.7399 -0.3526
  786MOL0     H 6044  10.615   7.278   2.281 -2.8586 -1.8987 -3.0079
  786MOL0     H 6045  10.494   7.575   2.383 -1.4058  0.6774 -0.8582
  786MOL0     H 6046  10.484   7.424   2.295 -1.6546 -3.3952  0.0652
  786MOL0     H 6047  10.264   7.373   2.406 -1.7567  0.0366 -0.9501
  786MOL0     H 6048  10.287   7.529   2.493  2.0897 -0.2116  0.4176
  786MOL0     H 6049  10.283   7.643   2.283 -2.0930  0.8499  0.7936
  786MOL0     H 6050  10.265   7.483   2.193  3.5042 -1.3847  2.3707
  786MOL0     H 6051  10.038   7.461   2.288  0.6966 -0.1268  1.7955
  786MOL0     H 6052  10.070   7.590   2.404  0.1434 -1.2699  0.4575
  786MOL0     H 6053  10.076   7.756   2.228 -0.4912 -0.5357  1.9919
  786MOL0     H 6054  10.038   7.646   2.107 -1.3465  1.8204 -0.9086
  786MOL0     H 6055   9.836   7.683   2.348  0.5004 -1.4822  0.1894
  786MOL0     H 6056   9.859   7.805   2.233  0.8871  1.0380  1.5391
  786MOL0     H 6057   9.782   7.655   2.056 -3.0093 -4.1966 -1.9774
  786MOL0     H 6058   9.842   7.516   2.150  0.3769  0.4414  1.4222
  786MOL0     H 6059   9.599   7.697   2.214  1.8646  1.0868  0.9216
  786MOL0     H 6060   9.664   7.574   2.319  1.0883 -0.1663  0.1114
  786MOL0     H 6061   9.555   7.574   1.948  0.5852  1.1628  2.0385
  786MOL0     H 6062   9.395   7.414   1.795  3.5589  0.6494  1.9456
  786MOL0     H 6063   9.378   7.257   1.854 -2.0998 -0.6808  2.1289
  786MOL0     H 6064   9.190   7.493   1.918 -2.7678 -0.3436  0.4716
  786MOL0     H 6065   9.165   7.330   1.981 -3.2213  1.1484 -0.5298
  786MOL0     H 6066   9.173   7.240   1.738 -1.1737 -1.4966  3.0948
  786MOL0     H 6067   9.164   7.401   1.674 -1.2887 -1.1316  0.0232
  786MOL0     H 6068   8.946   7.426   1.806  2.0771  1.5929 -3.4518
  786MOL0     H 6069   8.977   7.266   1.871 -0.5388  0.5690  0.9322
  786MOL0     H 6070   8.764   7.263   1.861  1.8523  2.5453 -1.9048
  786MOL0     H 6071   8.407   7.174   1.857 -0.5258  0.4607  2.2777
  786MOL0     H 6072   8.504   7.045   1.926  2.4742 -0.1560 -1.5306
  786MOL0     H 6073   8.533   7.227   1.955 -2.2471  1.2860  0.6629
  786MOL0     H 6074   8.286   6.742   1.566  1.8782 -0.7848  2.1778
  786MOL0     H 6075   8.064   6.667   1.541 -0.8822 -1.5515  1.0301
  786MOL0     H 6076   7.832   6.650   1.518  0.4669  2.0209  0.4200
  786MOL0     H 6077   7.865   6.537   1.658 -0.8280  0.7531  1.5402
  786MOL0     H 6078   7.620   6.563   1.584  0.6237 -1.1710  0.6055
  786MOL0     H 6079   7.638   6.606   1.755 -0.6218  0.0649  0.8233
  786MOL0     H 6080   7.602   6.780   1.493 -0.1755 -0.2906 -0.0822
  786MOL0     H 6081   7.635   6.858   1.649 -0.0836 -0.1313 -1.5752
  786MOL0     H 6082   7.379   6.710   1.584  0.6243 -1.2964  0.4399
  786MOL0     H 6083   7.437   6.749   1.746  1.3012 -1.4071 -0.1224
  786MOL0     H 6084   7.367   6.915   1.504 -0.0917 -1.5194 -0.2075
  786MOL0     H 6085   7.453   6.985   1.645 -1.7255  0.7664  0.6760
  786MOL0     H 6086   7.197   7.014   1.616  2.0070  2.3981  0.0191
  786MOL0     H 6087   7.177   6.843   1.657  0.0618  0.6329 -0.6650
  786MOL0     H 6088   7.322   7.045   1.844 -0.9806 -0.9722  4.0945
  786MOL0     H 6089   7.294   6.870   1.871  0.0300 -1.5226 -2.0223
  786MOL0     H 6090   7.065   7.067   1.825  1.2514 -0.3197 -1.6538
  786MOL0     H 6091   7.139   7.050   1.987 -1.2646  0.2701  0.4314
  786MOL0     H 6092   7.946   6.874   1.882  0.7452  0.6015  0.5397
  786MOL0     H 6093   8.173   7.004   1.890 -0.4309  2.4194 -2.9781
  786MOL0     H 6094   8.670   6.984   1.470  0.6643 -3.8179  1.9161
  786MOL0     H 6095   8.866   7.150   1.469 -1.9731 -0.9109 -1.4858
  786MOL0     H 6096  10.412   7.231   2.645  1.2292  0.6116 -0.1318
  786MOL0     H 6097  10.467   6.983   2.648 -2.5133  0.9620  0.8251
  786MOL0     H 6098  10.806   6.701   2.506  1.0125  0.8751 -3.1686
  786MOL0     H 6099  10.893   6.493   2.545 -0.8822  0.7939  0.4586
  786MOL0     H 6100  10.662   6.112   2.439 -1.3013  1.0931  0.7807
  786MOL0     H 6101  10.732   6.146   2.276 -1.2652 -0.5190  0.5439
  786MOL0     H 6102  10.802   5.965   2.486  0.7086  0.8535  0.2791
  786MOL0     H 6103  10.948   6.052   2.449  1.0596 -1.5558 -2.0648
  786MOL0     H 6104  10.784   5.897   2.244 -0.0846 -0.2276  1.3445
  786MOL0     H 6105  10.930   5.847   2.310  0.1609  0.6365 -0.9949
  786MOL0     H 6106  10.994   6.112   2.223  0.0061  0.5456 -1.5339
  786MOL0     H 6107  10.880   6.061   2.119 -1.2857 -0.7651  0.3321
  786MOL0     H 6108  11.173   5.799   1.970  0.2729 -1.1870  1.6962
  786MOL0     H 6109  10.598   6.328   2.254 -1.3734 -0.2244  1.2318
  786MOL0     H 6110  10.510   6.554   2.229  0.4473  0.8693 -0.2273
  787MOL0     O 6111   6.755   8.574   9.292  0.6561  1.2897  0.2019
  787MOL0     C 6112   6.753   8.461   9.337  0.5446  0.3266  0.2817
  787MOL0     O 6113   6.645   8.378   9.326 -0.2405 -0.8920 -0.2631
  787MOL0     C 6114   6.528   8.427   9.275 -1.2709  0.7609 -0.8138
  787MOL0     C 6115   6.516   8.464   9.138  0.6907 -0.1168 -1.0290
  787MOL0     C 6116   6.391   8.499   9.092 -0.1443 -1.3781  0.0373
  787MOL0     C 6117   6.274   8.490   9.171  0.5301  0.0581  0.0510
  787MOL0     O 6118   6.145   8.505   9.118 -0.3982 -0.5400  0.0975
  787MOL0     C 6119   6.129   8.621   9.037 -0.6012  0.4423 -0.4274
  787MOL0     C 6120   5.979   8.630   8.997  0.3514  0.0595 -0.6602
  787MOL0     C 6121   5.945   8.739   8.904 -0.3989 -0.1747 -0.1550
  787MOL0     C 6122   5.950   8.878   8.958 -0.0585 -0.1968  0.3212
  787MOL0     C 6123   5.854   8.972   8.892  0.7086  0.7242  0.3311
  787MOL0     C 6124   5.830   9.092   8.981 -0.9147 -0.0315 -0.2541
  787MOL0     C 6125   5.737   9.193   8.912  0.8204 -0.2790 -0.0651
  787MOL0     C 6126   5.600   9.141   8.846  0.2776  0.4111  0.2464
  787MOL0     N 6127   5.494   9.095   8.939  0.2719  0.5671 -0.0559
  787MOL0     C 6128   5.401   9.169   9.001  0.2744 -0.0302  0.7476
  787MOL0     C 6129   5.328   9.076   9.070 -0.1429  0.5653 -0.3086
  787MOL0     C 6130   5.219   9.096   9.175  0.1595  0.2011  0.2022
  787MOL0     C 6131   5.088   9.096   9.094 -0.0798 -0.9933 -0.0771
  787MOL0     C 6132   4.984   9.136   9.204 -0.2108 -0.1980  0.4980
  787MOL0     C 6133   4.854   9.164   9.134  0.6264  0.8260 -0.0296
  787MOL0     O 6134   4.783   9.272   9.199  0.3252  0.1437 -0.1694
  787MOL0     C 6135   4.666   9.318   9.158 -0.1240  0.5856  0.8924
  787MOL0     C 6136   4.597   9.282   9.041  0.2866 -0.1051 -0.1477
  787MOL0     C 6137   4.472   9.332   9.026 -0.3111 -0.0025  0.2182
  787MOL0     C 6138   4.394   9.251   8.920  0.2373  0.2079 -0.1647
  787MOL0     C 6139   4.400   9.424   9.109 -0.8327  0.2903  0.2691
  787MOL0     C 6140   4.258   9.448   9.103 -0.0131 -0.7149 -0.0987
  787MOL0     O 6141   4.200   9.440   8.978  0.6815 -0.6441  0.3986
  787MOL0     C 6142   4.070   9.408   8.976  0.1499  0.0092  0.6017
  787MOL0     C 6143   3.969   9.488   9.039  0.4774 -0.5550 -0.0242
  787MOL0     C 6144   3.829   9.467   9.014 -0.0402 -0.7366  0.9943
  787MOL0     C 6145   3.787   9.370   8.919  0.5546 -0.1314 -0.1198
  787MOL0     O 6146   3.666   9.342   8.862 -0.9428  0.0669  0.9453
  787MOL0     C 6147   3.554   9.425   8.905  0.2879  0.2382  0.2095
  787MOL0     C 6148   3.429   9.407   8.815  0.3158 -0.0381  0.0275
  787MOL0     C 6149   3.297   9.478   8.849  0.5456 -0.4861 -0.6759
  787MOL0     C 6150   3.314   9.591   8.953  0.4263  0.3349 -0.1875
  787MOL0     C 6151   3.189   9.689   8.969  0.3048 -0.3738 -0.1288
  787MOL0     C 6152   3.063   9.618   9.025  0.0030 -0.3474  0.4305
  787MOL0     C 6153   2.949   9.721   9.006  0.7207  0.1141 -0.7505
  787MOL0     C 6154   2.805   9.665   9.013 -0.2998  0.4616  0.7755
  787MOL0    Cl 6155   2.742   9.589   8.862  0.1978 -0.5522 -0.3064
  787MOL0     C 6156   3.890   9.294   8.856  0.9578 -0.1552 -0.3050
  787MOL0     C 6157   4.025   9.313   8.883 -0.0527 -0.6866 -0.0893
  787MOL0     O 6158   4.194   9.466   9.206 -0.6805 -0.0027  0.0447
  787MOL0     C 6159   4.479   9.458   9.221  0.2470 -0.6422  0.2522
  787MOL0     C 6160   4.604   9.407   9.246 -0.4896  0.9083  1.0287
  787MOL0     N 6161   5.383   8.951   9.051  1.5095  0.2431 -0.8700
  787MOL0     N 6162   5.481   8.956   8.965 -0.9311  0.0316  0.5290
  787MOL0     C 6163   6.279   8.444   9.300 -0.0945 -0.1030  0.4141
  787MOL0     C 6164   6.411   8.428   9.353 -0.1797 -0.0362  0.1229
  787MOL0     C 6165   6.872   8.398   9.403  0.1011  1.2862 -0.4207
  787MOL0     C 6166   6.977   8.480   9.445  0.5520  0.0523  0.2228
  787MOL0     C 6167   7.092   8.426   9.502 -0.0017 -0.4507 -0.2646
  787MOL0     C 6168   7.104   8.282   9.512  0.1380 -0.1877  0.1212
  787MOL0     O 6169   7.212   8.213   9.535  0.1253  0.3548 -0.4041
  787MOL0     C 6170   7.340   8.288   9.536  0.6414  0.4921 -0.5589
  787MOL0     C 6171   7.446   8.182   9.571  0.3484  0.3608  0.6683
  787MOL0     C 6172   7.421   8.152   9.722 -0.5951 -0.1175  0.4717
  787MOL0     C 6173   7.508   8.029   9.749 -0.2603  0.2648 -0.0702
  787MOL0     C 6174   7.562   8.037   9.883 -0.0915  0.8747  0.2145
  787MOL0     C 6175   7.606   8.018   9.994  0.1414  0.4338 -0.3559
  787MOL0     C 6176   6.990   8.199   9.484  0.8305  0.1509  0.5891
  787MOL0     C 6177   6.873   8.252   9.437 -0.3488  0.8032 -0.1582
  787MOL0     H 6178   6.599   8.477   9.069 -0.1880  1.9636 -1.7782
  787MOL0     H 6179   6.393   8.531   8.988  0.2890 -1.6539 -0.0404
  787MOL0     H 6180   6.162   8.707   9.096  0.5218  2.6603 -3.9527
  787MOL0     H 6181   6.196   8.612   8.951  1.4132  1.8938  0.9089
  787MOL0     H 6182   5.955   8.536   8.947 -1.7139 -0.0961  0.5175
  787MOL0     H 6183   5.931   8.638   9.095  2.3020 -3.0053  0.6949
  787MOL0     H 6184   6.001   8.738   8.810 -0.5045  1.3663 -0.2585
  787MOL0     H 6185   5.838   8.720   8.886  0.3007 -0.6846 -5.3352
  787MOL0     H 6186   5.938   8.863   9.066 -0.8167  0.0763  0.2772
  787MOL0     H 6187   6.053   8.912   8.942 -0.3107 -0.3627 -1.8649
  787MOL0     H 6188   5.884   8.986   8.788  0.5690 -3.9998 -0.5477
  787MOL0     H 6189   5.753   8.931   8.890 -0.0565  2.5261  0.2198
  787MOL0     H 6190   5.784   9.072   9.078 -1.8395  1.1386 -0.4290
  787MOL0     H 6191   5.926   9.141   9.001 -0.3490 -0.4863 -1.6906
  787MOL0     H 6192   5.714   9.266   8.990  0.9002  1.6548 -1.7853
  787MOL0     H 6193   5.794   9.240   8.832  1.4804  0.3167  0.7366
  787MOL0     H 6194   5.632   9.066   8.773 -0.3217  1.0585 -0.6973
  787MOL0     H 6195   5.563   9.230   8.794  0.3896  0.8288  0.8673
  787MOL0     H 6196   5.386   9.276   9.001  1.5281  0.1588  0.6729
  787MOL0     H 6197   5.211   9.006   9.238 -0.7344 -1.6377 -2.3610
  787MOL0     H 6198   5.238   9.184   9.236 -2.1421  2.9083 -2.6791
  787MOL0     H 6199   5.061   8.998   9.054 -1.2289 -1.1092  0.9083
  787MOL0     H 6200   5.096   9.156   9.003 -1.5813 -2.2358 -1.0968
  787MOL0     H 6201   5.020   9.223   9.259  2.3697 -1.7585  1.5033
  787MOL0     H 6202   4.975   9.063   9.285  2.8729 -0.3187  0.8667
  787MOL0     H 6203   4.799   9.070   9.136  0.6154  0.8068 -0.8908
  787MOL0     H 6204   4.857   9.194   9.029 -3.2143  0.4472 -0.3855
  787MOL0     H 6205   4.639   9.205   8.977 -0.9357 -1.8178  1.0165
  787MOL0     H 6206   4.357   9.323   8.846 -1.3147 -1.6202 -1.2507
  787MOL0     H 6207   4.460   9.188   8.861 -1.3325 -1.5958 -0.0736
  787MOL0     H 6208   4.324   9.186   8.974  2.2532 -1.3808  0.6409
  787MOL0     H 6209   4.002   9.573   9.099 -1.4340  0.6000 -0.5450
  787MOL0     H 6210   3.761   9.524   9.076 -0.7042 -0.9593  0.4860
  787MOL0     H 6211   3.521   9.401   9.007  0.2595  1.9767  0.6514
  787MOL0     H 6212   3.597   9.526   8.901  1.1129 -0.1120  0.1439
  787MOL0     H 6213   3.452   9.456   8.720 -4.5677  1.5490 -0.6266
  787MOL0     H 6214   3.392   9.304   8.808 -2.6864  0.9598 -0.5961
  787MOL0     H 6215   3.230   9.408   8.900  0.3272 -0.5903 -1.0963
  787MOL0     H 6216   3.251   9.499   8.752 -3.9385 -2.0898  0.8356
  787MOL0     H 6217   3.319   9.541   9.051 -0.1316  1.3945  0.3990
  787MOL0     H 6218   3.397   9.657   8.926  0.2041  0.1638 -1.3576
  787MOL0     H 6219   3.185   9.732   8.868  3.3951 -2.8630 -1.4858
  787MOL0     H 6220   3.225   9.760   9.044  3.9040 -1.9761 -0.1526
  787MOL0     H 6221   3.053   9.528   8.965 -0.5761  0.5239 -0.8106
  787MOL0     H 6222   3.075   9.593   9.131  0.6003 -3.2063 -0.2350
  787MOL0     H 6223   2.958   9.778   8.914  1.9108  2.0199  0.4692
  787MOL0     H 6224   2.954   9.785   9.095 -3.0576 -1.2918  0.7027
  787MOL0     H 6225   2.739   9.749   9.036 -3.1253 -0.6679 -2.3238
  787MOL0     H 6226   2.794   9.595   9.096 -0.1866 -0.2890  0.1761
  787MOL0     H 6227   3.861   9.234   8.771  2.7599 -0.3969 -0.7914
  787MOL0     H 6228   4.096   9.261   8.820  1.6992  1.2019  0.2295
  787MOL0     H 6229   4.442   9.525   9.299  0.4665  0.1713 -0.3244
  787MOL0     H 6230   4.660   9.424   9.338  0.4432  0.4882  0.5496
  787MOL0     H 6231   6.191   8.451   9.363 -0.5182  0.0796 -0.1863
  787MOL0     H 6232   6.413   8.392   9.456  1.4027  2.3501  1.0027
  787MOL0     H 6233   6.981   8.588   9.437 -0.1445  0.0598 -0.1227
  787MOL0     H 6234   7.176   8.490   9.525 -0.6942 -0.3065  2.1940
  787MOL0     H 6235   7.360   8.337   9.440 -2.7248  0.0121 -1.6588
  787MOL0     H 6236   7.336   8.363   9.616  0.5793 -1.6540  1.5687
  787MOL0     H 6237   7.543   8.226   9.547  0.1606  1.0508  1.1359
  787MOL0     H 6238   7.438   8.089   9.514 -1.4778  1.1019 -0.3467
  787MOL0     H 6239   7.320   8.116   9.742  0.4418 -2.4189  1.8540
  787MOL0     H 6240   7.453   8.239   9.781 -0.5547  0.3646 -0.2414
  787MOL0     H 6241   7.574   7.997   9.668 -2.7007  0.2829 -2.1990
  787MOL0     H 6242   7.434   7.948   9.751 -0.3355  0.3444  0.5174
  787MOL0     H 6243   7.625   8.002  10.098 -0.5248 -0.8446 -0.4067
  787MOL0     H 6244   7.005   8.092   9.493 -2.0179 -0.2975  1.0725
  787MOL0     H 6245   6.801   8.181   9.399  1.0875 -0.5883 -0.4156
  788MOL0     O 6246   0.789   9.049   0.501  0.5755 -0.2267  0.2643
  788MOL0     C 6247   0.866   9.118   0.437  0.1060 -0.6928 -0.0194
  788MOL0     O 6248   0.835   9.205   0.335 -0.5852 -0.0421  0.2818
  788MOL0     C 6249   0.707   9.215   0.293 -0.1835  0.4771 -0.1727
  788MOL0     C 6250   0.692   9.238   0.146  0.2448  0.3350 -0.2493
  788MOL0     C 6251   0.559   9.250   0.094 -0.1500 -1.0268  0.5005
  788MOL0     C 6252   0.443   9.236   0.186 -0.8599  0.2637  0.3125
  788MOL0     O 6253   0.316   9.246   0.133  0.2455 -0.4140  0.5077
  788MOL0     C 6254   0.230   9.139   0.177  0.3030 -0.3951 -0.2579
  788MOL0     C 6255   0.139   9.101   0.055 -0.9268  0.1456  1.1128
  788MOL0     C 6256   0.059   9.209  -0.001 -0.7150 -0.2149 -0.6727
  788MOL0     C 6257  -0.051   9.171  -0.101  0.4758 -1.1943 -0.7954
  788MOL0     C 6258  -0.137   9.302  -0.130  0.2794 -0.0094  0.0156
  788MOL0     C 6259  -0.065   9.414  -0.198 -1.2366 -0.4537  0.7033
  788MOL0     C 6260  -0.121   9.557  -0.221  0.3652  0.1349  0.7424
  788MOL0     C 6261  -0.282   9.556  -0.218 -0.4293  1.0465  0.3798
  788MOL0     N 6262  -0.330   9.694  -0.234 -0.1183  0.4244 -0.2758
  788MOL0     C 6263  -0.337   9.791  -0.138  0.0833 -0.1167 -0.5685
  788MOL0     C 6264  -0.369   9.900  -0.206  0.3301 -0.1140  0.0950
  788MOL0     C 6265  -0.387  10.037  -0.156  0.6983 -0.3870  0.0681
  788MOL0     C 6266  -0.528  10.096  -0.155  0.2689  0.6027 -0.1440
  788MOL0     C 6267  -0.618  10.028  -0.050 -0.1370  0.0257  0.6867
  788MOL0     C 6268  -0.749  10.107  -0.043  0.1322 -0.5456  0.3812
  788MOL0     O 6269  -0.815  10.091  -0.161  0.2162 -0.3114  0.0147
  788MOL0     C 6270  -0.927  10.173  -0.178 -0.7486  1.4759 -0.2273
  788MOL0     C 6271  -0.977  10.159  -0.304 -0.9930  0.3856 -0.0089
  788MOL0     C 6272  -1.107  10.194  -0.340  0.4617 -0.7445 -0.5051
  788MOL0     C 6273  -1.134  10.158  -0.483  0.5081  0.2408  0.6297
  788MOL0     C 6274  -1.183  10.280  -0.250  0.7131 -0.1414 -0.5845
  788MOL0     C 6275  -1.306  10.350  -0.292 -0.0022 -0.4873  0.1084
  788MOL0     O 6276  -1.370  10.424  -0.194 -0.4412  0.0703 -0.5487
  788MOL0     C 6277  -1.490  10.486  -0.222  0.0833 -0.1538 -0.0979
  788MOL0     C 6278  -1.493  10.625  -0.248  0.3270 -0.1659 -0.3851
  788MOL0     C 6279  -1.611  10.698  -0.268 -0.6463  0.0242 -0.8999
  788MOL0     C 6280  -1.729  10.625  -0.274  0.1951  0.1432 -0.2228
  788MOL0     O 6281  -1.843  10.694  -0.306  0.6358  0.1810 -0.0505
  788MOL0     C 6282  -1.968  10.644  -0.258 -0.0156 -0.1980 -0.8423
  788MOL0     C 6283  -2.081  10.742  -0.284  0.9072  0.0220 -1.1280
  788MOL0     C 6284  -2.224  10.685  -0.255  0.2206  0.1352 -0.4892
  788MOL0     C 6285  -2.335  10.780  -0.288  0.1087  1.2279  0.7288
  788MOL0     C 6286  -2.469  10.720  -0.300  0.4107 -0.1955 -0.0933
  788MOL0     C 6287  -2.529  10.653  -0.179  0.5543  0.6540 -0.1539
  788MOL0     C 6288  -2.512  10.726  -0.050 -0.3300  1.0468  0.6063
  788MOL0     C 6289  -2.577  10.862  -0.052 -0.3586  0.1968  0.3915
  788MOL0    Cl 6290  -2.750  10.840  -0.056  0.0510 -0.1826  0.1884
  788MOL0     C 6291  -1.729  10.488  -0.249 -0.2903  0.1004  0.6681
  788MOL0     C 6292  -1.611  10.424  -0.229 -0.1025  0.8418  0.9075
  788MOL0     O 6293  -1.344  10.348  -0.409 -0.1865  0.0391 -0.0088
  788MOL0     C 6294  -1.130  10.284  -0.117  0.3293  0.4165  0.3051
  788MOL0     C 6295  -1.007  10.229  -0.080 -0.3304 -0.4899 -0.4257
  788MOL0     N 6296  -0.400   9.863  -0.339  0.1709 -0.7046 -0.1712
  788MOL0     N 6297  -0.362   9.741  -0.351 -0.3859 -0.0549  0.0669
  788MOL0     C 6298   0.467   9.220   0.326  0.1760  0.3117  0.3387
  788MOL0     C 6299   0.595   9.213   0.378 -0.4926 -0.2430  1.1963
  788MOL0     C 6300   1.014   9.119   0.490 -0.0660  0.0106 -1.0374
  788MOL0     C 6301   1.051   9.036   0.603  0.8473 -0.9798 -0.7866
  788MOL0     C 6302   1.181   9.021   0.651 -0.1368 -0.4241  0.0732
  788MOL0     C 6303   1.279   9.093   0.575 -0.5059  0.6119 -0.1365
  788MOL0     O 6304   1.411   9.082   0.630  0.0771  0.4501 -0.1821
  788MOL0     C 6305   1.518   9.162   0.583 -0.4222  0.0695  0.1719
  788MOL0     C 6306   1.645   9.165   0.681  0.6469 -1.0353 -1.3624
  788MOL0     C 6307   1.693   9.029   0.696  0.0018  0.4421  0.0040
  788MOL0     C 6308   1.802   9.007   0.791 -0.5101 -0.1221 -0.4221
  788MOL0     C 6309   1.915   9.089   0.750 -0.6271 -0.0776 -0.7073
  788MOL0     C 6310   2.018   9.145   0.711 -0.4136  0.9046 -0.0301
  788MOL0     C 6311   1.245   9.168   0.458  0.7436  0.2656  0.7115
  788MOL0     C 6312   1.109   9.186   0.417 -0.3350  0.0931 -0.5691
  788MOL0     H 6313   0.786   9.238   0.091 -0.9223  3.6778 -2.5636
  788MOL0     H 6314   0.540   9.253  -0.013 -1.1909 -0.2529  0.6891
  788MOL0     H 6315   0.282   9.047   0.205 -0.8988 -1.2514 -0.7280
  788MOL0     H 6316   0.169   9.171   0.262 -0.6495  1.0892 -1.4547
  788MOL0     H 6317   0.203   9.058  -0.022 -1.2479 -1.3261  1.6297
  788MOL0     H 6318   0.079   9.016   0.089 -3.3875  1.2694 -0.1689
  788MOL0     H 6319   0.007   9.255   0.083  3.1748  2.6382  0.4991
  788MOL0     H 6320   0.127   9.282  -0.046  1.1832 -1.5088 -0.0606
  788MOL0     H 6321   0.000   9.131  -0.189  0.3275 -3.3410  0.0468
  788MOL0     H 6322  -0.114   9.090  -0.063 -1.0836 -0.8048 -2.3884
  788MOL0     H 6323  -0.233   9.284  -0.180 -0.2288  1.4222  0.4267
  788MOL0     H 6324  -0.169   9.341  -0.033  1.6098  0.2136  0.3820
  788MOL0     H 6325   0.031   9.439  -0.152  0.3791  4.6767 -4.2175
  788MOL0     H 6326  -0.044   9.369  -0.296 -2.2072  1.1711 -0.2879
  788MOL0     H 6327  -0.077   9.622  -0.144  0.2314 -0.1335  1.0509
  788MOL0     H 6328  -0.086   9.602  -0.314 -0.7887  0.2353  0.3462
  788MOL0     H 6329  -0.322   9.501  -0.133  0.3061 -0.7737 -0.3817
  788MOL0     H 6330  -0.319   9.489  -0.296  1.1523 -2.1937  2.2258
  788MOL0     H 6331  -0.315   9.781  -0.032 -0.8638  1.6643 -0.1813
  788MOL0     H 6332  -0.335  10.039  -0.059  0.4794 -1.1433  0.2030
  788MOL0     H 6333  -0.324  10.097  -0.223  0.3347  0.0651  0.1260
  788MOL0     H 6334  -0.571  10.078  -0.254 -1.2539 -0.9916  0.7481
  788MOL0     H 6335  -0.538  10.204  -0.138 -2.1898  0.6298 -1.3304
  788MOL0     H 6336  -0.568  10.018   0.047  0.9748 -2.1216 -0.0468
  788MOL0     H 6337  -0.633   9.923  -0.078  0.0890 -0.1726  1.2864
  788MOL0     H 6338  -0.735  10.213  -0.023  0.9383 -0.2127 -1.7343
  788MOL0     H 6339  -0.818  10.065   0.031 -1.1718 -0.0371 -0.5105
  788MOL0     H 6340  -0.906  10.111  -0.370 -1.3235 -2.3369  1.4836
  788MOL0     H 6341  -1.056  10.094  -0.526 -1.7378 -3.3960  1.4921
  788MOL0     H 6342  -1.226  10.102  -0.498  1.8046 -1.3161 -2.3221
  788MOL0     H 6343  -1.136  10.253  -0.536  0.2297  0.6483  1.3560
  788MOL0     H 6344  -1.397  10.674  -0.255  0.3208 -0.2946 -1.6601
  788MOL0     H 6345  -1.618  10.805  -0.284 -2.6230  0.2878  1.1661
  788MOL0     H 6346  -2.000  10.551  -0.305 -0.1040 -0.3090 -0.5646
  788MOL0     H 6347  -1.961  10.624  -0.151 -2.3165  0.4286 -0.5324
  788MOL0     H 6348  -2.065  10.830  -0.222  0.0583  0.5171 -1.5923
  788MOL0     H 6349  -2.071  10.773  -0.388  0.1457  0.2775 -1.1314
  788MOL0     H 6350  -2.233  10.656  -0.150 -1.8707  0.6150 -0.5087
  788MOL0     H 6351  -2.229  10.591  -0.311 -1.2277  0.5364 -1.0494
  788MOL0     H 6352  -2.329  10.863  -0.217 -0.1623  0.6569  1.4176
  788MOL0     H 6353  -2.304  10.823  -0.384 -2.5224 -2.1148 -1.8655
  788MOL0     H 6354  -2.469  10.647  -0.382  0.0346 -0.2850 -0.0146
  788MOL0     H 6355  -2.544  10.792  -0.333  0.7355  0.5265  0.7316
  788MOL0     H 6356  -2.636  10.639  -0.198  0.4025  1.6766 -0.1377
  788MOL0     H 6357  -2.483  10.557  -0.157  0.4308  0.7755  0.6733
  788MOL0     H 6358  -2.406  10.730  -0.024 -0.1614  1.1299 -0.0740
  788MOL0     H 6359  -2.548  10.663   0.032  0.8247  0.2557  0.5281
  788MOL0     H 6360  -2.544  10.930  -0.131 -1.2194 -1.3892 -1.4024
  788MOL0     H 6361  -2.541  10.906   0.042 -0.7410 -2.3223  1.8003
  788MOL0     H 6362  -1.824  10.437  -0.254 -0.3478  0.3224 -1.0954
  788MOL0     H 6363  -1.620  10.319  -0.205 -4.0553  0.9533  0.6256
  788MOL0     H 6364  -1.182  10.340  -0.039 -0.4823  3.2558 -2.1145
  788MOL0     H 6365  -0.990  10.240   0.027 -4.9770  1.6080  0.4007
  788MOL0     H 6366   0.391   9.208   0.403  1.1341  2.0115  1.6306
  788MOL0     H 6367   0.593   9.196   0.485  0.7263  0.2861  1.3208
  788MOL0     H 6368   0.980   8.973   0.656  0.2091  1.5139  1.5249
  788MOL0     H 6369   1.215   8.963   0.737  1.4892  0.6771  0.2251
  788MOL0     H 6370   1.551   9.122   0.486  2.6183  2.8239 -0.1469
  788MOL0     H 6371   1.482   9.264   0.563 -0.8284 -0.2147 -0.5949
  788MOL0     H 6372   1.627   9.210   0.779  3.9415  0.0841 -1.1654
  788MOL0     H 6373   1.726   9.229   0.645  2.8261 -1.4680  2.2709
  788MOL0     H 6374   1.720   8.999   0.594 -0.0897  0.9589 -0.1739
  788MOL0     H 6375   1.600   8.981   0.729  0.6271 -1.1543 -0.4317
  788MOL0     H 6376   1.841   8.905   0.785  2.1260  0.3906  3.6350
  788MOL0     H 6377   1.788   9.031   0.897  2.3181  0.6225 -0.1264
  788MOL0     H 6378   2.099   9.194   0.661  0.0751  0.9859  0.8228
  788MOL0     H 6379   1.318   9.216   0.394 -0.9959 -0.5533 -2.0709
  788MOL0     H 6380   1.083   9.245   0.330 -3.2774 -1.2551 -0.7256
  789MOL0     O 6381   1.059   4.402   9.056  0.5606 -0.5706 -0.0179
  789MOL0     C 6382   0.960   4.429   9.131  0.7718 -0.5246 -0.4502
  789MOL0     O 6383   0.834   4.454   9.087  0.6187  0.5701 -0.0665
  789MOL0     C 6384   0.820   4.439   8.951  0.0343  0.0915  0.1219
  789MOL0     C 6385   0.810   4.554   8.878 -0.0943 -0.7289  0.3232
  789MOL0     C 6386   0.797   4.544   8.738  0.3561  0.2995 -0.6627
  789MOL0     C 6387   0.776   4.419   8.679 -0.7398 -1.1727  0.8873
  789MOL0     O 6388   0.740   4.427   8.548  0.3906  0.0904 -0.3802
  789MOL0     C 6389   0.772   4.320   8.463  0.1336 -0.9596  0.6688
  789MOL0     C 6390   0.636   4.258   8.424 -0.4097 -0.7449  0.9722
  789MOL0     C 6391   0.659   4.148   8.322  0.5814 -0.1952 -0.7432
  789MOL0     C 6392   0.529   4.070   8.286  0.0637 -0.2873 -0.1151
  789MOL0     C 6393   0.413   4.161   8.249  0.4162 -0.3064  0.3375
  789MOL0     C 6394   0.295   4.070   8.211 -0.0760  0.4710  0.4629
  789MOL0     C 6395   0.182   4.143   8.147  1.0425 -0.5582  0.3318
  789MOL0     C 6396   0.075   4.045   8.090 -0.4441 -1.1548  0.1896
  789MOL0     N 6397  -0.011   4.111   7.991  0.1580 -0.4091  0.3853
  789MOL0     C 6398  -0.022   4.056   7.865  0.4254 -0.8705  0.5919
  789MOL0     C 6399  -0.129   4.109   7.805  0.4112 -0.1630 -0.8406
  789MOL0     C 6400  -0.161   4.085   7.663  0.9783 -0.2810 -0.3909
  789MOL0     C 6401  -0.262   4.182   7.602 -0.2322 -0.5327 -0.1304
  789MOL0     C 6402  -0.294   4.175   7.442  0.8488 -0.8525  0.2324
  789MOL0     C 6403  -0.412   4.270   7.413 -0.9523  0.4406  0.3412
  789MOL0     O 6404  -0.515   4.239   7.493 -0.6022  0.5984  0.3454
  789MOL0     C 6405  -0.648   4.276   7.464  0.5212 -0.6865 -0.3590
  789MOL0     C 6406  -0.743   4.251   7.557 -0.0192  0.2700  0.2324
  789MOL0     C 6407  -0.874   4.258   7.517  0.3379  0.0961 -0.5542
  789MOL0     C 6408  -0.970   4.214   7.628  0.1405 -0.1195  0.7682
  789MOL0     C 6409  -0.914   4.318   7.393 -0.3388 -0.5387 -0.1399
  789MOL0     C 6410  -1.052   4.329   7.348 -0.7504 -0.0863  0.5907
  789MOL0     O 6411  -1.077   4.433   7.260 -0.4572 -0.8064  0.4057
  789MOL0     C 6412  -1.193   4.441   7.187 -0.6802  0.0491  0.9319
  789MOL0     C 6413  -1.247   4.570   7.158 -0.1473 -0.5037  0.1902
  789MOL0     C 6414  -1.360   4.578   7.072 -0.4226 -0.4094  0.3975
  789MOL0     C 6415  -1.419   4.466   7.016 -0.8321  0.2554 -0.6192
  789MOL0     O 6416  -1.527   4.476   6.926 -0.0719 -0.3647 -0.8130
  789MOL0     C 6417  -1.599   4.592   6.913  1.2318 -0.4347 -0.2682
  789MOL0     C 6418  -1.741   4.551   6.858 -0.6275 -0.0116  0.3177
  789MOL0     C 6419  -1.823   4.662   6.800  0.0719  0.7098 -0.7559
  789MOL0     C 6420  -1.744   4.732   6.686  1.1781 -0.0399 -1.3621
  789MOL0     C 6421  -1.683   4.646   6.577 -0.1204 -0.0334  0.0250
  789MOL0     C 6422  -1.606   4.728   6.476  0.2730  0.0427 -0.0466
  789MOL0     C 6423  -1.547   4.629   6.376 -0.4155  0.4251  0.3416
  789MOL0     C 6424  -1.454   4.707   6.280  0.3980  0.7910  0.6246
  789MOL0    Cl 6425  -1.551   4.814   6.162 -0.5205 -0.4075 -0.2321
  789MOL0     C 6426  -1.356   4.339   7.036  0.2086 -0.1161  0.6580
  789MOL0     C 6427  -1.238   4.327   7.109 -0.5622  0.1842 -0.0162
  789MOL0     O 6428  -1.138   4.240   7.371 -0.0947  0.0345  0.1409
  789MOL0     C 6429  -0.812   4.387   7.318 -0.4529 -0.2430 -0.6571
  789MOL0     C 6430  -0.675   4.357   7.352  0.6637 -0.4088  0.1414
  789MOL0     N 6431  -0.191   4.200   7.895 -0.6331  1.0086 -0.6303
  789MOL0     N 6432  -0.114   4.195   8.008  0.9960 -0.4675  0.3496
  789MOL0     C 6433   0.764   4.303   8.756 -0.6172  0.1184 -0.5473
  789MOL0     C 6434   0.802   4.313   8.893 -0.4767 -1.0733  0.3228
  789MOL0     C 6435   0.993   4.449   9.277 -0.2739 -0.8438  0.1961
  789MOL0     C 6436   0.915   4.518   9.371  0.6955 -0.4559 -0.0560
  789MOL0     C 6437   0.945   4.516   9.508 -1.1125  0.0260 -0.1810
  789MOL0     C 6438   1.061   4.447   9.547  0.8911 -0.2544 -0.1037
  789MOL0     O 6439   1.110   4.429   9.675 -0.2033  0.3017 -0.2775
  789MOL0     C 6440   1.061   4.510   9.781 -0.3264 -0.6644  0.1628
  789MOL0     C 6441   1.135   4.485   9.904 -0.6544 -0.3872  0.4863
  789MOL0     C 6442   1.071   4.545  10.031  0.6633 -0.0251  0.7448
  789MOL0     C 6443   1.136   4.502  10.167 -0.6894 -0.3447  0.4865
  789MOL0     C 6444   1.258   4.579  10.184  0.1290  0.1511 -0.3612
  789MOL0     C 6445   1.354   4.649  10.194 -0.7599 -0.2985  0.2937
  789MOL0     C 6446   1.142   4.384   9.453 -0.5613 -1.3823  0.0195
  789MOL0     C 6447   1.105   4.390   9.324  0.1307 -0.0027  0.0071
  789MOL0     H 6448   0.834   4.652   8.918  1.0861 -0.2166 -1.5052
  789MOL0     H 6449   0.805   4.635   8.679  2.0139  1.5433  1.3394
  789MOL0     H 6450   0.820   4.365   8.375 -0.7046 -0.6380  0.3575
  789MOL0     H 6451   0.832   4.244   8.511  0.2131 -1.0511  0.4277
  789MOL0     H 6452   0.594   4.211   8.514 -0.1418  1.0083  2.0756
  789MOL0     H 6453   0.567   4.337   8.392  2.1227  1.3066  0.2379
  789MOL0     H 6454   0.685   4.190   8.225  0.0223  1.9614 -0.0045
  789MOL0     H 6455   0.740   4.080   8.353  3.5228  3.0182 -0.8155
  789MOL0     H 6456   0.538   4.000   8.201 -0.0410 -1.5287  0.8602
  789MOL0     H 6457   0.492   4.011   8.371  0.0237  0.8052  0.6328
  789MOL0     H 6458   0.383   4.214   8.340 -3.0248 -1.3700 -0.0296
  789MOL0     H 6459   0.441   4.219   8.160  0.9252 -1.8374 -0.5421
  789MOL0     H 6460   0.329   3.989   8.147  1.7999  0.5887  1.2552
  789MOL0     H 6461   0.253   4.033   8.306  0.8881 -1.5607  0.1505
  789MOL0     H 6462   0.139   4.208   8.223  1.2606  1.2836 -1.0581
  789MOL0     H 6463   0.217   4.205   8.064  0.6636 -0.7438  0.0261
  789MOL0     H 6464   0.021   3.981   8.159  0.0047 -2.5467 -0.7105
  789MOL0     H 6465   0.133   3.971   8.033 -1.2596 -2.7560  1.3948
  789MOL0     H 6466   0.041   3.978   7.824  0.5330 -0.9349  0.8832
  789MOL0     H 6467  -0.064   4.100   7.613  0.9881 -0.5302 -0.4492
  789MOL0     H 6468  -0.202   3.984   7.655  0.6045 -0.0842 -1.0790
  789MOL0     H 6469  -0.215   4.280   7.617 -2.3396  0.4590  0.2643
  789MOL0     H 6470  -0.351   4.177   7.665 -0.1423  0.2825  0.0639
  789MOL0     H 6471  -0.318   4.074   7.405  1.0377  0.5427 -4.3462
  789MOL0     H 6472  -0.201   4.207   7.395  1.7073 -1.9453  1.1440
  789MOL0     H 6473  -0.439   4.255   7.308 -0.9918  3.6899 -0.2169
  789MOL0     H 6474  -0.392   4.378   7.420  2.0773 -0.0716  0.8624
  789MOL0     H 6475  -0.721   4.197   7.648 -0.7201 -1.8865 -0.7919
  789MOL0     H 6476  -1.044   4.141   7.591 -0.7165  1.1473 -0.0900
  789MOL0     H 6477  -0.942   4.181   7.728 -0.8192  1.1333  1.4682
  789MOL0     H 6478  -1.026   4.301   7.664 -1.0934 -1.4064  2.0979
  789MOL0     H 6479  -1.218   4.650   7.226 -2.9391  1.7127 -1.0651
  789MOL0     H 6480  -1.384   4.683   7.057  0.5890  0.0625  1.8875
  789MOL0     H 6481  -1.605   4.640   7.010  4.8522 -0.7135  0.2461
  789MOL0     H 6482  -1.542   4.649   6.839 -2.0791 -1.7224 -4.1656
  789MOL0     H 6483  -1.730   4.476   6.778 -1.3376  0.9321 -0.6978
  789MOL0     H 6484  -1.799   4.508   6.940  0.3856  0.1288  1.1311
  789MOL0     H 6485  -1.849   4.731   6.881  1.2221 -1.1157  1.2700
  789MOL0     H 6486  -1.923   4.633   6.767 -0.6500  2.9177 -0.6546
  789MOL0     H 6487  -1.812   4.805   6.642  1.0719  0.3506 -0.5786
  789MOL0     H 6488  -1.666   4.782   6.745 -1.5885  1.4340  1.4003
  789MOL0     H 6489  -1.759   4.586   6.526  0.3628 -1.4444  0.9303
  789MOL0     H 6490  -1.618   4.579   6.633 -0.4027 -1.8366 -1.6908
  789MOL0     H 6491  -1.671   4.801   6.426  0.2506  0.6284  0.7989
  789MOL0     H 6492  -1.531   4.779   6.538 -0.4791  0.5780  0.4376
  789MOL0     H 6493  -1.632   4.583   6.324 -0.8880 -0.5736  1.9348
  789MOL0     H 6494  -1.495   4.547   6.427 -0.1516 -0.4972 -1.3226
  789MOL0     H 6495  -1.379   4.642   6.232  0.5512 -0.6395  2.6740
  789MOL0     H 6496  -1.404   4.780   6.345 -0.7021  1.2847  0.9334
  789MOL0     H 6497  -1.376   4.247   6.981  4.3255 -1.1997  0.6418
  789MOL0     H 6498  -1.197   4.228   7.122 -0.2575  0.3278  0.1348
  789MOL0     H 6499  -0.833   4.443   7.227 -3.3437 -2.2868 -1.3934
  789MOL0     H 6500  -0.593   4.389   7.288  0.1588  1.3463  0.3244
  789MOL0     H 6501   0.749   4.203   8.716 -1.1415 -0.3247  0.6855
  789MOL0     H 6502   0.813   4.227   8.959  1.1671 -2.4336 -1.6252
  789MOL0     H 6503   0.823   4.569   9.342  1.2553 -0.9050 -2.9247
  789MOL0     H 6504   0.883   4.560   9.585 -2.1319 -0.0119 -0.9639
  789MOL0     H 6505   1.080   4.612   9.744  3.2480 -1.2112  0.1578
  789MOL0     H 6506   0.955   4.486   9.797 -0.4954 -0.1050 -0.0583
  789MOL0     H 6507   1.240   4.517   9.899 -0.1245 -2.0367 -4.2265
  789MOL0     H 6508   1.136   4.376   9.911  1.3519 -0.4134  0.4489
  789MOL0     H 6509   0.972   4.498  10.038  1.3300 -1.7829 -0.8280
  789MOL0     H 6510   1.054   4.653  10.029 -1.2591 -0.2667  1.5803
  789MOL0     H 6511   1.168   4.397  10.161  2.8513  0.6257  0.2098
  789MOL0     H 6512   1.064   4.515  10.247 -0.1555 -1.7506  1.2338
  789MOL0     H 6513   1.435   4.719  10.194  0.5798 -1.7582 -1.2850
  789MOL0     H 6514   1.234   4.337   9.484  0.4433  0.9313  0.7501
  789MOL0     H 6515   1.167   4.338   9.252 -1.9038 -0.1784 -1.7245
  790MOL0     O 6516   1.328   2.466   6.767  0.0845 -0.1951  0.3316
  790MOL0     C 6517   1.349   2.454   6.888  0.3372 -0.0433  0.1767
  790MOL0     O 6518   1.248   2.434   6.989 -0.0182 -0.1669  1.1564
  790MOL0     C 6519   1.120   2.442   6.943  0.0786  1.0855  0.5254
  790MOL0     C 6520   1.061   2.344   6.862  0.6084 -0.6738  0.8328
  790MOL0     C 6521   0.927   2.347   6.827  0.5570 -0.7444  0.3470
  790MOL0     C 6522   0.847   2.446   6.892 -0.2655  0.5977  1.2348
  790MOL0     O 6523   0.706   2.456   6.878 -0.8897  0.0835  0.1485
  790MOL0     C 6524   0.637   2.327   6.848 -0.1556  0.8810 -0.0637
  790MOL0     C 6525   0.517   2.364   6.763  0.2928 -0.2852 -0.2591
  790MOL0     C 6526   0.416   2.457   6.831 -0.7354 -1.0361 -0.4332
  790MOL0     C 6527   0.336   2.523   6.712  0.0162 -0.5555  0.1401
  790MOL0     C 6528   0.207   2.586   6.770 -0.2312 -0.7756 -0.1004
  790MOL0     C 6529   0.136   2.675   6.663  0.6467  0.3086 -0.1768
  790MOL0     C 6530   0.012   2.755   6.731  0.0729  0.7941 -0.1151
  790MOL0     C 6531  -0.049   2.839   6.620  0.2500  0.3819 -0.8940
  790MOL0     N 6532  -0.159   2.916   6.678 -0.2623  0.8756 -0.1737
  790MOL0     C 6533  -0.276   2.846   6.715  0.6836 -0.4690  0.7706
  790MOL0     C 6534  -0.339   2.948   6.785  0.4149  1.0942 -0.2565
  790MOL0     C 6535  -0.472   2.901   6.844  0.9868 -0.4969  0.0823
  790MOL0     C 6536  -0.592   2.928   6.744  0.9591  0.2954  0.1609
  790MOL0     C 6537  -0.726   2.868   6.793  0.5775  0.3834 -0.1051
  790MOL0     C 6538  -0.853   2.903   6.706 -0.0778  0.7124  0.7080
  790MOL0     O 6539  -0.950   2.802   6.752 -0.2124 -0.1034  0.8478
  790MOL0     C 6540  -1.085   2.815   6.714 -0.3120 -0.3315 -0.1218
  790MOL0     C 6541  -1.173   2.713   6.737  1.0261  0.9774  0.3940
  790MOL0     C 6542  -1.312   2.726   6.704  0.0940 -0.0330  0.1405
  790MOL0     C 6543  -1.404   2.611   6.734  0.5690 -0.4940 -0.1975
  790MOL0     C 6544  -1.365   2.845   6.646 -1.1843 -0.7992  0.3068
  790MOL0     C 6545  -1.507   2.890   6.620 -0.0566  0.1255  0.1159
  790MOL0     O 6546  -1.546   3.026   6.620 -0.0391 -0.8118  0.9316
  790MOL0     C 6547  -1.675   3.052   6.583  0.4320 -0.6974  0.3022
  790MOL0     C 6548  -1.721   3.020   6.453 -0.2167  0.2619 -0.7018
  790MOL0     C 6549  -1.861   3.015   6.428 -0.4036 -0.5503  0.1169
  790MOL0     C 6550  -1.947   3.079   6.521  0.4420  0.3072 -0.7729
  790MOL0     O 6551  -2.084   3.083   6.511 -0.0456  0.4269  0.3402
  790MOL0     C 6552  -2.135   3.056   6.375 -0.8461 -0.0042  0.0358
  790MOL0     C 6553  -2.287   3.049   6.382 -0.0072  0.0165 -0.6066
  790MOL0     C 6554  -2.361   3.069   6.244 -0.1313 -0.3190  0.1170
  790MOL0     C 6555  -2.515   3.049   6.250 -0.5268  0.3213 -0.0055
  790MOL0     C 6556  -2.575   3.078   6.113 -0.7447 -0.7022 -1.2096
  790MOL0     C 6557  -2.705   2.998   6.072 -0.2124 -0.8152 -0.0708
  790MOL0     C 6558  -2.823   3.013   6.164 -0.0303 -0.6415 -0.1324
  790MOL0     C 6559  -2.905   2.886   6.178  0.3351  0.0517  0.3262
  790MOL0    Cl 6560  -2.962   2.846   6.015 -0.3627  0.3878  0.4168
  790MOL0     C 6561  -1.901   3.105   6.655  0.2882 -0.4663 -0.4219
  790MOL0     C 6562  -1.770   3.087   6.684 -0.3193 -0.7555  0.2074
  790MOL0     O 6563  -1.584   2.792   6.603  0.3329 -0.2112 -0.6215
  790MOL0     C 6564  -1.269   2.939   6.612  0.6265  0.3373  0.4578
  790MOL0     C 6565  -1.133   2.927   6.650  0.6393 -0.5182 -0.1615
  790MOL0     N 6566  -0.263   3.065   6.784 -0.3244  0.0525  0.9691
  790MOL0     N 6567  -0.151   3.041   6.720 -0.6527 -0.2130 -0.1091
  790MOL0     C 6568   0.909   2.552   6.965 -0.2940  0.9892 -0.2243
  790MOL0     C 6569   1.043   2.544   6.993  0.9522 -0.5623 -0.3215
  790MOL0     C 6570   1.486   2.443   6.930  0.7240 -0.2356 -0.4940
  790MOL0     C 6571   1.533   2.397   7.051 -0.4704 -0.6942  0.0459
  790MOL0     C 6572   1.674   2.390   7.065 -0.0458 -0.3402  0.2678
  790MOL0     C 6573   1.770   2.436   6.972 -0.3701  0.2808 -0.0264
  790MOL0     O 6574   1.901   2.416   7.002  0.8258  0.8108 -0.0021
  790MOL0     C 6575   2.006   2.413   6.902  0.2860  0.1140 -0.1234
  790MOL0     C 6576   2.114   2.336   6.974 -0.1607  0.3515  0.2526
  790MOL0     C 6577   2.241   2.331   6.897  0.3259 -0.6429  0.3275
  790MOL0     C 6578   2.243   2.256   6.764 -0.0669  0.8604 -0.1010
  790MOL0     C 6579   2.350   2.298   6.678 -0.2656 -0.3427 -0.1163
  790MOL0     C 6580   2.445   2.340   6.612 -0.4139  0.4289 -0.0640
  790MOL0     C 6581   1.720   2.488   6.853 -0.0841 -0.7169 -0.3824
  790MOL0     C 6582   1.582   2.491   6.830 -0.9650 -0.2052  0.3640
  790MOL0     H 6583   1.132   2.270   6.828  1.7522 -0.9209  3.4437
  790MOL0     H 6584   0.903   2.266   6.760  0.2198  0.1940 -0.7006
  790MOL0     H 6585   0.698   2.256   6.791 -0.6936  0.2131  0.1783
  790MOL0     H 6586   0.598   2.276   6.937 -2.1499 -0.1905 -1.4623
  790MOL0     H 6587   0.551   2.411   6.671 -0.5284 -1.1961 -1.0592
  790MOL0     H 6588   0.489   2.262   6.734  2.5967 -0.8708 -0.6133
  790MOL0     H 6589   0.347   2.396   6.890 -1.9844 -0.5727 -1.3809
  790MOL0     H 6590   0.444   2.541   6.896 -4.6467 -1.1847  1.7843
  790MOL0     H 6591   0.400   2.577   6.641  0.3888 -1.4835 -0.2585
  790MOL0     H 6592   0.300   2.447   6.641 -0.1924  3.2613 -4.3228
  790MOL0     H 6593   0.130   2.512   6.793 -0.4915 -0.2307  0.8662
  790MOL0     H 6594   0.232   2.641   6.862 -0.4881 -0.8799  0.0309
  790MOL0     H 6595   0.203   2.748   6.617  0.4955 -0.6717 -2.0520
  790MOL0     H 6596   0.104   2.618   6.575  1.3586  0.4564 -0.5467
  790MOL0     H 6597  -0.058   2.675   6.758  1.5158 -0.5927 -0.3616
  790MOL0     H 6598   0.030   2.810   6.824  1.2973  0.5697 -0.2083
  790MOL0     H 6599  -0.095   2.775   6.544 -0.6749 -0.0220  0.0007
  790MOL0     H 6600   0.026   2.905   6.574  0.1899  0.0646 -1.4643
  790MOL0     H 6601  -0.313   2.745   6.705 -0.0666 -0.1803  0.5518
  790MOL0     H 6602  -0.462   2.798   6.877  0.0875 -1.0660 -1.3348
  790MOL0     H 6603  -0.480   2.963   6.934 -1.8589 -0.8050  0.1438
  790MOL0     H 6604  -0.557   2.882   6.651  1.2024  1.0882 -0.1523
  790MOL0     H 6605  -0.612   3.035   6.729  0.8969  0.0326 -1.8928
  790MOL0     H 6606  -0.747   2.902   6.894  4.2282 -3.8395  2.3989
  790MOL0     H 6607  -0.721   2.760   6.802 -1.2262  0.2072 -0.7471
  790MOL0     H 6608  -0.832   2.917   6.599  2.5680  1.0264  1.1958
  790MOL0     H 6609  -0.885   3.003   6.736  2.3048  1.7862 -0.0478
  790MOL0     H 6610  -1.135   2.622   6.782 -0.9158 -0.0844 -0.0070
  790MOL0     H 6611  -1.487   2.646   6.796  1.7437  1.3567  0.4128
  790MOL0     H 6612  -1.437   2.561   6.643 -0.2487 -2.1570  0.9432
  790MOL0     H 6613  -1.349   2.532   6.787  1.5600 -0.3396 -0.9699
  790MOL0     H 6614  -1.642   2.983   6.388 -0.1325 -0.9742  0.0902
  790MOL0     H 6615  -1.894   2.982   6.330  0.8252 -0.3183 -0.3975
  790MOL0     H 6616  -2.102   3.132   6.303 -0.5391 -1.3596 -1.3000
  790MOL0     H 6617  -2.090   2.966   6.333 -2.4440 -0.3396 -1.0775
  790MOL0     H 6618  -2.300   2.949   6.424 -2.2005  0.6554  0.4052
  790MOL0     H 6619  -2.322   3.128   6.449 -1.7474  0.9633 -2.5050
  790MOL0     H 6620  -2.309   3.017   6.163  0.5874 -0.3898  0.6190
  790MOL0     H 6621  -2.360   3.172   6.208 -1.8711 -1.9084 -5.4756
  790MOL0     H 6622  -2.530   2.943   6.272 -1.2221  0.7699  1.8568
  790MOL0     H 6623  -2.562   3.106   6.330 -2.8341  0.6537 -1.4973
  790MOL0     H 6624  -2.506   3.054   6.032  2.0567  1.6666  0.2728
  790MOL0     H 6625  -2.590   3.187   6.108  0.3771 -0.2458  2.3177
  790MOL0     H 6626  -2.733   3.030   5.972  1.0740 -0.2901 -0.2855
  790MOL0     H 6627  -2.676   2.893   6.065  2.9319 -0.1040  0.5853
  790MOL0     H 6628  -2.890   3.092   6.127 -3.4144 -3.7782 -1.3183
  790MOL0     H 6629  -2.796   3.041   6.267 -3.3010  1.0364  0.4181
  790MOL0     H 6630  -2.987   2.889   6.251  0.1577  0.7159  0.1064
  790MOL0     H 6631  -2.834   2.809   6.211  0.5327  0.5508  1.0901
  790MOL0     H 6632  -1.973   3.125   6.733 -1.8929  3.5342 -3.0863
  790MOL0     H 6633  -1.736   3.092   6.786  0.1863  0.2049 -0.0038
  790MOL0     H 6634  -1.299   3.031   6.564  0.6480  0.1906  0.1577
  790MOL0     H 6635  -1.070   3.012   6.627 -1.9241  1.2429 -1.2011
  790MOL0     H 6636   0.846   2.633   7.000 -2.4856 -0.3736 -0.8434
  790MOL0     H 6637   1.094   2.615   7.056  0.2711 -2.7739  2.9851
  790MOL0     H 6638   1.465   2.365   7.130  0.9738 -2.5649  0.6097
  790MOL0     H 6639   1.711   2.356   7.161 -0.3378  3.7025  1.9962
  790MOL0     H 6640   1.969   2.354   6.818  2.7980 -0.9876 -0.5456
  790MOL0     H 6641   2.033   2.511   6.862 -0.8507  0.3234 -0.4011
  790MOL0     H 6642   2.076   2.234   6.990 -1.2520  0.6468 -0.3121
  790MOL0     H 6643   2.139   2.379   7.071 -5.6996  0.5171  1.9851
  790MOL0     H 6644   2.320   2.289   6.960  0.9541 -1.5769 -1.0332
  790MOL0     H 6645   2.279   2.431   6.875  3.1302 -1.4700  1.0076
  790MOL0     H 6646   2.147   2.275   6.717  0.1477  2.5978  0.0866
  790MOL0     H 6647   2.243   2.150   6.792 -0.4836  0.7630 -0.4656
  790MOL0     H 6648   2.533   2.382   6.566 -1.2204  1.5280 -0.6469
  790MOL0     H 6649   1.795   2.528   6.784 -3.3295  4.2284 -1.5217
  790MOL0     H 6650   1.553   2.542   6.739  0.7724  1.3624  0.6246
  791MOL0     O 6651   0.916   1.297  11.240 -0.7239  0.5255  0.6026
  791MOL0     C 6652   0.961   1.370  11.328 -0.3009 -0.4553  0.8584
  791MOL0     O 6653   0.887   1.441  11.415  0.4553  0.3359  0.1313
  791MOL0     C 6654   0.751   1.420  11.416  0.6295 -0.8774 -0.6199
  791MOL0     C 6655   0.658   1.526  11.395 -1.0097 -0.1110 -0.3772
  791MOL0     C 6656   0.516   1.513  11.403 -1.4652 -0.1996  0.0502
  791MOL0     C 6657   0.470   1.386  11.434  0.1495 -0.2318  0.8822
  791MOL0     O 6658   0.338   1.361  11.436 -0.0217 -0.0197  0.0280
  791MOL0     C 6659   0.293   1.375  11.305  0.0977  0.0831  0.0908
  791MOL0     C 6660   0.175   1.289  11.271  0.7458  0.0859 -0.2273
  791MOL0     C 6661   0.178   1.226  11.127  0.8112  0.0474 -1.4381
  791MOL0     C 6662   0.077   1.107  11.105  0.8128  0.4781  0.2407
  791MOL0     C 6663  -0.078   1.131  11.116 -0.1012  0.0485 -0.9585
  791MOL0     C 6664  -0.131   1.248  11.027 -0.2852  0.9324 -0.2841
  791MOL0     C 6665  -0.291   1.236  11.033 -0.1307  0.1322  0.2372
  791MOL0     C 6666  -0.345   1.340  10.940 -0.2353  0.2589  0.4474
  791MOL0     N 6667  -0.490   1.322  10.920  0.3652  0.1659 -0.1513
  791MOL0     C 6668  -0.580   1.384  11.000  0.3185  0.0137 -0.0955
  791MOL0     C 6669  -0.692   1.351  10.953  0.7658  0.4027  0.1971
  791MOL0     C 6670  -0.826   1.359  11.026  0.3551  0.3743  0.0860
  791MOL0     C 6671  -0.912   1.460  10.943 -0.5577 -0.3196  0.6543
  791MOL0     C 6672  -1.059   1.455  10.987  0.1048 -0.0542 -0.4441
  791MOL0     C 6673  -1.149   1.498  10.868 -0.6680  0.3715 -0.3994
  791MOL0     O 6674  -1.276   1.508  10.928  0.5327  1.1292  0.0371
  791MOL0     C 6675  -1.353   1.605  10.866  0.8721 -0.0528 -0.1606
  791MOL0     C 6676  -1.328   1.738  10.876 -0.2073 -0.0791 -0.1415
  791MOL0     C 6677  -1.410   1.825  10.809 -0.4215 -0.9768 -0.5838
  791MOL0     C 6678  -1.368   1.968  10.824  0.2838  0.1671 -0.4554
  791MOL0     C 6679  -1.531   1.774  10.747  0.7667 -1.0284 -1.4255
  791MOL0     C 6680  -1.620   1.864  10.679 -0.9257  0.7595 -0.8522
  791MOL0     O 6681  -1.744   1.824  10.671  0.0700  1.1464  0.1977
  791MOL0     C 6682  -1.849   1.891  10.620  0.7565  0.0745  0.3439
  791MOL0     C 6683  -1.845   1.986  10.518 -0.5422 -0.3826 -0.1355
  791MOL0     C 6684  -1.966   2.045  10.475 -0.3577  0.0575 -0.2034
  791MOL0     C 6685  -2.091   2.009  10.540  0.0163 -0.3352  0.9910
  791MOL0     O 6686  -2.213   2.068  10.514 -0.2069  0.4561 -0.4976
  791MOL0     C 6687  -2.231   2.154  10.402  0.2714  0.1478  0.7019
  791MOL0     C 6688  -2.351   2.245  10.433 -0.3613 -0.4419 -0.0273
  791MOL0     C 6689  -2.481   2.173  10.455  1.6789  0.0131  0.0524
  791MOL0     C 6690  -2.525   2.072  10.337  0.1300 -0.1951  0.0305
  791MOL0     C 6691  -2.660   2.021  10.371  0.3561  0.2830 -0.1028
  791MOL0     C 6692  -2.768   2.127  10.322 -0.5914 -0.0851  0.6075
  791MOL0     C 6693  -2.911   2.064  10.339 -0.7633  0.0590 -0.0095
  791MOL0     C 6694  -2.971   2.087  10.475 -0.7812 -0.3530 -1.0578
  791MOL0    Cl 6695  -3.004   2.271  10.481 -0.4817  0.0350  0.0477
  791MOL0     C 6696  -2.084   1.919  10.650  0.2215  0.8098  0.1703
  791MOL0     C 6697  -1.965   1.867  10.692  0.0371 -0.1766  0.3619
  791MOL0     O 6698  -1.581   1.967  10.632  0.5465  0.2484 -0.4156
  791MOL0     C 6699  -1.557   1.645  10.745 -1.0688  1.4981  0.1377
  791MOL0     C 6700  -1.473   1.557  10.806  0.1425  0.7021  0.1327
  791MOL0     N 6701  -0.675   1.281  10.839 -0.3839 -0.4563  0.8309
  791MOL0     N 6702  -0.552   1.270  10.806  0.2089 -0.0020 -1.1517
  791MOL0     C 6703   0.555   1.281  11.457 -0.1552  0.3410 -0.8451
  791MOL0     C 6704   0.698   1.289  11.444  0.5295 -0.9752  0.4162
  791MOL0     C 6705   1.111   1.378  11.341  0.4698  0.2206 -0.4594
  791MOL0     C 6706   1.162   1.462  11.446  0.8632 -0.1712 -0.1764
  791MOL0     C 6707   1.294   1.495  11.452 -0.2044  0.0515 -0.7617
  791MOL0     C 6708   1.390   1.435  11.366  0.5074  0.0594 -0.1856
  791MOL0     O 6709   1.522   1.464  11.359 -1.0726  0.2592  0.3509
  791MOL0     C 6710   1.567   1.584  11.412 -0.3863 -0.4014  0.4777
  791MOL0     C 6711   1.720   1.610  11.395  0.6327 -0.6851  0.3112
  791MOL0     C 6712   1.795   1.508  11.472  0.6622  0.2092 -0.2403
  791MOL0     C 6713   1.934   1.545  11.491 -0.2741 -0.2429 -0.4908
  791MOL0     C 6714   2.001   1.443  11.571 -0.2775  0.1435 -0.4390
  791MOL0     C 6715   2.036   1.357  11.647 -0.7015  0.8826 -0.9299
  791MOL0     C 6716   1.338   1.340  11.271  0.6290  0.1207 -0.0297
  791MOL0     C 6717   1.206   1.316  11.259  0.0351  0.1406 -0.2908
  791MOL0     H 6718   0.693   1.626  11.371 -2.5866  0.8717  1.2090
  791MOL0     H 6719   0.451   1.600  11.395  0.8935  1.7691  1.0154
  791MOL0     H 6720   0.268   1.482  11.294  3.7547  1.2542  1.6876
  791MOL0     H 6721   0.373   1.357  11.232 -0.7053 -0.4954 -0.6633
  791MOL0     H 6722   0.164   1.207  11.343 -2.0257  1.2803  0.9009
  791MOL0     H 6723   0.088   1.355  11.276  1.2047  1.0077 -2.9312
  791MOL0     H 6724   0.150   1.314  11.068 -0.1637  1.4403  0.9646
  791MOL0     H 6725   0.280   1.198  11.097  1.6328  0.1381  0.9886
  791MOL0     H 6726   0.091   1.085  10.999 -2.7152 -0.4618 -0.1392
  791MOL0     H 6727   0.100   1.021  11.168  0.1659  0.1823  0.0735
  791MOL0     H 6728  -0.117   1.032  11.094 -1.6595  0.4759 -0.2312
  791MOL0     H 6729  -0.106   1.149  11.220  0.8860 -2.2674 -0.2310
  791MOL0     H 6730  -0.102   1.351  11.049 -0.5380  1.2798 -1.4670
  791MOL0     H 6731  -0.093   1.235  10.925  0.6078  0.0918  0.1460
  791MOL0     H 6732  -0.319   1.131  11.016  2.6034 -1.0039  2.0732
  791MOL0     H 6733  -0.313   1.260  11.137 -0.2234 -1.0863  0.5174
  791MOL0     H 6734  -0.298   1.334  10.841  0.6384  0.4922  0.8369
  791MOL0     H 6735  -0.327   1.436  10.988 -1.1224  0.5143  0.2874
  791MOL0     H 6736  -0.565   1.435  11.094 -2.2373  0.9064 -0.0836
  791MOL0     H 6737  -0.865   1.258  11.041 -1.2128  0.5545 -2.2668
  791MOL0     H 6738  -0.811   1.401  11.126 -1.7371  0.6471  0.3229
  791MOL0     H 6739  -0.895   1.445  10.836  0.0073  1.8894  0.3812
  791MOL0     H 6740  -0.871   1.560  10.962 -0.2685  0.2764 -2.5052
  791MOL0     H 6741  -1.068   1.516  11.078  3.4031 -3.7671  2.7595
  791MOL0     H 6742  -1.088   1.354  11.016  0.0245 -0.4879 -1.9698
  791MOL0     H 6743  -1.145   1.420  10.791 -3.0819 -0.3106  0.0803
  791MOL0     H 6744  -1.127   1.594  10.822  0.0798  0.9454  1.0863
  791MOL0     H 6745  -1.244   1.764  10.940 -1.4830  0.8502  1.1982
  791MOL0     H 6746  -1.274   1.973  10.879 -0.0414 -0.9603  0.2288
  791MOL0     H 6747  -1.347   2.029  10.736  1.9714  1.6259  0.8921
  791MOL0     H 6748  -1.441   2.014  10.892  1.2301 -1.3897  1.7428
  791MOL0     H 6749  -1.754   2.013  10.465  0.5615 -1.0602  1.3503
  791MOL0     H 6750  -1.962   2.117  10.394  0.7938 -0.9831 -1.1111
  791MOL0     H 6751  -2.155   2.231  10.388  0.4107 -0.0728  0.2111
  791MOL0     H 6752  -2.238   2.099  10.308 -0.7822  1.3552  0.0360
  791MOL0     H 6753  -2.323   2.305  10.520 -2.3440  0.6317 -0.0691
  791MOL0     H 6754  -2.358   2.303  10.341 -0.3883 -2.7735 -1.6030
  791MOL0     H 6755  -2.557   2.251  10.455  1.3089 -0.3415  0.9053
  791MOL0     H 6756  -2.481   2.119  10.550 -1.0746  1.5948  1.0541
  791MOL0     H 6757  -2.530   2.129  10.244 -1.8840 -0.0472  0.1911
  791MOL0     H 6758  -2.456   1.987  10.334 -2.1229 -2.3131  2.7798
  791MOL0     H 6759  -2.662   1.994  10.477  0.6768  0.1007 -0.1396
  791MOL0     H 6760  -2.671   1.927  10.318  1.9737  0.1781 -0.3165
  791MOL0     H 6761  -2.758   2.228  10.364 -2.1436  1.8564 -3.1886
  791MOL0     H 6762  -2.748   2.138  10.215 -0.1660 -1.5031  0.5213
  791MOL0     H 6763  -2.905   1.961  10.305  1.9129  0.3390 -0.6586
  791MOL0     H 6764  -2.969   2.113  10.261 -0.0243 -3.2379 -2.8696
  791MOL0     H 6765  -2.908   2.059  10.560 -1.8108 -1.1327 -0.5354
  791MOL0     H 6766  -3.061   2.027  10.484 -1.4415  0.8932  2.0047
  791MOL0     H 6767  -2.179   1.908  10.701 -0.2962  1.9966 -0.4726
  791MOL0     H 6768  -1.944   1.783  10.758  3.9012  0.9793  0.8596
  791MOL0     H 6769  -1.644   1.613  10.689  0.7114  3.3226 -4.1221
  791MOL0     H 6770  -1.500   1.452  10.813  2.0221  0.2354  1.1439
  791MOL0     H 6771   0.514   1.182  11.468 -1.8162  1.2482  3.0504
  791MOL0     H 6772   0.757   1.200  11.465  2.0586 -0.3877 -1.1146
  791MOL0     H 6773   1.085   1.504  11.509 -1.1671 -2.1673 -1.2178
  791MOL0     H 6774   1.321   1.563  11.532 -4.8433  1.5744 -0.2426
  791MOL0     H 6775   1.522   1.668  11.358 -1.9151 -0.0830  2.1198
  791MOL0     H 6776   1.531   1.605  11.514 -0.6638 -0.3295  0.3648
  791MOL0     H 6777   1.744   1.712  11.424 -2.5777  0.4454 -0.5831
  791MOL0     H 6778   1.750   1.596  11.291  1.2737 -1.9117  0.6312
  791MOL0     H 6779   1.781   1.410  11.426  2.2123 -0.7461  1.2020
  791MOL0     H 6780   1.757   1.488  11.572  1.1396 -1.6990 -0.4113
  791MOL0     H 6781   1.930   1.638  11.549  0.7718 -1.5263  1.8022
  791MOL0     H 6782   1.985   1.558  11.395  0.7391 -1.4642 -0.1567
  791MOL0     H 6783   2.058   1.285  11.723 -2.5488  2.3991  1.1706
  791MOL0     H 6784   1.412   1.307  11.199  1.6529  0.2131  0.9349
  791MOL0     H 6785   1.176   1.257  11.172  1.9856 -0.7043 -0.4374
  792MOL0     O 6786   1.963  10.658   7.261 -0.6450  0.7757  0.1415
  792MOL0     C 6787   1.979  10.569   7.169 -0.0274 -0.5573  0.7191
  792MOL0     O 6788   1.890  10.486   7.108 -0.3655 -0.1357  0.4667
  792MOL0     C 6789   1.756  10.508   7.140  0.3172 -0.5127  0.2955
  792MOL0     C 6790   1.707  10.457   7.258 -0.1020  0.4900 -1.0712
  792MOL0     C 6791   1.571  10.444   7.279  0.8256  0.5040  0.3706
  792MOL0     C 6792   1.476  10.494   7.176 -0.3402  1.3705  0.5097
  792MOL0     O 6793   1.340  10.489   7.197  0.2930 -0.6637 -0.4366
  792MOL0     C 6794   1.233  10.535   7.113  0.0992 -0.3309 -0.0633
  792MOL0     C 6795   1.098  10.456   7.134 -0.8695  1.8255 -0.2022
  792MOL0     C 6796   0.997  10.465   7.024 -0.6596  0.1488  0.6001
  792MOL0     C 6797   0.854  10.466   7.063  0.1300  0.4818  0.2232
  792MOL0     C 6798   0.771  10.474   6.934 -0.7084 -0.0324 -0.6681
  792MOL0     C 6799   0.621  10.495   6.964  0.0044 -0.3984 -0.7366
  792MOL0     C 6800   0.547  10.530   6.839 -0.2362  0.9049  0.1170
  792MOL0     C 6801   0.399  10.548   6.854  0.8600 -0.2000 -0.4093
  792MOL0     N 6802   0.350  10.594   6.727 -0.0784  0.8197 -0.0457
  792MOL0     C 6803   0.260  10.528   6.644 -0.7185  0.1292 -0.3320
  792MOL0     C 6804   0.229  10.603   6.531 -0.6169  0.2805  0.1406
  792MOL0     C 6805   0.138  10.565   6.418  0.2985  1.1392  0.6319
  792MOL0     C 6806   0.126  10.667   6.305 -0.3993 -0.4976 -0.5170
  792MOL0     C 6807   0.018  10.627   6.207  1.0424 -0.7746 -0.7536
  792MOL0     C 6808  -0.126  10.677   6.234  0.4491 -0.8196 -0.0663
  792MOL0     O 6809  -0.210  10.602   6.151 -0.2907  0.0143 -0.1514
  792MOL0     C 6810  -0.344  10.614   6.157 -0.4997  0.1898 -1.4342
  792MOL0     C 6811  -0.414  10.536   6.069  0.0726  0.0902  0.0547
  792MOL0     C 6812  -0.556  10.530   6.069 -0.5137 -0.1950  0.2903
  792MOL0     C 6813  -0.614  10.407   6.001  0.2897  0.0055  1.4977
  792MOL0     C 6814  -0.628  10.625   6.137  0.4585 -0.3000 -0.4118
  792MOL0     C 6815  -0.780  10.642   6.137  0.3250 -0.3393  0.8708
  792MOL0     O 6816  -0.848  10.560   6.061 -0.2327  0.5033 -0.1810
  792MOL0     C 6817  -0.983  10.541   6.074 -0.5580 -0.6172 -0.6700
  792MOL0     C 6818  -1.034  10.425   6.010  0.0250  0.4532 -0.1635
  792MOL0     C 6819  -1.170  10.378   6.018 -0.0391 -1.1328  0.1751
  792MOL0     C 6820  -1.261  10.458   6.087 -0.2206  0.9575  0.4503
  792MOL0     O 6821  -1.383  10.410   6.118  0.3554 -0.2853 -0.0493
  792MOL0     C 6822  -1.487  10.484   6.057  0.0730  0.1359  0.5657
  792MOL0     C 6823  -1.625  10.437   6.104 -0.4065 -0.0387  0.1573
  792MOL0     C 6824  -1.636  10.472   6.246 -0.6331  0.3701 -0.6150
  792MOL0     C 6825  -1.747  10.395   6.318  0.3002 -0.2086 -0.5323
  792MOL0     C 6826  -1.900  10.421   6.275  0.0116  0.6580 -0.2331
  792MOL0     C 6827  -1.997  10.348   6.363 -0.3321 -0.3491  0.1938
  792MOL0     C 6828  -2.004  10.440   6.489  0.2305  0.0698  0.1077
  792MOL0     C 6829  -2.143  10.428   6.570  0.2591  0.5162 -0.4397
  792MOL0    Cl 6830  -2.133  10.409   6.751 -0.1485 -0.1963 -0.2188
  792MOL0     C 6831  -1.220  10.569   6.165 -0.6061 -0.1554  1.1726
  792MOL0     C 6832  -1.082  10.610   6.154  0.1885  0.2849  0.1778
  792MOL0     O 6833  -0.830  10.732   6.201 -0.0512  0.2022 -0.2794
  792MOL0     C 6834  -0.558  10.717   6.213  0.9497 -0.3417 -0.1995
  792MOL0     C 6835  -0.416  10.719   6.224  0.7522 -1.2153  0.1322
  792MOL0     N 6836   0.312  10.709   6.548 -0.0823 -0.1650  0.4870
  792MOL0     N 6837   0.390  10.699   6.656  0.3539 -0.1903  0.6696
  792MOL0     C 6838   1.532  10.557   7.061  0.5240 -0.0441 -0.2546
  792MOL0     C 6839   1.673  10.563   7.046  0.9504  0.3160  0.1448
  792MOL0     C 6840   2.120  10.548   7.137 -0.5231  0.3856 -0.7862
  792MOL0     C 6841   2.161  10.452   7.042 -0.0239 -0.1358  0.7155
  792MOL0     C 6842   2.297  10.437   6.997  0.4806 -0.4418 -0.0348
  792MOL0     C 6843   2.396  10.504   7.045 -0.3159 -0.8302  0.1598
  792MOL0     O 6844   2.520  10.487   6.990  0.2249  0.3129 -0.0151
  792MOL0     C 6845   2.636  10.546   7.056 -0.3421  0.3527  0.8168
  792MOL0     C 6846   2.742  10.437   7.052 -0.1564  0.7023  0.8942
  792MOL0     C 6847   2.799  10.413   6.907  0.0848 -0.0507 -0.0864
  792MOL0     C 6848   2.955  10.414   6.908  0.3336  0.3290  0.1939
  792MOL0     C 6849   3.018  10.374   6.780  0.2251  0.0320  0.2089
  792MOL0     C 6850   3.067  10.333   6.677  0.8408  0.2268 -0.3887
  792MOL0     C 6851   2.360  10.613   7.133 -0.3649 -0.1216 -0.2557
  792MOL0     C 6852   2.225  10.631   7.192  0.4952  1.0062  0.1942
  792MOL0     H 6853   1.776  10.405   7.324 -2.8406  0.7547  2.3054
  792MOL0     H 6854   1.523  10.396   7.364 -0.6906 -0.9352 -1.2178
  792MOL0     H 6855   1.207  10.636   7.147  0.0505 -0.8816  1.6054
  792MOL0     H 6856   1.264  10.532   7.008 -1.5026 -0.6129 -0.5610
  792MOL0     H 6857   1.110  10.349   7.154 -1.9562  1.3116 -2.0382
  792MOL0     H 6858   1.058  10.495   7.228 -0.2919  1.8716  0.0322
  792MOL0     H 6859   1.025  10.553   6.965  0.7675  0.6501  1.9520
  792MOL0     H 6860   1.013  10.380   6.958  0.6766  0.1122  0.9303
  792MOL0     H 6861   0.857  10.376   7.125  2.7698  1.8140  2.3117
  792MOL0     H 6862   0.825  10.541   7.138  0.7441  0.9580 -0.0073
  792MOL0     H 6863   0.819  10.561   6.888  0.6127  0.9896  2.3756
  792MOL0     H 6864   0.782  10.381   6.877  0.3225 -1.4385  1.6822
  792MOL0     H 6865   0.580  10.404   7.010 -1.4441 -0.8578 -2.7768
  792MOL0     H 6866   0.610  10.576   7.037  0.6639  1.6420 -2.7890
  792MOL0     H 6867   0.590  10.615   6.784 -0.2713 -1.2255 -3.5831
  792MOL0     H 6868   0.570  10.454   6.764 -0.6574  0.6584  0.2401
  792MOL0     H 6869   0.378  10.624   6.931 -1.0390 -0.7432 -0.3365
  792MOL0     H 6870   0.354  10.458   6.897 -0.2718  1.0214  1.1303
  792MOL0     H 6871   0.226  10.427   6.662 -0.4048  0.6029  4.3503
  792MOL0     H 6872   0.166  10.464   6.388  0.9447  2.0779 -2.3262
  792MOL0     H 6873   0.037  10.567   6.458  0.8722  0.1980  2.2252
  792MOL0     H 6874   0.216  10.660   6.243 -0.6884  0.9088 -1.1263
  792MOL0     H 6875   0.103  10.765   6.347 -0.7258  0.5106 -2.9000
  792MOL0     H 6876   0.009  10.518   6.209 -1.9705 -0.5975  0.9919
  792MOL0     H 6877   0.045  10.662   6.107 -0.1449 -0.6231 -1.0321
  792MOL0     H 6878  -0.126  10.779   6.196  0.9653 -0.0910  1.8098
  792MOL0     H 6879  -0.157  10.679   6.339  1.0472  1.3322  0.1066
  792MOL0     H 6880  -0.347  10.480   6.004 -1.7082  0.1166 -1.9159
  792MOL0     H 6881  -0.652  10.436   5.903  0.8746 -0.3832  1.1534
  792MOL0     H 6882  -0.536  10.332   5.986 -1.2568 -1.4643  0.5229
  792MOL0     H 6883  -0.686  10.351   6.062 -1.6494  0.3969 -0.3153
  792MOL0     H 6884  -0.963  10.368   5.951 -1.0731  0.9459 -2.0672
  792MOL0     H 6885  -1.201  10.286   5.969  2.5034 -1.4702 -0.9877
  792MOL0     H 6886  -1.469  10.588   6.085  2.7199 -0.7623  2.5213
  792MOL0     H 6887  -1.486  10.463   5.949 -0.3612 -1.6220  0.8821
  792MOL0     H 6888  -1.711  10.475   6.047 -1.0620  0.3975  1.4044
  792MOL0     H 6889  -1.623  10.328   6.090 -0.6304  0.1548 -1.6895
  792MOL0     H 6890  -1.653  10.580   6.242 -0.0313  0.4534 -1.2272
  792MOL0     H 6891  -1.543  10.451   6.300 -0.9736  0.3619 -0.0311
  792MOL0     H 6892  -1.733  10.287   6.309 -0.3906 -0.3766  0.2538
  792MOL0     H 6893  -1.741  10.406   6.427 -3.5250  0.6679 -0.2729
  792MOL0     H 6894  -1.916  10.379   6.175 -0.5471  0.8371 -0.2211
  792MOL0     H 6895  -1.911  10.526   6.248  1.7322  1.2125  1.0233
  792MOL0     H 6896  -2.091  10.343   6.307  0.2297  0.1967 -0.8216
  792MOL0     H 6897  -1.967  10.246   6.388 -0.6558 -0.1307  1.5762
  792MOL0     H 6898  -1.996  10.545   6.459 -2.4021  0.3004 -0.0408
  792MOL0     H 6899  -1.921  10.424   6.557  3.2444  0.0837 -3.2900
  792MOL0     H 6900  -2.187  10.335   6.531  4.6932 -0.3954 -4.1935
  792MOL0     H 6901  -2.209  10.512   6.551 -0.6468 -0.3907 -1.4328
  792MOL0     H 6902  -1.295  10.629   6.216 -1.1183 -0.9639  1.4006
  792MOL0     H 6903  -1.059  10.686   6.228 -1.8470  1.3066 -0.1532
  792MOL0     H 6904  -0.609  10.793   6.270 -0.9356  0.1065 -2.3189
  792MOL0     H 6905  -0.375  10.800   6.284 -0.1993 -0.3206 -0.3890
  792MOL0     H 6906   1.472  10.602   6.982  0.5644  0.6792  0.1181
  792MOL0     H 6907   1.703  10.616   6.956  0.4316  0.1255 -0.1463
  792MOL0     H 6908   2.084  10.387   7.002 -0.0849 -0.8709  1.9643
  792MOL0     H 6909   2.314  10.360   6.923  0.9714  1.7961 -2.3979
  792MOL0     H 6910   2.670  10.632   6.998  2.9024 -1.6078 -0.4321
  792MOL0     H 6911   2.625  10.573   7.162  1.0837 -0.8148  1.2911
  792MOL0     H 6912   2.708  10.341   7.092  0.4674 -1.0473 -2.3940
  792MOL0     H 6913   2.827  10.456   7.119  2.0339 -2.5422 -0.6903
  792MOL0     H 6914   2.762  10.492   6.842 -2.9081 -0.0637  1.4180
  792MOL0     H 6915   2.764  10.321   6.861 -3.0094  0.4240  1.0643
  792MOL0     H 6916   2.992  10.350   6.988 -1.8034 -0.4183  0.6555
  792MOL0     H 6917   3.000  10.512   6.927  1.0108 -0.0624  0.6442
  792MOL0     H 6918   3.122  10.273   6.608  1.8020 -2.6936  2.6430
  792MOL0     H 6919   2.434  10.684   7.169  0.1778 -0.6794 -0.2581
  792MOL0     H 6920   2.204  10.700   7.272  2.8143  1.5437  0.4191
  793MOL0     O 6921  10.341   6.241   4.420  0.4620  0.1155 -0.0297
  793MOL0     C 6922  10.417   6.151   4.374 -0.0725  0.7338  0.6230
  793MOL0     O 6923  10.377   6.036   4.305  0.0539  0.6081  0.1084
  793MOL0     C 6924  10.264   6.029   4.227 -0.2049  0.1617 -0.7454
  793MOL0     C 6925  10.195   5.907   4.227 -1.0498  0.8438 -0.9592
  793MOL0     C 6926  10.079   5.893   4.152  0.3358 -0.5547  0.8579
  793MOL0     C 6927  10.023   5.997   4.087  0.0397  0.4163  0.0959
  793MOL0     O 6928   9.919   5.997   3.996 -0.0774  0.0086  0.3419
  793MOL0     C 6929   9.860   5.867   3.970  0.4897  0.2228 -0.5460
  793MOL0     C 6930   9.739   5.891   3.882 -0.4211 -0.3688 -0.6054
  793MOL0     C 6931   9.780   5.900   3.730 -0.0081 -0.0005  0.2380
  793MOL0     C 6932   9.661   5.938   3.643 -1.2065 -0.3117  0.3584
  793MOL0     C 6933   9.700   5.930   3.495 -0.3089 -0.7209  0.9627
  793MOL0     C 6934   9.600   6.015   3.410  0.3836  0.1994 -0.0714
  793MOL0     C 6935   9.461   5.964   3.415  0.2229  0.5296 -0.8666
  793MOL0     C 6936   9.363   6.031   3.317 -1.0532 -0.3981 -0.2548
  793MOL0     N 6937   9.230   5.989   3.361 -0.5260  0.3858 -0.3496
  793MOL0     C 6938   9.154   6.040   3.467 -0.6343 -1.0424  0.4788
  793MOL0     C 6939   9.065   5.949   3.504 -0.4490 -0.0146 -0.6392
  793MOL0     C 6940   8.972   5.940   3.621 -0.1485 -0.4735 -0.3002
  793MOL0     C 6941   8.863   6.050   3.639 -0.0978  0.6732 -1.1918
  793MOL0     C 6942   8.764   6.031   3.523 -0.2856 -0.5674  0.0144
  793MOL0     C 6943   8.707   5.889   3.525 -0.1053 -0.7036 -0.4234
  793MOL0     O 6944   8.665   5.856   3.658 -0.3504 -0.1380 -0.9335
  793MOL0     C 6945   8.573   5.753   3.671 -0.2502 -0.0557 -0.4785
  793MOL0     C 6946   8.563   5.695   3.801  0.6033 -0.1013 -0.4299
  793MOL0     C 6947   8.472   5.591   3.831  1.0105 -0.0494 -0.8020
  793MOL0     C 6948   8.490   5.534   3.968  0.8190  0.5367 -0.9770
  793MOL0     C 6949   8.389   5.534   3.732  0.2050  0.7810  0.4074
  793MOL0     C 6950   8.294   5.412   3.752  0.7628 -0.3111  0.1355
  793MOL0     O 6951   8.260   5.355   3.633 -0.3058  0.8877 -1.0823
  793MOL0     C 6952   8.162   5.250   3.634 -0.2624 -0.3107  0.3692
  793MOL0     C 6953   8.188   5.150   3.542  0.1964  0.7850  0.2178
  793MOL0     C 6954   8.098   5.045   3.521  0.5305  0.3059  0.6097
  793MOL0     C 6955   7.974   5.042   3.587 -0.0162  0.2826 -0.2533
  793MOL0     O 6956   7.896   4.934   3.550  0.4767  0.0995  0.3973
  793MOL0     C 6957   7.763   4.907   3.597 -0.3675 -0.3262 -0.2944
  793MOL0     C 6958   7.679   4.988   3.497  0.0963  0.1331 -0.6274
  793MOL0     C 6959   7.532   4.945   3.496  0.3468 -0.2546 -0.4154
  793MOL0     C 6960   7.506   4.858   3.369 -0.6558  0.2064  0.7169
  793MOL0     C 6961   7.374   4.784   3.391 -0.2781 -0.1579  0.6143
  793MOL0     C 6962   7.339   4.695   3.263 -0.6094  0.7044  0.5109
  793MOL0     C 6963   7.194   4.657   3.273  0.4064  0.5007  0.5244
  793MOL0     C 6964   7.157   4.575   3.146  0.5731 -1.0404 -0.5428
  793MOL0    Cl 6965   6.990   4.531   3.157  0.2896  0.2828  1.0073
  793MOL0     C 6966   7.951   5.143   3.685  0.2107 -0.2811 -0.7828
  793MOL0     C 6967   8.041   5.249   3.699  0.8095  0.6605  0.8111
  793MOL0     O 6968   8.246   5.390   3.863  0.4050  0.2138 -0.0060
  793MOL0     C 6969   8.401   5.592   3.600  0.3110  0.3840  0.0003
  793MOL0     C 6970   8.483   5.704   3.575 -0.4971 -0.6961 -0.8548
  793MOL0     N 6971   9.072   5.851   3.409  0.3594  0.7842  0.5928
  793MOL0     N 6972   9.177   5.866   3.336 -0.3536 -0.2710 -0.6345
  793MOL0     C 6973  10.086   6.123   4.096  0.6507  0.2236  0.1385
  793MOL0     C 6974  10.213   6.137   4.163  0.0250 -0.7782  0.0887
  793MOL0     C 6975  10.562   6.164   4.406  0.3685 -0.5763  0.6700
  793MOL0     C 6976  10.627   6.269   4.479  0.4265 -0.0549 -0.0617
  793MOL0     C 6977  10.765   6.268   4.506 -0.6109 -0.0842 -0.2154
  793MOL0     C 6978  10.850   6.169   4.453  0.5106 -0.9137 -0.2742
  793MOL0     O 6979  10.981   6.173   4.498  0.4460  0.3428  0.2853
  793MOL0     C 6980  11.024   6.042   4.537 -0.2232  0.5358 -0.6257
  793MOL0     C 6981  11.134   6.067   4.634  0.2410  0.4565  0.0028
  793MOL0     C 6982  11.224   5.945   4.655  0.3345  0.2278 -0.5194
  793MOL0     C 6983  11.354   5.987   4.741  0.3079 -0.7449 -0.1304
  793MOL0     C 6984  11.320   6.077   4.860 -0.9454  0.2095  0.2464
  793MOL0     C 6985  11.283   6.148   4.950 -0.0665  0.1987  0.7205
  793MOL0     C 6986  10.792   6.061   4.382 -0.0458 -0.2735  0.6236
  793MOL0     C 6987  10.657   6.059   4.358  0.9864 -0.1239  0.1677
  793MOL0     H 6988  10.242   5.822   4.276 -1.6822  1.4530  0.7633
  793MOL0     H 6989  10.044   5.790   4.154  1.6977 -1.0280  1.3980
  793MOL0     H 6990   9.929   5.795   3.924  0.5312 -0.5151  0.6367
  793MOL0     H 6991   9.829   5.813   4.060 -1.2691 -1.8822 -2.2919
  793MOL0     H 6992   9.672   5.804   3.889 -0.9539  0.1129  0.6280
  793MOL0     H 6993   9.693   5.986   3.911  1.1149  0.5190 -0.9723
  793MOL0     H 6994   9.867   5.963   3.706  1.0877 -2.1423 -1.9120
  793MOL0     H 6995   9.818   5.801   3.703  0.6011  0.7193 -1.7105
  793MOL0     H 6996   9.572   5.880   3.665  0.0761 -1.1080  4.1394
  793MOL0     H 6997   9.636   6.039   3.676 -0.7475 -0.3813  0.9433
  793MOL0     H 6998   9.802   5.967   3.478  0.4155 -3.4794 -1.5107
  793MOL0     H 6999   9.694   5.827   3.459  1.6283  0.2683 -2.8326
  793MOL0     H 7000   9.600   6.116   3.452 -0.8455  1.7560 -3.4135
  793MOL0     H 7001   9.634   6.030   3.307  0.7551  2.2954  0.3172
  793MOL0     H 7002   9.462   5.857   3.391 -1.7723  0.3668 -0.4480
  793MOL0     H 7003   9.418   5.972   3.515 -0.3808 -0.8007 -0.9952
  793MOL0     H 7004   9.383   5.993   3.216  1.0459  1.5315 -0.6418
  793MOL0     H 7005   9.379   6.139   3.318 -0.2286 -0.5168  0.4740
  793MOL0     H 7006   9.169   6.137   3.513 -0.8386  0.5811 -2.6563
  793MOL0     H 7007   8.928   5.840   3.630 -0.4547 -0.2370  0.9086
  793MOL0     H 7008   9.033   5.952   3.711 -1.2470  2.3050  0.1582
  793MOL0     H 7009   8.909   6.149   3.629  0.4998  0.2964 -2.3938
  793MOL0     H 7010   8.811   6.043   3.735 -0.1588  1.8122 -1.1268
  793MOL0     H 7011   8.812   6.054   3.428 -0.4863  3.0968  0.6502
  793MOL0     H 7012   8.680   6.101   3.520  0.7681  0.7038 -1.3857
  793MOL0     H 7013   8.781   5.817   3.487  2.6038  1.8793 -0.4193
  793MOL0     H 7014   8.625   5.891   3.453 -3.1283 -2.2804  2.6910
  793MOL0     H 7015   8.630   5.741   3.873  1.0072  0.1588 -0.9714
  793MOL0     H 7016   8.575   5.581   4.019  1.0588 -1.7284  0.9040
  793MOL0     H 7017   8.400   5.568   4.019  0.0109 -0.4232 -1.7176
  793MOL0     H 7018   8.487   5.427   3.990  2.5288  0.1644 -2.2654
  793MOL0     H 7019   8.280   5.154   3.486  0.3286 -2.7577 -0.0362
  793MOL0     H 7020   8.132   4.969   3.452  0.7211 -1.0652  2.1657
  793MOL0     H 7021   7.747   4.799   3.589  2.8487 -0.8802 -0.6101
  793MOL0     H 7022   7.743   4.935   3.701 -0.9969  0.8988 -0.7287
  793MOL0     H 7023   7.677   5.092   3.530 -0.3867 -0.0337 -0.1181
  793MOL0     H 7024   7.718   4.993   3.395  0.8360  2.4201 -0.2779
  793MOL0     H 7025   7.462   5.029   3.497 -0.2055 -0.7146  0.1715
  793MOL0     H 7026   7.513   4.878   3.580 -0.8918 -2.6765 -2.5213
  793MOL0     H 7027   7.503   4.916   3.276 -1.6968  0.9360  1.1800
  793MOL0     H 7028   7.587   4.787   3.356 -1.2457  0.0440 -3.2909
  793MOL0     H 7029   7.294   4.857   3.403 -0.1789 -0.1874  1.5517
  793MOL0     H 7030   7.379   4.724   3.482 -0.2984  1.1387  1.4946
  793MOL0     H 7031   7.351   4.757   3.174  1.5173 -0.9603 -0.4493
  793MOL0     H 7032   7.406   4.609   3.261 -1.0580  0.3595  0.3246
  793MOL0     H 7033   7.135   4.749   3.277  2.7756  2.0883  0.5769
  793MOL0     H 7034   7.171   4.600   3.364 -1.3289  1.2603  0.6083
  793MOL0     H 7035   7.219   4.485   3.147 -0.9281 -2.0976 -0.0085
  793MOL0     H 7036   7.180   4.629   3.053  1.7508  0.2507  0.4601
  793MOL0     H 7037   7.864   5.123   3.747 -0.9888  0.9399 -1.9951
  793MOL0     H 7038   8.027   5.334   3.764  0.2375  1.4400 -0.2981
  793MOL0     H 7039   8.346   5.557   3.513 -1.3591  1.9319  0.3611
  793MOL0     H 7040   8.477   5.745   3.474  2.7779  1.0615 -0.4492
  793MOL0     H 7041  10.032   6.204   4.048  0.9487  1.5972  2.0321
  793MOL0     H 7042  10.269   6.229   4.174 -1.4151  0.6162 -2.8678
  793MOL0     H 7043  10.560   6.352   4.504  0.3622 -0.0811 -0.1463
  793MOL0     H 7044  10.807   6.348   4.566 -0.3154 -1.4008  1.4011
  793MOL0     H 7045  10.948   5.989   4.596  1.2100  1.9731  2.7692
  793MOL0     H 7046  11.066   5.974   4.463  0.4822  3.1601 -2.7807
  793MOL0     H 7047  11.104   6.105   4.732  1.1342 -2.3988  1.4787
  793MOL0     H 7048  11.195   6.139   4.577 -1.0957  1.0263 -0.7577
  793MOL0     H 7049  11.274   5.911   4.564  1.3516 -1.8095  0.7267
  793MOL0     H 7050  11.164   5.867   4.703 -0.3304  0.2598 -1.2767
  793MOL0     H 7051  11.423   6.038   4.673  1.2579  0.9034  1.9230
  793MOL0     H 7052  11.399   5.899   4.789  1.3166 -0.6819 -0.9248
  793MOL0     H 7053  11.243   6.206   5.031 -0.8738 -2.3998  2.3327
  793MOL0     H 7054  10.861   5.981   4.357 -0.2346 -0.9743  2.2015
  793MOL0     H 7055  10.630   5.965   4.311  4.0383 -2.1571  2.1613
  794MOL0     O 7056   8.346   8.269   5.954  0.5811  0.2994 -0.0045
  794MOL0     C 7057   8.361   8.337   6.051  0.4131  1.5069 -0.4097
  794MOL0     O 7058   8.276   8.426   6.093  0.3237  0.3430 -0.6561
  794MOL0     C 7059   8.202   8.498   6.001 -0.0354  0.0777  1.0473
  794MOL0     C 7060   8.073   8.447   5.959  0.3346  0.5779 -0.1809
  794MOL0     C 7061   8.007   8.507   5.850  0.4825  0.5942 -0.5348
  794MOL0     C 7062   8.051   8.630   5.783 -0.2798  0.6774  0.0702
  794MOL0     O 7063   7.958   8.686   5.697  0.2552 -0.5075 -0.4983
  794MOL0     C 7064   8.000   8.811   5.620 -0.1479  0.7986 -0.0399
  794MOL0     C 7065   7.879   8.870   5.552  0.6112  0.2715 -0.2181
  794MOL0     C 7066   7.743   8.854   5.626 -0.4293 -0.1375 -0.2478
  794MOL0     C 7067   7.628   8.936   5.570  0.2259  0.1419  0.4611
  794MOL0     C 7068   7.502   8.854   5.562  0.2797 -0.1817 -0.4046
  794MOL0     C 7069   7.437   8.810   5.698  0.2231  0.1149  0.4139
  794MOL0     C 7070   7.315   8.723   5.672 -0.0914  0.1685  0.0926
  794MOL0     C 7071   7.218   8.731   5.794  0.0966 -0.1715  1.4965
  794MOL0     N 7072   7.105   8.646   5.760  0.1945 -0.2322 -0.2872
  794MOL0     C 7073   7.109   8.512   5.735  1.0408 -0.4630  0.8474
  794MOL0     C 7074   6.984   8.484   5.686  0.0790 -0.5916 -0.1301
  794MOL0     C 7075   6.929   8.352   5.655 -0.3581  0.2843  0.3609
  794MOL0     C 7076   6.915   8.267   5.774  0.3703 -0.0806 -0.4593
  794MOL0     C 7077   6.800   8.319   5.862  0.5462  0.2362 -0.4781
  794MOL0     C 7078   6.749   8.205   5.955  0.1044  0.4966 -0.1291
  794MOL0     O 7079   6.657   8.114   5.876 -0.9151 -0.3319  0.0314
  794MOL0     C 7080   6.525   8.149   5.882 -0.4897  0.4576 -0.0058
  794MOL0     C 7081   6.477   8.268   5.939 -0.3552  0.2248  0.0389
  794MOL0     C 7082   6.334   8.292   5.942 -0.3314 -0.3634  0.6174
  794MOL0     C 7083   6.298   8.414   6.014 -0.1005  0.4884  0.9149
  794MOL0     C 7084   6.246   8.193   5.891 -0.8182  0.3719 -0.3265
  794MOL0     C 7085   6.106   8.211   5.879  0.8777  1.2392  0.1937
  794MOL0     O 7086   6.036   8.105   5.931  0.5540 -0.4464 -0.6313
  794MOL0     C 7087   5.900   8.120   5.923  0.0210 -0.1223  0.3255
  794MOL0     C 7088   5.830   8.143   5.805 -0.4267 -0.6340 -0.2073
  794MOL0     C 7089   5.696   8.159   5.803 -0.5903  0.2646  0.1608
  794MOL0     C 7090   5.624   8.155   5.926  0.1127 -0.7056  0.0791
  794MOL0     O 7091   5.489   8.167   5.937 -0.4028  0.3291 -0.1676
  794MOL0     C 7092   5.414   8.093   5.847  0.6451  0.0438 -0.1005
  794MOL0     C 7093   5.267   8.074   5.888  0.2001  1.2705  0.1514
  794MOL0     C 7094   5.190   7.985   5.785 -0.4535 -0.8181 -0.5088
  794MOL0     C 7095   5.228   7.843   5.785  0.7540  0.6685  0.9706
  794MOL0     C 7096   5.140   7.765   5.691  0.7042  0.3514  0.7499
  794MOL0     C 7097   5.203   7.628   5.672 -1.1342 -0.3352 -0.8783
  794MOL0     C 7098   5.303   7.633   5.556 -0.7155  0.5335  0.8970
  794MOL0     C 7099   5.366   7.496   5.523 -0.3376 -0.2742 -0.0515
  794MOL0    Cl 7100   5.464   7.447   5.667  0.2305 -1.2167 -0.6454
  794MOL0     C 7101   5.685   8.127   6.042 -0.4733 -0.4701 -0.7842
  794MOL0     C 7102   5.825   8.109   6.038 -0.6754  0.1534  0.3899
  794MOL0     O 7103   6.054   8.312   5.826 -0.7461  0.5497  0.0658
  794MOL0     C 7104   6.308   8.083   5.826 -0.8775  0.1157 -0.2232
  794MOL0     C 7105   6.443   8.062   5.821 -0.0666 -0.6717  0.5938
  794MOL0     N 7106   6.904   8.595   5.690  0.6575  0.5161  0.6174
  794MOL0     N 7107   6.981   8.688   5.729  0.4395  0.8567  0.0079
  794MOL0     C 7108   8.182   8.679   5.823  0.0430 -0.2539  0.6681
  794MOL0     C 7109   8.254   8.608   5.928 -0.6635 -0.2344  0.0630
  794MOL0     C 7110   8.488   8.318   6.124  0.1176  1.5045 -0.0871
  794MOL0     C 7111   8.507   8.406   6.236  0.4063  0.2486  0.1348
  794MOL0     C 7112   8.627   8.387   6.309  0.0669 -0.1292  0.1068
  794MOL0     C 7113   8.716   8.282   6.280 -1.2036  0.5964 -0.6920
  794MOL0     O 7114   8.827   8.269   6.359 -0.5390 -0.0532 -0.6342
  794MOL0     C 7115   8.861   8.135   6.398  0.3116 -0.4269  0.2292
  794MOL0     C 7116   8.964   8.144   6.508 -0.2865 -0.0992 -0.3999
  794MOL0     C 7117   8.915   8.212   6.637  0.4402  0.2291 -0.1122
  794MOL0     C 7118   9.014   8.193   6.749 -0.4720  0.2872 -1.0310
  794MOL0     C 7119   9.144   8.260   6.720  0.8221 -0.5940 -0.2990
  794MOL0     C 7120   9.232   8.326   6.668  0.2177 -0.0802 -0.4869
  794MOL0     C 7121   8.697   8.205   6.167  0.2543  0.1304 -0.2892
  794MOL0     C 7122   8.578   8.222   6.095  0.0493  0.7715 -0.4539
  794MOL0     H 7123   8.041   8.353   6.003  2.4107 -0.3895 -0.6272
  794MOL0     H 7124   7.920   8.466   5.801  1.2745  0.2840 -1.7060
  794MOL0     H 7125   8.044   8.880   5.693  0.7866 -0.5138  0.6861
  794MOL0     H 7126   8.076   8.785   5.545 -0.0699  0.2982  0.2030
  794MOL0     H 7127   7.905   8.973   5.528  3.2353 -0.3465 -0.3908
  794MOL0     H 7128   7.865   8.820   5.455 -1.9185  2.6583 -1.2142
  794MOL0     H 7129   7.715   8.748   5.628 -1.9996  0.2437  2.1089
  794MOL0     H 7130   7.752   8.861   5.735  2.5350 -1.5254 -0.3009
  794MOL0     H 7131   7.608   9.016   5.643  0.4228 -0.8983  1.6933
  794MOL0     H 7132   7.649   8.981   5.472 -2.7700  0.5833 -0.0675
  794MOL0     H 7133   7.432   8.924   5.517 -1.8524 -0.0311  2.8558
  794MOL0     H 7134   7.505   8.765   5.497 -1.9786 -1.0313  0.5315
  794MOL0     H 7135   7.508   8.772   5.772 -0.3920  0.7608  1.3545
  794MOL0     H 7136   7.395   8.904   5.734  0.3640 -0.1947  1.4073
  794MOL0     H 7137   7.258   8.753   5.583 -1.5266 -1.8527  0.2659
  794MOL0     H 7138   7.336   8.618   5.651  0.5543  0.0297  1.3662
  794MOL0     H 7139   7.191   8.836   5.807 -0.3662 -0.5444  3.9804
  794MOL0     H 7140   7.261   8.685   5.884 -4.0631 -0.0737  3.7441
  794MOL0     H 7141   7.178   8.436   5.769 -1.6099 -3.0981  0.7753
  794MOL0     H 7142   6.841   8.353   5.591 -1.1966  1.7901  1.4924
  794MOL0     H 7143   7.010   8.316   5.590  0.3950  3.5878 -0.6851
  794MOL0     H 7144   7.008   8.259   5.831 -0.8188 -1.1920  1.4477
  794MOL0     H 7145   6.879   8.168   5.746 -0.9824  0.5082 -0.8954
  794MOL0     H 7146   6.718   8.334   5.791  0.0877 -0.0914 -0.0290
  794MOL0     H 7147   6.827   8.415   5.907 -2.4462  1.5661 -1.2531
  794MOL0     H 7148   6.696   8.242   6.043 -1.2585 -3.9987  1.2006
  794MOL0     H 7149   6.827   8.140   5.996 -2.2825 -1.2846  1.8375
  794MOL0     H 7150   6.546   8.343   5.977  0.0643 -0.6990  1.1383
  794MOL0     H 7151   6.191   8.429   6.034 -0.5806 -2.7691  1.2244
  794MOL0     H 7152   6.345   8.413   6.112 -0.5775 -0.6964  1.1431
  794MOL0     H 7153   6.319   8.503   5.954 -0.4811 -1.2417 -1.9857
  794MOL0     H 7154   5.893   8.142   5.716  0.3000  0.2233  0.2834
  794MOL0     H 7155   5.640   8.194   5.716  0.9295  3.9801  0.5073
  794MOL0     H 7156   5.407   8.132   5.745 -0.8813 -0.9431 -0.4063
  794MOL0     H 7157   5.470   7.999   5.843  0.9852  0.2292  0.2842
  794MOL0     H 7158   5.271   8.030   5.989 -0.1036  0.4659 -0.1837
  794MOL0     H 7159   5.225   8.175   5.878 -1.5436  0.3575 -3.2037
  794MOL0     H 7160   5.208   8.024   5.684 -0.5225  2.1646  0.5352
  794MOL0     H 7161   5.082   7.993   5.795 -0.5161  3.1475 -2.3633
  794MOL0     H 7162   5.329   7.839   5.743  1.2265 -1.6929  2.1854
  794MOL0     H 7163   5.213   7.809   5.887 -0.1160 -2.3716 -0.0740
  794MOL0     H 7164   5.118   7.810   5.593  0.3632 -1.6075 -0.1187
  794MOL0     H 7165   5.044   7.754   5.742  0.6941 -3.5029  0.1303
  794MOL0     H 7166   5.246   7.597   5.767 -1.0042 -2.0057 -1.4497
  794MOL0     H 7167   5.127   7.560   5.633  1.3710 -1.7693 -3.7077
  794MOL0     H 7168   5.380   7.706   5.580  0.7362 -0.0913 -1.5597
  794MOL0     H 7169   5.252   7.675   5.469 -1.0649 -1.8243 -0.1295
  794MOL0     H 7170   5.432   7.510   5.437 -2.3384  0.8676 -1.4840
  794MOL0     H 7171   5.300   7.414   5.492  1.8456 -0.8708 -3.7870
  794MOL0     H 7172   5.649   8.123   6.145  2.7856 -0.1886  0.4898
  794MOL0     H 7173   5.887   8.082   6.123  0.0124 -1.5557 -0.6070
  794MOL0     H 7174   6.251   8.009   5.770  0.2046  0.3021 -1.6429
  794MOL0     H 7175   6.491   7.984   5.763 -1.6119  0.4549 -2.3926
  794MOL0     H 7176   8.221   8.764   5.769  0.9015  0.8680  2.9037
  794MOL0     H 7177   8.355   8.642   5.949 -0.8599 -0.5172  1.5583
  794MOL0     H 7178   8.439   8.489   6.255  3.2298  2.3653  1.9541
  794MOL0     H 7179   8.659   8.450   6.392  0.5993  1.1361 -1.0245
  794MOL0     H 7180   8.772   8.074   6.420  0.7093 -0.9788  0.3158
  794MOL0     H 7181   8.900   8.092   6.305 -1.6469 -0.5064 -0.6221
  794MOL0     H 7182   9.053   8.191   6.464 -0.8290  0.7751 -0.5950
  794MOL0     H 7183   8.996   8.042   6.531 -1.0161 -0.3679 -0.5735
  794MOL0     H 7184   8.818   8.172   6.668  0.9030 -0.4969  0.4050
  794MOL0     H 7185   8.903   8.320   6.626 -5.1463 -0.0922  0.1441
  794MOL0     H 7186   9.027   8.088   6.777 -1.3894  0.8571  1.8808
  794MOL0     H 7187   8.972   8.238   6.840 -0.6076 -0.0104 -0.9453
  794MOL0     H 7188   9.307   8.394   6.635 -0.8893  0.8340 -1.1738
  794MOL0     H 7189   8.775   8.133   6.145  0.3416  0.5204 -1.3086
  794MOL0     H 7190   8.560   8.155   6.012  0.0186 -1.3722  1.1827
  795MOL0     O 7191   4.895   6.617   7.197  0.8866  0.3332 -0.0193
  795MOL0     C 7192   4.939   6.676   7.094 -0.3399  0.3048 -0.2280
  795MOL0     O 7193   4.872   6.689   6.975 -0.6930 -0.1616 -0.0716
  795MOL0     C 7194   4.747   6.639   6.951  0.3393  0.2701 -1.0791
  795MOL0     C 7195   4.711   6.500   6.979 -0.4230  0.4702 -0.2825
  795MOL0     C 7196   4.586   6.445   6.940 -0.4494  0.5218 -0.2072
  795MOL0     C 7197   4.494   6.526   6.872 -0.0266 -0.5106  1.1757
  795MOL0     O 7198   4.377   6.483   6.827 -0.2033 -0.3885  0.2763
  795MOL0     C 7199   4.292   6.419   6.916  0.1570 -0.2360 -0.6047
  795MOL0     C 7200   4.227   6.299   6.851 -0.1893  0.6484 -0.7826
  795MOL0     C 7201   4.305   6.161   6.861  0.1393 -0.2665 -0.5673
  795MOL0     C 7202   4.242   6.057   6.771 -0.0538  0.0936 -0.2823
  795MOL0     C 7203   4.310   5.923   6.774 -0.0206  0.2835  1.0421
  795MOL0     C 7204   4.403   5.903   6.649 -0.3246 -0.1493 -0.0241
  795MOL0     C 7205   4.468   5.759   6.676 -0.0081 -0.1462  0.1338
  795MOL0     C 7206   4.587   5.734   6.588  0.5118  0.1834  1.3558
  795MOL0     N 7207   4.692   5.832   6.604 -0.9518  0.7653 -0.1560
  795MOL0     C 7208   4.781   5.851   6.714  0.4625  0.4182  0.1480
  795MOL0     C 7209   4.853   5.959   6.691 -0.1978  0.4281 -0.4107
  795MOL0     C 7210   4.962   6.018   6.770  0.1801  0.2525 -0.6142
  795MOL0     C 7211   4.943   6.165   6.792 -0.9016 -0.3177 -0.7292
  795MOL0     C 7212   5.051   6.219   6.886 -0.1815  0.1958  0.5140
  795MOL0     C 7213   5.047   6.374   6.868 -0.3023  0.0506  0.4177
  795MOL0     O 7214   5.107   6.403   6.733  0.1603 -0.5268 -0.0081
  795MOL0     C 7215   5.226   6.454   6.722  0.2861 -0.2523  0.3693
  795MOL0     C 7216   5.257   6.505   6.599 -0.0279 -0.3315  0.9012
  795MOL0     C 7217   5.394   6.547   6.571  0.0090  0.0605 -0.0361
  795MOL0     C 7218   5.431   6.574   6.425 -0.7918  0.1497  1.4390
  795MOL0     C 7219   5.489   6.555   6.678 -0.7512  1.0084 -0.2627
  795MOL0     C 7220   5.623   6.611   6.666 -0.1721 -0.5519 -0.0654
  795MOL0     O 7221   5.693   6.617   6.778 -0.0092  0.0255  0.0930
  795MOL0     C 7222   5.823   6.667   6.784  0.5412  0.4200  0.6725
  795MOL0     C 7223   5.931   6.586   6.755  0.4986 -0.1030 -0.2886
  795MOL0     C 7224   6.059   6.647   6.748  0.1454 -0.2363  0.0056
  795MOL0     C 7225   6.084   6.776   6.782 -0.6347 -0.3927  0.4945
  795MOL0     O 7226   6.219   6.802   6.774 -0.3031  0.1106  0.4930
  795MOL0     C 7227   6.252   6.937   6.747  1.1237  0.5784 -0.1838
  795MOL0     C 7228   6.386   6.950   6.691 -0.2855  1.2263 -0.6509
  795MOL0     C 7229   6.494   6.892   6.777 -0.8931 -0.9331 -0.2172
  795MOL0     C 7230   6.523   6.970   6.915  0.7502  0.6457  0.2405
  795MOL0     C 7231   6.642   6.900   6.991 -0.4307  0.3232  0.9706
  795MOL0     C 7232   6.587   6.770   7.063 -0.2237 -0.3098 -0.3356
  795MOL0     C 7233   6.685   6.708   7.168 -0.1411  0.3805  0.0577
  795MOL0     C 7234   6.829   6.698   7.121 -0.4293  0.0065 -0.3277
  795MOL0    Cl 7235   6.921   6.590   7.220  0.0329  0.0245 -0.1823
  795MOL0     C 7236   5.973   6.852   6.828  0.1174  0.7633 -0.0423
  795MOL0     C 7237   5.836   6.797   6.825  0.3037  1.0953 -0.5212
  795MOL0     O 7238   5.670   6.635   6.562 -0.2724  0.2683 -0.0448
  795MOL0     C 7239   5.440   6.520   6.803 -0.5009  1.2225 -0.4016
  795MOL0     C 7240   5.314   6.472   6.824 -0.1949  0.2800  0.1698
  795MOL0     N 7241   4.825   5.997   6.563 -0.0314  0.1080  0.3974
  795MOL0     N 7242   4.725   5.931   6.511  0.1441 -0.0039 -0.7150
  795MOL0     C 7243   4.529   6.656   6.829 -0.0006 -0.1193 -0.8233
  795MOL0     C 7244   4.652   6.712   6.870 -0.1219 -0.2919 -0.3015
  795MOL0     C 7245   5.064   6.762   7.118  0.3487 -0.7966 -0.3489
  795MOL0     C 7246   5.122   6.757   7.250  0.0924 -0.3702  0.8465
  795MOL0     C 7247   5.230   6.834   7.276 -0.5720 -0.1391 -0.0558
  795MOL0     C 7248   5.299   6.896   7.172  0.0713 -0.1592  0.1514
  795MOL0     O 7249   5.400   6.976   7.209  0.7332  0.6999 -0.1100
  795MOL0     C 7250   5.499   7.014   7.107 -1.3053  0.1383 -0.4917
  795MOL0     C 7251   5.624   7.076   7.167  0.4767  0.1252 -0.8838
  795MOL0     C 7252   5.696   6.993   7.280  0.1446 -0.4917 -0.2598
  795MOL0     C 7253   5.748   7.092   7.388  0.0698  0.8891 -0.3029
  795MOL0     C 7254   5.850   7.182   7.328 -0.2255  0.4259  0.0101
  795MOL0     C 7255   5.945   7.237   7.278  0.1730 -0.1728 -0.3825
  795MOL0     C 7256   5.255   6.895   7.038  1.1155  0.6191  0.1228
  795MOL0     C 7257   5.136   6.823   7.016  0.3699  0.3727  0.8426
  795MOL0     H 7258   4.785   6.440   7.030  0.9366  1.4602 -1.0463
  795MOL0     H 7259   4.557   6.344   6.967  0.0285  0.6562  0.8833
  795MOL0     H 7260   4.336   6.384   7.010 -1.0071  0.3066  0.1710
  795MOL0     H 7261   4.218   6.493   6.949  0.2841 -1.0367  1.6951
  795MOL0     H 7262   4.133   6.278   6.902 -1.3440  0.5217 -2.8420
  795MOL0     H 7263   4.195   6.312   6.747 -3.9199  0.8287  0.2574
  795MOL0     H 7264   4.411   6.172   6.836  0.4515  0.6100  1.0116
  795MOL0     H 7265   4.294   6.135   6.967 -0.7701 -0.4573 -0.7014
  795MOL0     H 7266   4.140   6.038   6.805 -0.4431  1.0792 -0.8811
  795MOL0     H 7267   4.226   6.083   6.666 -0.1771 -0.8272 -0.4974
  795MOL0     H 7268   4.365   5.924   6.869  1.6202 -1.1817  0.1622
  795MOL0     H 7269   4.235   5.845   6.769 -4.6322  4.2778  0.2028
  795MOL0     H 7270   4.351   5.911   6.553  2.2669 -0.4399 -1.5184
  795MOL0     H 7271   4.475   5.984   6.651  0.2547 -0.6635  0.8732
  795MOL0     H 7272   4.506   5.750   6.778 -1.6051 -1.8166  0.6475
  795MOL0     H 7273   4.393   5.681   6.659 -0.7129  0.6864 -0.6768
  795MOL0     H 7274   4.556   5.714   6.485  0.1893  0.1972  1.4499
  795MOL0     H 7275   4.626   5.636   6.617  2.0412  0.7354  1.2588
  795MOL0     H 7276   4.785   5.794   6.806  0.3536 -1.1197 -0.7617
  795MOL0     H 7277   4.973   5.975   6.870 -1.4959  2.7749  0.7713
  795MOL0     H 7278   5.056   6.000   6.716 -1.1336 -2.9451 -2.0857
  795MOL0     H 7279   4.850   6.189   6.845 -0.2490 -0.6362  0.6032
  795MOL0     H 7280   4.935   6.215   6.695 -0.7461  1.4244  0.1120
  795MOL0     H 7281   5.152   6.188   6.856 -0.3260  1.3192 -1.2911
  795MOL0     H 7282   5.032   6.187   6.989 -0.4489 -2.6857 -0.3292
  795MOL0     H 7283   5.096   6.430   6.948 -1.5889  1.5458  0.2258
  795MOL0     H 7284   4.948   6.420   6.877  0.7768  2.9492 -1.1906
  795MOL0     H 7285   5.193   6.504   6.511  3.3357  0.0637 -1.8028
  795MOL0     H 7286   5.484   6.667   6.403 -0.6638 -0.5877 -1.8032
  795MOL0     H 7287   5.489   6.488   6.390 -1.2887  0.8144 -1.2166
  795MOL0     H 7288   5.342   6.576   6.361  1.2163 -1.1305 -1.6126
  795MOL0     H 7289   5.917   6.482   6.726  0.8261 -0.1505 -0.2822
  795MOL0     H 7290   6.149   6.594   6.717  0.9559  0.7434  0.6019
  795MOL0     H 7291   6.181   6.981   6.678  0.4493 -0.9009 -0.4789
  795MOL0     H 7292   6.239   6.986   6.844  1.7422 -0.3829  0.4110
  795MOL0     H 7293   6.392   6.887   6.602 -1.6017 -0.8031  0.6211
  795MOL0     H 7294   6.404   7.055   6.664 -0.3585  0.8848 -2.0844
  795MOL0     H 7295   6.582   6.920   6.718  0.6008 -2.7741  1.0227
  795MOL0     H 7296   6.506   6.784   6.790  1.1163 -1.3226 -3.9324
  795MOL0     H 7297   6.541   7.076   6.893 -0.6745  0.8128 -0.2136
  795MOL0     H 7298   6.441   6.961   6.986 -0.7189 -0.8866 -1.5518
  795MOL0     H 7299   6.684   6.967   7.067 -1.3659  0.7744  1.0950
  795MOL0     H 7300   6.715   6.867   6.917  1.5836 -0.3037  3.0887
  795MOL0     H 7301   6.488   6.780   7.108 -0.9768  3.9962 -2.4462
  795MOL0     H 7302   6.576   6.700   6.980  1.1391 -1.4756  0.4160
  795MOL0     H 7303   6.652   6.604   7.176 -0.4970  0.3902 -1.0990
  795MOL0     H 7304   6.667   6.753   7.266 -4.0364 -0.6544  0.0025
  795MOL0     H 7305   6.875   6.796   7.139 -0.2497  0.4281 -2.8008
  795MOL0     H 7306   6.823   6.675   7.015  0.0504  0.5191 -0.4723
  795MOL0     H 7307   5.997   6.950   6.868  1.3771  1.2744 -1.9152
  795MOL0     H 7308   5.753   6.860   6.857  1.1201  1.7810  0.2939
  795MOL0     H 7309   5.504   6.531   6.891  0.0278  1.1300 -0.7693
  795MOL0     H 7310   5.297   6.441   6.927 -0.5663 -3.0059 -0.7634
  795MOL0     H 7311   4.464   6.714   6.764 -0.1028  3.4936  2.1624
  795MOL0     H 7312   4.677   6.817   6.856 -0.4701 -0.3434 -1.4000
  795MOL0     H 7313   5.075   6.700   7.329 -0.7781 -0.6304  0.1487
  795MOL0     H 7314   5.274   6.848   7.374 -0.7211 -0.2880  0.0315
  795MOL0     H 7315   5.547   6.930   7.054  0.1528  0.8099 -0.3016
  795MOL0     H 7316   5.454   7.083   7.035 -1.6591 -1.3082 -1.7252
  795MOL0     H 7317   5.588   7.171   7.210 -0.9566 -1.4591  1.7160
  795MOL0     H 7318   5.698   7.091   7.089  1.1389 -2.4779 -0.8332
  795MOL0     H 7319   5.780   6.936   7.240 -0.6911 -2.8052  1.0574
  795MOL0     H 7320   5.618   6.930   7.323 -2.4589  2.7641  0.1928
  795MOL0     H 7321   5.797   7.030   7.463  0.1380  0.9223 -0.3199
  795MOL0     H 7322   5.674   7.152   7.442  0.7618  1.4402  0.0465
  795MOL0     H 7323   6.026   7.286   7.229  1.1551 -1.9710 -0.6647
  795MOL0     H 7324   5.310   6.935   6.953  0.6534 -0.2999 -0.6336
  795MOL0     H 7325   5.104   6.820   6.912 -2.4433  2.7202  1.5014
  796MOL0     O 7326   9.184   2.938   8.712 -0.2479 -0.0629  0.6138
  796MOL0     C 7327   9.182   2.937   8.586 -0.4521  0.4358 -0.6067
  796MOL0     O 7328   9.085   2.887   8.504  0.1008  0.8879 -0.0403
  796MOL0     C 7329   8.962   2.861   8.547 -0.0201 -0.9379  0.4053
  796MOL0     C 7330   8.897   2.944   8.641 -0.1380 -0.2196 -0.6032
  796MOL0     C 7331   8.768   2.911   8.676  0.5385 -0.3053 -0.2674
  796MOL0     C 7332   8.689   2.819   8.603  0.2603  0.6720  0.4380
  796MOL0     O 7333   8.546   2.783   8.626  0.4969  0.3153  0.4108
  796MOL0     C 7334   8.473   2.882   8.691  0.4994  0.3782 -0.1332
  796MOL0     C 7335   8.430   3.007   8.607 -0.3934  0.0871 -0.8883
  796MOL0     C 7336   8.289   3.052   8.661 -0.4788  0.0766  0.3882
  796MOL0     C 7337   8.292   3.092   8.808  0.3301  0.6709  0.3104
  796MOL0     C 7338   8.187   3.198   8.840 -0.4461 -0.7137  0.0477
  796MOL0     C 7339   8.189   3.249   8.984  0.1866 -0.0605  0.2998
  796MOL0     C 7340   8.148   3.394   8.988 -0.2591 -0.3261 -0.0743
  796MOL0     C 7341   8.087   3.439   9.116 -0.2063  0.7615 -0.2925
  796MOL0     N 7342   7.941   3.401   9.119  0.4687  0.0174 -0.0042
  796MOL0     C 7343   7.870   3.322   9.029  0.2983  0.6193 -0.4916
  796MOL0     C 7344   7.742   3.313   9.079  1.0565  0.9389  0.7707
  796MOL0     C 7345   7.619   3.240   9.023  0.6447 -0.0325 -0.0818
  796MOL0     C 7346   7.600   3.097   9.087 -0.6185  0.0559 -0.9812
  796MOL0     C 7347   7.456   3.034   9.065  0.1075  0.1545 -0.7290
  796MOL0     C 7348   7.336   3.128   9.102  0.3139 -0.2191  0.3079
  796MOL0     O 7349   7.363   3.196   9.231  0.4731 -0.0381  0.4392
  796MOL0     C 7350   7.260   3.269   9.296  0.4486 -0.7581 -0.6304
  796MOL0     C 7351   7.250   3.280   9.433 -0.0369  0.5113 -0.2744
  796MOL0     C 7352   7.148   3.352   9.498 -0.3141 -0.3474  0.6000
  796MOL0     C 7353   7.155   3.368   9.645 -0.2230 -0.7398  0.7439
  796MOL0     C 7354   7.059   3.426   9.422 -0.0249  0.4128 -0.4221
  796MOL0     C 7355   6.978   3.528   9.478 -0.2011 -0.0145 -0.9631
  796MOL0     O 7356   6.865   3.501   9.551 -0.0042  0.0047 -0.4229
  796MOL0     C 7357   6.824   3.377   9.577  0.2851 -0.4301  0.0375
  796MOL0     C 7358   6.800   3.278   9.480 -0.0302 -1.1452 -0.3695
  796MOL0     C 7359   6.743   3.166   9.522  0.6541 -0.4323  0.0871
  796MOL0     C 7360   6.696   3.141   9.651 -0.6594  0.3576  0.3379
  796MOL0     O 7361   6.659   3.009   9.676  0.4116  0.8447  0.4070
  796MOL0     C 7362   6.677   2.961   9.813 -0.4100  0.1767  0.5097
  796MOL0     C 7363   6.670   2.809   9.798  0.5986  0.6358  0.0913
  796MOL0     C 7364   6.785   2.751   9.735 -0.1818  0.8719 -0.2391
  796MOL0     C 7365   6.761   2.599   9.713 -0.7182 -0.1454  0.1628
  796MOL0     C 7366   6.865   2.538   9.605  0.6910 -0.2781 -0.0495
  796MOL0     C 7367   6.900   2.387   9.635 -0.3870  0.2911  0.0345
  796MOL0     C 7368   6.986   2.331   9.519  0.4684 -0.0448 -0.1569
  796MOL0     C 7369   6.988   2.181   9.524  0.1930 -1.0671 -0.2913
  796MOL0    Cl 7370   6.821   2.103   9.487 -0.2778 -0.2431 -0.4468
  796MOL0     C 7371   6.715   3.238   9.747 -0.2470  0.1902 -0.3239
  796MOL0     C 7372   6.781   3.356   9.712 -0.8723  0.2406 -0.2657
  796MOL0     O 7373   7.019   3.643   9.452 -0.1969 -0.1366 -0.3052
  796MOL0     C 7374   7.058   3.410   9.283  0.4559 -0.5826 -0.4375
  796MOL0     C 7375   7.166   3.340   9.218  0.5602  0.0333  0.0486
  796MOL0     N 7376   7.730   3.394   9.197 -0.6644  0.4004  0.7003
  796MOL0     N 7377   7.848   3.447   9.208 -0.1885 -0.8413 -0.7955
  796MOL0     C 7378   8.754   2.749   8.497 -0.3766 -0.2913 -0.9952
  796MOL0     C 7379   8.888   2.770   8.476 -0.5636 -0.0833  0.0048
  796MOL0     C 7380   9.294   2.975   8.511 -0.6518  0.2679 -0.4182
  796MOL0     C 7381   9.393   3.052   8.571 -1.0064 -1.3676 -0.7732
  796MOL0     C 7382   9.513   3.086   8.507 -0.1740 -0.1911  0.5156
  796MOL0     C 7383   9.541   3.042   8.376 -0.2827  0.2883  0.0655
  796MOL0     O 7384   9.663   3.049   8.308 -0.1152 -0.4516  0.2928
  796MOL0     C 7385   9.787   3.070   8.379 -0.4006  0.6177 -0.2989
  796MOL0     C 7386   9.894   3.063   8.274  0.1781  0.8885 -0.4079
  796MOL0     C 7387   9.912   2.907   8.224 -0.4664 -0.2228  0.3966
  796MOL0     C 7388   9.985   2.893   8.088  0.3399 -0.4588  0.4883
  796MOL0     C 7389  10.127   2.902   8.108  0.4634 -0.3198 -0.7427
  796MOL0     C 7390  10.244   2.902   8.137 -0.8437  0.8085  1.0210
  796MOL0     C 7391   9.438   2.968   8.314 -0.2690  0.3228  0.1179
  796MOL0     C 7392   9.322   2.936   8.377 -0.5066 -0.5711  0.3889
  796MOL0     H 7393   8.947   3.023   8.696 -0.2795 -0.4560 -0.1315
  796MOL0     H 7394   8.722   2.970   8.754  3.1547  3.0021 -0.9940
  796MOL0     H 7395   8.384   2.823   8.713  1.8125 -0.4550  3.5455
  796MOL0     H 7396   8.515   2.901   8.790  1.4839  0.3043 -0.5278
  796MOL0     H 7397   8.502   3.088   8.623  1.9449 -1.9517 -0.6039
  796MOL0     H 7398   8.425   2.980   8.501 -0.4507 -0.3683 -0.7688
  796MOL0     H 7399   8.253   3.134   8.598  1.0904 -0.7643 -1.7343
  796MOL0     H 7400   8.213   2.973   8.655  0.3599 -0.6517 -1.6554
  796MOL0     H 7401   8.276   3.004   8.871  1.2295 -1.1751 -1.9098
  796MOL0     H 7402   8.388   3.142   8.824  0.1489  1.0623  0.1857
  796MOL0     H 7403   8.205   3.286   8.779  0.3703 -0.0638  1.1768
  796MOL0     H 7404   8.086   3.160   8.819 -0.6698  0.0994 -0.3761
  796MOL0     H 7405   8.125   3.199   9.058 -0.0009  0.8019  0.7301
  796MOL0     H 7406   8.295   3.240   9.013  0.7663 -3.3122 -2.1987
  796MOL0     H 7407   8.240   3.451   8.971 -0.1142 -0.3206  0.6550
  796MOL0     H 7408   8.079   3.430   8.911 -2.3377  0.4082  1.9982
  796MOL0     H 7409   8.091   3.547   9.128 -0.2449  0.9193 -1.5048
  796MOL0     H 7410   8.142   3.392   9.197  0.8042  0.4910 -1.1062
  796MOL0     H 7411   7.912   3.258   8.952 -0.3489 -2.3304  1.4182
  796MOL0     H 7412   7.533   3.303   9.049 -0.4247 -0.6981 -1.8582
  796MOL0     H 7413   7.623   3.224   8.915 -0.2887 -1.4473  0.0607
  796MOL0     H 7414   7.622   3.082   9.193  0.3059  3.3207 -0.5921
  796MOL0     H 7415   7.668   3.031   9.033  0.6510  0.3489  0.1808
  796MOL0     H 7416   7.460   2.949   9.135  1.4201  0.7494 -0.0470
  796MOL0     H 7417   7.442   2.991   8.966 -0.5543 -1.2795 -0.0445
  796MOL0     H 7418   7.236   3.083   9.105  0.3068 -0.2547 -0.3789
  796MOL0     H 7419   7.327   3.194   9.016  0.1449 -2.6061 -1.5988
  796MOL0     H 7420   7.329   3.240   9.496 -0.7891  0.0397  0.3943
  796MOL0     H 7421   7.062   3.328   9.687 -0.2095 -0.1072  1.3951
  796MOL0     H 7422   7.235   3.306   9.686 -0.5885 -0.9531  1.1455
  796MOL0     H 7423   7.163   3.476   9.663  1.9084 -0.2336 -2.3620
  796MOL0     H 7424   6.824   3.293   9.376 -1.6232  1.3883 -0.4606
  796MOL0     H 7425   6.720   3.094   9.444 -1.3839  1.7246 -1.4398
  796MOL0     H 7426   6.776   2.981   9.856  0.9686 -0.4764 -2.1658
  796MOL0     H 7427   6.604   2.990   9.889 -0.0575 -1.5787  1.5804
  796MOL0     H 7428   6.661   2.770   9.900 -0.0074  2.0431  0.5894
  796MOL0     H 7429   6.576   2.790   9.745  2.2928 -0.7552 -2.6753
  796MOL0     H 7430   6.868   2.773   9.802 -2.3848  1.4407  2.5200
  796MOL0     H 7431   6.800   2.795   9.636 -2.3480  2.1590 -0.0663
  796MOL0     H 7432   6.769   2.555   9.813  0.3725 -0.5240 -0.0779
  796MOL0     H 7433   6.667   2.584   9.660 -0.2595  0.5541 -0.8797
  796MOL0     H 7434   6.958   2.596   9.598  1.2181 -0.1843  4.3835
  796MOL0     H 7435   6.823   2.530   9.505 -2.8950  0.5422  1.2403
  796MOL0     H 7436   6.951   2.388   9.732 -1.7117  2.0812  0.7662
  796MOL0     H 7437   6.807   2.330   9.647 -2.5561  3.4723 -0.5576
  796MOL0     H 7438   7.092   2.360   9.526  0.3737  0.7518 -1.4888
  796MOL0     H 7439   6.951   2.365   9.421 -1.2752 -1.0354  0.0961
  796MOL0     H 7440   7.017   2.146   9.624 -1.8786  0.9361  1.1383
  796MOL0     H 7441   7.048   2.135   9.446 -0.3691 -1.6869 -0.3646
  796MOL0     H 7442   6.687   3.222   9.850  0.0467  1.6990  0.0091
  796MOL0     H 7443   6.799   3.433   9.786 -1.1248 -0.5392  0.6317
  796MOL0     H 7444   7.003   3.484   9.225 -0.2031 -0.9121 -0.2493
  796MOL0     H 7445   7.174   3.332   9.110  0.9051  0.2300  0.0607
  796MOL0     H 7446   8.696   2.673   8.445 -1.0236 -0.6638  0.2427
  796MOL0     H 7447   8.934   2.710   8.398 -0.3290  0.3122 -0.1663
  796MOL0     H 7448   9.383   3.090   8.672  1.2198  1.3361 -1.4433
  796MOL0     H 7449   9.590   3.130   8.569 -0.9073  0.2306  1.1384
  796MOL0     H 7450   9.786   3.159   8.442 -0.7513 -0.6924  1.6170
  796MOL0     H 7451   9.794   2.990   8.453 -0.9391  0.3327 -0.5476
  796MOL0     H 7452   9.988   3.108   8.309  2.5734 -2.2069 -2.3239
  796MOL0     H 7453   9.871   3.114   8.179 -0.1714  0.1210 -0.7397
  796MOL0     H 7454   9.821   2.855   8.192  0.9971 -3.6666  1.3273
  796MOL0     H 7455   9.968   2.856   8.303  1.2716  1.5721  0.3890
  796MOL0     H 7456   9.953   2.969   8.016  1.8531  0.3350  0.6128
  796MOL0     H 7457   9.962   2.798   8.039  3.5524  0.6173 -3.6593
  796MOL0     H 7458  10.348   2.904   8.163  0.1341  3.2790 -2.3528
  796MOL0     H 7459   9.462   2.915   8.222  1.5544 -2.2043  1.9196
  796MOL0     H 7460   9.249   2.875   8.324 -2.1578  0.8680  0.9419
  797MOL0     O 7461   1.452  11.047   9.698  0.2959 -0.4132  0.3353
  797MOL0     C 7462   1.543  11.003   9.628  0.6068  0.5920 -0.2120
  797MOL0     O 7463   1.530  10.942   9.510  0.1028  0.1046 -0.6447
  797MOL0     C 7464   1.413  10.916   9.444 -0.4436 -0.4199 -0.0566
  797MOL0     C 7465   1.282  10.924   9.495 -0.0220 -0.0145  0.2089
  797MOL0     C 7466   1.170  10.887   9.423  0.0041 -0.3224 -0.2935
  797MOL0     C 7467   1.186  10.832   9.293 -1.0254 -0.3607 -0.4898
  797MOL0     O 7468   1.079  10.774   9.231 -0.2595  0.0934 -0.5049
  797MOL0     C 7469   1.108  10.689   9.121  0.1289 -0.3431  0.0394
  797MOL0     C 7470   0.970  10.638   9.065 -0.1108  0.4677 -0.6169
  797MOL0     C 7471   0.978  10.540   8.946 -0.5165 -0.1289  0.2279
  797MOL0     C 7472   0.834  10.507   8.901  0.1050  0.9261 -0.0340
  797MOL0     C 7473   0.844  10.428   8.770  0.3857 -0.5668  0.1169
  797MOL0     C 7474   0.715  10.347   8.745 -0.5947 -1.3508 -0.3104
  797MOL0     C 7475   0.696  10.297   8.598  0.5363 -0.4435 -1.0241
  797MOL0     C 7476   0.565  10.209   8.597  0.2907  1.1366 -0.0383
  797MOL0     N 7477   0.548  10.145   8.471  1.4276 -0.2045  0.1878
  797MOL0     C 7478   0.436  10.069   8.437 -0.3517  0.0459  0.9238
  797MOL0     C 7479   0.471  10.010   8.324  0.7326  0.7210 -1.0401
  797MOL0     C 7480   0.384   9.908   8.250  0.5689 -0.1135 -0.1145
  797MOL0     C 7481   0.274   9.995   8.192 -0.4738 -0.0838 -0.9123
  797MOL0     C 7482   0.168   9.918   8.109 -0.5440  0.4697 -0.2845
  797MOL0     C 7483   0.057  10.017   8.075  0.3055 -0.3438  0.0439
  797MOL0     O 7484  -0.045   9.961   7.996 -1.0268 -0.1700  0.6845
  797MOL0     C 7485  -0.138  10.048   7.943  0.8151 -0.0198 -0.1857
  797MOL0     C 7486  -0.205   9.999   7.827 -0.6921 -1.1320  0.0927
  797MOL0     C 7487  -0.313  10.062   7.767 -0.0367 -0.7459  1.0873
  797MOL0     C 7488  -0.392   9.984   7.668  0.0818 -0.4674 -0.2993
  797MOL0     C 7489  -0.356  10.182   7.827 -0.4618  0.8496  0.6248
  797MOL0     C 7490  -0.474  10.252   7.775 -0.7421  0.9663 -0.3521
  797MOL0     O 7491  -0.526  10.353   7.854 -0.0280  0.2247 -0.4835
  797MOL0     C 7492  -0.618  10.447   7.796 -0.2629  0.3968 -0.2938
  797MOL0     C 7493  -0.608  10.508   7.670 -1.3436  0.8141 -0.0163
  797MOL0     C 7494  -0.705  10.591   7.618 -0.4152 -0.4365  0.1379
  797MOL0     C 7495  -0.822  10.618   7.696 -0.2180 -0.2576  0.1684
  797MOL0     O 7496  -0.923  10.677   7.628  0.1032 -1.2710 -0.7845
  797MOL0     C 7497  -1.002  10.765   7.702  0.7812  0.4555  0.2669
  797MOL0     C 7498  -1.031  10.874   7.607  0.0306 -0.3821 -0.9469
  797MOL0     C 7499  -1.154  10.961   7.649  0.4779  0.0892 -0.3116
  797MOL0     C 7500  -1.287  10.892   7.691 -0.3942 -0.2339 -0.0491
  797MOL0     C 7501  -1.405  10.988   7.683 -0.2043 -0.6911  1.0168
  797MOL0     C 7502  -1.544  10.927   7.685  0.1404  0.0818 -0.4813
  797MOL0     C 7503  -1.657  11.032   7.669  0.5015  0.4514  0.0194
  797MOL0     C 7504  -1.787  10.971   7.720 -0.1878 -0.0946 -0.1552
  797MOL0    Cl 7505  -1.934  11.076   7.682 -0.4052 -0.0748  0.2338
  797MOL0     C 7506  -0.823  10.580   7.832 -1.1162  0.3198 -0.0816
  797MOL0     C 7507  -0.726  10.483   7.877  0.1211  0.1172  0.4562
  797MOL0     O 7508  -0.520  10.226   7.660  0.2188 -0.7887  0.1856
  797MOL0     C 7509  -0.285  10.241   7.929  0.1682 -0.0426  0.2375
  797MOL0     C 7510  -0.174  10.174   7.991  0.1219  0.0415  1.0743
  797MOL0     N 7511   0.602  10.029   8.297 -0.6650  0.1204  0.5936
  797MOL0     N 7512   0.646  10.114   8.383 -0.2774 -0.0802 -0.2902
  797MOL0     C 7513   1.321  10.819   9.235  0.1697  0.3864  0.6756
  797MOL0     C 7514   1.429  10.869   9.315 -0.7123 -0.4362  0.2007
  797MOL0     C 7515   1.681  11.028   9.682  1.0579  0.7379 -0.1932
  797MOL0     C 7516   1.696  11.090   9.807 -0.3488 -0.2278 -0.0167
  797MOL0     C 7517   1.817  11.122   9.862 -0.1595  0.6437 -0.8039
  797MOL0     C 7518   1.934  11.080   9.793 -0.2424  0.3245 -0.2264
  797MOL0     O 7519   2.067  11.105   9.826 -0.1461  0.3062  0.2172
  797MOL0     C 7520   2.085  11.171   9.949  0.4415  0.1105 -0.1644
  797MOL0     C 7521   2.233  11.165   9.985  0.4629  0.7427  0.0745
  797MOL0     C 7522   2.327  11.271   9.923 -0.0980  0.8271  0.0224
  797MOL0     C 7523   2.474  11.265   9.961  0.4035  0.3554  0.5753
  797MOL0     C 7524   2.536  11.391   9.920 -0.5920  0.4775 -0.9769
  797MOL0     C 7525   2.590  11.494   9.893  0.7834 -0.4786  0.2136
  797MOL0     C 7526   1.923  11.032   9.667 -0.3052  0.0463  0.2330
  797MOL0     C 7527   1.799  11.006   9.607 -0.1853  0.5330  0.3502
  797MOL0     H 7528   1.271  10.940   9.602  0.5236 -2.7151  0.7399
  797MOL0     H 7529   1.074  10.883   9.474  1.1136  2.2723  2.3090
  797MOL0     H 7530   1.140  10.752   9.038 -0.2115  0.9954  0.8855
  797MOL0     H 7531   1.167  10.602   9.153  2.0125  0.4574 -1.0607
  797MOL0     H 7532   0.926  10.581   9.147 -0.0938 -2.7305 -2.6435
  797MOL0     H 7533   0.906  10.724   9.045 -0.4933  0.6515  1.2027
  797MOL0     H 7534   1.035  10.591   8.868 -1.8348  1.1351  0.0524
  797MOL0     H 7535   1.032  10.449   8.974  0.2882  0.4680  0.6443
  797MOL0     H 7536   0.799  10.441   8.982 -1.4394 -0.1925 -1.5455
  797MOL0     H 7537   0.768  10.593   8.886 -2.7619 -0.9982  0.5787
  797MOL0     H 7538   0.860  10.504   8.693 -1.8278  0.6145  0.7441
  797MOL0     H 7539   0.929  10.360   8.777 -0.3504 -1.4167  1.2012
  797MOL0     H 7540   0.731  10.254   8.800  1.6914 -1.9222 -1.8105
  797MOL0     H 7541   0.626  10.398   8.784  0.7202 -0.5874  1.9158
  797MOL0     H 7542   0.676  10.381   8.531 -0.4241 -0.3137 -0.5804
  797MOL0     H 7543   0.792  10.249   8.574  1.6247  0.9016  0.4215
  797MOL0     H 7544   0.477  10.268   8.625  1.2601  1.0378  3.8736
  797MOL0     H 7545   0.568  10.135   8.678  1.0660  0.7478 -0.4062
  797MOL0     H 7546   0.342  10.062   8.491 -0.3117  2.0469  1.3290
  797MOL0     H 7547   0.426   9.840   8.175  0.7587  0.2217 -0.3183
  797MOL0     H 7548   0.344   9.843   8.327 -1.2314 -2.9725 -3.1891
  797MOL0     H 7549   0.316  10.077   8.133 -2.9980  1.5802 -0.5828
  797MOL0     H 7550   0.222  10.045   8.275  1.4112  0.1360  0.2033
  797MOL0     H 7551   0.139   9.825   8.159 -0.9703  1.2405  0.9435
  797MOL0     H 7552   0.218   9.899   8.014 -1.4861  0.1102 -0.7156
  797MOL0     H 7553   0.093  10.106   8.022 -1.6476  0.0601 -0.6907
  797MOL0     H 7554   0.012  10.046   8.170  0.0931 -1.1070  0.1786
  797MOL0     H 7555  -0.159   9.908   7.789  3.7231  0.5998  0.7660
  797MOL0     H 7556  -0.367  10.025   7.569  0.7278 -1.4373 -0.5406
  797MOL0     H 7557  -0.366   9.878   7.666  4.2787  0.3857 -2.4049
  797MOL0     H 7558  -0.498   9.995   7.692  0.4726  3.1520  0.4466
  797MOL0     H 7559  -0.522  10.479   7.610 -0.4340  0.5461  1.3633
  797MOL0     H 7560  -0.706  10.623   7.514 -4.0222 -0.1813  0.1255
  797MOL0     H 7561  -1.096  10.721   7.736 -0.0109  2.6748  1.1325
  797MOL0     H 7562  -0.953  10.798   7.794  0.0714 -0.7632  1.1100
  797MOL0     H 7563  -0.944  10.940   7.613  0.5775 -1.1440 -0.2913
  797MOL0     H 7564  -1.050  10.838   7.506  1.9745 -1.6603 -0.9112
  797MOL0     H 7565  -1.174  11.027   7.564 -1.2187  1.1245  0.8321
  797MOL0     H 7566  -1.116  11.033   7.722 -0.1750  0.3316 -0.2014
  797MOL0     H 7567  -1.316  10.801   7.639 -0.3535 -0.8810  1.0401
  797MOL0     H 7568  -1.263  10.866   7.795  2.8866  3.2811  0.3225
  797MOL0     H 7569  -1.396  11.041   7.588 -2.3521  2.4134  2.4011
  797MOL0     H 7570  -1.390  11.064   7.760  0.1842  0.1073  0.1643
  797MOL0     H 7571  -1.547  10.858   7.600  1.9441  0.7905 -1.1643
  797MOL0     H 7572  -1.554  10.874   7.780  3.3712  2.1877  1.2405
  797MOL0     H 7573  -1.681  11.055   7.565  2.0502 -1.0513 -0.7208
  797MOL0     H 7574  -1.632  11.127   7.717 -0.5634  1.2595 -0.9629
  797MOL0     H 7575  -1.782  10.958   7.828 -1.5106  0.4630 -0.0037
  797MOL0     H 7576  -1.813  10.874   7.678  2.2499 -0.8210 -0.1012
  797MOL0     H 7577  -0.890  10.603   7.913  0.7218 -3.7432  2.9790
  797MOL0     H 7578  -0.738  10.435   7.974 -2.3019 -3.6263 -1.4262
  797MOL0     H 7579  -0.309  10.336   7.975  0.2568  0.4352 -0.6719
  797MOL0     H 7580  -0.120  10.209   8.079  2.0537 -2.2198  0.9120
  797MOL0     H 7581   1.343  10.779   9.137  3.8126  4.0535 -0.3204
  797MOL0     H 7582   1.527  10.878   9.269 -0.4116 -0.6219  0.7888
  797MOL0     H 7583   1.612  11.136   9.859  1.0481  3.0395 -0.4038
  797MOL0     H 7584   1.812  11.179   9.954 -0.6872 -1.7404  0.7415
  797MOL0     H 7585   2.053  11.275   9.963 -1.4993 -0.7968  3.7655
  797MOL0     H 7586   2.034  11.115  10.028  0.4189 -0.9888 -0.9476
  797MOL0     H 7587   2.277  11.065   9.981  0.1866  0.4352  2.7099
  797MOL0     H 7588   2.223  11.186  10.092 -1.5854 -3.7381  1.0028
  797MOL0     H 7589   2.285  11.370   9.942 -0.2171  0.4191  2.1409
  797MOL0     H 7590   2.305  11.257   9.816 -3.7065 -3.9016  1.0335
  797MOL0     H 7591   2.516  11.181   9.906 -4.2813 -0.8311 -1.7020
  797MOL0     H 7592   2.477  11.262  10.070 -3.0945  0.3637  0.8040
  797MOL0     H 7593   2.648  11.584   9.884  0.1656  0.2984  2.9538
  797MOL0     H 7594   2.003  11.017   9.596 -1.5617 -1.3303 -0.9474
  797MOL0     H 7595   1.800  10.982   9.501  1.2234  0.7678  0.2891
  798MOL0     O 7596   6.911  10.076   0.258  0.3314 -0.4286  0.1458
  798MOL0     C 7597   6.979  10.176   0.289  0.3798  0.3016  0.0675
  798MOL0     O 7598   6.922  10.298   0.320 -0.1258  0.4855 -0.3570
  798MOL0     C 7599   6.788  10.323   0.301 -0.4818  0.6208 -0.4128
  798MOL0     C 7600   6.738  10.327   0.174  0.8980  0.2168  0.9103
  798MOL0     C 7601   6.600  10.343   0.153  0.9969 -0.8848 -0.0487
  798MOL0     C 7602   6.512  10.357   0.265 -0.3391 -0.5523 -0.3280
  798MOL0     O 7603   6.387  10.398   0.221  0.3533  0.6002 -0.7136
  798MOL0     C 7604   6.303  10.449   0.329  0.2726 -0.3086 -1.3949
  798MOL0     C 7605   6.191  10.547   0.269  0.2770  0.2518  0.2386
  798MOL0     C 7606   6.081  10.449   0.211  0.4482 -0.6841  1.2558
  798MOL0     C 7607   5.963  10.528   0.147 -0.2526  0.6922 -0.6372
  798MOL0     C 7608   5.833  10.440   0.133 -0.2318 -0.8945  1.1912
  798MOL0     C 7609   5.853  10.333   0.030 -0.0973  0.2738 -0.0424
  798MOL0     C 7610   5.721  10.260  -0.001  0.0817 -0.5967 -0.7815
  798MOL0     C 7611   5.631  10.361  -0.077  0.3895 -0.1933 -0.1022
  798MOL0     N 7612   5.517  10.291  -0.136 -0.4026 -0.3329 -0.1855
  798MOL0     C 7613   5.505  10.271  -0.267 -0.0882  0.8089 -0.6502
  798MOL0     C 7614   5.399  10.194  -0.285 -1.2639  0.2303  0.6161
  798MOL0     C 7615   5.356  10.142  -0.420  0.1892  0.4411 -1.2158
  798MOL0     C 7616   5.402   9.996  -0.429  0.2939  0.1982  0.1972
  798MOL0     C 7617   5.298   9.885  -0.424 -0.7118  0.4689 -0.3713
  798MOL0     C 7618   5.203   9.885  -0.299  0.0767 -0.6188  0.4697
  798MOL0     O 7619   5.092   9.791  -0.330  0.1906 -0.2120  0.6856
  798MOL0     C 7620   4.966   9.843  -0.361 -0.4592  0.2921 -0.3016
  798MOL0     C 7621   4.956   9.977  -0.408 -0.1192  0.7580  0.1412
  798MOL0     C 7622   4.835  10.034  -0.441 -0.0810 -0.0994  0.4765
  798MOL0     C 7623   4.854  10.173  -0.504 -0.9725 -0.3798 -0.4789
  798MOL0     C 7624   4.718   9.963  -0.430  0.0905 -0.2242 -0.5897
  798MOL0     C 7625   4.578  10.014  -0.454 -0.4249 -0.0815 -0.1611
  798MOL0     O 7626   4.483   9.924  -0.438 -0.6454  0.7806 -0.3711
  798MOL0     C 7627   4.349   9.940  -0.469  0.2012 -0.2610  0.7769
  798MOL0     C 7628   4.267   9.846  -0.406 -0.4702  0.6627 -0.2831
  798MOL0     C 7629   4.124   9.846  -0.420  0.7397 -0.3079 -0.2646
  798MOL0     C 7630   4.060   9.939  -0.497 -0.5198  0.4012  0.4439
  798MOL0     O 7631   3.924   9.935  -0.515 -0.1733  0.5311 -1.1525
  798MOL0     C 7632   3.850   9.816  -0.505 -0.5892  0.7132 -0.2657
  798MOL0     C 7633   3.756   9.826  -0.383  0.2782 -0.3723 -0.3333
  798MOL0     C 7634   3.699   9.688  -0.354  0.0127 -0.7243 -0.0940
  798MOL0     C 7635   3.646   9.684  -0.207 -0.3307  0.0750  0.4167
  798MOL0     C 7636   3.504   9.725  -0.190  0.7310 -0.1913 -0.4089
  798MOL0     C 7637   3.450   9.692  -0.052 -0.6659  0.2544 -0.4820
  798MOL0     C 7638   3.310   9.742  -0.038 -0.0928 -0.3332 -0.6613
  798MOL0     C 7639   3.267   9.749   0.115 -0.5189 -0.6321  0.0889
  798MOL0    Cl 7640   3.100   9.784   0.149  0.3534 -0.1295 -0.4490
  798MOL0     C 7641   4.136  10.038  -0.567 -0.3456 -0.5118  0.3957
  798MOL0     C 7642   4.278  10.034  -0.553 -0.2471  0.3313 -0.2252
  798MOL0     O 7643   4.560  10.127  -0.489  0.6909 -0.4361  0.7167
  798MOL0     C 7644   4.734   9.828  -0.376  0.0111  0.2133 -0.2923
  798MOL0     C 7645   4.859   9.774  -0.351  0.1907  0.5601  0.5020
  798MOL0     N 7646   5.339  10.178  -0.163 -0.9857  0.3959 -0.1643
  798MOL0     N 7647   5.413  10.234  -0.073 -0.0718  1.4563  0.5082
  798MOL0     C 7648   6.563  10.355   0.394 -0.2938  0.7081  0.0861
  798MOL0     C 7649   6.701  10.332   0.417 -0.0233  0.3817  0.0641
  798MOL0     C 7650   7.123  10.175   0.297 -0.5056  0.0452  0.8289
  798MOL0     C 7651   7.189  10.271   0.379 -0.2627  0.3564 -0.0957
  798MOL0     C 7652   7.329  10.284   0.366  0.6022 -0.1962 -0.1432
  798MOL0     C 7653   7.401  10.208   0.271 -0.0995  0.0938  0.2113
  798MOL0     O 7654   7.536  10.199   0.256 -0.5592 -0.1606  0.4593
  798MOL0     C 7655   7.605  10.253   0.365 -0.2119  0.0913  0.0145
  798MOL0     C 7656   7.759  10.226   0.361  0.0436 -0.4619  0.4611
  798MOL0     C 7657   7.815  10.251   0.228  0.4381  0.2861 -0.9532
  798MOL0     C 7658   7.957  10.212   0.214  0.0201  0.4053  0.4999
  798MOL0     C 7659   8.021  10.260   0.090 -0.0616  0.0171  0.5976
  798MOL0     C 7660   8.069  10.295  -0.017  0.1612  0.3157  0.5311
  798MOL0     C 7661   7.330  10.120   0.191 -0.1120  0.1088 -0.4707
  798MOL0     C 7662   7.194  10.098   0.206  0.1518 -0.8687  0.3269
  798MOL0     H 7663   6.808  10.314   0.092 -1.6231 -3.9824 -0.9602
  798MOL0     H 7664   6.561  10.354   0.052 -2.1035 -0.3157  1.1226
  798MOL0     H 7665   6.257  10.375   0.395  2.7313  1.5117  2.7963
  798MOL0     H 7666   6.375  10.505   0.389  2.1696 -2.2182 -1.7742
  798MOL0     H 7667   6.159  10.610   0.353 -0.0858  2.6224 -1.5547
  798MOL0     H 7668   6.223  10.617   0.192 -0.4013  1.1553  0.7612
  798MOL0     H 7669   6.127  10.379   0.141 -1.8083 -1.3480  0.3423
  798MOL0     H 7670   6.045  10.397   0.299  0.5023  0.8141  2.2087
  798MOL0     H 7671   5.948  10.614   0.212  0.4994 -0.2164  0.7939
  798MOL0     H 7672   5.993  10.562   0.047 -0.4745  2.7835 -0.0294
  798MOL0     H 7673   5.815  10.385   0.225 -0.1815 -2.2756  0.4061
  798MOL0     H 7674   5.754  10.510   0.103  0.1579 -1.0867 -0.3812
  798MOL0     H 7675   5.903  10.363  -0.062  1.1244  1.4681  0.9500
  798MOL0     H 7676   5.912  10.251   0.072 -0.5162 -0.2895 -0.5475
  798MOL0     H 7677   5.737  10.176  -0.069  0.1589 -0.0271 -1.4867
  798MOL0     H 7678   5.666  10.219   0.084  1.1794  0.8983  0.7312
  798MOL0     H 7679   5.692  10.405  -0.157 -0.7837 -2.4508 -2.3844
  798MOL0     H 7680   5.586  10.436  -0.011  1.2717 -0.7600  1.1803
  798MOL0     H 7681   5.566  10.306  -0.349 -0.6807  0.2052 -1.3685
  798MOL0     H 7682   5.248  10.148  -0.436 -0.2582  1.5963  1.6717
  798MOL0     H 7683   5.419  10.190  -0.494  4.4646 -1.6679  0.6828
  798MOL0     H 7684   5.476   9.975  -0.351 -0.5140  1.0323  1.2251
  798MOL0     H 7685   5.446   9.992  -0.529  1.2729  0.5153  0.6049
  798MOL0     H 7686   5.354   9.792  -0.442 -0.4653 -0.1987  3.2244
  798MOL0     H 7687   5.239   9.907  -0.514 -0.4838  2.4538 -0.0813
  798MOL0     H 7688   5.164   9.984  -0.273 -3.2056 -0.8609 -2.7437
  798MOL0     H 7689   5.265   9.849  -0.216  0.0983 -2.9566 -0.4832
  798MOL0     H 7690   5.047  10.035  -0.418  0.3797 -0.0912 -0.2960
  798MOL0     H 7691   4.798  10.237  -0.435  0.4272  1.3340 -0.8658
  798MOL0     H 7692   4.959  10.205  -0.506 -1.1927  0.5706  1.0510
  798MOL0     H 7693   4.813  10.196  -0.602 -1.5755  1.7746  0.2432
  798MOL0     H 7694   4.306   9.770  -0.340 -2.7741 -1.7124 -1.4742
  798MOL0     H 7695   4.063   9.773  -0.367 -2.6880  0.7818 -2.3668
  798MOL0     H 7696   3.791   9.798  -0.595  0.3486  4.1518 -1.6917
  798MOL0     H 7697   3.911   9.725  -0.493 -0.1944  1.2580  2.9550
  798MOL0     H 7698   3.811   9.864  -0.296  1.4397  0.7223 -1.5147
  798MOL0     H 7699   3.677   9.900  -0.399 -0.3402 -0.8068  0.6022
  798MOL0     H 7700   3.775   9.612  -0.375 -0.4074 -0.3632 -3.3822
  798MOL0     H 7701   3.616   9.673  -0.423 -2.3331  2.3710  1.7815
  798MOL0     H 7702   3.653   9.582  -0.169 -0.5728  0.3790  1.3008
  798MOL0     H 7703   3.708   9.747  -0.143 -0.6357  1.7735 -0.8885
  798MOL0     H 7704   3.438   9.659  -0.248 -1.1060 -0.9965  2.3969
  798MOL0     H 7705   3.497   9.830  -0.222  2.9124 -0.6030 -2.5112
  798MOL0     H 7706   3.452   9.583  -0.043  0.1562  0.2333 -0.8141
  798MOL0     H 7707   3.513   9.747   0.019 -1.9512  0.2910  0.6676
  798MOL0     H 7708   3.244   9.674  -0.092  1.2452 -1.2272 -1.2126
  798MOL0     H 7709   3.304   9.841  -0.084  0.2132  0.3418  0.6914
  798MOL0     H 7710   3.334   9.822   0.163  1.9692 -1.6030 -1.6841
  798MOL0     H 7711   3.284   9.656   0.169  1.8786  1.3394  3.1211
  798MOL0     H 7712   4.100  10.117  -0.632  1.9895  2.2633  2.2326
  798MOL0     H 7713   4.336  10.109  -0.605  0.6787 -1.4012 -1.7843
  798MOL0     H 7714   4.642   9.772  -0.369  0.0886 -0.6126 -3.8647
  798MOL0     H 7715   4.863   9.675  -0.307 -1.1183 -0.9776 -2.5180
  798MOL0     H 7716   6.503  10.375   0.483  0.6916  1.8063  0.5186
  798MOL0     H 7717   6.745  10.328   0.516  1.7514  2.4284 -0.5750
  798MOL0     H 7718   7.127  10.332   0.445  0.6483  1.5977 -0.3649
  798MOL0     H 7719   7.367  10.357   0.438 -0.1288 -2.2350  2.4647
  798MOL0     H 7720   7.586  10.360   0.380  2.3544  0.1791  4.0966
  798MOL0     H 7721   7.570  10.209   0.458 -1.4179 -0.9982 -0.9261
  798MOL0     H 7722   7.774  10.127   0.406  0.1315  0.4850  2.6714
  798MOL0     H 7723   7.800  10.302   0.429 -1.1353  0.1830  0.4712
  798MOL0     H 7724   7.813  10.358   0.205 -4.4443  0.7690  0.6340
  798MOL0     H 7725   7.759  10.192   0.155  0.4636 -2.4652  1.0942
  798MOL0     H 7726   7.950  10.103   0.217 -0.3996  0.4110 -0.1788
  798MOL0     H 7727   8.008  10.257   0.299 -2.1507  1.0514  1.5227
  798MOL0     H 7728   8.097  10.333  -0.113 -1.8318 -0.5096 -0.4188
  798MOL0     H 7729   7.381  10.054   0.122 -2.1045 -1.1608 -0.7960
  798MOL0     H 7730   7.130  10.029   0.153 -1.6395 -0.4330  1.8043
  799MOL0     O 7731   5.669   5.430   3.735  0.1772  0.0480 -0.1703
  799MOL0     C 7732   5.725   5.325   3.709  0.5184  0.1958 -0.1061
  799MOL0     O 7733   5.665   5.207   3.700  0.3921  0.3535 -0.1688
  799MOL0     C 7734   5.535   5.195   3.738 -0.7249  0.3206  0.3443
  799MOL0     C 7735   5.503   5.218   3.871  0.4213  0.9925 -0.4612
  799MOL0     C 7736   5.373   5.181   3.907 -0.8799  0.3856 -0.3039
  799MOL0     C 7737   5.274   5.138   3.813 -0.2243  0.1705 -0.9885
  799MOL0     O 7738   5.153   5.100   3.849 -0.1020  0.5035 -1.2845
  799MOL0     C 7739   5.073   5.189   3.921  0.4192  0.1864 -0.4387
  799MOL0     C 7740   4.928   5.149   3.916  1.0550 -0.7743 -0.4208
  799MOL0     C 7741   4.875   5.140   3.773 -0.4454 -0.0323  0.0775
  799MOL0     C 7742   4.721   5.122   3.755  0.3460 -0.3683  0.4038
  799MOL0     C 7743   4.676   5.101   3.609 -0.5161  0.2674 -0.0641
  799MOL0     C 7744   4.522   5.085   3.582 -0.5700  0.9624  0.5104
  799MOL0     C 7745   4.483   4.940   3.640 -0.2488  0.5359 -0.0017
  799MOL0     C 7746   4.334   4.905   3.606 -0.2154  0.0365  0.0752
  799MOL0     N 7747   4.226   4.960   3.697 -0.3210  0.2956  0.1281
  799MOL0     C 7748   4.090   4.959   3.673 -0.6000  0.1470 -0.0336
  799MOL0     C 7749   4.035   5.004   3.782 -0.0762 -0.0692 -0.2561
  799MOL0     C 7750   3.890   5.020   3.817 -0.8681 -0.7975  0.4072
  799MOL0     C 7751   3.842   5.144   3.741 -0.3395 -0.0157 -0.3147
  799MOL0     C 7752   3.685   5.161   3.749 -0.2172 -0.2231 -0.4570
  799MOL0     C 7753   3.626   5.271   3.654  0.2026 -0.7656 -0.3077
  799MOL0     O 7754   3.633   5.401   3.712 -0.0367  0.4004 -0.0770
  799MOL0     C 7755   3.602   5.504   3.636  0.1954 -0.9077  0.9659
  799MOL0     C 7756   3.526   5.504   3.518 -0.6704 -0.2156  0.5667
  799MOL0     C 7757   3.483   5.614   3.444 -0.1245 -0.6016 -0.1173
  799MOL0     C 7758   3.376   5.604   3.332 -0.1023 -0.5763  0.3902
  799MOL0     C 7759   3.537   5.743   3.484  0.1296  0.5526 -0.3671
  799MOL0     C 7760   3.506   5.876   3.426 -1.4213 -0.6806 -0.3626
  799MOL0     O 7761   3.542   5.984   3.504  0.2766  0.4636  0.7948
  799MOL0     C 7762   3.507   6.110   3.459 -0.2087  0.5744  0.4115
  799MOL0     C 7763   3.375   6.162   3.464  0.4463  0.4607 -0.3326
  799MOL0     C 7764   3.349   6.285   3.401 -0.7474 -0.4899  0.1792
  799MOL0     C 7765   3.455   6.366   3.347 -0.0365  0.3842 -0.1074
  799MOL0     O 7766   3.439   6.484   3.284 -0.4785  0.5036  0.0204
  799MOL0     C 7767   3.314   6.562   3.295  0.4035 -0.4853 -0.3871
  799MOL0     C 7768   3.304   6.678   3.194  0.3937  0.3923  0.3941
  799MOL0     C 7769   3.161   6.731   3.195  0.2153 -0.0515 -1.2039
  799MOL0     C 7770   3.137   6.854   3.109  0.3535 -1.1326  0.5410
  799MOL0     C 7771   3.210   6.979   3.146  0.3515 -0.0310  0.0042
  799MOL0     C 7772   3.182   7.095   3.041 -0.0140  0.3499 -0.3507
  799MOL0     C 7773   3.264   7.222   3.085 -0.7034  0.1766  0.1503
  799MOL0     C 7774   3.178   7.343   3.053 -0.4885  0.3189  0.3756
  799MOL0    Cl 7775   3.132   7.335   2.870 -0.5781  0.1090 -0.3444
  799MOL0     C 7776   3.585   6.319   3.353  0.3258  0.6361 -1.1144
  799MOL0     C 7777   3.606   6.190   3.407  0.0964  0.7946 -0.9064
  799MOL0     O 7778   3.466   5.886   3.306 -0.5704  0.1153  0.5208
  799MOL0     C 7779   3.616   5.748   3.595  0.2591 -0.2649 -1.0578
  799MOL0     C 7780   3.624   5.639   3.683 -0.1082 -0.1937 -0.2611
  799MOL0     N 7781   4.134   5.030   3.877  0.9353  0.2065  0.6274
  799MOL0     N 7782   4.246   5.022   3.821 -0.9908 -0.3133 -0.5634
  799MOL0     C 7783   5.310   5.121   3.678 -0.4044  0.1371 -0.0416
  799MOL0     C 7784   5.439   5.158   3.646 -0.5602 -0.0141  0.8340
  799MOL0     C 7785   5.868   5.330   3.673 -0.5497 -0.5804  0.2624
  799MOL0     C 7786   5.941   5.449   3.648 -0.4950 -0.6152 -0.1962
  799MOL0     C 7787   6.076   5.446   3.624  0.7408 -0.0336  0.3404
  799MOL0     C 7788   6.145   5.320   3.617 -0.1016 -0.9724  0.0519
  799MOL0     O 7789   6.276   5.312   3.595 -0.4492  0.9218 -0.4815
  799MOL0     C 7790   6.364   5.427   3.575 -0.4211 -0.9555  0.6067
  799MOL0     C 7791   6.365   5.493   3.436  0.1011 -0.5747 -0.0996
  799MOL0     C 7792   6.430   5.636   3.439  0.0269 -0.0246 -0.3969
  799MOL0     C 7793   6.589   5.631   3.434 -0.0336 -0.1826  0.5368
  799MOL0     C 7794   6.646   5.606   3.564  0.2106  0.3962  0.5958
  799MOL0     C 7795   6.693   5.582   3.672 -0.4346 -0.5357 -0.0307
  799MOL0     C 7796   6.081   5.206   3.648  1.3600 -0.4808 -0.2783
  799MOL0     C 7797   5.945   5.216   3.676  0.0842  0.6372 -0.3896
  799MOL0     H 7798   5.584   5.227   3.943  0.5562 -0.7803 -0.3448
  799MOL0     H 7799   5.349   5.182   4.013 -4.7909 -5.8233 -0.6004
  799MOL0     H 7800   5.093   5.164   4.025 -1.0967 -2.3756 -0.6927
  799MOL0     H 7801   5.094   5.294   3.897 -0.2047  1.0201  2.3598
  799MOL0     H 7802   4.912   5.057   3.973 -0.3050  0.4918  1.3532
  799MOL0     H 7803   4.867   5.224   3.967  1.1640 -1.9861  1.6340
  799MOL0     H 7804   4.897   5.236   3.725 -3.2677 -0.4114 -2.2846
  799MOL0     H 7805   4.921   5.060   3.715  2.2986  0.2869  1.6420
  799MOL0     H 7806   4.687   5.038   3.815 -2.3042  0.3485  0.0279
  799MOL0     H 7807   4.669   5.215   3.780 -1.3849  1.8188 -8.1303
  799MOL0     H 7808   4.719   5.180   3.547  0.7045 -1.4275 -1.4815
  799MOL0     H 7809   4.735   5.014   3.577  1.7973  1.7721 -0.1175
  799MOL0     H 7810   4.462   5.168   3.620 -1.8336  2.0190 -3.2645
  799MOL0     H 7811   4.507   5.091   3.473  2.1751  1.4633  0.0898
  799MOL0     H 7812   4.559   4.869   3.605 -0.9391 -0.2736  0.1193
  799MOL0     H 7813   4.487   4.931   3.749  0.4499 -0.1297 -0.0710
  799MOL0     H 7814   4.334   4.795   3.610  1.4556 -0.0079 -0.1374
  799MOL0     H 7815   4.307   4.916   3.501  2.4321 -3.2398 -1.1448
  799MOL0     H 7816   4.036   4.936   3.582 -3.0602  2.1504  0.8071
  799MOL0     H 7817   3.829   4.941   3.772  0.4944 -1.9731  0.5686
  799MOL0     H 7818   3.875   5.018   3.925  3.0931  0.8149  1.1377
  799MOL0     H 7819   3.858   5.147   3.633 -0.9314  1.4172 -0.3817
  799MOL0     H 7820   3.889   5.229   3.791 -2.6070  0.8089  0.5465
  799MOL0     H 7821   3.649   5.173   3.852 -0.7238 -2.6241 -0.2870
  799MOL0     H 7822   3.639   5.069   3.714 -2.9805  0.1410  1.8545
  799MOL0     H 7823   3.521   5.242   3.643  0.6567 -2.6269 -0.0767
  799MOL0     H 7824   3.674   5.263   3.556  1.4062 -0.3679  0.2358
  799MOL0     H 7825   3.499   5.403   3.488  0.6607  0.1508 -2.2808
  799MOL0     H 7826   3.351   5.499   3.315  0.9763 -0.4559 -2.4804
  799MOL0     H 7827   3.286   5.661   3.355 -1.2416 -2.7957  1.7480
  799MOL0     H 7828   3.409   5.642   3.235 -0.5890 -1.1435 -0.0004
  799MOL0     H 7829   3.286   6.111   3.497 -0.7329  2.7259  0.2039
  799MOL0     H 7830   3.244   6.312   3.392 -0.4270  0.0620 -4.0585
  799MOL0     H 7831   3.234   6.494   3.265  0.5220 -0.0957 -1.6504
  799MOL0     H 7832   3.304   6.600   3.397  1.0268  0.6630 -0.7294
  799MOL0     H 7833   3.374   6.756   3.225  1.3146 -1.4517  3.3974
  799MOL0     H 7834   3.336   6.652   3.093  1.1022  0.9103  0.4766
  799MOL0     H 7835   3.132   6.754   3.298 -1.7957  0.1196 -1.7733
  799MOL0     H 7836   3.087   6.660   3.158  1.3226 -1.0310 -1.5713
  799MOL0     H 7837   3.163   6.830   3.005  0.2650 -3.7166  1.0301
  799MOL0     H 7838   3.030   6.875   3.103  0.5517 -0.0090  0.8148
  799MOL0     H 7839   3.318   6.965   3.156  0.5691  0.5463 -1.2993
  799MOL0     H 7840   3.168   7.010   3.242 -0.9400 -1.0076 -0.2113
  799MOL0     H 7841   3.208   7.065   2.940  0.2229 -2.1768  0.3943
  799MOL0     H 7842   3.075   7.115   3.055 -0.4236 -1.4475 -0.6566
  799MOL0     H 7843   3.360   7.243   3.036 -0.8494 -1.0711 -0.7014
  799MOL0     H 7844   3.295   7.219   3.190 -0.0201  1.2430  0.0028
  799MOL0     H 7845   3.231   7.433   3.086  0.8547 -0.0174 -0.7756
  799MOL0     H 7846   3.091   7.333   3.118 -0.4698  1.3166  0.5716
  799MOL0     H 7847   3.665   6.376   3.306  2.0822 -0.0551  0.8834
  799MOL0     H 7848   3.705   6.147   3.407 -0.4514 -0.7137  2.1461
  799MOL0     H 7849   3.659   5.842   3.630  1.0716 -0.7895 -0.6049
  799MOL0     H 7850   3.683   5.636   3.774  1.2494  0.8921 -1.0778
  799MOL0     H 7851   5.238   5.091   3.603 -1.9301 -0.2890  1.5358
  799MOL0     H 7852   5.469   5.121   3.549  0.6771  0.0693  1.1703
  799MOL0     H 7853   5.884   5.541   3.656  1.6959  0.8212 -0.0341
  799MOL0     H 7854   6.109   5.548   3.604 -0.6601  0.7948  1.9681
  799MOL0     H 7855   6.349   5.505   3.650  1.8785  0.0703  0.0726
  799MOL0     H 7856   6.471   5.404   3.580  0.9670  3.5351 -2.3467
  799MOL0     H 7857   6.263   5.510   3.400  0.2909  1.0413  0.0378
  799MOL0     H 7858   6.434   5.431   3.377  1.3356 -0.0699  0.7686
  799MOL0     H 7859   6.392   5.688   3.528 -1.3673  1.2641 -1.6982
  799MOL0     H 7860   6.381   5.689   3.357 -1.1703  0.5159  0.6266
  799MOL0     H 7861   6.634   5.719   3.387  0.6151 -1.1065 -0.6125
  799MOL0     H 7862   6.618   5.547   3.371  0.7222 -1.0718  2.0126
  799MOL0     H 7863   6.739   5.565   3.768  1.3160  1.3594 -0.4435
  799MOL0     H 7864   6.135   5.112   3.657 -1.1699 -2.0467 -0.5657
  799MOL0     H 7865   5.894   5.123   3.703 -1.0849  1.1556 -0.7552
  800MOL0     O 7866   2.978   1.681   5.771 -0.2371  0.1200 -0.4409
  800MOL0     C 7867   3.015   1.610   5.675 -0.6167  0.0165  0.3169
  800MOL0     O 7868   2.942   1.549   5.582 -0.0087 -0.4559 -0.2560
  800MOL0     C 7869   2.809   1.596   5.572 -0.2529 -0.3375  0.7924
  800MOL0     C 7870   2.777   1.619   5.438  0.0204 -0.0372 -0.0734
  800MOL0     C 7871   2.655   1.657   5.392 -0.3627 -0.1013 -0.0468
  800MOL0     C 7872   2.553   1.679   5.490 -0.4756 -0.3896  0.1706
  800MOL0     O 7873   2.431   1.721   5.449  0.4397 -0.3819 -0.2530
  800MOL0     C 7874   2.350   1.656   5.349 -1.1603  0.1607 -0.1740
  800MOL0     C 7875   2.206   1.639   5.401  0.2035 -0.3357 -0.3424
  800MOL0     C 7876   2.127   1.750   5.469  0.4505 -0.3356  0.2473
  800MOL0     C 7877   1.974   1.730   5.483 -0.2572  0.3796  0.0830
  800MOL0     C 7878   1.902   1.839   5.560 -0.5966 -0.4529  0.9565
  800MOL0     C 7879   1.757   1.802   5.554  0.2063 -0.1970  0.1332
  800MOL0     C 7880   1.678   1.926   5.617 -0.4376  0.1739  0.9570
  800MOL0     C 7881   1.544   1.889   5.664 -0.3320 -0.1203  0.1797
  800MOL0     N 7882   1.465   1.794   5.576 -0.2190 -0.0356  0.3817
  800MOL0     C 7883   1.374   1.837   5.481 -1.1974  0.2600  0.0889
  800MOL0     C 7884   1.322   1.733   5.418 -0.0772 -0.5131  0.4053
  800MOL0     C 7885   1.206   1.730   5.316  0.1669 -0.0636 -0.4053
  800MOL0     C 7886   1.079   1.776   5.372  1.2880  0.2644  0.1735
  800MOL0     C 7887   0.960   1.745   5.276  0.7141  0.0861 -0.1181
  800MOL0     C 7888   0.955   1.837   5.156  0.5292 -0.5770 -0.1255
  800MOL0     O 7889   0.929   1.971   5.198  0.2416  0.6626 -0.1779
  800MOL0     C 7890   0.912   2.070   5.108  0.1283 -0.1194  0.7852
  800MOL0     C 7891   0.902   2.199   5.152 -1.1893 -0.1193  0.0993
  800MOL0     C 7892   0.852   2.299   5.066  1.2497  0.3320  0.1403
  800MOL0     C 7893   0.799   2.433   5.128 -1.2576  0.9941  0.4883
  800MOL0     C 7894   0.849   2.282   4.931 -0.3852  0.1360  0.6088
  800MOL0     C 7895   0.821   2.387   4.829 -0.1552  0.1608 -1.0722
  800MOL0     O 7896   0.778   2.341   4.704  0.0036  1.4737 -0.0487
  800MOL0     C 7897   0.723   2.445   4.638 -0.2365  0.6242  0.3081
  800MOL0     C 7898   0.788   2.499   4.526 -0.1671 -0.9799 -0.5845
  800MOL0     C 7899   0.736   2.601   4.456 -0.1552 -0.1266 -0.4282
  800MOL0     C 7900   0.628   2.669   4.509 -0.4765 -0.2813  0.5104
  800MOL0     O 7901   0.563   2.783   4.466 -0.3766 -0.6052  0.2331
  800MOL0     C 7902   0.617   2.859   4.351 -1.5346 -0.5792  1.4202
  800MOL0     C 7903   0.600   3.005   4.367 -0.0713 -0.5535  0.0466
  800MOL0     C 7904   0.687   3.058   4.489 -0.5691 -0.7898  0.3169
  800MOL0     C 7905   0.761   3.181   4.445  0.0579  0.4453  0.1023
  800MOL0     C 7906   0.846   3.245   4.563 -0.5443  0.0336 -0.4432
  800MOL0     C 7907   0.958   3.158   4.616 -0.4765  0.7242  0.1149
  800MOL0     C 7908   1.036   3.232   4.723  0.4255  0.2090  0.6482
  800MOL0     C 7909   1.152   3.146   4.781  0.8053 -0.6416 -0.2257
  800MOL0    Cl 7910   1.268   3.120   4.647 -0.4147  0.6787  0.0722
  800MOL0     C 7911   0.551   2.607   4.612 -0.2145 -0.2835  0.8107
  800MOL0     C 7912   0.600   2.495   4.677 -0.4385  0.5922  0.3052
  800MOL0     O 7913   0.832   2.502   4.863  0.4096  0.2105  0.2510
  800MOL0     C 7914   0.870   2.148   4.886 -0.5196  0.1563 -0.3761
  800MOL0     C 7915   0.897   2.044   4.971  0.1411  0.4094  0.0437
  800MOL0     N 7916   1.366   1.621   5.491 -0.0858 -0.3124  0.2545
  800MOL0     N 7917   1.448   1.660   5.586 -0.2049  0.1602 -0.6888
  800MOL0     C 7918   2.586   1.661   5.625  0.0751 -0.3882 -0.0739
  800MOL0     C 7919   2.711   1.621   5.670  0.3471 -0.0399 -0.2171
  800MOL0     C 7920   3.155   1.582   5.668 -0.2978  0.5595  0.2079
  800MOL0     C 7921   3.214   1.519   5.552  0.0955 -0.2316  0.0564
  800MOL0     C 7922   3.350   1.496   5.544  0.7529  0.4090  0.5333
  800MOL0     C 7923   3.427   1.512   5.662  0.8941 -0.3261 -0.1256
  800MOL0     O 7924   3.567   1.507   5.647 -0.3152  0.3514 -0.3443
  800MOL0     C 7925   3.644   1.464   5.764  0.3942  0.8349  0.0092
  800MOL0     C 7926   3.794   1.457   5.746 -0.1111  0.5466  0.2150
  800MOL0     C 7927   3.832   1.327   5.659  1.6028  0.0136  0.2730
  800MOL0     C 7928   3.955   1.343   5.569 -0.1966 -0.1469  0.1884
  800MOL0     C 7929   4.075   1.362   5.645 -0.5792  1.0508  0.0971
  800MOL0     C 7930   4.179   1.377   5.715 -0.8265 -0.2417  0.5460
  800MOL0     C 7931   3.370   1.557   5.775  0.5108 -0.4313 -0.2295
  800MOL0     C 7932   3.234   1.590   5.781 -0.0142 -0.0130 -0.0789
  800MOL0     H 7933   2.856   1.594   5.367  0.2110 -0.5776  0.3200
  800MOL0     H 7934   2.648   1.693   5.290  3.1183  2.0533  0.3104
  800MOL0     H 7935   2.348   1.718   5.259 -2.8399 -0.4362 -0.5846
  800MOL0     H 7936   2.395   1.561   5.318 -1.9150  0.5440 -2.6777
  800MOL0     H 7937   2.151   1.609   5.311  0.1903  1.9456 -1.1647
  800MOL0     H 7938   2.203   1.560   5.476  4.1096  2.1763  2.9471
  800MOL0     H 7939   2.177   1.766   5.566  1.2468 -2.8756  0.3381
  800MOL0     H 7940   2.140   1.845   5.417 -1.7459  1.6620  3.0722
  800MOL0     H 7941   1.930   1.725   5.383 -1.3049 -1.0704  0.5796
  800MOL0     H 7942   1.951   1.632   5.528 -2.4278  0.5789 -0.4684
  800MOL0     H 7943   1.929   1.850   5.666  0.4271  3.1824  0.4613
  800MOL0     H 7944   1.926   1.936   5.516  0.8741 -1.5212 -0.7745
  800MOL0     H 7945   1.722   1.795   5.451  3.3993  2.4641 -1.2932
  800MOL0     H 7946   1.743   1.714   5.618 -4.3722  0.4760  0.3937
  800MOL0     H 7947   1.726   1.975   5.703  0.1076  0.9310  0.2433
  800MOL0     H 7948   1.670   2.005   5.541  2.0403  0.9832  1.4132
  800MOL0     H 7949   1.487   1.981   5.676  1.2136  0.8107  0.6041
  800MOL0     H 7950   1.565   1.840   5.760 -1.0830  0.7215  0.7885
  800MOL0     H 7951   1.347   1.938   5.451 -1.8437  0.2563  0.6421
  800MOL0     H 7952   1.228   1.797   5.233  0.1551  1.4945  0.8037
  800MOL0     H 7953   1.194   1.625   5.285  0.2052  0.3350 -1.8438
  800MOL0     H 7954   1.082   1.883   5.397  3.0756 -0.0643  1.6131
  800MOL0     H 7955   1.053   1.724   5.464 -1.0203 -2.7175 -1.9666
  800MOL0     H 7956   0.863   1.762   5.324  0.5602  1.2497 -0.7892
  800MOL0     H 7957   0.954   1.643   5.238  0.6873 -0.0576  0.2689
  800MOL0     H 7958   0.869   1.811   5.093  0.1486  2.8988 -1.2583
  800MOL0     H 7959   1.051   1.828   5.104  0.5648  0.2482 -0.2099
  800MOL0     H 7960   0.895   2.231   5.256 -2.4563  2.3873 -0.6688
  800MOL0     H 7961   0.862   2.520   5.107 -1.7376  1.5084  1.1095
  800MOL0     H 7962   0.696   2.456   5.096 -1.8656 -1.1391  0.7849
  800MOL0     H 7963   0.817   2.425   5.235  1.4072  0.9416  0.0969
  800MOL0     H 7964   0.884   2.463   4.489  0.9393  2.0800 -0.9920
  800MOL0     H 7965   0.781   2.643   4.367  1.4728 -1.3335 -0.2049
  800MOL0     H 7966   0.725   2.843   4.339 -1.8036 -1.0376 -0.9021
  800MOL0     H 7967   0.565   2.813   4.266 -1.9314  0.0500  1.3183
  800MOL0     H 7968   0.616   3.063   4.276  2.5609 -0.9588  0.1936
  800MOL0     H 7969   0.494   3.028   4.382 -0.0617 -0.6139  0.2140
  800MOL0     H 7970   0.744   2.979   4.539  0.5161 -1.5647 -2.0317
  800MOL0     H 7971   0.628   3.108   4.567 -0.0358  0.2962  0.0484
  800MOL0     H 7972   0.833   3.143   4.372 -1.3089 -0.5033 -0.7844
  800MOL0     H 7973   0.693   3.258   4.409 -1.4282  0.5305  2.7933
  800MOL0     H 7974   0.786   3.275   4.650 -1.2418  2.3202 -1.6512
  800MOL0     H 7975   0.888   3.342   4.534 -3.2238  1.3785 -0.0956
  800MOL0     H 7976   0.924   3.059   4.648  0.6394 -0.5202 -2.2501
  800MOL0     H 7977   1.030   3.136   4.536  0.4866 -2.0332  1.5904
  800MOL0     H 7978   0.962   3.252   4.801 -1.3770 -1.4053 -0.5486
  800MOL0     H 7979   1.070   3.330   4.690 -2.5025  1.1842  0.2406
  800MOL0     H 7980   1.116   3.045   4.802 -0.7712 -0.4605 -1.7862
  800MOL0     H 7981   1.190   3.193   4.872  3.7112 -3.5798  0.3170
  800MOL0     H 7982   0.446   2.631   4.625 -0.2271  1.1503 -1.4986
  800MOL0     H 7983   0.545   2.445   4.757  0.1864  1.6156  1.4058
  800MOL0     H 7984   0.867   2.135   4.778 -2.4561  1.3869 -0.5194
  800MOL0     H 7985   0.887   1.942   4.936 -1.7677  0.3574  0.6101
  800MOL0     H 7986   2.515   1.686   5.703  0.4608 -0.5862  0.3506
  800MOL0     H 7987   2.723   1.611   5.777  0.2020  0.4505 -0.1518
  800MOL0     H 7988   3.160   1.501   5.460  0.2378 -0.1741 -0.0388
  800MOL0     H 7989   3.374   1.472   5.441 -2.8324  1.5457 -0.7216
  800MOL0     H 7990   3.631   1.536   5.845  1.3258  1.1392 -0.1094
  800MOL0     H 7991   3.607   1.366   5.796 -0.5755  0.4912 -1.9966
  800MOL0     H 7992   3.852   1.456   5.838  1.0243  0.8801 -0.4765
  800MOL0     H 7993   3.808   1.554   5.697 -2.4498  1.1580  0.6274
  800MOL0     H 7994   3.746   1.314   5.593  1.6386  0.0538  0.2186
  800MOL0     H 7995   3.838   1.232   5.713 -1.1039 -0.2029  0.3392
  800MOL0     H 7996   3.941   1.438   5.516  1.3294  0.2248  0.3875
  800MOL0     H 7997   3.974   1.267   5.493  1.4655 -1.4365  1.8099
  800MOL0     H 7998   4.275   1.412   5.746  0.8098  1.1067 -4.9266
  800MOL0     H 7999   3.426   1.579   5.865  0.1538 -3.7805  0.9633
  800MOL0     H 8000   3.189   1.637   5.869 -3.2181  0.5772 -1.8895
  801MOL0     O 8001   8.872   7.045   3.130  0.2989  0.7840 -0.4065
  801MOL0     C 8002   8.882   6.984   3.241 -0.4873 -0.1922  0.3048
  801MOL0     O 8003   8.788   6.898   3.293 -0.2255 -0.7110  0.2876
  801MOL0     C 8004   8.654   6.922   3.251  0.4936 -0.1068 -0.3462
  801MOL0     C 8005   8.570   6.813   3.255  0.8467  0.4548 -0.6021
  801MOL0     C 8006   8.429   6.833   3.241 -0.1440 -0.4708  0.4109
  801MOL0     C 8007   8.379   6.955   3.205  0.2048  0.6573  0.8757
  801MOL0     O 8008   8.239   6.970   3.176 -0.2884  0.2878  0.3965
  801MOL0     C 8009   8.151   6.934   3.273  0.1910  0.3209  0.0467
  801MOL0     C 8010   8.054   6.837   3.200 -0.7427  0.6559  0.3758
  801MOL0     C 8011   7.966   6.773   3.305 -0.2240 -0.5526 -0.4844
  801MOL0     C 8012   7.853   6.702   3.236  0.3806 -0.5387 -0.3463
  801MOL0     C 8013   7.748   6.648   3.335  0.3621  0.4425  0.2892
  801MOL0     C 8014   7.652   6.541   3.267 -0.7117 -0.3914  0.5122
  801MOL0     C 8015   7.534   6.610   3.199 -0.0447 -0.3628 -0.3760
  801MOL0     C 8016   7.424   6.645   3.292  0.2615 -0.6220 -0.1449
  801MOL0     N 8017   7.305   6.673   3.217  0.5510  0.3093  0.3144
  801MOL0     C 8018   7.244   6.605   3.115  0.6530  0.9164 -0.4116
  801MOL0     C 8019   7.137   6.685   3.071  0.2733 -0.0888  1.1497
  801MOL0     C 8020   7.041   6.643   2.964  0.0641 -0.3423  0.4551
  801MOL0     C 8021   7.060   6.743   2.847  0.5075  0.2626  0.1001
  801MOL0     C 8022   6.979   6.878   2.861  0.1561  0.9173 -0.6668
  801MOL0     C 8023   6.957   6.943   2.717  0.5253 -0.3692 -0.8081
  801MOL0     O 8024   6.911   6.845   2.625 -0.0604  0.2314  0.2693
  801MOL0     C 8025   6.776   6.817   2.598 -0.4192  0.1265  0.1602
  801MOL0     C 8026   6.745   6.700   2.517 -0.1448 -0.8362 -0.5641
  801MOL0     C 8027   6.614   6.642   2.514 -0.6518 -0.3466  0.3172
  801MOL0     C 8028   6.600   6.515   2.435 -0.0410 -0.1089 -0.3126
  801MOL0     C 8029   6.505   6.716   2.578  1.0094  0.2436  0.5421
  801MOL0     C 8030   6.366   6.662   2.574  0.2484  0.0005 -0.4960
  801MOL0     O 8031   6.332   6.553   2.516  0.0712  0.0684  0.4467
  801MOL0     C 8032   6.192   6.538   2.482 -1.1332  1.1621 -0.1210
  801MOL0     C 8033   6.151   6.595   2.359  0.7109  0.1030  0.1091
  801MOL0     C 8034   6.021   6.593   2.316  0.2301  0.6070 -0.4909
  801MOL0     C 8035   5.921   6.539   2.403 -0.5564 -0.2860  0.4201
  801MOL0     O 8036   5.799   6.533   2.337 -0.5888 -0.0423 -0.0377
  801MOL0     C 8037   5.719   6.432   2.396 -0.8052 -0.0278  0.6430
  801MOL0     C 8038   5.609   6.405   2.299  0.4226  1.0938 -0.0843
  801MOL0     C 8039   5.485   6.491   2.332 -0.2810 -0.3459  0.3367
  801MOL0     C 8040   5.366   6.462   2.236  0.7405  0.4809  0.5442
  801MOL0     C 8041   5.250   6.547   2.291 -0.0739 -0.2611 -0.7213
  801MOL0     C 8042   5.121   6.516   2.227  0.2202 -0.0706  0.1675
  801MOL0     C 8043   5.100   6.502   2.072 -1.1774 -1.1149 -0.2960
  801MOL0     C 8044   5.114   6.646   2.006  0.1413  0.6368  0.7306
  801MOL0    Cl 8045   5.108   6.626   1.828  0.1289 -0.1611  0.0616
  801MOL0     C 8046   5.958   6.494   2.530  0.2565 -0.3465  0.1965
  801MOL0     C 8047   6.095   6.499   2.573  1.1810 -0.1430 -0.0885
  801MOL0     O 8048   6.281   6.720   2.643 -0.4233 -0.0055 -0.0655
  801MOL0     C 8049   6.531   6.835   2.645  0.2809 -0.3674 -0.0451
  801MOL0     C 8050   6.669   6.882   2.653  0.8622 -0.3720  0.1100
  801MOL0     N 8051   7.141   6.800   3.144 -0.3746  0.0035 -0.1475
  801MOL0     N 8052   7.238   6.788   3.230  0.3052 -0.2302 -0.1445
  801MOL0     C 8053   8.473   7.058   3.187 -0.2071  0.0670 -0.6697
  801MOL0     C 8054   8.607   7.043   3.219 -0.6649  0.3875 -0.1283
  801MOL0     C 8055   9.019   6.978   3.301  0.9418  0.8314  0.1129
  801MOL0     C 8056   9.119   7.060   3.249 -0.8804  0.1952 -0.4699
  801MOL0     C 8057   9.249   7.052   3.306  1.2523 -0.2733 -0.2605
  801MOL0     C 8058   9.278   6.976   3.415 -0.7152  0.3566  0.2807
  801MOL0     O 8059   9.396   6.979   3.492 -0.8426 -0.5075 -0.1524
  801MOL0     C 8060   9.516   7.052   3.443  0.3408  0.9142 -0.1904
  801MOL0     C 8061   9.604   6.968   3.349  0.3177 -0.8432 -0.2814
  801MOL0     C 8062   9.595   6.812   3.376  0.0895  0.0505  0.4502
  801MOL0     C 8063   9.685   6.774   3.504  0.8527 -0.1282  0.0470
  801MOL0     C 8064   9.611   6.796   3.635  0.1104 -0.0851 -0.2773
  801MOL0     C 8065   9.555   6.829   3.738 -0.3564  0.3099  0.1719
  801MOL0     C 8066   9.183   6.892   3.460  0.0326  0.1286  0.2271
  801MOL0     C 8067   9.053   6.895   3.413 -0.1833  0.7858  1.2190
  801MOL0     H 8068   8.622   6.720   3.274  1.6278  1.4880  3.3363
  801MOL0     H 8069   8.361   6.749   3.257 -0.9134  0.1038  0.2119
  801MOL0     H 8070   8.186   6.873   3.357  1.7996  0.2934 -0.5979
  801MOL0     H 8071   8.093   7.020   3.307  3.2006  2.6899 -0.4266
  801MOL0     H 8072   8.006   6.880   3.111  1.8289  0.4957 -1.1768
  801MOL0     H 8073   8.125   6.761   3.166 -0.6001  0.5701  0.8710
  801MOL0     H 8074   8.022   6.704   3.370  1.6108  0.3559 -1.0558
  801MOL0     H 8075   7.919   6.839   3.378 -1.8759 -1.3858 -0.7415
  801MOL0     H 8076   7.803   6.772   3.167  1.7236  1.1194  0.2849
  801MOL0     H 8077   7.893   6.621   3.175  1.2149 -0.2524 -0.1894
  801MOL0     H 8078   7.803   6.618   3.424  1.8745  2.7150  0.2077
  801MOL0     H 8079   7.690   6.733   3.373 -1.6608 -1.0417  0.7086
  801MOL0     H 8080   7.707   6.477   3.197  0.2135 -2.4290  2.9751
  801MOL0     H 8081   7.616   6.469   3.340 -1.0859  1.1033  1.8545
  801MOL0     H 8082   7.562   6.703   3.149  0.6023 -0.6083 -0.4812
  801MOL0     H 8083   7.496   6.545   3.119 -0.6489  0.9652 -1.1932
  801MOL0     H 8084   7.449   6.737   3.345  1.1051  1.3589 -3.7180
  801MOL0     H 8085   7.400   6.563   3.362 -1.0390 -1.2910 -1.3263
  801MOL0     H 8086   7.272   6.507   3.076 -1.1499  0.2551 -0.1358
  801MOL0     H 8087   7.066   6.547   2.919  2.3532  0.4642 -0.1264
  801MOL0     H 8088   6.938   6.647   3.001  0.0019  0.0938  0.2433
  801MOL0     H 8089   7.029   6.689   2.757  0.2575  0.0029  0.3426
  801MOL0     H 8090   7.166   6.763   2.831  0.1989 -0.4737 -3.7647
  801MOL0     H 8091   7.029   6.939   2.937  2.5354  0.1721 -1.5243
  801MOL0     H 8092   6.881   6.846   2.897  0.0335 -1.4037 -2.7848
  801MOL0     H 8093   7.057   6.978   2.691  0.0806  1.4914 -0.1843
  801MOL0     H 8094   6.895   7.033   2.722  2.8090  1.2413  2.8365
  801MOL0     H 8095   6.833   6.655   2.470  0.8678 -1.8401  2.1106
  801MOL0     H 8096   6.691   6.479   2.385 -1.0098 -1.5187 -1.1215
  801MOL0     H 8097   6.578   6.431   2.501 -1.6948 -0.2351 -0.9792
  801MOL0     H 8098   6.526   6.526   2.356  0.2684 -2.8761 -1.0881
  801MOL0     H 8099   6.232   6.625   2.293  0.6216 -2.0072 -1.0695
  801MOL0     H 8100   5.994   6.623   2.216 -0.8775 -0.3693 -0.5204
  801MOL0     H 8101   5.786   6.345   2.394  0.2802  0.8025  0.5411
  801MOL0     H 8102   5.691   6.456   2.499  0.8895  2.9896  0.4887
  801MOL0     H 8103   5.650   6.423   2.199  2.8510 -0.2266  0.5903
  801MOL0     H 8104   5.575   6.302   2.308  1.8734  0.7176  1.7696
  801MOL0     H 8105   5.520   6.595   2.323  1.4423 -0.9444 -0.3376
  801MOL0     H 8106   5.470   6.468   2.438 -0.0424 -0.3056  0.3807
  801MOL0     H 8107   5.387   6.479   2.130  0.6571  1.2393  0.6467
  801MOL0     H 8108   5.342   6.355   2.224  0.9385  0.6143 -1.4534
  801MOL0     H 8109   5.275   6.652   2.269 -0.9427  0.8761  2.9700
  801MOL0     H 8110   5.243   6.540   2.400  1.0510  0.0627 -0.6084
  801MOL0     H 8111   5.092   6.421   2.272  1.1623  0.2301  1.4647
  801MOL0     H 8112   5.048   6.591   2.258 -1.4454 -0.8864 -1.5674
  801MOL0     H 8113   5.002   6.456   2.054 -2.0699  0.2556  0.7964
  801MOL0     H 8114   5.177   6.441   2.023 -1.6643 -0.0181 -2.5699
  801MOL0     H 8115   5.204   6.702   2.033  0.3714 -0.9459  3.5142
  801MOL0     H 8116   5.027   6.706   2.036  0.0910  0.4225  1.0085
  801MOL0     H 8117   5.879   6.447   2.588  0.7724 -0.9339  0.4365
  801MOL0     H 8118   6.128   6.481   2.674 -1.7391  2.4590  1.4782
  801MOL0     H 8119   6.446   6.877   2.697 -1.0758 -1.4923 -1.2329
  801MOL0     H 8120   6.685   6.965   2.721 -0.3886 -0.1585  0.1748
  801MOL0     H 8121   8.435   7.155   3.155 -2.1000 -0.2840  0.4131
  801MOL0     H 8122   8.661   7.138   3.221  0.5588 -0.2576 -1.2160
  801MOL0     H 8123   9.111   7.132   3.168 -0.7630  1.8501  0.9060
  801MOL0     H 8124   9.327   7.104   3.251 -1.8608  0.9212 -3.9647
  801MOL0     H 8125   9.484   7.141   3.388  1.1694  1.3666  0.0445
  801MOL0     H 8126   9.591   7.072   3.520 -0.1924  2.5870 -0.0810
  801MOL0     H 8127   9.710   6.990   3.361  0.2432 -0.9627  0.6985
  801MOL0     H 8128   9.574   6.986   3.245 -0.4929 -1.8442 -0.2381
  801MOL0     H 8129   9.637   6.759   3.290 -4.0204  0.7062 -2.2997
  801MOL0     H 8130   9.490   6.780   3.383  0.0246  0.6299  3.6227
  801MOL0     H 8131   9.779   6.830   3.504  0.5273  0.5289 -2.6470
  801MOL0     H 8132   9.709   6.668   3.494 -0.1332 -0.3537 -0.0205
  801MOL0     H 8133   9.498   6.866   3.821 -1.0970  0.7123 -0.4959
  801MOL0     H 8134   9.213   6.821   3.537  0.1801 -0.8761 -0.7222
  801MOL0     H 8135   8.976   6.828   3.450  0.6949 -1.5642 -0.8945
  802MOL0     O 8136   2.334   8.534   9.930 -0.2321  0.4332  0.4189
  802MOL0     C 8137   2.355   8.498  10.051  0.9981  0.4575  1.0096
  802MOL0     O 8138   2.255   8.447  10.130 -0.2568  0.2645 -0.2161
  802MOL0     C 8139   2.119   8.472  10.117  0.3658 -0.0353  0.4730
  802MOL0     C 8140   2.071   8.590  10.063 -0.4239 -0.2212 -0.0489
  802MOL0     C 8141   1.935   8.606  10.047 -0.8393  0.2512 -0.2506
  802MOL0     C 8142   1.849   8.516  10.102 -0.0721 -0.8604 -0.3015
  802MOL0     O 8143   1.715   8.540  10.096 -0.6595 -0.6115 -0.0916
  802MOL0     C 8144   1.664   8.561  10.226 -0.4643  0.0578 -0.0626
  802MOL0     C 8145   1.519   8.599  10.217 -0.3116 -0.4992  0.6764
  802MOL0     C 8146   1.448   8.612  10.352 -0.2505  0.8609 -0.6759
  802MOL0     C 8147   1.298   8.649  10.333 -0.0654 -0.4655  0.9840
  802MOL0     C 8148   1.218   8.638  10.463 -0.1204  0.5102 -0.4101
  802MOL0     C 8149   1.065   8.667  10.451  0.2141 -1.2604 -0.0287
  802MOL0     C 8150   0.987   8.550  10.400  0.7447  0.4209  0.7961
  802MOL0     C 8151   0.833   8.567  10.381  0.1010 -0.6548 -0.1157
  802MOL0     N 8152   0.768   8.597  10.502 -0.6794  0.7010 -0.7387
  802MOL0     C 8153   0.735   8.724  10.534  0.5963 -0.5807  0.2052
  802MOL0     C 8154   0.679   8.714  10.659  0.0469  0.2160 -0.2757
  802MOL0     C 8155   0.609   8.830  10.736 -0.1519  0.0415 -0.8203
  802MOL0     C 8156   0.471   8.877  10.692  0.3208  0.1131 -0.0045
  802MOL0     C 8157   0.480   8.971  10.566  0.6391  0.4759 -0.8966
  802MOL0     C 8158   0.337   8.992  10.508  0.5790  0.3015  0.5916
  802MOL0     O 8159   0.246   9.074  10.583 -0.3615  0.7432 -0.5801
  802MOL0     C 8160   0.115   9.080  10.541  0.0002  0.2983 -0.0779
  802MOL0     C 8161   0.016   9.138  10.620  0.7858  0.0133 -0.0917
  802MOL0     C 8162  -0.110   9.173  10.580 -0.0319  0.9938  0.1227
  802MOL0     C 8163  -0.202   9.253  10.671  0.3168 -0.2191 -1.0416
  802MOL0     C 8164  -0.151   9.132  10.452 -0.0828 -0.2391 -0.4532
  802MOL0     C 8165  -0.290   9.149  10.398 -1.1021 -0.4150  0.7946
  802MOL0     O 8166  -0.392   9.144  10.485  0.1588  0.1650 -0.0416
  802MOL0     C 8167  -0.512   9.201  10.464 -0.7854  0.1577 -0.8888
  802MOL0     C 8168  -0.527   9.316  10.382  0.9804 -0.0396  0.0720
  802MOL0     C 8169  -0.644   9.395  10.381  0.3928 -0.1510 -1.3297
  802MOL0     C 8170  -0.749   9.353  10.460 -0.0578  0.5573 -0.3354
  802MOL0     O 8171  -0.863   9.426  10.472 -0.1180 -0.3606  0.1711
  802MOL0     C 8172  -0.932   9.469  10.348  0.3794 -0.0125 -0.6552
  802MOL0     C 8173  -1.058   9.386  10.323  0.4447  0.0945  0.1110
  802MOL0     C 8174  -1.147   9.417  10.446  1.0667 -0.1324  0.2335
  802MOL0     C 8175  -1.289   9.365  10.421 -0.9933  0.0692 -1.1854
  802MOL0     C 8176  -1.388   9.426  10.516 -0.6900 -0.2617 -0.7584
  802MOL0     C 8177  -1.535   9.397  10.484  0.0957 -0.4038 -0.4167
  802MOL0     C 8178  -1.625   9.477  10.573 -0.8608 -0.3321  0.5591
  802MOL0     C 8179  -1.755   9.487  10.506 -0.1598  0.7298  0.5891
  802MOL0    Cl 8180  -1.871   9.577  10.621  0.0070 -0.0032 -0.1957
  802MOL0     C 8181  -0.736   9.237  10.536  0.7794  0.0160  0.5270
  802MOL0     C 8182  -0.622   9.162  10.541 -0.3789 -0.1904 -0.6243
  802MOL0     O 8183  -0.309   9.142  10.276 -0.0681  0.3409  0.4947
  802MOL0     C 8184  -0.060   9.062  10.376  0.3006 -0.6511  0.5393
  802MOL0     C 8185   0.068   9.035  10.413 -0.7709 -0.0596 -0.2317
  802MOL0     N 8186   0.695   8.584  10.698 -0.4957  0.1681 -0.5339
  802MOL0     N 8187   0.739   8.512  10.598  0.7102 -0.0365  0.2772
  802MOL0     C 8188   1.894   8.404  10.167 -0.1477  0.0035  0.2029
  802MOL0     C 8189   2.035   8.386  10.176 -0.0522  0.0508 -0.2651
  802MOL0     C 8190   2.489   8.498  10.104 -0.3036 -0.3752  0.2568
  802MOL0     C 8191   2.587   8.541  10.019  0.0098  0.5775  0.7107
  802MOL0     C 8192   2.723   8.537  10.056  0.2257 -0.6951 -0.7074
  802MOL0     C 8193   2.757   8.494  10.181 -0.0504  0.5169  0.0981
  802MOL0     O 8194   2.887   8.508  10.210 -0.0662 -0.3190 -0.3651
  802MOL0     C 8195   2.920   8.516  10.346 -0.1858  0.2919  1.1325
  802MOL0     C 8196   3.028   8.409  10.364 -0.0502  0.0655 -0.0714
  802MOL0     C 8197   3.071   8.386  10.513  0.1128  0.1347  0.5065
  802MOL0     C 8198   3.121   8.513  10.582  0.8012  0.0809 -0.3205
  802MOL0     C 8199   3.218   8.579  10.497  0.8130  0.3589 -0.5413
  802MOL0     C 8200   3.294   8.632  10.423 -0.3509 -0.2852 -0.5978
  802MOL0     C 8201   2.655   8.439  10.268  0.2262  0.6407  0.1715
  802MOL0     C 8202   2.526   8.434  10.232 -0.2755  0.1561 -0.1144
  802MOL0     H 8203   2.133   8.672  10.030 -1.4038 -0.4786 -2.8094
  802MOL0     H 8204   1.893   8.697  10.005 -0.7030  0.1869 -0.5280
  802MOL0     H 8205   1.674   8.466  10.279  1.1562  0.6993  0.8461
  802MOL0     H 8206   1.724   8.635  10.280  3.4529 -2.3591 -0.6692
  802MOL0     H 8207   1.517   8.692  10.160 -1.7251 -0.5736  0.5837
  802MOL0     H 8208   1.476   8.521  10.155 -1.0913 -0.1211  0.7292
  802MOL0     H 8209   1.450   8.509  10.388  0.6100  1.2394  0.4005
  802MOL0     H 8210   1.510   8.679  10.412  0.7580 -1.8895  1.5879
  802MOL0     H 8211   1.286   8.751  10.295 -1.2473 -0.9704 -0.0824
  802MOL0     H 8212   1.250   8.586  10.258  0.2204 -0.4765  0.8105
  802MOL0     H 8213   1.233   8.542  10.514 -1.1814  0.3434 -0.3793
  802MOL0     H 8214   1.254   8.711  10.536 -1.7889  1.6305 -0.6649
  802MOL0     H 8215   1.027   8.690  10.551 -0.7551 -2.5585 -0.0718
  802MOL0     H 8216   1.040   8.750  10.384 -4.1296 -1.9802  0.4181
  802MOL0     H 8217   1.032   8.526  10.303 -1.5536  1.5226 -0.6353
  802MOL0     H 8218   0.999   8.463  10.465 -0.6749 -0.2809  0.1409
  802MOL0     H 8219   0.790   8.471  10.351 -1.6034  0.0824 -0.1889
  802MOL0     H 8220   0.812   8.638  10.299  2.8187  1.5011  0.9004
  802MOL0     H 8221   0.723   8.808  10.467  1.3281  0.5751  1.4850
  802MOL0     H 8222   0.603   8.800  10.841  1.3419 -1.4086 -1.1032
  802MOL0     H 8223   0.675   8.917  10.740  0.9536 -0.6745 -2.5010
  802MOL0     H 8224   0.435   8.952  10.763 -0.8264  1.1344 -1.5992
  802MOL0     H 8225   0.405   8.790  10.687  0.0239  0.3876 -1.0717
  802MOL0     H 8226   0.542   8.923  10.489  2.6902 -0.9462  1.4807
  802MOL0     H 8227   0.523   9.068  10.592 -0.1889  1.3426 -2.6237
  802MOL0     H 8228   0.294   8.893  10.490 -1.8765  1.1794  1.2542
  802MOL0     H 8229   0.354   9.035  10.408  0.9921 -0.6931  0.2129
  802MOL0     H 8230   0.045   9.157  10.723 -0.6463 -2.8101  0.9207
  802MOL0     H 8231  -0.146   9.282  10.760 -3.3262  1.0664  1.0472
  802MOL0     H 8232  -0.237   9.343  10.620 -4.8121  0.2195  2.5298
  802MOL0     H 8233  -0.295   9.204  10.702  0.6283  0.9985  2.2052
  802MOL0     H 8234  -0.451   9.353  10.315 -0.3296  1.3466 -0.7252
  802MOL0     H 8235  -0.643   9.487  10.324 -0.7016  0.3187 -0.6183
  802MOL0     H 8236  -0.967   9.572  10.359  2.2167  0.5875 -0.0153
  802MOL0     H 8237  -0.862   9.465  10.264  1.4650 -0.6487  0.2414
  802MOL0     H 8238  -1.107   9.413  10.230  1.2845 -0.4531 -0.5081
  802MOL0     H 8239  -1.051   9.277  10.312 -4.0535 -0.5416  1.5012
  802MOL0     H 8240  -1.164   9.525  10.445 -2.0908 -0.4855 -2.2654
  802MOL0     H 8241  -1.106   9.379  10.540  3.3641  0.1698 -0.5980
  802MOL0     H 8242  -1.316   9.381  10.316 -0.6253  0.4926 -1.2164
  802MOL0     H 8243  -1.283   9.256  10.433 -1.6961  0.2025  0.7841
  802MOL0     H 8244  -1.369   9.533  10.522  2.9480 -0.8736  2.0347
  802MOL0     H 8245  -1.364   9.388  10.615  0.9228  4.1627  0.7843
  802MOL0     H 8246  -1.543   9.444  10.386 -1.0579 -0.7408 -0.4974
  802MOL0     H 8247  -1.544   9.290  10.466 -2.4260 -0.3976  0.3212
  802MOL0     H 8248  -1.569   9.567  10.600 -0.2498 -1.6638  4.3181
  802MOL0     H 8249  -1.636   9.420  10.666 -0.9037 -0.4724  0.4679
  802MOL0     H 8250  -1.784   9.385  10.478  4.1709 -1.1122  1.9485
  802MOL0     H 8251  -1.754   9.543  10.412  0.7307 -1.5146 -0.8033
  802MOL0     H 8252  -0.810   9.215  10.612  1.1526  2.2811  1.6197
  802MOL0     H 8253  -0.622   9.081  10.614 -0.8009 -0.5352 -1.0009
  802MOL0     H 8254  -0.076   9.039  10.271  2.5082  2.5083 -0.6372
  802MOL0     H 8255   0.141   8.989  10.347 -0.5738 -1.5565  0.9865
  802MOL0     H 8256   1.828   8.328  10.206  0.6595 -1.4723 -1.1834
  802MOL0     H 8257   2.070   8.299  10.231 -1.1148  0.6816  1.5256
  802MOL0     H 8258   2.554   8.582   9.924  2.9619 -1.9624 -1.6080
  802MOL0     H 8259   2.800   8.563   9.985  0.9473  2.3072  0.9756
  802MOL0     H 8260   2.956   8.617  10.368  0.3685  0.7940 -1.7151
  802MOL0     H 8261   2.846   8.495  10.424 -2.3514 -1.8250 -1.2612
  802MOL0     H 8262   3.115   8.450  10.313  1.9491 -0.0063  3.0135
  802MOL0     H 8263   2.988   8.318  10.319  0.2039 -0.4844  0.7927
  802MOL0     H 8264   3.144   8.305  10.523  0.3740 -0.0441 -2.1513
  802MOL0     H 8265   2.977   8.366  10.565 -0.1460  1.8727  0.7754
  802MOL0     H 8266   3.168   8.490  10.678 -4.7694 -2.4459  2.2404
  802MOL0     H 8267   3.039   8.582  10.605 -0.0725 -0.4099 -1.8346
  802MOL0     H 8268   3.360   8.670  10.347  0.7995 -0.1897  0.4096
  802MOL0     H 8269   2.688   8.395  10.362  2.4252 -2.8362 -1.9766
  802MOL0     H 8270   2.441   8.403  10.292 -0.4340 -1.4917 -1.1336
  803MOL0     O 8271   1.140   1.846   2.371  0.7859  0.3233 -0.0318
  803MOL0     C 8272   1.232   1.895   2.306  0.6677  0.0152 -0.9005
  803MOL0     O 8273   1.226   1.971   2.195  0.8626  0.6563  0.5278
  803MOL0     C 8274   1.109   2.043   2.165  0.1362 -0.1979 -0.3842
  803MOL0     C 8275   1.024   2.096   2.269 -0.8543  0.3777 -0.9453
  803MOL0     C 8276   0.888   2.139   2.250  0.3823 -1.1322  0.8090
  803MOL0     C 8277   0.847   2.150   2.113 -0.3605 -0.3854  0.7642
  803MOL0     O 8278   0.719   2.171   2.079  0.5913  0.1216  0.2303
  803MOL0     C 8279   0.614   2.114   2.156  0.3513  0.8504 -0.1574
  803MOL0     C 8280   0.560   2.211   2.259  0.8626  0.5239 -0.1979
  803MOL0     C 8281   0.417   2.259   2.231  0.1593 -0.5790 -0.3681
  803MOL0     C 8282   0.416   2.363   2.116 -0.7087 -0.7721 -0.6215
  803MOL0     C 8283   0.274   2.410   2.101 -0.2406  0.3414 -0.2957
  803MOL0     C 8284   0.254   2.489   1.964  0.7537  0.8224 -0.3513
  803MOL0     C 8285   0.106   2.521   1.951  0.6376  0.4046 -1.0081
  803MOL0     C 8286   0.074   2.576   1.814  0.2882 -0.6128  0.4191
  803MOL0     N 8287   0.126   2.719   1.786 -0.0732  0.6221  0.2769
  803MOL0     C 8288   0.160   2.760   1.661 -0.2257  0.3118  0.6163
  803MOL0     C 8289   0.177   2.897   1.672 -0.9208  0.0764  0.0491
  803MOL0     C 8290   0.211   2.989   1.552 -0.9061 -0.2440  0.8686
  803MOL0     C 8291   0.301   2.933   1.437  0.5023  0.6091 -0.2647
  803MOL0     C 8292   0.431   2.891   1.509 -0.1244 -0.2935  0.3174
  803MOL0     C 8293   0.559   2.909   1.427 -0.3229 -0.3581 -0.5755
  803MOL0     O 8294   0.544   2.887   1.290  0.4086  0.6990  0.2735
  803MOL0     C 8295   0.647   2.840   1.215  0.3355 -0.4334  0.5023
  803MOL0     C 8296   0.619   2.804   1.084  0.3113 -0.4430 -0.2903
  803MOL0     C 8297   0.722   2.770   0.991  0.6110  0.2603 -1.0428
  803MOL0     C 8298   0.669   2.715   0.862 -0.8966 -0.2309  0.4235
  803MOL0     C 8299   0.853   2.782   1.024  0.3180  0.6842  0.2464
  803MOL0     C 8300   0.970   2.770   0.932 -0.2641  0.7676 -0.4532
  803MOL0     O 8301   1.085   2.731   1.006 -0.3871  0.6214  0.3105
  803MOL0     C 8302   1.209   2.758   0.940 -0.0852  0.3575  0.3575
  803MOL0     C 8303   1.252   2.890   0.909  0.0973  0.3372 -0.3253
  803MOL0     C 8304   1.375   2.911   0.850 -0.8254 -1.1872  0.0190
  803MOL0     C 8305   1.458   2.802   0.823  0.5754  0.8698 -0.3360
  803MOL0     O 8306   1.572   2.824   0.755 -0.2173 -0.0102 -0.1618
  803MOL0     C 8307   1.675   2.722   0.747 -0.8140 -0.2128 -0.3248
  803MOL0     C 8308   1.796   2.775   0.671 -0.9458  0.8845  0.5888
  803MOL0     C 8309   1.917   2.681   0.695  0.2239 -0.1357  0.0795
  803MOL0     C 8310   2.044   2.748   0.657 -0.5756  0.2006 -0.4336
  803MOL0     C 8311   2.168   2.658   0.656  0.9362  0.2277 -0.4845
  803MOL0     C 8312   2.292   2.724   0.600  0.0668 -0.3857  0.3050
  803MOL0     C 8313   2.410   2.631   0.623 -0.2886 -0.4923 -0.2299
  803MOL0     C 8314   2.521   2.633   0.510  0.2076  0.5018  0.0902
  803MOL0    Cl 8315   2.603   2.797   0.519  0.1871 -0.0091 -0.6587
  803MOL0     C 8316   1.418   2.676   0.862 -0.3871 -0.0117 -0.6600
  803MOL0     C 8317   1.300   2.651   0.925  0.3055  0.3763 -0.4152
  803MOL0     O 8318   0.964   2.787   0.815  0.4419  0.0534  0.2405
  803MOL0     C 8319   0.886   2.833   1.158  0.1983  0.1741  1.3094
  803MOL0     C 8320   0.782   2.858   1.246  0.1080 -0.2123  0.2947
  803MOL0     N 8321   0.162   2.930   1.803  0.2913 -0.1526 -0.0640
  803MOL0     N 8322   0.120   2.826   1.873 -0.0820 -0.8493  0.6345
  803MOL0     C 8323   0.943   2.114   2.011  0.2030  0.0716  0.2383
  803MOL0     C 8324   1.068   2.063   2.035 -0.0067  0.6405 -0.8211
  803MOL0     C 8325   1.362   1.864   2.372  0.7903 -0.0192 -0.3327
  803MOL0     C 8326   1.369   1.802   2.501  0.1587 -0.4199 -0.1769
  803MOL0     C 8327   1.496   1.766   2.552  0.4096  0.4001  0.0175
  803MOL0     C 8328   1.611   1.802   2.488 -0.3452 -0.1137  0.9958
  803MOL0     O 8329   1.742   1.765   2.521 -0.0737 -0.0467  1.0496
  803MOL0     C 8330   1.763   1.703   2.642  1.0714  0.0336 -0.3297
  803MOL0     C 8331   1.915   1.709   2.664  0.3053  0.3543 -0.5262
  803MOL0     C 8332   1.965   1.848   2.625 -0.2419  0.9450  0.5800
  803MOL0     C 8333   2.113   1.862   2.649 -0.0367 -0.0817 -0.0643
  803MOL0     C 8334   2.170   1.996   2.644  0.3720 -0.3636 -0.4437
  803MOL0     C 8335   2.218   2.104   2.650 -0.7980  0.3571 -0.8023
  803MOL0     C 8336   1.609   1.877   2.373 -0.3878 -1.1152 -0.6852
  803MOL0     C 8337   1.484   1.907   2.321 -1.0006 -0.0677 -0.2215
  803MOL0     H 8338   1.060   2.070   2.368 -0.1510 -2.0193 -1.7736
  803MOL0     H 8339   0.816   2.162   2.328 -0.9904  0.3136 -0.8123
  803MOL0     H 8340   0.537   2.070   2.092  2.3271 -1.1981 -1.3032
  803MOL0     H 8341   0.644   2.017   2.196 -1.4661 -0.2697 -1.3315
  803MOL0     H 8342   0.550   2.159   2.355  0.5976 -2.0583 -1.5432
  803MOL0     H 8343   0.625   2.296   2.279 -0.0584  1.6869 -1.9395
  803MOL0     H 8344   0.363   2.168   2.203 -0.8214  0.5691 -2.3653
  803MOL0     H 8345   0.374   2.293   2.325  1.4925 -2.8837  1.1800
  803MOL0     H 8346   0.491   2.442   2.131 -0.7042 -0.2808 -2.8903
  803MOL0     H 8347   0.456   2.315   2.026  0.8655  0.4810 -0.6409
  803MOL0     H 8348   0.214   2.320   2.111 -1.6585  1.2240 -0.6304
  803MOL0     H 8349   0.247   2.482   2.179  0.1106  0.6704 -0.4730
  803MOL0     H 8350   0.318   2.577   1.960 -0.1410  1.4443 -2.4378
  803MOL0     H 8351   0.291   2.426   1.882 -1.5006 -1.0451 -0.0506
  803MOL0     H 8352   0.051   2.427   1.967  1.3315  0.0723 -0.5510
  803MOL0     H 8353   0.081   2.588   2.033  1.4807 -0.4348 -0.0466
  803MOL0     H 8354  -0.034   2.584   1.801  0.1393 -0.2995  1.7417
  803MOL0     H 8355   0.123   2.501   1.751  0.9542 -2.4405  2.9604
  803MOL0     H 8356   0.170   2.699   1.572  1.6267 -0.7220  1.4818
  803MOL0     H 8357   0.112   3.020   1.517  0.7508  1.6584 -2.6109
  803MOL0     H 8358   0.258   3.081   1.587 -1.8280  1.7301 -2.5703
  803MOL0     H 8359   0.323   3.010   1.363 -1.1672 -0.8675 -2.4222
  803MOL0     H 8360   0.243   2.847   1.401  0.1918 -1.4255  4.3792
  803MOL0     H 8361   0.423   2.784   1.527 -0.7522 -0.2304  0.4159
  803MOL0     H 8362   0.452   2.933   1.608  3.3817 -1.3846  0.1652
  803MOL0     H 8363   0.638   2.847   1.469  1.9249  1.9969 -1.0191
  803MOL0     H 8364   0.592   3.012   1.447  2.0970 -1.4432  1.4336
  803MOL0     H 8365   0.513   2.810   1.061 -0.0439  1.2345  1.5300
  803MOL0     H 8366   0.699   2.772   0.774  3.5862 -1.2222  1.0688
  803MOL0     H 8367   0.703   2.612   0.853  2.7419  0.5895  2.5956
  803MOL0     H 8368   0.561   2.709   0.846 -0.2476 -4.5388 -4.9488
  803MOL0     H 8369   1.187   2.975   0.927  0.7909  0.4869  1.8928
  803MOL0     H 8370   1.409   3.012   0.830  0.8092 -1.9746 -1.4568
  803MOL0     H 8371   1.707   2.697   0.848 -2.6376 -0.3641  0.2529
  803MOL0     H 8372   1.645   2.624   0.708  1.7101 -1.2845  0.2366
  803MOL0     H 8373   1.787   2.790   0.563  1.9788  3.8855  0.5745
  803MOL0     H 8374   1.827   2.869   0.718  3.2023 -0.0015  0.0392
  803MOL0     H 8375   1.908   2.587   0.639  1.7217 -0.7700  0.8398
  803MOL0     H 8376   1.907   2.662   0.802 -2.5827 -0.0632 -0.0902
  803MOL0     H 8377   2.038   2.804   0.563 -1.2198  1.3969  0.2884
  803MOL0     H 8378   2.073   2.825   0.730 -1.4634  0.5534 -0.4378
  803MOL0     H 8379   2.142   2.572   0.594  2.2320  0.6937 -1.7307
  803MOL0     H 8380   2.201   2.631   0.757 -0.3486  1.0442  0.1765
  803MOL0     H 8381   2.274   2.747   0.495 -1.9931  1.3627  0.9687
  803MOL0     H 8382   2.310   2.812   0.662 -0.4281  0.5665 -0.8784
  803MOL0     H 8383   2.366   2.531   0.632 -2.0708  0.1965 -0.8655
  803MOL0     H 8384   2.464   2.639   0.718  1.5985 -1.1513 -1.1739
  803MOL0     H 8385   2.492   2.612   0.406  1.3512  1.9213 -0.5538
  803MOL0     H 8386   2.591   2.553   0.536  1.9551  2.1981  0.7641
  803MOL0     H 8387   1.479   2.586   0.859 -1.9214 -1.1470  0.4124
  803MOL0     H 8388   1.267   2.562   0.976 -0.5742  0.9510  0.0432
  803MOL0     H 8389   0.986   2.869   1.181 -0.3845  1.9669  1.1639
  803MOL0     H 8390   0.804   2.909   1.340  0.7376 -2.0984  1.2310
  803MOL0     H 8391   0.894   2.113   1.914 -0.3744  1.3644  0.5001
  803MOL0     H 8392   1.142   2.034   1.961 -2.2817  0.4728 -3.2037
  803MOL0     H 8393   1.279   1.776   2.556 -0.2422  0.8719 -0.1791
  803MOL0     H 8394   1.504   1.707   2.643  0.9648  2.1316  1.1281
  803MOL0     H 8395   1.717   1.756   2.726 -0.9060  0.7355 -1.7718
  803MOL0     H 8396   1.714   1.605   2.634 -0.3679  0.7809 -1.1317
  803MOL0     H 8397   1.977   1.637   2.609 -1.3199 -0.6429 -1.1122
  803MOL0     H 8398   1.936   1.692   2.770 -0.2357 -0.8202 -0.5885
  803MOL0     H 8399   1.915   1.924   2.685  0.6915  0.0717  2.5560
  803MOL0     H 8400   1.948   1.879   2.521  1.8704 -1.5645 -0.6361
  803MOL0     H 8401   2.148   1.808   2.561 -0.7983 -2.4239  0.9721
  803MOL0     H 8402   2.143   1.813   2.743 -1.4185 -1.1680 -0.1641
  803MOL0     H 8403   2.279   2.191   2.641  0.9419 -0.9806 -2.8077
  803MOL0     H 8404   1.704   1.887   2.321 -0.0905  1.5253  0.1969
  803MOL0     H 8405   1.481   1.959   2.226  0.0063  2.7412  1.1566
  804MOL0     O 8406   0.341   2.526   3.102  0.5709 -0.9061  0.5233
  804MOL0     C 8407   0.436   2.531   3.182 -1.0476 -0.6325  0.7508
  804MOL0     O 8408   0.431   2.515   3.321 -0.0196  0.2196  0.2589
  804MOL0     C 8409   0.309   2.486   3.381  0.1941 -0.0222 -0.2747
  804MOL0     C 8410   0.273   2.352   3.399  0.2676  0.1826 -0.8122
  804MOL0     C 8411   0.169   2.323   3.489 -0.8286  0.4169 -0.1319
  804MOL0     C 8412   0.102   2.426   3.557  0.1603 -0.4300  0.0228
  804MOL0     O 8413  -0.012   2.403   3.629 -0.4635 -0.0385 -0.0183
  804MOL0     C 8414  -0.068   2.267   3.632 -0.2084  0.0484  0.0455
  804MOL0     C 8415  -0.218   2.291   3.667  0.0919 -0.0624  0.0797
  804MOL0     C 8416  -0.245   2.341   3.815 -0.9881  0.8114  1.0291
  804MOL0     C 8417  -0.191   2.235   3.913  0.0977 -0.4800  0.1784
  804MOL0     C 8418  -0.247   2.254   4.058  0.2474 -1.2988  0.3173
  804MOL0     C 8419  -0.202   2.393   4.103  0.3391 -0.4063  0.0358
  804MOL0     C 8420  -0.249   2.443   4.236  0.1753 -0.8239  0.3848
  804MOL0     C 8421  -0.196   2.586   4.246  0.6319  0.3362 -0.6050
  804MOL0     N 8422  -0.294   2.686   4.202 -0.3659  0.0909  0.7857
  804MOL0     C 8423  -0.264   2.770   4.100  0.4597 -0.2869  0.6719
  804MOL0     C 8424  -0.342   2.878   4.125  0.1747  0.1452 -0.7743
  804MOL0     C 8425  -0.362   2.995   4.039  0.4114 -0.1011 -0.6970
  804MOL0     C 8426  -0.311   3.136   4.101  0.7376  0.4104  0.3535
  804MOL0     C 8427  -0.360   3.266   4.018 -1.5226 -0.4130 -0.2834
  804MOL0     C 8428  -0.270   3.287   3.899  0.3165  0.7660 -0.7711
  804MOL0     O 8429  -0.155   3.340   3.946  0.6117 -0.0670  0.0842
  804MOL0     C 8430  -0.056   3.341   3.851  0.2428 -0.6521  0.3434
  804MOL0     C 8431  -0.065   3.321   3.712  0.7086  0.4484  0.5222
  804MOL0     C 8432   0.036   3.341   3.621 -0.1915 -0.6974 -0.5835
  804MOL0     C 8433   0.009   3.308   3.478  0.3298  0.5409 -0.5706
  804MOL0     C 8434   0.159   3.383   3.669  0.6739  0.7296 -0.4175
  804MOL0     C 8435   0.275   3.416   3.579  0.0024 -0.9332  0.3610
  804MOL0     O 8436   0.398   3.410   3.642  0.1233  0.6670  0.1049
  804MOL0     C 8437   0.507   3.433   3.558 -0.3216  0.3206 -0.7340
  804MOL0     C 8438   0.574   3.554   3.560 -0.0741 -0.4462 -0.1462
  804MOL0     C 8439   0.693   3.572   3.486 -0.1548  0.1170  0.1392
  804MOL0     C 8440   0.754   3.464   3.415 -0.0390  0.2012  0.1457
  804MOL0     O 8441   0.876   3.475   3.340 -0.5250  0.1510  0.2198
  804MOL0     C 8442   0.981   3.550   3.406  0.2165 -0.4439  0.1093
  804MOL0     C 8443   1.101   3.588   3.315 -0.5535 -0.5082 -0.1079
  804MOL0     C 8444   1.181   3.460   3.280 -0.2327  0.3966  0.4617
  804MOL0     C 8445   1.261   3.465   3.148  0.1430 -0.2506 -0.0294
  804MOL0     C 8446   1.402   3.389   3.151  1.0893  0.6289  0.7939
  804MOL0     C 8447   1.504   3.445   3.243  0.3124  0.6207 -0.7768
  804MOL0     C 8448   1.618   3.339   3.239  0.3041  0.4392  0.0493
  804MOL0     C 8449   1.716   3.379   3.356  0.2667 -0.2967 -0.3615
  804MOL0    Cl 8450   1.797   3.539   3.316  0.1015 -0.2651 -0.0716
  804MOL0     C 8451   0.694   3.343   3.414  1.2483  0.2467  1.0953
  804MOL0     C 8452   0.568   3.332   3.486  0.8411 -0.3326  0.5965
  804MOL0     O 8453   0.256   3.451   3.462 -0.3636 -0.3313 -0.7816
  804MOL0     C 8454   0.173   3.399   3.809 -1.1800  0.6582  0.1094
  804MOL0     C 8455   0.065   3.385   3.900 -0.3636 -0.0851 -0.5841
  804MOL0     N 8456  -0.419   2.857   4.235 -0.7031  0.2815 -0.8195
  804MOL0     N 8457  -0.384   2.743   4.290 -0.1391 -0.0550  0.4175
  804MOL0     C 8458   0.130   2.563   3.529  0.5534  0.2126  0.4563
  804MOL0     C 8459   0.242   2.591   3.447 -0.1594  0.2631 -0.3731
  804MOL0     C 8460   0.570   2.559   3.119  0.3124 -0.6912 -0.0943
  804MOL0     C 8461   0.581   2.597   2.980 -0.0460 -0.7340  0.2374
  804MOL0     C 8462   0.706   2.617   2.915  0.8621 -0.1747  1.0948
  804MOL0     C 8463   0.821   2.611   2.990 -0.2376 -0.0459 -0.9539
  804MOL0     O 8464   0.948   2.619   2.940 -0.2911  0.0120 -0.3912
  804MOL0     C 8465   0.958   2.628   2.795 -0.4399 -0.5266 -0.7031
  804MOL0     C 8466   1.108   2.625   2.748  0.8803  0.5501  0.3696
  804MOL0     C 8467   1.202   2.729   2.822  0.5249  0.1114  0.5511
  804MOL0     C 8468   1.344   2.710   2.800  0.6238  0.6229  0.7045
  804MOL0     C 8469   1.373   2.700   2.649  1.3313 -0.3529 -0.8301
  804MOL0     C 8470   1.418   2.699   2.541 -0.1439  0.7812 -0.1083
  804MOL0     C 8471   0.811   2.586   3.128  0.1496  0.5650 -0.3152
  804MOL0     C 8472   0.689   2.552   3.190 -0.6197 -0.2312  0.6227
  804MOL0     H 8473   0.334   2.278   3.351 -0.9247 -1.2459 -0.2190
  804MOL0     H 8474   0.130   2.222   3.499 -1.1996  0.6694  1.1744
  804MOL0     H 8475  -0.071   2.224   3.532  2.1184 -1.4522  0.5391
  804MOL0     H 8476  -0.018   2.208   3.709  0.9160  1.0867  0.1324
  804MOL0     H 8477  -0.253   2.364   3.593  1.7427  0.1900 -0.4932
  804MOL0     H 8478  -0.280   2.204   3.643  0.0804  0.2748 -1.2016
  804MOL0     H 8479  -0.190   2.434   3.830  0.1223  0.1087  1.3582
  804MOL0     H 8480  -0.353   2.354   3.826 -0.9930  1.0591  0.6969
  804MOL0     H 8481  -0.212   2.135   3.876 -1.4892 -0.2349  0.3695
  804MOL0     H 8482  -0.082   2.241   3.922  0.4201 -0.7402 -2.6658
  804MOL0     H 8483  -0.356   2.261   4.058  0.2199 -0.3756 -2.6748
  804MOL0     H 8484  -0.215   2.176   4.127 -4.2442 -1.3345  2.6864
  804MOL0     H 8485  -0.094   2.383   4.111  0.1151 -1.3679  2.7741
  804MOL0     H 8486  -0.227   2.475   4.034  0.0539  0.9151  1.6574
  804MOL0     H 8487  -0.358   2.440   4.240 -0.2543  2.0484 -3.2428
  804MOL0     H 8488  -0.195   2.374   4.301  0.0587  1.3738  2.9506
  804MOL0     H 8489  -0.096   2.591   4.202  2.2339 -1.7083  2.4146
  804MOL0     H 8490  -0.182   2.612   4.351  0.2683 -2.2626  0.1525
  804MOL0     H 8491  -0.208   2.752   4.009  1.9590  0.3097  1.4446
  804MOL0     H 8492  -0.307   2.973   3.948  1.9092  0.4859  0.0414
  804MOL0     H 8493  -0.469   3.007   4.015  0.2424 -1.3804 -0.6486
  804MOL0     H 8494  -0.203   3.128   4.108  0.9765 -1.7816 -3.2502
  804MOL0     H 8495  -0.356   3.132   4.201 -0.3211  0.0284 -0.1116
  804MOL0     H 8496  -0.362   3.355   4.082  0.3779  0.1867 -0.9901
  804MOL0     H 8497  -0.460   3.244   3.981 -0.8766 -2.0694 -1.1451
  804MOL0     H 8498  -0.310   3.362   3.830 -0.2722 -1.3432 -2.8563
  804MOL0     H 8499  -0.247   3.196   3.843  1.8192 -0.8045  2.1578
  804MOL0     H 8500  -0.155   3.275   3.672  0.7599  1.0346 -0.3042
  804MOL0     H 8501  -0.066   3.228   3.483  1.2929 -0.4015 -0.8907
  804MOL0     H 8502  -0.041   3.389   3.424 -2.5176  0.6205  1.9091
  804MOL0     H 8503   0.093   3.260   3.427  0.2822  0.0908 -0.2328
  804MOL0     H 8504   0.537   3.634   3.623  0.6718  0.6294 -1.0408
  804MOL0     H 8505   0.758   3.660   3.490  0.3060  0.4832 -5.7715
  804MOL0     H 8506   0.956   3.648   3.446  0.9042 -0.0723 -0.3692
  804MOL0     H 8507   1.029   3.490   3.484  0.7853 -1.7379 -1.2013
  804MOL0     H 8508   1.073   3.643   3.224  1.9174 -0.4681 -0.9143
  804MOL0     H 8509   1.167   3.660   3.365  2.6437  0.0370 -4.5261
  804MOL0     H 8510   1.118   3.371   3.270  0.2090  0.2823 -1.8704
  804MOL0     H 8511   1.252   3.449   3.363  0.7237  2.0480 -0.0900
  804MOL0     H 8512   1.194   3.425   3.073 -0.4512 -0.1654  0.4478
  804MOL0     H 8513   1.281   3.572   3.131  1.3630 -0.7931 -2.4104
  804MOL0     H 8514   1.444   3.405   3.051  1.8397  4.7632  1.5824
  804MOL0     H 8515   1.387   3.283   3.173 -1.8882  0.3720 -1.7332
  804MOL0     H 8516   1.545   3.542   3.213 -1.3094  1.9730  1.0692
  804MOL0     H 8517   1.464   3.456   3.344 -3.2593 -1.1331 -1.8334
  804MOL0     H 8518   1.664   3.332   3.140 -5.1946 -0.7266 -2.8253
  804MOL0     H 8519   1.577   3.241   3.265 -1.6850  0.8856 -1.1556
  804MOL0     H 8520   1.795   3.304   3.361  2.0435  1.4524 -0.9953
  804MOL0     H 8521   1.672   3.394   3.455  2.5370 -0.3635  0.7217
  804MOL0     H 8522   0.743   3.258   3.368  0.1199  0.5975 -0.8363
  804MOL0     H 8523   0.520   3.235   3.477  0.0761  0.2635 -3.1452
  804MOL0     H 8524   0.273   3.417   3.847 -1.5697  0.6105  1.1987
  804MOL0     H 8525   0.088   3.400   4.005  0.4314  2.1296 -1.0120
  804MOL0     H 8526   0.070   2.640   3.575  0.9970 -0.3703  2.0903
  804MOL0     H 8527   0.281   2.692   3.459 -0.3783  0.1352  1.7431
  804MOL0     H 8528   0.495   2.599   2.914 -0.1207 -0.7993  0.3325
  804MOL0     H 8529   0.711   2.643   2.810  2.3803 -1.4768  0.8058
  804MOL0     H 8530   0.909   2.551   2.735  0.9482 -2.8101  0.9303
  804MOL0     H 8531   0.923   2.729   2.771 -0.2933 -0.8533 -2.4713
  804MOL0     H 8532   1.111   2.662   2.645  2.1115 -1.2843 -0.3085
  804MOL0     H 8533   1.135   2.519   2.754 -1.3351  0.0211  2.6949
  804MOL0     H 8534   1.179   2.698   2.924 -2.0362  0.5499  0.1708
  804MOL0     H 8535   1.166   2.832   2.815  0.8657  0.1647 -0.7112
  804MOL0     H 8536   1.379   2.624   2.858  0.9296 -0.3330 -0.8246
  804MOL0     H 8537   1.397   2.800   2.831 -0.7955  1.9812 -0.6026
  804MOL0     H 8538   1.470   2.698   2.448 -1.9208 -0.6710 -1.1693
  804MOL0     H 8539   0.901   2.586   3.189 -2.4170 -1.5953  3.9201
  804MOL0     H 8540   0.685   2.516   3.292 -0.9436 -0.1827  0.6268
  805MOL0     O 8541   6.260   8.309   3.989 -0.0220  0.0634  0.3443
  805MOL0     C 8542   6.335   8.390   4.034 -0.2496 -0.2866 -0.7340
  805MOL0     O 8543   6.305   8.518   4.053 -0.2223 -0.3218  0.0644
  805MOL0     C 8544   6.179   8.568   4.028 -0.0646  0.2667  0.0317
  805MOL0     C 8545   6.118   8.634   4.132  0.5881  0.2308  0.5420
  805MOL0     C 8546   5.984   8.680   4.122  0.0034 -0.8596  0.4557
  805MOL0     C 8547   5.909   8.671   4.002  0.0636  0.4490  0.6785
  805MOL0     O 8548   5.787   8.731   3.985 -0.1442  0.7448 -0.0445
  805MOL0     C 8549   5.714   8.769   4.102 -0.1986  0.3540 -0.4525
  805MOL0     C 8550   5.714   8.917   4.118 -0.8568 -0.5505  0.1659
  805MOL0     C 8551   5.653   8.974   4.242 -0.3500  0.6821 -0.3049
  805MOL0     C 8552   5.712   9.101   4.286  0.1240  0.4148 -0.1246
  805MOL0     C 8553   5.609   9.193   4.365  0.4164  0.7779 -0.3311
  805MOL0     C 8554   5.639   9.196   4.511 -0.3876 -0.5846 -0.7003
  805MOL0     C 8555   5.768   9.286   4.533 -0.1477  0.1369 -0.4839
  805MOL0     C 8556   5.859   9.237   4.649  0.5346  0.4183 -0.2651
  805MOL0     N 8557   5.944   9.124   4.607 -0.3477  0.1370 -0.2580
  805MOL0     C 8558   6.018   9.111   4.488  0.2496 -0.3198  0.2109
  805MOL0     C 8559   6.072   8.982   4.492 -0.5663 -0.1020  0.3448
  805MOL0     C 8560   6.155   8.912   4.388 -0.2177  0.7802  0.3092
  805MOL0     C 8561   6.193   9.011   4.284 -0.2347  0.0289 -0.0044
  805MOL0     C 8562   6.253   8.940   4.157  0.7440  0.1318 -0.4122
  805MOL0     C 8563   6.298   9.043   4.055 -0.2236  0.0861  0.5172
  805MOL0     O 8564   6.205   9.150   4.023  0.5752  0.2936  0.0500
  805MOL0     C 8565   6.087   9.125   3.957 -0.5806  0.5195  1.0099
  805MOL0     C 8566   5.996   9.231   3.945 -0.2651  0.0896  0.4724
  805MOL0     C 8567   5.867   9.216   3.879 -0.1481 -0.4218  0.7466
  805MOL0     C 8568   5.797   9.347   3.872 -0.1413  0.7418  1.2622
  805MOL0     C 8569   5.830   9.087   3.833 -0.6076 -0.5167  0.2935
  805MOL0     C 8570   5.700   9.057   3.766 -0.4064  0.0502  0.2403
  805MOL0     O 8571   5.693   8.948   3.684  0.0009 -0.3243  0.0297
  805MOL0     C 8572   5.573   8.913   3.636 -0.1745 -0.8381 -0.0940
  805MOL0     C 8573   5.464   8.879   3.712  0.1344  0.9128 -0.7613
  805MOL0     C 8574   5.339   8.861   3.656 -0.7100  0.3037 -1.4376
  805MOL0     C 8575   5.318   8.883   3.522  0.0519 -0.3558  0.2312
  805MOL0     O 8576   5.189   8.881   3.469 -0.8180  0.0292  1.2085
  805MOL0     C 8577   5.174   8.858   3.326  0.6862  0.2558  0.3451
  805MOL0     C 8578   5.165   8.974   3.232 -0.0838 -0.6769  0.3268
  805MOL0     C 8579   5.037   8.977   3.154 -0.4379  0.0355 -0.1258
  805MOL0     C 8580   5.044   9.083   3.040  0.0899 -0.2636 -0.6843
  805MOL0     C 8581   4.907   9.069   2.968 -0.2672 -0.3007 -0.2239
  805MOL0     C 8582   4.888   9.178   2.860 -0.0237 -0.3012  0.7626
  805MOL0     C 8583   4.736   9.175   2.825  0.2297 -0.4749 -0.4058
  805MOL0     C 8584   4.708   9.240   2.692  0.0823 -0.3200  0.4272
  805MOL0    Cl 8585   4.750   9.414   2.693 -0.1550 -0.4804 -0.2733
  805MOL0     C 8586   5.432   8.920   3.451  0.7486 -1.2310 -0.8442
  805MOL0     C 8587   5.556   8.935   3.505 -0.2878 -0.2024  0.9008
  805MOL0     O 8588   5.610   9.131   3.794  0.5149 -0.0116 -0.1165
  805MOL0     C 8589   5.927   8.979   3.843  0.9873  0.3338 -0.9831
  805MOL0     C 8590   6.046   8.999   3.905  0.3016  0.1381  1.0023
  805MOL0     N 8591   6.043   8.918   4.612 -0.2409  0.3830 -0.3024
  805MOL0     N 8592   5.967   9.010   4.680 -0.3036 -0.0115  1.0157
  805MOL0     C 8593   5.975   8.605   3.899 -1.2410 -1.0154  0.2303
  805MOL0     C 8594   6.113   8.563   3.907  0.3059  0.1091  0.1433
  805MOL0     C 8595   6.474   8.365   4.077  1.2318  0.4324  0.1327
  805MOL0     C 8596   6.514   8.230   4.090 -0.7177  0.4415  0.0416
  805MOL0     C 8597   6.646   8.197   4.130 -0.4437  0.6515  0.8942
  805MOL0     C 8598   6.746   8.298   4.156 -0.8910 -0.8504 -0.3924
  805MOL0     O 8599   6.868   8.250   4.202  0.5754  0.0695 -0.0102
  805MOL0     C 8600   6.971   8.336   4.244 -0.7608 -0.3627 -0.7375
  805MOL0     C 8601   7.062   8.243   4.329  0.3686 -0.6087  0.7814
  805MOL0     C 8602   7.108   8.113   4.269  0.3225 -0.0140  0.5458
  805MOL0     C 8603   7.209   8.142   4.147 -0.1977  0.1921 -0.4347
  805MOL0     C 8604   7.339   8.145   4.201 -0.5929  0.5026 -0.0825
  805MOL0     C 8605   7.458   8.136   4.227 -0.0915 -0.6760  0.3015
  805MOL0     C 8606   6.702   8.433   4.158  1.0155  0.0385  0.0939
  805MOL0     C 8607   6.571   8.459   4.104  0.5708 -0.1235 -0.5411
  805MOL0     H 8608   6.186   8.654   4.215  2.2651  0.5430 -0.8602
  805MOL0     H 8609   5.939   8.742   4.199 -0.4286  0.3280 -0.7191
  805MOL0     H 8610   5.608   8.744   4.089 -1.2994 -0.5661  6.2296
  805MOL0     H 8611   5.747   8.719   4.194 -2.5070  4.5906  3.0672
  805MOL0     H 8612   5.815   8.955   4.100 -0.9506 -1.0401 -1.5808
  805MOL0     H 8613   5.662   8.954   4.029  0.5991 -0.6851 -0.7838
  805MOL0     H 8614   5.547   8.996   4.226 -0.4839  0.9531  0.9273
  805MOL0     H 8615   5.671   8.903   4.323  0.2740 -0.1914 -1.1829
  805MOL0     H 8616   5.805   9.094   4.344 -0.1658  0.5946  0.3655
  805MOL0     H 8617   5.747   9.153   4.196  1.5566 -2.1258 -1.1607
  805MOL0     H 8618   5.613   9.290   4.315  0.2293 -0.8873 -3.9139
  805MOL0     H 8619   5.508   9.153   4.350  0.6358 -1.5372  3.2686
  805MOL0     H 8620   5.557   9.244   4.564 -0.2764 -1.2225  0.0695
  805MOL0     H 8621   5.652   9.092   4.542 -0.9409 -0.3419  0.3692
  805MOL0     H 8622   5.829   9.300   4.443 -3.3913 -0.5274 -2.9629
  805MOL0     H 8623   5.734   9.385   4.565  1.2132  0.6063 -0.4249
  805MOL0     H 8624   5.796   9.212   4.735  1.1879  1.1096  0.4427
  805MOL0     H 8625   5.922   9.323   4.677  0.8496  0.0219  0.2710
  805MOL0     H 8626   6.020   9.178   4.402 -0.7855  0.3061  0.6508
  805MOL0     H 8627   6.241   8.863   4.436 -2.6311 -0.4708  3.7723
  805MOL0     H 8628   6.092   8.834   4.344  0.3727  0.5553 -0.1537
  805MOL0     H 8629   6.264   9.077   4.334  2.6956 -2.6132 -0.3445
  805MOL0     H 8630   6.102   9.059   4.248 -1.4903 -1.3481  1.1571
  805MOL0     H 8631   6.172   8.882   4.112  0.3725 -0.5242  1.0430
  805MOL0     H 8632   6.340   8.876   4.174  0.5274 -0.0074  0.2276
  805MOL0     H 8633   6.327   8.999   3.959 -2.1554 -3.1005  1.2104
  805MOL0     H 8634   6.387   9.093   4.093 -1.5206  2.5095  0.5355
  805MOL0     H 8635   6.027   9.321   3.998 -0.7871  0.0110  0.9176
  805MOL0     H 8636   5.690   9.338   3.893 -0.8830 -0.3658 -2.2893
  805MOL0     H 8637   5.845   9.428   3.928 -0.7540  3.0871 -1.4201
  805MOL0     H 8638   5.805   9.394   3.774  2.2509  2.6508  2.2760
  805MOL0     H 8639   5.480   8.863   3.818 -3.2134 -0.0182 -0.2789
  805MOL0     H 8640   5.256   8.823   3.716  0.6318 -0.0942  0.2269
  805MOL0     H 8641   5.264   8.804   3.297  1.3267  1.1053  0.6999
  805MOL0     H 8642   5.084   8.799   3.311 -0.3156  1.9474 -0.7175
  805MOL0     H 8643   5.174   9.071   3.282  2.6818 -0.6117 -0.1338
  805MOL0     H 8644   5.253   8.964   3.168  0.1227 -0.7908  0.6239
  805MOL0     H 8645   4.953   8.998   3.221 -1.7483  0.2481 -1.7925
  805MOL0     H 8646   5.022   8.878   3.109 -0.6034  0.1221 -0.2555
  805MOL0     H 8647   5.057   9.184   3.081  2.2334 -0.8412  0.2421
  805MOL0     H 8648   5.125   9.064   2.969  0.5333  3.2242 -1.2741
  805MOL0     H 8649   4.836   9.082   3.051  0.4477  0.3690  0.3064
  805MOL0     H 8650   4.895   8.972   2.920 -0.7689  0.3811 -1.5188
  805MOL0     H 8651   4.929   9.273   2.896 -1.1424  0.6224 -0.3084
  805MOL0     H 8652   4.953   9.166   2.774  6.2607 -0.1864  4.8713
  805MOL0     H 8653   4.675   9.220   2.903  0.3641 -0.0705 -0.5336
  805MOL0     H 8654   4.710   9.069   2.821  1.1369 -1.0470  4.0331
  805MOL0     H 8655   4.604   9.222   2.661  0.3508  0.1081 -0.7696
  805MOL0     H 8656   4.764   9.186   2.615  0.1456  0.7845 -0.3316
  805MOL0     H 8657   5.414   8.955   3.350 -1.4627 -1.2309 -0.4985
  805MOL0     H 8658   5.636   8.960   3.436 -0.8234 -1.2688 -0.1473
  805MOL0     H 8659   5.907   8.877   3.811 -0.5740  1.3038 -3.3511
  805MOL0     H 8660   6.123   8.923   3.914  0.9894  0.3467 -2.0251
  805MOL0     H 8661   5.918   8.599   3.807 -1.6210  1.2889  0.2512
  805MOL0     H 8662   6.166   8.515   3.826  0.6224 -2.9108  1.9863
  805MOL0     H 8663   6.438   8.153   4.076  1.9034 -2.1281 -1.0015
  805MOL0     H 8664   6.680   8.095   4.147  0.9629  0.3342 -2.7986
  805MOL0     H 8665   7.032   8.382   4.165 -1.7058 -0.7489 -1.7069
  805MOL0     H 8666   6.926   8.415   4.305 -0.9141 -0.6953 -0.4142
  805MOL0     H 8667   7.009   8.240   4.425 -1.0832  3.1275  0.2567
  805MOL0     H 8668   7.158   8.293   4.340  0.7188 -0.6701 -1.4918
  805MOL0     H 8669   7.022   8.058   4.230 -0.1155 -0.1756  1.6922
  805MOL0     H 8670   7.149   8.039   4.339 -0.3831  2.3239  3.6626
  805MOL0     H 8671   7.190   8.234   4.091  0.8859  1.5694  1.3481
  805MOL0     H 8672   7.199   8.060   4.075  1.8027 -0.0985 -0.4429
  805MOL0     H 8673   7.562   8.142   4.252 -0.4972  1.2986  1.7708
  805MOL0     H 8674   6.762   8.514   4.198  0.6935  0.2674  0.1199
  805MOL0     H 8675   6.552   8.565   4.088  2.5551  0.0317 -2.4241
  806MOL0     O 8676  10.117   4.405   5.732  0.1100 -0.0248 -0.8567
  806MOL0     C 8677  10.080   4.336   5.636  0.4680 -0.2223  0.1455
  806MOL0     O 8678   9.976   4.366   5.547  0.1599  0.5832 -0.8500
  806MOL0     C 8679   9.889   4.466   5.567  1.1751 -1.2920 -0.0329
  806MOL0     C 8680   9.918   4.605   5.567 -0.4597 -0.0593 -0.1519
  806MOL0     C 8681   9.814   4.694   5.595 -0.4008 -0.5487  0.8271
  806MOL0     C 8682   9.687   4.648   5.611  1.4480 -0.3602  1.3482
  806MOL0     O 8683   9.575   4.729   5.637  0.0046 -0.5475 -0.1965
  806MOL0     C 8684   9.569   4.861   5.569 -0.1382 -0.3671 -0.7146
  806MOL0     C 8685   9.433   4.925   5.602  0.3864 -0.7774  0.4426
  806MOL0     C 8686   9.410   4.986   5.739  0.2299  0.3725  0.8051
  806MOL0     C 8687   9.257   5.024   5.768  0.0654  0.9517  0.5409
  806MOL0     C 8688   9.234   5.070   5.908 -0.2572  0.0691 -0.1758
  806MOL0     C 8689   9.085   5.111   5.925 -0.4768  0.2753  0.0800
  806MOL0     C 8690   9.050   5.129   6.081  0.7323  0.6847  0.4533
  806MOL0     C 8691   8.912   5.073   6.108  0.8404 -0.2330 -0.3711
  806MOL0     N 8692   8.825   5.173   6.055 -0.3995 -0.2830  0.2031
  806MOL0     C 8693   8.787   5.198   5.924 -0.2279  0.1196 -0.0072
  806MOL0     C 8694   8.717   5.317   5.920 -0.8094  0.5599 -0.2913
  806MOL0     C 8695   8.680   5.386   5.793 -0.1732 -0.5042 -1.1937
  806MOL0     C 8696   8.639   5.534   5.819 -0.8303 -0.7212 -0.6348
  806MOL0     C 8697   8.605   5.624   5.702 -1.1858 -0.0623 -1.3324
  806MOL0     C 8698   8.493   5.562   5.625  0.3240  0.2327 -0.3384
  806MOL0     O 8699   8.451   5.659   5.529  0.1733 -0.0408  0.4611
  806MOL0     C 8700   8.367   5.612   5.432 -1.1672 -0.0872  1.2179
  806MOL0     C 8701   8.376   5.693   5.314 -0.2067  0.3223 -0.9014
  806MOL0     C 8702   8.284   5.672   5.200 -0.1925  0.6094  0.3021
  806MOL0     C 8703   8.277   5.768   5.086 -1.0401  0.4889  1.0844
  806MOL0     C 8704   8.205   5.555   5.213  0.3971 -0.0117 -0.7534
  806MOL0     C 8705   8.102   5.510   5.118  0.1186 -1.4265  0.5985
  806MOL0     O 8706   8.073   5.566   4.999  0.1418 -0.2903  0.3401
  806MOL0     C 8707   7.995   5.496   4.906  0.1723 -0.2121  0.0138
  806MOL0     C 8708   7.862   5.541   4.888 -1.0326  0.3153 -0.8124
  806MOL0     C 8709   7.782   5.472   4.802 -0.0891 -0.0524  0.5648
  806MOL0     C 8710   7.822   5.357   4.742  0.0127  0.5600 -0.6262
  806MOL0     O 8711   7.737   5.285   4.658  0.5332  0.1358 -0.3574
  806MOL0     C 8712   7.790   5.205   4.547  0.1501  0.4184 -1.2796
  806MOL0     C 8713   7.692   5.163   4.435  0.0459 -0.2619 -0.2977
  806MOL0     C 8714   7.565   5.079   4.483 -0.2779 -0.4798  0.2336
  806MOL0     C 8715   7.602   4.941   4.549 -0.2805 -1.2776  0.3952
  806MOL0     C 8716   7.500   4.827   4.549  0.4765  0.4844 -0.1779
  806MOL0     C 8717   7.369   4.863   4.619 -0.1485  0.9232  0.1585
  806MOL0     C 8718   7.378   4.928   4.761 -0.9516  0.2636  0.7631
  806MOL0     C 8719   7.260   5.022   4.786 -0.3717 -0.3298  0.0582
  806MOL0    Cl 8720   7.102   4.930   4.771 -0.1692  0.4611  0.3799
  806MOL0     C 8721   7.964   5.322   4.748  0.4876  1.0576 -0.3953
  806MOL0     C 8722   8.052   5.393   4.824 -0.2580 -0.0744 -0.3511
  806MOL0     O 8723   8.038   5.416   5.159  0.1214  0.1282 -0.0812
  806MOL0     C 8724   8.213   5.466   5.324 -1.0210  0.1985 -1.0499
  806MOL0     C 8725   8.294   5.503   5.436  0.0359 -0.2792  0.2477
  806MOL0     N 8726   8.696   5.352   6.052  0.6163 -0.5844 -0.6576
  806MOL0     N 8727   8.752   5.266   6.131 -0.1727  0.3798 -0.8781
  806MOL0     C 8728   9.652   4.512   5.596  0.3400 -0.3406 -1.0263
  806MOL0     C 8729   9.754   4.425   5.581  0.4690  0.2084  0.1105
  806MOL0     C 8730  10.168   4.216   5.603  0.5104 -0.0135  0.1806
  806MOL0     C 8731  10.142   4.130   5.492  0.7845  0.2781 -0.0514
  806MOL0     C 8732  10.229   4.018   5.466  1.2212  0.7044  0.2086
  806MOL0     C 8733  10.326   3.979   5.557  0.3957 -0.1375 -0.7978
  806MOL0     O 8734  10.397   3.866   5.542  0.2961 -0.3298  0.6145
  806MOL0     C 8735  10.460   3.851   5.421 -0.5175  0.0175  0.0549
  806MOL0     C 8736  10.522   3.712   5.411  0.3540  0.1209  0.2790
  806MOL0     C 8737  10.609   3.670   5.532  0.4361 -0.7341 -0.1576
  806MOL0     C 8738  10.647   3.523   5.549 -0.3092  0.4777 -0.1902
  806MOL0     C 8739  10.746   3.502   5.651  0.0240 -0.0376 -0.4163
  806MOL0     C 8740  10.832   3.518   5.739  0.2798 -0.2343  0.0726
  806MOL0     C 8741  10.341   4.056   5.674 -0.0008 -0.2621  0.0125
  806MOL0     C 8742  10.270   4.183   5.688  0.1301  0.3213  0.4512
  806MOL0     H 8743  10.018   4.646   5.556 -1.9052  3.9006 -0.1664
  806MOL0     H 8744   9.822   4.801   5.608 -0.0258 -0.7243  2.1515
  806MOL0     H 8745   9.640   4.936   5.606  1.5523 -1.6851 -1.1358
  806MOL0     H 8746   9.580   4.860   5.460  1.5506  1.1143 -0.6172
  806MOL0     H 8747   9.416   5.002   5.526 -1.4642 -1.0849  0.4874
  806MOL0     H 8748   9.358   4.846   5.589  0.3638 -0.6529 -0.1768
  806MOL0     H 8749   9.445   4.920   5.819 -0.9752  1.0424  1.9292
  806MOL0     H 8750   9.468   5.079   5.740  0.0089  0.5169  0.6163
  806MOL0     H 8751   9.231   5.107   5.702 -1.3271  0.5822  0.5880
  806MOL0     H 8752   9.194   4.937   5.745 -3.2070  2.8156  1.7585
  806MOL0     H 8753   9.261   4.994   5.981  1.4226  1.1863  0.4383
  806MOL0     H 8754   9.300   5.157   5.917 -3.0138  2.3184 -0.1914
  806MOL0     H 8755   9.073   5.203   5.869  1.1102  0.6094  0.2227
  806MOL0     H 8756   9.028   5.028   5.882 -1.0358  0.9912 -0.5670
  806MOL0     H 8757   9.113   5.072   6.150 -0.4933 -0.3710  0.7402
  806MOL0     H 8758   9.062   5.231   6.118 -1.4908  1.8757 -1.7467
  806MOL0     H 8759   8.886   5.074   6.214 -0.9311  2.2753 -0.7164
  806MOL0     H 8760   8.898   4.974   6.063  0.3688  0.4221 -1.7232
  806MOL0     H 8761   8.816   5.144   5.835  2.1028 -0.0745  0.7883
  806MOL0     H 8762   8.776   5.385   5.739  0.0840  1.6080 -0.8734
  806MOL0     H 8763   8.595   5.327   5.758 -1.1564  0.1518  0.0190
  806MOL0     H 8764   8.724   5.568   5.878 -0.4045 -0.4429 -1.3848
  806MOL0     H 8765   8.548   5.533   5.878  0.1002 -2.5238  0.8879
  806MOL0     H 8766   8.695   5.638   5.641 -0.3464 -0.5543 -0.2372
  806MOL0     H 8767   8.563   5.716   5.742  0.1026  0.6055 -1.4505
  806MOL0     H 8768   8.405   5.546   5.688  0.0262 -0.7632 -0.9903
  806MOL0     H 8769   8.531   5.470   5.580  2.8831  2.0258 -2.1292
  806MOL0     H 8770   8.455   5.766   5.325  0.4017 -0.5068  0.5001
  806MOL0     H 8771   8.327   5.863   5.109 -0.0907  0.7038 -1.4762
  806MOL0     H 8772   8.328   5.723   5.000  1.5759  0.4102  2.5721
  806MOL0     H 8773   8.172   5.777   5.056 -0.2543  3.3914 -1.4083
  806MOL0     H 8774   7.837   5.634   4.937  1.1659  0.9081 -0.7197
  806MOL0     H 8775   7.680   5.509   4.788  0.4790  1.3721  0.0031
  806MOL0     H 8776   7.874   5.260   4.505  1.7948 -0.4768  0.6291
  806MOL0     H 8777   7.826   5.115   4.599 -0.6943  0.5611 -0.4231
  806MOL0     H 8778   7.654   5.256   4.393  0.0579 -0.3522 -0.5117
  806MOL0     H 8779   7.741   5.112   4.351  0.1499  1.2705 -1.1923
  806MOL0     H 8780   7.497   5.075   4.397 -2.4028  0.0598  1.7998
  806MOL0     H 8781   7.502   5.131   4.555  0.5166 -0.5353  0.9856
  806MOL0     H 8782   7.687   4.908   4.490  0.6904 -0.5111  1.3254
  806MOL0     H 8783   7.634   4.963   4.651 -3.0124  2.3361  0.6947
  806MOL0     H 8784   7.544   4.751   4.614 -0.3007  1.1708  1.1934
  806MOL0     H 8785   7.481   4.785   4.450  0.6406  2.8837 -1.3114
  806MOL0     H 8786   7.316   4.930   4.550  0.4575  1.3643  0.1180
  806MOL0     H 8787   7.305   4.776   4.636 -0.0988  0.1016 -3.0620
  806MOL0     H 8788   7.465   4.993   4.765 -0.3544 -0.5162  0.6631
  806MOL0     H 8789   7.380   4.850   4.838  0.8592  0.0854  0.5746
  806MOL0     H 8790   7.261   5.098   4.708  0.9558  0.7729  1.1189
  806MOL0     H 8791   7.254   5.079   4.879 -0.1750  1.8396 -1.1882
  806MOL0     H 8792   7.996   5.232   4.695 -0.7591  1.2926 -1.5912
  806MOL0     H 8793   8.159   5.376   4.831 -0.2158 -0.0224 -0.7888
  806MOL0     H 8794   8.169   5.367   5.330 -4.0216  1.3825 -1.6689
  806MOL0     H 8795   8.294   5.433   5.519 -0.3169  0.4062  0.8487
  806MOL0     H 8796   9.549   4.479   5.600  0.3548 -0.2770  0.9917
  806MOL0     H 8797   9.728   4.320   5.570  1.3134 -0.0730  0.7252
  806MOL0     H 8798  10.061   4.150   5.423  0.9916  1.1144 -0.0653
  806MOL0     H 8799  10.217   3.964   5.372  1.5443 -1.6438  1.4374
  806MOL0     H 8800  10.391   3.862   5.336 -0.5141 -0.1963  0.0245
  806MOL0     H 8801  10.532   3.929   5.399 -1.3811  0.9720  0.5186
  806MOL0     H 8802  10.576   3.722   5.317  1.6009  2.8080  1.1877
  806MOL0     H 8803  10.435   3.646   5.404 -0.9060  1.7341 -0.0816
  806MOL0     H 8804  10.563   3.698   5.627  0.7748 -4.5554  1.3348
  806MOL0     H 8805  10.697   3.735   5.530 -1.1042  1.4713  0.0316
  806MOL0     H 8806  10.694   3.488   5.457  0.4232  1.7320 -0.3115
  806MOL0     H 8807  10.553   3.471   5.572 -0.9372  1.7375  0.2373
  806MOL0     H 8808  10.905   3.529   5.816 -1.8525 -1.6274  2.4357
  806MOL0     H 8809  10.411   4.034   5.754  0.4320 -1.0992 -0.5790
  806MOL0     H 8810  10.287   4.244   5.776 -0.2236 -0.2012  0.8869
  807MOL0     O 8811   7.412   9.195   7.573  0.1352  0.4394 -0.5504
  807MOL0     C 8812   7.319   9.126   7.547 -0.3330 -0.8122  0.0540
  807MOL0     O 8813   7.324   8.995   7.521  0.9424  0.3387  0.1009
  807MOL0     C 8814   7.441   8.920   7.542  0.0225 -0.1982  0.7641
  807MOL0     C 8815   7.419   8.788   7.574  0.5942  0.3019  0.0585
  807MOL0     C 8816   7.522   8.697   7.585  0.1894 -0.3354 -0.9609
  807MOL0     C 8817   7.647   8.738   7.544  0.6199 -0.0607  0.6298
  807MOL0     O 8818   7.741   8.639   7.535 -0.8209  0.1355 -0.2454
  807MOL0     C 8819   7.869   8.663   7.485 -0.6219  0.2225  0.2173
  807MOL0     C 8820   7.937   8.529   7.439  0.8387  0.0412  0.7161
  807MOL0     C 8821   7.865   8.471   7.319  0.2935  0.6062  0.7639
  807MOL0     C 8822   7.723   8.405   7.354 -0.2678  0.2693 -0.2226
  807MOL0     C 8823   7.705   8.269   7.278 -0.3511 -1.2816 -0.8863
  807MOL0     C 8824   7.594   8.172   7.333 -0.1872  0.0585 -0.0873
  807MOL0     C 8825   7.456   8.238   7.349 -0.7104  1.2921  0.3981
  807MOL0     C 8826   7.378   8.288   7.226 -0.1771  0.3141  0.4963
  807MOL0     N 8827   7.358   8.180   7.119 -0.1081  0.6782  0.4661
  807MOL0     C 8828   7.298   8.055   7.133 -0.3504 -1.1621 -0.0001
  807MOL0     C 8829   7.324   7.991   7.012 -0.1285  0.6741 -0.1518
  807MOL0     C 8830   7.291   7.846   6.981  0.1330  0.9411 -0.7644
  807MOL0     C 8831   7.143   7.819   7.012 -0.2069  1.0528  0.4884
  807MOL0     C 8832   7.089   7.698   6.928  0.6405  0.0596 -0.6990
  807MOL0     C 8833   6.970   7.634   7.004  0.1289  0.7695  1.3080
  807MOL0     O 8834   6.865   7.722   6.985  0.6002 -0.0403  0.5403
  807MOL0     C 8835   6.735   7.684   6.995  0.7596 -0.1480 -0.1491
  807MOL0     C 8836   6.694   7.560   7.030  0.1414 -0.2223  0.6374
  807MOL0     C 8837   6.561   7.522   7.044  0.1398  0.2919  0.0443
  807MOL0     C 8838   6.537   7.375   7.103 -0.1195 -0.1329  0.4882
  807MOL0     C 8839   6.455   7.622   7.023  0.7214  0.2699  1.2980
  807MOL0     C 8840   6.311   7.581   7.031 -0.4468  0.3529  0.2278
  807MOL0     O 8841   6.229   7.664   6.966  0.2438  0.6541  0.8266
  807MOL0     C 8842   6.090   7.648   6.987 -0.4135 -0.2295  1.5402
  807MOL0     C 8843   6.014   7.583   6.873  0.9404  0.3495  0.1486
  807MOL0     C 8844   5.877   7.579   6.889 -1.0550 -0.2923 -0.2429
  807MOL0     C 8845   5.818   7.613   7.011  1.5115 -0.3004 -0.0173
  807MOL0     O 8846   5.683   7.591   7.046 -0.3044  0.2420 -0.6304
  807MOL0     C 8847   5.600   7.540   6.946 -0.2891  0.3310  0.2170
  807MOL0     C 8848   5.457   7.529   7.006  0.4113  0.6685 -0.5493
  807MOL0     C 8849   5.377   7.404   6.966 -0.4417 -0.8051  0.9736
  807MOL0     C 8850   5.241   7.399   7.029  0.0266  0.7904 -0.4806
  807MOL0     C 8851   5.139   7.289   6.998 -0.4934 -0.2502  0.1091
  807MOL0     C 8852   4.998   7.347   7.005 -0.9478 -0.0123 -0.2369
  807MOL0     C 8853   4.898   7.271   6.910  0.4848 -0.6859 -0.2863
  807MOL0     C 8854   4.755   7.312   6.920 -0.0798  0.4984 -0.1759
  807MOL0    Cl 8855   4.644   7.226   6.792 -0.7112 -0.0866 -0.0089
  807MOL0     C 8856   5.892   7.672   7.113 -0.4248  0.9901 -0.6144
  807MOL0     C 8857   6.024   7.691   7.102  0.1684 -0.5797  1.1285
  807MOL0     O 8858   6.270   7.494   7.109 -0.7141  0.1229  0.6521
  807MOL0     C 8859   6.495   7.761   7.006  0.1193  0.1724  0.8221
  807MOL0     C 8860   6.631   7.787   6.984 -0.1341  0.4675  0.3372
  807MOL0     N 8861   7.390   8.080   6.928 -0.1934  0.0953 -0.8339
  807MOL0     N 8862   7.416   8.185   6.999 -0.0761  0.7890  0.7961
  807MOL0     C 8863   7.671   8.874   7.526  0.4480 -0.5199 -0.7014
  807MOL0     C 8864   7.570   8.969   7.525  0.1049 -0.2106  0.8424
  807MOL0     C 8865   7.190   9.196   7.536 -0.0522  0.4712  0.4701
  807MOL0     C 8866   7.161   9.322   7.608  0.5162  0.0927  0.1651
  807MOL0     C 8867   7.047   9.396   7.574 -0.3144 -0.4185 -0.7810
  807MOL0     C 8868   6.958   9.352   7.482 -0.7351  0.6829  0.1814
  807MOL0     O 8869   6.847   9.434   7.458 -0.4486 -0.2881  0.0654
  807MOL0     C 8870   6.747   9.360   7.385  0.8663  0.1863  0.1538
  807MOL0     C 8871   6.622   9.439   7.367  0.1322  0.4527 -0.0375
  807MOL0     C 8872   6.523   9.360   7.278 -0.5271  0.6705  0.4792
  807MOL0     C 8873   6.395   9.436   7.236 -0.0837 -0.0846 -0.4834
  807MOL0     C 8874   6.309   9.465   7.351  0.0240  0.9890 -0.8148
  807MOL0     C 8875   6.230   9.491   7.445 -0.4744 -0.4922  0.3394
  807MOL0     C 8876   6.984   9.225   7.417  0.9139 -0.3331 -0.5671
  807MOL0     C 8877   7.095   9.150   7.444  0.5270  0.6375 -0.4524
  807MOL0     H 8878   7.319   8.748   7.591  0.6098  0.0825 -0.3404
  807MOL0     H 8879   7.492   8.597   7.613  0.1907  0.1999  1.0727
  807MOL0     H 8880   7.871   8.720   7.392  4.1461  0.3086  0.1666
  807MOL0     H 8881   7.930   8.717   7.558  1.2734 -1.9790  0.3449
  807MOL0     H 8882   8.041   8.547   7.412  0.4339 -2.6066 -3.5893
  807MOL0     H 8883   7.941   8.456   7.520 -0.7905  1.6543  2.3505
  807MOL0     H 8884   7.855   8.538   7.233  0.0907 -0.0818  0.2398
  807MOL0     H 8885   7.934   8.389   7.295 -1.2798 -2.0747  4.3758
  807MOL0     H 8886   7.727   8.385   7.462 -1.0581 -0.1351 -0.2643
  807MOL0     H 8887   7.632   8.462   7.331 -0.9269 -0.1604  1.1815
  807MOL0     H 8888   7.675   8.290   7.175  0.2859 -0.6842 -0.9538
  807MOL0     H 8889   7.803   8.220   7.279  0.4984  0.3477 -0.0724
  807MOL0     H 8890   7.592   8.088   7.264 -0.9407  1.1687 -1.4596
  807MOL0     H 8891   7.616   8.147   7.438 -3.9161 -0.1440  0.7627
  807MOL0     H 8892   7.388   8.171   7.404  1.4717 -1.7369 -0.2923
  807MOL0     H 8893   7.473   8.324   7.414 -1.0794 -1.0145  3.8659
  807MOL0     H 8894   7.435   8.371   7.184 -0.1791 -0.5785 -1.3663
  807MOL0     H 8895   7.287   8.328   7.273  0.1536  0.9384  0.6126
  807MOL0     H 8896   7.247   8.010   7.218  1.9692 -1.8178  1.1262
  807MOL0     H 8897   7.314   7.817   6.879  2.2402 -1.2145  0.2237
  807MOL0     H 8898   7.349   7.780   7.047 -0.8430 -0.7569 -1.5394
  807MOL0     H 8899   7.089   7.912   6.988  3.0907  2.7533 -0.9331
  807MOL0     H 8900   7.133   7.800   7.119  1.6188 -1.1450  0.3326
  807MOL0     H 8901   7.176   7.638   6.901  0.5711  0.8041 -2.7656
  807MOL0     H 8902   7.049   7.729   6.832  2.5158  0.4461 -1.3970
  807MOL0     H 8903   6.998   7.617   7.108  0.8475 -0.3931  0.9401
  807MOL0     H 8904   6.945   7.533   6.970  0.6577  0.4304  1.9012
  807MOL0     H 8905   6.771   7.486   7.050 -0.4495 -0.7923  0.8092
  807MOL0     H 8906   6.632   7.327   7.124 -1.6067 -2.3212  2.7392
  807MOL0     H 8907   6.473   7.381   7.192 -0.3192  1.5240  0.2694
  807MOL0     H 8908   6.489   7.307   7.033 -0.3903  0.9414 -0.3969
  807MOL0     H 8909   6.066   7.563   6.780  1.3953  2.9694 -0.2514
  807MOL0     H 8910   5.815   7.537   6.811 -1.2561  1.1981 -0.9356
  807MOL0     H 8911   5.600   7.615   6.866 -2.4623  1.6101  1.3121
  807MOL0     H 8912   5.631   7.440   6.918 -0.5721  0.8525 -2.2070
  807MOL0     H 8913   5.461   7.530   7.116  1.5547  2.0198 -0.5809
  807MOL0     H 8914   5.393   7.615   6.982 -0.6086  0.9624  2.6501
  807MOL0     H 8915   5.427   7.309   6.987 -0.9977 -1.2746  0.2515
  807MOL0     H 8916   5.377   7.405   6.856  1.6221 -1.0109  0.9306
  807MOL0     H 8917   5.258   7.404   7.137 -1.5593  2.5197 -0.2676
  807MOL0     H 8918   5.194   7.495   7.010 -0.5406  1.0054  1.8004
  807MOL0     H 8919   5.149   7.210   7.073 -1.7826  0.7396  1.3770
  807MOL0     H 8920   5.169   7.249   6.901  0.2644  0.7335 -0.0750
  807MOL0     H 8921   4.980   7.345   7.113  0.8745  1.2285  0.1393
  807MOL0     H 8922   4.991   7.453   6.978 -2.0002 -0.0034  0.0277
  807MOL0     H 8923   4.887   7.169   6.948  1.4517 -0.4363  0.7182
  807MOL0     H 8924   4.933   7.266   6.807  2.8962 -1.2810  0.4949
  807MOL0     H 8925   4.750   7.419   6.899  0.5953  0.3213 -1.3331
  807MOL0     H 8926   4.709   7.290   7.016 -0.9148  1.1876 -0.4099
  807MOL0     H 8927   5.840   7.708   7.201 -0.8687 -0.3296 -0.3221
  807MOL0     H 8928   6.087   7.729   7.182  1.2493 -0.4046  0.2176
  807MOL0     H 8929   6.425   7.843   7.001  0.6485  0.5769 -0.1243
  807MOL0     H 8930   6.666   7.889   6.967 -0.6097  0.3308 -1.8683
  807MOL0     H 8931   7.769   8.919   7.510  0.6598 -0.5691  0.4315
  807MOL0     H 8932   7.602   9.073   7.518 -0.6136 -0.0365  0.0378
  807MOL0     H 8933   7.227   9.349   7.690 -0.1468  0.7786  0.4872
  807MOL0     H 8934   7.025   9.492   7.621  0.2797 -0.8819  0.4919
  807MOL0     H 8935   6.778   9.337   7.283 -0.2785  1.4950 -0.5166
  807MOL0     H 8936   6.713   9.270   7.438 -1.0681 -0.1507 -1.5287
  807MOL0     H 8937   6.641   9.538   7.322  1.7484  1.5568  2.7975
  807MOL0     H 8938   6.572   9.475   7.458 -1.5970  2.3728 -1.6435
  807MOL0     H 8939   6.492   9.267   7.327 -3.6379  0.0219 -2.3411
  807MOL0     H 8940   6.573   9.332   7.185 -0.4799  2.9271 -0.2272
  807MOL0     H 8941   6.344   9.383   7.154 -3.9671  0.1674  1.5438
  807MOL0     H 8942   6.421   9.531   7.188  2.1040 -0.3860  0.0039
  807MOL0     H 8943   6.162   9.504   7.527  3.6104 -1.4834  4.2621
  807MOL0     H 8944   6.917   9.197   7.336  1.1510  3.6491 -2.3751
  807MOL0     H 8945   7.121   9.062   7.385  1.3821  1.1355 -0.8340
  808MOL0     O 8946   2.864   1.941   2.671  0.4718 -0.6665  0.1567
  808MOL0     C 8947   2.893   1.900   2.559  0.0271  0.2146 -0.8881
  808MOL0     O 8948   2.815   1.837   2.472 -0.0683  0.0073  0.0327
  808MOL0     C 8949   2.706   1.772   2.513  0.0761  0.2866 -0.6178
  808MOL0     C 8950   2.708   1.647   2.574  0.4811 -0.7354 -0.1344
  808MOL0     C 8951   2.590   1.576   2.620 -0.5625 -0.4306  0.3304
  808MOL0     C 8952   2.465   1.639   2.592 -0.8583  0.1232 -0.4112
  808MOL0     O 8953   2.345   1.592   2.641 -0.4292 -0.4332 -0.5329
  808MOL0     C 8954   2.337   1.497   2.748 -0.0713 -0.4889 -0.3315
  808MOL0     C 8955   2.188   1.457   2.762  0.5728  0.3089  0.1768
  808MOL0     C 8956   2.187   1.332   2.851 -0.3447 -0.4012  0.9332
  808MOL0     C 8957   2.050   1.304   2.914 -0.1413 -0.7851  0.0952
  808MOL0     C 8958   1.946   1.235   2.820  0.6572  1.6901 -0.0126
  808MOL0     C 8959   1.822   1.188   2.887 -1.0903 -0.3693  0.3613
  808MOL0     C 8960   1.736   1.314   2.923  0.5847  1.1761  0.0741
  808MOL0     C 8961   1.677   1.394   2.807  0.3440 -0.2491 -0.3979
  808MOL0     N 8962   1.596   1.504   2.857  0.1234 -0.5605 -0.2711
  808MOL0     C 8963   1.465   1.517   2.832 -0.1134 -0.0655 -0.5761
  808MOL0     C 8964   1.423   1.618   2.909 -0.4234 -0.5187  0.0370
  808MOL0     C 8965   1.279   1.672   2.898  0.3001 -0.3945 -0.4133
  808MOL0     C 8966   1.219   1.708   3.027 -0.4457  0.1450 -0.4130
  808MOL0     C 8967   1.089   1.787   3.004 -1.5322  0.2545  0.0428
  808MOL0     C 8968   0.980   1.700   2.940 -0.3258  0.5283 -0.0543
  808MOL0     O 8969   0.968   1.733   2.797  0.4268 -0.1080 -0.1557
  808MOL0     C 8970   0.853   1.699   2.734 -0.3473 -0.6557  0.6878
  808MOL0     C 8971   0.862   1.736   2.603  0.2203 -0.2282  0.5839
  808MOL0     C 8972   0.755   1.756   2.524  0.4422 -0.6295 -0.2513
  808MOL0     C 8973   0.780   1.802   2.383  0.4292  0.3557  0.1333
  808MOL0     C 8974   0.625   1.732   2.582 -0.2663  1.7794  0.1156
  808MOL0     C 8975   0.507   1.775   2.517 -0.3562 -0.1755 -0.1399
  808MOL0     O 8976   0.510   1.880   2.433  0.0186  0.1045 -0.2469
  808MOL0     C 8977   0.384   1.935   2.416 -0.3289  0.9741  0.1628
  808MOL0     C 8978   0.303   1.919   2.302 -0.8721  0.1201  0.1582
  808MOL0     C 8979   0.177   1.962   2.290  0.2515  0.1228 -0.8226
  808MOL0     C 8980   0.120   2.035   2.391 -0.3749 -0.4922 -1.2154
  808MOL0     O 8981  -0.006   2.079   2.379  0.8273 -0.6976  0.9440
  808MOL0     C 8982  -0.018   2.221   2.413  0.6049  0.2084 -0.2006
  808MOL0     C 8983  -0.154   2.261   2.379  0.1312 -0.4208 -0.2988
  808MOL0     C 8984  -0.171   2.266   2.227 -0.2366  0.1255 -1.0660
  808MOL0     C 8985  -0.239   2.395   2.184  0.4007 -0.0482 -0.0899
  808MOL0     C 8986  -0.264   2.376   2.027 -0.1364  0.4511 -0.5032
  808MOL0     C 8987  -0.350   2.496   1.970 -0.2139 -0.0570  0.1767
  808MOL0     C 8988  -0.387   2.471   1.821  0.7423  0.3128  0.1593
  808MOL0     C 8989  -0.428   2.606   1.767  0.4496  0.3643 -0.3862
  808MOL0    Cl 8990  -0.529   2.581   1.616 -0.1094 -0.0812  0.2049
  808MOL0     C 8991   0.189   2.050   2.506  0.1790 -0.1475 -0.0252
  808MOL0     C 8992   0.316   1.998   2.524 -0.5901  0.7042 -0.2288
  808MOL0     O 8993   0.411   1.702   2.528 -0.1747 -0.2291 -0.1248
  808MOL0     C 8994   0.614   1.672   2.708 -0.4769  0.3653 -0.7866
  808MOL0     C 8995   0.731   1.659   2.788  0.2620  0.1102 -0.3168
  808MOL0     N 8996   1.538   1.671   2.974  0.2484  0.5793  0.5920
  808MOL0     N 8997   1.642   1.599   2.939 -0.6038  0.4368  0.2650
  808MOL0     C 8998   2.464   1.774   2.539 -0.4654  0.2712 -0.0470
  808MOL0     C 8999   2.583   1.834   2.495  0.0538 -0.1464  0.1444
  808MOL0     C 9000   3.032   1.934   2.514 -0.5142  0.3209  0.1803
  808MOL0     C 9001   3.115   2.027   2.580 -0.4208 -1.4590 -0.2222
  808MOL0     C 9002   3.244   2.042   2.532  0.6388  0.7634 -0.1150
  808MOL0     C 9003   3.296   1.953   2.434 -1.1075 -0.1000  0.1509
  808MOL0     O 9004   3.435   1.965   2.422 -0.1884 -0.2327  0.4359
  808MOL0     C 9005   3.493   1.863   2.331 -0.2339  0.5374 -0.7576
  808MOL0     C 9006   3.637   1.907   2.284 -0.5111 -0.1470 -0.3906
  808MOL0     C 9007   3.739   1.929   2.400  0.2872  0.0830  0.3918
  808MOL0     C 9008   3.887   1.910   2.360  0.0829  0.2180 -0.2642
  808MOL0     C 9009   3.978   1.955   2.460 -0.5608  0.5086 -1.5482
  808MOL0     C 9010   4.066   1.994   2.541 -0.4342  1.2221 -0.2368
  808MOL0     C 9011   3.219   1.858   2.367 -0.2820 -0.4182 -0.0400
  808MOL0     C 9012   3.086   1.853   2.404  1.1776  0.0173  0.1574
  808MOL0     H 9013   2.802   1.594   2.589  0.7470  0.1760  1.7140
  808MOL0     H 9014   2.596   1.478   2.667 -2.7769 -1.0929 -0.6299
  808MOL0     H 9015   2.400   1.409   2.735 -0.3962 -0.3056 -4.0993
  808MOL0     H 9016   2.374   1.555   2.833 -1.2321 -1.6008  0.9844
  808MOL0     H 9017   2.123   1.532   2.809 -2.3422 -2.3004  0.6475
  808MOL0     H 9018   2.156   1.428   2.662 -0.9903 -1.9749  1.2443
  808MOL0     H 9019   2.224   1.248   2.792  0.2754 -1.0331  2.1813
  808MOL0     H 9020   2.240   1.351   2.945 -0.8003 -0.6644  1.2483
  808MOL0     H 9021   2.055   1.244   3.006  1.5533  2.0144  1.9712
  808MOL0     H 9022   2.014   1.401   2.949  2.9572  0.6705 -0.4155
  808MOL0     H 9023   1.926   1.308   2.741 -1.1152 -0.1654 -1.3782
  808MOL0     H 9024   1.986   1.143   2.777 -0.9757  1.1509 -0.4446
  808MOL0     H 9025   1.775   1.119   2.817  0.6351  0.1386 -1.3866
  808MOL0     H 9026   1.838   1.133   2.980 -2.8570 -2.3774 -0.4532
  808MOL0     H 9027   1.652   1.276   2.983  0.3391 -0.2624 -1.1059
  808MOL0     H 9028   1.796   1.372   2.994  3.6959 -0.8575 -0.6695
  808MOL0     H 9029   1.620   1.318   2.752 -1.6093  2.0660 -1.7392
  808MOL0     H 9030   1.760   1.425   2.743  0.2470  1.2375  0.1679
  808MOL0     H 9031   1.419   1.460   2.753 -0.7641  0.7114 -0.7703
  808MOL0     H 9032   1.291   1.760   2.833  0.0384  0.1463  0.2692
  808MOL0     H 9033   1.226   1.589   2.851 -0.7767 -0.8613  1.5322
  808MOL0     H 9034   1.286   1.767   3.089 -2.0136  0.1437  1.3897
  808MOL0     H 9035   1.207   1.610   3.075  2.7153  0.3443  0.9668
  808MOL0     H 9036   1.109   1.886   2.961  4.2353  0.3470  2.1136
  808MOL0     H 9037   1.053   1.811   3.105  1.1332 -0.2291  1.1978
  808MOL0     H 9038   0.894   1.729   3.001  0.7393  0.7136  1.3852
  808MOL0     H 9039   0.984   1.591   2.947 -0.1911  0.4772 -0.7948
  808MOL0     H 9040   0.965   1.761   2.582  0.3815  0.5875  2.1840
  808MOL0     H 9041   0.692   1.796   2.319  0.8349 -1.0137 -0.3319
  808MOL0     H 9042   0.816   1.905   2.384 -1.1207  0.9418 -1.3199
  808MOL0     H 9043   0.864   1.744   2.345  0.0842  0.3548 -0.6387
  808MOL0     H 9044   0.345   1.865   2.217 -3.0086  2.0143 -2.2768
  808MOL0     H 9045   0.112   1.945   2.206 -1.1479  2.7931 -0.3708
  808MOL0     H 9046   0.002   2.231   2.520 -1.2610 -2.0517  0.4228
  808MOL0     H 9047   0.050   2.283   2.354 -1.6438  0.3844 -2.7928
  808MOL0     H 9048  -0.233   2.209   2.435  0.1482 -1.2201 -0.9981
  808MOL0     H 9049  -0.173   2.359   2.424 -2.0146 -1.3292  0.8815
  808MOL0     H 9050  -0.231   2.180   2.196 -0.0386 -0.2788 -0.3527
  808MOL0     H 9051  -0.081   2.253   2.166 -0.4931  0.4600 -1.5266
  808MOL0     H 9052  -0.334   2.415   2.233  0.5150 -0.2163  0.2031
  808MOL0     H 9053  -0.177   2.483   2.205 -4.6647  3.8063  0.6869
  808MOL0     H 9054  -0.312   2.281   2.003  0.9914  0.1649 -1.7467
  808MOL0     H 9055  -0.172   2.373   1.969  1.0196  0.2222  1.2569
  808MOL0     H 9056  -0.436   2.505   2.037  0.7880 -1.3142  1.7197
  808MOL0     H 9057  -0.300   2.593   1.977 -0.9539  0.6391 -2.8685
  808MOL0     H 9058  -0.473   2.405   1.812  1.0814 -0.3025  1.3310
  808MOL0     H 9059  -0.307   2.422   1.764  0.9939 -2.9993  3.0505
  808MOL0     H 9060  -0.340   2.659   1.730  0.5281 -0.4351 -1.4060
  808MOL0     H 9061  -0.491   2.658   1.839  0.4734 -0.5210  0.2876
  808MOL0     H 9062   0.139   2.094   2.592 -0.4043 -0.7885 -0.0338
  808MOL0     H 9063   0.359   2.008   2.623  0.3685  3.3219 -0.8348
  808MOL0     H 9064   0.519   1.630   2.742  0.3896 -0.3477  0.9026
  808MOL0     H 9065   0.731   1.617   2.888  0.6064 -0.0472 -0.3790
  808MOL0     H 9066   2.371   1.821   2.512 -1.8814 -0.6256  2.8403
  808MOL0     H 9067   2.572   1.931   2.447 -3.0085 -1.0825 -1.2781
  808MOL0     H 9068   3.083   2.097   2.656  3.0693  0.7958 -0.6143
  808MOL0     H 9069   3.309   2.118   2.575  1.1936 -0.0836  0.5678
  808MOL0     H 9070   3.498   1.766   2.381 -3.2004 -0.4781 -2.2162
  808MOL0     H 9071   3.434   1.836   2.242  0.8435 -1.6386 -0.8884
  808MOL0     H 9072   3.634   1.993   2.217 -1.9914 -1.1332 -1.6426
  808MOL0     H 9073   3.672   1.826   2.221 -0.5980 -2.0612  1.8617
  808MOL0     H 9074   3.715   1.853   2.475 -0.7937  1.6207  1.7072
  808MOL0     H 9075   3.708   2.023   2.448 -3.6626 -1.8044  1.9938
  808MOL0     H 9076   3.897   1.960   2.264  1.2786 -1.8282 -1.2686
  808MOL0     H 9077   3.903   1.805   2.332  1.7603  0.4046 -0.0895
  808MOL0     H 9078   4.126   2.026   2.624  0.3355 -0.5479 -0.0518
  808MOL0     H 9079   3.257   1.788   2.293 -0.5737  0.0933 -0.6768
  808MOL0     H 9080   3.030   1.768   2.369  0.1311  0.4192  0.8159
  809MOL0     O 9081   8.077   2.572   6.315 -0.0182 -0.2238 -0.7170
  809MOL0     C 9082   8.166   2.495   6.358  0.8560  0.2482 -0.3759
  809MOL0     O 9083   8.140   2.402   6.462 -0.6896  0.1475  0.3593
  809MOL0     C 9084   8.010   2.386   6.509  0.2572 -0.8383 -0.5355
  809MOL0     C 9085   7.982   2.455   6.622  0.0824 -0.1007 -0.9675
  809MOL0     C 9086   7.852   2.433   6.686 -0.3954 -0.7870  0.5090
  809MOL0     C 9087   7.757   2.352   6.628 -0.7541  1.0087  0.3322
  809MOL0     O 9088   7.645   2.335   6.709  0.1868  0.3167  0.4294
  809MOL0     C 9089   7.552   2.241   6.657 -0.5795  0.2578 -0.1475
  809MOL0     C 9090   7.441   2.221   6.755 -0.2682 -0.2525  0.3280
  809MOL0     C 9091   7.337   2.122   6.704 -1.5951  0.3207  0.8421
  809MOL0     C 9092   7.210   2.121   6.784 -0.3886  0.1632  0.1966
  809MOL0     C 9093   7.119   2.015   6.724  0.3123  0.1772 -0.3582
  809MOL0     C 9094   6.975   2.022   6.783 -0.1494  0.4785 -0.1264
  809MOL0     C 9095   6.875   1.931   6.713 -0.5828  0.8288 -0.1996
  809MOL0     C 9096   6.924   1.788   6.691 -0.1011 -1.0230  0.1471
  809MOL0     N 9097   6.830   1.709   6.615 -0.2728  0.9638  0.5990
  809MOL0     C 9098   6.698   1.674   6.646 -1.0923 -0.3797 -0.4076
  809MOL0     C 9099   6.651   1.606   6.543  0.3582 -0.8984  0.1039
  809MOL0     C 9100   6.511   1.555   6.517 -0.2093 -0.2119 -0.0257
  809MOL0     C 9101   6.497   1.535   6.366  0.6111  0.0565  0.2849
  809MOL0     C 9102   6.379   1.452   6.329  0.8989  0.3097 -0.1001
  809MOL0     C 9103   6.232   1.492   6.368 -0.2938  0.8902 -0.2297
  809MOL0     O 9104   6.155   1.369   6.392 -0.7172 -0.4584 -0.3412
  809MOL0     C 9105   6.028   1.384   6.436  0.0635  0.2690 -0.1182
  809MOL0     C 9106   5.949   1.273   6.416 -1.0027  0.0841  1.0837
  809MOL0     C 9107   5.826   1.265   6.446  0.8149  0.4409  0.7471
  809MOL0     C 9108   5.755   1.133   6.423  0.5524  0.0603  0.3903
  809MOL0     C 9109   5.754   1.372   6.503 -0.0015 -0.1064  0.1047
  809MOL0     C 9110   5.602   1.365   6.522 -0.3818  0.3506 -0.5723
  809MOL0     O 9111   5.541   1.296   6.426  0.6945 -0.4180  0.2495
  809MOL0     C 9112   5.398   1.285   6.426  1.2859  0.2733  0.0255
  809MOL0     C 9113   5.344   1.182   6.348 -0.2993  0.4407 -0.6526
  809MOL0     C 9114   5.207   1.164   6.327  0.8459  0.3739 -0.2363
  809MOL0     C 9115   5.112   1.252   6.380  0.2077  0.0410  0.4459
  809MOL0     O 9116   4.976   1.246   6.361 -0.3037  0.4224 -0.3878
  809MOL0     C 9117   4.910   1.133   6.296  0.1410 -1.0458 -0.5203
  809MOL0     C 9118   4.762   1.164   6.280 -1.0553  0.7973  0.5141
  809MOL0     C 9119   4.684   1.180   6.408  0.4602 -0.0982  0.0972
  809MOL0     C 9120   4.550   1.232   6.381  0.4880 -0.2678  0.4277
  809MOL0     C 9121   4.477   1.298   6.506  0.2404 -0.1841  0.5509
  809MOL0     C 9122   4.334   1.308   6.469  0.6916 -0.7747 -0.7957
  809MOL0     C 9123   4.244   1.397   6.565  0.7331 -0.0405  0.5560
  809MOL0     C 9124   4.118   1.453   6.494 -0.6546  1.3519  0.4372
  809MOL0    Cl 9125   4.011   1.509   6.629  0.0495  0.1238 -0.2690
  809MOL0     C 9126   5.164   1.363   6.449  0.8640 -0.4086 -1.4074
  809MOL0     C 9127   5.302   1.376   6.476 -0.3113 -0.5068 -0.6138
  809MOL0     O 9128   5.555   1.431   6.616  0.1344  1.0621 -0.6055
  809MOL0     C 9129   5.827   1.489   6.529 -0.0696 -0.3077  0.6783
  809MOL0     C 9130   5.968   1.502   6.496  0.1762 -0.4102  0.3167
  809MOL0     N 9131   6.743   1.616   6.445  0.0351 -0.2788  0.3918
  809MOL0     N 9132   6.846   1.683   6.477 -0.3712  0.3503 -0.5013
  809MOL0     C 9133   7.790   2.286   6.509  0.0756 -0.1506 -0.0114
  809MOL0     C 9134   7.917   2.300   6.452 -0.0673 -0.2630  0.1727
  809MOL0     C 9135   8.300   2.492   6.305  0.5158  1.4640 -0.2291
  809MOL0     C 9136   8.342   2.564   6.193 -0.2188  0.2351  0.0375
  809MOL0     C 9137   8.458   2.536   6.121  0.0141 -0.2259 -0.2476
  809MOL0     C 9138   8.545   2.444   6.168 -0.2858  0.1420 -0.3209
  809MOL0     O 9139   8.664   2.400   6.105  0.2995  0.2673 -0.1864
  809MOL0     C 9140   8.753   2.498   6.058  0.0367 -1.1193 -0.0848
  809MOL0     C 9141   8.843   2.546   6.174 -0.4054 -0.0238  0.1856
  809MOL0     C 9142   8.928   2.661   6.110  0.3803  0.1344 -0.1736
  809MOL0     C 9143   9.066   2.684   6.170  0.9239 -1.1654 -0.7818
  809MOL0     C 9144   9.155   2.780   6.094  0.2046 -0.0593  0.1256
  809MOL0     C 9145   9.224   2.865   6.029  0.7099  1.1728 -0.5482
  809MOL0     C 9146   8.515   2.391   6.286 -0.4065  0.5726 -0.0912
  809MOL0     C 9147   8.395   2.402   6.354  0.0346 -0.2709 -0.2589
  809MOL0     H 9148   8.055   2.526   6.660 -0.1507 -0.4267  0.1389
  809MOL0     H 9149   7.809   2.486   6.771 -1.0306 -1.0785  0.3780
  809MOL0     H 9150   7.514   2.279   6.562 -2.2747 -3.9743 -1.3998
  809MOL0     H 9151   7.607   2.148   6.639  2.9198  1.9176  1.0401
  809MOL0     H 9152   7.485   2.204   6.853  0.3715  0.0450  0.0985
  809MOL0     H 9153   7.401   2.323   6.762 -2.4053 -0.9712 -0.4270
  809MOL0     H 9154   7.306   2.141   6.600  1.5298 -1.2447 -0.4957
  809MOL0     H 9155   7.378   2.022   6.686  2.6495  2.2754 -2.0552
  809MOL0     H 9156   7.228   2.096   6.889 -1.5753 -3.2617 -0.3156
  809MOL0     H 9157   7.161   2.219   6.778  2.4390  1.6534 -1.0864
  809MOL0     H 9158   7.122   2.034   6.617 -1.9458 -0.1902 -0.5504
  809MOL0     H 9159   7.158   1.914   6.742 -0.3104  0.3308  2.3148
  809MOL0     H 9160   6.976   2.001   6.890  1.5701  0.0192 -0.2030
  809MOL0     H 9161   6.936   2.125   6.784 -1.1339  0.1430 -1.4566
  809MOL0     H 9162   6.773   1.938   6.753 -0.4925  0.7871  0.0430
  809MOL0     H 9163   6.860   1.968   6.611  0.8392 -1.0469 -1.1511
  809MOL0     H 9164   6.936   1.742   6.789 -0.8805  2.2546  1.9487
  809MOL0     H 9165   7.015   1.802   6.632 -1.1646  3.6885 -0.7920
  809MOL0     H 9166   6.653   1.691   6.743  1.3271 -2.5675  1.2410
  809MOL0     H 9167   6.492   1.461   6.568  0.4544 -0.8639 -0.9444
  809MOL0     H 9168   6.435   1.620   6.563  2.6399  1.6168  2.4917
  809MOL0     H 9169   6.582   1.474   6.333  0.0203 -0.3867 -0.4709
  809MOL0     H 9170   6.498   1.627   6.308 -2.1335 -1.5695 -2.6586
  809MOL0     H 9171   6.396   1.357   6.381 -0.6667 -0.7340 -1.3777
  809MOL0     H 9172   6.362   1.428   6.223  1.0294 -1.3721  0.2382
  809MOL0     H 9173   6.185   1.558   6.294 -2.0481 -1.0846 -0.9827
  809MOL0     H 9174   6.239   1.549   6.461 -0.7634  2.0593 -0.8951
  809MOL0     H 9175   6.013   1.191   6.385  1.1738  0.7949  3.3396
  809MOL0     H 9176   5.815   1.042   6.412 -1.2096 -1.0668 -0.3315
  809MOL0     H 9177   5.684   1.105   6.501 -1.4020 -0.2117 -1.4066
  809MOL0     H 9178   5.694   1.141   6.333  0.8808  0.1443  0.1710
  809MOL0     H 9179   5.418   1.112   6.312  0.7797  0.8816  0.6352
  809MOL0     H 9180   5.170   1.079   6.271  1.7661  1.1283 -2.0394
  809MOL0     H 9181   4.945   1.111   6.195 -0.5105 -1.9842 -0.5519
  809MOL0     H 9182   4.921   1.043   6.357 -1.1814  0.9607  2.9947
  809MOL0     H 9183   4.757   1.251   6.214 -1.0299 -0.7980 -1.7096
  809MOL0     H 9184   4.720   1.076   6.230 -1.8791  1.7672 -0.5571
  809MOL0     H 9185   4.740   1.246   6.475  0.9124 -0.3611 -0.0134
  809MOL0     H 9186   4.664   1.080   6.449 -0.6411 -1.4167 -3.2979
  809MOL0     H 9187   4.546   1.307   6.302  0.2088 -2.2777 -1.5688
  809MOL0     H 9188   4.492   1.150   6.337  0.6658  0.2499 -0.8097
  809MOL0     H 9189   4.517   1.397   6.527  1.4837 -0.6146  0.3134
  809MOL0     H 9190   4.497   1.246   6.600  2.0519  3.2056  2.2046
  809MOL0     H 9191   4.323   1.361   6.374  0.6054  2.4241  0.8571
  809MOL0     H 9192   4.289   1.208   6.465  0.7497 -0.7859 -1.1499
  809MOL0     H 9193   4.309   1.481   6.592  1.6262 -0.0168 -1.4740
  809MOL0     H 9194   4.220   1.345   6.658 -0.6160  2.7021  1.8610
  809MOL0     H 9195   4.072   1.364   6.451  0.3679  1.5400 -1.0985
  809MOL0     H 9196   4.133   1.532   6.419 -1.5740  1.3955  0.2904
  809MOL0     H 9197   5.089   1.432   6.487  0.6785 -1.5077  0.3772
  809MOL0     H 9198   5.341   1.466   6.523  1.5736 -1.2186 -0.7418
  809MOL0     H 9199   5.771   1.571   6.572 -0.4400  1.2898 -2.5478
  809MOL0     H 9200   6.021   1.596   6.513 -1.3368  0.7489 -1.0037
  809MOL0     H 9201   7.715   2.227   6.458 -0.0772 -2.1135  2.2754
  809MOL0     H 9202   7.963   2.234   6.379  0.6278  1.8098 -1.3478
  809MOL0     H 9203   8.276   2.638   6.150  1.2635  1.7795  0.3108
  809MOL0     H 9204   8.488   2.577   6.025 -1.0106  0.4596 -0.2975
  809MOL0     H 9205   8.807   2.445   5.979 -1.0131 -0.1562 -1.5160
  809MOL0     H 9206   8.685   2.571   6.012 -0.4311 -3.2736 -3.1782
  809MOL0     H 9207   8.899   2.458   6.206 -0.0555 -0.2442 -1.0047
  809MOL0     H 9208   8.781   2.588   6.254 -2.9685 -1.6413 -0.8606
  809MOL0     H 9209   8.873   2.754   6.096  2.8747  1.5280 -1.5621
  809MOL0     H 9210   8.955   2.633   6.008 -0.0798  1.9691 -0.8352
  809MOL0     H 9211   9.116   2.588   6.184 -0.8034 -1.9266  0.3524
  809MOL0     H 9212   9.054   2.724   6.271 -1.0018 -0.4115 -1.2681
  809MOL0     H 9213   9.279   2.935   5.970  0.9496  1.7709  0.3634
  809MOL0     H 9214   8.580   2.309   6.318  0.0806  0.6135 -0.9478
  809MOL0     H 9215   8.380   2.346   6.445 -2.1235 -0.0272 -0.4036
  810MOL0     O 9216   0.561   3.097   8.576  0.1354 -0.2224  0.5089
  810MOL0     C 9217   0.595   3.145   8.468  0.9112 -0.5840  1.2059
  810MOL0     O 9218   0.539   3.128   8.350  0.9959  0.3972  0.2727
  810MOL0     C 9219   0.416   3.064   8.345 -0.9937 -0.1809  0.3167
  810MOL0     C 9220   0.419   2.938   8.282  0.1516 -0.4668 -1.0549
  810MOL0     C 9221   0.299   2.860   8.290 -0.0578  0.6349  0.2316
  810MOL0     C 9222   0.187   2.913   8.339 -0.7302 -0.2652 -0.0994
  810MOL0     O 9223   0.075   2.833   8.366 -0.2596  0.1401 -0.4973
  810MOL0     C 9224   0.035   2.733   8.269  0.2042 -0.6516 -0.4777
  810MOL0     C 9225  -0.081   2.799   8.203  0.5073  1.1238 -0.2909
  810MOL0     C 9226  -0.136   2.711   8.092 -0.3256 -1.0037  0.1772
  810MOL0     C 9227  -0.036   2.684   7.983  0.6271 -0.2118 -0.4145
  810MOL0     C 9228  -0.081   2.617   7.844  0.4951  0.3588 -0.8597
  810MOL0     C 9229   0.041   2.549   7.786 -0.5514  1.3021  0.0283
  810MOL0     C 9230   0.030   2.495   7.635  0.1722 -0.6191 -0.5700
  810MOL0     C 9231  -0.051   2.371   7.630 -0.0879  0.0344 -0.1288
  810MOL0     N 9232  -0.037   2.311   7.503  0.0604  0.0997 -0.3418
  810MOL0     C 9233  -0.019   2.172   7.496  0.3567  0.2241 -0.4384
  810MOL0     C 9234  -0.056   2.139   7.376 -0.5171  1.2590  0.3891
  810MOL0     C 9235  -0.064   1.996   7.320  0.3914  0.6527 -0.1708
  810MOL0     C 9236  -0.201   1.948   7.275 -0.5808  0.2013 -0.5839
  810MOL0     C 9237  -0.266   1.872   7.384 -0.0265 -0.1678 -0.1261
  810MOL0     C 9238  -0.406   1.812   7.334  0.7334 -0.5119 -0.0795
  810MOL0     O 9239  -0.479   1.901   7.243  0.6150  0.6502 -0.0868
  810MOL0     C 9240  -0.593   1.951   7.296  0.5093 -0.1213 -0.1456
  810MOL0     C 9241  -0.705   1.966   7.215 -0.4399  0.3937 -0.1158
  810MOL0     C 9242  -0.829   2.018   7.265 -1.2591 -0.1967  0.0090
  810MOL0     C 9243  -0.934   2.034   7.162  0.3900 -0.5393 -0.7255
  810MOL0     C 9244  -0.840   2.055   7.400 -0.1868  0.0199  0.3144
  810MOL0     C 9245  -0.966   2.117   7.457 -0.2851  0.2601 -0.1993
  810MOL0     O 9246  -1.084   2.074   7.407  0.4079 -0.4491 -0.1963
  810MOL0     C 9247  -1.199   2.152   7.447 -0.3715 -0.0699  0.4288
  810MOL0     C 9248  -1.298   2.095   7.515  0.0119 -0.2043  0.5401
  810MOL0     C 9249  -1.406   2.176   7.557 -0.3742  0.0658  0.2806
  810MOL0     C 9250  -1.428   2.301   7.510 -0.3439 -0.1376 -0.9985
  810MOL0     O 9251  -1.530   2.388   7.540  0.3186  0.5491  0.0577
  810MOL0     C 9252  -1.640   2.334   7.613  0.1420 -0.3735 -0.2524
  810MOL0     C 9253  -1.618   2.344   7.765  1.0771  0.9749 -0.3097
  810MOL0     C 9254  -1.753   2.323   7.831  0.5983 -0.6048 -0.0150
  810MOL0     C 9255  -1.743   2.299   7.978  0.7133  0.3785 -0.1864
  810MOL0     C 9256  -1.875   2.268   8.059 -0.9916 -0.5430 -0.6046
  810MOL0     C 9257  -1.851   2.279   8.221  0.0682 -0.7101  0.4020
  810MOL0     C 9258  -1.963   2.203   8.285 -0.6162 -0.0541  0.2330
  810MOL0     C 9259  -1.976   2.251   8.431  1.0037  0.0528  0.0109
  810MOL0    Cl 9260  -2.117   2.177   8.519  0.1035 -0.1131 -0.4847
  810MOL0     C 9261  -1.321   2.352   7.432 -0.0889  0.3560 -0.4585
  810MOL0     C 9262  -1.203   2.284   7.406  0.1725 -0.5974 -0.5301
  810MOL0     O 9263  -0.942   2.191   7.550 -0.3004  0.8717 -0.7309
  810MOL0     C 9264  -0.719   2.056   7.477 -1.0610  0.3952 -0.8282
  810MOL0     C 9265  -0.598   2.007   7.428  0.0989  0.7236 -0.4180
  810MOL0     N 9266  -0.106   2.247   7.314 -0.7277  0.3422  0.6771
  810MOL0     N 9267  -0.094   2.350   7.386  0.2510  0.4047 -0.4455
  810MOL0     C 9268   0.188   3.046   8.392 -0.5121 -0.2601 -0.1262
  810MOL0     C 9269   0.301   3.123   8.394 -0.3268  0.1160  0.4670
  810MOL0     C 9270   0.714   3.235   8.477  0.8907  1.2845  0.3833
  810MOL0     C 9271   0.768   3.282   8.597 -0.1573  0.0139  0.2597
  810MOL0     C 9272   0.896   3.338   8.589 -0.1680  0.3181 -0.4966
  810MOL0     C 9273   0.969   3.368   8.472  0.4324 -1.4928  0.6553
  810MOL0     O 9274   1.092   3.413   8.481 -0.2804 -0.6397 -0.0236
  810MOL0     C 9275   1.143   3.492   8.372  0.5565  0.7221 -0.4784
  810MOL0     C 9276   1.299   3.505   8.389 -0.0828 -0.3565  0.7371
  810MOL0     C 9277   1.368   3.602   8.285 -0.1884  0.1257 -0.5180
  810MOL0     C 9278   1.370   3.749   8.342  0.4617  0.7188 -0.0683
  810MOL0     C 9279   1.480   3.781   8.428 -0.6312  0.0495 -0.0993
  810MOL0     C 9280   1.571   3.810   8.497 -0.2456 -0.0137 -0.8227
  810MOL0     C 9281   0.896   3.343   8.354 -0.4011 -0.3097  0.0146
  810MOL0     C 9282   0.779   3.264   8.357  0.1707  0.1194  0.5416
  810MOL0     H 9283   0.516   2.901   8.251  1.9622  1.0863  2.2534
  810MOL0     H 9284   0.314   2.763   8.244 -0.4600  0.7403 -0.1248
  810MOL0     H 9285   0.119   2.715   8.201  1.3220  1.4716  0.2298
  810MOL0     H 9286   0.001   2.648   8.328  0.5181  0.2193  1.0297
  810MOL0     H 9287  -0.157   2.824   8.277 -2.1233  1.6089 -2.9651
  810MOL0     H 9288  -0.038   2.890   8.159  1.3138  0.7186 -0.3701
  810MOL0     H 9289  -0.183   2.619   8.127  0.8449 -1.2034  1.2813
  810MOL0     H 9290  -0.215   2.769   8.042 -0.1748 -0.4619  0.5515
  810MOL0     H 9291   0.004   2.782   7.954  0.3601 -0.9215 -3.4295
  810MOL0     H 9292   0.030   2.610   8.030 -1.5453 -2.7168 -1.1221
  810MOL0     H 9293  -0.156   2.539   7.861 -1.0613  1.2037 -3.3291
  810MOL0     H 9294  -0.123   2.688   7.772 -0.8897 -0.4687 -0.8979
  810MOL0     H 9295   0.111   2.633   7.780  0.6698  0.4663  1.8576
  810MOL0     H 9296   0.091   2.476   7.849 -3.0669  2.2218  3.4068
  810MOL0     H 9297  -0.011   2.576   7.575  1.8443  1.4947  0.9908
  810MOL0     H 9298   0.134   2.480   7.604  0.2678 -0.9989 -0.0874
  810MOL0     H 9299  -0.157   2.394   7.645 -0.9495 -1.0715 -3.5905
  810MOL0     H 9300  -0.023   2.298   7.706 -0.2589  0.7889  0.6727
  810MOL0     H 9301   0.004   2.103   7.577  2.9654  2.2429  0.6560
  810MOL0     H 9302   0.004   1.992   7.235  0.2010 -1.6069 -0.2774
  810MOL0     H 9303  -0.018   1.932   7.397  1.3833  2.6712  0.9929
  810MOL0     H 9304  -0.180   1.874   7.197  3.1661  0.1382  0.3255
  810MOL0     H 9305  -0.261   2.029   7.233 -0.0542  0.1915 -1.3816
  810MOL0     H 9306  -0.282   1.932   7.474  3.2338  2.9695 -1.4005
  810MOL0     H 9307  -0.197   1.790   7.405 -0.9278 -1.2208 -1.1174
  810MOL0     H 9308  -0.451   1.775   7.426  0.1049 -0.1742 -0.2436
  810MOL0     H 9309  -0.395   1.719   7.276 -0.4126 -1.3726  1.0433
  810MOL0     H 9310  -0.695   1.941   7.110  0.1973  2.8131 -0.6966
  810MOL0     H 9311  -0.969   2.138   7.157  0.2211 -0.4803  1.0745
  810MOL0     H 9312  -0.888   2.003   7.067  0.4183 -1.3725 -0.4489
  810MOL0     H 9313  -1.018   1.966   7.178 -0.2615  0.1466 -1.1528
  810MOL0     H 9314  -1.284   1.990   7.537  2.0802 -0.0069  0.3780
  810MOL0     H 9315  -1.474   2.135   7.631 -1.5007 -0.4232 -0.9879
  810MOL0     H 9316  -1.722   2.405   7.598  1.4325  2.1457  3.3163
  810MOL0     H 9317  -1.680   2.239   7.576 -4.5151  1.8091 -1.6352
  810MOL0     H 9318  -1.550   2.267   7.802  1.5358  0.5656 -1.9289
  810MOL0     H 9319  -1.569   2.434   7.803  0.5571 -0.2093  3.6178
  810MOL0     H 9320  -1.814   2.240   7.794 -1.4623 -2.2845  6.0279
  810MOL0     H 9321  -1.823   2.401   7.800  0.1381 -1.5929 -1.5988
  810MOL0     H 9322  -1.672   2.218   7.998 -1.0700 -1.1989  0.1078
  810MOL0     H 9323  -1.708   2.394   8.020  0.4811  0.3620  0.0506
  810MOL0     H 9324  -1.916   2.172   8.026 -2.1707  0.4661 -2.2008
  810MOL0     H 9325  -1.943   2.346   8.024 -0.8777 -0.0954  0.1592
  810MOL0     H 9326  -1.762   2.224   8.255  0.4125 -0.3059  0.1719
  810MOL0     H 9327  -1.854   2.386   8.244 -0.5692 -0.2342 -1.6519
  810MOL0     H 9328  -1.953   2.094   8.282  1.0202  0.0608  0.4894
  810MOL0     H 9329  -2.050   2.240   8.229 -0.2643  0.7188  0.1818
  810MOL0     H 9330  -1.978   2.361   8.428  3.7646  0.1662 -2.3108
  810MOL0     H 9331  -1.887   2.230   8.491  1.5597  0.2650 -0.7203
  810MOL0     H 9332  -1.324   2.451   7.387 -1.3615 -0.2894 -1.8988
  810MOL0     H 9333  -1.116   2.325   7.354 -0.1313  0.5306 -0.1715
  810MOL0     H 9334  -0.727   2.089   7.581 -1.8956 -1.7674 -0.1406
  810MOL0     H 9335  -0.519   2.025   7.500 -0.8844  1.7434  0.4346
  810MOL0     H 9336   0.088   3.077   8.421 -0.2687  1.5321 -1.0459
  810MOL0     H 9337   0.315   3.225   8.428  1.6660 -0.8199  2.7131
  810MOL0     H 9338   0.727   3.264   8.696 -2.4600  2.0285 -0.2471
  810MOL0     H 9339   0.927   3.368   8.689 -2.0804 -0.5406  0.4049
  810MOL0     H 9340   1.127   3.432   8.283 -0.1466 -1.7392  1.2056
  810MOL0     H 9341   1.087   3.586   8.367 -0.8857 -0.0467  0.4574
  810MOL0     H 9342   1.354   3.411   8.378  1.1083  0.5134 -1.3433
  810MOL0     H 9343   1.321   3.541   8.490  3.6422 -2.3332  0.8188
  810MOL0     H 9344   1.315   3.604   8.190 -0.6162  0.3935 -0.2779
  810MOL0     H 9345   1.467   3.561   8.264  0.2838  0.8138  0.3011
  810MOL0     H 9346   1.277   3.764   8.398 -3.0874  3.4293 -5.7550
  810MOL0     H 9347   1.379   3.823   8.262  1.1472 -1.5730 -2.2778
  810MOL0     H 9348   1.651   3.832   8.565 -0.7155 -2.1583  0.5086
  810MOL0     H 9349   0.937   3.367   8.257 -0.5602  2.8713  0.6164
  810MOL0     H 9350   0.725   3.243   8.265  0.9947 -2.4047  0.5453
  811MOL0     O 9351   6.595   4.942  11.170  0.1955  0.0578  0.4421
  811MOL0     C 9352   6.665   4.844  11.183 -0.4417  0.4391  0.4001
  811MOL0     O 9353   6.610   4.724  11.213 -0.4668  0.6647 -0.5008
  811MOL0     C 9354   6.481   4.676  11.200  0.1606  0.2566  0.1699
  811MOL0     C 9355   6.383   4.730  11.107 -0.5912  0.0488  0.3828
  811MOL0     C 9356   6.261   4.664  11.087  0.1873 -0.6857  1.0321
  811MOL0     C 9357   6.221   4.555  11.169 -0.2795  1.1963  0.3179
  811MOL0     O 9358   6.098   4.490  11.171  0.1074  0.6202  0.1673
  811MOL0     C 9359   5.985   4.584  11.172 -0.1619 -0.2144 -0.6047
  811MOL0     C 9360   5.873   4.525  11.251 -0.0951  0.4305  0.7819
  811MOL0     C 9361   5.908   4.486  11.391  0.0564  0.1215  0.1093
  811MOL0     C 9362   5.978   4.596  11.486  0.0103  0.2751 -0.1652
  811MOL0     C 9363   5.986   4.552  11.637 -0.1781  0.6338 -0.2333
  811MOL0     C 9364   5.941   4.647  11.734  0.2355 -0.2022 -0.5741
  811MOL0     C 9365   5.971   4.592  11.868 -0.6063 -0.3152 -0.6322
  811MOL0     C 9366   5.921   4.674  11.986 -0.7909 -0.2451  1.4053
  811MOL0     N 9367   5.781   4.703  11.999  0.7414 -0.0498  0.1565
  811MOL0     C 9368   5.710   4.802  11.947 -0.1819  0.2150 -0.5670
  811MOL0     C 9369   5.582   4.771  11.951  0.1053 -0.7297  0.4578
  811MOL0     C 9370   5.469   4.844  11.882 -0.2525 -0.3543 -0.2336
  811MOL0     C 9371   5.507   4.916  11.751  0.0377 -0.0393 -0.1237
  811MOL0     C 9372   5.396   4.932  11.639  0.6880  0.3677 -0.0096
  811MOL0     C 9373   5.373   4.805  11.552  0.5333 -0.0179 -0.3332
  811MOL0     O 9374   5.244   4.750  11.589 -0.2024  0.8116  0.2410
  811MOL0     C 9375   5.130   4.791  11.529 -0.0519  0.2218 -0.2174
  811MOL0     C 9376   5.110   4.913  11.458  0.7187  0.2383  0.2622
  811MOL0     C 9377   4.988   4.944  11.398  0.3852  0.3611  0.8191
  811MOL0     C 9378   4.987   5.072  11.312 -0.5818  0.2956 -0.1163
  811MOL0     C 9379   4.876   4.857  11.415  0.3601  0.4928  0.4611
  811MOL0     C 9380   4.743   4.874  11.358  0.1557  0.0671  0.4179
  811MOL0     O 9381   4.631   4.803  11.400 -0.0207 -0.3183  1.0251
  811MOL0     C 9382   4.507   4.829  11.335 -0.3448 -0.1609 -0.5120
  811MOL0     C 9383   4.469   4.799  11.204  0.0388 -0.0418 -0.1135
  811MOL0     C 9384   4.341   4.828  11.155  0.4324  0.2243  0.2893
  811MOL0     C 9385   4.241   4.874  11.242  0.1241 -0.2748 -0.2329
  811MOL0     O 9386   4.114   4.875  11.191  0.5909  0.2219 -0.2045
  811MOL0     C 9387   4.002   4.921  11.271 -1.0224  0.2312 -0.9692
  811MOL0     C 9388   3.878   4.921  11.185  1.2223 -0.4830  0.9836
  811MOL0     C 9389   3.754   4.991  11.243 -0.3663 -0.2200 -0.2610
  811MOL0     C 9390   3.727   4.942  11.383 -0.3268 -0.2251  0.2547
  811MOL0     C 9391   3.587   4.986  11.427  0.2678 -0.6573 -0.2121
  811MOL0     C 9392   3.552   4.957  11.574 -0.8177 -1.3349 -0.2560
  811MOL0     C 9393   3.412   4.998  11.609 -0.1778  0.3980 -0.1055
  811MOL0     C 9394   3.325   4.879  11.638  0.6741  0.0658  0.0236
  811MOL0    Cl 9395   3.267   4.807  11.492 -0.6438 -0.1196  0.0580
  811MOL0     C 9396   4.273   4.908  11.374 -0.2924  1.0925 -0.0352
  811MOL0     C 9397   4.403   4.889  11.419  0.2047  0.9735 -0.1222
  811MOL0     O 9398   4.739   4.964  11.270  0.5629  0.1374  0.3593
  811MOL0     C 9399   4.898   4.739  11.490  1.0350  0.0844  0.6596
  811MOL0     C 9400   5.021   4.713  11.546 -0.7301 -0.4792 -0.2900
  811MOL0     N 9401   5.567   4.659  12.025 -0.5102 -0.6452 -0.0808
  811MOL0     N 9402   5.693   4.613  12.049  0.4230  0.1728  0.8716
  811MOL0     C 9403   6.310   4.518  11.270  0.9800 -0.2949 -0.2096
  811MOL0     C 9404   6.439   4.570  11.284  1.0373  0.1235  0.7044
  811MOL0     C 9405   6.812   4.858  11.174 -0.4715  0.3397  0.2770
  811MOL0     C 9406   6.869   4.987  11.156 -0.1664 -0.3184  0.4510
  811MOL0     C 9407   7.007   5.015  11.145 -0.0950  0.3247  0.0668
  811MOL0     C 9408   7.092   4.902  11.156  0.3599  0.0700 -1.0110
  811MOL0     O 9409   7.223   4.933  11.146  0.1216  0.0058  0.2971
  811MOL0     C 9410   7.316   4.838  11.198  0.4047 -0.0665 -0.1201
  811MOL0     C 9411   7.452   4.877  11.137  0.3375  0.7374 -0.9008
  811MOL0     C 9412   7.515   5.003  11.207  0.3447 -0.1729 -0.4763
  811MOL0     C 9413   7.659   5.032  11.144  0.4870  0.0650 -0.5671
  811MOL0     C 9414   7.709   5.153  11.208 -0.2019 -0.2113  0.5713
  811MOL0     C 9415   7.771   5.255  11.244  0.1395  1.1022 -1.0281
  811MOL0     C 9416   7.038   4.772  11.166  0.5987  0.0454  0.2061
  811MOL0     C 9417   6.902   4.748  11.167 -0.4316  0.5305 -0.3891
  811MOL0     H 9418   6.419   4.804  11.036  0.9987 -1.1667 -0.1399
  811MOL0     H 9419   6.205   4.681  10.996  2.1482 -0.2715 -0.1645
  811MOL0     H 9420   6.008   4.679  11.222 -1.1005 -0.0114 -0.5350
  811MOL0     H 9421   5.948   4.611  11.073 -0.7093 -1.9298 -0.8936
  811MOL0     H 9422   5.801   4.607  11.255 -0.9299 -0.2605  0.2988
  811MOL0     H 9423   5.825   4.440  11.202 -0.4721  0.4033  1.1939
  811MOL0     H 9424   5.817   4.455  11.444  0.4171 -1.9884 -0.4033
  811MOL0     H 9425   5.981   4.405  11.388  0.3887  0.4502 -1.0722
  811MOL0     H 9426   6.077   4.626  11.451 -0.7980  3.2162 -0.1863
  811MOL0     H 9427   5.924   4.691  11.481  0.6068  0.8090  2.4172
  811MOL0     H 9428   5.926   4.461  11.654 -0.4286  0.4729 -1.8581
  811MOL0     H 9429   6.091   4.531  11.657  0.3815  1.1224 -2.4065
  811MOL0     H 9430   5.997   4.740  11.727  2.4980 -1.4478 -0.0725
  811MOL0     H 9431   5.834   4.662  11.716  0.6428  1.0245 -2.2556
  811MOL0     H 9432   5.931   4.490  11.866 -1.6182  0.0729 -0.5987
  811MOL0     H 9433   6.080   4.587  11.879 -0.6442  2.4355  3.2970
  811MOL0     H 9434   5.973   4.770  11.988  0.4115 -0.8830  2.2110
  811MOL0     H 9435   5.945   4.623  12.080  1.5966  0.5967  1.3269
  811MOL0     H 9436   5.758   4.886  11.898  1.2554 -0.3100 -0.1109
  811MOL0     H 9437   5.376   4.794  11.856 -1.1259  1.6575 -1.2618
  811MOL0     H 9438   5.456   4.935  11.942  2.8943  0.4061 -0.4796
  811MOL0     H 9439   5.591   4.856  11.717  1.9876  0.9971  2.4647
  811MOL0     H 9440   5.536   5.019  11.774 -1.3975  0.4929 -0.5965
  811MOL0     H 9441   5.420   5.018  11.576  2.5976  0.7810  1.1932
  811MOL0     H 9442   5.307   4.966  11.694  1.5331  1.9733  0.4158
  811MOL0     H 9443   5.447   4.728  11.574  0.4109 -0.3470 -1.0327
  811MOL0     H 9444   5.379   4.817  11.443  3.3801 -1.0632 -0.3936
  811MOL0     H 9445   5.203   4.966  11.442  1.2986 -1.1395 -1.2946
  811MOL0     H 9446   4.907   5.136  11.351  1.0697  1.2311  1.8967
  811MOL0     H 9447   5.082   5.123  11.326  0.7465 -1.0747 -3.2031
  811MOL0     H 9448   4.968   5.055  11.205 -1.5504 -1.0488  0.2340
  811MOL0     H 9449   4.540   4.756  11.133 -0.0279  0.5499 -0.5367
  811MOL0     H 9450   4.299   4.796  11.060 -1.7522 -2.0853  1.8839
  811MOL0     H 9451   4.000   4.853  11.357  2.0342 -1.3504 -1.9838
  811MOL0     H 9452   4.021   5.023  11.304  1.8151 -0.5975  0.2967
  811MOL0     H 9453   3.903   4.973  11.092 -3.7818 -0.8089 -0.8435
  811MOL0     H 9454   3.854   4.820  11.151 -1.5254 -0.8464  3.6053
  811MOL0     H 9455   3.666   4.969  11.182 -1.2064 -0.6939  1.0730
  811MOL0     H 9456   3.773   5.098  11.255 -1.4073  0.1499 -1.6030
  811MOL0     H 9457   3.749   4.835  11.389 -0.5430 -0.1986  2.1168
  811MOL0     H 9458   3.804   4.998  11.439  0.0759  1.3737 -1.7687
  811MOL0     H 9459   3.523   4.932  11.357  0.8690 -0.8395 -0.6346
  811MOL0     H 9460   3.578   5.093  11.403 -1.2075 -0.2420  1.8682
  811MOL0     H 9461   3.582   4.853  11.592  1.6710 -0.7450 -0.6033
  811MOL0     H 9462   3.623   5.019  11.628 -0.1501 -1.3920 -1.0425
  811MOL0     H 9463   3.378   5.062  11.528  0.0565 -0.2140 -0.6908
  811MOL0     H 9464   3.421   5.058  11.701  0.0574  0.1678  0.0225
  811MOL0     H 9465   3.231   4.896  11.690 -1.0736 -4.1347 -1.2839
  811MOL0     H 9466   3.383   4.813  11.704  0.0709  1.0458  1.5887
  811MOL0     H 9467   4.200   4.944  11.446 -0.2280 -1.7653  1.6295
  811MOL0     H 9468   4.416   4.912  11.524  1.3466 -0.5244  0.0968
  811MOL0     H 9469   4.818   4.670  11.516  0.9512  0.6172  1.9086
  811MOL0     H 9470   5.029   4.626  11.611  0.3484 -0.2139 -0.0579
  811MOL0     H 9471   6.280   4.450  11.349  3.6823 -1.5104 -0.1075
  811MOL0     H 9472   6.504   4.532  11.361 -0.6839 -3.2815  0.6761
  811MOL0     H 9473   6.797   5.066  11.134 -0.0766 -0.8215 -2.0147
  811MOL0     H 9474   7.051   5.110  11.116 -1.1078  1.2184  1.3640
  811MOL0     H 9475   7.312   4.834  11.307 -0.6011 -1.8848 -0.1820
  811MOL0     H 9476   7.286   4.741  11.158 -1.6084  1.0296 -1.5216
  811MOL0     H 9477   7.448   4.873  11.028  1.1815 -1.2586 -0.8988
  811MOL0     H 9478   7.517   4.790  11.152 -0.7009  0.1119  0.0545
  811MOL0     H 9479   7.524   4.979  11.314  0.1408  2.0813  0.0885
  811MOL0     H 9480   7.450   5.090  11.198 -0.1192 -0.1284  2.2457
  811MOL0     H 9481   7.654   5.064  11.039 -0.2502 -0.5349 -0.7251
  811MOL0     H 9482   7.732   4.950  11.146  0.6246  0.1260 -1.9665
  811MOL0     H 9483   7.835   5.340  11.252  0.2459  1.2190 -2.6550
  811MOL0     H 9484   7.101   4.683  11.171  1.2495  0.4309 -0.7900
  811MOL0     H 9485   6.870   4.647  11.190 -0.5977  0.9989  1.5304
  812MOL0     O 9486  11.274  11.188  10.974 -0.0696 -0.4968 -0.1843
  812MOL0     C 9487  11.309  11.077  11.008 -0.6175 -0.0098  0.4080
  812MOL0     O 9488  11.228  10.958  11.039 -0.2658 -0.4943  0.4430
  812MOL0     C 9489  11.086  10.962  11.047  0.2061  0.6298  0.1284
  812MOL0     C 9490  11.006  11.058  10.987  1.1578  0.1006 -0.7196
  812MOL0     C 9491  10.864  11.053  10.995 -0.1802  0.3846  0.2389
  812MOL0     C 9492  10.796  10.950  11.069 -0.3870 -1.3012  0.0589
  812MOL0     O 9493  10.665  10.957  11.087  0.3482 -0.2820  0.2538
  812MOL0     C 9494  10.595  10.845  11.022 -0.2723  0.6026 -0.1172
  812MOL0     C 9495  10.451  10.894  10.996  0.2307  0.0374 -0.2232
  812MOL0     C 9496  10.366  10.781  10.936 -0.0804 -0.2801 -0.6275
  812MOL0     C 9497  10.230  10.839  10.901  0.2021  0.3581  0.7106
  812MOL0     C 9498  10.138  10.741  10.824  0.8166  0.0732  0.5820
  812MOL0     C 9499   9.999  10.807  10.828  0.4898  0.1269 -0.1824
  812MOL0     C 9500   9.904  10.739  10.719 -0.1381  0.1659 -0.1279
  812MOL0     C 9501   9.867  10.592  10.750  1.1139 -0.0322  0.7616
  812MOL0     N 9502   9.762  10.549  10.652  0.0432 -0.2737 -0.2382
  812MOL0     C 9503   9.788  10.442  10.567  1.1677  0.0650  0.1161
  812MOL0     C 9504   9.674  10.433  10.502 -0.3131  0.2040  0.4080
  812MOL0     C 9505   9.638  10.336  10.390 -0.5043 -0.2117  0.0772
  812MOL0     C 9506   9.707  10.383  10.263  0.1151 -0.6385 -0.4544
  812MOL0     C 9507   9.722  10.267  10.163 -0.2254  0.1483  0.3956
  812MOL0     C 9508   9.585  10.258  10.090  0.6446 -0.0646 -0.5894
  812MOL0     O 9509   9.585  10.136  10.019  0.7936  0.6156  0.5540
  812MOL0     C 9510   9.471  10.062  10.018  0.2287  0.5672  0.5729
  812MOL0     C 9511   9.476   9.920  10.054 -0.0985 -0.3919 -0.0731
  812MOL0     C 9512   9.361   9.843  10.063 -0.2999  0.7279 -0.9368
  812MOL0     C 9513   9.382   9.693  10.103  0.9523 -0.8474 -0.0873
  812MOL0     C 9514   9.235   9.905  10.044 -0.1085  0.5632 -0.9902
  812MOL0     C 9515   9.106   9.831  10.072  0.7148  0.5097 -0.4594
  812MOL0     O 9516   8.985   9.897  10.089  0.4448 -0.6502  0.2438
  812MOL0     C 9517   8.864   9.834  10.080 -0.6260 -0.6417 -0.6582
  812MOL0     C 9518   8.835   9.741   9.979 -0.2521  0.4664 -0.8425
  812MOL0     C 9519   8.709   9.679   9.982 -0.6475 -0.0347  0.4870
  812MOL0     C 9520   8.609   9.727  10.066 -0.8843  0.2147  0.1139
  812MOL0     O 9521   8.484   9.678  10.068  0.0906 -0.7285  0.1435
  812MOL0     C 9522   8.449   9.555   9.992 -0.2614 -0.0205 -0.8139
  812MOL0     C 9523   8.290   9.521   9.995 -0.5909  0.7450  0.2548
  812MOL0     C 9524   8.267   9.368   9.977 -0.4768  0.4315 -0.5910
  812MOL0     C 9525   8.127   9.330  10.003  0.0827 -0.3491  0.7342
  812MOL0     C 9526   8.093   9.190   9.951  0.4745  0.0611  0.2010
  812MOL0     C 9527   7.946   9.151   9.965  0.2116  0.3950 -0.2007
  812MOL0     C 9528   7.942   8.999   9.945  0.2381 -0.9441  1.0787
  812MOL0     C 9529   7.793   8.955   9.941 -0.1241 -0.5582 -0.1723
  812MOL0    Cl 9530   7.710   9.000   9.782  0.4739 -0.2359 -0.0173
  812MOL0     C 9531   8.633   9.828  10.163 -0.0874  0.1108  0.2420
  812MOL0     C 9532   8.765   9.884  10.163 -0.3243  0.8655 -0.3517
  812MOL0     O 9533   9.118   9.710  10.056  0.0036  0.2590  0.1321
  812MOL0     C 9534   9.226  10.042  10.008 -0.3461  0.6833  0.3866
  812MOL0     C 9535   9.345  10.117   9.986 -0.6483  0.5347  0.3030
  812MOL0     N 9536   9.586  10.539  10.536  0.1720 -0.2958 -0.3599
  812MOL0     N 9537   9.644  10.606  10.625 -0.1992  0.2945 -0.8740
  812MOL0     C 9538  10.878  10.860  11.135  0.6377  0.3572  0.5642
  812MOL0     C 9539  11.013  10.864  11.118 -0.4629 -0.4464  0.0350
  812MOL0     C 9540  11.451  11.076  11.024  1.0826  0.1595  1.4175
  812MOL0     C 9541  11.513  10.956  11.062  0.5426  0.7185  0.4897
  812MOL0     C 9542  11.652  10.942  11.068 -0.2505  0.5452  0.3429
  812MOL0     C 9543  11.738  11.058  11.056  0.0514  0.5212  0.0484
  812MOL0     O 9544  11.874  11.053  11.039 -0.5533  0.3235 -0.2375
  812MOL0     C 9545  11.946  10.932  11.029 -0.4185  0.7049  0.1477
  812MOL0     C 9546  12.093  10.964  11.040 -0.3785  0.1128  0.1470
  812MOL0     C 9547  12.174  10.848  10.993  0.1164  0.7345 -0.4439
  812MOL0     C 9548  12.321  10.868  11.010 -0.4797  0.4223 -0.1341
  812MOL0     C 9549  12.376  10.958  10.904 -0.1683  0.3099 -0.9337
  812MOL0     C 9550  12.412  11.030  10.811 -0.0592  0.1625  0.1602
  812MOL0     C 9551  11.670  11.183  11.020 -0.4294  0.9723  0.5098
  812MOL0     C 9552  11.531  11.196  11.006  0.2896  0.2989  0.3551
  812MOL0     H 9553  11.052  11.132  10.922  2.9156 -1.1793 -1.0188
  812MOL0     H 9554  10.806  11.128  10.942 -0.7368  1.4230  2.2111
  812MOL0     H 9555  10.652  10.796  10.942  2.7817 -0.6917  2.6423
  812MOL0     H 9556  10.575  10.769  11.098  2.5491 -1.8355 -1.6071
  812MOL0     H 9557  10.402  10.941  11.081 -0.3144  1.5333 -1.3294
  812MOL0     H 9558  10.461  10.966  10.915 -0.5288  2.2123  1.5230
  812MOL0     H 9559  10.415  10.750  10.844  0.3608 -1.9228  0.1210
  812MOL0     H 9560  10.359  10.703  11.013 -1.5683 -0.3591 -0.8046
  812MOL0     H 9561  10.179  10.864  10.995 -1.2714  1.4379 -0.3354
  812MOL0     H 9562  10.266  10.918  10.834  5.2130 -2.4329 -0.4428
  812MOL0     H 9563  10.170  10.725  10.720 -3.2327  2.8545 -1.3417
  812MOL0     H 9564  10.133  10.654  10.891 -0.9054 -0.4438 -0.1794
  812MOL0     H 9565   9.939  10.802  10.919  0.0226  1.5673 -0.3730
  812MOL0     H 9566  10.015  10.912  10.801  1.4133  0.6780  2.2644
  812MOL0     H 9567   9.817  10.802  10.701 -0.5644 -0.8423 -1.8065
  812MOL0     H 9568   9.959  10.747  10.625  0.9217 -2.2094  0.2246
  812MOL0     H 9569   9.826  10.588  10.852  2.0263 -0.1235  1.1368
  812MOL0     H 9570   9.950  10.522  10.740 -1.0347 -3.2767  3.2865
  812MOL0     H 9571   9.877  10.380  10.564  2.0879  1.1337  2.8456
  812MOL0     H 9572   9.680  10.241  10.425  3.5634  0.5211 -2.1300
  812MOL0     H 9573   9.532  10.330  10.366 -0.4254 -1.2095 -0.0785
  812MOL0     H 9574   9.810  10.410  10.290 -0.7203  1.5386  0.7988
  812MOL0     H 9575   9.665  10.475  10.221 -1.2060 -0.8778  0.3058
  812MOL0     H 9576   9.758  10.170  10.198  0.4376 -1.0223 -3.1263
  812MOL0     H 9577   9.789  10.297  10.082 -0.2929  1.0887  0.6678
  812MOL0     H 9578   9.582  10.341  10.018  2.6399  4.0355  3.5002
  812MOL0     H 9579   9.502  10.271  10.161  1.0922 -0.9279  0.1061
  812MOL0     H 9580   9.564   9.863  10.082 -0.9253 -2.0610 -0.7505
  812MOL0     H 9581   9.374   9.632  10.012  2.4891  0.4632 -1.1691
  812MOL0     H 9582   9.484   9.673  10.139  0.9594 -3.1091 -1.2117
  812MOL0     H 9583   9.308   9.665  10.178 -1.3673 -1.8871 -2.5830
  812MOL0     H 9584   8.919   9.705   9.921  2.4411  0.6411  2.6030
  812MOL0     H 9585   8.682   9.603   9.909 -1.1898  0.9028 -0.3215
  812MOL0     H 9586   8.477   9.566   9.887  0.0142  0.1224 -0.7252
  812MOL0     H 9587   8.512   9.483  10.044 -0.8210  1.2870  1.9038
  812MOL0     H 9588   8.253   9.552  10.094  0.4069  1.8366  0.3047
  812MOL0     H 9589   8.233   9.580   9.923 -0.0304  0.7769 -0.1693
  812MOL0     H 9590   8.329   9.297  10.032 -2.6416 -1.3249 -0.2567
  812MOL0     H 9591   8.296   9.360   9.872  2.8963  2.6355  0.0089
  812MOL0     H 9592   8.112   9.333  10.111 -1.1751  1.6259  0.5555
  812MOL0     H 9593   8.066   9.408   9.956  1.9237  0.9760  0.3975
  812MOL0     H 9594   8.156   9.116  10.001  0.2155 -0.3019 -0.0057
  812MOL0     H 9595   8.109   9.203   9.844 -3.1674 -0.5892 -0.5708
  812MOL0     H 9596   7.910   9.175  10.065  1.7453  2.9090 -0.1749
  812MOL0     H 9597   7.888   9.198   9.884 -0.4005  0.1995  0.1162
  812MOL0     H 9598   7.991   8.944  10.025 -0.1126 -1.4529  0.9471
  812MOL0     H 9599   7.994   8.971   9.853  2.7017  0.3665  1.9719
  812MOL0     H 9600   7.735   8.995  10.025 -0.1749 -0.4927 -0.2378
  812MOL0     H 9601   7.791   8.848   9.965 -0.6766 -0.1521  1.8293
  812MOL0     H 9602   8.558   9.858  10.236  0.1047 -0.9462  0.8953
  812MOL0     H 9603   8.789   9.969  10.225 -0.1831  0.7883 -0.3014
  812MOL0     H 9604   9.131  10.079   9.971 -0.2906  0.5711  0.1292
  812MOL0     H 9605   9.326  10.216   9.945 -2.9066  0.4438  0.9584
  812MOL0     H 9606  10.829  10.786  11.197 -2.3622 -0.2887 -2.3443
  812MOL0     H 9607  11.081  10.789  11.157 -0.2561  0.5219  1.6305
  812MOL0     H 9608  11.451  10.868  11.076  0.2160  0.5839 -1.5096
  812MOL0     H 9609  11.697  10.843  11.070 -1.3490 -0.0979 -2.5747
  812MOL0     H 9610  11.913  10.853  11.097  1.1127 -0.8155 -0.7974
  812MOL0     H 9611  11.933  10.892  10.928 -0.5084  0.8140  0.1157
  812MOL0     H 9612  12.117  10.987  11.144 -0.2992 -0.2396  0.2070
  812MOL0     H 9613  12.119  11.045  10.971 -0.4839 -1.8371 -2.3487
  812MOL0     H 9614  12.153  10.822  10.889 -0.6174 -0.0342 -0.1171
  812MOL0     H 9615  12.138  10.762  11.051  1.9190 -0.0040 -0.3345
  812MOL0     H 9616  12.372  10.772  11.004 -1.0815 -0.1080  2.1329
  812MOL0     H 9617  12.333  10.908  11.111  2.7513  1.5326 -0.8499
  812MOL0     H 9618  12.448  11.087  10.728 -1.7669  0.7625 -0.1951
  812MOL0     H 9619  11.737  11.263  10.991  2.8770 -2.0104 -0.7700
  812MOL0     H 9620  11.486  11.288  10.969  1.1955  1.0634  1.1085
  813MOL0     O 9621   4.302   3.919   4.423 -0.3521 -0.1876 -0.3972
  813MOL0     C 9622   4.272   3.802   4.439  0.1119  0.8468  0.1698
  813MOL0     O 9623   4.313   3.723   4.546 -0.6306 -0.1441 -0.4565
  813MOL0     C 9624   4.417   3.763   4.634  0.2265  0.6143 -0.7942
  813MOL0     C 9625   4.415   3.706   4.763  0.1601 -0.6726 -0.0505
  813MOL0     C 9626   4.523   3.725   4.851 -0.1318  0.6247  0.0919
  813MOL0     C 9627   4.635   3.792   4.809  0.2662  0.5217  0.2624
  813MOL0     O 9628   4.739   3.798   4.906 -0.3476  0.3369 -0.0676
  813MOL0     C 9629   4.880   3.821   4.861  1.4216 -0.0481  0.1498
  813MOL0     C 9630   4.965   3.802   4.989 -0.0002 -0.3602 -0.3339
  813MOL0     C 9631   5.099   3.884   4.961  0.1965 -0.7406 -0.1521
  813MOL0     C 9632   5.198   3.853   5.075 -0.2534  0.0549 -0.5007
  813MOL0     C 9633   5.330   3.916   5.019  0.2224 -0.3170 -0.3990
  813MOL0     C 9634   5.445   3.845   5.104  1.3085 -0.3735 -0.8509
  813MOL0     C 9635   5.582   3.914   5.077 -0.0314 -0.4182  0.0185
  813MOL0     C 9636   5.628   3.916   4.919 -0.2116 -1.0141 -0.7184
  813MOL0     N 9637   5.759   3.981   4.917 -0.5673 -0.0370  0.6060
  813MOL0     C 9638   5.799   4.104   4.973 -0.0854 -0.3968 -0.2231
  813MOL0     C 9639   5.931   4.091   4.995  0.1178  0.8421 -1.2274
  813MOL0     C 9640   5.995   4.202   5.081  0.7262  0.5822 -0.4021
  813MOL0     C 9641   6.072   4.294   4.973  0.3930 -0.0473  0.0089
  813MOL0     C 9642   5.987   4.414   4.921  0.3745 -0.5095  0.7983
  813MOL0     C 9643   5.960   4.535   5.013  0.1937 -0.1272 -0.9283
  813MOL0     O 9644   5.860   4.517   5.121  0.0471 -0.2563  0.5166
  813MOL0     C 9645   5.732   4.491   5.092  0.2324  0.4701  0.3317
  813MOL0     C 9646   5.655   4.455   5.203  0.5661  0.3671  0.1246
  813MOL0     C 9647   5.530   4.398   5.186  0.1140  0.3726 -0.9691
  813MOL0     C 9648   5.471   4.335   5.310  0.5466  0.0875  0.2245
  813MOL0     C 9649   5.465   4.406   5.058 -0.0354  0.1127 -0.5226
  813MOL0     C 9650   5.327   4.357   5.026  0.6929  1.0509 -0.2727
  813MOL0     O 9651   5.302   4.311   4.900  0.6250 -0.9673  0.9944
  813MOL0     C 9652   5.181   4.259   4.859 -0.4661  1.3646  0.8580
  813MOL0     C 9653   5.187   4.152   4.768 -0.5405  0.2661  0.0765
  813MOL0     C 9654   5.079   4.111   4.694  1.3436  0.5407  0.0774
  813MOL0     C 9655   4.958   4.168   4.721  0.1960 -0.2507  0.0556
  813MOL0     O 9656   4.843   4.132   4.657 -0.7168  0.3396  0.0020
  813MOL0     C 9657   4.833   4.204   4.536 -0.4622  0.0367 -0.4635
  813MOL0     C 9658   4.717   4.138   4.469  0.1561 -1.1045 -0.0307
  813MOL0     C 9659   4.588   4.185   4.539 -0.0506  0.3194 -0.1817
  813MOL0     C 9660   4.549   4.333   4.533 -0.4007  0.8670 -0.0670
  813MOL0     C 9661   4.496   4.375   4.393 -0.4242 -0.3881 -0.7069
  813MOL0     C 9662   4.438   4.516   4.390  0.2781 -0.6254 -0.3730
  813MOL0     C 9663   4.291   4.509   4.452  0.0420  0.4550 -0.0343
  813MOL0     C 9664   4.240   4.638   4.520 -0.1572 -0.3253 -0.2839
  813MOL0    Cl 9665   4.082   4.613   4.585  0.0573 -0.1091 -0.2096
  813MOL0     C 9666   4.941   4.244   4.833 -0.3117 -0.9705 -0.3209
  813MOL0     C 9667   5.055   4.301   4.901 -0.8067 -0.0832 -0.3278
  813MOL0     O 9668   5.246   4.361   5.116  0.2736  0.6378  0.3035
  813MOL0     C 9669   5.541   4.465   4.951 -0.3331  0.0654 -0.0514
  813MOL0     C 9670   5.671   4.505   4.967  0.1774  0.4815  0.6254
  813MOL0     N 9671   5.964   3.960   4.969 -0.8347 -1.0608  0.2471
  813MOL0     N 9672   5.874   3.899   4.897 -0.0314 -0.5578  0.4040
  813MOL0     C 9673   4.639   3.851   4.684 -0.2017 -0.0107  0.7093
  813MOL0     C 9674   4.533   3.832   4.595  0.9972 -0.5724  0.3243
  813MOL0     C 9675   4.184   3.744   4.337  0.9883 -0.9699  0.3349
  813MOL0     C 9676   4.166   3.808   4.211  0.0567 -0.4974 -0.5026
  813MOL0     C 9677   4.079   3.761   4.112 -0.1556 -0.0422 -0.2072
  813MOL0     C 9678   4.002   3.649   4.141  0.0680  0.1839 -0.6584
  813MOL0     O 9679   3.922   3.599   4.042  0.4239 -0.6085 -0.2575
  813MOL0     C 9680   3.866   3.467   4.045 -0.4449  0.2776  0.2286
  813MOL0     C 9681   3.736   3.478   3.960 -0.3220  0.9351 -0.0625
  813MOL0     C 9682   3.647   3.589   4.010 -0.3300  1.0985 -0.5829
  813MOL0     C 9683   3.503   3.543   4.006 -0.0071 -0.2038  0.2052
  813MOL0     C 9684   3.418   3.650   4.073  0.5849 -0.3752 -0.2631
  813MOL0     C 9685   3.337   3.720   4.134  0.8364  0.0506  0.9606
  813MOL0     C 9686   4.004   3.590   4.275  0.1543 -0.8968 -0.1365
  813MOL0     C 9687   4.091   3.640   4.368 -0.0408 -0.3836 -0.0640
  813MOL0     H 9688   4.334   3.638   4.785  0.4297 -0.5560  1.4272
  813MOL0     H 9689   4.506   3.679   4.948 -1.8033 -1.9520 -1.3116
  813MOL0     H 9690   4.906   3.755   4.777  1.0024  2.4035 -2.0610
  813MOL0     H 9691   4.888   3.928   4.839  0.6962  0.2681  1.3892
  813MOL0     H 9692   4.900   3.843   5.067  1.2594 -1.0277  1.1391
  813MOL0     H 9693   4.991   3.698   5.008  0.6584 -0.0321  0.6855
  813MOL0     H 9694   5.130   3.861   4.859 -1.0207  1.7756 -1.1801
  813MOL0     H 9695   5.081   3.991   4.973  3.5909  0.0260 -1.0841
  813MOL0     H 9696   5.157   3.885   5.171  0.0331  0.0418 -0.3710
  813MOL0     H 9697   5.199   3.744   5.075  1.2836  0.0387 -0.4845
  813MOL0     H 9698   5.354   3.884   4.917 -0.3771 -1.0178 -0.3269
  813MOL0     H 9699   5.323   4.024   5.033  2.0546  0.0682 -2.0848
  813MOL0     H 9700   5.418   3.835   5.209 -0.9442  0.0318 -1.3532
  813MOL0     H 9701   5.454   3.738   5.080  0.4341 -0.2223 -1.9352
  813MOL0     H 9702   5.569   4.017   5.110  0.5276  0.6925 -2.9521
  813MOL0     H 9703   5.669   3.882   5.135  1.5555  0.6734 -1.6808
  813MOL0     H 9704   5.560   3.980   4.862 -1.5738  0.0509  1.9066
  813MOL0     H 9705   5.632   3.813   4.883  2.1257 -1.5179  0.7753
  813MOL0     H 9706   5.739   4.195   4.978  1.6281  0.9550 -2.3999
  813MOL0     H 9707   5.927   4.271   5.131  1.9462  1.2962  0.3282
  813MOL0     H 9708   6.055   4.153   5.158 -2.1800 -0.4529  1.3620
  813MOL0     H 9709   6.104   4.232   4.889 -1.2483 -1.4480  0.3574
  813MOL0     H 9710   6.166   4.329   5.016 -0.3029 -0.2477  1.7873
  813MOL0     H 9711   5.897   4.372   4.874  0.8304 -2.6025  1.6455
  813MOL0     H 9712   6.049   4.458   4.843  4.0757  0.3738  3.9488
  813MOL0     H 9713   5.924   4.604   4.936  1.7005  0.1454 -1.4241
  813MOL0     H 9714   6.056   4.570   5.053  0.1696 -2.4054  1.3097
  813MOL0     H 9715   5.708   4.470   5.296 -2.9533 -0.3427  2.4456
  813MOL0     H 9716   5.542   4.261   5.348 -1.3608 -2.0994 -0.2526
  813MOL0     H 9717   5.457   4.403   5.394 -2.6955 -0.6420  0.4128
  813MOL0     H 9718   5.375   4.283   5.299 -0.0743  0.9997  1.1462
  813MOL0     H 9719   5.281   4.107   4.739 -1.1071 -2.1954  1.7343
  813MOL0     H 9720   5.069   4.031   4.622 -1.3291  0.0099  0.9125
  813MOL0     H 9721   4.821   4.312   4.547 -1.7404 -0.3180  2.7015
  813MOL0     H 9722   4.924   4.201   4.476 -0.9095  0.8739 -1.2166
  813MOL0     H 9723   4.709   4.174   4.366 -1.6144 -3.2888 -0.7551
  813MOL0     H 9724   4.731   4.030   4.474 -0.0776 -1.0569  3.0848
  813MOL0     H 9725   4.600   4.160   4.645 -0.5554 -1.1882 -0.4623
  813MOL0     H 9726   4.509   4.122   4.498 -0.4877  0.3307  0.6267
  813MOL0     H 9727   4.465   4.354   4.601 -2.7745 -1.2783 -2.1553
  813MOL0     H 9728   4.634   4.394   4.568  0.7759 -0.4735 -0.5016
  813MOL0     H 9729   4.431   4.296   4.355  1.1648 -1.8453 -0.5024
  813MOL0     H 9730   4.589   4.375   4.336 -0.1374  2.4959 -0.3810
  813MOL0     H 9731   4.502   4.583   4.447 -0.3643  1.0037 -1.5053
  813MOL0     H 9732   4.423   4.562   4.292 -1.2293  0.5311  0.3693
  813MOL0     H 9733   4.283   4.426   4.522  1.3651 -1.5597 -2.1568
  813MOL0     H 9734   4.228   4.486   4.366  3.2400  2.3009 -3.1316
  813MOL0     H 9735   4.250   4.729   4.460 -2.8955  0.4256  0.2697
  813MOL0     H 9736   4.310   4.662   4.600  1.3518  0.5728 -1.8033
  813MOL0     H 9737   4.846   4.282   4.868  0.5038  1.7648 -0.8277
  813MOL0     H 9738   5.041   4.380   4.974 -3.0534  0.6315 -1.4389
  813MOL0     H 9739   5.497   4.466   4.851 -1.4035  0.6617  0.4159
  813MOL0     H 9740   5.722   4.547   4.881 -0.0936  1.9676  1.1597
  813MOL0     H 9741   4.729   3.904   4.653 -0.2772  0.9748  2.0679
  813MOL0     H 9742   4.533   3.874   4.495 -0.9291 -2.3326 -0.5087
  813MOL0     H 9743   4.225   3.898   4.194 -0.0451 -0.4431 -0.5639
  813MOL0     H 9744   4.064   3.804   4.013  0.0601  1.5018  0.4031
  813MOL0     H 9745   3.929   3.390   4.002  0.3212  0.3498  1.1955
  813MOL0     H 9746   3.842   3.442   4.149  2.3333  2.1614  1.4454
  813MOL0     H 9747   3.682   3.383   3.955  2.0145 -0.4442 -4.0815
  813MOL0     H 9748   3.763   3.503   3.857 -2.6165  1.2075 -0.6622
  813MOL0     H 9749   3.667   3.682   3.954  0.5676  2.0810  1.2816
  813MOL0     H 9750   3.663   3.621   4.113  2.3230  1.5918 -1.0648
  813MOL0     H 9751   3.496   3.451   4.066 -1.1252  0.5785  1.3413
  813MOL0     H 9752   3.468   3.523   3.905 -0.6430 -0.5443  0.4814
  813MOL0     H 9753   3.282   3.790   4.195 -1.4984 -1.2115  0.4417
  813MOL0     H 9754   3.938   3.515   4.317 -0.6563 -0.1808 -0.0949
  813MOL0     H 9755   4.097   3.596   4.467 -0.2319  1.6755  0.9319
  814MOL0     O 9756   7.138   0.787   3.823 -0.9068  0.0761 -0.2144
  814MOL0     C 9757   7.173   0.760   3.937  1.0673 -0.1590 -0.1780
  814MOL0     O 9758   7.087   0.747   4.044  0.6259 -0.7397  0.4404
  814MOL0     C 9759   6.953   0.771   4.037  1.6938 -0.0358 -0.2253
  814MOL0     C 9760   6.889   0.778   4.158  0.3766 -0.6162  0.2240
  814MOL0     C 9761   6.750   0.794   4.162 -0.5542 -0.6232  0.0691
  814MOL0     C 9762   6.674   0.798   4.043  1.5622 -0.0595 -0.4888
  814MOL0     O 9763   6.541   0.820   4.041  0.0307  0.1888 -0.4777
  814MOL0     C 9764   6.471   0.764   4.154  0.1144 -0.1067  0.5343
  814MOL0     C 9765   6.324   0.772   4.124 -0.4781 -0.5218  0.8744
  814MOL0     C 9766   6.235   0.701   4.229 -0.1913 -0.4641  0.5469
  814MOL0     C 9767   6.082   0.708   4.190  0.6331  1.0274  0.0107
  814MOL0     C 9768   6.009   0.722   4.315  0.1072 -0.1005  0.3816
  814MOL0     C 9769   5.989   0.865   4.362  0.5152 -0.1689 -0.0164
  814MOL0     C 9770   5.932   0.963   4.261  0.8134  0.7236  0.1949
  814MOL0     C 9771   5.874   1.082   4.344  0.5152 -0.0371  0.7501
  814MOL0     N 9772   5.788   1.162   4.258 -0.1929  0.1981  0.2271
  814MOL0     C 9773   5.650   1.152   4.281  0.5463 -0.6948 -0.0324
  814MOL0     C 9774   5.594   1.253   4.205 -0.4008  0.5946  0.7038
  814MOL0     C 9775   5.450   1.299   4.213 -0.1008 -0.3221 -0.5649
  814MOL0     C 9776   5.413   1.375   4.342  0.4041  0.6030  0.3653
  814MOL0     C 9777   5.364   1.273   4.457  1.4009 -0.7165 -0.1383
  814MOL0     C 9778   5.215   1.234   4.436 -0.8926  0.7127 -1.2312
  814MOL0     O 9779   5.131   1.336   4.471  0.1850 -0.2178  0.2312
  814MOL0     C 9780   4.996   1.309   4.478 -0.3925  0.2736  0.4749
  814MOL0     C 9781   4.913   1.416   4.507  0.3726  0.4560  0.2535
  814MOL0     C 9782   4.772   1.401   4.511  0.3907  0.4589  0.4827
  814MOL0     C 9783   4.680   1.530   4.511  0.0248  0.2320 -0.0763
  814MOL0     C 9784   4.711   1.268   4.507 -0.5945  0.7134  0.0600
  814MOL0     C 9785   4.561   1.236   4.524 -0.3590  0.4968 -0.2407
  814MOL0     O 9786   4.530   1.099   4.513  0.4710  0.1942 -0.0449
  814MOL0     C 9787   4.393   1.056   4.506  0.1710 -0.5090  0.1851
  814MOL0     C 9788   4.356   0.944   4.569  0.0307 -0.5860 -0.3221
  814MOL0     C 9789   4.224   0.889   4.549  0.1222  0.0462 -0.7248
  814MOL0     C 9790   4.138   0.948   4.462  0.4246 -0.0696  0.2982
  814MOL0     O 9791   4.022   0.882   4.435  0.2723 -0.6220  0.4119
  814MOL0     C 9792   3.930   0.918   4.326 -0.7419  0.4764 -1.2873
  814MOL0     C 9793   3.954   0.844   4.195 -0.1038  0.3072 -0.2720
  814MOL0     C 9794   3.922   0.697   4.225  0.0428 -0.6222 -0.2252
  814MOL0     C 9795   3.895   0.622   4.094  0.1973 -0.2720  0.1551
  814MOL0     C 9796   3.762   0.629   4.029  0.1408  0.9278 -0.4989
  814MOL0     C 9797   3.644   0.607   4.120  0.8727  0.4943  0.0301
  814MOL0     C 9798   3.514   0.587   4.035 -0.1964  0.3359  0.8501
  814MOL0     C 9799   3.389   0.626   4.110  0.3362  0.1012 -1.2952
  814MOL0    Cl 9800   3.347   0.509   4.239 -0.0654  0.4640  0.2553
  814MOL0     C 9801   4.184   1.055   4.387 -0.0957  0.2552  0.4350
  814MOL0     C 9802   4.311   1.107   4.413  0.3438 -0.4067  1.0037
  814MOL0     O 9803   4.475   1.327   4.546 -0.1311  0.3291 -0.6719
  814MOL0     C 9804   4.803   1.166   4.488  0.7493  0.5003 -0.0538
  814MOL0     C 9805   4.940   1.182   4.460  0.7481  0.0234 -0.5328
  814MOL0     N 9806   5.697   1.320   4.142 -0.0448 -0.6945 -0.2700
  814MOL0     N 9807   5.812   1.259   4.172  0.5526  0.1827 -0.0399
  814MOL0     C 9808   6.731   0.778   3.919 -0.6244 -0.8252 -0.4221
  814MOL0     C 9809   6.874   0.771   3.921 -0.3723 -0.1371  0.6756
  814MOL0     C 9810   7.314   0.730   3.961  1.3128 -0.8386 -0.0746
  814MOL0     C 9811   7.406   0.727   3.860 -0.6682 -0.1453 -0.1996
  814MOL0     C 9812   7.548   0.706   3.879 -0.3650 -0.3237  0.0041
  814MOL0     C 9813   7.598   0.687   4.004  0.1365  0.4570 -0.4276
  814MOL0     O 9814   7.727   0.663   4.050  0.3772 -0.1797 -0.0168
  814MOL0     C 9815   7.839   0.714   3.970 -1.2863 -0.1260  0.3890
  814MOL0     C 9816   7.976   0.686   4.030 -0.3435  0.3092 -0.6964
  814MOL0     C 9817   7.995   0.532   4.042  0.4286 -0.0672 -1.1888
  814MOL0     C 9818   8.126   0.521   4.115 -0.3126  0.5485  0.1699
  814MOL0     C 9819   8.173   0.384   4.117 -0.1306  1.0168 -0.3697
  814MOL0     C 9820   8.191   0.266   4.117  0.2079  0.1841  0.1721
  814MOL0     C 9821   7.502   0.690   4.112 -1.1167 -0.0246  0.2166
  814MOL0     C 9822   7.370   0.720   4.090 -0.0029  0.8217  0.7881
  814MOL0     H 9823   6.949   0.768   4.248 -1.3488 -2.2678  1.2888
  814MOL0     H 9824   6.711   0.813   4.261  0.3108 -1.1280  0.5225
  814MOL0     H 9825   6.480   0.655   4.159  2.4023  0.1027  2.4276
  814MOL0     H 9826   6.491   0.815   4.248  0.0744  4.7136 -1.8014
  814MOL0     H 9827   6.300   0.879   4.119 -1.5834 -0.8085 -1.1313
  814MOL0     H 9828   6.287   0.738   4.026  0.5763 -0.2591  0.3660
  814MOL0     H 9829   6.265   0.596   4.228 -0.6022 -0.6004 -1.2648
  814MOL0     H 9830   6.258   0.730   4.332  1.2813  2.3131 -0.4471
  814MOL0     H 9831   6.071   0.790   4.119  0.6176  1.9121  1.0180
  814MOL0     H 9832   6.077   0.611   4.139  2.2691  1.3344 -0.8102
  814MOL0     H 9833   5.905   0.688   4.306 -0.3573  1.1807  0.7040
  814MOL0     H 9834   6.057   0.659   4.391 -2.2762 -0.2707  1.8384
  814MOL0     H 9835   5.918   0.846   4.443  3.6806 -3.5825  2.3369
  814MOL0     H 9836   6.088   0.896   4.397  1.2186 -3.4669  1.3439
  814MOL0     H 9837   6.014   1.008   4.203 -0.5560  2.3974 -0.5473
  814MOL0     H 9838   5.852   0.909   4.211  0.4115 -0.7941  2.3335
  814MOL0     H 9839   5.959   1.137   4.386 -0.3200  1.6814  0.2737
  814MOL0     H 9840   5.817   1.034   4.424 -1.1758 -0.7761 -0.8164
  814MOL0     H 9841   5.592   1.096   4.353 -0.0815  0.1732  0.1430
  814MOL0     H 9842   5.441   1.371   4.132 -1.9830  1.8675  1.4499
  814MOL0     H 9843   5.386   1.211   4.199  1.8567 -2.1385  1.0547
  814MOL0     H 9844   5.329   1.438   4.312  0.4916  0.0583 -1.1451
  814MOL0     H 9845   5.490   1.441   4.383 -1.1537  4.5606 -2.4353
  814MOL0     H 9846   5.370   1.336   4.547  1.6114  1.3673 -1.5447
  814MOL0     H 9847   5.427   1.184   4.469  1.3853 -0.7037  0.0490
  814MOL0     H 9848   5.196   1.143   4.494  1.0374 -1.0901 -3.2282
  814MOL0     H 9849   5.208   1.208   4.330  1.8692  1.2528 -1.6229
  814MOL0     H 9850   4.961   1.513   4.493  2.8146 -1.1163 -3.9814
  814MOL0     H 9851   4.743   1.617   4.491 -1.4447  0.6325 -3.9764
  814MOL0     H 9852   4.615   1.518   4.423  0.5818 -1.1748 -0.3196
  814MOL0     H 9853   4.620   1.550   4.600 -0.3610 -1.0836 -0.0158
  814MOL0     H 9854   4.435   0.882   4.611 -1.5318 -2.7529 -0.4402
  814MOL0     H 9855   4.202   0.803   4.611  0.5190  0.8139  0.5267
  814MOL0     H 9856   3.826   0.907   4.358 -1.6665  1.7290 -3.6776
  814MOL0     H 9857   3.934   1.025   4.306  0.5379  0.7686  0.2863
  814MOL0     H 9858   3.891   0.884   4.114 -1.4564 -1.7448 -0.3009
  814MOL0     H 9859   4.054   0.859   4.152 -1.3375  0.5183 -3.3538
  814MOL0     H 9860   3.844   0.705   4.302  0.4430  4.8476  0.0145
  814MOL0     H 9861   4.003   0.643   4.272 -0.0203 -0.0515  0.5586
  814MOL0     H 9862   3.976   0.631   4.021 -0.2142 -1.1232 -0.4252
  814MOL0     H 9863   3.900   0.518   4.126  0.8698 -0.3866 -0.3031
  814MOL0     H 9864   3.764   0.557   3.947  1.7007  0.6521 -0.2457
  814MOL0     H 9865   3.761   0.730   3.987  2.1078  1.2666  0.1618
  814MOL0     H 9866   3.650   0.520   4.186 -3.0229 -0.0676 -0.1628
  814MOL0     H 9867   3.626   0.693   4.186  0.3910 -1.2644  2.3132
  814MOL0     H 9868   3.511   0.487   3.990 -0.6146 -0.0675  1.7551
  814MOL0     H 9869   3.520   0.652   3.947  0.3121 -1.5364 -0.5589
  814MOL0     H 9870   3.304   0.642   4.043 -0.4717  1.7481  0.0659
  814MOL0     H 9871   3.405   0.725   4.153  1.5142  0.3683 -2.2995
  814MOL0     H 9872   4.133   1.097   4.301  0.2735 -0.9848 -0.4153
  814MOL0     H 9873   4.352   1.189   4.355 -0.3115 -0.8926 -0.1604
  814MOL0     H 9874   4.761   1.066   4.489 -0.0716  0.8364  0.9413
  814MOL0     H 9875   5.003   1.095   4.442 -1.1230 -1.2668 -1.1850
  814MOL0     H 9876   6.669   0.774   3.830  1.2038  0.7547 -1.8399
  814MOL0     H 9877   6.915   0.757   3.821  2.2054  0.7319  1.5193
  814MOL0     H 9878   7.381   0.738   3.755 -3.0154  0.4744  0.3590
  814MOL0     H 9879   7.609   0.705   3.790 -1.2209 -1.2231 -0.5927
  814MOL0     H 9880   7.839   0.659   3.876  0.3651 -0.2861  0.4610
  814MOL0     H 9881   7.827   0.820   3.944 -1.6490 -0.3218 -0.2469
  814MOL0     H 9882   7.974   0.733   4.129 -1.4650 -2.2405  0.5948
  814MOL0     H 9883   8.052   0.731   3.966  0.6151  0.4668  0.5277
  814MOL0     H 9884   7.985   0.478   3.948 -3.1261 -1.0226 -0.4351
  814MOL0     H 9885   7.917   0.504   4.113  2.3087  1.0974  1.5056
  814MOL0     H 9886   8.113   0.567   4.214 -3.2822 -0.4838  0.3595
  814MOL0     H 9887   8.207   0.567   4.058 -0.5278  1.2892  0.4515
  814MOL0     H 9888   8.196   0.161   4.099 -0.0155 -0.2227  2.2109
  814MOL0     H 9889   7.533   0.675   4.215  1.7808  1.6631 -0.3074
  814MOL0     H 9890   7.297   0.712   4.169 -1.6896  0.4249 -0.7368
  815MOL0     O 9891   8.938   3.656   7.721 -0.4664  0.1605 -0.5024
  815MOL0     C 9892   9.016   3.710   7.642  0.5051 -0.3812 -0.3573
  815MOL0     O 9893   8.988   3.751   7.508  0.0066 -0.1245 -0.7204
  815MOL0     C 9894   8.868   3.764   7.439  0.1004 -1.0252 -0.6164
  815MOL0     C 9895   8.876   3.815   7.312  0.0508 -0.2697  0.0632
  815MOL0     C 9896   8.754   3.811   7.236 -0.3270  0.8273 -0.2477
  815MOL0     C 9897   8.635   3.769   7.290  0.5869  0.0912  0.9317
  815MOL0     O 9898   8.525   3.779   7.206 -0.1481 -0.0775  0.3627
  815MOL0     C 9899   8.415   3.695   7.239  0.9313  0.0669 -0.5915
  815MOL0     C 9900   8.315   3.664   7.124 -0.6234  0.2352  0.1270
  815MOL0     C 9901   8.236   3.789   7.077 -0.1975  0.6989  0.4737
  815MOL0     C 9902   8.156   3.744   6.962 -0.6331  1.0774  0.2032
  815MOL0     C 9903   8.066   3.861   6.916 -0.5428  0.3138 -0.2505
  815MOL0     C 9904   7.953   3.819   6.821  0.3799  0.8237  0.0504
  815MOL0     C 9905   7.867   3.943   6.766  0.4119 -0.2137  0.1447
  815MOL0     C 9906   7.776   3.882   6.655 -0.2445  0.8753  0.5436
  815MOL0     N 9907   7.709   3.981   6.585  0.8663 -0.6681  0.7847
  815MOL0     C 9908   7.726   4.037   6.459 -0.8967  0.0122  0.3862
  815MOL0     C 9909   7.620   4.124   6.436  0.5347  0.2655 -0.4360
  815MOL0     C 9910   7.578   4.200   6.307  0.2682  0.0752  0.4910
  815MOL0     C 9911   7.465   4.132   6.236  0.8219 -0.7004 -0.8922
  815MOL0     C 9912   7.431   4.189   6.097  0.1411  0.4705  0.0749
  815MOL0     C 9913   7.422   4.341   6.085 -0.1056  0.1145  0.1494
  815MOL0     O 9914   7.303   4.390   6.140 -0.5000  0.5999 -0.4980
  815MOL0     C 9915   7.281   4.521   6.124 -0.8532 -0.6298 -0.7539
  815MOL0     C 9916   7.370   4.614   6.068  0.3334  0.2969  0.5302
  815MOL0     C 9917   7.339   4.757   6.076  0.2296  0.8221  0.5869
  815MOL0     C 9918   7.447   4.850   6.029 -0.1030  0.6655 -0.6225
  815MOL0     C 9919   7.217   4.797   6.129  0.2302 -0.5615  0.2476
  815MOL0     C 9920   7.180   4.942   6.132  0.7396  0.0257 -0.1690
  815MOL0     O 9921   7.047   4.964   6.110  1.5558 -0.5152  0.2209
  815MOL0     C 9922   6.965   5.060   6.171  0.9679  0.1503  0.1645
  815MOL0     C 9923   7.002   5.148   6.275 -0.7123 -0.0447 -1.1445
  815MOL0     C 9924   6.919   5.246   6.319 -0.2229  0.0817  0.7720
  815MOL0     C 9925   6.791   5.259   6.263 -0.4543 -0.1996  0.6099
  815MOL0     O 9926   6.700   5.345   6.316  0.0485  0.0644 -0.2876
  815MOL0     C 9927   6.612   5.295   6.418 -0.1468 -0.0441  0.6448
  815MOL0     C 9928   6.471   5.334   6.414  0.3688 -0.2625 -0.4508
  815MOL0     C 9929   6.453   5.486   6.399 -0.1314  0.8069 -0.2183
  815MOL0     C 9930   6.302   5.507   6.423  0.2297  0.2551  0.2209
  815MOL0     C 9931   6.258   5.652   6.402  0.6374  0.4056 -0.4000
  815MOL0     C 9932   6.108   5.668   6.432 -0.0243  0.3616 -0.3187
  815MOL0     C 9933   6.069   5.816   6.445 -0.3851  0.2198  0.9192
  815MOL0     C 9934   6.097   5.911   6.325 -0.4038 -0.1125  0.0254
  815MOL0    Cl 9935   6.088   6.078   6.391  0.2842 -0.0896  0.1401
  815MOL0     C 9936   6.749   5.167   6.162 -0.0702 -0.7555 -0.0892
  815MOL0     C 9937   6.831   5.073   6.127  0.2078 -0.2668  0.4663
  815MOL0     O 9938   7.264   5.030   6.158  0.5903  0.5439  0.0041
  815MOL0     C 9939   7.134   4.697   6.187  0.3871  0.4166  0.4694
  815MOL0     C 9940   7.163   4.568   6.186 -0.2026 -0.0823 -0.1972
  815MOL0     N 9941   7.557   4.144   6.555  0.2434 -0.0661  0.3563
  815MOL0     N 9942   7.607   4.049   6.638 -0.4278  0.2704  0.6684
  815MOL0     C 9943   8.636   3.727   7.426 -0.3951 -0.7507 -0.3041
  815MOL0     C 9944   8.753   3.713   7.493  0.3799  1.1834  0.6568
  815MOL0     C 9945   9.151   3.739   7.690  0.6939 -0.1323 -0.6387
  815MOL0     C 9946   9.264   3.736   7.607 -0.9760  0.1164  0.5967
  815MOL0     C 9947   9.391   3.768   7.650 -0.3293  0.7322 -1.3496
  815MOL0     C 9948   9.419   3.802   7.785  0.5940  0.0602 -0.6396
  815MOL0     O 9949   9.537   3.846   7.828  0.9502  0.1555 -0.1457
  815MOL0     C 9950   9.642   3.873   7.736  0.7289 -0.1490 -0.0571
  815MOL0     C 9951   9.773   3.898   7.810 -0.4374  0.6911  0.8976
  815MOL0     C 9952   9.768   4.031   7.883  1.4230 -0.0762  1.0129
  815MOL0     C 9953   9.882   4.032   7.986  0.3237  0.1072 -0.4412
  815MOL0     C 9954  10.017   4.041   7.929  0.2677  0.4425  0.5585
  815MOL0     C 9955  10.136   4.066   7.895  0.5956  0.8347 -0.5026
  815MOL0     C 9956   9.307   3.802   7.877 -0.0895  0.1140 -0.4433
  815MOL0     C 9957   9.173   3.778   7.827  0.7497 -0.3806  0.3458
  815MOL0     H 9958   8.964   3.856   7.264 -0.3956  3.1189  1.8185
  815MOL0     H 9959   8.750   3.836   7.130 -2.0353 -1.8953 -0.9619
  815MOL0     H 9960   8.451   3.603   7.286  4.4966  0.2458 -2.6034
  815MOL0     H 9961   8.359   3.741   7.322  2.8277  0.6620  0.4139
  815MOL0     H 9962   8.365   3.619   7.038  2.2014  2.1711  0.6128
  815MOL0     H 9963   8.250   3.587   7.167  0.9935 -0.3413  1.6400
  815MOL0     H 9964   8.176   3.829   7.158 -3.0378  4.8511 -3.2224
  815MOL0     H 9965   8.301   3.865   7.032  2.2494 -1.5632 -0.0763
  815MOL0     H 9966   8.222   3.718   6.878  0.2178 -1.0114  1.4331
  815MOL0     H 9967   8.096   3.654   6.983  1.3271 -0.3237  0.1252
  815MOL0     H 9968   8.025   3.904   7.007  0.2264 -2.8213  1.7459
  815MOL0     H 9969   8.132   3.930   6.862  0.7225 -2.3334 -2.3457
  815MOL0     H 9970   7.996   3.763   6.738 -0.2202  1.2348 -0.5546
  815MOL0     H 9971   7.886   3.746   6.867  2.2830 -0.5058  0.8528
  815MOL0     H 9972   7.814   3.986   6.852  0.5772  1.0098 -0.3475
  815MOL0     H 9973   7.923   4.028   6.727  1.6858  0.0953  2.4418
  815MOL0     H 9974   7.711   3.817   6.715  1.0741 -2.1923 -1.1027
  815MOL0     H 9975   7.829   3.810   6.592 -0.5570  0.8042  0.3563
  815MOL0     H 9976   7.796   3.995   6.387 -1.1879 -4.0555  2.2219
  815MOL0     H 9977   7.538   4.293   6.350 -2.1914 -2.3825  4.0741
  815MOL0     H 9978   7.663   4.225   6.243  0.8656  1.6788  1.8295
  815MOL0     H 9979   7.382   4.131   6.308  1.0254  0.3606 -0.6139
  815MOL0     H 9980   7.487   4.026   6.228 -0.3950 -1.4489  3.2679
  815MOL0     H 9981   7.350   4.137   6.045  0.4430  2.1045 -2.2052
  815MOL0     H 9982   7.518   4.161   6.038  2.2569  1.3651  2.6060
  815MOL0     H 9983   7.438   4.365   5.980  3.6646 -3.1959 -0.2760
  815MOL0     H 9984   7.510   4.384   6.132  2.7107 -3.2822 -1.5560
  815MOL0     H 9985   7.451   4.572   6.009 -3.0502  0.2619 -4.6614
  815MOL0     H 9986   7.397   4.929   5.973  1.0274  0.4442 -1.9960
  815MOL0     H 9987   7.493   4.897   6.116 -0.9041 -0.2105  0.2977
  815MOL0     H 9988   7.519   4.792   5.971 -2.1064 -1.0109 -1.5670
  815MOL0     H 9989   7.096   5.146   6.329 -3.0377 -1.5041  3.2990
  815MOL0     H 9990   6.941   5.299   6.411  0.8451 -2.0238  1.8002
  815MOL0     H 9991   6.612   5.186   6.416 -0.9260 -0.0441  0.5392
  815MOL0     H 9992   6.662   5.329   6.510  2.2734 -0.5664 -0.3982
  815MOL0     H 9993   6.419   5.295   6.327  0.0150  1.6132 -1.1398
  815MOL0     H 9994   6.426   5.295   6.506 -0.2855 -1.2980 -1.1997
  815MOL0     H 9995   6.484   5.521   6.300 -0.3750  0.9652 -0.2389
  815MOL0     H 9996   6.514   5.549   6.465 -0.6492  1.3768 -0.2731
  815MOL0     H 9997   6.244   5.439   6.360  1.7638  1.5295 -2.7550
  815MOL0     H 9998   6.282   5.476   6.526 -4.2061 -1.1822 -0.8609
  815MOL0     H 9999   6.288   5.687   6.303 -1.6459 -0.8599 -1.6009
  815MOL0     H10000   6.316   5.707   6.478  0.6116 -1.6273  1.1606
  815MOL0     H10001   6.048   5.625   6.351  0.7142 -2.4310  0.4903
  815MOL0     H10002   6.081   5.606   6.518 -1.5299 -1.3133 -1.9234
  815MOL0     H10003   6.118   5.847   6.537 -0.1520 -2.1746  1.6854
  815MOL0     H10004   5.961   5.821   6.462 -0.7218  1.5734 -1.3026
  815MOL0     H10005   6.015   5.887   6.257 -0.3163 -0.1264 -0.0756
  815MOL0     H10006   6.194   5.904   6.275 -0.5683 -2.3863 -0.0675
  815MOL0     H10007   6.652   5.187   6.118  0.2045  0.1966 -0.2934
  815MOL0     H10008   6.785   5.012   6.050  0.3928  0.7285 -0.4646
  815MOL0     H10009   7.041   4.725   6.237  0.0795 -0.2448  0.2767
  815MOL0     H10010   7.096   4.487   6.216  1.6927 -1.4438  0.5306
  815MOL0     H10011   8.544   3.702   7.479 -0.9121  0.5443 -0.5472
  815MOL0     H10012   8.743   3.668   7.592  0.4055 -0.1602  0.0755
  815MOL0     H10013   9.258   3.720   7.499 -0.3962  2.5862  0.1422
  815MOL0     H10014   9.471   3.775   7.578 -0.1018  1.7585 -1.0210
  815MOL0     H10015   9.667   3.784   7.678  2.3663 -0.9969  1.8132
  815MOL0     H10016   9.611   3.955   7.670 -1.2541 -1.3757 -0.7537
  815MOL0     H10017   9.858   3.899   7.741  1.2101  2.2332  2.8321
  815MOL0     H10018   9.795   3.818   7.882  0.2921  0.4681  0.4352
  815MOL0     H10019   9.671   4.041   7.931  0.9702  4.1665 -0.3306
  815MOL0     H10020   9.779   4.116   7.814 -0.9019 -0.3218  0.2631
  815MOL0     H10021   9.872   3.952   8.060  3.2869 -0.4011 -0.4737
  815MOL0     H10022   9.870   4.121   8.048 -0.5879 -1.0068  1.0441
  815MOL0     H10023  10.238   4.088   7.870  1.2950 -1.7330 -0.2125
  815MOL0     H10024   9.328   3.815   7.983 -1.1916  2.2693 -0.4275
  815MOL0     H10025   9.099   3.795   7.905  2.4411  3.3849  1.4035
  816MOL0     O10026   4.913   5.032   3.313  0.9133  0.7301  0.6293
  816MOL0     C10027   4.952   4.967   3.218  0.4979  0.9489  0.9583
  816MOL0     O10028   4.869   4.894   3.127 -0.3034 -0.3911 -0.1861
  816MOL0     C10029   4.737   4.861   3.157  0.0194 -0.2057  0.8562
  816MOL0     C10030   4.678   4.855   3.286  0.4989 -0.0006 -0.3310
  816MOL0     C10031   4.547   4.820   3.297  0.3546 -0.1266 -0.3289
  816MOL0     C10032   4.469   4.784   3.188 -0.0267  0.3803 -0.8153
  816MOL0     O10033   4.335   4.768   3.209 -0.0530  0.2926  0.8590
  816MOL0     C10034   4.259   4.716   3.099 -0.3107  0.4821 -0.5482
  816MOL0     C10035   4.113   4.676   3.150 -0.3725  0.0044  0.1023
  816MOL0     C10036   4.030   4.779   3.227  0.5893  0.7720 -0.5323
  816MOL0     C10037   3.890   4.733   3.266 -0.1561 -0.3070 -1.2372
  816MOL0     C10038   3.816   4.853   3.307  0.4126 -0.4221  0.5151
  816MOL0     C10039   3.666   4.828   3.336 -0.2113 -0.3807 -0.0031
  816MOL0     C10040   3.588   4.965   3.337 -0.2115  0.3297 -0.3427
  816MOL0     C10041   3.453   4.944   3.414 -2.0173  0.1182 -0.0195
  816MOL0     N10042   3.356   5.044   3.378  0.9117 -0.0021  0.3131
  816MOL0     C10043   3.280   5.036   3.262 -0.2763  0.5587 -0.1799
  816MOL0     C10044   3.223   5.158   3.254 -0.3322  0.6456  0.6948
  816MOL0     C10045   3.132   5.199   3.141  0.3783 -0.0895  0.7390
  816MOL0     C10046   2.998   5.125   3.136 -0.4888 -0.7624  0.2666
  816MOL0     C10047   2.899   5.156   3.243  0.2914 -0.4245  0.3523
  816MOL0     C10048   2.775   5.079   3.211 -0.2568  0.0206  0.2706
  816MOL0     O10049   2.715   5.112   3.083 -0.0102  0.4551 -0.0204
  816MOL0     C10050   2.583   5.072   3.068 -0.8348  0.3954 -0.2513
  816MOL0     C10051   2.517   4.963   3.138 -0.0890 -0.7238 -0.5151
  816MOL0     C10052   2.382   4.931   3.112  0.5120  0.3269  0.3669
  816MOL0     C10053   2.336   4.808   3.190  0.4025 -0.0907 -0.1370
  816MOL0     C10054   2.311   4.991   3.009  0.8234 -1.0731  0.2925
  816MOL0     C10055   2.172   4.949   2.955  0.1804  0.2149  0.1419
  816MOL0     O10056   2.083   4.874   3.027 -0.1606 -0.2468  0.2493
  816MOL0     C10057   1.969   4.851   2.975  0.6808 -0.2251  0.9920
  816MOL0     C10058   1.863   4.926   3.006  0.0296  0.3908  0.5706
  816MOL0     C10059   1.738   4.897   2.940  0.2236 -0.3760  0.9811
  816MOL0     C10060   1.729   4.802   2.834 -0.9753  0.6919 -0.4945
  816MOL0     O10061   1.615   4.771   2.764  0.3178 -0.1081  0.9586
  816MOL0     C10062   1.504   4.854   2.774  0.1924 -0.1806  0.5603
  816MOL0     C10063   1.414   4.817   2.900 -0.0591 -0.5165  0.2220
  816MOL0     C10064   1.308   4.934   2.911  0.3962 -0.5576 -0.6416
  816MOL0     C10065   1.223   4.900   3.027  0.0520  0.5125 -0.6485
  816MOL0     C10066   1.138   5.022   3.062 -0.0143 -0.8095 -0.3263
  816MOL0     C10067   0.985   5.007   3.072  0.4174  0.5699 -0.3023
  816MOL0     C10068   0.922   4.992   2.940  0.4260 -0.5152 -1.2524
  816MOL0     C10069   0.777   4.945   2.953 -0.2636  0.1601 -0.2489
  816MOL0    Cl10070   0.767   4.771   2.980 -0.2850 -0.3235 -0.1097
  816MOL0     C10071   1.833   4.720   2.815  0.7226 -0.4735  0.4070
  816MOL0     C10072   1.958   4.748   2.880  0.7543 -0.1940  0.2129
  816MOL0     O10073   2.163   4.976   2.830  0.8602 -0.1995  0.1715
  816MOL0     C10074   2.379   5.090   2.936 -0.3184  0.7833 -0.5087
  816MOL0     C10075   2.508   5.138   2.973  0.6309  0.2240  0.6283
  816MOL0     N10076   3.273   5.234   3.358  0.8546 -0.7393 -0.8143
  816MOL0     N10077   3.351   5.170   3.436 -0.6338  0.0045 -0.3633
  816MOL0     C10078   4.526   4.814   3.065 -0.8918 -0.4214  0.5760
  816MOL0     C10079   4.658   4.846   3.048 -0.0698 -0.3895  0.1707
  816MOL0     C10080   5.093   4.985   3.169  0.9858  0.9985 -0.1405
  816MOL0     C10081   5.121   4.978   3.032  0.3144  0.0105 -0.6447
  816MOL0     C10082   5.253   4.987   2.987  0.5021  0.8274 -0.5318
  816MOL0     C10083   5.353   5.014   3.075  0.8662 -0.1782 -0.6955
  816MOL0     O10084   5.474   5.021   3.012 -0.0233  0.6933 -0.4610
  816MOL0     C10085   5.594   4.971   3.076  0.3502  0.5514  0.3304
  816MOL0     C10086   5.604   4.823   3.050  0.5880  0.1286 -0.3025
  816MOL0     C10087   5.513   4.737   3.137 -0.0952  0.7165  0.3008
  816MOL0     C10088   5.559   4.588   3.125 -0.6894 -0.5382  0.2069
  816MOL0     C10089   5.492   4.510   3.233 -0.1738 -0.0951  0.6264
  816MOL0     C10090   5.427   4.464   3.327 -0.1467 -1.2878 -0.2541
  816MOL0     C10091   5.333   5.035   3.210 -0.7272  0.7344 -0.5917
  816MOL0     C10092   5.198   5.030   3.252 -0.0177 -0.7338  0.3393
  816MOL0     H10093   4.736   4.875   3.376 -0.5217  3.2803 -0.2714
  816MOL0     H10094   4.491   4.813   3.389  0.6778  0.0052 -0.1218
  816MOL0     H10095   4.261   4.785   3.015 -0.0068 -2.0423 -2.7503
  816MOL0     H10096   4.306   4.621   3.072 -0.6535  0.4687 -1.0967
  816MOL0     H10097   4.054   4.643   3.064  0.5382 -0.5794 -0.3114
  816MOL0     H10098   4.143   4.592   3.214 -1.0535 -0.4801 -0.1967
  816MOL0     H10099   4.085   4.802   3.319 -1.4289 -1.1318  1.2403
  816MOL0     H10100   4.031   4.871   3.168 -1.3211  1.0841 -0.1157
  816MOL0     H10101   3.853   4.696   3.170  0.8912 -0.3027 -1.6527
  816MOL0     H10102   3.877   4.652   3.338 -1.8940  1.9919  1.2179
  816MOL0     H10103   3.860   4.901   3.395 -1.5273 -1.3203  2.0726
  816MOL0     H10104   3.814   4.916   3.218 -0.0953 -0.8520  0.2139
  816MOL0     H10105   3.627   4.766   3.255  0.6256 -0.1605 -0.5851
  816MOL0     H10106   3.650   4.787   3.436 -4.3891  0.7939  0.0354
  816MOL0     H10107   3.654   5.043   3.377 -0.2712  0.9638 -1.4441
  816MOL0     H10108   3.555   4.986   3.235 -1.8567  2.1104  0.4912
  816MOL0     H10109   3.487   4.966   3.515 -1.6144  1.6685 -0.4480
  816MOL0     H10110   3.411   4.848   3.385 -1.9119  0.7099 -2.3742
  816MOL0     H10111   3.264   4.950   3.198 -0.5936 -0.7748  1.6126
  816MOL0     H10112   3.106   5.305   3.149  0.3549  0.0176 -0.4407
  816MOL0     H10113   3.192   5.179   3.051  0.5292  0.7960  0.6330
  816MOL0     H10114   3.022   5.019   3.145 -0.2699 -0.9458 -1.9677
  816MOL0     H10115   2.947   5.134   3.039 -1.5749 -3.7704  0.4668
  816MOL0     H10116   2.886   5.265   3.244  1.0787 -0.2984 -0.5712
  816MOL0     H10117   2.938   5.132   3.342 -1.5115 -1.7861  0.7805
  816MOL0     H10118   2.705   5.084   3.296  0.2619  2.3826  0.6414
  816MOL0     H10119   2.798   4.973   3.206 -3.2141 -0.6695 -0.4338
  816MOL0     H10120   2.575   4.902   3.207 -0.7933 -0.1489  0.6231
  816MOL0     H10121   2.409   4.781   3.267 -0.3101 -1.1382  0.1925
  816MOL0     H10122   2.236   4.835   3.226  1.2028  1.9241  0.7162
  816MOL0     H10123   2.324   4.728   3.116  0.3957  0.1299 -0.3757
  816MOL0     H10124   1.859   5.014   3.070 -4.1676 -0.3165  1.6074
  816MOL0     H10125   1.655   4.962   2.965  0.0142 -0.6887  1.0889
  816MOL0     H10126   1.547   4.954   2.779  1.5652 -0.7322  0.3019
  816MOL0     H10127   1.432   4.848   2.692  1.5006 -4.0765 -0.5274
  816MOL0     H10128   1.366   4.725   2.865  0.6095 -0.3657 -1.1515
  816MOL0     H10129   1.479   4.805   2.987  2.2381 -2.6862 -1.6574
  816MOL0     H10130   1.253   4.936   2.817  0.2361  1.6897 -0.5570
  816MOL0     H10131   1.354   5.033   2.915 -0.1185 -0.3385  0.0367
  816MOL0     H10132   1.151   4.821   3.003 -0.7660  0.9639  0.2401
  816MOL0     H10133   1.286   4.882   3.115 -2.5442  1.5875  1.5976
  816MOL0     H10134   1.157   5.102   2.990 -1.4605 -0.6488 -0.5684
  816MOL0     H10135   1.166   5.063   3.160  1.5460  1.1154 -1.5154
  816MOL0     H10136   0.944   4.918   3.120 -0.8592  0.4946 -1.4847
  816MOL0     H10137   0.940   5.092   3.124  1.5112  0.6687  0.5251
  816MOL0     H10138   0.968   4.928   2.864  0.3741 -1.2083 -0.7004
  816MOL0     H10139   0.927   5.097   2.907  2.1375  0.3676  1.4799
  816MOL0     H10140   0.728   4.959   2.856  0.0440 -0.5181 -0.5146
  816MOL0     H10141   0.727   4.996   3.035  3.1138  0.9561  1.4986
  816MOL0     H10142   1.837   4.647   2.735 -3.7764 -0.9715  0.4028
  816MOL0     H10143   2.047   4.700   2.841 -0.5208 -1.6068 -1.0683
  816MOL0     H10144   2.329   5.143   2.855 -1.7627  1.7676  0.9703
  816MOL0     H10145   2.536   5.229   2.922 -1.2259  0.0434 -0.8589
  816MOL0     H10146   4.473   4.790   2.974 -2.3749 -1.0981  1.5725
  816MOL0     H10147   4.710   4.854   2.953  5.0934  0.2535  2.6536
  816MOL0     H10148   5.057   4.955   2.947  0.0600 -0.0690 -0.4337
  816MOL0     H10149   5.294   4.959   2.890  0.1694  2.2943 -1.1168
  816MOL0     H10150   5.682   5.022   3.035  3.4183 -3.3908  1.3409
  816MOL0     H10151   5.605   4.989   3.183  0.3117 -2.6521  0.9563
  816MOL0     H10152   5.709   4.795   3.046  0.8558  0.9521  0.4213
  816MOL0     H10153   5.564   4.808   2.950 -0.3523  0.2590  0.0355
  816MOL0     H10154   5.407   4.755   3.121 -0.4216  0.2084  1.7475
  816MOL0     H10155   5.537   4.756   3.242 -1.7793 -1.5580  1.1812
  816MOL0     H10156   5.667   4.579   3.140 -0.7925  0.1229  1.4981
  816MOL0     H10157   5.543   4.538   3.029  3.2996 -1.1321 -0.3125
  816MOL0     H10158   5.368   4.440   3.413  0.7461  1.3720  1.2011
  816MOL0     H10159   5.413   5.070   3.274 -0.0872 -3.5136  1.3159
  816MOL0     H10160   5.185   5.051   3.357 -1.6952 -0.6446  0.1390
  817MOL0     O10161   7.173   7.777   9.789  0.6769 -0.0111 -0.2130
  817MOL0     C10162   7.069   7.800   9.853 -0.1464  0.8805  0.7736
  817MOL0     O10163   6.941   7.770   9.806 -0.7935 -0.4512  0.0560
  817MOL0     C10164   6.927   7.750   9.669 -0.0402  0.1549  0.4634
  817MOL0     C10165   6.984   7.645   9.588  0.8105 -0.8714 -0.3990
  817MOL0     C10166   6.956   7.638   9.454 -0.2243 -0.3371  0.4074
  817MOL0     C10167   6.868   7.729   9.395  0.2195  0.9280 -0.2281
  817MOL0     O10168   6.837   7.712   9.261  0.2557 -0.6047  0.9683
  817MOL0     C10169   6.749   7.601   9.231  0.7589 -0.3946  0.3001
  817MOL0     C10170   6.616   7.670   9.190  0.4695 -0.5781 -0.6261
  817MOL0     C10171   6.541   7.570   9.105 -0.5788 -0.4708  0.0623
  817MOL0     C10172   6.422   7.515   9.181  1.2487 -0.5761  0.7459
  817MOL0     C10173   6.332   7.423   9.092 -1.2515 -0.3950 -0.0408
  817MOL0     C10174   6.219   7.361   9.192 -0.6109 -0.6297  0.0661
  817MOL0     C10175   6.119   7.273   9.115  1.2554 -0.7330  0.4462
  817MOL0     C10176   6.025   7.193   9.207  0.1717 -0.7452 -0.4871
  817MOL0     N10177   5.977   7.264   9.318 -0.1297 -0.6629 -0.6483
  817MOL0     C10178   5.870   7.352   9.317 -0.4510  0.8620  0.5321
  817MOL0     C10179   5.854   7.381   9.448  0.7877 -0.5990  0.6356
  817MOL0     C10180   5.746   7.474   9.505 -0.3873 -0.4263  0.0440
  817MOL0     C10181   5.610   7.408   9.488  0.0139 -0.1735  0.0051
  817MOL0     C10182   5.489   7.505   9.485 -0.1310 -0.4505 -0.3223
  817MOL0     C10183   5.435   7.526   9.630 -0.6860  0.0177 -0.3009
  817MOL0     O10184   5.341   7.634   9.638  0.1045 -0.3595 -0.6517
  817MOL0     C10185   5.211   7.614   9.592  0.4388  0.3240  0.0134
  817MOL0     C10186   5.140   7.491   9.592 -0.1037 -0.4156 -0.1330
  817MOL0     C10187   5.014   7.479   9.527 -1.0206  0.6699 -0.4901
  817MOL0     C10188   4.946   7.348   9.518 -0.2800 -0.3044 -0.5935
  817MOL0     C10189   4.950   7.595   9.479 -0.2078 -0.4158 -0.3703
  817MOL0     C10190   4.815   7.592   9.414 -0.4607  0.3675 -0.9031
  817MOL0     O10191   4.785   7.512   9.305 -0.3191  0.2775 -0.9191
  817MOL0     C10192   4.650   7.497   9.284  0.1184 -0.7794 -0.7959
  817MOL0     C10193   4.599   7.371   9.289  0.7756  0.6513 -0.4081
  817MOL0     C10194   4.467   7.350   9.248 -0.3793  0.4730  0.1279
  817MOL0     C10195   4.374   7.442   9.220 -1.1423 -0.8210 -0.3805
  817MOL0     O10196   4.252   7.407   9.189 -0.3705  0.3839 -0.1089
  817MOL0     C10197   4.167   7.514   9.142  0.2171  0.3077  1.2672
  817MOL0     C10198   4.028   7.471   9.129  0.2471 -0.6365 -0.4518
  817MOL0     C10199   4.011   7.362   9.022  0.8686  0.7224  0.3795
  817MOL0     C10200   3.869   7.314   9.023 -0.0783 -0.4113  0.7048
  817MOL0     C10201   3.814   7.214   8.923  0.5727 -0.4076 -0.4612
  817MOL0     C10202   3.792   7.266   8.779 -0.4494  0.3391 -0.7518
  817MOL0     C10203   3.741   7.144   8.700 -0.0228  0.6002  0.4667
  817MOL0     C10204   3.672   7.200   8.572  1.1963  0.3477  0.5047
  817MOL0    Cl10205   3.784   7.290   8.473  0.1770 -0.0503  0.0262
  817MOL0     C10206   4.431   7.573   9.213  0.3072  0.6269  0.4738
  817MOL0     C10207   4.562   7.604   9.257  0.3554 -0.2105  0.7307
  817MOL0     O10208   4.746   7.681   9.462 -0.4744  0.3322 -0.2085
  817MOL0     C10209   5.018   7.718   9.482  0.3494 -0.2011 -0.2887
  817MOL0     C10210   5.147   7.722   9.539  0.0213 -0.1651 -0.2659
  817MOL0     N10211   5.944   7.314   9.522  0.0198  1.2321  0.1707
  817MOL0     N10212   6.008   7.239   9.451  0.2018 -0.4247  0.3838
  817MOL0     C10213   6.821   7.834   9.471 -0.1766 -0.3902 -0.7845
  817MOL0     C10214   6.852   7.847   9.606  0.2120 -0.5177 -0.6139
  817MOL0     C10215   7.076   7.850   9.991  0.0002 -0.1267 -0.6002
  817MOL0     C10216   6.964   7.849  10.077 -0.8145 -0.1469  0.7287
  817MOL0     C10217   6.979   7.905  10.206 -0.1653  0.5698  0.0611
  817MOL0     C10218   7.108   7.941  10.250 -0.0326  0.2713 -0.4815
  817MOL0     O10219   7.141   7.981  10.380  0.5223 -0.3401 -0.0510
  817MOL0     C10220   7.101   8.115  10.422 -0.5529  0.4694  0.2200
  817MOL0     C10221   7.209   8.181  10.513 -1.0250 -0.9159  0.2649
  817MOL0     C10222   7.249   8.076  10.620  0.2213  1.2988  0.6722
  817MOL0     C10223   7.343   8.125  10.728  0.1053 -0.4737 -0.0985
  817MOL0     C10224   7.326   8.272  10.771 -0.7533  0.7072 -0.0378
  817MOL0     C10225   7.324   8.383  10.817 -0.7895  0.4885 -0.3801
  817MOL0     C10226   7.216   7.952  10.155  0.5995 -1.1314 -0.2971
  817MOL0     C10227   7.199   7.903  10.026  0.6869 -0.1655 -0.2079
  817MOL0     H10228   7.055   7.577   9.634  0.4465  0.2126  1.9351
  817MOL0     H10229   6.991   7.548   9.405  0.3652 -0.1110  0.4095
  817MOL0     H10230   6.801   7.539   9.156 -0.8942 -2.4930  0.7938
  817MOL0     H10231   6.739   7.532   9.315 -0.2721 -2.7240 -1.6122
  817MOL0     H10232   6.562   7.699   9.281  0.2894 -2.2729 -0.1719
  817MOL0     H10233   6.626   7.764   9.135 -2.0664 -0.1332 -0.4472
  817MOL0     H10234   6.512   7.614   9.009  2.0842  1.3698 -0.0105
  817MOL0     H10235   6.616   7.496   9.076  0.1997  0.8017 -1.2910
  817MOL0     H10236   6.452   7.454   9.266  1.7762 -2.5130 -0.7396
  817MOL0     H10237   6.359   7.600   9.209 -1.5140 -1.5532 -1.8655
  817MOL0     H10238   6.281   7.482   9.016 -2.9952 -2.4270 -0.5589
  817MOL0     H10239   6.400   7.351   9.045  0.6792  0.1827  1.7131
  817MOL0     H10240   6.265   7.295   9.266  1.8164 -1.7260 -2.2651
  817MOL0     H10241   6.161   7.437   9.246 -0.2655 -2.6640  3.6307
  817MOL0     H10242   6.056   7.341   9.056 -1.0703 -2.0192  1.3150
  817MOL0     H10243   6.166   7.205   9.044  0.5012 -0.4729 -0.3363
  817MOL0     H10244   6.089   7.111   9.242 -0.9156 -0.1871  3.3337
  817MOL0     H10245   5.936   7.160   9.153  0.2897  0.4905 -1.4860
  817MOL0     H10246   5.829   7.393   9.226  0.2753  0.9120  0.2142
  817MOL0     H10247   5.767   7.497   9.609 -1.6930 -2.5671  0.8550
  817MOL0     H10248   5.741   7.563   9.441  3.6950 -1.0371 -1.4608
  817MOL0     H10249   5.598   7.327   9.560 -1.9796  0.9637  1.0421
  817MOL0     H10250   5.597   7.369   9.387  1.6047 -1.3866  0.2347
  817MOL0     H10251   5.405   7.461   9.430 -0.8975  1.4099 -0.6987
  817MOL0     H10252   5.517   7.597   9.433  3.6287 -0.1684  1.9002
  817MOL0     H10253   5.516   7.573   9.685 -1.0568  1.3031 -0.8262
  817MOL0     H10254   5.398   7.433   9.675  3.2437 -1.4784  0.2319
  817MOL0     H10255   5.188   7.403   9.634  1.2375  0.1527 -0.3987
  817MOL0     H10256   4.994   7.272   9.580 -0.1916 -1.0166 -1.5090
  817MOL0     H10257   4.846   7.352   9.561 -0.1284  1.6127 -0.3643
  817MOL0     H10258   4.936   7.316   9.413 -0.1497  1.5197 -1.1871
  817MOL0     H10259   4.671   7.292   9.308 -1.2805 -1.8220 -2.2727
  817MOL0     H10260   4.420   7.253   9.236 -1.7565  1.2012 -0.5878
  817MOL0     H10261   4.182   7.600   9.208  1.0811  0.8642  0.3851
  817MOL0     H10262   4.211   7.540   9.045  2.7397 -0.4492  2.1170
  817MOL0     H10263   4.002   7.441   9.231  2.9598  2.2897  1.2875
  817MOL0     H10264   3.962   7.556   9.112 -1.3789 -1.6683  0.3669
  817MOL0     H10265   4.075   7.275   9.038  0.5616 -0.0281 -2.1341
  817MOL0     H10266   4.029   7.408   8.925 -1.2194 -2.8448 -1.9172
  817MOL0     H10267   3.839   7.284   9.124 -0.0850  2.1676  1.5446
  817MOL0     H10268   3.801   7.399   9.010  0.1626 -0.0459  1.7051
  817MOL0     H10269   3.722   7.166   8.955  1.5491 -1.2165  1.2772
  817MOL0     H10270   3.886   7.131   8.919  3.1551  1.5891  1.1186
  817MOL0     H10271   3.716   7.344   8.774  1.5184  2.4788  0.9436
  817MOL0     H10272   3.885   7.303   8.737 -0.0160 -2.9339 -3.0525
  817MOL0     H10273   3.658   7.091   8.749 -0.8855  2.2130  0.8486
  817MOL0     H10274   3.829   7.083   8.680 -1.4618 -1.4632  0.0932
  817MOL0     H10275   3.586   7.263   8.593  2.2624  2.9872 -2.3305
  817MOL0     H10276   3.636   7.120   8.506  0.4505 -0.1130  1.4506
  817MOL0     H10277   4.374   7.661   9.183  2.5947  1.4599 -1.8496
  817MOL0     H10278   4.593   7.707   9.256 -0.2552 -0.0216  0.6679
  817MOL0     H10279   4.966   7.801   9.437 -0.6259 -0.4932  0.2649
  817MOL0     H10280   5.191   7.821   9.542  0.8239 -0.5222 -0.0316
  817MOL0     H10281   6.751   7.903   9.425  2.0319  3.0364  0.6371
  817MOL0     H10282   6.827   7.931   9.669  0.0101 -1.1311  0.1483
  817MOL0     H10283   6.871   7.802  10.046 -1.5979  1.7838 -0.0190
  817MOL0     H10284   6.896   7.892  10.274  0.8712 -1.4626  1.0369
  817MOL0     H10285   7.080   8.177  10.334 -0.8017  0.3065  0.1634
  817MOL0     H10286   7.010   8.097  10.480  0.1478  2.0966  1.9172
  817MOL0     H10287   7.158   8.269  10.553 -0.5969 -0.4374 -0.2354
  817MOL0     H10288   7.291   8.216  10.450 -0.6663 -2.0264  0.0877
  817MOL0     H10289   7.302   7.987  10.584  0.6695  1.2286  1.4712
  817MOL0     H10290   7.154   8.050  10.667 -0.0798  0.4140 -0.3897
  817MOL0     H10291   7.449   8.114  10.704 -0.4017 -0.6709 -2.5812
  817MOL0     H10292   7.321   8.062  10.815 -0.1171 -0.8399 -0.4157
  817MOL0     H10293   7.337   8.482  10.856  1.9928  0.2744 -0.5441
  817MOL0     H10294   7.314   7.985  10.187 -0.6513  0.6261  1.9769
  817MOL0     H10295   7.283   7.908   9.958 -0.0828 -0.4642 -1.2043
  818MOL0     O10296   4.270  10.102   3.437 -0.5395 -0.2167 -0.3874
  818MOL0     C10297   4.263  10.015   3.531  0.9558  0.1538 -0.1585
  818MOL0     O10298   4.157   9.989   3.605  0.5466 -0.2955 -0.5074
  818MOL0     C10299   4.036  10.041   3.569 -0.3286  0.5426 -0.1046
  818MOL0     C10300   3.958  10.102   3.668  0.3825  0.0645  0.5657
  818MOL0     C10301   3.836  10.156   3.631 -0.0051 -0.3067  0.4486
  818MOL0     C10302   3.777  10.130   3.508  0.1932  0.5504  0.9159
  818MOL0     O10303   3.656  10.177   3.470  0.6494  0.1955 -0.4432
  818MOL0     C10304   3.608  10.301   3.536 -0.2106  0.6902  0.1663
  818MOL0     C10305   3.471  10.318   3.483 -1.0811  0.2842 -0.3819
  818MOL0     C10306   3.374  10.405   3.563  0.2232  0.6732 -0.5382
  818MOL0     C10307   3.265  10.440   3.465  0.4731 -0.3086  0.1296
  818MOL0     C10308   3.146  10.500   3.530  0.1348  0.2912 -0.2829
  818MOL0     C10309   3.041  10.559   3.441 -0.3111  0.3510  0.2690
  818MOL0     C10310   2.906  10.586   3.507 -0.1539 -0.3506  0.0574
  818MOL0     C10311   2.805  10.658   3.420 -0.4342 -0.2733 -0.0404
  818MOL0     N10312   2.739  10.772   3.483 -0.7653 -0.6723 -0.0431
  818MOL0     C10313   2.604  10.788   3.498 -0.1944  0.9448  0.0979
  818MOL0     C10314   2.592  10.918   3.521 -0.1581 -0.8177 -0.0095
  818MOL0     C10315   2.468  11.000   3.529  0.7834  0.1328 -0.4814
  818MOL0     C10316   2.340  10.919   3.508  0.4019  0.0539 -0.0927
  818MOL0     C10317   2.225  11.026   3.513 -0.1135 -0.1181 -0.1368
  818MOL0     C10318   2.085  10.973   3.545 -0.0284 -1.0106  1.0187
  818MOL0     O10319   1.985  11.084   3.570  0.0820  0.2578 -0.2946
  818MOL0     C10320   1.855  11.047   3.602  0.8453  0.4508  0.6723
  818MOL0     C10321   1.811  10.914   3.626  0.3375 -0.8809  0.1736
  818MOL0     C10322   1.676  10.885   3.656  0.2278 -0.3369  0.2355
  818MOL0     C10323   1.650  10.737   3.683 -0.2090  0.2490  0.6921
  818MOL0     C10324   1.578  10.985   3.661 -0.3483 -0.1564  0.1094
  818MOL0     C10325   1.437  10.967   3.689  1.2909  0.2745  0.3957
  818MOL0     O10326   1.349  11.047   3.628 -0.5352 -1.1709 -0.4017
  818MOL0     C10327   1.208  11.038   3.617 -0.0546 -0.1168 -0.0726
  818MOL0     C10328   1.121  10.931   3.653 -0.7821  0.0561 -0.3995
  818MOL0     C10329   0.989  10.951   3.625  0.4887  0.0250 -0.5159
  818MOL0     C10330   0.938  11.063   3.559 -0.4299  0.1508 -0.5359
  818MOL0     O10331   0.813  11.068   3.505  0.6529  0.4369 -0.8183
  818MOL0     C10332   0.712  11.109   3.601 -0.2069  0.0565 -0.4873
  818MOL0     C10333   0.569  11.132   3.526 -0.1967  0.9938 -0.6285
  818MOL0     C10334   0.566  11.226   3.418 -0.3033  0.3593  0.7473
  818MOL0     C10335   0.426  11.210   3.353 -0.8991  1.0715  0.1810
  818MOL0     C10336   0.395  11.338   3.264  0.0037  0.1331  0.4889
  818MOL0     C10337   0.489  11.351   3.136  0.0134 -1.2840  0.1010
  818MOL0     C10338   0.443  11.442   3.021 -1.2062  0.0623 -0.9268
  818MOL0     C10339   0.305  11.414   2.963 -0.0661  0.6815 -0.2062
  818MOL0    Cl10340   0.285  11.489   2.814 -0.2655  0.1825 -0.1733
  818MOL0     C10341   1.029  11.159   3.516 -0.5179  0.5788  0.4413
  818MOL0     C10342   1.155  11.151   3.550  1.4357  0.0868  0.3318
  818MOL0     O10343   1.411  10.897   3.779  0.6768  0.4140 -0.5563
  818MOL0     C10344   1.615  11.113   3.621 -1.0639  0.0059  0.1461
  818MOL0     C10345   1.753  11.143   3.605 -0.2047  0.2354 -0.2920
  818MOL0     N10346   2.717  10.974   3.539 -0.0383 -0.2599  0.8389
  818MOL0     N10347   2.811  10.886   3.510  0.0742 -0.6514  0.6723
  818MOL0     C10348   3.856  10.062   3.414 -0.4259 -0.3628  0.9092
  818MOL0     C10349   3.981  10.012   3.447 -0.8125  0.1665  0.9450
  818MOL0     C10350   4.395   9.941   3.563 -0.2724 -0.2040 -0.3055
  818MOL0     C10351   4.410   9.865   3.681 -0.4972 -0.2505  0.0498
  818MOL0     C10352   4.517   9.780   3.696 -0.0876 -0.2157  0.4329
  818MOL0     C10353   4.616   9.773   3.599  0.1762  0.0812 -0.9218
  818MOL0     O10354   4.740   9.724   3.632  0.1169  0.3234  0.2648
  818MOL0     C10355   4.851   9.815   3.634  0.3380 -1.3175 -0.4091
  818MOL0     C10356   4.975   9.761   3.705 -0.1889 -0.4006 -0.4214
  818MOL0     C10357   4.959   9.742   3.853 -0.2055  0.4107 -0.1581
  818MOL0     C10358   5.071   9.683   3.922 -0.8925  0.0489 -0.8263
  818MOL0     C10359   5.099   9.735   4.057 -0.0677 -0.6624 -0.0056
  818MOL0     C10360   5.088   9.780   4.164  0.7136  0.4793  1.4835
  818MOL0     C10361   4.598   9.837   3.484  0.3188 -0.4989 -0.9446
  818MOL0     C10362   4.489   9.921   3.469  0.4349  0.3164 -0.1121
  818MOL0     H10363   3.985  10.125   3.771 -1.6896  0.6363  1.0514
  818MOL0     H10364   3.795  10.225   3.704 -1.3296 -2.0118  1.4134
  818MOL0     H10365   3.606  10.288   3.644  0.8229 -0.6118  0.0528
  818MOL0     H10366   3.668  10.381   3.492  0.8224 -0.8471 -1.3356
  818MOL0     H10367   3.483  10.349   3.379  1.4851  1.4213  0.1821
  818MOL0     H10368   3.424  10.219   3.495 -1.8636  0.2225 -3.1336
  818MOL0     H10369   3.341  10.350   3.652  4.3390 -0.6132  0.4028
  818MOL0     H10370   3.432  10.486   3.608 -0.4373 -0.1229  1.9478
  818MOL0     H10371   3.306  10.503   3.386  0.4392  0.2538  0.5577
  818MOL0     H10372   3.224  10.353   3.412  0.8686 -1.7213  2.0226
  818MOL0     H10373   3.099  10.424   3.594 -1.1674 -0.6374 -2.2617
  818MOL0     H10374   3.167  10.581   3.601  2.3389 -0.8920  0.5458
  818MOL0     H10375   3.074  10.655   3.399 -1.7729  0.5253 -0.5300
  818MOL0     H10376   3.029  10.497   3.351 -4.1760 -0.2223  1.0357
  818MOL0     H10377   2.864  10.492   3.545 -0.1395  1.1500  4.2239
  818MOL0     H10378   2.938  10.651   3.588  1.3592 -0.0394 -0.7437
  818MOL0     H10379   2.732  10.582   3.391  1.0375 -2.4832  1.7645
  818MOL0     H10380   2.863  10.701   3.338  0.7407  0.1291  0.9604
  818MOL0     H10381   2.521  10.719   3.501  0.8129 -0.3063  1.7989
  818MOL0     H10382   2.466  11.051   3.626 -1.1781  0.9929 -0.9298
  818MOL0     H10383   2.479  11.079   3.454 -1.7953  0.5194 -0.5515
  818MOL0     H10384   2.350  10.855   3.596  2.5736  0.8773  0.3351
  818MOL0     H10385   2.338  10.854   3.420 -0.8170  0.8074 -0.6449
  818MOL0     H10386   2.213  11.070   3.414  0.0779 -2.3013 -1.1769
  818MOL0     H10387   2.245  11.097   3.594 -1.7382 -1.0717  1.1634
  818MOL0     H10388   2.085  10.908   3.633  1.2167 -3.9839 -1.0104
  818MOL0     H10389   2.049  10.914   3.460 -1.0718  0.1280  0.6419
  818MOL0     H10390   1.873  10.825   3.629 -0.1999 -1.2468  0.7631
  818MOL0     H10391   1.728  10.668   3.648 -1.4176 -1.1373  0.6154
  818MOL0     H10392   1.632  10.712   3.788 -0.6349 -1.5863  0.2172
  818MOL0     H10393   1.558  10.703   3.634 -0.8877 -0.4067  2.3671
  818MOL0     H10394   1.169  10.850   3.707  2.4062  0.3457 -2.5449
  818MOL0     H10395   0.926  10.871   3.664  0.6003  0.2806  0.2075
  818MOL0     H10396   0.704  11.036   3.681  0.7003  0.4311 -0.0401
  818MOL0     H10397   0.741  11.203   3.650 -0.1019 -1.2761  2.1367
  818MOL0     H10398   0.535  11.037   3.484 -0.7453  1.2270 -0.7233
  818MOL0     H10399   0.500  11.161   3.606 -2.5750  0.7634 -2.5113
  818MOL0     H10400   0.647  11.200   3.349  0.9566 -6.6092  4.0484
  818MOL0     H10401   0.572  11.324   3.467 -0.9819 -0.8821  3.4351
  818MOL0     H10402   0.423  11.121   3.290 -2.2574 -1.4905  3.5350
  818MOL0     H10403   0.356  11.204   3.437 -2.3486  2.0529 -0.8949
  818MOL0     H10404   0.404  11.434   3.315  0.0202  0.2597  0.2528
  818MOL0     H10405   0.290  11.325   3.238 -0.1869 -1.3194  1.8362
  818MOL0     H10406   0.589  11.382   3.167 -0.2504 -0.1900 -0.1122
  818MOL0     H10407   0.498  11.250   3.094 -0.6944 -0.3703 -2.4849
  818MOL0     H10408   0.510  11.432   2.935 -2.2793 -2.7082 -1.5542
  818MOL0     H10409   0.447  11.547   3.051  0.8366 -0.1771 -0.2631
  818MOL0     H10410   0.222  11.448   3.026  0.5772 -0.9317  1.6336
  818MOL0     H10411   0.287  11.307   2.947 -1.8554  1.2800 -2.8534
  818MOL0     H10412   0.989  11.250   3.473  1.0068  1.0699  0.0335
  818MOL0     H10413   1.215  11.235   3.518  0.1226  0.9194 -0.0205
  818MOL0     H10414   1.556  11.204   3.627  0.9696  1.5429 -1.3965
  818MOL0     H10415   1.773  11.248   3.585 -1.2538  0.1368 -2.0693
  818MOL0     H10416   3.812  10.039   3.317 -0.5687 -2.3162  1.3919
  818MOL0     H10417   4.034   9.952   3.374 -0.9421  0.5262  0.5490
  818MOL0     H10418   4.333   9.871   3.757 -1.6222  0.3160 -1.0983
  818MOL0     H10419   4.543   9.721   3.784  2.2402  0.0462 -0.0144
  818MOL0     H10420   4.875   9.852   3.534  0.4211 -2.8002 -0.9615
  818MOL0     H10421   4.810   9.901   3.689 -1.1179 -2.6857  0.7607
  818MOL0     H10422   5.057   9.830   3.685  1.2121 -2.0027 -0.3460
  818MOL0     H10423   5.006   9.667   3.659  3.4275  1.6773 -2.6464
  818MOL0     H10424   4.874   9.675   3.871 -1.4083  1.4560 -1.6625
  818MOL0     H10425   4.935   9.840   3.896  2.1241  1.8928 -2.0078
  818MOL0     H10426   5.168   9.694   3.871 -0.9779  0.2966 -0.9383
  818MOL0     H10427   5.061   9.577   3.945  5.2163 -0.4799  1.1736
  818MOL0     H10428   5.095   9.820   4.263  3.6156 -1.1988  2.0706
  818MOL0     H10429   4.674   9.832   3.407  1.0689 -1.6154 -0.1527
  818MOL0     H10430   4.478   9.969   3.372  0.6363 -2.2839 -1.5372
  819MOL0     O10431   8.964   5.947   0.225 -0.2497  0.7635  0.5706
  819MOL0     C10432   8.953   6.008   0.330  0.6023 -0.1170 -0.8356
  819MOL0     O10433   8.832   6.046   0.385 -0.5258  0.0264 -0.1917
  819MOL0     C10434   8.709   6.029   0.315 -0.1146  0.4253 -0.5769
  819MOL0     C10435   8.595   6.018   0.395  0.7770 -0.5385 -0.3539
  819MOL0     C10436   8.464   6.014   0.338 -0.2025 -1.5167  0.4107
  819MOL0     C10437   8.450   5.992   0.199  0.5609  1.2494 -0.1319
  819MOL0     O10438   8.321   6.008   0.142 -0.1263  0.1900 -0.4210
  819MOL0     C10439   8.271   5.885   0.085  0.0473 -0.2117  0.3284
  819MOL0     C10440   8.125   5.897   0.044 -0.1833 -0.4586  0.3846
  819MOL0     C10441   8.057   5.768   0.011  0.4664  0.7167 -0.2707
  819MOL0     C10442   7.906   5.780  -0.037 -0.1870  0.4217 -0.2491
  819MOL0     C10443   7.857   5.643  -0.087 -0.1097 -0.0785  0.4084
  819MOL0     C10444   7.707   5.613  -0.078 -0.0661 -0.5250 -0.6249
  819MOL0     C10445   7.651   5.616   0.066  0.7140 -0.0576 -0.4094
  819MOL0     C10446   7.517   5.551   0.086 -0.1293 -0.0775 -0.7620
  819MOL0     N10447   7.427   5.520  -0.031 -0.3518 -0.4136 -0.4069
  819MOL0     C10448   7.385   5.607  -0.128  0.9538 -0.0261  0.1177
  819MOL0     C10449   7.305   5.532  -0.217  0.7592 -0.3587 -0.3241
  819MOL0     C10450   7.232   5.578  -0.335  0.2818 -0.6796  0.5143
  819MOL0     C10451   7.092   5.627  -0.307  0.4761  0.2012 -0.1138
  819MOL0     C10452   7.016   5.699  -0.420  0.0427 -1.0088  0.3715
  819MOL0     C10453   6.886   5.757  -0.371 -0.7428  0.3495 -0.3336
  819MOL0     O10454   6.806   5.806  -0.483 -0.1049 -0.3375 -0.2607
  819MOL0     C10455   6.675   5.823  -0.450 -0.1055  0.4499  0.4356
  819MOL0     C10456   6.617   5.838  -0.326 -1.3629  0.4415 -0.2233
  819MOL0     C10457   6.484   5.877  -0.309  0.1224 -0.0915 -1.0383
  819MOL0     C10458   6.437   5.881  -0.164 -0.1217  0.0556 -0.1373
  819MOL0     C10459   6.404   5.902  -0.422  0.5887  0.0979 -0.2220
  819MOL0     C10460   6.270   5.968  -0.415 -1.1629  0.3120 -0.4209
  819MOL0     O10461   6.191   5.955  -0.531 -0.4748 -0.3643  0.9182
  819MOL0     C10462   6.054   5.937  -0.524  0.5085 -0.2176  0.2841
  819MOL0     C10463   5.997   5.891  -0.410  0.6691 -0.4973 -0.0549
  819MOL0     C10464   5.863   5.859  -0.411  0.3107 -0.5046 -0.8666
  819MOL0     C10465   5.777   5.882  -0.528 -0.4124  0.4051  0.4953
  819MOL0     O10466   5.639   5.846  -0.517  0.5880  0.3162 -0.7186
  819MOL0     C10467   5.549   5.888  -0.617 -1.0493  0.4466 -0.4528
  819MOL0     C10468   5.406   5.854  -0.576  0.6869 -0.6103 -0.9583
  819MOL0     C10469   5.291   5.929  -0.654  0.2823 -1.1061 -0.0823
  819MOL0     C10470   5.274   5.868  -0.785  0.2243  1.0537 -0.5039
  819MOL0     C10471   5.231   5.956  -0.903 -0.1938  0.0345  0.0522
  819MOL0     C10472   5.087   6.006  -0.878 -0.4075  0.4206 -0.9461
  819MOL0     C10473   5.018   6.054  -1.004 -0.4225 -0.5377  0.7281
  819MOL0     C10474   4.892   6.139  -0.976 -0.0283  0.6398 -0.9440
  819MOL0    Cl10475   4.824   6.203  -1.132 -0.4251  0.1293  0.1601
  819MOL0     C10476   5.840   5.926  -0.645  0.4089  0.3763  0.1121
  819MOL0     C10477   5.976   5.958  -0.642 -0.0994 -0.9944 -0.0725
  819MOL0     O10478   6.235   6.026  -0.318  0.0807 -0.0316 -0.0203
  819MOL0     C10479   6.458   5.869  -0.545 -0.0018  0.3296  0.3005
  819MOL0     C10480   6.593   5.844  -0.559 -0.2070  0.8164  0.1955
  819MOL0     N10481   7.314   5.408  -0.175  0.2027 -0.0552 -0.8234
  819MOL0     N10482   7.371   5.405  -0.065 -0.1549 -0.0308 -0.0828
  819MOL0     C10483   8.566   5.990   0.122  0.6089 -0.1214 -0.1007
  819MOL0     C10484   8.689   6.017   0.174 -0.2754 -0.4972  0.3491
  819MOL0     C10485   9.075   6.047   0.402 -0.8845 -1.0668 -0.2486
  819MOL0     C10486   9.202   6.007   0.363 -0.9120 -0.1002 -0.9652
  819MOL0     C10487   9.321   6.047   0.426  0.0717  0.2909 -0.6982
  819MOL0     C10488   9.313   6.127   0.539  0.2039 -0.2824  0.6308
  819MOL0     O10489   9.415   6.157   0.613 -0.7117 -0.1055 -0.4608
  819MOL0     C10490   9.556   6.155   0.569 -0.0614 -0.5701  0.9498
  819MOL0     C10491   9.666   6.164   0.680  0.3791 -0.1326 -0.3272
  819MOL0     C10492   9.803   6.191   0.622 -0.7272 -0.6385 -0.6986
  819MOL0     C10493   9.918   6.232   0.728 -0.9036  0.2501  0.2538
  819MOL0     C10494  10.034   6.272   0.645 -0.2236 -0.7118 -0.4025
  819MOL0     C10495  10.131   6.310   0.570 -0.8682  0.2264 -1.1305
  819MOL0     C10496   9.188   6.176   0.588 -0.2903  0.7251  0.0640
  819MOL0     C10497   9.070   6.142   0.503 -0.0357  0.5203 -0.0263
  819MOL0     H10498   8.605   6.039   0.501 -1.6940 -2.9738  0.4942
  819MOL0     H10499   8.370   6.026   0.391  0.3479  0.6902  0.9988
  819MOL0     H10500   8.337   5.861   0.001 -0.3271  3.9741 -1.3855
  819MOL0     H10501   8.264   5.802   0.156 -0.5333  0.4363  1.0373
  819MOL0     H10502   8.065   5.942   0.124  0.9841  0.7621  0.6173
  819MOL0     H10503   8.111   5.962  -0.043  0.7771 -2.8497 -1.6731
  819MOL0     H10504   8.125   5.704  -0.047 -0.1430 -1.7197  1.5400
  819MOL0     H10505   8.053   5.722   0.110  2.3497 -0.1425 -0.5480
  819MOL0     H10506   7.854   5.814   0.052 -2.1987 -0.4323 -1.0595
  819MOL0     H10507   7.894   5.845  -0.125 -1.4247 -2.3919 -2.3013
  819MOL0     H10508   7.875   5.622  -0.193  0.1557 -0.6680  0.5645
  819MOL0     H10509   7.915   5.566  -0.035 -0.6565 -0.8583 -0.1126
  819MOL0     H10510   7.649   5.674  -0.148 -0.7550 -1.8120 -1.2225
  819MOL0     H10511   7.691   5.512  -0.117 -1.8325 -0.5234 -0.0102
  819MOL0     H10512   7.723   5.569   0.134  2.8712  0.7676 -2.0313
  819MOL0     H10513   7.639   5.719   0.103 -1.6820 -0.5489  0.3797
  819MOL0     H10514   7.462   5.614   0.157 -1.5709 -3.1443  1.0942
  819MOL0     H10515   7.523   5.459   0.146 -2.0477  0.1991 -0.0873
  819MOL0     H10516   7.399   5.714  -0.115 -1.1583  0.0679  2.4996
  819MOL0     H10517   7.284   5.667  -0.373 -1.8518 -0.3979 -2.0586
  819MOL0     H10518   7.234   5.506  -0.417 -2.4626  1.6687 -1.8580
  819MOL0     H10519   7.097   5.710  -0.237 -1.7449  0.8068 -0.5802
  819MOL0     H10520   7.031   5.546  -0.265 -2.4491  2.0775 -0.4261
  819MOL0     H10521   6.982   5.624  -0.491  1.2992 -0.7825 -0.4892
  819MOL0     H10522   7.074   5.784  -0.457 -3.3440  0.9213 -0.9167
  819MOL0     H10523   6.907   5.834  -0.296 -1.7573 -1.2711  1.7155
  819MOL0     H10524   6.828   5.682  -0.317  1.2725 -1.5324 -0.6346
  819MOL0     H10525   6.672   5.828  -0.233 -0.0869 -1.7660 -1.1163
  819MOL0     H10526   6.484   5.801  -0.107  0.1509  2.5634  3.4754
  819MOL0     H10527   6.454   5.978  -0.115 -0.2289 -0.3171  0.6494
  819MOL0     H10528   6.330   5.860  -0.168 -0.0904 -0.0379 -0.4594
  819MOL0     H10529   6.051   5.875  -0.316  1.8292  0.1709 -0.5885
  819MOL0     H10530   5.813   5.821  -0.323 -0.8838  2.3422 -0.2143
  819MOL0     H10531   5.550   5.998  -0.621 -1.4137  0.4417 -0.7738
  819MOL0     H10532   5.575   5.840  -0.712  3.1535 -3.4352  2.2831
  819MOL0     H10533   5.394   5.747  -0.591 -1.3242 -0.9949  2.3360
  819MOL0     H10534   5.385   5.880  -0.472 -2.3564  2.8539 -2.2455
  819MOL0     H10535   5.305   6.038  -0.659  0.9429 -1.1211  1.0961
  819MOL0     H10536   5.196   5.907  -0.604  1.0240 -3.2211  0.4987
  819MOL0     H10537   5.366   5.822  -0.823  0.5343 -1.7476  3.1035
  819MOL0     H10538   5.209   5.781  -0.777  0.8713  0.6836  1.2302
  819MOL0     H10539   5.224   5.894  -0.993 -0.3446  0.9830 -0.6009
  819MOL0     H10540   5.297   6.039  -0.930 -1.8249  0.8448 -1.6799
  819MOL0     H10541   5.027   5.920  -0.848 -0.1660 -1.3095 -4.8633
  819MOL0     H10542   5.081   6.089  -0.806 -0.7397 -1.6448  1.5676
  819MOL0     H10543   5.000   5.962  -1.060 -0.5015 -2.2757  3.3911
  819MOL0     H10544   5.090   6.123  -1.049  3.1591 -2.9823  2.2413
  819MOL0     H10545   4.920   6.215  -0.903  0.8222 -1.8914  1.5301
  819MOL0     H10546   4.808   6.089  -0.927  1.0951 -0.3465  0.0017
  819MOL0     H10547   5.780   5.935  -0.735 -0.7946  1.2329  0.9607
  819MOL0     H10548   6.029   5.991  -0.731 -0.7330  0.0161 -0.0871
  819MOL0     H10549   6.407   5.886  -0.639  0.7052  1.1990  0.0556
  819MOL0     H10550   6.628   5.849  -0.662  2.2808 -0.1974  0.9178
  819MOL0     H10551   8.557   5.963   0.017  2.7974  2.1185 -0.9663
  819MOL0     H10552   8.769   6.033   0.102 -0.3513 -0.6637  0.2266
  819MOL0     H10553   9.213   5.933   0.284  1.3911 -0.0511 -0.7690
  819MOL0     H10554   9.407   6.002   0.377  0.6855  0.4197  0.2524
  819MOL0     H10555   9.582   6.067   0.509 -4.9097 -0.6881 -1.4979
  819MOL0     H10556   9.565   6.229   0.488 -3.1273 -1.3500 -0.2770
  819MOL0     H10557   9.674   6.078   0.747 -0.1899  1.0744  1.3654
  819MOL0     H10558   9.630   6.249   0.739  1.1076 -0.2805  0.3553
  819MOL0     H10559   9.808   6.274   0.550 -3.4253 -0.7947 -1.1477
  819MOL0     H10560   9.838   6.097   0.579  0.1739  0.4462 -2.4634
  819MOL0     H10561   9.934   6.144   0.791 -4.2909 -0.3051  0.5761
  819MOL0     H10562   9.869   6.316   0.778 -3.2994  1.3889 -3.5091
  819MOL0     H10563  10.214   6.347   0.512  1.4355 -1.3084  0.9615
  819MOL0     H10564   9.180   6.234   0.679  0.4167  1.6636 -0.4560
  819MOL0     H10565   8.977   6.187   0.534 -0.3086 -0.5690  0.7835
  820MOL0     O10566   9.880  10.956   8.198  0.5894 -0.4422 -0.3214
  820MOL0     C10567   9.913  10.860   8.133 -0.0731 -0.7230  0.6462
  820MOL0     O10568   9.828  10.781   8.054  0.3846 -0.6407 -0.8236
  820MOL0     C10569   9.697  10.767   8.084  0.5134 -0.0406 -0.0838
  820MOL0     C10570   9.593  10.744   7.984 -0.7657  0.8030 -0.0981
  820MOL0     C10571   9.458  10.730   8.014  0.3830 -0.0911  0.3930
  820MOL0     C10572   9.417  10.738   8.144 -0.7453 -0.6828 -0.2450
  820MOL0     O10573   9.292  10.731   8.195  0.3845  0.8495  0.2720
  820MOL0     C10574   9.188  10.750   8.100 -0.5897  0.3865  1.0886
  820MOL0     C10575   9.068  10.812   8.176 -0.4900  0.0476  0.2890
  820MOL0     C10576   8.936  10.818   8.091 -0.2778  0.3196 -0.2288
  820MOL0     C10577   8.835  10.900   8.179 -0.1185 -0.7321 -0.1346
  820MOL0     C10578   8.686  10.914   8.115 -0.9847 -0.0353  0.4672
  820MOL0     C10579   8.602  11.012   8.195  0.1601  0.0629 -0.4355
  820MOL0     C10580   8.478  11.035   8.115 -0.0337 -0.0981 -0.0551
  820MOL0     C10581   8.378  10.921   8.126  0.1141 -0.5741 -0.5141
  820MOL0     N10582   8.233  10.959   8.106  0.0472 -0.2426 -0.0453
  820MOL0     C10583   8.162  11.041   8.187 -0.3058 -0.6331 -0.6488
  820MOL0     C10584   8.036  11.040   8.147  0.6060  0.1785 -0.7138
  820MOL0     C10585   7.936  11.127   8.218 -0.1381 -0.3433 -0.3092
  820MOL0     C10586   7.805  11.060   8.227  0.4433  0.1954  0.1998
  820MOL0     C10587   7.711  11.156   8.317  0.2187 -0.3161  0.4074
  820MOL0     C10588   7.576  11.092   8.350  0.8015  0.4428  0.1038
  820MOL0     O10589   7.490  11.175   8.430  0.2517 -0.1227 -0.5136
  820MOL0     C10590   7.357  11.128   8.437  0.4874 -1.1326  0.6145
  820MOL0     C10591   7.321  11.000   8.449  0.2511  0.7933 -0.3565
  820MOL0     C10592   7.186  10.963   8.461 -0.0834 -0.0861 -0.9253
  820MOL0     C10593   7.144  10.820   8.452 -0.4321  0.8022 -0.1937
  820MOL0     C10594   7.083  11.067   8.464  0.2685 -0.0588  0.5398
  820MOL0     C10595   6.939  11.042   8.500  0.2527  0.8985 -1.1164
  820MOL0     O10596   6.886  10.914   8.497 -0.0644 -0.3258  0.5785
  820MOL0     C10597   6.756  10.896   8.540 -0.9251  0.3917 -0.0133
  820MOL0     C10598   6.733  10.805   8.640  0.9598  0.9880 -0.1675
  820MOL0     C10599   6.599  10.779   8.676 -0.1074  0.1017  0.2861
  820MOL0     C10600   6.488  10.844   8.618  0.4578  0.6024 -0.5417
  820MOL0     O10601   6.364  10.815   8.664 -0.8244  0.3676  0.2630
  820MOL0     C10602   6.256  10.905   8.640 -0.0719 -0.4858 -0.3210
  820MOL0     C10603   6.139  10.843   8.708 -0.3125 -0.4676 -0.0164
  820MOL0     C10604   6.007  10.922   8.679  0.4331 -0.3181 -0.6817
  820MOL0     C10605   5.894  10.865   8.767 -0.4869 -0.0740 -0.0510
  820MOL0     C10606   5.754  10.930   8.724  0.2688 -0.4212 -0.2420
  820MOL0     C10607   5.632  10.862   8.777  0.4520  0.9089 -0.2188
  820MOL0     C10608   5.623  10.711   8.729 -1.0730 -0.4575  0.0615
  820MOL0     C10609   5.487  10.656   8.748 -0.2193 -0.4701 -0.0658
  820MOL0    Cl10610   5.387  10.715   8.621 -0.1396 -0.3436 -0.1535
  820MOL0     C10611   6.520  10.936   8.516 -0.6073 -0.4869  0.0945
  820MOL0     C10612   6.651  10.963   8.479 -0.6010  0.5780 -0.1477
  820MOL0     O10613   6.892  11.148   8.539 -0.0502 -0.7520 -0.3515
  820MOL0     C10614   7.131  11.204   8.448 -0.6080 -0.5882 -0.5949
  820MOL0     C10615   7.267  11.225   8.435 -0.2222  0.5720 -0.9609
  820MOL0     N10616   8.030  10.976   8.029 -0.4481 -0.0767 -0.3034
  820MOL0     N10617   8.156  10.928   8.001  0.0702 -0.3743  1.0575
  820MOL0     C10618   9.511  10.756   8.247  0.1438  0.2980  0.1604
  820MOL0     C10619   9.651  10.771   8.221  0.5331  0.3398  0.1371
  820MOL0     C10620  10.061  10.819   8.141 -0.9631 -0.5142  0.4956
  820MOL0     C10621  10.105  10.704   8.066 -0.2912 -1.3143  0.8374
  820MOL0     C10622  10.244  10.672   8.075 -0.2549  0.4328  0.3207
  820MOL0     C10623  10.329  10.753   8.151 -0.1444  0.9050  0.1214
  820MOL0     O10624  10.463  10.714   8.153  0.4211 -0.6520 -0.1120
  820MOL0     C10625  10.564  10.785   8.234 -0.6559 -1.1570 -0.1094
  820MOL0     C10626  10.702  10.713   8.220  0.4592  0.2480  0.1241
  820MOL0     C10627  10.720  10.589   8.322  1.1587 -0.2717  0.6256
  820MOL0     C10628  10.814  10.479   8.261  0.1887 -1.2413 -0.7169
  820MOL0     C10629  10.955  10.513   8.300 -1.1679 -0.1785  0.1359
  820MOL0     C10630  11.060  10.523   8.357  0.1807 -0.1174 -0.1263
  820MOL0     C10631  10.279  10.862   8.219 -0.5561  0.7706  0.0655
  820MOL0     C10632  10.149  10.895   8.213  0.7114 -0.3294 -1.0552
  820MOL0     H10633   9.621  10.731   7.879  0.6360  0.7683  0.2583
  820MOL0     H10634   9.394  10.715   7.927  1.5924 -1.5504 -0.2953
  820MOL0     H10635   9.210  10.822   8.021 -1.4865 -0.8055 -0.3083
  820MOL0     H10636   9.165  10.655   8.050  0.6413  0.0399  1.1529
  820MOL0     H10637   9.055  10.751   8.266 -0.3674 -0.2256  0.1202
  820MOL0     H10638   9.102  10.911   8.207  0.8454 -0.9453  2.1919
  820MOL0     H10639   8.957  10.868   7.996  1.9042  1.9409  1.0019
  820MOL0     H10640   8.891  10.719   8.094 -0.2170  0.3001 -0.0112
  820MOL0     H10641   8.830  10.846   8.274  0.4821  2.7020  2.0221
  820MOL0     H10642   8.877  10.997   8.207  1.1655 -1.3433  0.0821
  820MOL0     H10643   8.695  10.948   8.012  0.9815  0.4940  0.7679
  820MOL0     H10644   8.631  10.820   8.109 -0.4950 -0.2330 -1.3336
  820MOL0     H10645   8.583  10.967   8.293 -0.8041 -0.8316 -1.0100
  820MOL0     H10646   8.661  11.102   8.214 -1.5759  1.4798 -1.4553
  820MOL0     H10647   8.432  11.118   8.170 -0.0983 -1.8368  2.7152
  820MOL0     H10648   8.498  11.063   8.012  0.2910  2.8613  0.7051
  820MOL0     H10649   8.381  10.871   8.223 -3.2815  0.3620  0.2031
  820MOL0     H10650   8.400  10.842   8.053  1.7092  0.7910 -1.5925
  820MOL0     H10651   8.207  11.096   8.268 -0.6792 -1.9193  0.4733
  820MOL0     H10652   7.977  11.152   8.317 -1.0310  1.7093 -0.3969
  820MOL0     H10653   7.918  11.216   8.157  1.4380 -1.5805 -2.7126
  820MOL0     H10654   7.813  10.960   8.271  3.1433 -0.3904 -1.4358
  820MOL0     H10655   7.762  11.046   8.128 -1.4319  0.7477  0.8960
  820MOL0     H10656   7.698  11.244   8.254  0.7940  0.3930  1.2594
  820MOL0     H10657   7.759  11.184   8.411 -0.5968  0.1580  0.6904
  820MOL0     H10658   7.600  11.000   8.405  3.0799  1.7713  1.4782
  820MOL0     H10659   7.527  11.062   8.256 -0.7987  0.6389  0.8367
  820MOL0     H10660   7.397  10.924   8.441 -0.0141  0.3640  0.9154
  820MOL0     H10661   7.100  10.794   8.549 -1.3705  0.7322 -0.6232
  820MOL0     H10662   7.069  10.795   8.376  1.8478  0.6079 -2.5033
  820MOL0     H10663   7.236  10.764   8.434 -0.9424  0.1897 -0.9482
  820MOL0     H10664   6.826  10.764   8.678  1.0917 -1.4146 -2.7558
  820MOL0     H10665   6.572  10.701   8.747 -3.5371  0.6620 -0.2506
  820MOL0     H10666   6.278  10.999   8.692  0.1607  0.8014 -2.5922
  820MOL0     H10667   6.238  10.930   8.535 -2.7958  1.6050  0.5429
  820MOL0     H10668   6.136  10.739   8.672 -1.9022  0.6397 -3.5132
  820MOL0     H10669   6.160  10.847   8.815 -0.0082  1.3740 -0.1187
  820MOL0     H10670   5.975  10.910   8.575  3.4518 -0.1348 -1.7335
  820MOL0     H10671   6.028  11.029   8.690 -1.2245  0.1684 -1.9519
  820MOL0     H10672   5.899  10.756   8.766 -0.8001 -0.0893 -0.0929
  820MOL0     H10673   5.907  10.877   8.875  0.1084 -0.3294 -0.0912
  820MOL0     H10674   5.743  10.923   8.615 -0.2701 -0.9796 -0.1614
  820MOL0     H10675   5.758  11.034   8.757 -0.1409 -0.9717  1.6829
  820MOL0     H10676   5.638  10.863   8.886  2.1233 -0.3073 -0.2679
  820MOL0     H10677   5.540  10.907   8.738 -0.3806  0.1354  0.7790
  820MOL0     H10678   5.690  10.647   8.788  1.0103  0.0119 -1.6804
  820MOL0     H10679   5.649  10.700   8.623 -0.1453  3.6063 -0.2670
  820MOL0     H10680   5.453  10.679   8.850  0.2344 -2.4165  0.5652
  820MOL0     H10681   5.488  10.547   8.740 -0.0341 -0.5088  0.4895
  820MOL0     H10682   6.445  10.983   8.453  1.7961  1.2054 -1.6914
  820MOL0     H10683   6.671  11.029   8.396 -1.3266  0.1982 -0.6389
  820MOL0     H10684   7.074  11.296   8.459  0.3426  0.1242 -1.3641
  820MOL0     H10685   7.311  11.324   8.427 -1.2314  1.4566  2.5537
  820MOL0     H10686   9.477  10.763   8.349  0.2597 -1.1555  0.3231
  820MOL0     H10687   9.703  10.785   8.316 -1.7407  1.1961  1.3525
  820MOL0     H10688  10.034  10.641   8.012  1.4493 -2.7610  0.1305
  820MOL0     H10689  10.289  10.587   8.025  2.0763  2.7545 -1.8403
  820MOL0     H10690  10.567  10.880   8.180  2.6688 -2.4978 -2.6740
  820MOL0     H10691  10.530  10.789   8.338 -0.1408  2.3249  0.0546
  820MOL0     H10692  10.781  10.785   8.244 -0.5260  1.6652 -0.7543
  820MOL0     H10693  10.718  10.686   8.116  1.4201  1.2744 -0.0166
  820MOL0     H10694  10.621  10.546   8.338  1.0013 -0.2059 -0.1050
  820MOL0     H10695  10.756  10.628   8.417  2.7834  2.1687 -0.8573
  820MOL0     H10696  10.803  10.489   8.152 -1.5886  1.5667 -0.3660
  820MOL0     H10697  10.784  10.381   8.299 -1.5301 -1.1469 -1.6768
  820MOL0     H10698  11.158  10.530   8.400 -0.4761 -1.9868  1.8334
  820MOL0     H10699  10.347  10.912   8.287 -0.2072 -2.1827  2.0706
  820MOL0     H10700  10.106  10.969   8.281  1.0952  1.6196 -2.8033
  821MOL0     O10701   8.250   8.652   9.323 -0.1780  0.3965 -0.0012
  821MOL0     C10702   8.353   8.607   9.367  1.1409  0.2189 -0.1473
  821MOL0     O10703   8.380   8.568   9.496 -0.2293  0.0891 -0.0291
  821MOL0     C10704   8.269   8.561   9.580  0.8321 -0.6925 -0.8469
  821MOL0     C10705   8.202   8.675   9.630  0.0845  0.0653  1.1426
  821MOL0     C10706   8.077   8.660   9.696 -0.2629  0.2102 -0.0962
  821MOL0     C10707   8.018   8.532   9.728 -0.8086 -1.1766  0.1923
  821MOL0     O10708   7.911   8.523   9.809  0.4770 -0.0033  0.0808
  821MOL0     C10709   7.796   8.535   9.730  0.8930 -0.3827  0.2862
  821MOL0     C10710   7.663   8.529   9.817 -0.0137  0.3982  0.2208
  821MOL0     C10711   7.533   8.503   9.730 -0.1377 -0.0683 -1.0806
  821MOL0     C10712   7.489   8.621   9.647 -0.1677  0.5563  0.1669
  821MOL0     C10713   7.438   8.733   9.738 -0.3958  0.7850  0.2263
  821MOL0     C10714   7.372   8.839   9.658 -0.3523 -0.5759  0.4231
  821MOL0     C10715   7.216   8.815   9.645  0.2974 -0.3294 -0.3222
  821MOL0     C10716   7.150   8.892   9.765  0.1336  0.4169  0.2077
  821MOL0     N10717   7.017   8.840   9.790  0.0671 -0.0687  0.5882
  821MOL0     C10718   6.906   8.869   9.715  0.8337  0.1811  0.2068
  821MOL0     C10719   6.815   8.773   9.754  0.6613 -0.4703  1.0349
  821MOL0     C10720   6.668   8.783   9.711  0.3564  0.0946  0.2482
  821MOL0     C10721   6.646   8.686   9.591 -0.0951 -0.8922 -0.0464
  821MOL0     C10722   6.529   8.744   9.515 -0.1541  0.2603  0.1862
  821MOL0     C10723   6.396   8.737   9.591  0.0692  0.3039 -0.3485
  821MOL0     O10724   6.292   8.750   9.495 -0.5280 -0.3917  0.5861
  821MOL0     C10725   6.159   8.721   9.525  0.4456  0.1703 -0.8230
  821MOL0     C10726   6.113   8.698   9.655 -1.2270  0.1494 -0.0154
  821MOL0     C10727   5.976   8.661   9.676 -0.7728  0.4851 -0.5684
  821MOL0     C10728   5.932   8.639   9.819  0.0380 -0.0556  0.3310
  821MOL0     C10729   5.890   8.663   9.569 -0.1584  0.6987  0.7442
  821MOL0     C10730   5.757   8.616   9.583  0.3498  0.2060  0.0344
  821MOL0     O10731   5.741   8.496   9.646  0.4558  1.0370  0.4739
  821MOL0     C10732   5.617   8.458   9.673 -0.0311 -0.4270  0.3504
  821MOL0     C10733   5.560   8.347   9.618 -0.6202 -0.2071  0.3435
  821MOL0     C10734   5.436   8.297   9.664  0.6294  1.3541  1.0730
  821MOL0     C10735   5.368   8.352   9.777 -0.6791 -0.9390  0.9184
  821MOL0     O10736   5.254   8.308   9.841  0.2980  0.4772  0.3325
  821MOL0     C10737   5.237   8.169   9.860 -0.3183  0.6250  0.2787
  821MOL0     C10738   5.108   8.164   9.950 -0.1657  0.3274  0.3718
  821MOL0     C10739   4.984   8.209   9.870  0.1358  0.0352  0.3874
  821MOL0     C10740   4.852   8.195   9.953 -0.2694 -0.6418  0.9047
  821MOL0     C10741   4.727   8.241   9.883 -0.0815 -0.2733 -0.5671
  821MOL0     C10742   4.711   8.182   9.741  0.2177  0.0875 -0.1658
  821MOL0     C10743   4.570   8.200   9.678 -0.4593  0.5845 -0.4923
  821MOL0     C10744   4.530   8.337   9.638 -0.9755 -0.6078 -0.2833
  821MOL0    Cl10745   4.650   8.392   9.516 -0.4553  0.4939  0.3924
  821MOL0     C10746   5.423   8.462   9.831  0.2238  1.0899  0.1465
  821MOL0     C10747   5.537   8.524   9.781 -0.7772  0.9399 -0.0920
  821MOL0     O10748   5.675   8.691   9.544  0.8284  0.4393  0.4696
  821MOL0     C10749   5.936   8.680   9.433 -0.1544 -0.2649  0.4377
  821MOL0     C10750   6.072   8.709   9.417 -0.5123 -0.2882  0.6249
  821MOL0     N10751   6.866   8.703   9.865 -0.5621 -0.1939 -0.7379
  821MOL0     N10752   6.992   8.740   9.876  0.3831  0.1353  0.2220
  821MOL0     C10753   8.093   8.419   9.700  0.2568  0.0060  1.1299
  821MOL0     C10754   8.207   8.436   9.621  0.9456  0.3373 -0.4048
  821MOL0     C10755   8.465   8.599   9.278 -0.0447  0.3038 -0.0987
  821MOL0     C10756   8.499   8.689   9.179 -0.4213 -0.4158  0.0682
  821MOL0     C10757   8.619   8.675   9.102  0.7896 -0.3542  0.7765
  821MOL0     C10758   8.705   8.561   9.127 -1.1747 -0.4989  0.8997
  821MOL0     O10759   8.818   8.550   9.043  0.3885 -0.2264 -0.0046
  821MOL0     C10760   8.849   8.412   9.006 -0.5613  0.5460  0.3321
  821MOL0     C10761   8.930   8.403   8.882  0.7679  0.1613  0.7095
  821MOL0     C10762   8.987   8.267   8.867 -0.5421  0.3379 -0.1351
  821MOL0     C10763   9.079   8.268   8.745  0.7106 -0.1380  0.0224
  821MOL0     C10764   9.128   8.127   8.723 -0.2673 -0.6347  0.1100
  821MOL0     C10765   9.166   8.008   8.718  0.3168  0.3621  0.3454
  821MOL0     C10766   8.670   8.477   9.226 -0.3009 -0.4072  0.4598
  821MOL0     C10767   8.554   8.494   9.297  0.1368 -0.3848 -0.1271
  821MOL0     H10768   8.242   8.770   9.596 -0.1476  0.4940  2.0191
  821MOL0     H10769   8.025   8.754   9.717 -2.4302 -1.3187  1.8739
  821MOL0     H10770   7.806   8.632   9.680  0.7918 -1.2744 -1.5598
  821MOL0     H10771   7.803   8.455   9.656  2.8940 -0.5764  0.6336
  821MOL0     H10772   7.671   8.458   9.899  2.1387  1.6250  1.1626
  821MOL0     H10773   7.669   8.622   9.875  1.2471 -1.3595  3.1384
  821MOL0     H10774   7.542   8.415   9.665  0.5148 -0.3903 -0.5678
  821MOL0     H10775   7.455   8.491   9.805 -0.0461  1.5890 -0.6749
  821MOL0     H10776   7.565   8.679   9.594 -0.7900  1.8171  0.6032
  821MOL0     H10777   7.412   8.594   9.574  1.3654 -1.1664 -0.8799
  821MOL0     H10778   7.367   8.696   9.813 -0.8669  1.6809  0.2307
  821MOL0     H10779   7.511   8.767   9.811  0.7884  1.3959 -1.2010
  821MOL0     H10780   7.394   8.940   9.695  1.2092 -0.6060 -0.3313
  821MOL0     H10781   7.408   8.845   9.555  0.3306  0.8673  0.7199
  821MOL0     H10782   7.178   8.854   9.550 -0.5230  1.1753  0.5772
  821MOL0     H10783   7.193   8.708   9.646  1.4473 -0.5978 -0.9512
  821MOL0     H10784   7.155   9.000   9.747 -1.0288  0.1427 -2.1606
  821MOL0     H10785   7.213   8.870   9.852  1.4528 -0.4987 -0.9216
  821MOL0     H10786   6.895   8.940   9.634 -0.8277  2.0480  1.9397
  821MOL0     H10787   6.596   8.757   9.789  0.2878  0.3406  0.2656
  821MOL0     H10788   6.643   8.884   9.677 -0.0204 -0.1540 -0.2394
  821MOL0     H10789   6.635   8.582   9.624 -1.5392 -0.2233  1.7767
  821MOL0     H10790   6.734   8.677   9.527  0.7340 -3.1850  1.3195
  821MOL0     H10791   6.526   8.690   9.420 -2.5271  1.2586 -0.3868
  821MOL0     H10792   6.543   8.847   9.482  0.5640 -0.7138 -2.9172
  821MOL0     H10793   6.391   8.814   9.669 -2.4130 -0.1806  0.0780
  821MOL0     H10794   6.383   8.633   9.622  2.4151  0.1474  0.2343
  821MOL0     H10795   6.174   8.712   9.744 -0.4685  0.8380 -0.6275
  821MOL0     H10796   6.001   8.693   9.884  1.9636 -1.8134 -0.1463
  821MOL0     H10797   5.830   8.676   9.831 -0.4541 -0.5892 -1.7437
  821MOL0     H10798   5.947   8.534   9.847  0.4741 -0.5132 -1.4527
  821MOL0     H10799   5.605   8.304   9.529 -1.4925 -1.9863  0.7133
  821MOL0     H10800   5.403   8.200   9.627  1.3242 -0.2682  4.3424
  821MOL0     H10801   5.236   8.129   9.758  3.8247  4.5025 -1.6541
  821MOL0     H10802   5.320   8.119   9.910 -0.1886  0.7631  0.2011
  821MOL0     H10803   5.077   8.064   9.982 -1.1199  0.5378  0.1654
  821MOL0     H10804   5.121   8.230  10.036 -1.3002 -0.5005  1.2274
  821MOL0     H10805   4.967   8.149   9.780  1.4571 -0.0784  0.1982
  821MOL0     H10806   4.989   8.313   9.838 -0.0130  0.7308  2.4868
  821MOL0     H10807   4.843   8.087   9.968  1.5361 -1.2426 -1.6250
  821MOL0     H10808   4.864   8.262  10.038  2.2737 -0.4251  0.4265
  821MOL0     H10809   4.730   8.350   9.880 -0.0779 -0.2975 -2.2553
  821MOL0     H10810   4.645   8.207   9.946 -0.1093  0.0715 -0.4151
  821MOL0     H10811   4.779   8.229   9.670  2.8144 -0.7649  1.6060
  821MOL0     H10812   4.730   8.075   9.752 -0.3890  0.1408  1.8095
  821MOL0     H10813   4.499   8.172   9.756  0.1671 -1.7168 -0.6695
  821MOL0     H10814   4.555   8.127   9.598  0.2963 -1.7420  1.3788
  821MOL0     H10815   4.538   8.412   9.716 -0.6247 -2.3367  1.4097
  821MOL0     H10816   4.430   8.341   9.595 -1.6701  4.5279  1.1328
  821MOL0     H10817   5.380   8.514   9.916 -0.7104  1.5504 -0.5964
  821MOL0     H10818   5.573   8.615   9.828 -1.7419  0.6927  1.1877
  821MOL0     H10819   5.863   8.675   9.353  1.4634  1.0239 -1.2118
  821MOL0     H10820   6.099   8.722   9.313 -0.4779  2.0794  0.8699
  821MOL0     H10821   8.060   8.317   9.716  0.1123 -0.8659 -3.3192
  821MOL0     H10822   8.253   8.344   9.587  0.9855  0.2803 -0.1950
  821MOL0     H10823   8.440   8.779   9.159 -0.8930 -1.0272 -1.4284
  821MOL0     H10824   8.634   8.746   9.021 -1.8825 -0.1370  0.3600
  821MOL0     H10825   8.891   8.356   9.090 -1.2016  2.3863  1.9498
  821MOL0     H10826   8.754   8.362   8.985 -1.5315  0.7396  3.7577
  821MOL0     H10827   9.007   8.480   8.891  2.0696 -0.8643 -0.9726
  821MOL0     H10828   8.857   8.432   8.806  0.8626 -1.3600 -0.0110
  821MOL0     H10829   8.902   8.198   8.859 -0.9108  0.8257 -0.4961
  821MOL0     H10830   9.051   8.229   8.947  1.9557  0.3438 -1.9940
  821MOL0     H10831   9.160   8.337   8.769  1.9928 -1.6067  0.1109
  821MOL0     H10832   9.014   8.301   8.663 -0.0220  1.3382  1.1539
  821MOL0     H10833   9.208   7.911   8.704  1.5630  0.9840 -0.4558
  821MOL0     H10834   8.733   8.394   9.259  0.9199  1.2934  2.6868
  821MOL0     H10835   8.539   8.422   9.377  0.5680 -0.1762  0.1431
  822MOL0     O10836   5.316   5.426   7.224  0.3181  0.7902  0.2110
  822MOL0     C10837   5.328   5.549   7.210 -0.1373  0.3641  0.3197
  822MOL0     O10838   5.432   5.609   7.141  0.6671  0.2069  0.4921
  822MOL0     C10839   5.528   5.541   7.075  0.0487  0.9966  0.4677
  822MOL0     C10840   5.552   5.567   6.942 -0.3960 -0.8942 -0.5324
  822MOL0     C10841   5.660   5.510   6.879  0.7473 -0.1130  0.3343
  822MOL0     C10842   5.743   5.421   6.943 -0.7215  0.4139 -0.4502
  822MOL0     O10843   5.852   5.352   6.885 -0.1644  0.0554 -0.2405
  822MOL0     C10844   5.882   5.363   6.743  0.8424  0.8554  1.5200
  822MOL0     C10845   5.996   5.281   6.686  0.3800 -0.0228 -0.4253
  822MOL0     C10846   6.130   5.310   6.758  0.4127  0.0492 -0.3790
  822MOL0     C10847   6.228   5.204   6.705 -0.6047 -0.1201  0.1573
  822MOL0     C10848   6.197   5.066   6.752 -0.7141 -0.2716 -0.0674
  822MOL0     C10849   6.298   4.974   6.679 -0.1797  0.2029 -1.0681
  822MOL0     C10850   6.304   4.832   6.739 -0.2310 -0.0142 -1.7302
  822MOL0     C10851   6.412   4.749   6.669 -0.5202 -0.0619 -0.1619
  822MOL0     N10852   6.467   4.638   6.745  0.9241 -0.5498  0.0349
  822MOL0     C10853   6.580   4.625   6.818  0.8110 -0.3271 -0.0196
  822MOL0     C10854   6.583   4.498   6.858  0.7893  0.4411  0.3558
  822MOL0     C10855   6.691   4.454   6.958 -0.2268  0.4805  0.2124
  822MOL0     C10856   6.672   4.324   7.031 -0.4985  0.0740 -0.3788
  822MOL0     C10857   6.783   4.289   7.133  0.0569 -0.5452  0.4898
  822MOL0     C10858   6.724   4.344   7.262  0.5188  0.5538  0.3445
  822MOL0     O10859   6.827   4.405   7.331 -0.6581  0.6909 -0.2396
  822MOL0     C10860   6.916   4.312   7.373 -0.6815 -0.6259 -0.7370
  822MOL0     C10861   7.046   4.364   7.367  0.6543 -0.2538  0.0399
  822MOL0     C10862   7.158   4.284   7.397 -0.1539  0.7989 -0.4400
  822MOL0     C10863   7.300   4.347   7.394 -0.5132 -0.0329  0.4593
  822MOL0     C10864   7.135   4.154   7.451 -0.6991 -0.8107  0.2911
  822MOL0     C10865   7.243   4.072   7.527 -0.4073 -0.2366 -0.3552
  822MOL0     O10866   7.260   3.938   7.497 -0.1546 -0.0285 -0.3304
  822MOL0     C10867   7.363   3.860   7.538 -0.4949  0.5506 -0.0748
  822MOL0     C10868   7.386   3.756   7.444 -0.3764  0.2184 -0.0356
  822MOL0     C10869   7.494   3.662   7.465 -0.3993  0.0188 -0.5188
  822MOL0     C10870   7.578   3.677   7.570 -0.1122  0.2066 -0.9991
  822MOL0     O10871   7.682   3.583   7.589  0.7584 -0.0411  0.0717
  822MOL0     C10872   7.747   3.574   7.714  0.1927  0.1993 -0.7508
  822MOL0     C10873   7.813   3.437   7.704  0.3589  1.2937 -0.0181
  822MOL0     C10874   7.943   3.443   7.783 -0.7697 -0.2575  0.1199
  822MOL0     C10875   8.029   3.319   7.759 -0.0134  0.1981  0.5270
  822MOL0     C10876   8.082   3.329   7.611 -0.1328 -0.2825 -0.4166
  822MOL0     C10877   8.216   3.249   7.584  0.3785 -0.2782 -0.0239
  822MOL0     C10878   8.274   3.266   7.450 -0.3592 -0.5960  0.6478
  822MOL0     C10879   8.425   3.260   7.431 -0.7011  0.1368 -0.1407
  822MOL0    Cl10880   8.510   3.394   7.507  0.1825  0.1657 -0.0930
  822MOL0     C10881   7.557   3.782   7.662 -0.2823 -0.2097  1.0167
  822MOL0     C10882   7.451   3.875   7.646  0.5619 -0.2384 -0.7190
  822MOL0     O10883   7.313   4.134   7.603 -1.0266 -0.4954 -0.4281
  822MOL0     C10884   6.999   4.111   7.467 -0.1464  0.4949 -0.1916
  822MOL0     C10885   6.888   4.188   7.432  0.1771  0.3622  0.8006
  822MOL0     N10886   6.468   4.439   6.808  0.2426  0.1269 -0.6411
  822MOL0     N10887   6.392   4.525   6.752 -0.4694  0.4658  0.8717
  822MOL0     C10888   5.714   5.380   7.070 -0.2800 -0.0426  0.3723
  822MOL0     C10889   5.609   5.440   7.136 -0.4418  0.4454 -0.2313
  822MOL0     C10890   5.247   5.640   7.300 -0.3089  0.7285  1.0258
  822MOL0     C10891   5.179   5.592   7.408  0.1316  0.3847 -1.1664
  822MOL0     C10892   5.117   5.681   7.498  0.7949 -0.4269  0.1259
  822MOL0     C10893   5.131   5.817   7.478  0.0843 -0.6634  0.1787
  822MOL0     O10894   5.059   5.910   7.562  0.4805 -0.1236 -0.6403
  822MOL0     C10895   4.985   5.874   7.684  0.4230 -0.0758  0.0045
  822MOL0     C10896   4.974   6.004   7.761 -0.3062 -0.8604 -0.7467
  822MOL0     C10897   5.109   6.060   7.809  0.0846  0.3361 -0.3128
  822MOL0     C10898   5.082   6.205   7.868 -0.0297 -0.1176  0.4515
  822MOL0     C10899   5.192   6.265   7.935 -0.1990 -0.0430 -0.1357
  822MOL0     C10900   5.292   6.304   7.999  0.3713 -0.5905 -0.5965
  822MOL0     C10901   5.201   5.867   7.371 -0.5282 -1.0443 -0.3551
  822MOL0     C10902   5.261   5.778   7.288 -0.4003 -0.4226 -1.0218
  822MOL0     H10903   5.499   5.641   6.883 -2.1951 -2.2250 -0.6624
  822MOL0     H10904   5.690   5.543   6.780  0.1085  1.7100  0.7274
  822MOL0     H10905   5.787   5.341   6.694  0.7466 -0.3543  2.2076
  822MOL0     H10906   5.905   5.468   6.723 -0.0985  0.9416  0.7998
  822MOL0     H10907   5.962   5.179   6.707  0.6190  0.1455  0.8178
  822MOL0     H10908   6.006   5.296   6.578  0.0206  0.9355 -0.3357
  822MOL0     H10909   6.162   5.414   6.747 -1.4653  0.8548  1.2645
  822MOL0     H10910   6.114   5.308   6.866  0.2822  3.0449 -0.2533
  822MOL0     H10911   6.242   5.206   6.597  1.5498  2.0685  0.3790
  822MOL0     H10912   6.320   5.231   6.758 -1.3906  1.8646  0.6124
  822MOL0     H10913   6.201   5.066   6.861 -1.6160 -0.6813 -0.0270
  822MOL0     H10914   6.097   5.042   6.716 -0.5016  0.9730 -1.6290
  822MOL0     H10915   6.280   4.981   6.571  0.0919  3.6668 -0.9760
  822MOL0     H10916   6.400   5.009   6.696  0.7622 -2.8967  0.3272
  822MOL0     H10917   6.319   4.835   6.847 -0.2804 -1.7244 -1.6444
  822MOL0     H10918   6.210   4.776   6.729 -0.1703 -0.3207 -0.6936
  822MOL0     H10919   6.496   4.808   6.631 -2.1889  0.9001 -2.6363
  822MOL0     H10920   6.378   4.717   6.570  0.6108  1.7246 -1.1781
  822MOL0     H10921   6.649   4.706   6.837  1.6932 -0.8383 -0.9297
  822MOL0     H10922   6.790   4.476   6.915  0.8563  0.3888  2.5120
  822MOL0     H10923   6.697   4.539   7.027  3.0316  2.0604 -1.7287
  822MOL0     H10924   6.673   4.251   6.949 -0.0318  0.9822 -1.2144
  822MOL0     H10925   6.571   4.313   7.071 -1.0006  1.3681 -1.2181
  822MOL0     H10926   6.884   4.327   7.121  0.7415 -2.2951  0.4450
  822MOL0     H10927   6.796   4.181   7.139 -0.0948 -0.5219  1.3191
  822MOL0     H10928   6.663   4.274   7.320  0.0885 -0.4477 -1.2506
  822MOL0     H10929   6.654   4.426   7.241 -1.4404 -1.4073 -1.2478
  822MOL0     H10930   7.048   4.467   7.333 -2.8575 -0.4330 -1.1668
  822MOL0     H10931   7.383   4.276   7.397  0.7045  1.2720 -0.7456
  822MOL0     H10932   7.299   4.399   7.298 -0.0886 -1.7203 -0.5065
  822MOL0     H10933   7.310   4.416   7.478  2.3981 -1.5772  1.5108
  822MOL0     H10934   7.321   3.735   7.359 -0.7831  1.3783 -0.0349
  822MOL0     H10935   7.504   3.586   7.388  2.1130 -0.3634  0.0719
  822MOL0     H10936   7.813   3.658   7.738 -2.1247  1.5446  1.3349
  822MOL0     H10937   7.670   3.565   7.791 -0.7294  0.5417 -1.6062
  822MOL0     H10938   7.749   3.359   7.745  2.0581 -1.8178 -2.7972
  822MOL0     H10939   7.838   3.405   7.602 -1.7404  0.8471 -0.4369
  822MOL0     H10940   7.914   3.454   7.888 -0.3822  1.0670  0.0988
  822MOL0     H10941   8.003   3.533   7.771  1.3133 -1.4109  1.2821
  822MOL0     H10942   8.106   3.319   7.837  0.1481  1.6072  0.4017
  822MOL0     H10943   7.964   3.232   7.774  0.4744 -0.1901  0.4282
  822MOL0     H10944   8.111   3.430   7.583  1.8495 -1.0203 -1.2786
  822MOL0     H10945   8.006   3.280   7.549 -0.3089 -2.8264  1.6459
  822MOL0     H10946   8.283   3.277   7.665 -0.8665  1.2234  0.5203
  822MOL0     H10947   8.181   3.146   7.594  1.1398 -0.5307  0.1200
  822MOL0     H10948   8.234   3.346   7.388 -2.0930 -3.0306 -1.6010
  822MOL0     H10949   8.232   3.185   7.390  1.1823 -2.2641  1.7315
  822MOL0     H10950   8.456   3.277   7.328 -1.4000  2.1084 -0.0793
  822MOL0     H10951   8.462   3.167   7.475 -1.0071  1.1757  2.4952
  822MOL0     H10952   7.635   3.809   7.732  0.6727 -0.9038  0.2544
  822MOL0     H10953   7.448   3.955   7.720 -2.9975 -2.4740  1.8524
  822MOL0     H10954   6.984   4.019   7.523  3.0343 -0.1434 -0.1901
  822MOL0     H10955   6.785   4.159   7.447 -0.7014 -1.1986 -5.3986
  822MOL0     H10956   5.785   5.327   7.132 -0.2779  0.0100  0.4152
  822MOL0     H10957   5.578   5.410   7.235  2.3989  0.3614  0.7285
  822MOL0     H10958   5.160   5.486   7.419 -1.5037  0.7513  0.0161
  822MOL0     H10959   5.056   5.648   7.582 -1.9502 -1.7008 -2.1632
  822MOL0     H10960   4.882   5.844   7.660 -0.1634  1.0173  1.0890
  822MOL0     H10961   5.033   5.800   7.749  0.5566  1.5589  1.8331
  822MOL0     H10962   4.908   5.985   7.846 -0.6318  0.9133 -0.5754
  822MOL0     H10963   4.934   6.079   7.693  1.6330 -0.1785 -1.1850
  822MOL0     H10964   5.179   6.061   7.724 -1.9775 -0.8897 -2.1226
  822MOL0     H10965   5.144   5.995   7.890 -1.1078 -0.8678 -0.7228
  822MOL0     H10966   4.998   6.200   7.938  0.3003  0.2109  0.8768
  822MOL0     H10967   5.046   6.271   7.790  0.4663  0.5852  0.8038
  822MOL0     H10968   5.385   6.341   8.039  0.4462 -3.4186  2.3124
  822MOL0     H10969   5.220   5.973   7.352  3.6923 -1.0880  2.2834
  822MOL0     H10970   5.324   5.827   7.214 -0.5147  3.1166  0.9640
  823MOL0     O10971   3.044   8.610   7.966 -0.1405 -0.5765 -0.4684
  823MOL0     C10972   3.086   8.666   8.070 -0.2243 -0.2218 -0.5667
  823MOL0     O10973   3.005   8.721   8.162 -0.3972  0.2118 -0.5492
  823MOL0     C10974   2.873   8.687   8.197  0.2240  0.5225  0.9949
  823MOL0     C10975   2.808   8.742   8.311 -0.1955  0.3568  0.3597
  823MOL0     C10976   2.673   8.719   8.338  0.3029 -0.3397  0.0380
  823MOL0     C10977   2.589   8.645   8.254  0.1181 -0.3750 -0.0358
  823MOL0     O10978   2.448   8.642   8.294 -0.5037  0.3763  0.3037
  823MOL0     C10979   2.358   8.590   8.196  0.2177 -0.4178  0.1110
  823MOL0     C10980   2.301   8.701   8.111 -0.8388  0.4851  0.1161
  823MOL0     C10981   2.203   8.770   8.201 -0.4719 -0.1333 -0.7200
  823MOL0     C10982   2.122   8.882   8.127 -0.4145 -0.4630  0.2384
  823MOL0     C10983   1.976   8.913   8.176 -0.8725 -0.5550 -0.3373
  823MOL0     C10984   1.966   9.067   8.200  0.7126  1.0702  0.0906
  823MOL0     C10985   1.826   9.112   8.230  0.1090  0.0140  0.0482
  823MOL0     C10986   1.780   9.062   8.370  0.0807  0.7582 -0.0567
  823MOL0     N10987   1.651   9.129   8.417  0.4815  0.1643 -0.6690
  823MOL0     C10988   1.573   9.119   8.539 -0.6316 -0.5607 -0.2630
  823MOL0     C10989   1.465   9.198   8.535  0.3305  0.1267 -0.3269
  823MOL0     C10990   1.345   9.229   8.635 -0.4647  0.4088 -0.8502
  823MOL0     C10991   1.214   9.218   8.574  0.9560 -0.4040  0.3110
  823MOL0     C10992   1.165   9.361   8.531 -0.3193  0.1128 -0.3671
  823MOL0     C10993   1.033   9.343   8.445  0.0111 -0.0172  0.4201
  823MOL0     O10994   0.968   9.473   8.416 -0.5782  0.8268 -0.2519
  823MOL0     C10995   0.839   9.470   8.371  0.0159  0.0987 -0.4154
  823MOL0     C10996   0.764   9.358   8.328  0.1440 -0.4459  0.2926
  823MOL0     C10997   0.637   9.369   8.284  0.1799 -0.7168  0.0409
  823MOL0     C10998   0.572   9.242   8.244 -0.3738 -0.3428 -0.7408
  823MOL0     C10999   0.569   9.497   8.303  0.0446 -0.4396  0.3761
  823MOL0     C11000   0.431   9.520   8.267 -0.1369  0.0010 -0.1882
  823MOL0     O11001   0.376   9.450   8.170 -0.3140 -0.6045 -0.1720
  823MOL0     C11002   0.240   9.462   8.141  0.3289 -0.5438 -0.2437
  823MOL0     C11003   0.141   9.398   8.223 -0.4239 -0.6860  0.5689
  823MOL0     C11004   0.004   9.414   8.191 -0.0542  0.2889 -0.1075
  823MOL0     C11005  -0.036   9.498   8.079  0.0822  0.3401  0.3661
  823MOL0     O11006  -0.172   9.518   8.066  0.3032  0.1739  0.1474
  823MOL0     C11007  -0.229   9.570   7.947  0.9432 -0.2457  0.3518
  823MOL0     C11008  -0.339   9.671   7.969 -0.7155 -0.4289 -0.2273
  823MOL0     C11009  -0.455   9.603   8.028  0.7338  0.7565  0.3002
  823MOL0     C11010  -0.569   9.702   8.039 -0.4774  0.7452 -0.0480
  823MOL0     C11011  -0.687   9.612   8.078 -0.7164  0.0725  0.1387
  823MOL0     C11012  -0.826   9.660   8.046  0.7063 -0.7366  0.3672
  823MOL0     C11013  -0.853   9.656   7.893  0.4634  0.3813  0.6149
  823MOL0     C11014  -0.998   9.655   7.864  0.1712 -0.2325  0.0854
  823MOL0    Cl11015  -1.024   9.641   7.702 -0.4963 -0.0202 -0.1831
  823MOL0     C11016   0.065   9.561   8.007 -0.1512 -0.1385 -0.7353
  823MOL0     C11017   0.202   9.547   8.041 -0.6067  0.5482 -0.2010
  823MOL0     O11018   0.374   9.611   8.328  0.0263 -0.0252  0.7595
  823MOL0     C11019   0.636   9.610   8.356 -0.6284  0.1440 -1.0451
  823MOL0     C11020   0.766   9.588   8.394 -0.0047  0.8552 -0.1257
  823MOL0     N11021   1.476   9.261   8.415  0.2235 -0.1755 -0.7788
  823MOL0     N11022   1.582   9.217   8.347  0.2616 -0.5444 -0.3953
  823MOL0     C11023   2.655   8.579   8.143 -0.9663  0.0474  0.1014
  823MOL0     C11024   2.788   8.600   8.121 -0.4869 -0.2700 -0.3094
  823MOL0     C11025   3.227   8.700   8.082 -0.5834  0.0082  0.0710
  823MOL0     C11026   3.318   8.674   7.978 -0.2476 -0.3867  0.6640
  823MOL0     C11027   3.452   8.722   7.997 -0.2561 -0.9207  0.4922
  823MOL0     C11028   3.507   8.784   8.108 -0.1536 -0.3112  0.1706
  823MOL0     O11029   3.647   8.808   8.103  0.1393 -0.6547  0.2183
  823MOL0     C11030   3.707   8.925   8.166  0.9549 -0.1468  0.6512
  823MOL0     C11031   3.807   8.972   8.057  0.2360  0.9092  0.5643
  823MOL0     C11032   3.734   9.059   7.963  0.1408 -0.7817  0.0965
  823MOL0     C11033   3.831   9.115   7.859 -0.4358  0.2159  0.5449
  823MOL0     C11034   3.847   9.015   7.757 -0.2799  0.1777  0.4191
  823MOL0     C11035   3.874   8.932   7.673 -0.3114 -0.2597 -0.4211
  823MOL0     C11036   3.414   8.811   8.201  0.2113  0.5439 -0.6206
  823MOL0     C11037   3.278   8.770   8.192  0.1847  0.2653  0.0517
  823MOL0     H11038   2.882   8.794   8.371  0.3511 -1.0644  0.9748
  823MOL0     H11039   2.630   8.768   8.425  0.7139  0.5624 -0.2446
  823MOL0     H11040   2.396   8.511   8.131 -0.9375 -1.3955  0.5820
  823MOL0     H11041   2.285   8.529   8.250 -1.2078 -0.5917 -1.8748
  823MOL0     H11042   2.381   8.765   8.074 -1.7724  1.8185  0.3242
  823MOL0     H11043   2.250   8.646   8.032 -2.1413  0.9511  0.6088
  823MOL0     H11044   2.121   8.699   8.218 -1.0881  0.5011 -0.9966
  823MOL0     H11045   2.244   8.797   8.298 -1.9073 -2.2072  0.5624
  823MOL0     H11046   2.188   8.969   8.134  0.5940 -1.1799 -0.1027
  823MOL0     H11047   2.128   8.858   8.020  3.0466 -0.7877  0.3661
  823MOL0     H11048   1.893   8.886   8.110 -0.6230 -0.7055 -0.5911
  823MOL0     H11049   1.967   8.862   8.272 -1.0387  1.0606  0.5428
  823MOL0     H11050   2.030   9.084   8.287  1.1920  2.1556 -0.4648
  823MOL0     H11051   2.002   9.122   8.113  1.1588 -1.1745 -1.2238
  823MOL0     H11052   1.829   9.221   8.229  0.0989  0.0287 -1.6756
  823MOL0     H11053   1.753   9.078   8.156  0.6366 -0.9486 -0.0417
  823MOL0     H11054   1.859   9.073   8.445  1.3027 -1.2237 -0.9788
  823MOL0     H11055   1.763   8.954   8.372 -0.2643  0.8189  1.2542
  823MOL0     H11056   1.611   9.047   8.611 -0.6310 -0.5680 -0.2707
  823MOL0     H11057   1.360   9.161   8.719  2.2504 -0.9063 -2.2502
  823MOL0     H11058   1.360   9.329   8.676 -0.5019  0.2833 -0.5332
  823MOL0     H11059   1.139   9.177   8.642  1.5827 -0.5105  0.9477
  823MOL0     H11060   1.209   9.149   8.489  0.7395 -0.1164  0.0901
  823MOL0     H11061   1.238   9.402   8.460  1.7382  0.2936  1.7452
  823MOL0     H11062   1.159   9.431   8.615 -0.7676  1.8976 -1.8269
  823MOL0     H11063   0.958   9.279   8.492  0.1269 -1.2070 -0.9534
  823MOL0     H11064   1.055   9.288   8.353 -0.4465 -0.6574  0.6909
  823MOL0     H11065   0.804   9.257   8.335 -1.3664 -1.3179 -2.3502
  823MOL0     H11066   0.554   9.247   8.136  2.3217  0.4446 -1.2380
  823MOL0     H11067   0.648   9.165   8.261  0.9069  0.8714 -0.7454
  823MOL0     H11068   0.490   9.214   8.310 -1.9729  1.5162 -1.8367
  823MOL0     H11069   0.165   9.334   8.307  1.6419 -0.6822  0.0596
  823MOL0     H11070  -0.067   9.350   8.242 -1.6118  0.7006 -1.6304
  823MOL0     H11071  -0.163   9.622   7.878 -0.8155 -0.4784 -1.5839
  823MOL0     H11072  -0.274   9.485   7.895 -0.5343  2.0331 -2.3647
  823MOL0     H11073  -0.310   9.750   8.038 -2.4727 -2.5170  3.1861
  823MOL0     H11074  -0.371   9.719   7.876  1.4164 -2.1134 -1.9773
  823MOL0     H11075  -0.429   9.559   8.125  3.9974  2.4459  0.3278
  823MOL0     H11076  -0.486   9.515   7.970 -0.4314  0.0401  1.9309
  823MOL0     H11077  -0.557   9.778   8.117  0.1440 -0.6076  1.2033
  823MOL0     H11078  -0.589   9.746   7.941  3.6082 -0.4522 -1.6474
  823MOL0     H11079  -0.683   9.606   8.187  1.6001  1.2472  0.1802
  823MOL0     H11080  -0.672   9.511   8.039  2.3743  1.0365 -1.4835
  823MOL0     H11081  -0.901   9.607   8.106 -1.3947 -1.2449 -2.5201
  823MOL0     H11082  -0.830   9.764   8.082 -1.9788 -0.2511 -1.0635
  823MOL0     H11083  -0.824   9.554   7.867 -1.5693 -0.1956  0.3819
  823MOL0     H11084  -0.801   9.727   7.828  3.5419 -1.3555  0.9810
  823MOL0     H11085  -1.039   9.749   7.899 -0.5762  0.0388 -1.4478
  823MOL0     H11086  -1.048   9.569   7.909 -0.5662 -0.8204 -1.7546
  823MOL0     H11087   0.050   9.624   7.920  0.3171  3.8654  1.7717
  823MOL0     H11088   0.267   9.611   7.982  0.5014  1.0374  1.4963
  823MOL0     H11089   0.583   9.705   8.362  3.1298  2.3955 -0.3533
  823MOL0     H11090   0.820   9.679   8.419  0.7358  1.1014 -2.4044
  823MOL0     H11091   2.596   8.500   8.097 -1.2978  0.2940  0.0931
  823MOL0     H11092   2.824   8.532   8.045 -2.1301 -0.2881 -1.1135
  823MOL0     H11093   3.280   8.611   7.899 -1.0321  0.1431  0.6045
  823MOL0     H11094   3.519   8.695   7.916 -1.9520 -0.9870 -0.9372
  823MOL0     H11095   3.639   9.008   8.189 -0.6383 -2.0705  3.5486
  823MOL0     H11096   3.764   8.892   8.254  0.7506 -0.1087  0.7983
  823MOL0     H11097   3.856   8.882   8.019 -0.5405 -0.0900  1.8529
  823MOL0     H11098   3.880   9.031   8.114  1.2970  0.9314 -0.7551
  823MOL0     H11099   3.688   9.146   8.012 -2.1594  1.3890 -5.2124
  823MOL0     H11100   3.653   9.004   7.914  0.4575 -3.7419  2.5973
  823MOL0     H11101   3.930   9.133   7.903  0.8292 -0.1308 -1.9631
  823MOL0     H11102   3.799   9.212   7.820 -1.6804  0.1142  1.2724
  823MOL0     H11103   3.898   8.855   7.602 -0.3980 -0.1209 -0.6011
  823MOL0     H11104   3.444   8.868   8.289 -1.8424  0.4429  0.1868
  823MOL0     H11105   3.215   8.796   8.277 -1.5450 -1.5219 -0.5875
  824MOL0     O11106   4.199   4.537   5.539  0.2602 -0.0015  0.7213
  824MOL0     C11107   4.235   4.434   5.470  0.3706  0.1481 -0.9034
  824MOL0     O11108   4.165   4.378   5.367 -0.3298 -0.0690  0.0100
  824MOL0     C11109   4.044   4.448   5.338 -0.3070  0.1441  0.2321
  824MOL0     C11110   4.028   4.499   5.208 -0.5679 -0.6903  0.4212
  824MOL0     C11111   3.902   4.552   5.158 -0.8730 -0.4650 -0.4802
  824MOL0     C11112   3.797   4.558   5.251 -0.7028  0.8382  0.0026
  824MOL0     O11113   3.676   4.615   5.225 -0.0535 -0.4414 -0.2300
  824MOL0     C11114   3.661   4.755   5.173 -0.8599 -0.5365 -0.1288
  824MOL0     C11115   3.548   4.830   5.247 -0.0438 -0.3010  0.1543
  824MOL0     C11116   3.425   4.738   5.257  0.2199  0.8884  0.5516
  824MOL0     C11117   3.302   4.833   5.275  0.3553 -0.2984  0.3799
  824MOL0     C11118   3.178   4.749   5.296  0.5211  0.0668 -0.6295
  824MOL0     C11119   3.056   4.846   5.319 -0.3367  0.1289  0.2989
  824MOL0     C11120   2.929   4.755   5.330  0.5152  0.0509 -0.0378
  824MOL0     C11121   2.811   4.846   5.305  0.4142 -0.4609 -0.4173
  824MOL0     N11122   2.675   4.779   5.319  0.9743  0.2420 -0.2195
  824MOL0     C11123   2.605   4.760   5.438  0.2185 -0.2457 -0.8075
  824MOL0     C11124   2.481   4.720   5.407  0.2650  0.3724  0.0505
  824MOL0     C11125   2.379   4.697   5.519  0.5283 -0.6741 -0.9564
  824MOL0     C11126   2.418   4.589   5.634 -0.4706  0.7549 -0.1246
  824MOL0     C11127   2.427   4.448   5.568  0.1310 -0.6039  0.4651
  824MOL0     C11128   2.289   4.372   5.582 -0.0890 -0.1370 -0.6183
  824MOL0     O11129   2.193   4.429   5.496  0.7215  0.4678 -0.1839
  824MOL0     C11130   2.079   4.478   5.545 -0.2912  1.0796  0.5347
  824MOL0     C11131   2.007   4.396   5.630  0.2060  0.1493  0.6541
  824MOL0     C11132   1.874   4.438   5.672  0.1690  0.6916 -0.0724
  824MOL0     C11133   1.810   4.332   5.761  0.4865  0.4189 -0.3212
  824MOL0     C11134   1.825   4.564   5.647 -0.1873  0.0200  0.3682
  824MOL0     C11135   1.699   4.622   5.693  0.5388 -0.0332 -0.4836
  824MOL0     O11136   1.683   4.754   5.667  0.6791 -0.3608  0.0518
  824MOL0     C11137   1.566   4.808   5.710 -0.2996 -0.5151  0.0112
  824MOL0     C11138   1.550   4.819   5.851 -0.0809 -0.5762 -0.5897
  824MOL0     C11139   1.430   4.867   5.912 -0.0244  0.0308  0.2349
  824MOL0     C11140   1.315   4.897   5.829 -0.3143 -0.2973 -0.1993
  824MOL0     O11141   1.195   4.936   5.894  0.1700 -0.0920 -0.3931
  824MOL0     C11142   1.069   4.950   5.826 -0.8369  0.2412 -0.6895
  824MOL0     C11143   0.992   5.048   5.909  0.0180 -1.3461 -0.3667
  824MOL0     C11144   0.894   5.121   5.827 -0.4038  0.1071 -0.7684
  824MOL0     C11145   0.812   5.227   5.908 -0.2989  0.0877 -0.0467
  824MOL0     C11146   0.680   5.257   5.841 -0.4626 -0.7155  0.0224
  824MOL0     C11147   0.619   5.369   5.922  0.2023  0.1510  0.3066
  824MOL0     C11148   0.478   5.381   5.866  0.0705  0.0269  0.2439
  824MOL0     C11149   0.426   5.515   5.899 -0.2535  0.7544  0.5135
  824MOL0    Cl11150   0.262   5.549   5.837 -0.2834 -0.0240  0.0153
  824MOL0     C11151   1.334   4.870   5.691  0.4555  1.2691 -1.3219
  824MOL0     C11152   1.453   4.833   5.631  0.4353  1.0069 -0.1771
  824MOL0     O11153   1.617   4.547   5.742  0.7698  0.5690 -0.3771
  824MOL0     C11154   1.905   4.651   5.567  0.0239 -0.2059 -0.2635
  824MOL0     C11155   2.026   4.608   5.513  0.6202 -0.0823 -0.4875
  824MOL0     N11156   2.474   4.723   5.270  0.2933  0.4426 -0.2787
  824MOL0     N11157   2.582   4.749   5.222 -0.1240  0.3910 -0.1432
  824MOL0     C11158   3.818   4.510   5.386  0.4729  0.0660 -0.1303
  824MOL0     C11159   3.940   4.466   5.425  0.4972  0.3688  0.7039
  824MOL0     C11160   4.354   4.364   5.526  0.2522 -0.7424 -0.4360
  824MOL0     C11161   4.424   4.268   5.455 -0.5500 -0.7602  0.6471
  824MOL0     C11162   4.540   4.204   5.509 -0.5333 -0.1427  0.5099
  824MOL0     C11163   4.577   4.221   5.643  0.0524  0.5426 -0.6820
  824MOL0     O11164   4.687   4.163   5.707 -0.0070 -0.0971  0.3758
  824MOL0     C11165   4.752   4.054   5.639 -0.3877  0.7550  0.4360
  824MOL0     C11166   4.844   3.974   5.729 -0.2300  0.2487 -0.2821
  824MOL0     C11167   4.955   4.048   5.794  0.2697  0.5699  0.0333
  824MOL0     C11168   5.053   3.947   5.851  0.6491 -0.2664  0.7793
  824MOL0     C11169   5.169   4.020   5.896  0.5379  0.3052 -0.2197
  824MOL0     C11170   5.272   4.077   5.936 -0.2250 -0.0363  0.0409
  824MOL0     C11171   4.497   4.309   5.715 -0.8126  0.0668 -0.4332
  824MOL0     C11172   4.388   4.385   5.660 -0.2275  0.9639 -0.1078
  824MOL0     H11173   4.114   4.495   5.142 -1.0338  2.1144 -0.4971
  824MOL0     H11174   3.889   4.597   5.061  1.3331  1.2685 -0.0699
  824MOL0     H11175   3.750   4.812   5.202 -1.0025  1.9239 -3.8776
  824MOL0     H11176   3.662   4.764   5.064  2.3201  1.2885 -0.0752
  824MOL0     H11177   3.581   4.855   5.348  2.2290 -3.9879  0.4970
  824MOL0     H11178   3.520   4.922   5.195 -1.4360 -0.4121  0.6460
  824MOL0     H11179   3.412   4.670   5.173  0.1570  3.8430 -2.0358
  824MOL0     H11180   3.425   4.670   5.342  0.0973  1.9985  1.4677
  824MOL0     H11181   3.318   4.896   5.363  2.9622 -0.6761  0.2504
  824MOL0     H11182   3.289   4.891   5.183  1.5917 -0.3586  0.1413
  824MOL0     H11183   3.180   4.695   5.201  4.2435  1.1504 -1.3339
  824MOL0     H11184   3.191   4.681   5.380 -0.6631 -1.0380 -1.3125
  824MOL0     H11185   3.053   4.911   5.406 -1.3034  0.0708  0.3266
  824MOL0     H11186   3.057   4.916   5.235 -0.0499  0.5912  0.6854
  824MOL0     H11187   2.933   4.670   5.261  3.1361  1.1692 -1.3859
  824MOL0     H11188   2.925   4.706   5.427  1.8581 -0.4607 -0.2129
  824MOL0     H11189   2.838   4.874   5.203  2.4595  0.1071  0.2173
  824MOL0     H11190   2.820   4.940   5.360  0.3421  1.1350 -2.9620
  824MOL0     H11191   2.654   4.764   5.535  0.9216  1.1722 -1.1894
  824MOL0     H11192   2.361   4.791   5.570 -2.7884 -2.5403  1.6789
  824MOL0     H11193   2.285   4.665   5.474 -1.6709  0.3191  2.5571
  824MOL0     H11194   2.333   4.583   5.703 -0.7708 -4.3818 -0.5000
  824MOL0     H11195   2.510   4.613   5.688 -1.1127 -0.1394  1.4475
  824MOL0     H11196   2.510   4.400   5.622  0.1143 -0.7936  0.3236
  824MOL0     H11197   2.457   4.445   5.463  2.5182  0.7732  1.0057
  824MOL0     H11198   2.267   4.378   5.689  4.1750 -3.1205  0.6920
  824MOL0     H11199   2.303   4.268   5.553 -1.3405 -0.6535  0.5228
  824MOL0     H11200   2.028   4.291   5.647  0.3843  0.2158  0.8518
  824MOL0     H11201   1.881   4.250   5.773  1.3636  0.9900 -1.4190
  824MOL0     H11202   1.769   4.375   5.853  0.8273  1.3649 -0.5995
  824MOL0     H11203   1.725   4.296   5.702 -1.3970  0.0158  2.4781
  824MOL0     H11204   1.634   4.806   5.918 -0.8746 -0.4296  0.4525
  824MOL0     H11205   1.417   4.875   6.020 -4.2311  1.1382 -0.1539
  824MOL0     H11206   1.092   4.976   5.722  3.0064 -0.3326 -0.1122
  824MOL0     H11207   1.013   4.856   5.825  1.6856 -1.3683 -2.7477
  824MOL0     H11208   0.938   5.002   5.993 -0.2063  1.0559  0.9149
  824MOL0     H11209   1.063   5.117   5.955 -0.7896 -1.9325  1.9169
  824MOL0     H11210   0.836   5.043   5.776  0.9662 -3.3695  2.5172
  824MOL0     H11211   0.945   5.182   5.751 -0.2991  2.1070  0.8393
  824MOL0     H11212   0.791   5.183   6.007  1.2744  2.3732  1.3948
  824MOL0     H11213   0.871   5.318   5.920 -2.0748  1.7790 -3.0153
  824MOL0     H11214   0.615   5.170   5.848 -2.1361  0.6072  1.7809
  824MOL0     H11215   0.705   5.283   5.737  0.6036 -0.9527  0.2008
  824MOL0     H11216   0.605   5.353   6.030 -3.6438 -2.0931 -0.3493
  824MOL0     H11217   0.680   5.459   5.909  2.4776 -1.4029 -0.3004
  824MOL0     H11218   0.422   5.293   5.899 -0.5952 -0.1034 -1.1555
  824MOL0     H11219   0.479   5.376   5.756  3.4107 -0.4978  0.2058
  824MOL0     H11220   0.499   5.591   5.870 -0.7305  1.1767  0.4207
  824MOL0     H11221   0.423   5.535   6.007  2.1684 -0.3629  0.8745
  824MOL0     H11222   1.241   4.865   5.636 -1.1796 -2.1607  1.3693
  824MOL0     H11223   1.444   4.828   5.523 -1.3473  0.7311 -0.0522
  824MOL0     H11224   1.868   4.750   5.544  0.7933  0.2505  0.4155
  824MOL0     H11225   2.079   4.678   5.450  2.6631  0.1311  1.3647
  824MOL0     H11226   3.728   4.490   5.443 -0.1272  0.7278 -0.8285
  824MOL0     H11227   3.939   4.444   5.531  0.4194  0.4753  0.7243
  824MOL0     H11228   4.393   4.241   5.355  1.4541  2.9391 -1.1970
  824MOL0     H11229   4.604   4.132   5.459  1.2393  0.6543  1.5050
  824MOL0     H11230   4.681   3.985   5.593  2.3885 -0.9837 -1.5186
  824MOL0     H11231   4.812   4.091   5.555 -0.0357  1.1068  0.8400
  824MOL0     H11232   4.867   3.881   5.676 -1.9988  0.4871 -1.5847
  824MOL0     H11233   4.788   3.942   5.818 -0.5377  0.3129 -0.4486
  824MOL0     H11234   4.916   4.110   5.876  1.1740 -0.1652  1.0657
  824MOL0     H11235   4.996   4.120   5.723 -0.3894  1.1713  0.2497
  824MOL0     H11236   5.077   3.858   5.791 -3.4465 -0.7634 -0.4155
  824MOL0     H11237   4.998   3.907   5.936 -2.7130  1.6943 -0.2916
  824MOL0     H11238   5.350   4.141   5.973 -0.9058  0.8943 -0.0920
  824MOL0     H11239   4.513   4.330   5.820 -0.6347 -1.7400 -0.0780
  824MOL0     H11240   4.320   4.442   5.722 -1.0872 -0.4334  0.2897
  825MOL0     O11241   6.689   0.090   4.828 -0.1921 -0.4677 -0.5942
  825MOL0     C11242   6.723   0.028   4.730 -0.8007 -0.8657 -0.5745
  825MOL0     O11243   6.640  -0.047   4.651 -0.0910 -0.4098 -0.0248
  825MOL0     C11244   6.504  -0.029   4.641 -0.2088 -0.2346  0.1948
  825MOL0     C11245   6.444  -0.100   4.537  0.2905  0.1741  0.0240
  825MOL0     C11246   6.314  -0.088   4.494  0.0234 -0.8702  0.4260
  825MOL0     C11247   6.223  -0.012   4.582 -0.8906  0.3477 -0.3530
  825MOL0     O11248   6.089  -0.003   4.546 -1.1066  1.2228  0.5113
  825MOL0     C11249   6.013   0.110   4.584  0.0368 -0.3429  1.1236
  825MOL0     C11250   5.889   0.122   4.492  0.5237  0.2846  0.4236
  825MOL0     C11251   5.921   0.176   4.345 -0.0955  0.7302 -0.2522
  825MOL0     C11252   5.841   0.294   4.298 -0.6197  0.2542 -0.4278
  825MOL0     C11253   5.696   0.261   4.286  0.3164 -0.4212  0.0941
  825MOL0     C11254   5.599   0.384   4.287 -0.7141  0.4089  0.6638
  825MOL0     C11255   5.622   0.478   4.163  0.2673  0.4965  0.0465
  825MOL0     C11256   5.521   0.589   4.144 -0.3113 -0.4178 -0.0937
  825MOL0     N11257   5.512   0.679   4.262 -0.9631  0.1572 -0.4202
  825MOL0     C11258   5.428   0.637   4.363  0.6441 -0.9557  1.1190
  825MOL0     C11259   5.435   0.734   4.455 -0.8993 -0.1461 -0.5286
  825MOL0     C11260   5.350   0.724   4.575 -0.4760  0.7657  1.4659
  825MOL0     C11261   5.237   0.826   4.590 -0.8026 -0.1925  1.0127
  825MOL0     C11262   5.181   0.812   4.746 -0.8483  0.7369  0.7014
  825MOL0     C11263   5.077   0.911   4.777  0.4715 -0.0595 -0.2326
  825MOL0     O11264   4.978   0.891   4.684  0.6898 -0.8869  0.4683
  825MOL0     C11265   4.868   0.798   4.698 -0.7012 -0.9184  0.5046
  825MOL0     C11266   4.824   0.755   4.577 -0.3479  0.5350  0.9667
  825MOL0     C11267   4.722   0.662   4.567  0.2101 -0.0087  0.3782
  825MOL0     C11268   4.684   0.616   4.425 -0.2966 -0.3924 -0.2692
  825MOL0     C11269   4.664   0.610   4.683 -0.2129  0.7921 -0.4703
  825MOL0     C11270   4.562   0.511   4.681  0.2298 -0.4841 -0.8791
  825MOL0     O11271   4.566   0.398   4.761 -0.1894 -0.2528  0.0571
  825MOL0     C11272   4.449   0.321   4.767 -0.3138 -0.7024  0.6419
  825MOL0     C11273   4.338   0.377   4.833  0.0652 -0.0466  0.3432
  825MOL0     C11274   4.215   0.302   4.833 -0.3463 -0.6865 -0.3279
  825MOL0     C11275   4.217   0.172   4.792  0.5912  0.1446 -0.1133
  825MOL0     O11276   4.111   0.089   4.805 -0.0666  0.1282  1.0602
  825MOL0     C11277   3.988   0.149   4.840  0.7329  0.1146 -0.1829
  825MOL0     C11278   3.878   0.045   4.815 -0.0975  0.0041 -0.7557
  825MOL0     C11279   3.750   0.101   4.873  0.2781  0.0940  0.0372
  825MOL0     C11280   3.635   0.014   4.820 -0.2590 -0.7503  0.7994
  825MOL0     C11281   3.503   0.014   4.893 -0.1525 -0.4551 -0.6687
  825MOL0     C11282   3.406  -0.084   4.814 -0.6805  0.0249  0.3815
  825MOL0     C11283   3.269  -0.120   4.879 -0.3401 -0.0122  0.3995
  825MOL0     C11284   3.190   0.005   4.934 -0.6505 -0.0583  0.9660
  825MOL0    Cl11285   3.022  -0.041   4.994 -0.0301 -0.0252  0.3990
  825MOL0     C11286   4.326   0.112   4.745  0.7348  0.3110  0.0400
  825MOL0     C11287   4.441   0.186   4.723  0.5765 -1.0104 -0.6777
  825MOL0     O11288   4.467   0.550   4.622 -0.4441  0.0869 -0.6747
  825MOL0     C11289   4.719   0.646   4.811  0.0285 -0.8242 -0.1419
  825MOL0     C11290   4.820   0.741   4.820 -0.8307 -0.3383 -0.1871
  825MOL0     N11291   5.530   0.825   4.412 -0.6055  0.2277  0.4507
  825MOL0     N11292   5.576   0.797   4.297 -0.1933  0.0459 -0.7608
  825MOL0     C11293   6.287   0.060   4.691  0.5602 -0.7111  0.0548
  825MOL0     C11294   6.423   0.037   4.729  0.6313  0.1631  0.2925
  825MOL0     C11295   6.873   0.026   4.709  0.2340 -0.6926 -0.4246
  825MOL0     C11296   6.943  -0.074   4.650 -0.2693 -0.1337 -0.1245
  825MOL0     C11297   7.084  -0.065   4.638  0.1252  0.3577  0.1888
  825MOL0     C11298   7.147   0.050   4.686 -0.2347  0.0295 -0.3192
  825MOL0     O11299   7.287   0.075   4.671  0.6779  0.8206  0.8098
  825MOL0     C11300   7.359   0.017   4.565 -0.1796  1.2653  0.4062
  825MOL0     C11301   7.509   0.055   4.571 -1.1208  0.1174 -0.6422
  825MOL0     C11302   7.586  -0.060   4.509  0.3924  0.1311 -0.3594
  825MOL0     C11303   7.719  -0.018   4.455 -0.5498  0.1016  0.0622
  825MOL0     C11304   7.776  -0.138   4.389  0.6004 -0.2110 -0.3682
  825MOL0     C11305   7.809  -0.233   4.320  0.3804  0.3367  0.0200
  825MOL0     C11306   7.078   0.146   4.748 -0.2063  0.3209  0.1651
  825MOL0     C11307   6.941   0.140   4.763  0.0137  0.8605  0.3307
  825MOL0     H11308   6.505  -0.171   4.483 -1.4799 -2.7880  1.6541
  825MOL0     H11309   6.284  -0.133   4.400 -0.1515  1.1946 -0.5652
  825MOL0     H11310   5.992   0.093   4.690  1.7448 -3.4125  1.1091
  825MOL0     H11311   6.065   0.206   4.577 -1.1566  0.2579  0.1646
  825MOL0     H11312   5.838   0.026   4.488  2.3052 -0.6622 -1.7296
  825MOL0     H11313   5.823   0.195   4.540 -0.3533 -0.8891  1.0201
  825MOL0     H11314   6.027   0.203   4.339 -0.2630  1.2149 -1.1686
  825MOL0     H11315   5.900   0.089   4.283 -1.4133 -0.1452  1.3383
  825MOL0     H11316   5.858   0.359   4.384 -0.0125 -1.7547  1.0563
  825MOL0     H11317   5.888   0.335   4.208 -0.6265  1.8231  0.2639
  825MOL0     H11318   5.672   0.200   4.198  0.4356  0.0174 -0.2455
  825MOL0     H11319   5.670   0.205   4.376 -2.5393  3.4453  1.9988
  825MOL0     H11320   5.496   0.349   4.275 -0.8452  0.8322  0.5250
  825MOL0     H11321   5.609   0.440   4.380 -0.1475 -1.6541  1.9014
  825MOL0     H11322   5.724   0.514   4.176  1.3627 -1.7754 -1.6410
  825MOL0     H11323   5.640   0.412   4.078 -0.3238 -0.6159  0.7634
  825MOL0     H11324   5.419   0.550   4.132 -1.4825  2.2670  0.3252
  825MOL0     H11325   5.548   0.657   4.062 -2.2541 -2.4108 -2.5651
  825MOL0     H11326   5.361   0.551   4.359  1.2752 -1.5454  2.4775
  825MOL0     H11327   5.311   0.622   4.588  1.8706 -0.7410 -1.9761
  825MOL0     H11328   5.420   0.733   4.658  0.5876  1.4235  0.5248
  825MOL0     H11329   5.161   0.800   4.514  1.7960 -0.2977 -1.7310
  825MOL0     H11330   5.280   0.925   4.577 -3.8796  1.3016  1.1844
  825MOL0     H11331   5.261   0.829   4.818  0.0157  1.7708 -0.4701
  825MOL0     H11332   5.150   0.708   4.766 -0.4288  1.0624  3.4365
  825MOL0     H11333   5.111   1.015   4.769  2.1570 -0.4368  1.3502
  825MOL0     H11334   5.043   0.912   4.881  1.3252  1.0799  0.0634
  825MOL0     H11335   4.863   0.794   4.484 -2.6346  0.6306 -0.0373
  825MOL0     H11336   4.776   0.626   4.367 -0.1915  1.7382  0.1840
  825MOL0     H11337   4.645   0.514   4.429 -0.6040 -0.2338  1.3085
  825MOL0     H11338   4.614   0.687   4.378  2.9523  3.0769 -0.3810
  825MOL0     H11339   4.337   0.478   4.873  2.3362 -0.1851  0.8682
  825MOL0     H11340   4.133   0.358   4.877  1.1126 -0.0533  1.7202
  825MOL0     H11341   3.993   0.198   4.938  0.2533 -1.6168  0.7402
  825MOL0     H11342   3.970   0.224   4.762  2.4945 -1.0375 -1.8023
  825MOL0     H11343   3.872   0.017   4.709 -2.1157 -0.9235 -0.4392
  825MOL0     H11344   3.912  -0.040   4.874 -0.8941 -0.1635 -0.5261
  825MOL0     H11345   3.727   0.199   4.830  0.2707 -0.9297 -2.4724
  825MOL0     H11346   3.753   0.105   4.982 -2.6022 -2.2454  0.3307
  825MOL0     H11347   3.613   0.054   4.721  1.8293  0.8748  0.9094
  825MOL0     H11348   3.667  -0.090   4.806 -0.3916 -1.2803  3.7727
  825MOL0     H11349   3.468   0.118   4.903  1.0148 -0.1224  0.1254
  825MOL0     H11350   3.511  -0.022   4.996 -0.4273 -2.7629 -1.3955
  825MOL0     H11351   3.392  -0.040   4.715  1.9681  0.6628  0.2140
  825MOL0     H11352   3.461  -0.175   4.789 -0.3459 -0.3777  2.4095
  825MOL0     H11353   3.282  -0.189   4.963  0.7580  0.9839  1.0894
  825MOL0     H11354   3.213  -0.164   4.796  0.6346 -1.1855  0.3297
  825MOL0     H11355   3.178   0.084   4.859 -1.1369  0.2412  1.3497
  825MOL0     H11356   3.244   0.061   5.012  0.1761  3.1115 -1.6492
  825MOL0     H11357   4.306   0.012   4.709  0.4601  0.9852 -1.8171
  825MOL0     H11358   4.533   0.152   4.677  2.6449  2.5742  0.4174
  825MOL0     H11359   4.677   0.596   4.898 -0.1811  0.5836  0.5995
  825MOL0     H11360   4.866   0.783   4.909 -0.4718  1.5105 -1.1985
  825MOL0     H11361   6.229   0.124   4.757 -0.4395  0.2412 -1.6732
  825MOL0     H11362   6.457   0.081   4.822  1.9227  1.7781 -0.8841
  825MOL0     H11363   6.890  -0.159   4.607 -0.5717  2.0532 -4.7041
  825MOL0     H11364   7.140  -0.146   4.592  1.3623  1.7673 -0.8868
  825MOL0     H11365   7.352  -0.089   4.594  0.2914  1.1004 -0.0676
  825MOL0     H11366   7.323   0.014   4.462  1.8597  0.9340 -0.3422
  825MOL0     H11367   7.533   0.056   4.678  0.3267 -1.7849 -0.8949
  825MOL0     H11368   7.527   0.155   4.530  0.2035 -0.3169 -1.1500
  825MOL0     H11369   7.519  -0.095   4.430 -2.3177  0.2822  1.7556
  825MOL0     H11370   7.597  -0.141   4.582  3.5741  1.6734  1.0866
  825MOL0     H11371   7.784   0.034   4.526  0.0955  2.1506 -1.9101
  825MOL0     H11372   7.700   0.062   4.384  0.6164 -0.5844 -1.0758
  825MOL0     H11373   7.839  -0.312   4.254  1.1499  0.5462  0.1043
  825MOL0     H11374   7.145   0.221   4.786 -0.8172 -0.1142  2.2514
  825MOL0     H11375   6.891   0.232   4.790  1.2497  2.2352 -1.7908
  826MOL0     O11376   1.313   1.144   7.950  0.6707  1.0237 -0.2369
  826MOL0     C11377   1.343   1.153   8.069  0.3034  1.1296  0.3405
  826MOL0     O11378   1.276   1.222   8.169  0.2595  0.1083 -0.0167
  826MOL0     C11379   1.151   1.271   8.171 -0.0023 -0.7961  0.3193
  826MOL0     C11380   1.072   1.305   8.063  0.5177  0.2328 -0.1768
  826MOL0     C11381   0.940   1.347   8.073  0.4877 -0.6106 -0.1842
  826MOL0     C11382   0.885   1.372   8.198 -0.0905  0.2182 -0.0553
  826MOL0     O11383   0.759   1.419   8.216  0.4271  0.4164  0.7200
  826MOL0     C11384   0.712   1.505   8.116 -1.0989  0.3686  0.9667
  826MOL0     C11385   0.596   1.589   8.160  0.3916 -0.1518 -0.2194
  826MOL0     C11386   0.472   1.510   8.180  0.1720  0.1890  0.3606
  826MOL0     C11387   0.372   1.608   8.241  0.3558 -0.2510 -0.9775
  826MOL0     C11388   0.255   1.538   8.318  0.7204  0.5216  0.1846
  826MOL0     C11389   0.178   1.430   8.232 -1.0962 -0.3129 -0.1484
  826MOL0     C11390   0.071   1.365   8.329 -0.6468 -0.8151 -0.0834
  826MOL0     C11391  -0.009   1.254   8.258  1.1092 -0.4907 -0.9954
  826MOL0     N11392  -0.106   1.183   8.349 -0.2588 -0.8675  0.5943
  826MOL0     C11393  -0.206   1.251   8.418  0.4376 -0.0850  0.5286
  826MOL0     C11394  -0.274   1.152   8.486  0.2368 -0.0266 -0.0105
  826MOL0     C11395  -0.377   1.176   8.598 -1.0504 -0.6100  0.4886
  826MOL0     C11396  -0.508   1.165   8.546  0.6725  0.3700 -0.2834
  826MOL0     C11397  -0.611   1.115   8.654  0.3872  0.3279  1.0264
  826MOL0     C11398  -0.752   1.084   8.594  0.4236  0.9528  0.0290
  826MOL0     O11399  -0.750   0.977   8.502 -0.4919  0.2394  0.8919
  826MOL0     C11400  -0.868   0.934   8.447 -0.1364  0.4184  0.1812
  826MOL0     C11401  -0.857   0.845   8.336 -0.4982 -0.9053  0.1399
  826MOL0     C11402  -0.971   0.801   8.265  0.1050 -0.2958  0.6628
  826MOL0     C11403  -0.959   0.705   8.150  0.2321 -0.0186  0.1375
  826MOL0     C11404  -1.095   0.838   8.323 -0.3571  0.5382  0.4237
  826MOL0     C11405  -1.218   0.798   8.259  0.5149  0.9164  0.0599
  826MOL0     O11406  -1.307   0.891   8.221  0.2161 -0.7071  0.0246
  826MOL0     C11407  -1.436   0.862   8.197  1.0261 -0.1460  0.0637
  826MOL0     C11408  -1.518   0.796   8.292 -1.2478  0.1957  0.8949
  826MOL0     C11409  -1.650   0.780   8.254  0.2856  0.2902 -0.2016
  826MOL0     C11410  -1.706   0.834   8.135 -1.0597 -0.0777 -0.3569
  826MOL0     O11411  -1.845   0.835   8.121  0.4653 -0.3203 -0.2117
  826MOL0     C11412  -1.923   0.761   8.207  0.1982  0.3052 -0.4646
  826MOL0     C11413  -2.075   0.755   8.154 -1.2837 -0.4696 -0.1624
  826MOL0     C11414  -2.163   0.668   8.248 -0.1484 -0.5095  0.2867
  826MOL0     C11415  -2.293   0.638   8.183  0.1850  0.3057 -0.4032
  826MOL0     C11416  -2.359   0.518   8.256  0.0540 -0.4244  0.0650
  826MOL0     C11417  -2.490   0.479   8.183  0.6180  0.5020  0.3831
  826MOL0     C11418  -2.615   0.559   8.226  0.4833 -0.0110  0.5784
  826MOL0     C11419  -2.708   0.466   8.319 -0.3505 -0.9147  0.6961
  826MOL0    Cl11420  -2.612   0.426   8.462  0.2450 -0.0071 -0.6758
  826MOL0     C11421  -1.625   0.896   8.047  0.1287 -0.5987 -0.0457
  826MOL0     C11422  -1.496   0.916   8.076 -0.3338  1.1511 -0.4756
  826MOL0     O11423  -1.242   0.678   8.272  0.3679  0.8217 -0.7817
  826MOL0     C11424  -1.101   0.930   8.427  0.7879  0.2565  0.2033
  826MOL0     C11425  -0.991   0.988   8.485  0.9166 -0.3755  0.1262
  826MOL0     N11426  -0.209   1.033   8.472  0.2279  0.3119 -0.0034
  826MOL0     N11427  -0.115   1.053   8.382  0.6599  0.1396 -1.0836
  826MOL0     C11428   0.968   1.352   8.315 -1.3110 -0.3067  0.1277
  826MOL0     C11429   1.092   1.291   8.301 -1.1967  0.2789  0.1801
  826MOL0     C11430   1.472   1.097   8.111  0.6165  0.3159  0.2712
  826MOL0     C11431   1.497   1.048   8.238  0.5606 -0.1598 -0.2275
  826MOL0     C11432   1.621   0.996   8.279  0.0725 -0.4617 -0.1742
  826MOL0     C11433   1.723   0.989   8.183 -1.0649 -0.4241 -0.4034
  826MOL0     O11434   1.847   0.939   8.205 -0.6899  0.3718 -0.4781
  826MOL0     C11435   1.885   0.887   8.333 -0.0650 -1.0798 -0.6399
  826MOL0     C11436   2.032   0.865   8.340  0.1606  0.3334 -0.2803
  826MOL0     C11437   2.073   0.751   8.246 -0.2658  0.5588 -0.0984
  826MOL0     C11438   2.225   0.721   8.231 -0.2401 -0.0966  0.4367
  826MOL0     C11439   2.282   0.665   8.347 -0.7804  0.9365 -0.6655
  826MOL0     C11440   2.329   0.608   8.442  0.2476  0.7438  0.3925
  826MOL0     C11441   1.703   1.039   8.052  0.3130 -0.2317 -0.4965
  826MOL0     C11442   1.580   1.095   8.019 -0.5843  0.1348 -0.3866
  826MOL0     H11443   1.113   1.295   7.963  0.0851 -1.8023 -0.1936
  826MOL0     H11444   0.893   1.376   7.979  2.1637  2.6532 -0.1561
  826MOL0     H11445   0.791   1.570   8.076 -0.1210 -1.4767 -0.2721
  826MOL0     H11446   0.675   1.437   8.039  0.5646 -0.4555  0.8494
  826MOL0     H11447   0.626   1.643   8.250  1.5291  1.1873 -1.3396
  826MOL0     H11448   0.582   1.663   8.081  1.8815 -0.5023 -0.8444
  826MOL0     H11449   0.427   1.473   8.088  0.5704  1.0231 -0.1850
  826MOL0     H11450   0.503   1.432   8.250 -0.5692 -0.0562  0.4178
  826MOL0     H11451   0.422   1.669   8.317 -3.5223  0.7754  1.0005
  826MOL0     H11452   0.326   1.668   8.162 -0.5000  0.7690  0.2621
  826MOL0     H11453   0.295   1.483   8.403 -2.8676  1.0255  2.4120
  826MOL0     H11454   0.176   1.609   8.345 -2.6997 -2.3006 -1.6582
  826MOL0     H11455   0.136   1.472   8.141  0.3290 -0.8633 -1.0970
  826MOL0     H11456   0.253   1.354   8.207 -1.2274 -1.1554  1.7956
  826MOL0     H11457   0.125   1.318   8.412  0.8746 -0.9538 -1.1280
  826MOL0     H11458   0.005   1.442   8.371 -0.6261  0.0206 -1.5293
  826MOL0     H11459   0.052   1.170   8.226  0.2122 -0.5495 -2.6963
  826MOL0     H11460  -0.068   1.291   8.173 -1.1691 -1.0405  0.2700
  826MOL0     H11461  -0.221   1.358   8.421 -0.9392 -0.2008 -0.7996
  826MOL0     H11462  -0.347   1.103   8.674 -0.8005 -0.1711  0.8172
  826MOL0     H11463  -0.367   1.270   8.653  0.4028  0.2228 -1.1105
  826MOL0     H11464  -0.504   1.081   8.476  0.0776  1.9330 -2.2861
  826MOL0     H11465  -0.542   1.251   8.488 -1.6955 -0.7829 -0.7441
  826MOL0     H11466  -0.631   1.193   8.728  1.0874  0.3793  1.1768
  826MOL0     H11467  -0.571   1.026   8.704 -1.3072  0.5208  2.8464
  826MOL0     H11468  -0.790   1.174   8.543  0.9067  1.8849  1.2673
  826MOL0     H11469  -0.812   1.046   8.677  1.7146  0.5358  0.7999
  826MOL0     H11470  -0.757   0.814   8.307  1.5673  1.8149  3.5180
  826MOL0     H11471  -0.860   0.662   8.171  0.0913 -1.4907 -1.9637
  826MOL0     H11472  -1.029   0.621   8.159  0.6739 -0.2673  1.5434
  826MOL0     H11473  -0.949   0.764   8.059  3.1718  2.7587  2.0486
  826MOL0     H11474  -1.460   0.756   8.374  1.7510 -0.3922 -1.3316
  826MOL0     H11475  -1.711   0.738   8.334 -0.3170  2.5025  0.5557
  826MOL0     H11476  -1.887   0.657   8.203  0.9480  0.5159  0.3332
  826MOL0     H11477  -1.907   0.795   8.310  1.4887  2.2299 -1.2646
  826MOL0     H11478  -2.118   0.855   8.143  0.8610  0.5407  0.1045
  826MOL0     H11479  -2.074   0.721   8.050 -3.8013  0.8107 -0.7073
  826MOL0     H11480  -2.182   0.718   8.344  0.7459  2.8639 -1.1429
  826MOL0     H11481  -2.110   0.576   8.274  1.7086  0.8628  1.7035
  826MOL0     H11482  -2.361   0.724   8.182 -0.1239  0.0633 -0.4124
  826MOL0     H11483  -2.275   0.605   8.081 -1.9868 -0.9246 -0.4343
  826MOL0     H11484  -2.382   0.538   8.361  1.5144 -0.8789  0.4956
  826MOL0     H11485  -2.286   0.437   8.245  1.6292  0.5599  2.5118
  826MOL0     H11486  -2.482   0.479   8.074  1.8216 -1.0310  0.4400
  826MOL0     H11487  -2.508   0.376   8.215  0.0770  0.7165  0.7743
  826MOL0     H11488  -2.681   0.582   8.142  0.0850 -0.0705  0.8736
  826MOL0     H11489  -2.599   0.656   8.273  0.8278  0.4594 -0.4800
  826MOL0     H11490  -2.734   0.383   8.253 -2.2505  0.9742 -1.1113
  826MOL0     H11491  -2.795   0.521   8.356  0.8460  0.3977  1.6537
  826MOL0     H11492  -1.655   0.942   7.953  3.6486  2.3783  0.0484
  826MOL0     H11493  -1.428   0.973   8.013  1.6348 -0.1228  0.3701
  826MOL0     H11494  -1.199   0.958   8.462  1.4494  0.2448  2.1919
  826MOL0     H11495  -0.990   1.066   8.561  1.6958 -1.1543  0.9446
  826MOL0     H11496   0.940   1.371   8.419 -0.3574 -0.3108  0.3993
  826MOL0     H11497   1.157   1.276   8.387 -1.2770 -0.0374  0.1850
  826MOL0     H11498   1.420   1.036   8.314  3.5827 -2.8057  2.7784
  826MOL0     H11499   1.620   0.947   8.375  1.4896 -2.1306 -0.9558
  826MOL0     H11500   1.855   0.958   8.410  0.9139 -2.0135  0.6513
  826MOL0     H11501   1.839   0.791   8.358 -0.3221 -1.3871 -2.1747
  826MOL0     H11502   2.057   0.842   8.444  3.1855 -0.3683 -1.0626
  826MOL0     H11503   2.085   0.953   8.302  0.7277  0.3112  0.4377
  826MOL0     H11504   2.021   0.767   8.150  0.1056 -2.7700 -0.9820
  826MOL0     H11505   2.030   0.661   8.291  3.3118 -0.3854  1.7734
  826MOL0     H11506   2.268   0.819   8.205 -3.5462  1.2588 -0.4631
  826MOL0     H11507   2.240   0.658   8.143 -0.5553 -0.9131  0.9599
  826MOL0     H11508   2.356   0.544   8.524 -2.0241  0.8830  1.3167
  826MOL0     H11509   1.782   1.041   7.978  2.0092  0.0035  1.2484
  826MOL0     H11510   1.570   1.150   7.926  0.9103 -1.1039 -1.3203
  827MOL0     O11511   1.588   3.200  10.067 -0.1365 -0.3667 -0.9492
  827MOL0     C11512   1.690   3.242  10.132 -0.1270  0.3621  1.0240
  827MOL0     O11513   1.692   3.358  10.208  0.0103 -0.2659  0.3102
  827MOL0     C11514   1.577   3.432  10.206  0.2816 -0.1334  0.6354
  827MOL0     C11515   1.560   3.541  10.117 -0.7003 -0.3689 -0.1029
  827MOL0     C11516   1.426   3.598  10.107 -0.9321 -0.0154  0.4005
  827MOL0     C11517   1.322   3.559  10.192 -0.0302  0.1657  0.5379
  827MOL0     O11518   1.205   3.635  10.177  0.7000  0.1222 -0.0360
  827MOL0     C11519   1.117   3.634  10.285  1.0578 -0.6991 -0.5382
  827MOL0     C11520   1.006   3.734  10.261  0.1693 -0.6131 -0.9036
  827MOL0     C11521   0.911   3.740  10.391  0.8953  0.9278  0.4440
  827MOL0     C11522   0.805   3.854  10.377 -0.6661 -0.0717 -0.1091
  827MOL0     C11523   0.715   3.845  10.501 -0.4230 -0.2585 -0.4000
  827MOL0     C11524   0.578   3.920  10.487 -0.5146  0.6548  0.2188
  827MOL0     C11525   0.499   3.928  10.623 -0.5684 -0.2753  0.2272
  827MOL0     C11526   0.382   4.028  10.629 -0.1541  0.0330  0.1560
  827MOL0     N11527   0.276   4.000  10.528  0.8306  0.1481 -0.4149
  827MOL0     C11528   0.228   4.081  10.429 -0.3253  0.6648  0.1658
  827MOL0     C11529   0.140   4.008  10.363  0.6420  0.5262 -0.1414
  827MOL0     C11530   0.037   4.061  10.269  0.1028  0.5828 -0.3357
  827MOL0     C11531   0.099   4.059  10.128 -0.5243  0.2163 -0.5901
  827MOL0     C11532   0.110   3.920  10.068  0.2037  0.1866  0.3957
  827MOL0     C11533   0.200   3.938   9.949 -0.2863  0.4849 -0.2018
  827MOL0     O11534   0.159   4.028   9.846 -0.7311  0.7611  0.3331
  827MOL0     C11535   0.032   4.018   9.789 -0.5944  0.0908 -0.4175
  827MOL0     C11536  -0.021   3.883   9.771 -0.2211  0.0847  0.2363
  827MOL0     C11537  -0.153   3.873   9.719 -0.1339  0.6563 -0.1890
  827MOL0     C11538  -0.207   3.734   9.721  0.7139  0.5134 -0.5160
  827MOL0     C11539  -0.222   3.992   9.681  0.7255  0.4308 -1.1031
  827MOL0     C11540  -0.361   3.991   9.628  0.3198  0.0531  0.4093
  827MOL0     O11541  -0.442   3.882   9.643  0.5396 -0.0262 -0.2193
  827MOL0     C11542  -0.565   3.863   9.583 -0.3299 -0.4827  0.3914
  827MOL0     C11543  -0.573   3.842   9.444 -0.0208  0.7955 -0.2326
  827MOL0     C11544  -0.705   3.834   9.388  0.3637  0.8726  0.2673
  827MOL0     C11545  -0.813   3.835   9.483  0.2555 -1.2533  0.1878
  827MOL0     O11546  -0.934   3.831   9.426 -0.1224 -0.0014 -0.5259
  827MOL0     C11547  -1.040   3.777   9.509  0.6275  1.0036  0.0688
  827MOL0     C11548  -1.146   3.708   9.423  0.4364 -1.6613  0.7196
  827MOL0     C11549  -1.274   3.691   9.490 -0.1840  0.4886 -0.5320
  827MOL0     C11550  -1.287   3.551   9.560  0.5585 -1.4819  0.0453
  827MOL0     C11551  -1.424   3.548   9.632 -0.4125 -0.0877  0.6446
  827MOL0     C11552  -1.463   3.415   9.700  0.6975  0.0205  0.7661
  827MOL0     C11553  -1.559   3.453   9.816  0.2008  0.3396 -0.6777
  827MOL0     C11554  -1.607   3.321   9.886  1.1394  0.3256 -0.3998
  827MOL0    Cl11555  -1.749   3.256   9.792 -0.0201  0.5630  0.9015
  827MOL0     C11556  -0.799   3.849   9.622 -0.6410 -0.0670  0.2728
  827MOL0     C11557  -0.673   3.870   9.671  0.2725  0.3398 -0.0481
  827MOL0     O11558  -0.394   4.095   9.572 -0.1763 -0.6499  0.4374
  827MOL0     C11559  -0.171   4.124   9.712  0.3517  0.6408  0.2381
  827MOL0     C11560  -0.039   4.138   9.754  0.2141 -0.4144  0.4213
  827MOL0     N11561   0.142   3.876  10.419  0.8018  0.3157  0.1650
  827MOL0     N11562   0.217   3.881  10.524 -0.8311  0.3075 -0.0200
  827MOL0     C11563   1.340   3.445  10.269  0.8211  0.3360 -0.0952
  827MOL0     C11564   1.465   3.391  10.280  0.0504  0.9990 -0.1626
  827MOL0     C11565   1.825   3.190  10.095 -0.7689  0.3895 -0.8465
  827MOL0     C11566   1.850   3.139   9.966  0.3211 -0.6936  0.5510
  827MOL0     C11567   1.978   3.111   9.922 -0.7869 -0.1680  0.2612
  827MOL0     C11568   2.097   3.151   9.991  0.2240  0.1553 -0.0266
  827MOL0     O11569   2.229   3.116   9.959 -0.4246 -0.2370 -0.3630
  827MOL0     C11570   2.255   3.043   9.829 -0.7612  0.2315 -0.5142
  827MOL0     C11571   2.406   3.003   9.805 -0.1423 -0.2497 -0.7482
  827MOL0     C11572   2.462   2.910   9.912 -0.1236 -0.6415 -0.0551
  827MOL0     C11573   2.505   2.977  10.046  1.2357  0.6584 -0.0604
  827MOL0     C11574   2.646   2.956  10.063 -0.1352 -0.1417 -0.5421
  827MOL0     C11575   2.756   2.910  10.087 -0.1638 -0.0039  0.3024
  827MOL0     C11576   2.072   3.201  10.120 -0.2758 -0.3230  0.3119
  827MOL0     C11577   1.938   3.222  10.167 -0.3540  0.4359  0.0648
  827MOL0     H11578   1.638   3.577  10.050  1.1776 -3.0474  0.4830
  827MOL0     H11579   1.400   3.676  10.036  0.0700  0.4869  0.5797
  827MOL0     H11580   1.075   3.533  10.294 -2.4772  0.1104 -4.4614
  827MOL0     H11581   1.170   3.664  10.375 -0.6785  0.6547  0.0782
  827MOL0     H11582   1.049   3.834  10.247 -2.0784  0.3446 -1.5002
  827MOL0     H11583   0.948   3.704  10.173  1.5467 -1.4265 -1.5578
  827MOL0     H11584   0.851   3.648  10.399  3.5717 -0.9426  0.2716
  827MOL0     H11585   0.963   3.762  10.485 -0.9748  1.7991  1.3340
  827MOL0     H11586   0.842   3.956  10.365  0.7345 -0.4126  1.1153
  827MOL0     H11587   0.750   3.835  10.284  0.8604 -1.0806 -0.8454
  827MOL0     H11588   0.698   3.741  10.530 -2.6456 -0.0293 -0.7380
  827MOL0     H11589   0.769   3.892  10.584 -1.2264 -0.4388  0.2374
  827MOL0     H11590   0.599   4.024  10.461 -0.0283  0.5165  0.0475
  827MOL0     H11591   0.514   3.870  10.414 -2.0041  2.6670  0.0776
  827MOL0     H11592   0.464   3.834  10.667 -1.1383  0.1177  0.6315
  827MOL0     H11593   0.571   3.972  10.693 -0.2798  0.0498 -0.2658
  827MOL0     H11594   0.433   4.124  10.617 -0.7477  0.4003  0.4894
  827MOL0     H11595   0.333   4.021  10.727  1.0631 -2.8606  0.6406
  827MOL0     H11596   0.255   4.185  10.416 -2.4937  1.2759  0.2389
  827MOL0     H11597  -0.059   4.012  10.280  1.1588 -2.1763 -2.4457
  827MOL0     H11598   0.032   4.166  10.299  0.5932  0.7268 -0.7411
  827MOL0     H11599   0.199   4.103  10.122 -0.6696  0.3493 -2.9984
  827MOL0     H11600   0.041   4.124  10.061 -0.8942  2.1444  1.4838
  827MOL0     H11601   0.005   3.892  10.057  0.0476 -0.2675  2.5517
  827MOL0     H11602   0.157   3.851  10.139  1.0608 -0.7115 -0.9842
  827MOL0     H11603   0.201   3.842   9.896 -0.8704  0.5030 -0.2449
  827MOL0     H11604   0.306   3.961   9.966  0.4467  1.3372 -4.6227
  827MOL0     H11605   0.037   3.797   9.804  2.1939  2.3746  2.5527
  827MOL0     H11606  -0.299   3.738   9.779  0.6353  3.4642 -0.7081
  827MOL0     H11607  -0.214   3.703   9.616  1.9063  0.5799 -0.6362
  827MOL0     H11608  -0.138   3.666   9.772  0.9362  1.2277  0.1621
  827MOL0     H11609  -0.478   3.833   9.391  1.5614  1.5084  2.2967
  827MOL0     H11610  -0.724   3.820   9.282 -0.1068 -2.0704  0.6471
  827MOL0     H11611  -1.010   3.705   9.586 -2.2021  0.0842  0.4173
  827MOL0     H11612  -1.084   3.861   9.563  0.9910  1.0621  0.2762
  827MOL0     H11613  -1.176   3.773   9.340 -6.3429 -0.9014  3.1698
  827MOL0     H11614  -1.107   3.612   9.389 -2.1276 -2.0999 -1.2897
  827MOL0     H11615  -1.360   3.684   9.423 -1.3348  0.3500  0.9219
  827MOL0     H11616  -1.291   3.764   9.570 -1.4132 -2.2646  1.8881
  827MOL0     H11617  -1.285   3.472   9.485 -1.4216 -0.7958 -0.8047
  827MOL0     H11618  -1.199   3.535   9.623  0.2363 -2.4465  0.2635
  827MOL0     H11619  -1.490   3.552   9.545 -0.7919 -0.5939  0.9009
  827MOL0     H11620  -1.420   3.631   9.703 -0.8750  1.5207 -1.1453
  827MOL0     H11621  -1.496   3.340   9.627  0.2856  0.3605  0.6007
  827MOL0     H11622  -1.365   3.380   9.734  1.3027  1.6162  0.7250
  827MOL0     H11623  -1.649   3.505   9.783 -2.1235 -1.6745  2.0560
  827MOL0     H11624  -1.508   3.515   9.889  1.5713 -1.0311 -0.4117
  827MOL0     H11625  -1.648   3.343   9.985 -0.4290 -0.9744 -0.7180
  827MOL0     H11626  -1.519   3.256   9.888  1.7026  1.0850  0.4488
  827MOL0     H11627  -0.881   3.842   9.693 -1.5485  1.4595 -0.5867
  827MOL0     H11628  -0.658   3.890   9.777 -0.9649  2.4422 -0.2012
  827MOL0     H11629  -0.236   4.210   9.698  2.0138  1.8473 -0.3377
  827MOL0     H11630   0.001   4.237   9.771 -0.2919 -0.2816  0.8709
  827MOL0     H11631   1.253   3.413  10.325  0.5639 -0.3013 -0.8368
  827MOL0     H11632   1.469   3.300  10.339 -0.4128 -1.6895 -3.9467
  827MOL0     H11633   1.772   3.135   9.891  1.6883 -0.9419 -0.9140
  827MOL0     H11634   1.979   3.073   9.820  1.1018 -2.6177  1.1227
  827MOL0     H11635   2.199   2.949   9.832  1.2449 -0.9828  0.9363
  827MOL0     H11636   2.227   3.103   9.742 -1.2927 -0.6206 -0.9502
  827MOL0     H11637   2.465   3.094   9.793 -2.0000  1.1780  0.5208
  827MOL0     H11638   2.412   2.952   9.708  1.2901  0.2384 -0.9385
  827MOL0     H11639   2.538   2.845   9.868 -1.2036 -1.8041 -0.2663
  827MOL0     H11640   2.376   2.847   9.936 -2.1625  2.3204  0.9043
  827MOL0     H11641   2.458   2.922  10.129  0.0962  0.0831 -1.0629
  827MOL0     H11642   2.484   3.084  10.054 -3.9499 -0.1959  1.5049
  827MOL0     H11643   2.845   2.866  10.128  0.7567  0.2192 -1.4093
  827MOL0     H11644   2.162   3.230  10.172  0.8819  3.5892 -3.3012
  827MOL0     H11645   1.939   3.274  10.262  4.1644  0.4216  0.2683
  828MOL0     O11646   4.962   1.645   9.247 -1.0647  0.3178  0.0946
  828MOL0     C11647   4.992   1.693   9.138  0.7482  0.0219 -0.1272
  828MOL0     O11648   4.909   1.689   9.030 -0.4918 -0.0264 -0.1146
  828MOL0     C11649   4.773   1.669   9.032 -0.4577 -0.1871 -0.0969
  828MOL0     C11650   4.708   1.576   9.097 -0.4019 -0.7506  0.6398
  828MOL0     C11651   4.563   1.581   9.091  0.2728  0.9082 -0.0229
  828MOL0     C11652   4.495   1.675   9.008 -0.4428  0.1452  0.0053
  828MOL0     O11653   4.356   1.673   9.011  0.4414 -0.8715  0.5947
  828MOL0     C11654   4.295   1.700   8.881 -0.0129  0.4862 -0.5209
  828MOL0     C11655   4.149   1.646   8.887 -0.1802 -0.1131  0.2913
  828MOL0     C11656   4.093   1.665   8.753 -0.1580  0.4052 -0.3386
  828MOL0     C11657   4.051   1.818   8.730  0.5319  0.2024  0.4746
  828MOL0     C11658   3.935   1.806   8.634 -0.4433  0.4321 -0.0920
  828MOL0     C11659   3.895   1.952   8.606  0.1717 -0.0203 -0.6623
  828MOL0     C11660   3.758   1.941   8.530  0.0372  0.1024  0.2829
  828MOL0     C11661   3.770   1.882   8.386  0.0675 -0.5548  0.0058
  828MOL0     N11662   3.645   1.857   8.322 -0.3169  0.8397  0.2667
  828MOL0     C11663   3.552   1.943   8.294  0.3949 -0.2062  0.3632
  828MOL0     C11664   3.457   1.866   8.239  0.5178  0.1261 -0.6167
  828MOL0     C11665   3.331   1.921   8.188  0.1081 -0.2831 -0.0657
  828MOL0     C11666   3.219   1.927   8.297 -0.0560  0.8015 -0.0548
  828MOL0     C11667   3.078   1.961   8.239 -0.2796 -0.1802 -0.6906
  828MOL0     C11668   2.974   1.955   8.351 -0.1428 -0.3858  0.9127
  828MOL0     O11669   2.972   2.064   8.447 -0.9474 -0.0863 -0.4574
  828MOL0     C11670   2.886   2.056   8.548  0.5955 -0.1912 -0.2469
  828MOL0     C11671   2.912   2.154   8.644  0.6526 -0.7138 -0.5579
  828MOL0     C11672   2.829   2.168   8.753  0.5203  0.2006 -0.3159
  828MOL0     C11673   2.868   2.270   8.857 -0.0227  0.4640  1.0897
  828MOL0     C11674   2.710   2.092   8.763  0.3097 -0.5094  0.3155
  828MOL0     C11675   2.608   2.107   8.874  0.4125 -0.9544  0.0105
  828MOL0     O11676   2.476   2.085   8.843 -0.1229  0.0090 -0.3382
  828MOL0     C11677   2.399   2.046   8.948  0.3235 -0.4687 -0.5650
  828MOL0     C11678   2.415   1.935   9.024 -0.0436  0.2761 -0.3258
  828MOL0     C11679   2.326   1.900   9.129 -0.4930  0.0890  0.6317
  828MOL0     C11680   2.212   1.973   9.164 -0.6198 -0.6464  0.4039
  828MOL0     O11681   2.115   1.939   9.254 -0.1211  0.2664 -0.0344
  828MOL0     C11682   2.102   1.798   9.290  0.5162  0.0588 -1.0956
  828MOL0     C11683   1.971   1.769   9.352  0.8940  0.6510  0.3593
  828MOL0     C11684   1.848   1.775   9.264  0.6818 -0.0003  0.0524
  828MOL0     C11685   1.712   1.761   9.340  0.6384  0.2520 -0.5752
  828MOL0     C11686   1.587   1.766   9.255 -0.1484 -0.6914  0.5228
  828MOL0     C11687   1.461   1.792   9.339 -0.9764  0.5017 -0.5632
  828MOL0     C11688   1.326   1.748   9.266  0.1629 -0.1825 -0.2932
  828MOL0     C11689   1.212   1.734   9.364  0.2286  0.0426 -0.1169
  828MOL0    Cl11690   1.157   1.898   9.385  0.0724  0.0376  0.3426
  828MOL0     C11691   2.195   2.090   9.086 -0.2594  0.3522  0.2417
  828MOL0     C11692   2.289   2.129   8.991  0.1974  0.4143  0.3977
  828MOL0     O11693   2.661   2.123   8.981  0.5758  0.3035 -0.4508
  828MOL0     C11694   2.686   1.989   8.670  0.6084 -1.1813 -0.7156
  828MOL0     C11695   2.768   1.978   8.561  0.1906  0.8625  0.1651
  828MOL0     N11696   3.498   1.735   8.226  0.2949 -0.5652  0.6756
  828MOL0     N11697   3.610   1.731   8.279 -0.1985 -0.2671 -0.2536
  828MOL0     C11698   4.569   1.757   8.926 -0.0380 -0.5513  0.0465
  828MOL0     C11699   4.708   1.758   8.946 -0.9187  0.1427 -0.0898
  828MOL0     C11700   5.129   1.731   9.108 -0.5484  0.2607  0.0829
  828MOL0     C11701   5.188   1.708   8.982 -0.1950  0.2505 -0.2307
  828MOL0     C11702   5.328   1.720   8.966 -0.7035  0.0016 -0.6563
  828MOL0     C11703   5.406   1.777   9.070 -0.7558 -0.1417  0.4265
  828MOL0     O11704   5.538   1.809   9.046 -0.1190 -0.2523  0.5093
  828MOL0     C11705   5.632   1.840   9.149 -0.1285 -0.4086  0.5707
  828MOL0     C11706   5.762   1.776   9.131  0.4057 -0.1259  0.1009
  828MOL0     C11707   5.763   1.632   9.169  0.3211 -0.8016  0.8577
  828MOL0     C11708   5.895   1.556   9.133  0.3694  0.3845 -0.7016
  828MOL0     C11709   5.876   1.416   9.167 -0.1305  0.2321  0.0282
  828MOL0     C11710   5.874   1.297   9.199  0.9265  0.9858 -0.0124
  828MOL0     C11711   5.347   1.791   9.191  0.6119 -0.6731  0.4537
  828MOL0     C11712   5.207   1.769   9.215  0.1380  0.6698 -0.7219
  828MOL0     H11713   4.762   1.500   9.153  1.8237  0.9512  0.9043
  828MOL0     H11714   4.505   1.501   9.138 -1.5595  0.4183 -2.8672
  828MOL0     H11715   4.304   1.807   8.861  0.1730  1.2516  2.9692
  828MOL0     H11716   4.354   1.655   8.800 -1.4519 -3.0268  0.1720
  828MOL0     H11717   4.152   1.541   8.915  3.2945  0.1006  1.2388
  828MOL0     H11718   4.093   1.696   8.966  1.3447  3.8901 -0.8967
  828MOL0     H11719   4.160   1.632   8.673  1.1091  0.4848  0.6512
  828MOL0     H11720   4.005   1.601   8.746  0.8347 -1.3738  2.0238
  828MOL0     H11721   4.007   1.852   8.824 -2.2501 -0.8369 -0.3326
  828MOL0     H11722   4.134   1.885   8.707 -0.9248  2.9136  2.6170
  828MOL0     H11723   3.964   1.747   8.547  0.0654 -0.4083  0.6300
  828MOL0     H11724   3.857   1.744   8.679  0.3710  1.1477  2.4957
  828MOL0     H11725   3.886   2.019   8.692 -0.1796  1.5413 -1.8668
  828MOL0     H11726   3.969   1.996   8.538  2.2997  0.6400  1.9223
  828MOL0     H11727   3.687   1.874   8.578 -2.5778  0.9722 -2.0511
  828MOL0     H11728   3.705   2.037   8.531 -2.4614 -1.0128 -3.4446
  828MOL0     H11729   3.826   1.788   8.391  1.2127 -0.2815 -3.9750
  828MOL0     H11730   3.830   1.946   8.321 -0.7438 -0.9474 -1.1713
  828MOL0     H11731   3.535   2.046   8.320 -0.4356  0.2526 -1.7783
  828MOL0     H11732   3.353   2.018   8.141 -1.2607 -0.7756 -1.8129
  828MOL0     H11733   3.303   1.860   8.102 -0.7562 -0.1008  0.0837
  828MOL0     H11734   3.244   2.006   8.368 -1.9862  1.6805 -0.2960
  828MOL0     H11735   3.210   1.829   8.346  0.5481  1.5260  1.5731
  828MOL0     H11736   3.060   1.874   8.176  1.2075 -0.4797 -0.7438
  828MOL0     H11737   3.086   2.060   8.194 -3.3874  1.6366  2.2291
  828MOL0     H11738   3.005   1.867   8.407 -1.3740 -2.7747 -1.9267
  828MOL0     H11739   2.881   1.931   8.299  1.4774 -2.1209 -1.3782
  828MOL0     H11740   2.993   2.226   8.634  1.3410 -1.7842 -3.8132
  828MOL0     H11741   2.796   2.351   8.869 -0.3236  0.5233 -0.8451
  828MOL0     H11742   2.875   2.215   8.951  1.6568  0.0602  0.7599
  828MOL0     H11743   2.971   2.304   8.839  0.8895 -2.4167  0.2818
  828MOL0     H11744   2.500   1.873   8.997  0.4368  1.3692 -1.4066
  828MOL0     H11745   2.350   1.811   9.186 -1.4496 -0.0572  0.8331
  828MOL0     H11746   2.119   1.737   9.200  0.4135  0.3155 -1.2881
  828MOL0     H11747   2.170   1.772   9.372  1.5291  0.0298 -1.9197
  828MOL0     H11748   1.975   1.664   9.382 -1.3904 -0.3181 -2.2842
  828MOL0     H11749   1.954   1.823   9.446 -1.0706 -0.1036  0.4907
  828MOL0     H11750   1.844   1.688   9.197 -0.4104  1.2534 -1.6095
  828MOL0     H11751   1.857   1.871   9.212  2.7843  1.6209  3.1159
  828MOL0     H11752   1.716   1.661   9.385 -0.8086  0.3659 -0.1339
  828MOL0     H11753   1.708   1.838   9.418  0.2776  1.4086 -1.7055
  828MOL0     H11754   1.573   1.673   9.198  0.2217  0.1917 -1.0732
  828MOL0     H11755   1.595   1.843   9.178  0.7711 -2.0314 -0.7811
  828MOL0     H11756   1.474   1.735   9.431 -0.4730 -2.1904 -2.1915
  828MOL0     H11757   1.463   1.896   9.374 -1.3319  0.3719 -0.1619
  828MOL0     H11758   1.334   1.646   9.227  0.1666 -1.8006  3.5056
  828MOL0     H11759   1.293   1.820   9.191  2.4358  2.9054  1.4350
  828MOL0     H11760   1.238   1.680   9.456  2.2266 -1.2861 -1.3719
  828MOL0     H11761   1.131   1.676   9.319 -2.9514  1.7094  2.9614
  828MOL0     H11762   2.103   2.146   9.099 -0.3878  0.2881 -0.3310
  828MOL0     H11763   2.274   2.228   8.950  1.8248  0.7387  0.5095
  828MOL0     H11764   2.597   1.925   8.673  0.5717 -1.3261 -3.0902
  828MOL0     H11765   2.756   1.910   8.477 -1.6313  1.0301  0.2616
  828MOL0     H11766   4.527   1.823   8.851  1.6770 -1.2894 -1.6696
  828MOL0     H11767   4.780   1.816   8.890  0.7897 -2.0220 -0.2538
  828MOL0     H11768   5.141   1.650   8.903 -0.9369 -3.3849  2.6091
  828MOL0     H11769   5.378   1.702   8.871  1.1937 -0.3291  0.3479
  828MOL0     H11770   5.641   1.947   9.129 -0.3698 -0.8063 -1.9797
  828MOL0     H11771   5.596   1.817   9.250  2.4051 -2.6544  1.0899
  828MOL0     H11772   5.827   1.834   9.197  0.7625  0.3529 -0.6508
  828MOL0     H11773   5.798   1.797   9.030 -1.6047  0.1153 -0.6199
  828MOL0     H11774   5.686   1.591   9.103  0.5358 -2.9169  1.8224
  828MOL0     H11775   5.729   1.625   9.272 -1.6858  0.9680  0.3791
  828MOL0     H11776   5.974   1.587   9.201  0.9021 -2.1367 -0.0660
  828MOL0     H11777   5.934   1.558   9.031 -1.5826  3.6904 -1.5072
  828MOL0     H11778   5.872   1.196   9.235 -2.8714  1.2505  1.0390
  828MOL0     H11779   5.406   1.833   9.272  0.3143  1.9061 -0.5745
  828MOL0     H11780   5.163   1.779   9.314 -1.6740 -0.9478 -1.3068
  829MOL0     O11781   8.581  11.335  11.154  0.3805 -0.4396 -0.3071
  829MOL0     C11782   8.567  11.210  11.128 -0.1947  0.0940  0.7775
  829MOL0     O11783   8.453  11.139  11.142 -0.2260 -0.0639 -0.3606
  829MOL0     C11784   8.357  11.212  11.203  0.4917 -0.0503 -1.3586
  829MOL0     C11785   8.294  11.323  11.149 -0.3930  1.1548 -0.1906
  829MOL0     C11786   8.186  11.379  11.222  0.3214 -0.8843 -0.5169
  829MOL0     C11787   8.133  11.308  11.332 -0.1630 -0.0522  0.4294
  829MOL0     O11788   8.037  11.361  11.412  0.0116 -0.1432  0.1816
  829MOL0     C11789   7.933  11.429  11.354  0.0774 -0.3048 -0.0645
  829MOL0     C11790   7.819  11.420  11.454  0.4189  0.3926  0.2642
  829MOL0     C11791   7.682  11.480  11.405  0.2478 -0.5584 -0.0911
  829MOL0     C11792   7.608  11.380  11.307  0.1845 -0.4470  0.5600
  829MOL0     C11793   7.457  11.409  11.295 -1.0895  0.4114  0.4427
  829MOL0     C11794   7.413  11.541  11.231 -0.0962  0.6994 -0.0980
  829MOL0     C11795   7.268  11.548  11.182 -0.3590 -0.0838  0.7929
  829MOL0     C11796   7.208  11.440  11.090 -0.2960  0.0369  0.2089
  829MOL0     N11797   7.068  11.439  11.061  0.4242 -0.3032 -0.4905
  829MOL0     C11798   6.984  11.548  11.091  0.2413 -0.5216 -0.0960
  829MOL0     C11799   6.857  11.489  11.077 -0.5275 -0.0883  0.6714
  829MOL0     C11800   6.728  11.554  11.104  1.0135 -0.2251 -0.0122
  829MOL0     C11801   6.649  11.590  10.973 -1.0871 -0.3289 -0.1166
  829MOL0     C11802   6.735  11.696  10.897 -0.2149  0.1962  0.6274
  829MOL0     C11803   6.656  11.742  10.777  0.5612 -0.6018 -0.3085
  829MOL0     O11804   6.533  11.813  10.825 -0.2049  0.8113  0.0911
  829MOL0     C11805   6.424  11.803  10.740  0.3311  0.5158 -0.1253
  829MOL0     C11806   6.437  11.787  10.604  0.7134  0.0197 -0.2842
  829MOL0     C11807   6.327  11.781  10.520 -0.2624  0.2251  0.3761
  829MOL0     C11808   6.358  11.760  10.371 -0.1787  0.0343 -0.2612
  829MOL0     C11809   6.191  11.796  10.564 -0.5091 -0.3637  0.7812
  829MOL0     C11810   6.076  11.818  10.472  0.2186  1.1101  0.0923
  829MOL0     O11811   6.090  11.864  10.346  0.0125  0.1981  0.2696
  829MOL0     C11812   5.985  11.873  10.265  0.2159  0.6142  1.2086
  829MOL0     C11813   5.980  11.813  10.148 -0.1308  0.0037  0.5824
  829MOL0     C11814   5.877  11.850  10.061 -0.3989  1.3452  0.0049
  829MOL0     C11815   5.778  11.943  10.097 -0.1937  0.8631 -0.0226
  829MOL0     O11816   5.700  11.986   9.990  0.4712 -0.0401  0.0027
  829MOL0     C11817   5.581  12.070  10.010  0.8899  0.4640 -0.7140
  829MOL0     C11818   5.518  12.130   9.883  1.0649  0.4006 -0.1523
  829MOL0     C11819   5.608  12.203   9.784  0.0056 -0.0009  0.3963
  829MOL0     C11820   5.657  12.335   9.842  0.4384  1.3880 -1.2805
  829MOL0     C11821   5.770  12.396   9.766  0.4264 -0.2271 -0.0731
  829MOL0     C11822   5.899  12.319   9.748 -0.4908  0.6804  0.3777
  829MOL0     C11823   6.015  12.406   9.708  0.3690 -0.0647 -0.3598
  829MOL0     C11824   6.151  12.340   9.735 -0.0467  0.1808 -0.2847
  829MOL0    Cl11825   6.223  12.342   9.902 -0.0978  0.1142  0.0008
  829MOL0     C11826   5.785  11.998  10.214  0.7456  0.3346 -0.9033
  829MOL0     C11827   5.882  11.957  10.302  0.0894 -0.1395  0.8525
  829MOL0     O11828   5.973  11.816  10.529  0.2688  0.5543  0.0721
  829MOL0     C11829   6.180  11.814  10.708  0.6963 -0.0112 -0.5658
  829MOL0     C11830   6.296  11.822  10.793  0.3881 -0.2813 -0.6170
  829MOL0     N11831   6.871  11.360  11.027 -1.0386  1.0365 -0.6253
  829MOL0     N11832   6.999  11.332  11.018  0.5665  0.4185 -0.5638
  829MOL0     C11833   8.200  11.199  11.384 -1.1031 -0.0461  0.1750
  829MOL0     C11834   8.305  11.148  11.314 -0.5194 -0.6465  0.6578
  829MOL0     C11835   8.658  11.161  11.031 -0.1196 -0.2997  0.8129
  829MOL0     C11836   8.635  11.042  10.958 -0.0047 -0.5196 -0.2346
  829MOL0     C11837   8.729  10.992  10.867 -0.0380 -0.8677  0.7401
  829MOL0     C11838   8.838  11.073  10.833 -0.5652 -0.4414 -0.3884
  829MOL0     O11839   8.928  11.035  10.742 -0.1846  0.2849 -0.1459
  829MOL0     C11840   8.933  10.892  10.701 -0.5975  0.0310  0.2167
  829MOL0     C11841   9.066  10.861  10.628  0.8261 -0.3807  0.9854
  829MOL0     C11842   9.178  10.847  10.731 -0.3475 -0.7995  0.3509
  829MOL0     C11843   9.314  10.803  10.660 -0.7625 -0.1049  0.9794
  829MOL0     C11844   9.373  10.909  10.574  0.8779 -0.5680  0.0681
  829MOL0     C11845   9.418  10.995  10.491 -0.8685  1.0223  1.0698
  829MOL0     C11846   8.864  11.188  10.907 -0.2629 -0.5160 -0.5346
  829MOL0     C11847   8.777  11.227  11.007  0.8386 -0.8723  0.4045
  829MOL0     H11848   8.336  11.364  11.058  0.7463  1.3180  0.3831
  829MOL0     H11849   8.151  11.475  11.187  1.6977  0.5532  1.7725
  829MOL0     H11850   7.964  11.534  11.342  1.0062 -0.6862 -1.1382
  829MOL0     H11851   7.910  11.390  11.254 -1.4813 -1.9138  0.8725
  829MOL0     H11852   7.801  11.312  11.465 -0.0291  0.2834 -1.3317
  829MOL0     H11853   7.852  11.460  11.550  3.6566  2.1748 -1.4436
  829MOL0     H11854   7.617  11.487  11.493 -0.3891 -0.3187 -0.5781
  829MOL0     H11855   7.691  11.579  11.359 -0.4059  0.8770  2.6335
  829MOL0     H11856   7.650  11.384  11.207 -1.2429 -0.0983 -0.0564
  829MOL0     H11857   7.627  11.280  11.347 -3.9297 -2.6578 -2.2702
  829MOL0     H11858   7.414  11.321  11.247  1.2555 -0.7530  0.3783
  829MOL0     H11859   7.422  11.413  11.399 -0.3706 -0.3426  0.7205
  829MOL0     H11860   7.424  11.606  11.319 -0.1174 -1.4385  1.5797
  829MOL0     H11861   7.481  11.562  11.148  0.6417  0.3315  0.3995
  829MOL0     H11862   7.197  11.550  11.265 -0.9259 -0.2154  0.3198
  829MOL0     H11863   7.254  11.648  11.140 -2.0598 -0.1540  1.1060
  829MOL0     H11864   7.229  11.344  11.138 -0.5974  0.6108  1.5364
  829MOL0     H11865   7.273  11.446  11.002  0.9888 -0.2377  1.1144
  829MOL0     H11866   6.990  11.652  11.120 -1.6081 -1.0652  2.6135
  829MOL0     H11867   6.674  11.485  11.170  1.6123 -0.3265  0.3847
  829MOL0     H11868   6.745  11.649  11.156 -1.8001  1.2559 -1.5392
  829MOL0     H11869   6.553  11.631  11.005 -2.1208 -2.8658  0.2813
  829MOL0     H11870   6.627  11.503  10.911 -2.6862 -1.9171  2.4909
  829MOL0     H11871   6.835  11.663  10.869  0.3056 -1.9468  4.3202
  829MOL0     H11872   6.745  11.789  10.953 -0.9191  2.5470 -2.8205
  829MOL0     H11873   6.614  11.665  10.711 -0.6973  0.8179 -1.2119
  829MOL0     H11874   6.721  11.815  10.729  0.7888  0.0785  0.9959
  829MOL0     H11875   6.533  11.782  10.554  1.1365  1.1126  0.3729
  829MOL0     H11876   6.451  11.707  10.351 -1.5134 -2.1862 -0.9207
  829MOL0     H11877   6.289  11.700  10.311  0.2265  1.1631 -1.9305
  829MOL0     H11878   6.374  11.860  10.328  2.6267 -0.4550 -0.5311
  829MOL0     H11879   6.058  11.747  10.112 -1.4467 -0.4243 -1.7204
  829MOL0     H11880   5.873  11.812   9.959 -2.8099 -0.0665  0.5497
  829MOL0     H11881   5.503  12.012  10.061 -2.0260  2.5249 -2.5132
  829MOL0     H11882   5.613  12.158  10.066 -2.0999  1.6145 -0.6251
  829MOL0     H11883   5.468  12.054   9.823  2.5724 -1.1925  0.5202
  829MOL0     H11884   5.440  12.203   9.908  2.5403  3.3092 -3.2677
  829MOL0     H11885   5.550  12.231   9.695 -2.2702  0.0627  1.8329
  829MOL0     H11886   5.693  12.142   9.751 -0.3290  0.6239 -1.7974
  829MOL0     H11887   5.574  12.406   9.851  0.3285  1.1551 -0.2390
  829MOL0     H11888   5.687  12.305   9.943  0.7232  0.0376 -1.7429
  829MOL0     H11889   5.783  12.479   9.836 -2.1315 -2.8623  4.0051
  829MOL0     H11890   5.738  12.433   9.668  0.3737 -0.7062 -0.2408
  829MOL0     H11891   5.939  12.283   9.843  2.1367  2.9040  0.2328
  829MOL0     H11892   5.894  12.235   9.677 -0.7838  1.3389 -0.3937
  829MOL0     H11893   6.018  12.504   9.758  1.3378 -0.3472  0.1754
  829MOL0     H11894   6.007  12.419   9.600 -0.7235 -0.7176 -0.3656
  829MOL0     H11895   6.219  12.409   9.685 -1.7918  4.0228  2.2038
  829MOL0     H11896   6.162  12.238   9.696  2.7376 -0.2334  1.2546
  829MOL0     H11897   5.719  12.080  10.241 -0.1036 -0.4704 -0.4767
  829MOL0     H11898   5.904  12.015  10.391  2.0321 -0.5003  0.6630
  829MOL0     H11899   6.086  11.812  10.762 -0.5986 -0.4921 -2.7492
  829MOL0     H11900   6.279  11.842  10.898  0.0403  3.2720 -1.2060
  829MOL0     H11901   8.160  11.161  11.477 -0.2407  2.6390  1.7755
  829MOL0     H11902   8.359  11.064  11.358 -0.8758 -1.7293 -0.9017
  829MOL0     H11903   8.551  10.979  10.986 -2.0270  0.8099 -2.8099
  829MOL0     H11904   8.729  10.893  10.824  0.5611  0.6398 -3.1703
  829MOL0     H11905   8.915  10.825  10.785  4.0906 -1.9061 -0.0171
  829MOL0     H11906   8.850  10.883  10.630  0.5521 -2.2611 -0.9530
  829MOL0     H11907   9.087  10.937  10.552 -2.0573 -0.8676 -0.4072
  829MOL0     H11908   9.056  10.772  10.566 -2.3782 -0.9962  2.2270
  829MOL0     H11909   9.151  10.773  10.806 -2.0760 -0.0567  0.4904
  829MOL0     H11910   9.191  10.940  10.786  0.9950  0.1183 -1.3721
  829MOL0     H11911   9.301  10.707  10.608  1.1458  0.8718 -1.4774
  829MOL0     H11912   9.390  10.785  10.737  2.1167  1.7129 -1.2591
  829MOL0     H11913   9.471  11.060  10.425  0.2414 -0.0313  0.8892
  829MOL0     H11914   8.965  11.226  10.892 -0.2695  1.0707  2.5517
  829MOL0     H11915   8.814  11.312  11.064 -0.1597 -0.4634  0.4724
  830MOL0     O11916   0.091   1.915   8.505 -0.1981  0.2808  0.0453
  830MOL0     C11917   0.133   1.897   8.387  0.4050 -0.0646 -0.3129
  830MOL0     O11918   0.052   1.850   8.284  0.2443 -0.7369 -0.5283
  830MOL0     C11919  -0.075   1.801   8.321  0.6644  0.5548  0.2409
  830MOL0     C11920  -0.186   1.855   8.255 -0.3106 -0.1901 -0.7871
  830MOL0     C11921  -0.309   1.796   8.278 -0.1130 -0.3593  0.1989
  830MOL0     C11922  -0.337   1.693   8.361  0.2239 -0.0811 -0.2752
  830MOL0     O11923  -0.472   1.656   8.374 -0.1055  0.5965 -0.4272
  830MOL0     C11924  -0.507   1.573   8.483  0.4393  0.5234  0.9648
  830MOL0     C11925  -0.649   1.515   8.461 -0.6597 -0.2720  0.0365
  830MOL0     C11926  -0.747   1.622   8.507  1.1226 -0.5649 -0.3684
  830MOL0     C11927  -0.896   1.573   8.501 -0.1495 -0.0082  0.0233
  830MOL0     C11928  -0.991   1.680   8.541  0.6677  0.1763 -0.3941
  830MOL0     C11929  -1.131   1.619   8.570  0.2390 -0.7137 -0.3186
  830MOL0     C11930  -1.233   1.727   8.617  0.5465  0.3485 -0.9302
  830MOL0     C11931  -1.366   1.673   8.667  1.1896 -0.3786  0.2580
  830MOL0     N11932  -1.482   1.729   8.596  0.6062  0.1000  0.1620
  830MOL0     C11933  -1.547   1.840   8.638 -0.7524 -0.3687  0.9309
  830MOL0     C11934  -1.659   1.857   8.560 -0.0166  0.2934 -0.4613
  830MOL0     C11935  -1.747   1.974   8.572  0.2681  0.1605 -0.1167
  830MOL0     C11936  -1.887   1.925   8.623  0.7405  0.8565  0.2090
  830MOL0     C11937  -1.880   1.865   8.760  0.6482 -0.1203 -0.1043
  830MOL0     C11938  -2.019   1.822   8.801  0.7281 -0.3238 -0.3903
  830MOL0     O11939  -2.033   1.807   8.944 -0.4159 -0.1292  0.2351
  830MOL0     C11940  -2.149   1.866   8.986 -0.2704  1.3261  0.5374
  830MOL0     C11941  -2.145   1.993   9.041  0.8240 -0.3272 -0.7900
  830MOL0     C11942  -2.271   2.059   9.074 -0.6917  0.1560  0.3045
  830MOL0     C11943  -2.256   2.203   9.108  0.3532  0.5775  0.6942
  830MOL0     C11944  -2.388   1.980   9.072 -1.0344 -0.8166 -0.6042
  830MOL0     C11945  -2.510   2.046   9.131 -0.3450 -0.1233  0.2136
  830MOL0     O11946  -2.630   2.023   9.067  0.2146 -0.3323  0.0845
  830MOL0     C11947  -2.753   2.023   9.129  0.3376 -0.4004  0.5643
  830MOL0     C11948  -2.779   2.060   9.267 -0.1594  1.7774  0.8359
  830MOL0     C11949  -2.912   2.062   9.320 -0.4080 -0.0841 -0.4325
  830MOL0     C11950  -3.012   2.023   9.231  0.6263 -0.0595  0.2698
  830MOL0     O11951  -3.147   2.039   9.268 -0.9449 -0.5381  0.0257
  830MOL0     C11952  -3.218   2.146   9.201 -0.5011 -0.6093  0.6449
  830MOL0     C11953  -3.359   2.173   9.267 -0.2037  0.5622 -0.1011
  830MOL0     C11954  -3.430   2.041   9.279 -0.3859  0.4403 -0.3593
  830MOL0     C11955  -3.569   2.052   9.336 -0.0138 -0.1931 -0.0718
  830MOL0     C11956  -3.644   1.923   9.327 -0.1676  0.2809 -0.2509
  830MOL0     C11957  -3.781   1.930   9.388 -0.7348  0.0765  0.5092
  830MOL0     C11958  -3.862   1.801   9.363 -0.3857 -0.1664 -0.5104
  830MOL0     C11959  -3.994   1.804   9.442 -0.7162 -0.3182 -0.1516
  830MOL0    Cl11960  -4.126   1.905   9.369  0.3803  0.1304 -0.3604
  830MOL0     C11961  -2.987   1.980   9.101 -0.1049 -0.1046 -0.1181
  830MOL0     C11962  -2.859   1.990   9.049 -0.0497  0.6364  0.6588
  830MOL0     O11963  -2.496   2.111   9.231  0.5313 -0.1612 -1.2558
  830MOL0     C11964  -2.382   1.855   9.019  0.4047  0.7447  0.1688
  830MOL0     C11965  -2.271   1.797   8.969 -0.3766 -0.3838 -0.4043
  830MOL0     N11966  -1.663   1.750   8.476  0.3745 -0.0923 -0.2826
  830MOL0     N11967  -1.567   1.671   8.506 -0.0562  0.1261  0.1115
  830MOL0     C11968  -0.224   1.647   8.432  1.1218  0.5362 -0.6677
  830MOL0     C11969  -0.100   1.701   8.414  0.1386 -0.0089  0.1277
  830MOL0     C11970   0.262   1.939   8.357 -0.6628 -0.3831  0.0709
  830MOL0     C11971   0.319   1.924   8.224 -1.2019 -0.2831  0.1651
  830MOL0     C11972   0.447   1.971   8.185  0.1038  0.0725 -0.0868
  830MOL0     C11973   0.533   2.027   8.282 -0.1680  0.1950 -0.5127
  830MOL0     O11974   0.659   2.074   8.259 -0.2793  0.1282 -0.0515
  830MOL0     C11975   0.728   2.084   8.137  1.1510  0.4451 -0.2053
  830MOL0     C11976   0.847   1.981   8.126  0.7772  0.1399  0.2894
  830MOL0     C11977   0.961   2.040   8.206 -0.2697  0.4657 -0.1100
  830MOL0     C11978   1.095   1.968   8.169 -0.5455 -0.1286  0.0252
  830MOL0     C11979   1.073   1.825   8.164 -0.6565  0.7101 -0.6417
  830MOL0     C11980   1.061   1.705   8.169  0.4456 -0.2517  0.5932
  830MOL0     C11981   0.482   2.041   8.415  0.0147  0.0179 -0.1566
  830MOL0     C11982   0.352   1.996   8.448  0.0929 -0.4324 -0.7800
  830MOL0     H11983  -0.179   1.937   8.184  1.8499  0.8866  0.5826
  830MOL0     H11984  -0.391   1.850   8.233 -1.7560 -3.0929 -0.2479
  830MOL0     H11985  -0.438   1.489   8.493 -0.9603 -0.7163  0.4633
  830MOL0     H11986  -0.506   1.635   8.573 -2.4426  0.2703  1.2703
  830MOL0     H11987  -0.654   1.487   8.356 -0.4744 -1.9512  0.4449
  830MOL0     H11988  -0.676   1.435   8.531  0.7617 -0.7785  0.0352
  830MOL0     H11989  -0.717   1.652   8.608  2.0643  0.0368 -0.8101
  830MOL0     H11990  -0.738   1.704   8.435  1.2834 -1.4549 -1.3919
  830MOL0     H11991  -0.910   1.542   8.397  1.4597 -1.9088  0.3088
  830MOL0     H11992  -0.911   1.489   8.569 -3.6921 -0.4401 -1.0376
  830MOL0     H11993  -0.953   1.725   8.633  0.2617 -1.0736  0.4140
  830MOL0     H11994  -0.988   1.760   8.466  2.8936  0.5612  0.0462
  830MOL0     H11995  -1.158   1.577   8.473 -1.5813 -2.3127  0.7860
  830MOL0     H11996  -1.117   1.553   8.657 -1.9509 -1.1869 -0.2563
  830MOL0     H11997  -1.200   1.796   8.695 -1.5210  1.8687 -1.3049
  830MOL0     H11998  -1.259   1.800   8.540 -0.8143  2.9603  1.8080
  830MOL0     H11999  -1.381   1.692   8.774 -1.3960 -2.9044  0.4823
  830MOL0     H12000  -1.369   1.564   8.657 -1.5559 -0.7186  3.1136
  830MOL0     H12001  -1.516   1.914   8.711 -1.0705 -1.5345  2.2802
  830MOL0     H12002  -1.710   2.043   8.649  1.9029 -0.2181 -0.5287
  830MOL0     H12003  -1.781   2.024   8.481  2.5949 -1.2910 -1.8690
  830MOL0     H12004  -1.926   1.849   8.556  1.3463  2.0365 -1.5438
  830MOL0     H12005  -1.958   2.009   8.629  1.5850  1.6645 -0.6977
  830MOL0     H12006  -1.844   1.936   8.835  2.5280  0.1998 -1.2470
  830MOL0     H12007  -1.815   1.778   8.771  1.8154  0.8898  1.2481
  830MOL0     H12008  -2.048   1.729   8.752  0.7628  0.8649 -2.8326
  830MOL0     H12009  -2.088   1.898   8.762 -1.2695 -1.3727  0.9140
  830MOL0     H12010  -2.047   2.040   9.044  0.9133 -0.5190 -0.6263
  830MOL0     H12011  -2.152   2.231   9.086  0.0036  1.0395 -0.4408
  830MOL0     H12012  -2.315   2.258   9.035 -0.9478  0.1103  1.3532
  830MOL0     H12013  -2.292   2.228   9.208 -1.9213  1.9570 -0.4015
  830MOL0     H12014  -2.695   2.090   9.330  1.9857  1.7937 -1.8232
  830MOL0     H12015  -2.916   2.083   9.427 -0.6451  0.5533 -0.5591
  830MOL0     H12016  -3.150   2.231   9.190 -2.1287  0.6033 -0.6118
  830MOL0     H12017  -3.241   2.110   9.100 -2.9057  1.5209  0.3186
  830MOL0     H12018  -3.340   2.213   9.367 -0.1221 -2.2823  1.1068
  830MOL0     H12019  -3.421   2.246   9.214 -1.3737  0.3842  0.9651
  830MOL0     H12020  -3.380   1.968   9.343 -2.1903  0.7209  1.4650
  830MOL0     H12021  -3.442   1.996   9.180 -0.9748  3.5990 -1.8604
  830MOL0     H12022  -3.564   2.080   9.442 -1.4463 -0.4584  0.0883
  830MOL0     H12023  -3.619   2.130   9.278  1.4806 -0.3667 -1.6822
  830MOL0     H12024  -3.595   1.844   9.385  2.0205  1.7623 -0.0034
  830MOL0     H12025  -3.639   1.894   9.221  0.1061 -3.2380  0.6053
  830MOL0     H12026  -3.789   1.969   9.490  1.3048  1.8369  0.0865
  830MOL0     H12027  -3.841   2.002   9.332 -2.0053 -2.3364 -1.4289
  830MOL0     H12028  -3.812   1.713   9.404 -0.4388 -0.2796 -0.6891
  830MOL0     H12029  -3.871   1.793   9.254  2.2156  1.1991 -0.9118
  830MOL0     H12030  -3.972   1.839   9.543  0.5258  0.1733 -0.5708
  830MOL0     H12031  -4.033   1.702   9.445  1.6183 -1.2680  0.9961
  830MOL0     H12032  -3.067   1.949   9.034 -0.6673 -0.1207  0.5526
  830MOL0     H12033  -2.850   1.949   8.949 -2.3420  0.4332  0.4875
  830MOL0     H12034  -2.470   1.794   9.004  2.4918 -2.0564 -1.8016
  830MOL0     H12035  -2.282   1.692   8.947  0.8908 -0.5728 -0.2322
  830MOL0     H12036  -0.221   1.559   8.495 -0.8731 -0.7671 -2.2554
  830MOL0     H12037  -0.022   1.667   8.482 -1.0938  0.3578  1.8059
  830MOL0     H12038   0.252   1.875   8.154 -1.2985  0.9271 -0.6094
  830MOL0     H12039   0.473   1.962   8.080 -0.2241 -0.5021 -0.1237
  830MOL0     H12040   0.661   2.064   8.053  1.3843  0.1316 -0.3197
  830MOL0     H12041   0.754   2.190   8.136 -0.2126  0.8276  1.4601
  830MOL0     H12042   0.875   1.966   8.022  2.2209  0.8681  0.5494
  830MOL0     H12043   0.807   1.889   8.169 -3.4849  2.1590  1.2637
  830MOL0     H12044   0.956   2.030   8.315 -1.5233  3.1426  0.1504
  830MOL0     H12045   0.971   2.148   8.195  0.0473  0.4281 -0.1879
  830MOL0     H12046   1.177   2.000   8.234 -1.3022  1.0791  0.4227
  830MOL0     H12047   1.116   2.003   8.067 -1.5528 -1.9796 -0.8704
  830MOL0     H12048   1.043   1.600   8.165 -3.0834  0.2312  0.6503
  830MOL0     H12049   0.541   2.097   8.487 -0.6160  1.3346 -0.6309
  830MOL0     H12050   0.315   2.014   8.548 -0.4718  1.2945 -1.2568
  831MOL0     O12051   9.183   7.598   8.180 -0.8416 -0.2492  0.0116
  831MOL0     C12052   9.252   7.672   8.248  0.8355  0.4017 -0.7966
  831MOL0     O12053   9.292   7.642   8.383 -0.1053  0.2258 -0.2091
  831MOL0     C12054   9.252   7.529   8.437 -0.2466  0.8214 -1.2395
  831MOL0     C12055   9.344   7.422   8.440  0.3547 -0.5796 -0.1486
  831MOL0     C12056   9.311   7.292   8.484  0.8795 -0.9528  0.4503
  831MOL0     C12057   9.179   7.262   8.524 -0.4290 -0.0758 -0.2977
  831MOL0     O12058   9.140   7.129   8.553 -0.8679 -0.6443  0.5843
  831MOL0     C12059   9.206   7.027   8.478 -0.6329  0.9389  0.4065
  831MOL0     C12060   9.134   6.894   8.499  0.6516 -0.8296  0.5562
  831MOL0     C12061   9.178   6.792   8.406  0.5124 -0.3643 -0.8340
  831MOL0     C12062   9.095   6.658   8.433 -0.2036  0.7642  0.6036
  831MOL0     C12063   8.945   6.662   8.405  0.3573 -0.2595 -0.5232
  831MOL0     C12064   8.893   6.520   8.423  0.2995  1.1612 -0.9290
  831MOL0     C12065   8.867   6.489   8.572  0.7763  0.0433  0.2800
  831MOL0     C12066   8.752   6.567   8.640 -0.0424 -0.5340 -0.3758
  831MOL0     N12067   8.616   6.555   8.594  0.6877  0.8869  0.1486
  831MOL0     C12068   8.524   6.545   8.693 -0.0638 -0.6426  0.4976
  831MOL0     C12069   8.406   6.564   8.632 -0.2491  0.7507  0.4929
  831MOL0     C12070   8.261   6.556   8.686 -0.7984 -0.0236 -0.7946
  831MOL0     C12071   8.246   6.654   8.801 -0.9206  0.1141 -0.8094
  831MOL0     C12072   8.252   6.804   8.754 -0.0333 -0.0033 -0.3716
  831MOL0     C12073   8.118   6.845   8.678  0.5814  0.2620  0.1744
  831MOL0     O12074   8.011   6.843   8.771  0.1644 -0.3393 -0.4807
  831MOL0     C12075   7.895   6.887   8.724 -0.0743 -0.0060  1.0125
  831MOL0     C12076   7.846   6.854   8.596 -0.0642 -0.2398  0.2152
  831MOL0     C12077   7.720   6.900   8.539  1.0875 -0.1812 -0.2795
  831MOL0     C12078   7.669   6.851   8.400 -0.0488 -0.4780 -0.4298
  831MOL0     C12079   7.631   6.972   8.624 -0.6366  0.0540 -0.1512
  831MOL0     C12080   7.492   7.002   8.595  0.3280 -0.1793 -0.6884
  831MOL0     O12081   7.455   7.033   8.462 -0.5526  0.1611  0.2460
  831MOL0     C12082   7.332   7.085   8.439 -0.0226  0.8464 -0.3143
  831MOL0     C12083   7.285   7.194   8.516 -0.6610 -1.3990 -0.0585
  831MOL0     C12084   7.165   7.255   8.489  0.8082  0.8831 -0.6193
  831MOL0     C12085   7.071   7.203   8.399 -0.0886 -0.4175 -0.6630
  831MOL0     O12086   6.945   7.255   8.404  0.6020  0.0463  0.5648
  831MOL0     C12087   6.865   7.234   8.291  0.9484  0.0867 -0.3910
  831MOL0     C12088   6.728   7.296   8.329  0.9186  0.6943 -0.0739
  831MOL0     C12089   6.625   7.269   8.220 -0.4722  0.2890 -0.5137
  831MOL0     C12090   6.488   7.311   8.278 -0.8291  0.6197  0.7001
  831MOL0     C12091   6.383   7.312   8.170 -0.1720 -0.1836  0.4215
  831MOL0     C12092   6.238   7.351   8.218 -0.3447  0.3556  0.4085
  831MOL0     C12093   6.138   7.349   8.105 -0.4242 -0.1785  1.0058
  831MOL0     C12094   6.001   7.401   8.137  0.4236 -0.7866 -1.0594
  831MOL0    Cl12095   5.915   7.448   7.996  0.0648 -0.2311  0.0498
  831MOL0     C12096   7.127   7.098   8.322  0.9067 -0.0215  0.5355
  831MOL0     C12097   7.255   7.051   8.331 -0.5428 -0.0979 -0.0532
  831MOL0     O12098   7.421   6.994   8.691  0.4395 -1.3282  0.3426
  831MOL0     C12099   7.686   7.021   8.743 -0.7257 -0.4506 -0.3051
  831MOL0     C12100   7.813   6.974   8.795  0.6473 -0.8172  0.6854
  831MOL0     N12101   8.434   6.582   8.492  0.3197 -0.5984 -0.7031
  831MOL0     N12102   8.565   6.582   8.475  0.0204  0.6568  0.9735
  831MOL0     C12103   9.091   7.370   8.524 -0.2967 -0.0965 -0.7632
  831MOL0     C12104   9.123   7.500   8.485  0.0981 -0.0972  0.2468
  831MOL0     C12105   9.287   7.806   8.202 -0.5946  0.7694  0.2179
  831MOL0     C12106   9.259   7.835   8.071 -1.2850 -0.0808 -0.2644
  831MOL0     C12107   9.315   7.949   8.020 -0.3138  0.1354  0.1114
  831MOL0     C12108   9.375   8.051   8.103 -0.0878 -0.1866 -0.0128
  831MOL0     O12109   9.430   8.166   8.044  0.7059 -0.3827  0.4075
  831MOL0     C12110   9.410   8.194   7.902 -0.1082  0.2585  0.2833
  831MOL0     C12111   9.473   8.329   7.862  0.4883  0.3791  0.7251
  831MOL0     C12112   9.399   8.454   7.923 -0.9574  0.9712 -0.5633
  831MOL0     C12113   9.443   8.590   7.883  0.2202 -0.3595 -0.8023
  831MOL0     C12114   9.464   8.631   7.742  0.6040  0.0734  0.3104
  831MOL0     C12115   9.466   8.661   7.625 -0.3949  0.7657 -0.2387
  831MOL0     C12116   9.376   8.032   8.239 -1.0197  0.2885 -0.0192
  831MOL0     C12117   9.335   7.908   8.292  0.0817 -0.6950  0.3158
  831MOL0     H12118   9.447   7.435   8.405  0.3354 -1.2107 -0.4529
  831MOL0     H12119   9.396   7.224   8.477  0.1808 -2.0909  2.3098
  831MOL0     H12120   9.225   7.053   8.373 -3.2614 -0.7975 -0.5930
  831MOL0     H12121   9.299   7.004   8.532  0.7917  4.7759 -0.0320
  831MOL0     H12122   9.147   6.867   8.605 -1.7002 -2.4095  0.5256
  831MOL0     H12123   9.028   6.919   8.486 -0.3448 -2.0335  4.7653
  831MOL0     H12124   9.157   6.836   8.309  1.0783  1.2189 -0.2772
  831MOL0     H12125   9.285   6.773   8.422  1.3377  2.3859 -2.3754
  831MOL0     H12126   9.139   6.593   8.357 -0.6981  0.9675  0.1328
  831MOL0     H12127   9.111   6.628   8.537 -0.7999 -0.4257  0.3731
  831MOL0     H12128   8.892   6.735   8.467  0.5146 -0.9700  0.4684
  831MOL0     H12129   8.926   6.690   8.300 -0.1259 -1.8903 -0.9053
  831MOL0     H12130   8.796   6.514   8.374  0.0065  4.3591 -0.9545
  831MOL0     H12131   8.969   6.455   8.379  0.6135  0.5625  0.4466
  831MOL0     H12132   8.833   6.387   8.596 -0.1187 -0.2285 -1.8856
  831MOL0     H12133   8.957   6.502   8.631 -1.1273  0.7102  3.2216
  831MOL0     H12134   8.773   6.674   8.649  0.3837 -0.7095  0.8280
  831MOL0     H12135   8.756   6.532   8.743  1.0710 -1.7429 -0.8027
  831MOL0     H12136   8.541   6.550   8.800 -0.0140 -1.2638  0.5190
  831MOL0     H12137   8.184   6.570   8.609  0.6847 -1.9161 -2.7584
  831MOL0     H12138   8.249   6.451   8.715 -1.0301 -0.1768 -1.4183
  831MOL0     H12139   8.309   6.630   8.887 -3.7748 -1.7006  0.9536
  831MOL0     H12140   8.141   6.639   8.829 -1.6671  2.1751 -2.2139
  831MOL0     H12141   8.343   6.829   8.699 -0.8640 -2.0675 -2.8964
  831MOL0     H12142   8.260   6.868   8.842  1.2154  1.1731 -1.2955
  831MOL0     H12143   8.113   6.774   8.595  3.9547  0.3320 -0.2379
  831MOL0     H12144   8.123   6.944   8.632  2.0452  0.6986  1.1961
  831MOL0     H12145   7.895   6.778   8.536 -0.1531 -0.7703  0.7947
  831MOL0     H12146   7.715   6.756   8.374  1.7097  0.3547 -0.5127
  831MOL0     H12147   7.561   6.831   8.407 -0.1456  0.5498  3.1022
  831MOL0     H12148   7.675   6.930   8.325 -2.2644  1.7381  1.5195
  831MOL0     H12149   7.345   7.255   8.583  2.5216 -0.9330 -3.0231
  831MOL0     H12150   7.136   7.340   8.550  1.0832 -0.5035  1.5414
  831MOL0     H12151   6.907   7.293   8.208 -0.5284 -1.9081 -2.7088
  831MOL0     H12152   6.846   7.129   8.267  1.1493  0.1794 -0.9866
  831MOL0     H12153   6.689   7.246   8.418  0.4761 -0.4404 -0.8789
  831MOL0     H12154   6.732   7.402   8.355 -1.8854  0.4157  1.8420
  831MOL0     H12155   6.625   7.162   8.199 -1.0780  0.3392 -0.8104
  831MOL0     H12156   6.650   7.320   8.127  1.2026 -0.8767 -0.7335
  831MOL0     H12157   6.454   7.250   8.363 -2.0746 -0.8640 -0.7901
  831MOL0     H12158   6.482   7.412   8.318 -0.1320  1.1523 -0.5201
  831MOL0     H12159   6.370   7.214   8.122  2.4446 -0.2001 -0.4287
  831MOL0     H12160   6.406   7.390   8.097 -0.7812  0.7923  1.2496
  831MOL0     H12161   6.202   7.280   8.293  0.1052 -0.8232 -0.4581
  831MOL0     H12162   6.239   7.449   8.267 -0.1517 -0.3236  1.8347
  831MOL0     H12163   6.141   7.250   8.059  0.7686 -0.5041  1.7315
  831MOL0     H12164   6.186   7.420   8.036 -0.9360 -0.3220  0.4934
  831MOL0     H12165   6.011   7.490   8.201  0.5525  0.7081 -3.0610
  831MOL0     H12166   5.931   7.332   8.184  0.1532  1.2950  1.8943
  831MOL0     H12167   7.061   7.052   8.248  1.7741  0.8850 -0.8538
  831MOL0     H12168   7.289   6.974   8.263 -0.8554  2.4845 -3.3941
  831MOL0     H12169   7.635   7.086   8.813 -2.2894  1.3835 -2.9729
  831MOL0     H12170   7.826   7.012   8.896 -3.3592 -0.4548  1.2052
  831MOL0     H12171   8.992   7.361   8.567  0.4572 -1.9036  0.7280
  831MOL0     H12172   9.047   7.577   8.494  1.1117  1.2522 -1.9500
  831MOL0     H12173   9.209   7.765   8.005  0.8666 -2.1032  0.1238
  831MOL0     H12174   9.306   7.947   7.912  0.3457 -2.6084  0.0389
  831MOL0     H12175   9.440   8.106   7.845 -2.0216  0.8813 -1.8185
  831MOL0     H12176   9.301   8.191   7.897 -0.1272 -1.5631  1.1506
  831MOL0     H12177   9.465   8.343   7.754 -1.3582  4.3912  1.1917
  831MOL0     H12178   9.578   8.322   7.890  0.4766 -1.7702  0.3953
  831MOL0     H12179   9.415   8.450   8.031  0.3821  1.6509 -0.7103
  831MOL0     H12180   9.292   8.440   7.908 -1.5696  0.7242  3.1524
  831MOL0     H12181   9.538   8.597   7.938  0.0808 -3.2322 -0.0543
  831MOL0     H12182   9.371   8.653   7.936  1.6368  1.0171 -0.3942
  831MOL0     H12183   9.451   8.677   7.520  1.5617 -2.0826 -1.0748
  831MOL0     H12184   9.418   8.115   8.296 -4.1053  3.1048 -1.5157
  831MOL0     H12185   9.359   7.891   8.396 -0.0172 -0.9538  0.2961
  832MOL0     O12186   1.666   8.761   5.290 -0.7256  0.2276  0.4679
  832MOL0     C12187   1.683   8.780   5.167 -0.1444  0.1722  0.3113
  832MOL0     O12188   1.610   8.729   5.065 -0.7388  0.3130 -0.0639
  832MOL0     C12189   1.496   8.659   5.088 -0.2537 -0.2924  0.1006
  832MOL0     C12190   1.445   8.598   5.203 -0.7116 -0.1558  0.7230
  832MOL0     C12191   1.324   8.535   5.198 -0.0286 -0.3389  0.1249
  832MOL0     C12192   1.249   8.532   5.092  0.6656  0.5109  0.6399
  832MOL0     O12193   1.133   8.453   5.087 -0.3232  0.2886  0.3331
  832MOL0     C12194   1.018   8.502   5.160 -0.4134 -0.1571 -0.2823
  832MOL0     C12195   0.891   8.435   5.114  0.4146 -0.2754  1.1887
  832MOL0     C12196   0.769   8.473   5.196  0.9224 -0.2422 -0.2230
  832MOL0     C12197   0.633   8.437   5.120  0.3890 -0.5355  0.6058
  832MOL0     C12198   0.515   8.417   5.213 -0.2541 -0.2532 -0.2568
  832MOL0     C12199   0.487   8.535   5.311 -0.4953  0.5773  0.0575
  832MOL0     C12200   0.386   8.495   5.418  1.0105  0.5209 -0.2531
  832MOL0     C12201   0.250   8.455   5.366 -0.4695  0.0065 -0.5579
  832MOL0     N12202   0.209   8.323   5.415  0.2416  0.5467 -0.5018
  832MOL0     C12203   0.114   8.302   5.508  0.0122  0.0192  0.3402
  832MOL0     C12204   0.089   8.169   5.520  0.7631  0.6733 -0.3787
  832MOL0     C12205  -0.029   8.109   5.589  0.6612 -0.9904 -0.6076
  832MOL0     C12206  -0.145   8.098   5.490  0.2951  0.5017 -0.9605
  832MOL0     C12207  -0.170   7.959   5.420  0.4094 -0.0303  0.1995
  832MOL0     C12208  -0.048   7.913   5.343  1.2665  0.2151  0.3876
  832MOL0     O12209  -0.087   7.806   5.254  0.8814 -0.3136 -0.3629
  832MOL0     C12210   0.007   7.716   5.218  0.1694  0.1168  0.2449
  832MOL0     C12211  -0.025   7.600   5.154 -0.5592  0.5903  0.5481
  832MOL0     C12212   0.069   7.510   5.099  0.4313 -0.4433  0.0335
  832MOL0     C12213   0.018   7.391   5.024  0.7336 -0.7427  0.3033
  832MOL0     C12214   0.203   7.532   5.126 -0.3686 -0.1578 -0.9267
  832MOL0     C12215   0.308   7.454   5.054 -0.7426  0.2085 -0.5847
  832MOL0     O12216   0.287   7.367   4.956 -0.1169 -0.3296  0.2179
  832MOL0     C12217   0.393   7.314   4.892  0.4883 -1.3294  0.6273
  832MOL0     C12218   0.421   7.176   4.918  0.0962 -0.5660 -0.5311
  832MOL0     C12219   0.528   7.120   4.837 -0.6789 -0.2550  0.6367
  832MOL0     C12220   0.597   7.193   4.746  0.8079 -0.1599  0.3808
  832MOL0     O12221   0.697   7.121   4.673  0.5934  0.4125  0.8864
  832MOL0     C12222   0.759   7.182   4.561 -0.0597 -0.2611  0.3382
  832MOL0     C12223   0.881   7.099   4.514 -0.1968 -0.6038 -1.0799
  832MOL0     C12224   0.953   7.157   4.392  0.0389  0.5425 -0.7119
  832MOL0     C12225   0.899   7.127   4.253  0.0084 -0.3082 -0.3285
  832MOL0     C12226   0.989   7.171   4.128 -0.6604 -0.3853 -0.5028
  832MOL0     C12227   1.121   7.081   4.130  0.5449 -0.3529  0.3862
  832MOL0     C12228   1.199   7.102   3.995  1.0437 -0.4548  0.0757
  832MOL0     C12229   1.348   7.098   4.021  0.3887 -0.2834 -0.4915
  832MOL0    Cl12230   1.451   7.150   3.883 -0.2380 -0.3698  0.0459
  832MOL0     C12231   0.558   7.328   4.720 -1.3397 -0.1286  0.0197
  832MOL0     C12232   0.468   7.393   4.795 -0.4448  0.7748  0.2300
  832MOL0     O12233   0.421   7.488   5.095 -0.7548 -0.5002  1.2383
  832MOL0     C12234   0.241   7.647   5.200  0.1206  0.2603  0.9198
  832MOL0     C12235   0.145   7.741   5.243  0.4325 -1.0384 -0.6545
  832MOL0     N12236   0.180   8.100   5.441  0.7275  0.4499  0.0784
  832MOL0     N12237   0.241   8.196   5.371  0.2310  0.2393  0.1400
  832MOL0     C12238   1.288   8.586   4.974  0.5594  0.7465  0.1467
  832MOL0     C12239   1.407   8.660   4.972 -0.3140  0.1864  0.0822
  832MOL0     C12240   1.791   8.859   5.125  0.0181  1.1983  0.2919
  832MOL0     C12241   1.847   8.852   5.000  0.6162 -0.7058  1.2020
  832MOL0     C12242   1.959   8.928   4.959  0.9996  0.2440  0.3134
  832MOL0     C12243   2.027   9.007   5.046  0.0204 -0.5520 -0.3253
  832MOL0     O12244   2.134   9.082   5.009 -0.2163 -0.0835  0.7408
  832MOL0     C12245   2.216   9.025   4.911 -0.0227  0.0923 -0.4677
  832MOL0     C12246   2.356   9.087   4.927 -0.0603 -0.3967 -0.4378
  832MOL0     C12247   2.421   9.055   5.068  0.4753 -0.1647  0.0693
  832MOL0     C12248   2.446   8.910   5.067 -0.2243  0.3191 -0.6494
  832MOL0     C12249   2.337   8.843   5.143 -0.0098 -0.0813  0.6295
  832MOL0     C12250   2.249   8.784   5.190 -0.2130  0.0622 -0.7304
  832MOL0     C12251   1.979   9.016   5.179  0.6248  0.3511 -0.0658
  832MOL0     C12252   1.857   8.944   5.223 -0.3595 -0.5681  0.2742
  832MOL0     H12253   1.493   8.596   5.301 -0.3714 -0.7800  0.5477
  832MOL0     H12254   1.282   8.496   5.291 -2.6166  2.5564  0.3320
  832MOL0     H12255   1.026   8.472   5.265  1.0644 -2.7760 -1.0335
  832MOL0     H12256   1.003   8.610   5.160 -0.2897 -0.0999  1.5678
  832MOL0     H12257   0.880   8.462   5.009 -0.4456 -3.1402  0.4582
  832MOL0     H12258   0.895   8.326   5.120 -1.7247 -0.4264  0.7613
  832MOL0     H12259   0.756   8.409   5.284 -2.7466 -1.3665 -1.3827
  832MOL0     H12260   0.786   8.577   5.225  3.3738 -0.8727  0.8339
  832MOL0     H12261   0.597   8.513   5.050  0.0243  0.0543  1.4232
  832MOL0     H12262   0.647   8.344   5.063  1.0573 -0.5136  0.7258
  832MOL0     H12263   0.421   8.392   5.162 -0.1680 -3.5420  0.9406
  832MOL0     H12264   0.545   8.328   5.270  1.4269  0.0862 -0.5513
  832MOL0     H12265   0.581   8.564   5.360  1.2496 -1.2868 -1.9881
  832MOL0     H12266   0.447   8.626   5.265  3.3494  3.9683  2.6539
  832MOL0     H12267   0.436   8.414   5.471 -0.8728  1.6134  3.5286
  832MOL0     H12268   0.382   8.581   5.485 -0.8310  0.4352 -0.1963
  832MOL0     H12269   0.242   8.461   5.257  1.8436  2.9329 -0.7307
  832MOL0     H12270   0.175   8.520   5.412 -1.7454 -1.6864 -0.1878
  832MOL0     H12271   0.053   8.377   5.558  3.1938  0.9620  3.2314
  832MOL0     H12272  -0.008   8.014   5.638  2.0297 -0.9501 -1.1005
  832MOL0     H12273  -0.067   8.180   5.664 -0.1104 -0.0071 -1.8877
  832MOL0     H12274  -0.135   8.175   5.413 -1.3858  1.5630 -0.1641
  832MOL0     H12275  -0.235   8.131   5.543  1.5932  2.4484  0.1524
  832MOL0     H12276  -0.260   7.958   5.358  0.2379  1.3867  0.3767
  832MOL0     H12277  -0.182   7.886   5.500  2.3814  0.3527  0.9013
  832MOL0     H12278   0.025   7.886   5.420 -0.6394 -2.3274  1.4423
  832MOL0     H12279  -0.003   7.991   5.282  0.9512 -0.8977 -1.3271
  832MOL0     H12280  -0.131   7.581   5.138 -1.0104  1.7061  1.9656
  832MOL0     H12281   0.042   7.400   4.918 -4.0472 -0.8362 -1.0078
  832MOL0     H12282   0.062   7.301   5.068  2.2437 -0.4367 -0.4932
  832MOL0     H12283  -0.091   7.384   5.027  0.5719  1.3519  1.0713
  832MOL0     H12284   0.363   7.128   4.996  1.4006  1.0762  1.5698
  832MOL0     H12285   0.542   7.013   4.847  0.5480 -0.0939  0.8487
  832MOL0     H12286   0.684   7.187   4.481  0.9030 -2.4909 -0.8022
  832MOL0     H12287   0.794   7.284   4.578 -0.5297  0.4277 -2.4299
  832MOL0     H12288   0.958   7.096   4.592 -2.2849 -1.9635  1.0621
  832MOL0     H12289   0.851   6.996   4.494  0.1635 -0.8600 -0.3360
  832MOL0     H12290   1.053   7.113   4.392  0.5208  1.6001  0.3446
  832MOL0     H12291   0.962   7.266   4.394 -0.0815  0.5486  1.4097
  832MOL0     H12292   0.879   7.020   4.241  1.2293 -0.5321 -0.4574
  832MOL0     H12293   0.810   7.190   4.247  0.4668  0.6716  2.0541
  832MOL0     H12294   1.006   7.279   4.127 -0.0916 -0.4752 -0.9415
  832MOL0     H12295   0.930   7.143   4.040  0.3226 -1.3857 -0.8701
  832MOL0     H12296   1.174   7.125   4.215 -0.7018  1.0302  0.4797
  832MOL0     H12297   1.101   6.974   4.140 -1.6851 -0.0456 -0.2463
  832MOL0     H12298   1.172   7.203   3.964 -2.8702 -0.7308  1.9485
  832MOL0     H12299   1.163   7.037   3.914  1.4229  1.1103 -1.4039
  832MOL0     H12300   1.377   6.995   4.043  0.0813 -0.0143  1.2716
  832MOL0     H12301   1.380   7.168   4.099  0.7565 -0.3243 -0.6039
  832MOL0     H12302   0.607   7.377   4.636  2.4024 -0.8576  1.5740
  832MOL0     H12303   0.453   7.501   4.789  0.0396  0.8215 -0.1969
  832MOL0     H12304   0.348   7.668   5.207  0.0935  0.5981  0.3799
  832MOL0     H12305   0.180   7.829   5.295  0.5943 -1.0905 -0.6738
  832MOL0     H12306   1.224   8.571   4.888 -0.3477  0.2134  0.9018
  832MOL0     H12307   1.439   8.702   4.877  0.0458  1.0308  0.5663
  832MOL0     H12308   1.790   8.799   4.924 -1.6052 -1.8457  3.5013
  832MOL0     H12309   1.985   8.926   4.853  1.2812  1.9842  0.3171
  832MOL0     H12310   2.222   8.915   4.912 -1.3904 -0.0297  1.2810
  832MOL0     H12311   2.169   9.051   4.816  0.7509  0.3459 -0.7883
  832MOL0     H12312   2.351   9.196   4.917  0.4227 -0.3376 -0.0881
  832MOL0     H12313   2.418   9.055   4.842 -2.1340 -2.9936 -1.1110
  832MOL0     H12314   2.369   9.084   5.159  3.0493  0.3248  1.4851
  832MOL0     H12315   2.516   9.109   5.070  0.2936  0.2494 -1.3849
  832MOL0     H12316   2.540   8.888   5.119 -1.5527 -0.9098  1.3968
  832MOL0     H12317   2.438   8.859   4.971 -2.6434 -0.7511  0.0131
  832MOL0     H12318   2.175   8.724   5.238  0.0365 -0.3899 -0.9048
  832MOL0     H12319   2.024   9.077   5.256  1.3256  1.4689 -1.3383
  832MOL0     H12320   1.824   8.963   5.324  0.4617 -2.2998  0.9037
  833MOL0     O12321   4.078   6.664  10.304 -0.1950  0.2577  0.6049
  833MOL0     C12322   4.166   6.687  10.218 -1.4005 -0.3190 -0.2586
  833MOL0     O12323   4.241   6.595  10.151 -0.4504  0.2054  0.3861
  833MOL0     C12324   4.226   6.463  10.179  0.1531  1.2560 -0.1970
  833MOL0     C12325   4.115   6.387  10.151 -0.3536  0.2613  0.1137
  833MOL0     C12326   4.119   6.251  10.183  0.2654 -0.5084  0.0934
  833MOL0     C12327   4.241   6.196  10.225 -0.0615  1.0474 -0.0728
  833MOL0     O12328   4.244   6.066  10.260  0.3872 -0.1671 -0.3235
  833MOL0     C12329   4.211   5.977  10.169  0.9076  0.2513  0.6177
  833MOL0     C12330   4.119   5.873  10.224  0.2177  0.7889  0.2511
  833MOL0     C12331   4.117   5.751  10.134  0.9588  0.3291  0.7071
  833MOL0     C12332   4.079   5.623  10.197 -0.3974  0.2742  0.5808
  833MOL0     C12333   4.054   5.522  10.078 -0.4607  0.1685  0.6581
  833MOL0     C12334   3.984   5.383  10.112 -0.2678 -0.6717  0.9645
  833MOL0     C12335   3.837   5.407  10.120 -0.3752  0.4601  0.3269
  833MOL0     C12336   3.762   5.281  10.145  0.3737  0.8954  1.1120
  833MOL0     N12337   3.616   5.301  10.149 -0.1104  0.2937 -0.1351
  833MOL0     C12338   3.545   5.349  10.036 -0.5746  1.1082 -0.7072
  833MOL0     C12339   3.421   5.377  10.089  0.4970 -0.8778 -0.2067
  833MOL0     C12340   3.304   5.444  10.020  0.5993 -0.4953 -0.3906
  833MOL0     C12341   3.262   5.588  10.058  0.0243  0.0604 -0.5446
  833MOL0     C12342   3.249   5.614  10.203  0.2450 -0.2333  0.2481
  833MOL0     C12343   3.142   5.710  10.225  0.3650  0.0431 -0.2419
  833MOL0     O12344   3.143   5.717  10.367  0.0271  0.2756  0.8224
  833MOL0     C12345   3.028   5.742  10.436  0.2941 -0.5068  0.2348
  833MOL0     C12346   2.900   5.769  10.384 -0.3060  0.6323 -0.5741
  833MOL0     C12347   2.793   5.778  10.465  0.2570 -1.0336 -0.6850
  833MOL0     C12348   2.655   5.805  10.400 -0.6970  0.3723 -0.2420
  833MOL0     C12349   2.804   5.772  10.610 -0.4196  0.8959 -0.5911
  833MOL0     C12350   2.705   5.808  10.707 -0.5353  0.1760 -0.0775
  833MOL0     O12351   2.688   5.718  10.809  0.3456 -0.6885  0.5513
  833MOL0     C12352   2.596   5.739  10.909  0.7628  0.0643  0.4009
  833MOL0     C12353   2.457   5.741  10.884 -0.7010 -0.0401  0.1774
  833MOL0     C12354   2.366   5.736  10.987  0.0538  0.8840  0.6670
  833MOL0     C12355   2.405   5.723  11.125  0.3171  0.8123  0.5477
  833MOL0     O12356   2.321   5.701  11.234  0.2392 -0.8065  0.4626
  833MOL0     C12357   2.185   5.682  11.200  0.0512 -0.5229 -0.3598
  833MOL0     C12358   2.101   5.658  11.320 -0.6099  0.5420  0.5768
  833MOL0     C12359   2.079   5.777  11.393 -0.0056  0.4805  0.0842
  833MOL0     C12360   1.960   5.759  11.484  0.2595 -0.9040 -0.1814
  833MOL0     C12361   1.953   5.894  11.566  1.1326  0.2459  0.9688
  833MOL0     C12362   1.820   5.930  11.639 -0.4965 -0.3737  0.0153
  833MOL0     C12363   1.801   5.820  11.745  0.0685  0.0089  0.4945
  833MOL0     C12364   1.656   5.763  11.716 -0.3500  0.2825  1.0039
  833MOL0    Cl12365   1.545   5.894  11.752  0.0461  0.1043 -0.0555
  833MOL0     C12366   2.539   5.727  11.153 -0.3459 -0.1619 -0.0148
  833MOL0     C12367   2.631   5.724  11.040  0.5156 -0.7346 -0.7512
  833MOL0     O12368   2.646   5.916  10.694  0.3771  0.3238 -0.6741
  833MOL0     C12369   2.928   5.744  10.661 -0.0068 -0.9387 -0.2735
  833MOL0     C12370   3.039   5.733  10.575 -0.6809 -0.1092  0.8853
  833MOL0     N12371   3.430   5.360  10.232  0.3540  0.4828 -0.2094
  833MOL0     N12372   3.545   5.315  10.261 -0.9769 -0.3225 -0.1501
  833MOL0     C12373   4.358   6.274  10.229 -0.4936 -0.1193 -0.1426
  833MOL0     C12374   4.349   6.409  10.209  1.2410 -0.2654 -0.5209
  833MOL0     C12375   4.179   6.832  10.180 -0.3884 -0.6022  0.2511
  833MOL0     C12376   4.066   6.924  10.204  0.0213 -0.1956  0.7095
  833MOL0     C12377   4.068   7.053  10.152 -0.3643  0.6871 -0.1962
  833MOL0     C12378   4.171   7.093  10.068 -0.3536  0.5571 -0.9621
  833MOL0     O12379   4.164   7.212  10.012  0.0776 -0.1214  0.8954
  833MOL0     C12380   4.276   7.294   9.968 -0.4847 -0.5302 -0.3678
  833MOL0     C12381   4.231   7.437  10.013 -0.4961  0.6084 -0.1959
  833MOL0     C12382   4.091   7.464   9.978  0.2926 -0.5231 -0.0504
  833MOL0     C12383   4.047   7.613  10.004 -0.2662  0.7606 -0.9024
  833MOL0     C12384   3.915   7.625   9.946 -1.3850  0.1401  0.1917
  833MOL0     C12385   3.806   7.638   9.899 -0.2706  0.7060 -0.0196
  833MOL0     C12386   4.286   7.015  10.054 -1.1120  0.2633 -0.3716
  833MOL0     C12387   4.285   6.875  10.105 -0.8760  0.0938  0.6637
  833MOL0     H12388   4.036   6.447  10.107 -0.0757 -0.3517 -1.2764
  833MOL0     H12389   4.028   6.196  10.161  0.7204  0.6651 -6.4977
  833MOL0     H12390   4.169   6.012  10.074  0.5335 -0.5191  0.4867
  833MOL0     H12391   4.311   5.943  10.142 -0.0203 -0.0059 -2.9847
  833MOL0     H12392   4.154   5.849  10.325 -1.6206  1.7968  1.1894
  833MOL0     H12393   4.017   5.912  10.232 -1.1321 -2.5297  0.9777
  833MOL0     H12394   4.034   5.767  10.063 -0.1597 -1.7017  1.4847
  833MOL0     H12395   4.205   5.741  10.070 -0.1643  0.5216 -0.9428
  833MOL0     H12396   4.155   5.590  10.268 -1.4153  1.5112  2.3304
  833MOL0     H12397   3.993   5.637  10.263 -0.0481  1.3038  0.8444
  833MOL0     H12398   4.002   5.576   9.999  0.1863  0.1279  0.1994
  833MOL0     H12399   4.153   5.496  10.040 -1.8905 -2.0728 -1.8833
  833MOL0     H12400   4.006   5.324  10.022  1.7059  0.6293  0.5201
  833MOL0     H12401   4.018   5.338  10.205 -0.7227  0.7441  1.8356
  833MOL0     H12402   3.812   5.483  10.194  1.8367  1.5800  0.0295
  833MOL0     H12403   3.800   5.458  10.030 -4.8924 -2.3713  0.2788
  833MOL0     H12404   3.792   5.252  10.245  0.2921  2.5349  1.6397
  833MOL0     H12405   3.788   5.204  10.071  0.9810  2.1727 -0.0591
  833MOL0     H12406   3.588   5.371   9.939  2.9224  1.9634  0.8806
  833MOL0     H12407   3.332   5.439   9.915  1.9346  1.6960 -0.2101
  833MOL0     H12408   3.210   5.389  10.031 -0.4327  1.5522  2.3808
  833MOL0     H12409   3.170   5.607  10.003 -1.1853 -4.9140 -0.7427
  833MOL0     H12410   3.343   5.650  10.018  1.2403  0.7515  2.6283
  833MOL0     H12411   3.340   5.652  10.249  0.7667 -1.5842  0.3787
  833MOL0     H12412   3.225   5.518  10.249  0.8442 -1.1936 -1.3750
  833MOL0     H12413   3.048   5.670  10.186  1.3510 -3.8809  0.9564
  833MOL0     H12414   3.155   5.806  10.175 -2.4292  1.8919  2.2482
  833MOL0     H12415   2.879   5.780  10.278 -2.6326  2.3969 -0.0040
  833MOL0     H12416   2.630   5.910  10.388 -0.0988  0.5184 -0.2209
  833MOL0     H12417   2.642   5.769  10.297 -0.7221 -1.6197  0.4028
  833MOL0     H12418   2.584   5.753  10.465  2.9008 -1.7918  2.3496
  833MOL0     H12419   2.415   5.773  10.789 -3.0996 -2.7814  0.1752
  833MOL0     H12420   2.261   5.727  10.962  0.4227 -2.1497 -0.2425
  833MOL0     H12421   2.151   5.773  11.150 -1.6901  0.9427  3.1602
  833MOL0     H12422   2.179   5.600  11.128  0.4506 -1.4418  0.6238
  833MOL0     H12423   2.005   5.616  11.287  1.1502 -1.8776 -1.8688
  833MOL0     H12424   2.142   5.585  11.391 -1.0784  0.8856  1.2117
  833MOL0     H12425   2.063   5.870  11.336 -0.0830  0.8979  0.7794
  833MOL0     H12426   2.175   5.791  11.443  1.1385  1.4246 -2.1859
  833MOL0     H12427   1.868   5.759  11.426  0.6975  1.6797 -1.0274
  833MOL0     H12428   1.970   5.669  11.545 -0.5334 -0.2851  0.9031
  833MOL0     H12429   1.982   5.978  11.504 -0.2727  0.5998  0.7515
  833MOL0     H12430   2.031   5.887  11.643  2.7131 -2.0112 -0.7034
  833MOL0     H12431   1.832   6.024  11.695 -0.3400  0.0054 -0.6494
  833MOL0     H12432   1.741   5.941  11.564  1.5394  1.8335 -1.9788
  833MOL0     H12433   1.815   5.856  11.847  0.8531  0.6059  0.1903
  833MOL0     H12434   1.859   5.729  11.723 -0.7957 -0.3182 -0.5522
  833MOL0     H12435   1.643   5.679  11.786  1.9003 -0.2653  0.8526
  833MOL0     H12436   1.651   5.724  11.614  2.8835 -2.2851  1.6429
  833MOL0     H12437   2.570   5.702  11.254 -1.0108  0.1881  0.2840
  833MOL0     H12438   2.729   5.686  11.065  0.0404 -4.3004 -3.5398
  833MOL0     H12439   2.930   5.732  10.769 -3.0535  0.1945  0.0174
  833MOL0     H12440   3.134   5.712  10.623 -0.8600 -0.3979  1.1195
  833MOL0     H12441   4.459   6.241  10.253  0.3697  3.1029  1.1646
  833MOL0     H12442   4.436   6.474  10.211  1.2570 -0.1948  2.6523
  833MOL0     H12443   3.979   6.897  10.263  1.7317  0.8736  4.0311
  833MOL0     H12444   3.978   7.113  10.158  0.4927  2.0080 -0.2577
  833MOL0     H12445   4.372   7.257  10.005 -0.9334 -1.1907  0.1669
  833MOL0     H12446   4.281   7.310   9.860  2.1125 -1.8765 -0.5217
  833MOL0     H12447   4.300   7.507   9.966 -1.0859  4.0250  3.4605
  833MOL0     H12448   4.251   7.455  10.120 -1.2540  0.2012  0.0225
  833MOL0     H12449   4.023   7.399  10.033 -0.5047  0.5896  0.3106
  833MOL0     H12450   4.075   7.455   9.870  0.7046  1.1073 -0.2748
  833MOL0     H12451   4.122   7.685   9.970 -1.2503  1.9037 -0.6805
  833MOL0     H12452   4.041   7.624  10.113  1.9258 -4.0259 -0.0374
  833MOL0     H12453   3.708   7.660   9.862 -0.9121 -1.4631  0.2613
  833MOL0     H12454   4.370   7.054   9.998  0.7630  1.9727  3.2843
  833MOL0     H12455   4.367   6.807  10.084 -1.3933 -0.5053  0.5586
  834MOL0     O12456   5.642   0.745   6.548 -0.1115 -0.1982  0.3342
  834MOL0     C12457   5.572   0.823   6.610  0.2667 -0.2003  0.2245
  834MOL0     O12458   5.438   0.830   6.601  0.2964 -0.2075  0.3339
  834MOL0     C12459   5.356   0.740   6.529  0.2473  0.1303 -0.7075
  834MOL0     C12460   5.382   0.607   6.521  0.1503  0.0161  0.4483
  834MOL0     C12461   5.293   0.522   6.464  1.3667  0.1386 -0.1658
  834MOL0     C12462   5.171   0.564   6.425  0.5291  0.3576 -0.0491
  834MOL0     O12463   5.062   0.496   6.374  0.8378  0.2627 -0.1724
  834MOL0     C12464   5.043   0.358   6.411  0.8507  0.2858  0.9331
  834MOL0     C12465   4.906   0.320   6.363 -0.0216 -0.3631  0.1717
  834MOL0     C12466   4.879   0.177   6.414  0.7700 -0.8591  0.1923
  834MOL0     C12467   4.738   0.127   6.383  0.7093  0.0988  0.2628
  834MOL0     C12468   4.675   0.032   6.492 -0.9394 -0.2800 -0.0238
  834MOL0     C12469   4.659   0.108   6.621  0.3408 -0.2560 -0.3594
  834MOL0     C12470   4.591   0.014   6.725 -0.1338 -0.0271 -0.2143
  834MOL0     C12471   4.551   0.092   6.852  0.4224 -0.7587 -0.0478
  834MOL0     N12472   4.442   0.187   6.836  0.4403 -0.4774  0.2791
  834MOL0     C12473   4.462   0.315   6.799  0.5011 -0.1198 -0.4826
  834MOL0     C12474   4.336   0.354   6.766  0.5134 -0.0311  0.6835
  834MOL0     C12475   4.287   0.498   6.719  0.1031 -0.0283 -0.3955
  834MOL0     C12476   4.163   0.490   6.619  0.3954  0.0471  0.6749
  834MOL0     C12477   4.133   0.622   6.551 -1.1152 -0.0875 -0.4019
  834MOL0     C12478   3.990   0.655   6.528 -0.0882  0.4383 -0.0174
  834MOL0     O12479   3.927   0.558   6.457  0.4261 -0.3052 -0.1296
  834MOL0     C12480   3.792   0.579   6.466  0.9593 -0.3799 -0.6126
  834MOL0     C12481   3.717   0.688   6.416  0.2415  0.4849  0.2977
  834MOL0     C12482   3.577   0.689   6.425 -0.7618 -0.1830  0.2588
  834MOL0     C12483   3.510   0.798   6.343  0.1065  0.1025 -0.1662
  834MOL0     C12484   3.508   0.591   6.502 -0.1758  0.5303  1.1922
  834MOL0     C12485   3.367   0.602   6.531 -0.1617 -0.3218  0.1289
  834MOL0     O12486   3.317   0.729   6.552  1.5727 -0.3795 -0.1872
  834MOL0     C12487   3.184   0.751   6.565 -0.8754  0.6318 -0.3562
  834MOL0     C12488   3.146   0.877   6.592  0.3033  0.4014  0.2913
  834MOL0     C12489   3.016   0.919   6.614 -0.1830 -0.1383 -0.2306
  834MOL0     C12490   2.906   0.834   6.605  0.4024 -0.4301  0.0478
  834MOL0     O12491   2.784   0.891   6.610 -0.6418  0.0126  0.0765
  834MOL0     C12492   2.662   0.822   6.608 -0.3335  0.7820 -0.0717
  834MOL0     C12493   2.559   0.924   6.657  0.0219 -0.7971  1.5425
  834MOL0     C12494   2.419   0.880   6.680  0.9637  0.5994 -1.0093
  834MOL0     C12495   2.307   0.998   6.687 -0.4970  0.4881  0.0834
  834MOL0     C12496   2.171   0.948   6.736 -0.2336  0.4445  0.2013
  834MOL0     C12497   2.080   1.062   6.779 -0.5944 -0.5691 -0.7485
  834MOL0     C12498   1.948   1.017   6.837  0.0900 -0.6161  0.1205
  834MOL0     C12499   1.870   0.925   6.728 -0.1709 -1.1998  0.2905
  834MOL0    Cl12500   1.711   0.893   6.798  0.5214  0.3050 -0.3079
  834MOL0     C12501   2.933   0.705   6.563 -0.4393  0.8383 -0.1566
  834MOL0     C12502   3.072   0.665   6.543 -0.0936 -0.7031  0.1746
  834MOL0     O12503   3.302   0.497   6.546 -0.6232 -0.3619 -0.4712
  834MOL0     C12504   3.580   0.485   6.553 -0.3981 -1.1047  0.2120
  834MOL0     C12505   3.718   0.479   6.535 -0.5652 -0.2372  0.7890
  834MOL0     N12506   4.244   0.260   6.792  0.6513 -0.0751 -0.5342
  834MOL0     N12507   4.307   0.152   6.834 -0.5578 -0.0674 -0.4635
  834MOL0     C12508   5.149   0.703   6.422  0.1611 -0.0254 -0.1115
  834MOL0     C12509   5.236   0.787   6.478  0.1583  0.0300 -1.1858
  834MOL0     C12510   5.636   0.923   6.696  0.1783  0.7330 -0.4248
  834MOL0     C12511   5.772   0.908   6.737  0.2581  0.5516 -0.8371
  834MOL0     C12512   5.837   1.012   6.807 -0.2025 -0.4718  0.3190
  834MOL0     C12513   5.763   1.129   6.844 -0.0745  0.9900 -0.2310
  834MOL0     O12514   5.834   1.228   6.910 -0.4073  0.0620 -0.0083
  834MOL0     C12515   5.794   1.369   6.905  0.1257  0.6147  0.0273
  834MOL0     C12516   5.927   1.454   6.932  0.7282  0.2488  0.1009
  834MOL0     C12517   5.928   1.597   6.873 -0.3159  0.4980 -0.0890
  834MOL0     C12518   5.850   1.686   6.970  0.4802 -0.8008  0.2920
  834MOL0     C12519   5.852   1.827   6.929  0.1803  0.2598 -0.5815
  834MOL0     C12520   5.854   1.940   6.889 -0.6700 -0.7826  0.5804
  834MOL0     C12521   5.636   1.138   6.795  0.3593  0.2664 -0.7181
  834MOL0     C12522   5.563   1.036   6.732  0.7179  0.2431  0.4629
  834MOL0     H12523   5.474   0.557   6.551 -0.6239  0.0602  3.1478
  834MOL0     H12524   5.313   0.415   6.464  3.0723  0.3598 -2.5323
  834MOL0     H12525   5.112   0.288   6.364 -2.0370 -1.9515 -0.3053
  834MOL0     H12526   5.045   0.349   6.520 -0.5296 -1.9659  0.8223
  834MOL0     H12527   4.830   0.386   6.406 -0.0337  1.2388 -2.1413
  834MOL0     H12528   4.888   0.335   6.257 -3.1789 -0.4382  0.6046
  834MOL0     H12529   4.948   0.105   6.368 -0.5840 -2.5896  0.7834
  834MOL0     H12530   4.902   0.179   6.521  1.1820 -0.6914  0.1052
  834MOL0     H12531   4.669   0.211   6.371  1.6342  0.5426 -2.5793
  834MOL0     H12532   4.741   0.070   6.290 -1.8305 -0.8883  0.7027
  834MOL0     H12533   4.584  -0.013   6.451  1.0530 -2.3761 -2.5396
  834MOL0     H12534   4.751  -0.046   6.503 -0.5470  0.3090  1.7402
  834MOL0     H12535   4.752   0.146   6.664 -1.0321  0.7356  1.9147
  834MOL0     H12536   4.597   0.197   6.609  1.0430  0.1458 -1.1166
  834MOL0     H12537   4.496  -0.029   6.692 -0.6024 -0.7109  1.8630
  834MOL0     H12538   4.675  -0.052   6.752  2.7130  3.6419  0.7179
  834MOL0     H12539   4.640   0.145   6.885 -0.0364  0.1685 -0.2588
  834MOL0     H12540   4.532   0.017   6.929  2.2375 -0.1620  1.0385
  834MOL0     H12541   4.560   0.360   6.799  0.3896  0.2730  2.2678
  834MOL0     H12542   4.262   0.556   6.808 -1.3073 -0.9344 -0.1566
  834MOL0     H12543   4.370   0.549   6.671  0.3172  2.2797  2.2205
  834MOL0     H12544   4.078   0.455   6.679  0.5940 -2.8217 -0.5947
  834MOL0     H12545   4.176   0.417   6.540  1.3650  0.4460  0.4575
  834MOL0     H12546   4.190   0.635   6.459  1.0332  1.4686  1.0418
  834MOL0     H12547   4.170   0.704   6.614 -2.8696  1.4011 -1.2129
  834MOL0     H12548   3.988   0.746   6.467 -1.1129  0.0623 -0.5840
  834MOL0     H12549   3.946   0.670   6.627 -0.3197  1.2546 -0.2410
  834MOL0     H12550   3.761   0.773   6.365  2.3658 -0.8771 -0.2254
  834MOL0     H12551   3.586   0.822   6.267  1.9439 -1.8231  0.9598
  834MOL0     H12552   3.419   0.767   6.291 -1.7117  2.1467  1.6000
  834MOL0     H12553   3.488   0.890   6.399  0.3780  0.0775 -0.0141
  834MOL0     H12554   3.225   0.950   6.604 -1.1475  2.1479 -0.2820
  834MOL0     H12555   2.991   1.019   6.649 -0.7717  0.2898 -1.8183
  834MOL0     H12556   2.633   0.787   6.509 -0.7954 -1.1237  0.7098
  834MOL0     H12557   2.659   0.738   6.678 -1.7858  0.0142 -1.0049
  834MOL0     H12558   2.610   0.968   6.744  2.6037 -0.5258  0.0205
  834MOL0     H12559   2.548   1.002   6.582 -0.8126  1.0058  3.4217
  834MOL0     H12560   2.411   0.823   6.773  0.8913  1.7913 -0.2535
  834MOL0     H12561   2.393   0.807   6.603  1.3138 -2.2968  1.4431
  834MOL0     H12562   2.343   1.088   6.736  0.2464  0.0991  0.2680
  834MOL0     H12563   2.286   1.018   6.582 -1.5983 -1.1289 -0.0541
  834MOL0     H12564   2.180   0.872   6.814 -3.5693  0.0094  0.3057
  834MOL0     H12565   2.120   0.908   6.648  0.3405  1.8390 -0.8043
  834MOL0     H12566   2.123   1.118   6.862 -1.0191  2.2196 -2.2719
  834MOL0     H12567   2.068   1.137   6.701 -0.7348  0.2506  0.0515
  834MOL0     H12568   1.882   1.095   6.877  1.6977  0.9798 -0.2571
  834MOL0     H12569   1.967   0.955   6.926 -2.3980 -0.4368  0.8599
  834MOL0     H12570   1.919   0.830   6.705  1.3538 -0.2370 -0.6949
  834MOL0     H12571   1.873   0.983   6.635 -0.3293 -0.0468  0.9774
  834MOL0     H12572   2.857   0.632   6.541 -2.9614  2.7194  1.6227
  834MOL0     H12573   3.084   0.562   6.512  2.7747 -0.9383  1.7111
  834MOL0     H12574   3.539   0.399   6.604  0.4172 -1.1715  0.7620
  834MOL0     H12575   3.774   0.393   6.567 -0.3017 -0.9468 -1.4217
  834MOL0     H12576   5.059   0.746   6.379 -1.6166 -2.3506  1.0571
  834MOL0     H12577   5.231   0.896   6.471 -0.3254 -0.0762 -2.8570
  834MOL0     H12578   5.830   0.819   6.713 -2.7944 -1.4837 -1.1982
  834MOL0     H12579   5.941   0.995   6.832  0.8155  0.2269 -3.0203
  834MOL0     H12580   5.751   1.396   6.808  1.8639  0.9214 -0.7013
  834MOL0     H12581   5.721   1.392   6.983  1.4143  3.4753  0.4912
  834MOL0     H12582   6.004   1.396   6.880 -1.0347 -1.3721 -0.8383
  834MOL0     H12583   5.940   1.457   7.040 -1.4516  3.0271  0.4139
  834MOL0     H12584   5.890   1.619   6.773  2.7007 -0.5312 -1.5743
  834MOL0     H12585   6.033   1.626   6.866  0.5954 -2.5448 -0.2503
  834MOL0     H12586   5.893   1.669   7.069  0.7592 -0.7547  0.1790
  834MOL0     H12587   5.745   1.657   6.976 -0.2420  1.7369  1.7730
  834MOL0     H12588   5.833   2.033   6.841  0.3837 -1.5879 -1.5694
  834MOL0     H12589   5.587   1.232   6.819  4.0703  2.2062  0.0935
  834MOL0     H12590   5.463   1.068   6.704  1.2401  2.2523  0.7332
  835MOL0     O12591   0.665   0.569   8.920 -0.1689 -0.3442 -0.1059
  835MOL0     C12592   0.627   0.646   9.007 -0.3705 -0.3169  0.0939
  835MOL0     O12593   0.510   0.642   9.076  0.3283  0.0536  0.3128
  835MOL0     C12594   0.400   0.570   9.055  0.3381 -0.3196 -0.6952
  835MOL0     C12595   0.307   0.597   9.154  0.1668 -0.5334  0.4360
  835MOL0     C12596   0.177   0.563   9.134  1.3188  0.2730  0.6091
  835MOL0     C12597   0.134   0.497   9.017 -0.2159 -1.1660 -0.9026
  835MOL0     O12598   0.007   0.460   8.984 -0.0039 -0.0550 -0.5363
  835MOL0     C12599  -0.098   0.536   9.043 -0.5423 -0.2379  0.5313
  835MOL0     C12600  -0.221   0.495   8.970 -1.0245 -0.1996  0.0435
  835MOL0     C12601  -0.340   0.533   9.055  0.1234  0.0918  1.0042
  835MOL0     C12602  -0.467   0.469   8.976 -0.1111 -0.3231  0.5987
  835MOL0     C12603  -0.606   0.484   9.026 -0.0711  0.1705  0.0904
  835MOL0     C12604  -0.625   0.388   9.145  0.7963 -0.0998  0.2265
  835MOL0     C12605  -0.775   0.364   9.184  0.1859 -0.4511 -0.2378
  835MOL0     C12606  -0.846   0.482   9.229 -0.1717  0.0168  0.1089
  835MOL0     N12607  -0.989   0.466   9.256  0.0577 -0.8853  0.2533
  835MOL0     C12608  -1.090   0.549   9.216 -0.6118 -0.3675 -0.2629
  835MOL0     C12609  -1.207   0.507   9.269  0.1476  0.3657  0.3131
  835MOL0     C12610  -1.344   0.574   9.268  0.2997 -0.4222 -0.1176
  835MOL0     C12611  -1.404   0.580   9.413  0.3774  0.1034  0.4723
  835MOL0     C12612  -1.534   0.649   9.417 -0.5145 -0.0654 -0.0588
  835MOL0     C12613  -1.605   0.664   9.551  0.5400 -0.7352 -0.0870
  835MOL0     O12614  -1.735   0.720   9.520 -0.5223 -0.2424 -0.3309
  835MOL0     C12615  -1.834   0.723   9.615 -0.2981 -0.7098 -0.0500
  835MOL0     C12616  -1.965   0.701   9.583  0.6557  0.5752 -0.1259
  835MOL0     C12617  -2.068   0.669   9.670 -0.6326  0.0513 -0.2357
  835MOL0     C12618  -2.199   0.642   9.604 -0.1302  0.0092 -0.1006
  835MOL0     C12619  -2.040   0.676   9.807 -0.0986 -0.0710 -0.2591
  835MOL0     C12620  -2.144   0.650   9.909  0.2062 -0.9161 -0.8994
  835MOL0     O12621  -2.099   0.650  10.036 -0.6798 -0.6122  0.6074
  835MOL0     C12622  -2.189   0.630  10.142  0.1370 -0.0129  0.1066
  835MOL0     C12623  -2.186   0.512  10.218 -0.2226 -0.4912  0.4959
  835MOL0     C12624  -2.282   0.491  10.314  0.6352 -0.6788 -0.5704
  835MOL0     C12625  -2.370   0.592  10.350  0.3413  0.6187 -0.1652
  835MOL0     O12626  -2.466   0.576  10.446 -0.5356 -0.1526 -0.5901
  835MOL0     C12627  -2.424   0.522  10.569 -0.3944 -0.7445  0.3357
  835MOL0     C12628  -2.528   0.542  10.674 -0.0072 -0.4362 -0.3981
  835MOL0     C12629  -2.548   0.679  10.736  0.3623  0.5538 -0.2536
  835MOL0     C12630  -2.584   0.789  10.628 -0.4784 -0.9974 -0.2596
  835MOL0     C12631  -2.618   0.924  10.699  0.4246  0.8702  0.0635
  835MOL0     C12632  -2.706   1.011  10.599  0.0118  0.3136 -0.1131
  835MOL0     C12633  -2.634   1.016  10.458  0.1380  0.5026  0.0327
  835MOL0     C12634  -2.698   1.117  10.360  0.7270  0.3456  0.6311
  835MOL0    Cl12635  -2.709   1.278  10.432  0.0932  0.2432  0.2747
  835MOL0     C12636  -2.375   0.712  10.276  0.3443  0.2130 -0.0862
  835MOL0     C12637  -2.287   0.723  10.170 -0.1060 -0.6915 -0.1369
  835MOL0     O12638  -2.264   0.661   9.880  0.0381 -0.6053  0.0136
  835MOL0     C12639  -1.907   0.709   9.845  0.4861  0.0311 -0.0764
  835MOL0     C12640  -1.810   0.727   9.757 -0.6738  0.3439  0.9481
  835MOL0     N12641  -1.175   0.394   9.342 -0.5083  0.5248  0.3289
  835MOL0     N12642  -1.044   0.377   9.335  0.7050 -0.6773 -0.3759
  835MOL0     C12643   0.235   0.469   8.917 -0.2448 -0.3607 -0.8112
  835MOL0     C12644   0.371   0.500   8.938  0.1159 -1.0598  0.5516
  835MOL0     C12645   0.697   0.775   9.012 -0.2338 -0.5318  0.1790
  835MOL0     C12646   0.629   0.903   9.003 -0.3730  0.5497 -0.1779
  835MOL0     C12647   0.706   1.018   9.010  0.0493 -0.7465 -0.0819
  835MOL0     C12648   0.845   1.013   9.030 -0.1042 -0.7118 -0.0915
  835MOL0     O12649   0.905   1.134   9.027 -0.9462  0.4982  0.2377
  835MOL0     C12650   1.048   1.142   9.058 -0.1450  0.4254  0.8914
  835MOL0     C12651   1.090   1.293   9.080  0.5175  0.3602 -0.3759
  835MOL0     C12652   1.245   1.316   9.081  0.5009 -0.2563 -0.3085
  835MOL0     C12653   1.294   1.386   8.950  0.2234  0.4592 -0.0619
  835MOL0     C12654   1.440   1.379   8.943 -0.5470 -0.3920 -0.5455
  835MOL0     C12655   1.560   1.382   8.956 -0.1976 -0.3992 -0.4570
  835MOL0     C12656   0.909   0.898   9.042  0.1886 -0.5075 -0.6711
  835MOL0     C12657   0.835   0.777   9.030 -0.2544 -1.0274  0.3138
  835MOL0     H12658   0.335   0.640   9.249  4.7820  0.8168 -1.2975
  835MOL0     H12659   0.094   0.590   9.200 -1.7522 -0.8345 -2.4662
  835MOL0     H12660  -0.108   0.526   9.152 -1.3774  2.4620  0.7624
  835MOL0     H12661  -0.089   0.643   9.023  1.3944 -0.1901  1.3837
  835MOL0     H12662  -0.210   0.553   8.878 -1.5672  0.9581  0.6866
  835MOL0     H12663  -0.222   0.388   8.948 -2.4983  0.0297 -1.2033
  835MOL0     H12664  -0.326   0.477   9.148  0.0449 -2.4698 -0.4228
  835MOL0     H12665  -0.357   0.641   9.059 -4.3036 -0.0732 -3.2481
  835MOL0     H12666  -0.480   0.524   8.882 -0.2357  2.7009  2.2711
  835MOL0     H12667  -0.451   0.364   8.951 -1.9461 -0.5493  0.1821
  835MOL0     H12668  -0.634   0.587   9.046 -0.7214 -0.2982  1.7239
  835MOL0     H12669  -0.690   0.458   8.961 -2.3290  2.5912  1.8725
  835MOL0     H12670  -0.574   0.294   9.121  2.9021  0.9489  0.3809
  835MOL0     H12671  -0.576   0.430   9.233  3.9334  3.1308 -2.7059
  835MOL0     H12672  -0.835   0.325   9.101 -0.0999 -0.9027  0.1799
  835MOL0     H12673  -0.767   0.287   9.261 -0.7334  0.9830  1.3462
  835MOL0     H12674  -0.830   0.560   9.154 -1.2024 -2.2611 -2.6507
  835MOL0     H12675  -0.804   0.501   9.328 -2.3707 -3.0355  1.8087
  835MOL0     H12676  -1.068   0.632   9.150  0.2998 -0.0427  0.4208
  835MOL0     H12677  -1.327   0.677   9.236  0.1854  0.2068  1.7644
  835MOL0     H12678  -1.415   0.520   9.205  1.1815  2.2654 -3.7883
  835MOL0     H12679  -1.338   0.631   9.483 -0.9419 -0.6594  2.3373
  835MOL0     H12680  -1.420   0.478   9.450 -2.8545  0.5107  0.4332
  835MOL0     H12681  -1.602   0.593   9.351 -0.9263  0.2733  0.0729
  835MOL0     H12682  -1.517   0.744   9.365  1.3285  0.4241  1.3280
  835MOL0     H12683  -1.552   0.732   9.618 -0.5365 -0.4810  0.5384
  835MOL0     H12684  -1.618   0.562   9.588 -1.3249 -1.1684 -1.7566
  835MOL0     H12685  -1.984   0.713   9.477  0.3799 -2.2917 -0.4821
  835MOL0     H12686  -2.283   0.698   9.646 -0.4613 -1.9880  2.1042
  835MOL0     H12687  -2.190   0.658   9.496 -1.7310 -3.4162 -0.8932
  835MOL0     H12688  -2.220   0.535   9.614 -1.1655  0.2593  0.4960
  835MOL0     H12689  -2.101   0.451  10.190  0.6338 -0.3801  2.6718
  835MOL0     H12690  -2.287   0.400  10.373  1.2943 -0.4120 -0.0903
  835MOL0     H12691  -2.409   0.414  10.561 -1.1021 -1.0196  2.1047
  835MOL0     H12692  -2.336   0.572  10.609 -0.9717 -0.1836  0.9294
  835MOL0     H12693  -2.624   0.514  10.630 -0.8046  1.0055  0.3597
  835MOL0     H12694  -2.511   0.478  10.762 -1.5028 -0.0120  0.2365
  835MOL0     H12695  -2.465   0.719  10.796 -1.5264  1.6250  1.7648
  835MOL0     H12696  -2.640   0.678  10.795 -1.1502  1.2637 -2.4753
  835MOL0     H12697  -2.493   0.795  10.568  0.2371 -3.5254  0.4310
  835MOL0     H12698  -2.669   0.759  10.566 -0.5176  1.3151 -1.4031
  835MOL0     H12699  -2.529   0.978  10.733  1.5232 -1.7232  1.7233
  835MOL0     H12700  -2.691   0.911  10.779 -1.6807 -1.0112 -2.0136
  835MOL0     H12701  -2.802   0.963  10.579  0.7144 -0.3971 -2.0400
  835MOL0     H12702  -2.729   1.113  10.629  1.8980  1.0870 -1.1153
  835MOL0     H12703  -2.644   0.916  10.414 -1.7713  0.8814 -0.4998
  835MOL0     H12704  -2.528   1.037  10.478 -0.0902 -1.2728  3.9899
  835MOL0     H12705  -2.800   1.082  10.342  1.3179 -0.5665 -1.2474
  835MOL0     H12706  -2.645   1.127  10.265 -2.2302  2.3221 -0.9561
  835MOL0     H12707  -2.454   0.785  10.292 -0.8232 -0.8397 -0.8566
  835MOL0     H12708  -2.282   0.807  10.101  1.9668 -0.5868  0.0716
  835MOL0     H12709  -1.882   0.717   9.951  0.6479 -1.9150  0.0638
  835MOL0     H12710  -1.712   0.749   9.798  0.3517 -0.0370 -1.1799
  835MOL0     H12711   0.195   0.433   8.823  0.6157  1.5308 -1.9553
  835MOL0     H12712   0.442   0.510   8.856 -1.2276  3.0736 -0.3826
  835MOL0     H12713   0.522   0.906   8.985 -0.6936  2.9643  1.5732
  835MOL0     H12714   0.661   1.116   9.002  0.9791 -0.3084 -0.1510
  835MOL0     H12715   1.075   1.090   9.150 -1.4552 -2.1292 -0.0640
  835MOL0     H12716   1.108   1.098   8.977  1.3448  1.6366  1.2796
  835MOL0     H12717   1.044   1.305   9.178  0.9044 -1.3590  0.0447
  835MOL0     H12718   1.050   1.359   9.003  0.9106  1.5711  0.4312
  835MOL0     H12719   1.296   1.220   9.094  1.9146  0.4895 -0.2106
  835MOL0     H12720   1.268   1.372   9.172  0.3552 -1.8864  0.7758
  835MOL0     H12721   1.263   1.491   8.940 -0.3662  0.6121  2.5729
  835MOL0     H12722   1.253   1.320   8.873 -0.8501  1.0334 -0.0002
  835MOL0     H12723   1.663   1.389   8.984 -0.3115  0.2370 -0.1762
  835MOL0     H12724   1.017   0.896   9.041  0.2632  1.4856 -0.2090
  835MOL0     H12725   0.891   0.684   9.037 -0.7226 -1.2451  1.3959
  836MOL0     O12726   8.807   9.379   1.435  0.6882  0.1694 -0.1512
  836MOL0     C12727   8.909   9.440   1.428 -1.1463 -1.0310  0.2977
  836MOL0     O12728   8.937   9.560   1.498 -0.4755  0.4238  0.4132
  836MOL0     C12729   8.836   9.633   1.565  0.1847 -0.2041  0.2685
  836MOL0     C12730   8.820   9.773   1.553 -0.2580 -0.6995  0.2013
  836MOL0     C12731   8.717   9.846   1.623 -0.4097 -0.3113 -0.4367
  836MOL0     C12732   8.630   9.777   1.713  0.4579  0.3539 -0.7840
  836MOL0     O12733   8.522   9.828   1.784  0.4751  0.7810  0.2088
  836MOL0     C12734   8.488   9.969   1.761 -0.1705 -0.1816 -0.1239
  836MOL0     C12735   8.336   9.976   1.801  0.2481  0.2892  0.0874
  836MOL0     C12736   8.245   9.906   1.693  0.4390 -0.2098 -0.0717
  836MOL0     C12737   8.128   9.824   1.768  0.5099 -0.2129  0.2722
  836MOL0     C12738   8.010   9.912   1.820 -0.6028 -0.6166  0.4135
  836MOL0     C12739   7.905   9.853   1.909  0.9125  0.7826 -0.1127
  836MOL0     C12740   7.948   9.771   2.038  0.0013 -0.3773 -1.3457
  836MOL0     C12741   7.948   9.858   2.157  0.0267 -0.0479 -0.1574
  836MOL0     N12742   7.812   9.912   2.194  0.7944 -0.0752  0.9251
  836MOL0     C12743   7.702   9.841   2.221  0.2208 -0.6115 -1.3299
  836MOL0     C12744   7.619   9.937   2.269  1.3905 -0.3773  0.5549
  836MOL0     C12745   7.480   9.919   2.322 -0.3502 -0.5117  0.3734
  836MOL0     C12746   7.478   9.842   2.454  0.2819 -0.4633  0.5747
  836MOL0     C12747   7.519   9.932   2.574  0.4297  0.3720  0.3690
  836MOL0     C12748   7.416  10.042   2.609  1.0164 -0.1102  0.1156
  836MOL0     O12749   7.310   9.991   2.680 -0.8831  0.2808  0.4944
  836MOL0     C12750   7.186  10.036   2.655 -0.5184  1.2231 -0.0268
  836MOL0     C12751   7.165  10.160   2.603  0.1851 -0.7259 -0.1744
  836MOL0     C12752   7.035  10.211   2.569  0.2326 -0.4068  0.1046
  836MOL0     C12753   7.027  10.355   2.527 -0.0968 -0.6663  0.0409
  836MOL0     C12754   6.924  10.128   2.588  0.1565 -0.0665  0.0295
  836MOL0     C12755   6.788  10.165   2.558 -0.0755  0.3116 -0.8792
  836MOL0     O12756   6.749  10.292   2.592  0.6732 -0.1020  0.3670
  836MOL0     C12757   6.623  10.324   2.545 -0.0382  0.5173 -0.2572
  836MOL0     C12758   6.517  10.325   2.633  0.0958 -0.7163 -0.4896
  836MOL0     C12759   6.391  10.360   2.596  0.9527 -0.6559 -0.9186
  836MOL0     C12760   6.358  10.369   2.456  0.4216 -0.3441 -0.1724
  836MOL0     O12761   6.225  10.378   2.403 -0.6950  0.3276 -0.1349
  836MOL0     C12762   6.148  10.489   2.446  0.4918 -0.7277 -0.2571
  836MOL0     C12763   6.018  10.496   2.365 -0.0896 -0.0635 -0.3807
  836MOL0     C12764   5.903  10.402   2.428 -0.5131 -0.3662  0.4939
  836MOL0     C12765   5.770  10.459   2.361 -0.3384  0.0135 -0.2022
  836MOL0     C12766   5.758  10.410   2.210 -0.1560 -0.4544 -0.6689
  836MOL0     C12767   5.629  10.427   2.141 -0.2387 -0.7253 -0.4266
  836MOL0     C12768   5.579  10.573   2.127 -0.3461 -0.3911  0.5431
  836MOL0     C12769   5.503  10.637   2.240 -0.3488  0.3607 -0.0360
  836MOL0    Cl12770   5.401  10.782   2.193  0.2574  0.0113 -0.1625
  836MOL0     C12771   6.464  10.354   2.365 -0.6498 -0.5657 -0.6920
  836MOL0     C12772   6.593  10.339   2.407 -0.4227  0.1430  0.0091
  836MOL0     O12773   6.706  10.074   2.523 -0.3504 -0.1455  0.1922
  836MOL0     C12774   6.942  10.000   2.653 -0.9759 -0.3463 -0.1231
  836MOL0     C12775   7.075   9.966   2.692  0.7052  0.3527  0.2207
  836MOL0     N12776   7.671  10.061   2.236  0.1840  0.6616 -0.3220
  836MOL0     N12777   7.796  10.043   2.195  0.9106 -0.4501 -0.5631
  836MOL0     C12778   8.654   9.642   1.733  0.5891  0.1205 -0.4798
  836MOL0     C12779   8.749   9.572   1.660  0.3122 -0.3067  0.5634
  836MOL0     C12780   9.022   9.388   1.346  0.1008  0.4242  0.8894
  836MOL0     C12781   9.133   9.465   1.314 -0.1697  0.3252 -0.4431
  836MOL0     C12782   9.243   9.414   1.241  1.1055  1.3007  0.3946
  836MOL0     C12783   9.226   9.287   1.187  0.4479 -0.4573 -0.0200
  836MOL0     O12784   9.315   9.229   1.105 -1.4532  0.0239  0.4243
  836MOL0     C12785   9.435   9.302   1.074 -0.1120  0.3459  0.2079
  836MOL0     C12786   9.521   9.231   0.966 -0.0577  0.3112 -0.2421
  836MOL0     C12787   9.559   9.080   0.998 -0.4945 -0.7365 -0.5806
  836MOL0     C12788   9.666   9.041   0.892  0.0222  0.2395 -0.4074
  836MOL0     C12789   9.800   9.101   0.922  0.4160  0.7614  0.2161
  836MOL0     C12790   9.908   9.149   0.933 -0.9008 -0.0957  0.0552
  836MOL0     C12791   9.112   9.213   1.210 -0.2608  0.8725 -0.2766
  836MOL0     C12792   9.008   9.261   1.286 -0.4953 -0.1037  0.5845
  836MOL0     H12793   8.884   9.827   1.484 -1.6063  1.0073  0.2352
  836MOL0     H12794   8.706   9.952   1.600 -1.3395 -0.6553 -1.7251
  836MOL0     H12795   8.551  10.031   1.825  1.3696  0.1022 -1.8557
  836MOL0     H12796   8.489  10.013   1.660 -1.2917 -0.8540 -0.4402
  836MOL0     H12797   8.325   9.943   1.905  4.4292 -0.9451  0.3359
  836MOL0     H12798   8.316  10.084   1.802 -1.3396  0.0459 -1.5228
  836MOL0     H12799   8.208   9.979   1.621  2.5096  1.2251  0.2154
  836MOL0     H12800   8.313   9.835   1.645  1.3981  0.1631  0.6993
  836MOL0     H12801   8.078   9.755   1.700 -1.0848 -0.4476  1.6217
  836MOL0     H12802   8.176   9.770   1.850  2.7223 -0.7886 -1.2957
  836MOL0     H12803   8.061   9.993   1.873 -0.0608 -1.5434  1.3582
  836MOL0     H12804   7.965   9.960   1.733 -1.6540 -2.3806 -0.0507
  836MOL0     H12805   7.827   9.925   1.936 -1.6994 -2.8518  3.2167
  836MOL0     H12806   7.848   9.783   1.847  0.8109 -2.2815  3.1607
  836MOL0     H12807   7.872   9.697   2.067 -0.1021  0.9914  2.3918
  836MOL0     H12808   8.045   9.722   2.041 -1.5953 -3.9029 -1.6786
  836MOL0     H12809   8.007   9.948   2.137  0.7379 -0.9255 -2.2595
  836MOL0     H12810   7.984   9.806   2.246  1.5700 -1.6887 -1.6593
  836MOL0     H12811   7.700   9.734   2.238 -0.8408 -0.4056  0.0194
  836MOL0     H12812   7.439  10.020   2.324  1.4275  0.2887 -1.0400
  836MOL0     H12813   7.423   9.864   2.247 -0.4889  1.4315 -1.0305
  836MOL0     H12814   7.540   9.752   2.447  1.1874  0.1192  0.8663
  836MOL0     H12815   7.372   9.820   2.470  0.2317  0.7422  2.0347
  836MOL0     H12816   7.617   9.979   2.561 -0.5281  2.6200  0.7800
  836MOL0     H12817   7.525   9.872   2.666  1.0993  0.7428  0.5728
  836MOL0     H12818   7.385  10.088   2.515 -0.8072  0.6108  1.0242
  836MOL0     H12819   7.453  10.129   2.665 -5.1965  3.3978 -0.3441
  836MOL0     H12820   7.244  10.234   2.590 -0.6426  0.1798 -0.1974
  836MOL0     H12821   7.007  10.413   2.618 -2.3248  0.5473 -1.1320
  836MOL0     H12822   7.120  10.392   2.481 -0.1032 -2.1364 -1.2180
  836MOL0     H12823   6.945  10.383   2.461  1.9080  2.2506 -1.4501
  836MOL0     H12824   6.554  10.300   2.732  0.9525  1.6127 -0.1600
  836MOL0     H12825   6.306  10.367   2.663 -0.1135  2.5391 -2.4321
  836MOL0     H12826   6.119  10.486   2.551 -2.0050  2.3128 -0.7275
  836MOL0     H12827   6.200  10.585   2.433  0.3693 -0.4908  0.8857
  836MOL0     H12828   5.986  10.600   2.376 -0.5173 -0.3945  2.0212
  836MOL0     H12829   6.026  10.478   2.257 -0.2758 -1.4211 -0.1882
  836MOL0     H12830   5.899  10.394   2.537 -0.3842 -0.1521  0.5150
  836MOL0     H12831   5.936  10.303   2.396  1.4682 -0.1550  1.7588
  836MOL0     H12832   5.689  10.424   2.426  0.8119 -0.1430  1.1949
  836MOL0     H12833   5.767  10.568   2.365 -2.7361  0.1520 -2.5089
  836MOL0     H12834   5.783  10.306   2.188 -1.8271 -0.0720 -5.9489
  836MOL0     H12835   5.822  10.471   2.145  0.1052  1.8593  1.5989
  836MOL0     H12836   5.638  10.383   2.041  0.9100  2.0236 -1.6429
  836MOL0     H12837   5.543  10.368   2.172 -1.9124 -0.2511 -3.7259
  836MOL0     H12838   5.512  10.580   2.041  1.5630  3.8536 -0.9015
  836MOL0     H12839   5.668  10.631   2.099  0.9337 -2.1028  0.8920
  836MOL0     H12840   5.580  10.660   2.314 -0.2427  0.0152 -0.0384
  836MOL0     H12841   5.438  10.566   2.293 -2.4210  1.1605 -1.3937
  836MOL0     H12842   6.454  10.351   2.257 -1.8735 -0.9192 -0.5878
  836MOL0     H12843   6.668  10.339   2.329 -0.0769  0.3354  0.3367
  836MOL0     H12844   6.859   9.935   2.678 -0.6131 -1.8876 -2.5880
  836MOL0     H12845   7.084   9.867   2.734 -2.3869  0.3821  1.2410
  836MOL0     H12846   8.594   9.598   1.812 -2.3537  0.7951 -2.1946
  836MOL0     H12847   8.753   9.465   1.681 -1.6882 -0.6424 -0.4604
  836MOL0     H12848   9.148   9.564   1.356  0.4492 -0.1384  0.4699
  836MOL0     H12849   9.332   9.476   1.231  1.5669  1.0203  2.3179
  836MOL0     H12850   9.408   9.393   1.020  0.5549 -0.3018 -1.2955
  836MOL0     H12851   9.493   9.319   1.165  0.8424 -2.0242  0.1275
  836MOL0     H12852   9.613   9.283   0.939 -1.0653  1.6837 -1.1500
  836MOL0     H12853   9.460   9.238   0.875  0.3906  0.2368 -0.5507
  836MOL0     H12854   9.467   9.022   0.993  0.3117 -2.0537 -0.4476
  836MOL0     H12855   9.616   9.065   1.090 -2.2664 -2.4540  0.3168
  836MOL0     H12856   9.639   9.065   0.789 -0.0689 -0.7818 -0.6335
  836MOL0     H12857   9.688   8.934   0.895  0.6789  0.3196 -1.6694
  836MOL0     H12858  10.007   9.185   0.949 -0.7682 -1.0641  1.5992
  836MOL0     H12859   9.101   9.111   1.174  1.5418  1.3429 -2.3644
  836MOL0     H12860   8.917   9.203   1.286  0.4589 -1.6808  0.5455
  837MOL0     O12861   8.327   9.162   4.550 -0.3179  0.1136  0.7761
  837MOL0     C12862   8.333   9.155   4.429 -0.3055  1.0453  0.3773
  837MOL0     O12863   8.233   9.157   4.336 -0.9088  0.0859  0.0551
  837MOL0     C12864   8.109   9.191   4.351  1.4881  0.3881 -0.8207
  837MOL0     C12865   8.056   9.291   4.435 -0.1479 -1.0771 -0.5223
  837MOL0     C12866   7.915   9.320   4.446 -0.4579  0.4022  0.1458
  837MOL0     C12867   7.828   9.240   4.370 -0.0968 -0.6615 -0.4015
  837MOL0     O12868   7.694   9.260   4.372  0.4434 -0.4809  0.3856
  837MOL0     C12869   7.627   9.354   4.454  0.4538  0.7159 -0.3214
  837MOL0     C12870   7.483   9.351   4.417  0.8034 -0.1711 -0.3396
  837MOL0     C12871   7.397   9.463   4.474 -0.3216  0.3128  0.5217
  837MOL0     C12872   7.400   9.486   4.628  0.3663  0.5935  0.4414
  837MOL0     C12873   7.287   9.577   4.668 -0.3131  0.1208  0.5092
  837MOL0     C12874   7.158   9.506   4.682 -0.3026 -0.6680 -0.1342
  837MOL0     C12875   7.051   9.578   4.751  0.6135 -0.6333 -1.0278
  837MOL0     C12876   6.939   9.484   4.795  0.2505 -0.6012  0.5094
  837MOL0     N12877   6.821   9.539   4.865 -1.1300  0.0441  0.4764
  837MOL0     C12878   6.827   9.618   4.980 -0.3853  0.6930 -0.2336
  837MOL0     C12879   6.696   9.634   5.012 -0.8204 -0.8229 -0.1853
  837MOL0     C12880   6.644   9.703   5.136 -0.9332 -0.9852 -0.1335
  837MOL0     C12881   6.495   9.726   5.150 -0.4716 -0.8455 -0.5098
  837MOL0     C12882   6.473   9.767   5.293  0.7238  0.0344 -0.3266
  837MOL0     C12883   6.324   9.774   5.309 -0.6802  0.1904 -0.6569
  837MOL0     O12884   6.257   9.867   5.221 -0.0957  0.2341 -0.0303
  837MOL0     C12885   6.149   9.812   5.163 -0.4014  0.3140 -1.0843
  837MOL0     C12886   6.030   9.796   5.238 -0.2823  0.2132  0.6244
  837MOL0     C12887   5.913   9.751   5.181 -0.4204  0.2095 -1.2055
  837MOL0     C12888   5.792   9.763   5.273 -0.8811 -0.2665  0.0602
  837MOL0     C12889   5.912   9.708   5.047  1.0671  1.3677 -1.5769
  837MOL0     C12890   5.788   9.675   4.981  0.0028 -0.4129  0.3234
  837MOL0     O12891   5.791   9.572   4.888  0.5564  0.2811  0.2212
  837MOL0     C12892   5.673   9.561   4.820 -0.5739  0.0739  0.7440
  837MOL0     C12893   5.632   9.667   4.735 -0.6469  0.2069  0.3936
  837MOL0     C12894   5.516   9.662   4.659  0.5624  0.3035  0.8099
  837MOL0     C12895   5.439   9.542   4.659 -0.3123  0.5427  0.6575
  837MOL0     O12896   5.320   9.543   4.594  0.5335  0.5877  0.9332
  837MOL0     C12897   5.323   9.539   4.452 -0.6612 -0.3051 -0.1113
  837MOL0     C12898   5.189   9.539   4.391  1.1416 -0.0531 -0.4025
  837MOL0     C12899   5.118   9.412   4.434  0.3249 -0.7224  1.0166
  837MOL0     C12900   4.961   9.416   4.414  0.2839 -0.3314  0.4836
  837MOL0     C12901   4.913   9.428   4.269 -0.3892 -0.4795 -0.3433
  837MOL0     C12902   4.759   9.375   4.254 -0.3162 -0.1597  0.2531
  837MOL0     C12903   4.711   9.431   4.120 -0.1905 -0.6027  0.3040
  837MOL0     C12904   4.559   9.428   4.111 -0.3657  0.0934 -0.7367
  837MOL0    Cl12905   4.518   9.486   3.941 -0.2660 -0.0409 -0.1103
  837MOL0     C12906   5.487   9.438   4.740 -0.3726  0.4036 -0.3212
  837MOL0     C12907   5.599   9.445   4.811 -0.7713 -0.6658 -0.4855
  837MOL0     O12908   5.696   9.750   5.008 -0.2563  0.4716 -0.4182
  837MOL0     C12909   6.026   9.711   4.971  0.1088 -0.5034  0.2309
  837MOL0     C12910   6.146   9.772   5.029  0.0147  0.7955  0.3134
  837MOL0     N12911   6.616   9.572   4.917 -0.4225 -0.1183  0.5499
  837MOL0     N12912   6.691   9.517   4.826 -1.1650  0.1729 -0.8924
  837MOL0     C12913   7.877   9.137   4.291  0.6130 -0.4568 -0.0889
  837MOL0     C12914   8.017   9.111   4.280 -0.4098  0.3755 -0.2170
  837MOL0     C12915   8.477   9.118   4.384  0.4148 -0.1445 -0.7032
  837MOL0     C12916   8.588   9.124   4.469  0.7240  0.7097 -0.3633
  837MOL0     C12917   8.716   9.090   4.426 -1.0300  0.7841 -0.5190
  837MOL0     C12918   8.741   9.058   4.297 -0.1317  0.3809 -0.1086
  837MOL0     O12919   8.861   9.013   4.246  0.1163 -0.6628 -0.4202
  837MOL0     C12920   8.938   8.944   4.342 -0.4800  0.0003  1.0278
  837MOL0     C12921   9.075   8.906   4.283  0.6430 -0.0672 -0.6885
  837MOL0     C12922   9.171   9.037   4.283  1.0066 -0.0063 -0.4984
  837MOL0     C12923   9.199   9.084   4.428 -0.2640  0.4949 -0.4935
  837MOL0     C12924   9.265   8.975   4.506  0.2650  0.6301 -0.4453
  837MOL0     C12925   9.321   8.897   4.579  0.3013  0.5688  0.2177
  837MOL0     C12926   8.633   9.046   4.211  0.2538 -0.0311 -0.5122
  837MOL0     C12927   8.504   9.076   4.252  0.8224  1.3820 -0.0447
  837MOL0     H12928   8.136   9.332   4.495 -1.8998  0.8212  0.6671
  837MOL0     H12929   7.889   9.397   4.517 -0.7182 -0.0440  0.5358
  837MOL0     H12930   7.639   9.336   4.561  1.8593 -2.1961 -0.8466
  837MOL0     H12931   7.655   9.457   4.431 -0.3370  0.6895 -1.4836
  837MOL0     H12932   7.472   9.358   4.308 -1.0502  0.8784 -0.1314
  837MOL0     H12933   7.446   9.253   4.449  0.5346 -1.2884 -3.6379
  837MOL0     H12934   7.439   9.557   4.435  1.5920 -0.3024  0.9849
  837MOL0     H12935   7.296   9.455   4.432 -0.4672 -3.0222  1.2223
  837MOL0     H12936   7.388   9.389   4.678  0.2502  0.4418  0.1266
  837MOL0     H12937   7.491   9.532   4.667  0.4681  0.5015  0.3149
  837MOL0     H12938   7.304   9.614   4.769 -1.3204  1.5618  0.1908
  837MOL0     H12939   7.279   9.665   4.603 -1.6983 -0.0553  0.4057
  837MOL0     H12940   7.114   9.479   4.585  1.3247  0.8407 -1.3586
  837MOL0     H12941   7.179   9.407   4.724  2.6201 -0.0517  0.0846
  837MOL0     H12942   7.083   9.631   4.842  0.1182  0.7351 -1.6201
  837MOL0     H12943   7.001   9.653   4.688 -0.8512  1.0256  1.8975
  837MOL0     H12944   6.984   9.398   4.845 -0.4926 -1.3009  0.0090
  837MOL0     H12945   6.889   9.439   4.709 -1.1537  0.5117  0.6964
  837MOL0     H12946   6.920   9.636   5.034 -1.4011 -0.6365  2.1332
  837MOL0     H12947   6.673   9.647   5.226 -5.4253 -0.0564  2.1915
  837MOL0     H12948   6.699   9.796   5.122 -2.9087  0.6832  2.3152
  837MOL0     H12949   6.443   9.633   5.128 -1.1909 -1.2418  2.4557
  837MOL0     H12950   6.464   9.803   5.079  1.1530 -2.7170 -3.4590
  837MOL0     H12951   6.509   9.865   5.325  0.7482 -0.2953  0.6965
  837MOL0     H12952   6.518   9.695   5.362  2.3704 -1.2419 -2.5789
  837MOL0     H12953   6.302   9.816   5.408 -2.0985  1.9024 -1.6234
  837MOL0     H12954   6.278   9.675   5.304 -0.0230 -0.1165 -0.6369
  837MOL0     H12955   6.034   9.839   5.338 -1.8847  5.2685 -1.1627
  837MOL0     H12956   5.756   9.866   5.261  2.5170  1.1912  1.0034
  837MOL0     H12957   5.719   9.692   5.234  0.1070 -1.7997  0.9235
  837MOL0     H12958   5.811   9.734   5.376 -1.8982 -1.2411 -0.0159
  837MOL0     H12959   5.680   9.764   4.736 -1.7387  0.7649  0.2332
  837MOL0     H12960   5.487   9.755   4.610 -3.3600 -0.4308  1.3699
  837MOL0     H12961   5.389   9.609   4.401 -2.5819  1.1323 -0.7412
  837MOL0     H12962   5.364   9.442   4.420 -0.3184  0.1157 -0.9885
  837MOL0     H12963   5.143   9.630   4.430 -0.1095 -2.1238  3.5192
  837MOL0     H12964   5.180   9.554   4.283 -1.1166  0.6175 -0.1799
  837MOL0     H12965   5.134   9.384   4.538 -1.8926  0.9969  1.9076
  837MOL0     H12966   5.158   9.330   4.374  0.0743  1.7116 -2.8294
  837MOL0     H12967   4.916   9.325   4.454  0.5635 -1.9068 -2.4998
  837MOL0     H12968   4.912   9.498   4.466  0.4221  1.5361 -2.1231
  837MOL0     H12969   4.984   9.387   4.197  1.1628  3.1110 -1.1151
  837MOL0     H12970   4.927   9.536   4.254 -0.9416 -0.4250 -0.4933
  837MOL0     H12971   4.762   9.266   4.253 -0.2751 -0.1627 -1.6432
  837MOL0     H12972   4.695   9.407   4.337 -0.9397  0.1221 -0.3298
  837MOL0     H12973   4.734   9.367   4.034 -1.6598 -1.9132  0.8492
  837MOL0     H12974   4.755   9.531   4.106  1.4337 -0.8607  2.9750
  837MOL0     H12975   4.515   9.493   4.187  2.8006 -0.3955  1.7077
  837MOL0     H12976   4.521   9.329   4.137 -1.2584  0.5522 -0.2672
  837MOL0     H12977   5.425   9.349   4.752 -1.5512  1.1518 -0.7051
  837MOL0     H12978   5.642   9.360   4.865 -3.1351 -1.2490  0.6043
  837MOL0     H12979   6.030   9.665   4.872 -0.5342  0.2413 -0.1556
  837MOL0     H12980   6.233   9.774   4.965 -0.6676 -0.9600 -0.7479
  837MOL0     H12981   7.809   9.072   4.238  1.9456 -1.1022 -1.0499
  837MOL0     H12982   8.058   9.041   4.209 -2.3474 -1.0092 -0.0347
  837MOL0     H12983   8.584   9.153   4.574  2.4068 -4.3589  1.3969
  837MOL0     H12984   8.802   9.110   4.489  1.6235 -1.2602 -3.1743
  837MOL0     H12985   8.956   9.005   4.431  1.0358 -0.1671  0.8555
  837MOL0     H12986   8.884   8.849   4.353  0.7879 -0.7152  1.3524
  837MOL0     H12987   9.056   8.865   4.183  2.6873 -1.8095 -0.4383
  837MOL0     H12988   9.123   8.818   4.326 -1.6409 -2.1199 -2.0578
  837MOL0     H12989   9.120   9.115   4.226 -0.8706 -0.2689  0.7230
  837MOL0     H12990   9.265   9.009   4.234  1.7780 -0.6960  1.2975
  837MOL0     H12991   9.113   9.128   4.479 -0.1117  0.7074 -0.4143
  837MOL0     H12992   9.279   9.159   4.422  0.7401 -0.4557  0.5028
  837MOL0     H12993   9.375   8.834   4.647 -0.6270  0.0227  0.4702
  837MOL0     H12994   8.649   8.999   4.114  2.2181 -1.5890  0.5066
  837MOL0     H12995   8.424   9.057   4.181  0.5913 -2.5113  1.0215
  838MOL0     O12996  10.771   9.147   0.438 -0.3973 -0.0010 -0.2360
  838MOL0     C12997  10.752   9.037   0.385 -0.1988 -0.0305 -0.4149
  838MOL0     O12998  10.643   8.996   0.310  0.2152 -0.4303  0.6196
  838MOL0     C12999  10.538   9.075   0.273 -0.0805 -1.1579  0.3081
  838MOL0     C13000  10.407   9.029   0.285 -0.4654 -0.0310 -0.3787
  838MOL0     C13001  10.304   9.104   0.233 -0.3943  0.1517  0.2696
  838MOL0     C13002  10.320   9.228   0.170 -0.0865 -0.4809  0.4825
  838MOL0     O13003  10.218   9.304   0.123  0.5248 -0.7321 -0.3355
  838MOL0     C13004  10.194   9.427   0.195 -0.9327  0.9142 -0.1642
  838MOL0     C13005  10.066   9.413   0.280  0.1104  0.6093  0.7193
  838MOL0     C13006   9.949   9.450   0.193 -0.0374  0.8898 -0.0003
  838MOL0     C13007   9.935   9.600   0.177 -0.3000 -0.2368  0.1804
  838MOL0     C13008   9.802   9.640   0.114  0.1860  0.6031 -0.5005
  838MOL0     C13009   9.809   9.770   0.045  1.0140  0.2170 -0.1094
  838MOL0     C13010   9.668   9.807  -0.011  0.4672 -0.1118 -0.6740
  838MOL0     C13011   9.613   9.718  -0.121 -0.3620 -0.2523  0.2888
  838MOL0     N13012   9.472   9.773  -0.136 -0.3413 -0.0447  0.1391
  838MOL0     C13013   9.450   9.899  -0.189 -0.4325 -0.1586 -0.4000
  838MOL0     C13014   9.318   9.908  -0.177  0.0202  0.0309  0.7554
  838MOL0     C13015   9.235  10.021  -0.248 -0.1591  0.1879  0.0692
  838MOL0     C13016   9.135   9.953  -0.347 -0.6247 -0.1397 -0.2359
  838MOL0     C13017   8.998   9.941  -0.276  0.6176  0.1790  0.1062
  838MOL0     C13018   8.941  10.077  -0.239  0.7982  0.8049  0.7001
  838MOL0     O13019   8.808  10.057  -0.191 -0.7189 -0.1475  0.3026
  838MOL0     C13020   8.733  10.164  -0.142  0.6497  0.3335 -0.8407
  838MOL0     C13021   8.669  10.162  -0.024 -0.1756 -0.4739  0.5805
  838MOL0     C13022   8.571  10.260   0.007 -0.3828 -0.2634 -0.6535
  838MOL0     C13023   8.490  10.237   0.130 -0.7740 -0.6183  0.1678
  838MOL0     C13024   8.549  10.369  -0.078  0.0916  0.2211 -0.0910
  838MOL0     C13025   8.441  10.466  -0.057 -0.3069 -0.7737  0.3090
  838MOL0     O13026   8.370  10.499  -0.165 -0.2035 -0.5221  0.0001
  838MOL0     C13027   8.268  10.599  -0.170 -0.9045  0.2528 -0.9441
  838MOL0     C13028   8.278  10.708  -0.263 -0.4265  0.3201  0.4140
  838MOL0     C13029   8.188  10.814  -0.255  0.2085 -0.8711 -0.4452
  838MOL0     C13030   8.089  10.825  -0.156 -0.3090  0.1414 -0.0411
  838MOL0     O13031   7.994  10.923  -0.178 -0.0686 -0.1523  0.6715
  838MOL0     C13032   7.900  10.941  -0.072  0.9599 -0.6012  1.1239
  838MOL0     C13033   7.781  11.038  -0.102 -0.0067  0.0585  0.4647
  838MOL0     C13034   7.672  10.959  -0.169  0.3217 -0.6221 -0.1489
  838MOL0     C13035   7.574  11.060  -0.217  0.7926 -0.0926 -0.2848
  838MOL0     C13036   7.442  10.984  -0.261  0.5328 -0.3058 -0.6234
  838MOL0     C13037   7.321  11.072  -0.305  0.1869 -0.1142 -0.5493
  838MOL0     C13038   7.200  10.989  -0.355  0.4382  0.2599 -0.7355
  838MOL0     C13039   7.162  10.873  -0.263 -0.2087  0.1172 -0.7925
  838MOL0    Cl13040   7.150  10.931  -0.092 -0.4146 -0.0356 -0.0687
  838MOL0     C13041   8.101  10.727  -0.052 -0.0779  0.4612 -0.2972
  838MOL0     C13042   8.188  10.622  -0.065 -0.2071  0.1552 -0.1001
  838MOL0     O13043   8.431  10.532   0.054  0.6245  0.0489  0.9267
  838MOL0     C13044   8.621  10.376  -0.198 -0.1526  0.1205  0.2177
  838MOL0     C13045   8.705  10.268  -0.231  0.6705 -0.1378  0.5552
  838MOL0     N13046   9.266   9.797  -0.115 -0.1418 -0.9062  0.0991
  838MOL0     N13047   9.358   9.708  -0.094 -0.6154 -1.0451 -0.0055
  838MOL0     C13048  10.448   9.280   0.173  0.4479 -0.4720 -0.1301
  838MOL0     C13049  10.560   9.202   0.215  0.3468  0.1296  1.1016
  838MOL0     C13050  10.850   8.927   0.419 -0.0416  0.2803 -0.2071
  838MOL0     C13051  10.922   8.860   0.324 -0.1172  0.7577 -0.1396
  838MOL0     C13052  11.019   8.761   0.347  0.1172 -0.3546  0.0135
  838MOL0     C13053  11.048   8.725   0.478  0.2894  0.2067 -0.7444
  838MOL0     O13054  11.142   8.638   0.516 -0.0100  0.0878 -0.5075
  838MOL0     C13055  11.278   8.682   0.544 -0.6079  0.1420 -0.1073
  838MOL0     C13056  11.358   8.686   0.420  0.6474  0.5311  0.7938
  838MOL0     C13057  11.492   8.756   0.432  0.5598 -0.4702 -0.2338
  838MOL0     C13058  11.610   8.713   0.355  0.4915  1.7742 -0.4734
  838MOL0     C13059  11.715   8.812   0.365  0.1425  0.0383  0.1190
  838MOL0     C13060  11.807   8.888   0.370  0.0122 -0.2148 -0.3474
  838MOL0     C13061  10.979   8.794   0.578 -0.5419  0.1731  0.2936
  838MOL0     C13062  10.879   8.890   0.556 -0.0685  0.0092  0.2999
  838MOL0     H13063  10.397   8.930   0.327  2.5755 -0.1207  0.3661
  838MOL0     H13064  10.201   9.071   0.247  0.2552 -1.4236  1.7348
  838MOL0     H13065  10.265   9.458   0.272 -1.0950 -0.6514  0.6519
  838MOL0     H13066  10.176   9.512   0.128 -0.2953  1.7320  0.6743
  838MOL0     H13067  10.049   9.305   0.291  1.5065  0.2868 -0.0123
  838MOL0     H13068  10.057   9.463   0.376 -0.0628  0.1107  0.9691
  838MOL0     H13069   9.962   9.400   0.097 -0.6178  1.6474 -0.4799
  838MOL0     H13070   9.858   9.414   0.241 -1.4119 -0.9638 -3.6942
  838MOL0     H13071   9.953   9.667   0.262 -0.1694 -0.4797  0.3445
  838MOL0     H13072  10.011   9.634   0.106 -2.9745  1.2595 -2.1678
  838MOL0     H13073   9.769   9.574   0.033 -1.2867  0.8088 -0.0937
  838MOL0     H13074   9.721   9.634   0.187  0.5006 -0.0310 -0.1910
  838MOL0     H13075   9.842   9.840   0.123 -1.6236  0.2222  1.0689
  838MOL0     H13076   9.872   9.762  -0.045 -0.3118 -2.0611 -0.9175
  838MOL0     H13077   9.598   9.820   0.071  0.5711  0.4079 -0.6662
  838MOL0     H13078   9.686   9.904  -0.058  1.4466  0.6954  1.2606
  838MOL0     H13079   9.604   9.612  -0.099  0.9378 -0.4747 -0.1917
  838MOL0     H13080   9.673   9.723  -0.212  1.3168  0.5263  1.3766
  838MOL0     H13081   9.525   9.960  -0.239 -0.8539  1.2479  0.6051
  838MOL0     H13082   9.197  10.096  -0.179 -1.1920  0.5163 -0.8404
  838MOL0     H13083   9.314  10.077  -0.299  0.5742 -2.5653 -2.0900
  838MOL0     H13084   9.170   9.856  -0.384  0.4957 -0.3136  1.1973
  838MOL0     H13085   9.132  10.006  -0.443 -3.1198 -0.3320 -0.3253
  838MOL0     H13086   8.994   9.883  -0.183 -0.3396 -0.9211 -0.5983
  838MOL0     H13087   8.936   9.891  -0.351  0.1904  2.0833 -0.8722
  838MOL0     H13088   8.938  10.148  -0.322 -1.6755  0.1323  0.1054
  838MOL0     H13089   8.995  10.132  -0.161  5.3152 -0.0064 -1.5255
  838MOL0     H13090   8.682  10.076   0.040  1.9242  0.3859  1.3806
  838MOL0     H13091   8.390  10.203   0.100 -0.5678 -0.7598 -0.3563
  838MOL0     H13092   8.537  10.155   0.184 -3.4801 -1.1576  1.9031
  838MOL0     H13093   8.469  10.325   0.193  0.2375  0.3593 -0.8199
  838MOL0     H13094   8.362  10.706  -0.332 -1.0813  0.1550 -0.3815
  838MOL0     H13095   8.199  10.895  -0.326  5.7818 -0.3738  0.5777
  838MOL0     H13096   7.862  10.841  -0.049 -0.5383 -0.0626  1.1146
  838MOL0     H13097   7.936  10.987   0.021 -2.3429  0.9333  1.7798
  838MOL0     H13098   7.741  11.087  -0.013 -3.0756  2.2112 -1.8538
  838MOL0     H13099   7.807  11.117  -0.174  1.6924  0.0298  1.0065
  838MOL0     H13100   7.621  10.893  -0.098 -2.6049  2.0088  0.3894
  838MOL0     H13101   7.714  10.908  -0.256  2.1525 -0.4532  0.5919
  838MOL0     H13102   7.552  11.130  -0.135 -1.1892  0.7000 -1.4187
  838MOL0     H13103   7.611  11.116  -0.304 -2.2786 -1.1854 -2.4816
  838MOL0     H13104   7.423  10.913  -0.180 -0.4335 -3.8161 -3.6473
  838MOL0     H13105   7.463  10.920  -0.348  0.1373 -1.2587 -0.0291
  838MOL0     H13106   7.291  11.137  -0.222 -0.0187 -0.5510 -0.2748
  838MOL0     H13107   7.351  11.140  -0.385  1.3659  0.4564  0.3531
  838MOL0     H13108   7.234  10.948  -0.451  0.1048 -1.4871 -0.1377
  838MOL0     H13109   7.111  11.053  -0.352 -0.2180 -0.6381  2.0977
  838MOL0     H13110   7.246  10.803  -0.270  1.7161  2.1301  0.8578
  838MOL0     H13111   7.071  10.826  -0.300  0.6185 -0.8523 -1.6679
  838MOL0     H13112   8.046  10.719   0.041  1.3984 -0.1085  0.5615
  838MOL0     H13113   8.175  10.551   0.016 -1.1763  0.2696 -0.1411
  838MOL0     H13114   8.603  10.452  -0.274 -2.6292  0.4619  1.0263
  838MOL0     H13115   8.749  10.264  -0.330 -1.7781 -0.0905 -0.5937
  838MOL0     H13116  10.459   9.382   0.137 -0.7485 -0.5822 -0.8515
  838MOL0     H13117  10.660   9.242   0.197  0.0984  0.3469  0.1576
  838MOL0     H13118  10.906   8.874   0.218  0.0705  0.9199 -0.1474
  838MOL0     H13119  11.069   8.719   0.261  1.4300  1.5479 -0.1970
  838MOL0     H13120  11.273   8.784   0.583 -4.8428 -0.7271  2.1467
  838MOL0     H13121  11.323   8.617   0.620 -0.6564 -0.2820 -0.4346
  838MOL0     H13122  11.300   8.732   0.340 -0.7468 -2.5987 -0.1663
  838MOL0     H13123  11.368   8.581   0.390  1.0490  0.3595  1.5200
  838MOL0     H13124  11.525   8.765   0.536  0.4653  0.1563 -0.2523
  838MOL0     H13125  11.476   8.858   0.394  2.1422 -0.9414 -2.3509
  838MOL0     H13126  11.599   8.691   0.248  2.4909 -2.5779  0.0336
  838MOL0     H13127  11.629   8.614   0.397 -0.6611  0.7656 -2.2042
  838MOL0     H13128  11.901   8.939   0.382  0.8330 -1.5420 -0.9169
  838MOL0     H13129  10.993   8.747   0.674 -3.3089 -0.5245  0.4480
  838MOL0     H13130  10.828   8.931   0.643  1.0570  0.7943  0.6282
  839MOL0     O13131   9.862   4.337   0.158  0.5611 -0.5426 -0.1496
  839MOL0     C13132   9.939   4.427   0.185 -0.5555  0.0491  0.0934
  839MOL0     O13133   9.909   4.544   0.249 -0.2894  0.4428  0.1409
  839MOL0     C13134   9.782   4.561   0.297 -0.1829  0.3426 -0.9963
  839MOL0     C13135   9.767   4.556   0.430 -0.2602  0.3221 -0.3571
  839MOL0     C13136   9.640   4.545   0.474  0.7494 -0.7412 -0.2137
  839MOL0     C13137   9.528   4.559   0.387  0.7300 -0.2275 -0.3339
  839MOL0     O13138   9.406   4.553   0.453 -0.1249 -0.3988 -0.0461
  839MOL0     C13139   9.288   4.605   0.384 -0.4483  0.0230  0.2000
  839MOL0     C13140   9.168   4.583   0.461  0.2587 -0.8926 -0.5255
  839MOL0     C13141   9.058   4.656   0.396  0.3426  0.0968 -0.2396
  839MOL0     C13142   8.931   4.637   0.479  0.1371  0.6498  0.1611
  839MOL0     C13143   8.920   4.728   0.600 -0.7938  0.4918 -0.3384
  839MOL0     C13144   8.804   4.675   0.700  0.5090 -0.5761 -0.1999
  839MOL0     C13145   8.668   4.700   0.641 -0.1740 -0.6495  0.1125
  839MOL0     C13146   8.647   4.838   0.585 -0.2292 -0.0090  0.0472
  839MOL0     N13147   8.500   4.844   0.563  0.3525 -0.6044 -0.8573
  839MOL0     C13148   8.428   4.798   0.454 -0.0399  0.0344 -0.3947
  839MOL0     C13149   8.302   4.839   0.480  0.3384  0.0507  0.1278
  839MOL0     C13150   8.180   4.817   0.387  0.3415 -0.9346 -0.7266
  839MOL0     C13151   8.070   4.737   0.472 -0.8203  0.4560  0.4411
  839MOL0     C13152   7.999   4.813   0.580 -0.0255 -0.3138 -0.4116
  839MOL0     C13153   7.886   4.731   0.626  0.4991 -0.6158  0.2450
  839MOL0     O13154   7.911   4.592   0.653 -0.3973  0.2180  0.0415
  839MOL0     C13155   7.806   4.498   0.668  0.8404 -0.0163 -0.1451
  839MOL0     C13156   7.675   4.530   0.696  0.6557  0.3175  0.5959
  839MOL0     C13157   7.578   4.428   0.714 -0.7586  0.1146  0.1195
  839MOL0     C13158   7.438   4.480   0.708 -1.1376  0.1622 -0.1350
  839MOL0     C13159   7.621   4.290   0.705 -0.5274  0.4491 -0.6658
  839MOL0     C13160   7.525   4.177   0.694 -0.8707 -0.3497  0.0656
  839MOL0     O13161   7.390   4.200   0.661 -0.3945  0.4839  0.1796
  839MOL0     C13162   7.305   4.098   0.623  0.0186 -0.2206  0.1729
  839MOL0     C13163   7.168   4.123   0.640  0.8728 -0.2869 -0.1224
  839MOL0     C13164   7.072   4.024   0.607 -0.4293  0.0350 -0.1458
  839MOL0     C13165   7.115   3.897   0.568  0.8145 -0.6209  0.2010
  839MOL0     O13166   7.047   3.795   0.514 -0.0611  0.4020 -0.6899
  839MOL0     C13167   6.920   3.837   0.460  0.1699  0.5574  0.1757
  839MOL0     C13168   6.860   3.718   0.383  0.0649 -0.1757  0.7109
  839MOL0     C13169   6.759   3.635   0.476 -0.6850  0.3448 -0.4372
  839MOL0     C13170   6.622   3.710   0.466  0.0841  0.9269  0.6423
  839MOL0     C13171   6.552   3.705   0.597 -0.1897 -0.6594 -0.0002
  839MOL0     C13172   6.416   3.781   0.605 -0.4082  0.0253  0.3472
  839MOL0     C13173   6.331   3.744   0.724 -0.2060  0.5808  0.2859
  839MOL0     C13174   6.241   3.618   0.708 -0.2041  0.0882 -0.2157
  839MOL0    Cl13175   6.087   3.666   0.626  0.1686 -0.1875  0.2671
  839MOL0     C13176   7.244   3.871   0.559 -0.0459  0.1740 -0.4844
  839MOL0     C13177   7.343   3.965   0.588  0.0874  0.2001 -0.2924
  839MOL0     O13178   7.577   4.064   0.716  0.7526  0.0014  1.0245
  839MOL0     C13179   7.754   4.258   0.684  0.0730 -0.2195 -0.1138
  839MOL0     C13180   7.842   4.365   0.661 -0.2566 -0.0754 -0.1631
  839MOL0     N13181   8.302   4.909   0.605 -0.0790  0.2978 -0.6318
  839MOL0     N13182   8.422   4.907   0.652 -0.2667 -0.2290  0.3166
  839MOL0     C13183   9.545   4.589   0.255  0.5499  0.4728  0.3451
  839MOL0     C13184   9.678   4.590   0.207 -0.0429 -0.2021  0.7610
  839MOL0     C13185  10.075   4.407   0.123 -0.6538  0.5168 -0.8568
  839MOL0     C13186  10.135   4.280   0.112 -0.7384  0.1286  0.2748
  839MOL0     C13187  10.259   4.264   0.042  0.3404 -0.8001 -0.1696
  839MOL0     C13188  10.325   4.373  -0.014  0.2101  0.0942  0.5403
  839MOL0     O13189  10.455   4.364  -0.066  0.2576  0.5341 -0.2802
  839MOL0     C13190  10.513   4.238  -0.086 -0.0016  0.0755  0.4037
  839MOL0     C13191  10.645   4.251  -0.156 -0.5053  0.8091  0.2034
  839MOL0     C13192  10.700   4.108  -0.190 -0.0647 -0.5546 -0.1190
  839MOL0     C13193  10.842   4.125  -0.237  0.0388 -1.0649  0.0323
  839MOL0     C13194  10.905   4.005  -0.291  0.4455  0.5978 -0.2983
  839MOL0     C13195  10.974   3.912  -0.338  0.9533  0.1267  0.0867
  839MOL0     C13196  10.266   4.495  -0.002  0.0976 -0.3194  0.0445
  839MOL0     C13197  10.145   4.517   0.064 -0.4509 -0.3924 -0.3067
  839MOL0     H13198   9.856   4.538   0.490 -0.6321  1.5750  0.6125
  839MOL0     H13199   9.617   4.533   0.580 -0.0660  3.0416  0.1630
  839MOL0     H13200   9.302   4.712   0.362 -2.1978  0.4875  1.2004
  839MOL0     H13201   9.267   4.578   0.281 -1.0017  3.7291 -0.8136
  839MOL0     H13202   9.144   4.477   0.475  1.1715 -1.2032 -1.2643
  839MOL0     H13203   9.184   4.631   0.559  2.5181  0.8838 -1.6643
  839MOL0     H13204   9.071   4.763   0.375  0.6573  0.2768  0.7801
  839MOL0     H13205   9.047   4.600   0.303  1.0676 -3.0328  1.4395
  839MOL0     H13206   8.842   4.656   0.417 -1.0680 -0.4419  1.4868
  839MOL0     H13207   8.918   4.532   0.508 -3.9559  0.0930 -2.6908
  839MOL0     H13208   9.013   4.724   0.657 -1.1244  1.7575  0.3317
  839MOL0     H13209   8.909   4.834   0.574 -0.5364  0.1973 -1.7264
  839MOL0     H13210   8.835   4.572   0.720 -2.8626 -1.9780 -1.5037
  839MOL0     H13211   8.811   4.725   0.797 -0.9643  0.4140 -0.5683
  839MOL0     H13212   8.652   4.633   0.555 -1.4265  1.6676 -1.5726
  839MOL0     H13213   8.598   4.685   0.723 -0.8845  0.1943 -0.3270
  839MOL0     H13214   8.708   4.870   0.500 -1.0268  1.6820  0.0576
  839MOL0     H13215   8.673   4.904   0.669  1.5252 -1.4054  0.6625
  839MOL0     H13216   8.454   4.750   0.360 -0.8753 -0.9923 -0.1211
  839MOL0     H13217   8.143   4.912   0.348 -0.3889 -1.1891 -0.6638
  839MOL0     H13218   8.204   4.759   0.297 -0.5492 -0.1720 -1.4771
  839MOL0     H13219   8.125   4.652   0.513  3.1163  1.3081 -2.4889
  839MOL0     H13220   8.001   4.696   0.398 -0.6678 -0.3137  0.7231
  839MOL0     H13221   7.974   4.911   0.540  0.4756 -0.6077 -1.4642
  839MOL0     H13222   8.058   4.829   0.671 -0.2889  0.5759 -0.3889
  839MOL0     H13223   7.809   4.736   0.548  0.9508 -0.5389 -0.2030
  839MOL0     H13224   7.852   4.778   0.718 -0.3471  2.7588 -1.6225
  839MOL0     H13225   7.651   4.636   0.703  3.9877  1.2506 -0.2782
  839MOL0     H13226   7.433   4.584   0.742 -4.4384  0.8671 -2.3293
  839MOL0     H13227   7.405   4.484   0.604 -2.5725 -0.6264  0.2698
  839MOL0     H13228   7.364   4.420   0.761  0.4792 -2.0413 -0.2315
  839MOL0     H13229   7.146   4.220   0.685 -1.2209 -0.6754 -0.2325
  839MOL0     H13230   6.965   4.040   0.621 -0.9626 -0.4647 -3.0009
  839MOL0     H13231   6.850   3.874   0.535  0.0507 -0.9194  0.8166
  839MOL0     H13232   6.947   3.920   0.394 -1.9178 -2.0167 -4.3891
  839MOL0     H13233   6.813   3.755   0.292 -0.7923 -3.0977 -0.1301
  839MOL0     H13234   6.940   3.654   0.344  1.4541  2.9774 -2.0466
  839MOL0     H13235   6.795   3.630   0.579 -2.7621  1.1355  0.3706
  839MOL0     H13236   6.753   3.530   0.446 -2.5499  0.7667 -1.7378
  839MOL0     H13237   6.632   3.815   0.435 -0.8465  1.4074  1.8826
  839MOL0     H13238   6.562   3.666   0.386  0.1069  1.2232  0.4598
  839MOL0     H13239   6.609   3.747   0.680 -0.3835  1.5075 -0.8879
  839MOL0     H13240   6.533   3.598   0.612 -1.4648 -0.5621 -0.7315
  839MOL0     H13241   6.436   3.888   0.616 -1.0378  0.3164 -1.0801
  839MOL0     H13242   6.352   3.763   0.518  0.8583 -2.5552 -0.1708
  839MOL0     H13243   6.262   3.823   0.756  1.5689  2.3632 -0.1382
  839MOL0     H13244   6.393   3.728   0.812 -2.5356 -1.6239  1.6784
  839MOL0     H13245   6.219   3.578   0.808  0.9456 -1.6195 -0.5998
  839MOL0     H13246   6.305   3.554   0.646  1.7986  1.5286  0.2532
  839MOL0     H13247   7.259   3.767   0.534 -2.7463 -0.4554  0.2344
  839MOL0     H13248   7.448   3.938   0.583 -0.4867 -2.0633 -1.6875
  839MOL0     H13249   7.791   4.156   0.672  0.9100 -0.0627  0.9227
  839MOL0     H13250   7.945   4.351   0.632 -1.3172 -4.8653 -2.6701
  839MOL0     H13251   9.482   4.625   0.174  1.2721  1.0819  0.0384
  839MOL0     H13252   9.687   4.603   0.099 -0.9308  2.7170  0.9645
  839MOL0     H13253  10.085   4.192   0.152  0.5997 -0.7921 -0.0221
  839MOL0     H13254  10.298   4.164   0.032 -1.9062 -1.9619  1.6400
  839MOL0     H13255  10.538   4.184   0.006  3.0183 -2.7882 -1.8343
  839MOL0     H13256  10.449   4.182  -0.155  1.5959  0.8479 -1.8376
  839MOL0     H13257  10.708   4.279  -0.072 -0.1584 -1.3670  0.7357
  839MOL0     H13258  10.649   4.321  -0.240 -3.6536  0.6835 -0.2000
  839MOL0     H13259  10.644   4.077  -0.279 -2.0775 -1.7628  1.4659
  839MOL0     H13260  10.689   4.033  -0.111 -1.4176 -0.6652 -0.3754
  839MOL0     H13261  10.904   4.180  -0.165 -0.3681  1.4886 -1.4320
  839MOL0     H13262  10.840   4.200  -0.317  1.1298  0.0541  1.0007
  839MOL0     H13263  11.032   3.835  -0.386  1.0138 -0.2331  0.7214
  839MOL0     H13264  10.315   4.575  -0.056  3.0320 -1.6927  0.4752
  839MOL0     H13265  10.101   4.614   0.085 -2.1681 -1.3177  0.5706
  840MOL0     O13266   3.537   6.291   1.725 -0.6294  0.1877  0.6085
  840MOL0     C13267   3.626   6.370   1.762  0.0923 -0.3139  0.8316
  840MOL0     O13268   3.618   6.442   1.877  0.5053  0.2625 -0.1274
  840MOL0     C13269   3.490   6.453   1.931 -0.3709 -1.2446 -0.0994
  840MOL0     C13270   3.377   6.489   1.856 -0.3235 -0.2845 -0.0438
  840MOL0     C13271   3.248   6.508   1.920 -0.1834 -0.0644  0.1468
  840MOL0     C13272   3.236   6.498   2.060 -0.8199  0.0843  0.6706
  840MOL0     O13273   3.119   6.498   2.134 -0.2024  0.4835 -0.1772
  840MOL0     C13274   2.988   6.523   2.068 -0.8481 -0.0272 -0.3724
  840MOL0     C13275   2.940   6.665   2.092 -0.2176  0.0383 -0.1578
  840MOL0     C13276   3.060   6.770   2.087  0.1079  0.5600 -0.4318
  840MOL0     C13277   3.008   6.912   2.080  0.7291 -0.0298 -0.6207
  840MOL0     C13278   3.121   7.009   2.082 -0.9170  0.7307  0.7569
  840MOL0     C13279   3.058   7.144   2.057  0.1038  0.8443 -0.2113
  840MOL0     C13280   3.160   7.257   2.041  0.0284 -0.1308  0.5320
  840MOL0     C13281   3.083   7.388   2.023 -0.2390  0.5652 -0.1819
  840MOL0     N13282   3.022   7.415   1.892 -0.8846 -0.2396 -0.6641
  840MOL0     C13283   3.062   7.366   1.776 -0.2941 -0.9575 -0.5628
  840MOL0     C13284   2.962   7.411   1.684 -0.3334  0.6354  0.1715
  840MOL0     C13285   2.954   7.365   1.543 -0.4023  0.0097 -0.2276
  840MOL0     C13286   2.868   7.448   1.446 -0.1508 -0.5786  0.3925
  840MOL0     C13287   2.720   7.455   1.484  0.0231  0.3629  0.5394
  840MOL0     C13288   2.650   7.319   1.532  0.3178  0.2671 -0.2830
  840MOL0     O13289   2.644   7.221   1.433  0.7194 -0.1848  0.1078
  840MOL0     C13290   2.517   7.193   1.389 -0.8274 -0.2550  0.2525
  840MOL0     C13291   2.446   7.282   1.312 -0.1450  0.7159 -0.7305
  840MOL0     C13292   2.316   7.250   1.264 -0.2448 -1.2825  0.4582
  840MOL0     C13293   2.238   7.363   1.201  0.7282  0.0612 -0.4261
  840MOL0     C13294   2.257   7.126   1.288 -0.0618 -0.3824 -0.0901
  840MOL0     C13295   2.124   7.075   1.229  0.5814  0.0523 -0.3153
  840MOL0     O13296   2.089   6.946   1.259  0.6046 -0.6343 -0.3302
  840MOL0     C13297   1.969   6.912   1.202  0.2716 -0.3784  0.7412
  840MOL0     C13298   1.845   6.963   1.232 -0.4828 -0.1469  0.2824
  840MOL0     C13299   1.732   6.909   1.174 -0.2609  0.0106  0.4535
  840MOL0     C13300   1.728   6.799   1.082  0.7471  0.0107 -0.0101
  840MOL0     O13301   1.619   6.730   1.027 -0.2561 -0.4015 -0.2392
  840MOL0     C13302   1.487   6.783   1.054 -0.3939 -0.1690 -0.3186
  840MOL0     C13303   1.435   6.732   1.189  0.5954 -0.1814  0.9127
  840MOL0     C13304   1.309   6.817   1.226  0.5832 -0.3291  0.3255
  840MOL0     C13305   1.249   6.781   1.364  0.0459 -0.0774  0.4495
  840MOL0     C13306   1.165   6.648   1.348 -0.5488 -0.3456  0.8506
  840MOL0     C13307   1.118   6.613   1.488 -0.6319  0.3203  0.0117
  840MOL0     C13308   0.996   6.704   1.529 -0.2863  0.1308  0.9671
  840MOL0     C13309   0.871   6.626   1.571  0.7082  0.0861 -0.6215
  840MOL0    Cl13310   0.797   6.518   1.446 -0.0411 -0.1563  0.0434
  840MOL0     C13311   1.858   6.740   1.061  0.5614 -0.0311 -0.4414
  840MOL0     C13312   1.975   6.796   1.117 -0.7160 -0.2277  0.0358
  840MOL0     O13313   2.060   7.151   1.157  0.2479  0.1937 -0.6221
  840MOL0     C13314   2.330   7.033   1.371 -0.1369 -0.4567 -0.1935
  840MOL0     C13315   2.461   7.071   1.418  0.5710  0.1999  0.3366
  840MOL0     N13316   2.866   7.485   1.756  0.6909 -0.5645  1.0002
  840MOL0     N13317   2.904   7.486   1.879 -0.0562  0.1171 -0.2519
  840MOL0     C13318   3.353   6.492   2.136  0.7232  0.7831  0.1586
  840MOL0     C13319   3.476   6.464   2.068  0.7014 -0.1333 -0.5889
  840MOL0     C13320   3.756   6.378   1.685  0.4277  0.1273 -0.5347
  840MOL0     C13321   3.763   6.316   1.559  0.2342 -0.5547 -0.8175
  840MOL0     C13322   3.886   6.319   1.492 -0.0595  0.5479 -0.1105
  840MOL0     C13323   4.010   6.363   1.545  0.0611 -1.0183 -0.6428
  840MOL0     O13324   4.131   6.355   1.482 -0.3083  0.7779 -0.5682
  840MOL0     C13325   4.141   6.279   1.364 -0.8734 -0.0067  0.0763
  840MOL0     C13326   4.098   6.346   1.233  0.3120 -0.3399  0.7933
  840MOL0     C13327   4.103   6.254   1.115 -0.4523  0.7216 -0.5729
  840MOL0     C13328   4.047   6.319   0.990 -0.0039 -0.3855 -0.1804
  840MOL0     C13329   4.124   6.433   0.940 -0.3605  0.9312 -0.0533
  840MOL0     C13330   4.174   6.538   0.906 -0.1001 -0.5526  0.2827
  840MOL0     C13331   4.002   6.424   1.680  0.9032  0.1898  0.4475
  840MOL0     C13332   3.875   6.425   1.747  0.6762 -0.0655 -0.0475
  840MOL0     H13333   3.370   6.492   1.748 -0.7573  1.4262 -0.0004
  840MOL0     H13334   3.167   6.490   1.851  1.9255 -1.2532 -2.2053
  840MOL0     H13335   2.990   6.496   1.962 -0.9106 -0.4464 -0.2680
  840MOL0     H13336   2.914   6.448   2.096 -1.2941  1.1140  1.6161
  840MOL0     H13337   2.867   6.691   2.014  0.4776  0.0402 -0.8193
  840MOL0     H13338   2.890   6.668   2.189 -0.1512  0.8799 -0.1411
  840MOL0     H13339   3.130   6.750   2.168  0.1170 -2.3048 -1.0068
  840MOL0     H13340   3.113   6.763   1.992 -1.9164  0.4093 -1.6274
  840MOL0     H13341   2.954   6.932   1.987  1.3320  0.8464 -0.7883
  840MOL0     H13342   2.939   6.921   2.164 -0.6769  0.7806 -1.8250
  840MOL0     H13343   3.174   6.995   2.177  0.8796 -0.3751 -0.3462
  840MOL0     H13344   3.193   6.979   2.005 -2.1967 -4.4154  1.1860
  840MOL0     H13345   2.983   7.133   1.978 -1.0570 -1.1492  1.0557
  840MOL0     H13346   3.007   7.171   2.150 -4.3027 -1.1708 -1.7611
  840MOL0     H13347   3.221   7.269   2.131  1.1259  3.6756 -0.5625
  840MOL0     H13348   3.226   7.226   1.959  1.8430  0.9719  1.5107
  840MOL0     H13349   3.148   7.473   2.045  0.7024  0.1219 -1.2137
  840MOL0     H13350   3.006   7.401   2.101  0.0474 -0.6670  0.3247
  840MOL0     H13351   3.144   7.301   1.747  1.6526  0.7342  0.9287
  840MOL0     H13352   3.058   7.380   1.511  0.1606 -1.3445  0.8769
  840MOL0     H13353   2.928   7.259   1.534  0.9310 -0.2706 -1.3323
  840MOL0     H13354   2.882   7.404   1.347  3.2894  0.4590  0.2771
  840MOL0     H13355   2.911   7.546   1.423 -1.3872 -0.8302 -3.8156
  840MOL0     H13356   2.665   7.497   1.399 -0.5470  0.0470  0.7448
  840MOL0     H13357   2.704   7.537   1.555  0.3403  4.1048 -3.2904
  840MOL0     H13358   2.551   7.348   1.568  0.2758 -0.2179 -0.0034
  840MOL0     H13359   2.705   7.282   1.619  0.8890 -3.9324 -2.1778
  840MOL0     H13360   2.490   7.381   1.305  1.3180  0.1970  0.5970
  840MOL0     H13361   2.281   7.464   1.210  0.1902  0.1789  1.0629
  840MOL0     H13362   2.207   7.338   1.099  2.1120  2.3717 -1.5077
  840MOL0     H13363   2.144   7.363   1.257  0.6100  0.1706 -0.6246
  840MOL0     H13364   1.837   7.051   1.295 -1.4605  0.7912 -1.0627
  840MOL0     H13365   1.641   6.964   1.196 -0.5672 -0.1061 -0.4872
  840MOL0     H13366   1.494   6.892   1.046 -1.7026 -0.0827 -0.6005
  840MOL0     H13367   1.414   6.758   0.977 -0.4371 -0.5803 -0.1487
  840MOL0     H13368   1.406   6.626   1.188 -3.4973  0.7391  0.3616
  840MOL0     H13369   1.513   6.741   1.264  0.3358  0.6746  1.0925
  840MOL0     H13370   1.231   6.816   1.150 -0.4654  1.9355  1.2580
  840MOL0     H13371   1.350   6.919   1.233 -3.4634  1.5798 -0.6086
  840MOL0     H13372   1.337   6.765   1.427  1.0647 -1.0752 -1.1545
  840MOL0     H13373   1.184   6.857   1.409  0.7429  0.4104  0.6548
  840MOL0     H13374   1.235   6.572   1.310  2.8900  2.5655  0.7310
  840MOL0     H13375   1.080   6.651   1.280  0.4489 -4.5623 -0.8953
  840MOL0     H13376   1.097   6.506   1.484 -1.2657  0.4007  0.9137
  840MOL0     H13377   1.193   6.618   1.567 -1.7661  0.6769  1.1021
  840MOL0     H13378   0.971   6.768   1.444 -2.9399 -0.5959  1.1268
  840MOL0     H13379   1.030   6.772   1.608 -4.7884  0.2000  3.1608
  840MOL0     H13380   0.804   6.704   1.608  0.9915  0.8903 -1.7688
  840MOL0     H13381   0.887   6.567   1.662 -1.3032 -0.1885 -0.4019
  840MOL0     H13382   1.864   6.651   0.999  0.6248 -0.5350  0.2682
  840MOL0     H13383   2.071   6.756   1.087 -0.8661 -3.0609  2.7642
  840MOL0     H13384   2.299   6.933   1.399 -0.0599 -0.5004 -0.2642
  840MOL0     H13385   2.508   6.996   1.481  0.2571 -2.0448 -1.9001
  840MOL0     H13386   3.353   6.484   2.245  2.3299  0.9937  0.2017
  840MOL0     H13387   3.567   6.457   2.126 -0.5158  0.1836  1.4618
  840MOL0     H13388   3.678   6.295   1.494 -0.4732 -2.0862  0.5343
  840MOL0     H13389   3.883   6.296   1.386  1.4402  1.8064 -0.4795
  840MOL0     H13390   4.243   6.254   1.335  0.2356  1.4782  2.4200
  840MOL0     H13391   4.087   6.185   1.379 -1.6734 -0.3939 -3.9875
  840MOL0     H13392   4.167   6.428   1.213  1.0105 -1.0900  0.0002
  840MOL0     H13393   4.002   6.392   1.255  0.8904  0.3557  2.0040
  840MOL0     H13394   4.043   6.166   1.142 -0.8873  0.2524 -2.7893
  840MOL0     H13395   4.200   6.217   1.082 -1.0657 -0.4179 -1.1815
  840MOL0     H13396   3.950   6.359   1.020 -0.8994 -2.5356 -0.0289
  840MOL0     H13397   4.025   6.251   0.907 -2.1504 -1.3884  1.1226
  840MOL0     H13398   4.207   6.639   0.892  0.1488 -0.3855  1.9370
  840MOL0     H13399   4.094   6.456   1.729  0.8117  1.2815 -0.0606
  840MOL0     H13400   3.881   6.462   1.848  0.3205  0.4588 -0.2119
  841MOL0     O13401   4.221   0.569   9.738  0.6633  0.1751  0.3057
  841MOL0     C13402   4.243   0.670   9.660 -0.5143  1.1945  0.0678
  841MOL0     O13403   4.150   0.754   9.608  0.0681 -0.0460 -0.1890
  841MOL0     C13404   4.020   0.734   9.638  0.4972  0.0185 -0.3304
  841MOL0     C13405   3.957   0.850   9.685  0.5268 -0.3964 -0.4022
  841MOL0     C13406   3.820   0.841   9.716  0.5950  0.0817 -0.9149
  841MOL0     C13407   3.754   0.718   9.704 -0.4393  0.8136 -0.7344
  841MOL0     O13408   3.626   0.701   9.758 -0.4150 -0.5386  0.9697
  841MOL0     C13409   3.529   0.759   9.681 -0.3192  0.5638 -0.3609
  841MOL0     C13410   3.462   0.659   9.582 -0.3198 -0.2083 -0.3651
  841MOL0     C13411   3.332   0.599   9.647 -0.5339  0.1005 -0.1110
  841MOL0     C13412   3.240   0.560   9.533  0.1856 -0.0686  0.1475
  841MOL0     C13413   3.137   0.448   9.585 -0.3199 -0.4019 -0.3024
  841MOL0     C13414   3.053   0.389   9.467 -0.8070 -0.8517 -0.7235
  841MOL0     C13415   2.963   0.265   9.501  0.6724 -0.2509  0.5198
  841MOL0     C13416   2.882   0.213   9.382 -0.5943 -0.1271  0.1542
  841MOL0     N13417   2.766   0.137   9.428  1.3355 -0.2171 -0.7472
  841MOL0     C13418   2.634   0.183   9.430 -0.5652  0.8626 -0.1639
  841MOL0     C13419   2.559   0.080   9.482  0.9148 -0.4406  0.3792
  841MOL0     C13420   2.422   0.095   9.533  0.4353  0.1782 -0.5898
  841MOL0     C13421   2.340  -0.041   9.548 -0.0670 -0.2977 -0.5070
  841MOL0     C13422   2.316  -0.105   9.405 -1.0799 -0.9689  0.5875
  841MOL0     C13423   2.225  -0.231   9.416 -0.7191  0.0938 -0.2576
  841MOL0     O13424   2.094  -0.185   9.397 -0.1408 -0.0629 -0.4705
  841MOL0     C13425   2.013  -0.221   9.287  0.5601  0.1922 -0.4768
  841MOL0     C13426   2.064  -0.254   9.164 -0.2970 -0.3318  0.9932
  841MOL0     C13427   1.980  -0.266   9.047 -1.2755  0.0379 -0.0445
  841MOL0     C13428   2.058  -0.306   8.920 -0.0265 -0.2565 -0.4514
  841MOL0     C13429   1.841  -0.263   9.058  0.0833  1.4551  0.8766
  841MOL0     C13430   1.746  -0.285   8.949 -0.0853 -0.8747 -0.1978
  841MOL0     O13431   1.613  -0.273   8.981  0.2708  0.4778 -0.7672
  841MOL0     C13432   1.525  -0.313   8.885  0.5002  0.9907 -0.9341
  841MOL0     C13433   1.500  -0.240   8.768 -0.0463 -0.0310  0.0623
  841MOL0     C13434   1.413  -0.288   8.671 -0.0769 -0.0623 -0.2587
  841MOL0     C13435   1.342  -0.410   8.693  0.5638  0.3459  0.4288
  841MOL0     O13436   1.241  -0.455   8.601  0.1830  0.3318 -0.0430
  841MOL0     C13437   1.136  -0.362   8.567 -0.0437 -0.9214  0.5413
  841MOL0     C13438   1.062  -0.420   8.451  0.1640  1.3502 -0.2410
  841MOL0     C13439   1.006  -0.564   8.488 -0.4118  0.2933 -0.1895
  841MOL0     C13440   1.067  -0.672   8.395 -0.6170 -0.3696  0.4264
  841MOL0     C13441   0.983  -0.811   8.406  0.3247  0.3882  0.6684
  841MOL0     C13442   1.000  -0.902   8.288  0.1807  0.8575 -0.2120
  841MOL0     C13443   0.936  -1.047   8.298  0.0479  0.5054  1.3692
  841MOL0     C13444   0.983  -1.127   8.184 -0.8778 -0.7316  0.3356
  841MOL0    Cl13445   1.171  -1.155   8.195  0.2257 -0.2315  0.1511
  841MOL0     C13446   1.355  -0.478   8.810  0.8038 -0.2214 -0.2531
  841MOL0     C13447   1.450  -0.436   8.903  0.0198 -0.3345  0.1254
  841MOL0     O13448   1.788  -0.310   8.838  0.4340 -0.8713  0.2600
  841MOL0     C13449   1.796  -0.242   9.187 -0.5653 -1.0682 -0.2876
  841MOL0     C13450   1.872  -0.207   9.293 -0.8575 -0.1055 -0.5205
  841MOL0     N13451   2.639  -0.029   9.490  0.4632 -0.1278  0.2362
  841MOL0     N13452   2.762   0.000   9.467 -0.1422 -0.1374 -0.0115
  841MOL0     C13453   3.821   0.596   9.665 -0.0252  0.1692 -0.8748
  841MOL0     C13454   3.960   0.606   9.632 -0.4832 -0.0801  0.0582
  841MOL0     C13455   4.381   0.705   9.635  0.1832 -0.7927  0.1381
  841MOL0     C13456   4.407   0.776   9.518 -0.1341  0.3702  0.5414
  841MOL0     C13457   4.537   0.807   9.479  0.4677  0.0641  0.4134
  841MOL0     C13458   4.641   0.787   9.569  0.1888 -0.1190  0.0328
  841MOL0     O13459   4.756   0.844   9.539 -0.2959 -0.1339  1.3580
  841MOL0     C13460   4.861   0.853   9.632 -0.3152 -0.2092 -0.7787
  841MOL0     C13461   4.935   0.717   9.638 -0.7294  0.7744  0.7800
  841MOL0     C13462   4.997   0.673   9.496 -0.2641 -0.3316 -0.4146
  841MOL0     C13463   5.087   0.557   9.511  0.2533  0.2901  0.2124
  841MOL0     C13464   5.152   0.547   9.380 -1.2230 -0.0638 -0.3969
  841MOL0     C13465   5.205   0.524   9.270  0.2663 -0.0872  0.3487
  841MOL0     C13466   4.606   0.739   9.698 -0.5681 -0.4240  0.1261
  841MOL0     C13467   4.484   0.699   9.730 -0.1481  0.1023  0.2332
  841MOL0     H13468   4.020   0.937   9.702  1.9295 -1.4884  0.1841
  841MOL0     H13469   3.762   0.927   9.749  0.4822 -0.3998  0.1888
  841MOL0     H13470   3.454   0.803   9.748 -0.7607  0.9237 -1.0832
  841MOL0     H13471   3.573   0.839   9.620  0.9922 -0.1984 -0.4383
  841MOL0     H13472   3.433   0.721   9.497 -3.1179 -1.0180 -0.1166
  841MOL0     H13473   3.534   0.583   9.549 -0.5080 -0.5229 -0.0618
  841MOL0     H13474   3.349   0.521   9.721  0.7259 -0.4152 -0.9071
  841MOL0     H13475   3.287   0.681   9.703 -0.4131  1.9439 -2.5302
  841MOL0     H13476   3.183   0.646   9.496 -0.9855 -1.9146 -2.7419
  841MOL0     H13477   3.286   0.527   9.439 -1.1750 -3.6700  0.5765
  841MOL0     H13478   3.194   0.370   9.637  1.7943  1.2636  0.0256
  841MOL0     H13479   3.071   0.497   9.657 -0.4011 -0.3089 -0.4394
  841MOL0     H13480   2.998   0.473   9.423 -0.4952  0.0273  0.4996
  841MOL0     H13481   3.131   0.368   9.394 -0.6528  1.9816 -1.4741
  841MOL0     H13482   3.019   0.192   9.559  0.7770  0.9918  2.0529
  841MOL0     H13483   2.890   0.303   9.572 -0.7706  0.7923 -1.4239
  841MOL0     H13484   2.947   0.157   9.314  2.8606  2.1132  1.3500
  841MOL0     H13485   2.841   0.298   9.326  0.1004  0.7045  0.8928
  841MOL0     H13486   2.608   0.287   9.413 -0.4422  1.2772  1.8887
  841MOL0     H13487   2.425   0.137   9.633 -2.3309 -1.2586  0.1862
  841MOL0     H13488   2.366   0.163   9.469  0.4031 -0.5726 -1.3897
  841MOL0     H13489   2.249  -0.012   9.601  0.7916  0.5023  0.5791
  841MOL0     H13490   2.401  -0.105   9.612 -0.2640  2.3324  2.6072
  841MOL0     H13491   2.414  -0.123   9.360  0.4256  0.9782  2.8547
  841MOL0     H13492   2.269  -0.033   9.337  0.0152  0.5566  1.3751
  841MOL0     H13493   2.238  -0.268   9.518  1.0695  1.7406  0.1729
  841MOL0     H13494   2.246  -0.308   9.342 -3.4612 -0.7842 -0.2358
  841MOL0     H13495   2.170  -0.239   9.145 -0.4169 -0.4043  0.2424
  841MOL0     H13496   2.004  -0.393   8.881 -1.0717  0.4131 -0.5493
  841MOL0     H13497   2.054  -0.234   8.838 -0.7012  0.2937  0.0527
  841MOL0     H13498   2.159  -0.342   8.943  0.1295  1.6560  2.3991
  841MOL0     H13499   1.554  -0.147   8.750  0.2357 -0.3210 -0.6291
  841MOL0     H13500   1.390  -0.241   8.576  3.8272  3.0048  0.0278
  841MOL0     H13501   1.064  -0.364   8.650 -1.2041  0.3107 -0.3954
  841MOL0     H13502   1.185  -0.268   8.542  0.9144 -0.9551  2.1147
  841MOL0     H13503   0.973  -0.362   8.424  0.5797  2.4071  0.5877
  841MOL0     H13504   1.124  -0.424   8.360  0.5637 -2.8044  0.0268
  841MOL0     H13505   0.899  -0.562   8.466 -0.4748  0.3064  0.1119
  841MOL0     H13506   1.029  -0.591   8.592 -0.9822 -0.4325 -0.2448
  841MOL0     H13507   1.055  -0.638   8.291  0.8047  1.8102  0.9096
  841MOL0     H13508   1.175  -0.681   8.410 -0.8269 -0.9464  1.7495
  841MOL0     H13509   0.879  -0.777   8.415  1.2889  3.6441  0.5793
  841MOL0     H13510   1.015  -0.866   8.495  3.5174  2.5107  0.9716
  841MOL0     H13511   0.961  -0.848   8.202 -3.7496 -2.0893 -0.5245
  841MOL0     H13512   1.110  -0.896   8.287  0.1721  1.7027  1.2094
  841MOL0     H13513   0.826  -1.046   8.297 -0.0810 -2.7204  0.7286
  841MOL0     H13514   0.957  -1.098   8.393 -0.1340 -3.8973 -0.7358
  841MOL0     H13515   0.951  -1.076   8.092  0.0060 -1.0384 -0.1547
  841MOL0     H13516   0.932  -1.223   8.197 -1.0562 -0.3577  3.1439
  841MOL0     H13517   1.290  -0.562   8.834  0.3241  0.1031 -0.4156
  841MOL0     H13518   1.464  -0.492   8.995 -1.0124 -0.0059  0.4907
  841MOL0     H13519   1.691  -0.230   9.211 -0.3493  1.0709 -0.1869
  841MOL0     H13520   1.833  -0.183   9.391  2.6068 -1.7480  1.4640
  841MOL0     H13521   3.757   0.509   9.678 -1.1142  1.2607  1.8949
  841MOL0     H13522   4.016   0.516   9.612 -1.8926 -0.6240 -1.7249
  841MOL0     H13523   4.332   0.774   9.439 -0.7302  0.8534  1.0787
  841MOL0     H13524   4.572   0.855   9.388  3.5114 -1.3888  0.6915
  841MOL0     H13525   4.933   0.930   9.603  2.1515 -1.5905  1.2102
  841MOL0     H13526   4.827   0.893   9.728  1.2925  0.6904 -0.5280
  841MOL0     H13527   4.865   0.646   9.684  1.0437 -0.1681  2.1419
  841MOL0     H13528   5.012   0.727   9.716  0.3119 -2.0461  0.2190
  841MOL0     H13529   5.047   0.759   9.451  1.8430 -0.6332  1.2038
  841MOL0     H13530   4.920   0.632   9.430  0.9276 -3.6832  0.1060
  841MOL0     H13531   5.030   0.471   9.547  0.4323 -0.4079 -1.1144
  841MOL0     H13532   5.162   0.575   9.588  1.0427 -2.5414  0.2388
  841MOL0     H13533   5.258   0.512   9.178  0.0482  2.6876 -0.2162
  841MOL0     H13534   4.681   0.739   9.777 -1.4285  1.4836  1.0047
  841MOL0     H13535   4.463   0.661   9.829 -0.4298  0.1189  0.1833
  842MOL0     O13536   2.248   8.917   7.683  0.3075  0.5662 -0.4795
  842MOL0     C13537   2.347   8.975   7.637  0.3446  0.4586 -0.2125
  842MOL0     O13538   2.347   9.060   7.534 -0.2644  0.0965  0.2389
  842MOL0     C13539   2.233   9.070   7.460 -0.1883  0.7193  0.3695
  842MOL0     C13540   2.200   8.970   7.370 -0.2512  0.2897 -0.5397
  842MOL0     C13541   2.096   8.971   7.288  0.0130  0.0758  0.1041
  842MOL0     C13542   2.013   9.081   7.290  0.3960 -0.3390  0.0085
  842MOL0     O13543   1.910   9.078   7.203  0.3093  0.7103  0.5335
  842MOL0     C13544   1.854   9.201   7.145  0.1666 -0.0397  0.2353
  842MOL0     C13545   1.725   9.248   7.216  0.0847 -0.5732  0.2241
  842MOL0     C13546   1.590   9.209   7.149  0.2656 -0.8276  0.0919
  842MOL0     C13547   1.470   9.295   7.205  0.0075  1.4344  0.1206
  842MOL0     C13548   1.340   9.263   7.130 -0.6653 -0.0992  0.2031
  842MOL0     C13549   1.223   9.314   7.209  0.7968 -0.4585  0.0181
  842MOL0     C13550   1.086   9.270   7.150  0.5697 -0.0535 -0.2100
  842MOL0     C13551   0.974   9.342   7.231  0.1924  0.2620  0.1058
  842MOL0     N13552   0.842   9.324   7.159  0.4765 -0.2519 -0.0898
  842MOL0     C13553   0.764   9.213   7.151 -0.0316  0.1890 -0.2161
  842MOL0     C13554   0.668   9.241   7.067 -0.3709 -0.0445  0.5226
  842MOL0     C13555   0.565   9.150   7.011  0.2384  0.0287  0.6531
  842MOL0     C13556   0.601   9.007   6.997 -0.1665  0.6650 -0.0357
  842MOL0     C13557   0.526   8.928   6.897 -0.0263  0.2230 -0.5981
  842MOL0     C13558   0.380   8.938   6.926 -0.9213  0.2446 -0.2330
  842MOL0     O13559   0.321   8.835   6.850  0.3944  0.0122 -0.4335
  842MOL0     C13560   0.180   8.815   6.860 -0.7596  0.0113  0.0663
  842MOL0     C13561   0.094   8.873   6.953  0.2212  0.1477  0.4462
  842MOL0     C13562  -0.048   8.851   6.945 -0.1305 -0.4758  0.0912
  842MOL0     C13563  -0.126   8.929   7.048  0.6236 -0.0752  0.0109
  842MOL0     C13564  -0.100   8.778   6.832  0.4171 -1.0407  0.5020
  842MOL0     C13565  -0.247   8.761   6.815 -0.2828 -0.1541  0.0919
  842MOL0     O13566  -0.297   8.646   6.754 -0.3648 -1.1574  0.3449
  842MOL0     C13567  -0.427   8.612   6.779 -0.9171 -0.7389 -0.2712
  842MOL0     C13568  -0.462   8.613   6.914 -0.0460 -0.0249  0.5253
  842MOL0     C13569  -0.597   8.581   6.936  0.5941 -0.7239  0.1880
  842MOL0     C13570  -0.684   8.543   6.831 -0.3799  0.0332  0.3180
  842MOL0     O13571  -0.817   8.535   6.868 -0.0674  0.1005  0.1267
  842MOL0     C13572  -0.923   8.520   6.779 -0.3081  0.1020 -0.0116
  842MOL0     C13573  -1.047   8.475   6.852 -0.2951 -0.5605 -0.4342
  842MOL0     C13574  -1.153   8.452   6.738 -0.0829 -0.4994 -0.8971
  842MOL0     C13575  -1.279   8.386   6.794  0.4297 -0.2151  0.2409
  842MOL0     C13576  -1.385   8.362   6.688 -0.7745  0.9743  1.1085
  842MOL0     C13577  -1.484   8.248   6.737  0.3492  0.3288 -0.1297
  842MOL0     C13578  -1.567   8.291   6.858  0.7326 -0.3037 -0.1941
  842MOL0     C13579  -1.698   8.212   6.864 -0.4005 -0.2961 -0.0701
  842MOL0    Cl13580  -1.793   8.285   6.733  0.2494  0.2456  0.1078
  842MOL0     C13581  -0.637   8.532   6.700  0.3820 -0.5345 -1.3871
  842MOL0     C13582  -0.508   8.556   6.678 -0.4131 -0.3693  0.4458
  842MOL0     O13583  -0.314   8.854   6.848 -0.2048 -0.7195  0.3257
  842MOL0     C13584  -0.008   8.707   6.753  0.0171 -0.0146  0.6719
  842MOL0     C13585   0.130   8.726   6.766  0.1281  0.4362  0.6410
  842MOL0     N13586   0.657   9.380   7.042  0.2754 -0.6108  0.3116
  842MOL0     N13587   0.769   9.423   7.101  0.7647 -1.0203  1.3312
  842MOL0     C13588   2.034   9.185   7.385  0.6717  0.0733  0.2884
  842MOL0     C13589   2.144   9.176   7.468 -0.4059 -0.1133 -0.1143
  842MOL0     C13590   2.480   8.944   7.694  0.2291  0.0682 -0.9067
  842MOL0     C13591   2.597   8.950   7.623 -0.1878 -0.5341 -0.3407
  842MOL0     C13592   2.722   8.928   7.683 -0.4353 -0.0876 -0.9370
  842MOL0     C13593   2.732   8.892   7.815 -1.0176  0.0800  0.0317
  842MOL0     O13594   2.858   8.858   7.868  0.0464 -0.2208 -0.1799
  842MOL0     C13595   2.976   8.929   7.830 -0.8017  0.5393 -0.4266
  842MOL0     C13596   3.044   8.857   7.714  0.8404  0.9000 -0.1751
  842MOL0     C13597   3.185   8.910   7.689  0.3585 -0.7683  0.3940
  842MOL0     C13598   3.276   8.816   7.609  0.0008  0.0968  0.2764
  842MOL0     C13599   3.403   8.883   7.589 -0.1015  0.3666  0.3035
  842MOL0     C13600   3.512   8.936   7.563  0.4202 -0.5247  0.1424
  842MOL0     C13601   2.621   8.895   7.897 -0.1222  0.5605 -0.3336
  842MOL0     C13602   2.496   8.919   7.833 -0.0550  0.0979  0.3052
  842MOL0     H13603   2.254   8.878   7.353 -1.5697 -0.4256 -1.0569
  842MOL0     H13604   2.078   8.897   7.211  5.2849 -0.6866 -0.7234
  842MOL0     H13605   1.937   9.271   7.156 -1.1872  1.3040  2.9047
  842MOL0     H13606   1.832   9.186   7.039  0.3226  3.1478 -0.3505
  842MOL0     H13607   1.724   9.197   7.313 -0.5829  1.1356  1.1703
  842MOL0     H13608   1.737   9.356   7.228 -1.7397 -0.5298  2.2004
  842MOL0     H13609   1.610   9.221   7.042  3.3860  2.4029  0.8392
  842MOL0     H13610   1.569   9.104   7.172  0.2026 -0.8990 -0.2873
  842MOL0     H13611   1.464   9.277   7.312  0.0229 -1.8472 -0.3087
  842MOL0     H13612   1.495   9.400   7.192  0.9689  1.4478  1.8590
  842MOL0     H13613   1.339   9.299   7.027 -0.7675 -1.1496 -0.1847
  842MOL0     H13614   1.335   9.154   7.121  1.3533 -0.1835 -0.1749
  842MOL0     H13615   1.229   9.255   7.301  2.3299 -2.9734 -1.5907
  842MOL0     H13616   1.215   9.423   7.221 -1.2078 -0.6982  1.3365
  842MOL0     H13617   1.074   9.295   7.044  0.2984 -1.3016 -0.4868
  842MOL0     H13618   1.076   9.161   7.152  1.8403 -0.1775  1.5729
  842MOL0     H13619   1.006   9.441   7.264  3.3418 -0.8522  0.6715
  842MOL0     H13620   0.955   9.301   7.331 -3.5762  2.6608  0.5993
  842MOL0     H13621   0.791   9.116   7.190  0.7522  0.4013 -0.2038
  842MOL0     H13622   0.464   9.160   7.053 -1.0146 -2.4070 -1.4991
  842MOL0     H13623   0.547   9.186   6.909 -0.4323 -1.1955  0.3204
  842MOL0     H13624   0.586   8.956   7.093  1.2058 -0.4824 -0.4011
  842MOL0     H13625   0.707   9.001   6.971 -0.1699 -0.0406  0.0947
  842MOL0     H13626   0.554   8.823   6.896 -2.1025 -0.4233 -3.6779
  842MOL0     H13627   0.556   8.967   6.799  1.4120 -2.9673 -1.5520
  842MOL0     H13628   0.335   9.031   6.891 -0.8298  0.1601 -0.5826
  842MOL0     H13629   0.363   8.927   7.033  0.1182 -0.3253 -0.1056
  842MOL0     H13630   0.138   8.928   7.035 -1.0294 -0.9319  1.9083
  842MOL0     H13631  -0.061   8.965   7.128 -1.3082  2.6083  0.4725
  842MOL0     H13632  -0.176   9.016   7.005 -0.0579 -0.8001 -0.6887
  842MOL0     H13633  -0.199   8.858   7.087  1.9137  0.0509  2.9315
  842MOL0     H13634  -0.398   8.650   6.993  0.1628 -1.3148  0.9911
  842MOL0     H13635  -0.660   8.585   7.024  0.6267 -2.2230  0.2942
  842MOL0     H13636  -0.934   8.614   6.725 -1.2521  0.6047  1.0263
  842MOL0     H13637  -0.894   8.446   6.704  1.2751 -0.7709  1.3828
  842MOL0     H13638  -1.026   8.377   6.896  1.4507 -0.7165 -1.5067
  842MOL0     H13639  -1.083   8.543   6.929 -2.3530 -2.0395  0.0018
  842MOL0     H13640  -1.109   8.384   6.663  1.9289  1.7806 -1.9268
  842MOL0     H13641  -1.169   8.546   6.685 -0.7970 -0.9298 -1.4664
  842MOL0     H13642  -1.249   8.290   6.838 -2.0742 -1.9578 -1.5645
  842MOL0     H13643  -1.317   8.442   6.879 -1.5147 -1.4179  0.2192
  842MOL0     H13644  -1.363   8.324   6.588 -2.0442  1.2044  0.7222
  842MOL0     H13645  -1.438   8.456   6.670  0.5188  1.4305 -0.5288
  842MOL0     H13646  -1.547   8.221   6.652  0.6374 -0.8311  0.0164
  842MOL0     H13647  -1.430   8.154   6.746 -0.3444 -0.0202  0.4733
  842MOL0     H13648  -1.588   8.398   6.854  0.7406 -0.1775  2.0234
  842MOL0     H13649  -1.506   8.278   6.947  0.1336 -0.6899  0.1608
  842MOL0     H13650  -1.751   8.231   6.957  0.4040 -0.9480  0.5289
  842MOL0     H13651  -1.689   8.104   6.854  0.1683 -0.1595 -1.2270
  842MOL0     H13652  -0.708   8.512   6.621 -1.7655  4.8388 -1.2081
  842MOL0     H13653  -0.469   8.553   6.577 -1.1515 -1.7054  0.1777
  842MOL0     H13654  -0.044   8.644   6.673 -3.6866 -0.4348  2.4636
  842MOL0     H13655   0.193   8.673   6.696 -2.1820 -1.8694  0.1278
  842MOL0     H13656   1.952   9.255   7.388  1.1057  0.5623  0.9200
  842MOL0     H13657   2.156   9.251   7.546  1.0430  3.2913 -3.3162
  842MOL0     H13658   2.586   8.974   7.517 -1.3775 -3.1274 -0.9005
  842MOL0     H13659   2.807   8.932   7.615 -1.1851 -1.0575 -1.9730
  842MOL0     H13660   2.949   9.033   7.809 -0.1176  1.3821  2.4541
  842MOL0     H13661   3.045   8.932   7.915  0.0382  1.0703 -1.0973
  842MOL0     H13662   2.981   8.850   7.625 -2.7531  1.3536  2.0989
  842MOL0     H13663   3.068   8.760   7.758  0.2083  0.4681 -0.7689
  842MOL0     H13664   3.233   8.926   7.786  2.9878 -0.8012 -0.8010
  842MOL0     H13665   3.183   9.002   7.629 -0.7185 -1.4658 -0.6674
  842MOL0     H13666   3.217   8.791   7.520 -1.5160 -1.4989  1.6595
  842MOL0     H13667   3.299   8.721   7.658 -0.6762 -0.1765  0.0784
  842MOL0     H13668   3.593   8.994   7.524 -1.8647  1.4310 -1.9951
  842MOL0     H13669   2.637   8.856   7.997  3.4476 -1.1098 -1.3875
  842MOL0     H13670   2.415   8.924   7.905  2.4419  2.3718  3.2167
  843MOL0     O13671   2.521   8.272   6.220  0.6356 -0.0532  0.1925
  843MOL0     C13672   2.546   8.214   6.327  0.7801 -0.4997  0.1850
  843MOL0     O13673   2.457   8.193   6.434  0.4423  0.4192 -0.8591
  843MOL0     C13674   2.325   8.204   6.413 -0.9006 -0.0685 -0.0030
  843MOL0     C13675   2.266   8.323   6.459  1.1756 -0.1981  0.0184
  843MOL0     C13676   2.130   8.333   6.429 -0.4244 -0.4050  0.1790
  843MOL0     C13677   2.056   8.235   6.374  0.0065  0.6958 -0.2937
  843MOL0     O13678   1.920   8.254   6.362 -0.4150 -0.5523  0.0956
  843MOL0     C13679   1.835   8.142   6.340 -0.4542  0.0893 -0.1837
  843MOL0     C13680   1.688   8.187   6.337 -0.0369  0.5092  0.3276
  843MOL0     C13681   1.593   8.069   6.377  0.6737 -0.0157  0.6117
  843MOL0     C13682   1.457   8.111   6.421  0.7014 -0.6194  0.6989
  843MOL0     C13683   1.373   7.982   6.468 -0.4512 -0.2555  0.4419
  843MOL0     C13684   1.233   8.006   6.518  0.6030 -1.2213  0.6962
  843MOL0     C13685   1.155   8.044   6.397  1.4586 -0.0748 -0.3503
  843MOL0     C13686   1.006   8.066   6.427 -0.8101  0.7573 -1.1213
  843MOL0     N13687   0.945   8.099   6.299 -0.0980  0.2392 -0.8534
  843MOL0     C13688   0.898   8.000   6.221  0.2212 -0.6957  0.1402
  843MOL0     C13689   0.855   8.071   6.114 -1.0322 -0.5210  1.0363
  843MOL0     C13690   0.796   7.995   6.000  0.2552 -0.1544 -0.3181
  843MOL0     C13691   0.638   8.001   5.995  0.2218  0.8860 -0.1726
  843MOL0     C13692   0.568   7.933   6.125  0.0975 -0.1907  0.0927
  843MOL0     C13693   0.417   7.940   6.119  0.5394  1.0330  0.0215
  843MOL0     O13694   0.379   7.846   6.219  0.2496 -0.3412  0.3655
  843MOL0     C13695   0.239   7.832   6.242 -0.5766  0.1222  0.3379
  843MOL0     C13696   0.188   7.715   6.304  0.2455  0.6411  1.0847
  843MOL0     C13697   0.053   7.704   6.347 -0.1325  0.8833 -0.9272
  843MOL0     C13698   0.014   7.573   6.411 -0.2429  0.4270 -0.4676
  843MOL0     C13699  -0.031   7.820   6.337 -0.5754 -0.3567  0.1688
  843MOL0     C13700  -0.174   7.823   6.370 -0.5568 -0.0290 -0.4557
  843MOL0     O13701  -0.241   7.945   6.369 -0.1908 -0.2226 -0.0726
  843MOL0     C13702  -0.361   7.964   6.440 -0.7883  0.0716 -0.0587
  843MOL0     C13703  -0.391   7.890   6.564 -0.0252  1.5497  0.7606
  843MOL0     C13704  -0.501   7.918   6.634 -0.1501 -0.4787  0.0375
  843MOL0     C13705  -0.586   8.023   6.587  0.6385 -1.4207  0.4798
  843MOL0     O13706  -0.704   8.048   6.649 -0.1208  0.0285  0.3181
  843MOL0     C13707  -0.694   8.157   6.739 -0.1754 -0.5472 -0.1307
  843MOL0     C13708  -0.841   8.158   6.799  0.1179 -0.1158  0.2041
  843MOL0     C13709  -0.840   8.043   6.899  0.6882  0.3102 -0.3110
  843MOL0     C13710  -0.983   8.017   6.953 -0.5098  0.7502  0.3171
  843MOL0     C13711  -0.981   7.905   7.056 -0.9365 -0.4862  0.0554
  843MOL0     C13712  -0.900   7.932   7.191 -0.7437 -0.2576  0.6184
  843MOL0     C13713  -0.977   7.879   7.311  0.0628 -0.5763  0.0581
  843MOL0     C13714  -0.870   7.858   7.428  0.1074 -0.2175  0.5952
  843MOL0    Cl13715  -0.785   8.018   7.457 -0.0385 -0.0133  0.0678
  843MOL0     C13716  -0.551   8.104   6.479  0.6674  0.0083  0.1098
  843MOL0     C13717  -0.442   8.077   6.400 -0.4304 -0.8311  0.1021
  843MOL0     O13718  -0.219   7.716   6.402  0.0388  0.3398  0.5085
  843MOL0     C13719   0.020   7.944   6.288  0.2750  0.6800 -0.3068
  843MOL0     C13720   0.150   7.946   6.238 -0.5968 -0.3788  0.0066
  843MOL0     N13721   0.890   8.209   6.130 -0.1460 -1.3695  0.3911
  843MOL0     N13722   0.947   8.229   6.247  0.5425  0.3110 -0.6786
  843MOL0     C13723   2.117   8.116   6.335 -0.5229  0.7095 -0.3295
  843MOL0     C13724   2.257   8.095   6.350 -0.4333 -1.3145 -1.1304
  843MOL0     C13725   2.682   8.173   6.360 -0.4307 -0.9039  0.3760
  843MOL0     C13726   2.714   8.088   6.466  0.2656  0.2757 -0.6376
  843MOL0     C13727   2.846   8.046   6.491  0.0187  0.5585 -0.0747
  843MOL0     C13728   2.951   8.108   6.420 -0.0049  0.9598  0.4484
  843MOL0     O13729   3.080   8.082   6.456  0.1732 -0.6007  0.7013
  843MOL0     C13730   3.187   8.096   6.348  0.2797  0.5604 -0.1427
  843MOL0     C13731   3.305   7.997   6.369  0.2632  0.4231 -0.9674
  843MOL0     C13732   3.390   8.025   6.493  0.1144  0.0942  0.9077
  843MOL0     C13733   3.513   7.936   6.493 -0.2247 -0.2051  0.5295
  843MOL0     C13734   3.638   8.011   6.515  0.0686  0.2389  0.2729
  843MOL0     C13735   3.727   8.090   6.535 -0.6264  0.3528  0.2169
  843MOL0     C13736   2.923   8.197   6.314 -0.0168  0.4604 -0.5934
  843MOL0     C13737   2.790   8.233   6.287  1.2405 -0.8026 -0.0485
  843MOL0     H13738   2.309   8.402   6.520  0.0179 -0.5918  1.3943
  843MOL0     H13739   2.079   8.423   6.461  1.3644  1.1639 -1.1421
  843MOL0     H13740   1.857   8.103   6.240 -2.0644 -0.1839 -0.4627
  843MOL0     H13741   1.844   8.067   6.418  5.2016 -0.8187 -1.2865
  843MOL0     H13742   1.667   8.269   6.407 -0.8201  0.2313  0.4247
  843MOL0     H13743   1.661   8.226   6.238  1.0180 -0.7556 -0.4786
  843MOL0     H13744   1.577   8.000   6.294 -2.4106 -0.6987  1.6564
  843MOL0     H13745   1.646   8.019   6.458  0.9357  0.7923  0.9504
  843MOL0     H13746   1.469   8.192   6.494  1.1825  1.7988 -1.8542
  843MOL0     H13747   1.413   8.166   6.337  2.0910 -1.1164 -0.4012
  843MOL0     H13748   1.376   7.912   6.384  3.0273 -1.1206  1.1391
  843MOL0     H13749   1.430   7.930   6.544 -1.9956 -1.7118  0.6592
  843MOL0     H13750   1.192   7.912   6.556  0.7131 -1.6568 -0.2258
  843MOL0     H13751   1.237   8.078   6.600  3.4053  1.9693 -1.9314
  843MOL0     H13752   1.198   8.132   6.349  1.1040  1.0155  1.2651
  843MOL0     H13753   1.154   7.961   6.326 -2.2195  0.5016 -1.2097
  843MOL0     H13754   0.999   8.147   6.500  0.9543  2.1106 -2.3814
  843MOL0     H13755   0.957   7.980   6.474  0.8516  0.8819  0.9679
  843MOL0     H13756   0.892   7.892   6.232 -2.4150 -0.8523 -2.0044
  843MOL0     H13757   0.839   8.046   5.914  1.0295 -0.0607  0.1036
  843MOL0     H13758   0.831   7.891   5.998  1.2152  0.1370  0.1780
  843MOL0     H13759   0.613   7.942   5.906  0.8938  1.4044 -0.7253
  843MOL0     H13760   0.602   8.104   5.984 -1.6854  0.1903 -0.9717
  843MOL0     H13761   0.599   7.978   6.220  1.4075  1.4122 -1.0393
  843MOL0     H13762   0.602   7.829   6.125  2.5648  0.4800 -2.6873
  843MOL0     H13763   0.382   7.911   6.020  0.6732 -1.9068  0.7640
  843MOL0     H13764   0.388   8.044   6.139  0.4889  0.8939  0.6929
  843MOL0     H13765   0.248   7.627   6.324  2.7459  2.3504  1.4734
  843MOL0     H13766  -0.067   7.519   6.361 -1.7755  0.4739  1.8329
  843MOL0     H13767   0.104   7.511   6.414  1.0971  2.2892 -0.5460
  843MOL0     H13768  -0.016   7.586   6.515 -0.0036  1.0513 -0.4702
  843MOL0     H13769  -0.326   7.812   6.601  1.3748  2.6596  0.7090
  843MOL0     H13770  -0.529   7.863   6.723 -1.0821 -0.9948 -0.5527
  843MOL0     H13771  -0.612   8.132   6.807  0.0824  0.1494 -0.1714
  843MOL0     H13772  -0.662   8.251   6.693  0.7976  0.9052  3.1855
  843MOL0     H13773  -0.858   8.257   6.841 -1.1336  0.6084 -1.8458
  843MOL0     H13774  -0.915   8.147   6.719 -2.4450  1.8695  2.1028
  843MOL0     H13775  -0.780   8.070   6.986  0.5742 -4.0262  1.3625
  843MOL0     H13776  -0.792   7.954   6.856 -0.0222 -0.7756  1.0534
  843MOL0     H13777  -1.023   8.109   6.997  1.1106  1.5489  0.1882
  843MOL0     H13778  -1.050   7.990   6.872  1.3068 -2.1541 -0.3664
  843MOL0     H13779  -0.934   7.824   6.998  0.4617 -1.8448  2.9133
  843MOL0     H13780  -1.083   7.872   7.077 -0.5704 -0.3390  2.2911
  843MOL0     H13781  -0.805   7.879   7.185 -1.5476 -1.5713 -1.5205
  843MOL0     H13782  -0.892   8.041   7.200  0.0811 -0.1843 -0.6821
  843MOL0     H13783  -1.036   7.788   7.294 -2.2082  0.5210  1.4827
  843MOL0     H13784  -1.053   7.955   7.334  0.4643  0.1470 -0.9116
  843MOL0     H13785  -0.781   7.808   7.387 -2.1721 -2.2589 -2.2615
  843MOL0     H13786  -0.918   7.819   7.518 -1.8791 -1.5165 -0.9560
  843MOL0     H13787  -0.618   8.180   6.438  1.9137  0.5143 -1.0389
  843MOL0     H13788  -0.405   8.132   6.314 -0.6821 -1.3317 -0.3307
  843MOL0     H13789  -0.038   8.035   6.276  1.0638  0.9804 -2.2016
  843MOL0     H13790   0.201   8.039   6.213 -1.1303 -0.2144 -0.5071
  843MOL0     H13791   2.078   8.030   6.281  3.2969 -1.1748 -0.4456
  843MOL0     H13792   2.309   8.006   6.316  1.2527  0.2125 -2.8393
  843MOL0     H13793   2.635   8.058   6.535  0.8033  1.4232  0.5252
  843MOL0     H13794   2.890   7.973   6.557 -0.7308 -0.8622 -1.0889
  843MOL0     H13795   3.141   8.063   6.255 -0.0394  1.5543 -0.3439
  843MOL0     H13796   3.234   8.194   6.344  3.3322 -0.8068 -0.3656
  843MOL0     H13797   3.377   8.019   6.289  0.5676  2.6553 -0.1640
  843MOL0     H13798   3.277   7.892   6.361  1.2119  0.2834 -3.1215
  843MOL0     H13799   3.335   8.007   6.586 -1.4121  4.1440  0.9858
  843MOL0     H13800   3.401   8.134   6.488 -2.2281  0.3609  0.4867
  843MOL0     H13801   3.536   7.883   6.401  0.2708  1.1652 -0.1668
  843MOL0     H13802   3.502   7.857   6.568  0.6048 -0.8054  0.0360
  843MOL0     H13803   3.799   8.166   6.558 -1.5311  0.8820  1.4124
  843MOL0     H13804   3.004   8.251   6.265 -0.4963 -0.1840 -2.1604
  843MOL0     H13805   2.759   8.309   6.217  0.3369 -1.4584 -0.3749
  844MOL0     O13806   3.899   2.774   6.492  0.9727 -0.3960 -0.1815
  844MOL0     C13807   3.866   2.693   6.577  0.3392 -0.8941  0.0745
  844MOL0     O13808   3.771   2.710   6.675  0.3120 -0.2631 -0.3046
  844MOL0     C13809   3.669   2.799   6.668 -0.2133  0.3833  0.3029
  844MOL0     C13810   3.602   2.820   6.544  0.8968  0.3615  0.0731
  844MOL0     C13811   3.499   2.909   6.530 -0.5237  0.3422  1.0172
  844MOL0     C13812   3.468   2.990   6.638  0.1310 -0.4257  0.2981
  844MOL0     O13813   3.376   3.086   6.630 -0.4262  0.1028  0.0386
  844MOL0     C13814   3.314   3.099   6.497  0.5412 -0.4333  0.2428
  844MOL0     C13815   3.217   3.217   6.495  0.2095  0.4282 -0.2253
  844MOL0     C13816   3.084   3.180   6.574  0.8817  0.3279  0.6127
  844MOL0     C13817   2.968   3.277   6.537 -0.2433 -0.6067 -0.1598
  844MOL0     C13818   2.829   3.259   6.582 -0.0635  0.0902 -0.2934
  844MOL0     C13819   2.741   3.365   6.510 -0.5913 -0.3206  0.7331
  844MOL0     C13820   2.597   3.342   6.529  0.5865 -0.1728  0.5059
  844MOL0     C13821   2.552   3.199   6.495  0.6398  0.0939 -0.1460
  844MOL0     N13822   2.407   3.197   6.476  0.3162 -0.3447 -0.4943
  844MOL0     C13823   2.322   3.109   6.530  0.2967  1.4085 -0.5734
  844MOL0     C13824   2.204   3.114   6.466  0.6242  1.0647  0.0431
  844MOL0     C13825   2.079   3.037   6.496  0.1500  0.3870  0.7722
  844MOL0     C13826   1.969   3.125   6.556  0.0640 -0.1176  0.1710
  844MOL0     C13827   2.005   3.153   6.702 -0.3845  0.0048  0.0574
  844MOL0     C13828   1.903   3.254   6.774 -0.4228  0.0250  0.9215
  844MOL0     O13829   1.781   3.182   6.760  0.6737  0.2716 -0.9262
  844MOL0     C13830   1.667   3.228   6.816  0.6084  0.2304 -0.9939
  844MOL0     C13831   1.550   3.197   6.747  0.1730 -0.0899 -0.5700
  844MOL0     C13832   1.416   3.226   6.801 -0.6678 -0.5667 -0.5287
  844MOL0     C13833   1.292   3.194   6.723 -0.7906  0.2476 -0.0646
  844MOL0     C13834   1.407   3.293   6.930  0.5637 -0.2898  0.5537
  844MOL0     C13835   1.280   3.335   6.995 -0.6457 -0.3492  0.0463
  844MOL0     O13836   1.293   3.368   7.127  0.0706  0.1412  0.5350
  844MOL0     C13837   1.183   3.426   7.188  0.4962  0.0708 -0.4287
  844MOL0     C13838   1.098   3.345   7.260  1.2052 -0.0818 -0.2163
  844MOL0     C13839   0.994   3.397   7.327 -0.1419 -0.4020  0.2861
  844MOL0     C13840   0.969   3.537   7.320  0.8156 -0.8607 -0.5839
  844MOL0     O13841   0.868   3.578   7.392 -0.9845 -0.2290 -0.7036
  844MOL0     C13842   0.888   3.688   7.483  0.3400 -0.6378  0.5350
  844MOL0     C13843   0.827   3.819   7.430 -0.3278 -0.5089  0.7125
  844MOL0     C13844   0.677   3.798   7.394  0.3158  0.2689 -0.4669
  844MOL0     C13845   0.590   3.927   7.360  0.5073  1.1173 -0.0949
  844MOL0     C13846   0.443   3.920   7.413 -1.2082 -0.1657 -0.0337
  844MOL0     C13847   0.425   3.963   7.555  0.8146  0.7056 -0.2708
  844MOL0     C13848   0.500   4.089   7.595  0.6676 -0.4037  0.5145
  844MOL0     C13849   0.435   4.170   7.712  0.1085  0.3783 -0.7783
  844MOL0    Cl13850   0.415   4.068   7.860 -0.0607  0.4167 -0.0981
  844MOL0     C13851   1.056   3.621   7.248 -0.0909 -0.0330  0.2777
  844MOL0     C13852   1.171   3.564   7.186 -0.0461 -0.3853  0.0401
  844MOL0     O13853   1.183   3.358   6.922  0.1223  0.3053 -1.0840
  844MOL0     C13854   1.535   3.332   6.996  1.7255  0.2205 -0.0395
  844MOL0     C13855   1.660   3.302   6.933  0.4446  0.3400  0.4114
  844MOL0     N13856   2.229   3.184   6.358 -0.2938 -0.6181 -0.0419
  844MOL0     N13857   2.348   3.241   6.366  0.4656 -0.2585  0.0289
  844MOL0     C13858   3.544   2.974   6.758  0.2720 -0.5672  0.5541
  844MOL0     C13859   3.648   2.877   6.776  0.2415  0.1408 -0.1998
  844MOL0     C13860   3.957   2.588   6.588 -0.1870 -0.4069  0.5856
  844MOL0     C13861   4.022   2.567   6.708  0.8958  0.4891 -0.0588
  844MOL0     C13862   4.113   2.465   6.712 -0.4804 -0.4664  0.2561
  844MOL0     C13863   4.146   2.392   6.597  0.4924  0.2522  0.3351
  844MOL0     O13864   4.232   2.286   6.620  0.5652 -0.1299  0.6618
  844MOL0     C13865   4.284   2.206   6.509 -1.2712  0.6107 -0.7983
  844MOL0     C13866   4.416   2.134   6.545  0.4866 -0.1110 -0.2770
  844MOL0     C13867   4.482   2.068   6.429  0.4682 -0.4099  0.2620
  844MOL0     C13868   4.634   2.043   6.454  0.5734  0.1825  0.6174
  844MOL0     C13869   4.656   1.960   6.571 -0.0986  0.5546 -0.8508
  844MOL0     C13870   4.658   1.898   6.680 -0.5225 -0.1156 -0.1458
  844MOL0     C13871   4.083   2.414   6.475  0.6364  0.2827  0.0651
  844MOL0     C13872   3.979   2.509   6.471 -0.3871 -0.2911  0.8284
  844MOL0     H13873   3.629   2.736   6.480  1.7123 -0.8093  1.8513
  844MOL0     H13874   3.445   2.901   6.437 -0.1626 -0.5263  0.8730
  844MOL0     H13875   3.388   3.115   6.418 -2.7798 -1.5515 -3.4245
  844MOL0     H13876   3.263   3.009   6.460  2.0412 -0.3274 -2.3681
  844MOL0     H13877   3.277   3.303   6.529 -0.6388  0.2757  1.7747
  844MOL0     H13878   3.180   3.237   6.394 -1.2959 -0.8861  0.0266
  844MOL0     H13879   3.055   3.082   6.534  0.1370  1.3166 -1.4484
  844MOL0     H13880   3.094   3.178   6.682 -0.0716  1.5641  0.7536
  844MOL0     H13881   3.001   3.369   6.587  0.7417 -0.1940 -1.5201
  844MOL0     H13882   2.966   3.295   6.429  0.4221  1.4956  0.1423
  844MOL0     H13883   2.794   3.161   6.550  1.6239 -0.5496 -0.2794
  844MOL0     H13884   2.822   3.270   6.691  0.9080 -0.9802 -0.1084
  844MOL0     H13885   2.763   3.468   6.541 -0.9614  0.0948 -0.3447
  844MOL0     H13886   2.757   3.375   6.403  0.4582  1.7503  1.0422
  844MOL0     H13887   2.566   3.362   6.632 -0.9735 -2.5539  0.5929
  844MOL0     H13888   2.540   3.406   6.461  3.7081  0.5788 -1.5847
  844MOL0     H13889   2.585   3.128   6.571  0.2304 -0.2149 -0.2474
  844MOL0     H13890   2.609   3.161   6.409  0.9145  1.9260 -0.8125
  844MOL0     H13891   2.332   3.040   6.614 -0.3561  0.3789 -1.3243
  844MOL0     H13892   2.050   2.975   6.411 -0.7586 -0.5065  1.7043
  844MOL0     H13893   2.109   2.961   6.568  0.6206  0.4545  0.6534
  844MOL0     H13894   1.876   3.068   6.548  0.9312 -1.3881 -1.7296
  844MOL0     H13895   1.946   3.212   6.494 -1.7478 -1.6541 -1.4523
  844MOL0     H13896   2.109   3.183   6.720  1.1646 -5.6702  2.7431
  844MOL0     H13897   1.996   3.058   6.755  2.4595 -1.1676 -1.3477
  844MOL0     H13898   1.896   3.349   6.720 -1.3784  0.7994  2.3629
  844MOL0     H13899   1.934   3.275   6.877  2.6232  3.2533 -0.4470
  844MOL0     H13900   1.564   3.151   6.650  2.9573  0.1253 -0.3391
  844MOL0     H13901   1.227   3.139   6.792 -2.7531 -0.3271 -2.2679
  844MOL0     H13902   1.246   3.282   6.680 -1.2674 -1.0590 -2.3884
  844MOL0     H13903   1.312   3.131   6.636  0.8536 -0.6737  0.9177
  844MOL0     H13904   1.120   3.239   7.252  1.3658 -0.0094 -0.8215
  844MOL0     H13905   0.922   3.334   7.379  0.9341 -1.5858  0.3905
  844MOL0     H13906   0.832   3.678   7.577 -0.6679  0.7366  0.1147
  844MOL0     H13907   0.993   3.703   7.510 -0.3649  0.6225  2.8712
  844MOL0     H13908   0.846   3.913   7.481 -1.5161  0.7495 -1.0124
  844MOL0     H13909   0.885   3.841   7.340  3.3870  0.9584  3.2292
  844MOL0     H13910   0.632   3.745   7.478 -0.4747  3.1815  1.0911
  844MOL0     H13911   0.652   3.722   7.320 -2.1875 -0.9564  1.4883
  844MOL0     H13912   0.635   4.020   7.396  0.9884  2.1996 -3.2058
  844MOL0     H13913   0.582   3.931   7.251  0.1697  1.6255 -0.0538
  844MOL0     H13914   0.401   3.820   7.394 -0.9120  0.1345 -2.7236
  844MOL0     H13915   0.380   3.987   7.354 -0.6198 -1.0242 -1.7076
  844MOL0     H13916   0.323   3.989   7.584  0.4537  1.8007 -2.3763
  844MOL0     H13917   0.444   3.874   7.616 -1.8813  0.3929  0.2464
  844MOL0     H13918   0.494   4.151   7.505 -3.7187  0.1370  0.9288
  844MOL0     H13919   0.605   4.062   7.611  0.3387 -0.4648  2.8393
  844MOL0     H13920   0.337   4.203   7.676 -1.1633 -0.4321  1.7124
  844MOL0     H13921   0.506   4.252   7.730  0.1295  0.7713 -2.5276
  844MOL0     H13922   1.049   3.729   7.243 -0.3227 -0.0965 -1.0636
  844MOL0     H13923   1.246   3.622   7.133 -1.7878  1.7012 -0.2946
  844MOL0     H13924   1.515   3.387   7.087 -1.5352  1.5713 -1.3642
  844MOL0     H13925   1.747   3.340   6.986 -0.1148  0.4180  1.2870
  844MOL0     H13926   3.518   3.038   6.841 -5.6921  1.0137 -1.9878
  844MOL0     H13927   3.706   2.890   6.867 -1.9682 -0.2996  1.3573
  844MOL0     H13928   3.994   2.622   6.798 -2.3899  0.6621 -1.0665
  844MOL0     H13929   4.166   2.459   6.806  1.3813  0.5018 -0.6653
  844MOL0     H13930   4.210   2.128   6.491 -0.6329 -0.8135  2.0583
  844MOL0     H13931   4.315   2.258   6.418  1.2344 -2.1213 -1.6846
  844MOL0     H13932   4.400   2.070   6.632 -1.9792  0.0202 -0.5393
  844MOL0     H13933   4.493   2.201   6.584  0.5826 -0.6564  0.5037
  844MOL0     H13934   4.453   2.114   6.335 -2.3079 -0.3242  1.0656
  844MOL0     H13935   4.442   1.967   6.423 -0.4549 -0.0732  0.6029
  844MOL0     H13936   4.674   2.145   6.457  0.2844  0.3531 -0.9758
  844MOL0     H13937   4.683   1.997   6.368  1.7446  2.5208 -0.0708
  844MOL0     H13938   4.639   1.859   6.778 -0.3292  2.2802  0.9232
  844MOL0     H13939   4.104   2.351   6.390 -0.9015 -0.1133 -0.0602
  844MOL0     H13940   3.922   2.536   6.383 -0.8114 -2.7065  0.2795
  845MOL0     O13941   8.703   3.540   8.169 -0.4993  0.0834 -0.1155
  845MOL0     C13942   8.779   3.496   8.080 -0.1589 -0.7615  0.2003
  845MOL0     O13943   8.743   3.466   7.962 -0.4166  0.3485 -0.2042
  845MOL0     C13944   8.627   3.519   7.913  0.6183 -0.5667 -0.5489
  845MOL0     C13945   8.633   3.643   7.859  0.3024  0.6760  0.2519
  845MOL0     C13946   8.518   3.696   7.807  0.5046  0.0141 -0.3780
  845MOL0     C13947   8.399   3.626   7.803 -0.5275  0.4136 -0.1619
  845MOL0     O13948   8.277   3.680   7.767  0.0236  0.8565 -0.6548
  845MOL0     C13949   8.253   3.821   7.740  0.6846  1.1807 -0.9584
  845MOL0     C13950   8.122   3.825   7.658  0.9904 -0.6111  0.5309
  845MOL0     C13951   8.125   3.767   7.517  0.5284  0.2085  0.7189
  845MOL0     C13952   7.985   3.727   7.480 -0.2585  0.4286  0.8396
  845MOL0     C13953   7.955   3.699   7.332 -0.0359 -1.3183  0.4540
  845MOL0     C13954   7.817   3.661   7.295 -0.2013 -1.2455  0.4388
  845MOL0     C13955   7.809   3.652   7.136 -0.2229  0.6884  0.3606
  845MOL0     C13956   7.675   3.583   7.110  0.5300  0.8752 -0.2915
  845MOL0     N13957   7.669   3.519   6.981  0.3459  0.3534  0.8569
  845MOL0     C13958   7.678   3.385   6.958 -0.1631  0.0340  1.0771
  845MOL0     C13959   7.627   3.355   6.834 -0.3602  0.0529 -0.2856
  845MOL0     C13960   7.624   3.211   6.773  0.8117 -0.2986  0.2784
  845MOL0     C13961   7.516   3.195   6.663 -0.0202 -0.5229  0.2234
  845MOL0     C13962   7.506   3.047   6.616 -0.4337  0.3815  0.0521
  845MOL0     C13963   7.398   3.017   6.513  0.4102 -0.4859  0.6441
  845MOL0     O13964   7.273   3.033   6.573 -0.0124 -0.4267  0.3503
  845MOL0     C13965   7.151   3.033   6.506 -0.0421 -0.4230  0.7456
  845MOL0     C13966   7.034   3.055   6.583 -0.6272 -0.5675 -0.2055
  845MOL0     C13967   6.906   3.038   6.527  0.8181  1.2788  1.4081
  845MOL0     C13968   6.787   3.057   6.617  0.0357 -0.0965 -0.0589
  845MOL0     C13969   6.896   2.973   6.399 -0.4767 -0.0691  0.7602
  845MOL0     C13970   6.769   2.926   6.345 -0.1408  0.3418  0.8126
  845MOL0     O13971   6.771   2.824   6.249 -0.3413  0.7696 -1.1164
  845MOL0     C13972   6.656   2.775   6.187 -0.3133  0.1673  0.1214
  845MOL0     C13973   6.655   2.633   6.182 -0.5580 -0.6584  0.6485
  845MOL0     C13974   6.548   2.569   6.123 -0.3404  0.1603  0.4133
  845MOL0     C13975   6.432   2.641   6.090 -0.1062  0.6451 -0.1691
  845MOL0     O13976   6.315   2.582   6.046 -1.0085  0.0870 -0.4433
  845MOL0     C13977   6.310   2.438   6.040  0.1688 -0.4829  0.1832
  845MOL0     C13978   6.169   2.399   5.985 -0.3215  0.1425  0.1213
  845MOL0     C13979   6.140   2.256   6.016  0.5534 -0.1405  0.1920
  845MOL0     C13980   6.003   2.202   5.964 -0.4531  0.2707 -0.0044
  845MOL0     C13981   5.973   2.066   6.023  0.7839  0.1266  0.2216
  845MOL0     C13982   5.826   2.023   6.020  0.1240  0.3930 -0.3482
  845MOL0     C13983   5.787   1.972   5.883  0.7004  0.8885  0.4458
  845MOL0     C13984   5.635   1.943   5.867 -0.5769 -0.4952  0.3573
  845MOL0    Cl13985   5.632   1.877   5.698  0.1006 -0.2715 -0.0121
  845MOL0     C13986   6.445   2.784   6.089  0.0082  1.2697  0.2460
  845MOL0     C13987   6.546   2.851   6.142 -0.0487 -0.2479  0.3677
  845MOL0     O13988   6.672   2.998   6.372 -0.6628 -0.1369  0.3051
  845MOL0     C13989   7.015   2.955   6.312 -0.2719 -0.1809 -0.4290
  845MOL0     C13990   7.139   2.988   6.374 -0.7935  0.2187 -0.6175
  845MOL0     N13991   7.598   3.483   6.779 -0.2092 -0.1241  0.1089
  845MOL0     N13992   7.624   3.573   6.863  0.2275 -0.0169 -0.2134
  845MOL0     C13993   8.401   3.494   7.849  0.0244 -0.0814 -0.7932
  845MOL0     C13994   8.514   3.434   7.905 -0.5008 -0.4175 -0.0889
  845MOL0     C13995   8.929   3.497   8.117  0.8676  0.9738  0.1764
  845MOL0     C13996   9.026   3.497   8.019 -0.0764  0.2506 -0.4938
  845MOL0     C13997   9.167   3.497   8.047 -0.4784  0.6578  0.0895
  845MOL0     C13998   9.204   3.505   8.186 -1.0355  0.1885 -0.3049
  845MOL0     O13999   9.336   3.504   8.220  0.1557 -0.2311 -0.7562
  845MOL0     C14000   9.446   3.492   8.133  0.3496 -0.8934  0.6553
  845MOL0     C14001   9.566   3.450   8.215 -0.5080  0.1704  0.6829
  845MOL0     C14002   9.666   3.391   8.113  0.0563  0.1472  0.0881
  845MOL0     C14003   9.745   3.492   8.025 -0.3149  0.1350 -0.8303
  845MOL0     C14004   9.828   3.572   8.119 -0.2349  0.3169  0.7585
  845MOL0     C14005   9.875   3.652   8.196  0.0121 -0.4875 -0.2103
  845MOL0     C14006   9.102   3.519   8.281 -0.7819 -0.2984  0.0436
  845MOL0     C14007   8.972   3.497   8.243 -0.1092 -0.2627 -0.0006
  845MOL0     H14008   8.718   3.711   7.870 -1.4137  2.9983 -0.0663
  845MOL0     H14009   8.521   3.800   7.778 -2.2917 -0.6334 -3.6252
  845MOL0     H14010   8.271   3.884   7.828  0.1214  1.1497 -0.8205
  845MOL0     H14011   8.331   3.862   7.675  3.0218  0.5830  1.2738
  845MOL0     H14012   8.049   3.767   7.716  0.6014 -1.0936 -0.4126
  845MOL0     H14013   8.080   3.925   7.649 -1.4580 -1.5184  1.0613
  845MOL0     H14014   8.171   3.828   7.438  2.3924 -1.6226  0.3182
  845MOL0     H14015   8.177   3.671   7.518 -3.3936 -2.1780 -0.6141
  845MOL0     H14016   7.963   3.627   7.518  2.6151 -0.8205 -0.4524
  845MOL0     H14017   7.908   3.800   7.508  1.4358  2.6251  0.0897
  845MOL0     H14018   7.978   3.789   7.274 -4.3958  0.1581  0.6177
  845MOL0     H14019   8.018   3.617   7.297 -0.8289 -1.7034 -0.1214
  845MOL0     H14020   7.803   3.562   7.340  0.3025 -0.3229  2.7449
  845MOL0     H14021   7.750   3.735   7.339  1.5127  0.3917  0.4063
  845MOL0     H14022   7.819   3.745   7.079  1.6489 -0.5909 -1.5608
  845MOL0     H14023   7.890   3.592   7.092  0.0495  0.2946  1.3866
  845MOL0     H14024   7.589   3.651   7.104  0.0683  0.4830  1.3908
  845MOL0     H14025   7.648   3.503   7.180 -1.2807  2.5249  0.9911
  845MOL0     H14026   7.721   3.313   7.026 -3.5759 -2.4693  0.8544
  845MOL0     H14027   7.716   3.194   6.716 -1.7326  1.2053 -4.8233
  845MOL0     H14028   7.618   3.141   6.857  3.8846  1.9922  2.6572
  845MOL0     H14029   7.543   3.248   6.571 -0.3469  0.9870  0.9567
  845MOL0     H14030   7.414   3.220   6.693 -0.1066 -1.3029  0.5937
  845MOL0     H14031   7.479   2.994   6.708  0.6107 -0.3442 -0.0444
  845MOL0     H14032   7.604   3.016   6.577 -0.9231 -0.6461 -0.3866
  845MOL0     H14033   7.408   2.914   6.477 -0.5481 -0.2283 -0.3730
  845MOL0     H14034   7.416   3.075   6.423 -0.3807  0.8823  1.3417
  845MOL0     H14035   7.069   3.094   6.678 -0.8806  1.9796 -1.0757
  845MOL0     H14036   6.812   3.110   6.710  0.3936  2.9521 -1.7535
  845MOL0     H14037   6.711   3.126   6.580  0.9139  0.8615 -0.1270
  845MOL0     H14038   6.749   2.958   6.643 -1.4514  1.3307  3.9426
  845MOL0     H14039   6.743   2.579   6.215  0.8049  1.6344  0.9791
  845MOL0     H14040   6.555   2.461   6.111  0.6301  0.0231  1.9995
  845MOL0     H14041   6.389   2.392   5.982  0.4006  0.1844 -0.0416
  845MOL0     H14042   6.325   2.402   6.142 -1.8907 -0.8177  0.4157
  845MOL0     H14043   6.095   2.468   6.028 -0.8620  0.4990 -1.3283
  845MOL0     H14044   6.181   2.422   5.879  0.0592  0.6286  0.2622
  845MOL0     H14045   6.142   2.238   6.124 -2.7880  0.0457  0.3828
  845MOL0     H14046   6.215   2.197   5.963 -1.2197 -1.7810 -0.6201
  845MOL0     H14047   5.913   2.260   5.987 -1.2619 -1.0204  0.1973
  845MOL0     H14048   5.997   2.179   5.857 -4.4611  1.8940 -0.3237
  845MOL0     H14049   6.000   2.067   6.129 -2.0272  0.1542  1.0085
  845MOL0     H14050   6.043   1.999   5.972 -1.1263 -1.1962 -0.7897
  845MOL0     H14051   5.826   1.937   6.089  1.0062 -1.4753 -2.5555
  845MOL0     H14052   5.770   2.112   6.051  2.8545  1.5457  1.6559
  845MOL0     H14053   5.845   1.881   5.866  0.6944  0.8940  0.3953
  845MOL0     H14054   5.822   2.052   5.817 -1.7205  4.1557  2.7895
  845MOL0     H14055   5.580   2.035   5.889  0.5370  0.3351 -0.1850
  845MOL0     H14056   5.613   1.863   5.938  4.4537 -2.5760 -0.0141
  845MOL0     H14057   6.352   2.834   6.066 -1.7830 -1.8649  0.0494
  845MOL0     H14058   6.555   2.959   6.135  1.5971 -0.4497 -2.2659
  845MOL0     H14059   7.023   2.910   6.214  3.6705  1.0535 -0.8754
  845MOL0     H14060   7.231   2.960   6.323  1.0336  0.0847  2.5010
  845MOL0     H14061   8.308   3.439   7.856 -0.8965  1.4687 -0.3851
  845MOL0     H14062   8.522   3.337   7.952  2.0012 -0.9410 -1.4195
  845MOL0     H14063   9.001   3.503   7.914  1.3065 -1.2461 -0.9685
  845MOL0     H14064   9.238   3.493   7.964  1.0272  0.0283  1.3515
  845MOL0     H14065   9.423   3.417   8.057 -1.6520 -0.8153  1.1170
  845MOL0     H14066   9.446   3.591   8.086 -0.0628  0.3813  3.1714
  845MOL0     H14067   9.537   3.369   8.282 -0.7954 -0.2892  0.0203
  845MOL0     H14068   9.607   3.533   8.272 -0.4745 -0.0767  1.0190
  845MOL0     H14069   9.611   3.320   8.050 -0.1953 -0.0637  0.5418
  845MOL0     H14070   9.746   3.336   8.164  1.3108  2.2509  0.5475
  845MOL0     H14071   9.681   3.546   7.954 -0.3951 -1.1334 -1.7416
  845MOL0     H14072   9.804   3.432   7.955 -2.1887 -1.0613 -1.4438
  845MOL0     H14073   9.921   3.733   8.250 -0.6746 -0.7698  0.8224
  845MOL0     H14074   9.123   3.524   8.388 -1.3055 -2.4034  0.2902
  845MOL0     H14075   8.901   3.498   8.325 -1.7075 -0.4171 -1.3349
  846MOL0     O14076   8.075   3.109   1.364 -0.0245  0.5734 -0.2807
  846MOL0     C14077   8.117   3.020   1.287 -0.1820  0.2564  0.0220
  846MOL0     O14078   8.052   2.981   1.171 -0.4599  0.4457 -0.3603
  846MOL0     C14079   7.971   3.069   1.110 -0.1444  0.2381 -0.3972
  846MOL0     C14080   7.967   3.052   0.966  0.6448 -0.4343  0.7192
  846MOL0     C14081   7.881   3.128   0.887  0.6944  0.6338  0.1540
  846MOL0     C14082   7.781   3.211   0.942  0.8514 -0.3500 -0.3497
  846MOL0     O14083   7.678   3.276   0.877  0.2752 -0.7068  0.8207
  846MOL0     C14084   7.686   3.255   0.725 -0.7219  1.2028 -0.3800
  846MOL0     C14085   7.595   3.356   0.646 -0.7433  0.2994  0.2737
  846MOL0     C14086   7.452   3.354   0.694  0.0707  0.0255 -0.5108
  846MOL0     C14087   7.380   3.217   0.673 -0.0002  0.5865 -0.2885
  846MOL0     C14088   7.363   3.179   0.527 -0.4083 -1.2737  0.2024
  846MOL0     C14089   7.266   3.057   0.526 -0.5073  0.1653 -0.1542
  846MOL0     C14090   7.345   2.930   0.543  0.7277 -0.6301 -0.5847
  846MOL0     C14091   7.263   2.810   0.530  0.6107  0.3066  0.3725
  846MOL0     N14092   7.157   2.797   0.631 -0.7988 -0.1241 -0.5507
  846MOL0     C14093   7.183   2.762   0.760 -1.6460  0.1932 -0.1438
  846MOL0     C14094   7.066   2.752   0.823  0.7096  0.2914  0.4841
  846MOL0     C14095   7.047   2.712   0.967 -0.2010  0.4926 -0.2739
  846MOL0     C14096   6.902   2.693   1.023 -0.3696  0.1275  0.3434
  846MOL0     C14097   6.828   2.586   0.950  0.3607 -0.6615  0.5896
  846MOL0     C14098   6.690   2.576   1.021 -0.1361  0.0783 -0.1604
  846MOL0     O14099   6.602   2.687   0.997 -0.4359  0.7484  0.1746
  846MOL0     C14100   6.480   2.652   0.944  0.5893  0.1165  0.6494
  846MOL0     C14101   6.391   2.597   1.039  1.0362 -0.6410 -0.4902
  846MOL0     C14102   6.256   2.568   1.016  0.1613 -0.1163  0.0492
  846MOL0     C14103   6.171   2.499   1.115 -0.2108  0.3266 -0.1832
  846MOL0     C14104   6.210   2.597   0.884 -0.8480  0.0329  1.9527
  846MOL0     C14105   6.069   2.570   0.846 -0.5547  0.6255 -0.9934
  846MOL0     O14106   5.970   2.641   0.911 -0.1292  0.5345 -0.1333
  846MOL0     C14107   5.838   2.614   0.871  0.1515  0.1641  0.0805
  846MOL0     C14108   5.748   2.579   0.971 -0.1546  0.2322  0.8692
  846MOL0     C14109   5.615   2.548   0.931  1.7637  0.2465 -0.1043
  846MOL0     C14110   5.587   2.546   0.800  0.4577 -0.0937  0.6555
  846MOL0     O14111   5.460   2.527   0.773  0.4632 -0.3313  0.8288
  846MOL0     C14112   5.425   2.431   0.671  0.0126  0.2224  0.3889
  846MOL0     C14113   5.287   2.476   0.610 -0.4791  0.4282 -1.0973
  846MOL0     C14114   5.309   2.575   0.501  0.5693 -1.0636  1.3005
  846MOL0     C14115   5.195   2.579   0.395 -0.2839  0.5644 -0.0038
  846MOL0     C14116   5.228   2.665   0.276  0.2927 -0.5894  0.0339
  846MOL0     C14117   5.107   2.650   0.182 -0.1018  0.2177 -0.2047
  846MOL0     C14118   5.127   2.735   0.061 -0.1704  0.1235 -0.0952
  846MOL0     C14119   5.245   2.680  -0.026  0.0590 -0.3567  0.4095
  846MOL0    Cl14120   5.248   2.510  -0.046  0.0307 -0.1698 -0.3955
  846MOL0     C14121   5.681   2.581   0.703  0.1179  0.6648 -0.5135
  846MOL0     C14122   5.806   2.621   0.742  0.8910  1.2093 -0.2975
  846MOL0     O14123   6.058   2.498   0.746  0.0357  0.5779  0.4018
  846MOL0     C14124   6.308   2.624   0.775 -0.0190 -0.7228  0.3721
  846MOL0     C14125   6.440   2.658   0.809  0.2024  0.2474 -0.2533
  846MOL0     N14126   6.972   2.805   0.732  0.2794 -0.4179 -0.1414
  846MOL0     N14127   7.026   2.823   0.615 -0.2086  0.2284  0.3789
  846MOL0     C14128   7.782   3.227   1.079 -0.6545 -0.1235 -0.2063
  846MOL0     C14129   7.873   3.154   1.161 -0.4845 -0.0951  0.6291
  846MOL0     C14130   8.255   2.968   1.324 -0.2731  0.3182 -0.1120
  846MOL0     C14131   8.318   2.864   1.251 -0.0256 -0.2015 -0.7707
  846MOL0     C14132   8.450   2.809   1.296 -0.1558 -0.3305 -0.1772
  846MOL0     C14133   8.520   2.878   1.399 -0.3947  0.1796 -0.4014
  846MOL0     O14134   8.640   2.837   1.460 -0.4746 -0.3607  0.9567
  846MOL0     C14135   8.740   2.753   1.407 -0.1733 -0.4514  0.8914
  846MOL0     C14136   8.868   2.831   1.398 -0.0468 -0.0636  0.2855
  846MOL0     C14137   8.966   2.774   1.293 -0.3978  0.7260  0.1552
  846MOL0     C14138   9.069   2.871   1.246  0.2009  0.1595 -0.0202
  846MOL0     C14139   9.155   2.915   1.357 -1.0268  0.2106  0.7050
  846MOL0     C14140   9.252   2.939   1.430 -0.5945 -0.3021  0.9204
  846MOL0     C14141   8.455   2.984   1.465 -0.0303 -0.7038 -0.0627
  846MOL0     C14142   8.323   3.029   1.432  0.1133  0.1992  0.5429
  846MOL0     H14143   8.037   2.982   0.921 -2.2214 -3.7011  0.8953
  846MOL0     H14144   7.878   3.104   0.781 -1.8649  0.1282  0.2689
  846MOL0     H14145   7.790   3.255   0.691 -0.3980 -1.7394  0.3448
  846MOL0     H14146   7.656   3.153   0.701  4.3207 -0.6309 -0.0781
  846MOL0     H14147   7.639   3.456   0.651  0.3414 -0.1710  0.7201
  846MOL0     H14148   7.603   3.335   0.539 -2.8848  0.8563 -0.0250
  846MOL0     H14149   7.450   3.392   0.796  2.0061 -0.0621 -0.4083
  846MOL0     H14150   7.397   3.432   0.640  0.0202  1.1873  1.1463
  846MOL0     H14151   7.435   3.138   0.725  2.0065  2.6256  0.9025
  846MOL0     H14152   7.286   3.222   0.728 -0.5580  0.8880 -1.2566
  846MOL0     H14153   7.326   3.269   0.477  1.1695  0.8960  2.6956
  846MOL0     H14154   7.462   3.151   0.489  0.1502 -0.0796  0.7137
  846MOL0     H14155   7.182   3.059   0.597  1.1322  0.9064  1.8526
  846MOL0     H14156   7.227   3.049   0.424  2.1009  0.0636 -1.2116
  846MOL0     H14157   7.420   2.916   0.464 -0.6751 -5.0875 -1.3863
  846MOL0     H14158   7.390   2.926   0.642 -1.8919 -0.7892  0.6746
  846MOL0     H14159   7.324   2.719   0.536  0.2663 -0.4165 -3.8066
  846MOL0     H14160   7.218   2.816   0.430  2.2628  1.9455 -0.3280
  846MOL0     H14161   7.280   2.732   0.799 -1.7624 -0.7651 -0.5455
  846MOL0     H14162   7.082   2.609   0.980  3.1476  1.8232  3.6574
  846MOL0     H14163   7.106   2.775   1.034  2.3641  1.6305 -3.3619
  846MOL0     H14164   6.845   2.785   1.008  1.0310  1.1485  1.0703
  846MOL0     H14165   6.908   2.674   1.130  0.4155  3.1019  0.9102
  846MOL0     H14166   6.882   2.491   0.952  1.7583  0.0029 -1.8329
  846MOL0     H14167   6.802   2.609   0.846 -0.4902 -1.4617  0.6126
  846MOL0     H14168   6.705   2.572   1.129  0.5861  1.6022 -0.1760
  846MOL0     H14169   6.647   2.478   0.998  3.7167 -1.8334 -0.0841
  846MOL0     H14170   6.415   2.584   1.144 -0.0148 -1.1761 -0.3071
  846MOL0     H14171   6.113   2.576   1.167 -0.4484  0.0760 -0.0716
  846MOL0     H14172   6.109   2.418   1.074  3.2088 -3.3028  1.1590
  846MOL0     H14173   6.237   2.446   1.184  0.8885  1.9987  0.1071
  846MOL0     H14174   5.802   2.585   1.065  1.0154 -0.5719  0.2706
  846MOL0     H14175   5.545   2.531   1.011  1.9024  1.0175  0.1889
  846MOL0     H14176   5.506   2.417   0.598 -0.1417 -1.7102  0.5573
  846MOL0     H14177   5.406   2.335   0.719 -0.6062  0.4615  0.6276
  846MOL0     H14178   5.245   2.386   0.564 -4.6418  1.3332  0.4967
  846MOL0     H14179   5.213   2.503   0.686  0.7812 -0.6069  0.5850
  846MOL0     H14180   5.402   2.547   0.451  0.0259  0.3665 -0.6433
  846MOL0     H14181   5.319   2.678   0.536 -1.7428 -0.8437  1.4914
  846MOL0     H14182   5.181   2.478   0.355  1.2172  0.9693 -1.7239
  846MOL0     H14183   5.106   2.612   0.447 -1.0444 -2.1860  0.6060
  846MOL0     H14184   5.329   2.644   0.239  1.0067  1.3214  0.7801
  846MOL0     H14185   5.235   2.768   0.310  1.8968 -1.4362  2.4799
  846MOL0     H14186   5.090   2.547   0.148 -1.7136  0.7753 -1.1752
  846MOL0     H14187   5.017   2.685   0.232 -0.4816  0.3676 -0.9848
  846MOL0     H14188   5.141   2.839   0.092 -0.4233 -1.3477  6.5291
  846MOL0     H14189   5.033   2.726   0.006 -0.7955 -2.7212  1.2160
  846MOL0     H14190   5.334   2.727   0.016 -2.2952  2.9617  2.1135
  846MOL0     H14191   5.245   2.714  -0.130  4.2768 -1.8306 -0.2666
  846MOL0     H14192   5.644   2.582   0.601 -4.1414 -0.3645  0.7978
  846MOL0     H14193   5.880   2.664   0.674 -1.1685  4.4613 -0.7126
  846MOL0     H14194   6.267   2.636   0.676  0.5795 -0.3776  0.1596
  846MOL0     H14195   6.509   2.685   0.730 -1.2356  0.5459 -1.4573
  846MOL0     H14196   7.704   3.278   1.134 -0.5061  1.0150 -1.0199
  846MOL0     H14197   7.874   3.159   1.269 -0.9709 -2.4194  0.7915
  846MOL0     H14198   8.261   2.826   1.167  2.6086  0.3744 -2.9657
  846MOL0     H14199   8.490   2.720   1.250 -0.2744 -1.4340  1.7573
  846MOL0     H14200   8.756   2.664   1.468  0.2490 -1.0555 -0.0881
  846MOL0     H14201   8.710   2.717   1.309  1.1638  0.1076  0.2575
  846MOL0     H14202   8.916   2.840   1.496 -1.9114  2.6775  1.0922
  846MOL0     H14203   8.859   2.935   1.363 -0.2369 -0.7268 -1.7638
  846MOL0     H14204   8.909   2.747   1.204  1.4574 -0.7348 -0.6609
  846MOL0     H14205   8.999   2.680   1.337 -1.0187 -0.6385 -2.1388
  846MOL0     H14206   9.023   2.964   1.212  1.7573  0.1083 -2.5302
  846MOL0     H14207   9.118   2.836   1.154  1.4332  2.4952 -0.3281
  846MOL0     H14208   9.339   2.954   1.489 -0.5310  1.0482  0.5192
  846MOL0     H14209   8.511   3.039   1.540  0.8482  1.5024 -2.2022
  846MOL0     H14210   8.279   3.116   1.482  0.5507  0.5167  0.3816
  847MOL0     O14211   9.249   9.226   2.254 -0.2538  0.0518  0.5233
  847MOL0     C14212   9.151   9.240   2.182 -0.2438  0.6388 -0.1055
  847MOL0     O14213   9.034   9.173   2.188  0.0382 -0.2022  0.4334
  847MOL0     C14214   9.020   9.067   2.275 -0.9838 -0.0911  0.2287
  847MOL0     C14215   8.922   9.077   2.376 -0.2009  0.5168 -0.0063
  847MOL0     C14216   8.896   8.969   2.464  0.0526 -0.6883 -0.0095
  847MOL0     C14217   8.969   8.856   2.456 -0.2333 -0.7895  0.1778
  847MOL0     O14218   8.938   8.756   2.546  0.4640  0.3762  0.4291
  847MOL0     C14219   8.904   8.629   2.486  0.5172 -0.1659 -0.3449
  847MOL0     C14220   8.877   8.532   2.605 -0.2586  0.2370 -0.4828
  847MOL0     C14221   8.807   8.400   2.571 -0.8557  0.1991  0.1208
  847MOL0     C14222   8.766   8.322   2.696 -0.0444 -0.1933 -0.1796
  847MOL0     C14223   8.673   8.212   2.669  0.2921  0.4589 -0.7545
  847MOL0     C14224   8.676   8.090   2.759 -0.7947  0.4227 -0.6061
  847MOL0     C14225   8.706   8.101   2.909  0.0330 -0.3316 -0.3941
  847MOL0     C14226   8.853   8.070   2.953  0.0897 -0.2855 -0.5535
  847MOL0     N14227   8.858   8.060   3.101  0.2610  0.1177  0.8656
  847MOL0     C14228   8.765   8.109   3.193 -0.5875 -0.3647  0.5475
  847MOL0     C14229   8.791   8.043   3.308  0.4238  0.9269  0.2451
  847MOL0     C14230   8.694   8.045   3.425 -0.3732 -0.1794 -0.0169
  847MOL0     C14231   8.606   7.921   3.436  1.2363  0.1386 -0.4963
  847MOL0     C14232   8.497   7.895   3.316  0.1874 -0.4440  0.1571
  847MOL0     C14233   8.366   7.969   3.358  0.3464 -0.4044  0.3707
  847MOL0     O14234   8.283   7.969   3.244 -0.3279  0.1490  0.3530
  847MOL0     C14235   8.298   8.059   3.142 -0.0323  0.7535  0.2456
  847MOL0     C14236   8.195   8.059   3.043  0.3316  0.2497 -0.1082
  847MOL0     C14237   8.193   8.154   2.933 -0.5306  0.2444  0.2213
  847MOL0     C14238   8.083   8.144   2.836  0.1301 -0.1948  0.9974
  847MOL0     C14239   8.300   8.249   2.931  0.1415  0.2189  0.1038
  847MOL0     C14240   8.305   8.361   2.832 -0.7347 -0.0560  0.5241
  847MOL0     O14241   8.403   8.451   2.849  0.4613  0.0450  0.0567
  847MOL0     C14242   8.402   8.554   2.764  0.2654  0.0000  0.7371
  847MOL0     C14243   8.453   8.530   2.640  0.2902 -0.6138  0.2855
  847MOL0     C14244   8.478   8.636   2.548 -0.1477  0.3851 -0.6528
  847MOL0     C14245   8.434   8.768   2.575 -1.2014  0.2985  0.0795
  847MOL0     O14246   8.474   8.859   2.483 -0.0865 -0.6904 -0.3441
  847MOL0     C14247   8.418   8.988   2.496 -0.6520 -0.1159 -0.7080
  847MOL0     C14248   8.266   9.002   2.487 -0.1461 -0.4912 -0.1618
  847MOL0     C14249   8.214   9.141   2.474 -0.5826 -0.8802  0.6297
  847MOL0     C14250   8.069   9.154   2.432  0.7337  1.1753  0.2218
  847MOL0     C14251   8.034   9.300   2.429 -0.8981  0.3418 -0.7725
  847MOL0     C14252   7.886   9.326   2.414 -0.1464  0.0164  0.0590
  847MOL0     C14253   7.852   9.448   2.499 -0.7922 -0.2285 -1.1567
  847MOL0     C14254   7.704   9.484   2.502 -0.6805  0.0078 -0.9208
  847MOL0    Cl14255   7.591   9.356   2.552 -0.6676  0.0659  0.1110
  847MOL0     C14256   8.383   8.792   2.701  0.3688  0.5557  0.7044
  847MOL0     C14257   8.372   8.685   2.799  0.4009  0.4314  0.3107
  847MOL0     O14258   8.226   8.364   2.739  0.2979  0.0061 -0.4217
  847MOL0     C14259   8.403   8.240   3.024  0.3817  0.0470 -0.0479
  847MOL0     C14260   8.398   8.153   3.128 -0.4675  0.2396  0.3039
  847MOL0     N14261   8.883   7.943   3.291 -0.3256 -0.9838  0.1004
  847MOL0     N14262   8.922   7.959   3.165  0.2362 -0.0630  0.1405
  847MOL0     C14263   9.078   8.849   2.366  0.5835 -0.5127  0.6344
  847MOL0     C14264   9.098   8.952   2.270 -0.9759  1.1258 -0.0411
  847MOL0     C14265   9.147   9.351   2.091  0.4270 -0.6111  0.5417
  847MOL0     C14266   9.033   9.397   2.028  0.1411 -0.4404  0.3333
  847MOL0     C14267   9.015   9.511   1.949  0.2352  0.1297  0.0672
  847MOL0     C14268   9.123   9.595   1.927  0.8487 -0.3185 -0.8518
  847MOL0     O14269   9.117   9.709   1.844  0.5738 -0.8283 -0.1628
  847MOL0     C14270   9.226   9.801   1.857 -0.1823  0.1503 -0.0945
  847MOL0     C14271   9.227   9.912   1.763 -0.4031 -0.9233  1.2821
  847MOL0     C14272   9.305   9.888   1.633  0.7204  0.8519  0.3969
  847MOL0     C14273   9.264   9.766   1.557 -0.3202 -0.2217  0.1995
  847MOL0     C14274   9.368   9.733   1.462  0.5277  0.1064 -0.6001
  847MOL0     C14275   9.439   9.694   1.374 -0.1738  0.6041  0.6204
  847MOL0     C14276   9.240   9.543   1.989  0.4385  0.2030  0.1159
  847MOL0     C14277   9.261   9.420   2.060 -0.4194 -0.1323  0.5240
  847MOL0     H14278   8.853   9.161   2.381  1.2482  1.7391  0.1597
  847MOL0     H14279   8.819   8.986   2.538  0.3419  1.4082 -0.1485
  847MOL0     H14280   8.814   8.636   2.425  0.1795  1.0071  0.2505
  847MOL0     H14281   8.989   8.599   2.424  0.7124  1.7218 -1.0336
  847MOL0     H14282   8.976   8.505   2.643 -0.0675  2.0121  0.4269
  847MOL0     H14283   8.830   8.584   2.689  2.1612 -2.0227  2.4898
  847MOL0     H14284   8.713   8.425   2.521 -1.3128 -1.0648  0.3185
  847MOL0     H14285   8.876   8.339   2.512 -0.5269  1.6270 -1.0338
  847MOL0     H14286   8.857   8.290   2.747  0.6217  0.4981 -0.8953
  847MOL0     H14287   8.717   8.395   2.762  2.8835  0.6661  1.2419
  847MOL0     H14288   8.574   8.255   2.687  0.5172  0.8121 -0.3412
  847MOL0     H14289   8.684   8.172   2.568 -0.3049  0.3222 -0.7720
  847MOL0     H14290   8.578   8.042   2.752  1.1879 -5.0642  2.9901
  847MOL0     H14291   8.744   8.015   2.719 -0.3743  0.5271 -0.1006
  847MOL0     H14292   8.685   8.202   2.945 -0.0448 -0.4838 -0.0098
  847MOL0     H14293   8.639   8.021   2.941  2.2377 -3.5698 -3.1349
  847MOL0     H14294   8.923   8.148   2.921  2.8238 -1.9324  0.9621
  847MOL0     H14295   8.901   7.978   2.917  0.3093 -1.5444  2.6162
  847MOL0     H14296   8.682   8.173   3.164 -0.9549 -1.3634 -0.7671
  847MOL0     H14297   8.740   8.076   3.519 -2.9296 -0.4183  1.4313
  847MOL0     H14298   8.625   8.130   3.417 -0.6992 -0.2130  1.9091
  847MOL0     H14299   8.549   7.913   3.529  2.7977 -1.3927  0.3780
  847MOL0     H14300   8.668   7.831   3.446 -0.4205 -0.8080  2.9539
  847MOL0     H14301   8.488   7.786   3.312 -1.5923 -0.3556  0.9206
  847MOL0     H14302   8.531   7.927   3.217 -0.6693  0.5733  0.1695
  847MOL0     H14303   8.384   8.063   3.411 -2.4088 -1.5411  3.6656
  847MOL0     H14304   8.315   7.914   3.438 -2.2850  1.6881  0.2566
  847MOL0     H14305   8.120   7.983   3.061 -1.2723  1.9229  0.5079
  847MOL0     H14306   8.123   8.126   2.735 -2.1829  0.7462 -0.1687
  847MOL0     H14307   8.008   8.071   2.866 -1.1065  0.2827 -0.7450
  847MOL0     H14308   8.024   8.236   2.835 -1.1506 -0.9889  1.4810
  847MOL0     H14309   8.490   8.430   2.622 -1.0483 -1.4300  1.7726
  847MOL0     H14310   8.532   8.614   2.457  4.6991 -1.5626  2.3322
  847MOL0     H14311   8.447   9.043   2.586  1.8282 -0.8906 -0.9822
  847MOL0     H14312   8.475   9.045   2.423  2.2846  1.0082  2.1947
  847MOL0     H14313   8.231   8.950   2.397 -2.5095  2.8537 -1.4193
  847MOL0     H14314   8.204   8.971   2.571 -1.8603 -2.0894 -1.8942
  847MOL0     H14315   8.289   9.189   2.411 -0.5835 -2.1763 -0.4033
  847MOL0     H14316   8.225   9.193   2.570 -0.9555  2.4970 -1.0132
  847MOL0     H14317   8.065   9.106   2.334  3.5368  0.2851  0.4562
  847MOL0     H14318   8.010   9.102   2.508  0.7103 -0.7243 -1.0291
  847MOL0     H14319   8.098   9.353   2.358 -1.4933 -0.7798 -2.1921
  847MOL0     H14320   8.056   9.334   2.531 -1.9047 -1.2676  0.0196
  847MOL0     H14321   7.851   9.339   2.311  1.1546  1.4480 -0.2302
  847MOL0     H14322   7.820   9.246   2.451 -2.0010  1.5563  0.2588
  847MOL0     H14323   7.921   9.532   2.484  3.2375 -2.3122  3.1598
  847MOL0     H14324   7.872   9.424   2.603 -0.3922  3.4334 -0.2529
  847MOL0     H14325   7.681   9.506   2.398 -1.9213 -2.1097 -1.1640
  847MOL0     H14326   7.680   9.562   2.575  0.7236 -0.4561  0.0694
  847MOL0     H14327   8.355   8.893   2.729 -0.1987  0.7655 -0.5792
  847MOL0     H14328   8.328   8.704   2.897 -1.6246  0.0436 -0.4772
  847MOL0     H14329   8.483   8.313   3.018  0.6338 -0.1671  0.6941
  847MOL0     H14330   8.481   8.150   3.198  0.9460  0.4021 -1.3012
  847MOL0     H14331   9.156   8.774   2.369 -0.3365 -1.6474 -1.4725
  847MOL0     H14332   9.171   8.939   2.190 -3.2165 -0.0437 -2.0013
  847MOL0     H14333   8.945   9.336   2.043  1.6752 -2.9629 -0.2543
  847MOL0     H14334   8.917   9.545   1.917  0.5274  1.5223  0.5896
  847MOL0     H14335   9.215   9.834   1.961 -0.5480 -0.6479  0.1320
  847MOL0     H14336   9.328   9.763   1.851  0.4314  1.8728 -1.4068
  847MOL0     H14337   9.273   9.995   1.818  0.5726 -0.8205  0.3554
  847MOL0     H14338   9.122   9.933   1.743 -0.3105  0.3192  2.0056
  847MOL0     H14339   9.413   9.896   1.651  0.6899  3.0566 -0.0551
  847MOL0     H14340   9.280   9.972   1.567  1.6733  0.9060  0.0806
  847MOL0     H14341   9.171   9.790   1.505  0.1577  1.4858  0.0589
  847MOL0     H14342   9.238   9.677   1.614  1.7921 -2.0100 -1.4415
  847MOL0     H14343   9.501   9.660   1.294  0.4777 -2.8064  2.4379
  847MOL0     H14344   9.334   9.593   1.965  1.0213 -1.3965 -1.1019
  847MOL0     H14345   9.359   9.393   2.098 -0.5668 -2.1682 -0.4236
  848MOL0     O14346   9.211   5.370  10.724 -0.8251  1.0206  0.3465
  848MOL0     C14347   9.211   5.491  10.749  0.2525  0.0460 -0.4807
  848MOL0     O14348   9.326   5.572  10.764 -0.4108  0.1219 -0.6974
  848MOL0     C14349   9.452   5.517  10.725 -0.5338 -0.5619 -1.1300
  848MOL0     C14350   9.511   5.397  10.779 -0.4911  0.3894 -0.6538
  848MOL0     C14351   9.629   5.351  10.746  0.0919  0.3618 -0.1109
  848MOL0     C14352   9.706   5.430  10.656  0.5526 -0.0418  0.3012
  848MOL0     O14353   9.826   5.382  10.606 -0.3336 -0.9871 -0.5282
  848MOL0     C14354   9.921   5.333  10.710  0.2025  0.6455 -0.0521
  848MOL0     C14355  10.056   5.368  10.662  0.3416 -0.2793 -0.2076
  848MOL0     C14356  10.159   5.257  10.706 -0.3101 -0.4849  0.2554
  848MOL0     C14357  10.307   5.291  10.661  0.0268 -0.6460  0.3672
  848MOL0     C14358  10.418   5.183  10.655  0.4778  0.6344  0.1838
  848MOL0     C14359  10.546   5.234  10.588  0.4810  0.3941  0.4487
  848MOL0     C14360  10.653   5.128  10.595 -0.1667  1.2435  0.1984
  848MOL0     C14361  10.722   5.089  10.467  0.0541 -1.0473  0.1035
  848MOL0     N14362  10.790   5.211  10.412  0.1690  0.6917 -0.3139
  848MOL0     C14363  10.878   5.292  10.479 -0.0895 -0.4552  0.4588
  848MOL0     C14364  10.897   5.389  10.383 -0.3177  0.1822 -0.4072
  848MOL0     C14365  10.972   5.522  10.424  0.7547  1.0255  0.3945
  848MOL0     C14366  11.125   5.495  10.452  0.3740  0.3592  0.2405
  848MOL0     C14367  11.215   5.611  10.477 -0.1600 -0.2814 -0.8268
  848MOL0     C14368  11.160   5.715  10.577 -0.4639  0.4628 -0.2463
  848MOL0     O14369  11.102   5.648  10.696 -0.0966 -0.4660 -0.3365
  848MOL0     C14370  11.016   5.713  10.788  0.1902 -0.4506  0.2559
  848MOL0     C14371  10.977   5.837  10.760 -0.6901 -0.7748 -0.3186
  848MOL0     C14372  10.881   5.911  10.834 -0.2408 -0.0475  0.3262
  848MOL0     C14373  10.847   6.051  10.777  0.5264  0.4297 -0.3378
  848MOL0     C14374  10.821   5.841  10.937  0.1556 -0.1326  0.5253
  848MOL0     C14375  10.697   5.891  11.009  0.1441  0.4257 -0.1599
  848MOL0     O14376  10.679   5.842  11.138  0.7796 -0.5135  0.4073
  848MOL0     C14377  10.567   5.866  11.217 -1.2484  0.3809  0.7891
  848MOL0     C14378  10.462   5.948  11.189  0.5135  0.6371 -0.2508
  848MOL0     C14379  10.353   5.948  11.280  0.1775 -0.2889 -0.2944
  848MOL0     C14380  10.347   5.861  11.392  0.1255 -0.0309 -0.0239
  848MOL0     O14381  10.238   5.875  11.478 -0.8295 -0.2880 -0.0202
  848MOL0     C14382  10.236   5.823  11.606 -0.1079 -0.2850 -0.8737
  848MOL0     C14383  10.174   5.677  11.600 -0.5470 -0.3307 -0.3190
  848MOL0     C14384  10.025   5.666  11.583  0.3111  0.4892 -0.8492
  848MOL0     C14385   9.963   5.735  11.457  0.4789  0.5376 -0.0821
  848MOL0     C14386   9.833   5.677  11.418 -0.0523  0.1531 -0.1454
  848MOL0     C14387   9.724   5.708  11.512  0.5109  0.2559 -1.2968
  848MOL0     C14388   9.595   5.697  11.439  0.4421 -0.5138 -0.2881
  848MOL0     C14389   9.487   5.721  11.550 -0.3982  0.0869 -0.3234
  848MOL0    Cl14390   9.322   5.740  11.468 -0.3878 -0.5150 -0.1091
  848MOL0     C14391  10.454   5.782  11.416 -0.4107 -0.7596  0.3703
  848MOL0     C14392  10.563   5.785  11.332 -0.1767  1.7131 -0.0630
  848MOL0     O14393  10.621   5.967  10.945  0.2267 -0.5273 -0.4807
  848MOL0     C14394  10.870   5.718  10.973  0.7856 -0.4653 -0.7959
  848MOL0     C14395  10.959   5.647  10.896  0.2323  0.5485 -0.8020
  848MOL0     N14396  10.822   5.366  10.267  0.4533  0.4989  0.4350
  848MOL0     N14397  10.762   5.259  10.291 -0.2985  0.3124 -0.2141
  848MOL0     C14398   9.656   5.548  10.600 -0.2780  0.0029 -0.4273
  848MOL0     C14399   9.528   5.588  10.632 -0.3654  0.0764  0.1789
  848MOL0     C14400   9.080   5.549  10.763 -0.5967 -0.6985  0.2155
  848MOL0     C14401   8.959   5.476  10.726 -0.6509 -1.0813 -1.0697
  848MOL0     C14402   8.833   5.543  10.730 -0.7611 -0.8896 -0.0349
  848MOL0     C14403   8.828   5.678  10.776  0.1073  0.4591  0.0982
  848MOL0     O14404   8.704   5.732  10.788 -0.1240 -0.0431 -0.3085
  848MOL0     C14405   8.697   5.878  10.755 -0.1442 -0.1190 -0.0223
  848MOL0     C14406   8.551   5.928  10.715 -0.1877 -0.0623  0.2272
  848MOL0     C14407   8.526   6.085  10.735 -1.1343  0.2311  0.0293
  848MOL0     C14408   8.603   6.167  10.633 -0.5248  0.1843 -0.0542
  848MOL0     C14409   8.742   6.187  10.675  0.5387  0.1053  0.0129
  848MOL0     C14410   8.860   6.191  10.689 -0.8203  0.3487 -0.0851
  848MOL0     C14411   8.947   5.746  10.801 -0.1202 -0.4300  0.1020
  848MOL0     C14412   9.076   5.683  10.795  0.2444 -0.0404 -0.5909
  848MOL0     H14413   9.460   5.339  10.856 -0.1892  0.0027 -0.7427
  848MOL0     H14414   9.664   5.259  10.791  0.7049  1.3639  1.5801
  848MOL0     H14415   9.893   5.367  10.810  0.8987 -3.2559  1.6662
  848MOL0     H14416   9.911   5.224  10.704  2.1632  0.2940  1.6244
  848MOL0     H14417  10.071   5.372  10.554  1.0132 -1.2130 -0.1582
  848MOL0     H14418  10.100   5.452  10.718  3.1118 -0.8335 -1.3744
  848MOL0     H14419  10.159   5.232  10.813  1.8940  0.6453  0.5818
  848MOL0     H14420  10.128   5.171  10.647  2.6144 -1.5667  0.1318
  848MOL0     H14421  10.308   5.325  10.557  2.0659  0.8982  0.8240
  848MOL0     H14422  10.344   5.375  10.721 -2.1278 -1.3344  2.8261
  848MOL0     H14423  10.435   5.128  10.748 -1.6982 -1.1892 -0.4331
  848MOL0     H14424  10.371   5.102  10.598 -0.6539  1.3552  0.0655
  848MOL0     H14425  10.528   5.257  10.483  0.7160 -4.3299 -0.8719
  848MOL0     H14426  10.584   5.322  10.640  0.3267 -0.5137  2.1949
  848MOL0     H14427  10.737   5.163  10.655 -2.2329  3.2330  2.1501
  848MOL0     H14428  10.617   5.034  10.637 -1.2364  1.3777 -0.3825
  848MOL0     H14429  10.642   5.058  10.398 -0.7192 -0.8556  0.8890
  848MOL0     H14430  10.786   5.002  10.484  0.9534 -0.5337 -0.6085
  848MOL0     H14431  10.909   5.280  10.583  1.0986  0.1746  0.1986
  848MOL0     H14432  10.956   5.591  10.340 -0.0078 -0.1008 -0.4057
  848MOL0     H14433  10.923   5.566  10.511 -1.2677  0.0566 -0.1990
  848MOL0     H14434  11.172   5.440  10.371 -0.3305  1.8795 -1.2559
  848MOL0     H14435  11.135   5.415  10.526  1.9109  1.0644  0.8497
  848MOL0     H14436  11.247   5.657  10.383 -1.9582  0.6540 -1.0120
  848MOL0     H14437  11.311   5.593  10.527  0.5418  2.7145 -0.9188
  848MOL0     H14438  11.083   5.775  10.529 -1.7668  2.4444  3.8858
  848MOL0     H14439  11.239   5.790  10.591  1.8099 -1.8708  0.4130
  848MOL0     H14440  11.024   5.888  10.677  1.4929 -0.8060  0.7966
  848MOL0     H14441  10.846   6.126  10.857 -0.5852 -2.1257  2.1918
  848MOL0     H14442  10.915   6.076  10.695 -0.6448  0.8861 -1.1961
  848MOL0     H14443  10.747   6.040  10.736 -0.2720 -0.8957  1.7754
  848MOL0     H14444  10.447   5.999  11.094 -0.0461 -0.7547 -0.9374
  848MOL0     H14445  10.266   6.010  11.260 -1.1279 -2.2429 -1.1081
  848MOL0     H14446  10.334   5.822  11.656 -1.1537  0.7216  1.3222
  848MOL0     H14447  10.175   5.891  11.666  1.3814  0.8820 -0.6070
  848MOL0     H14448  10.222   5.621  11.518 -0.1685 -1.0417  0.3730
  848MOL0     H14449  10.197   5.632  11.697 -0.6109  0.4657  0.0708
  848MOL0     H14450   9.980   5.701  11.676 -1.5690 -1.4751 -0.9465
  848MOL0     H14451  10.005   5.558  11.581  0.4124  0.4373  0.4903
  848MOL0     H14452   9.954   5.841  11.481  0.0830  0.7498 -1.1129
  848MOL0     H14453  10.037   5.719  11.378 -0.3052 -2.4921 -0.3480
  848MOL0     H14454   9.850   5.569  11.410  1.2080  0.3964 -0.9894
  848MOL0     H14455   9.805   5.708  11.317  1.7126  0.3080 -0.6094
  848MOL0     H14456   9.736   5.639  11.596  0.8597  1.0413 -0.6881
  848MOL0     H14457   9.741   5.809  11.551  3.0029 -0.7213  0.3989
  848MOL0     H14458   9.567   5.613  11.375 -0.2524  0.9793 -2.0187
  848MOL0     H14459   9.590   5.785  11.374 -1.3739  0.3984  0.9967
  848MOL0     H14460   9.509   5.806  11.616  0.8136 -1.0004  0.7341
  848MOL0     H14461   9.488   5.628  11.607 -2.7431 -0.7736 -1.5582
  848MOL0     H14462  10.467   5.715  11.500  0.5363 -0.3201  0.5870
  848MOL0     H14463  10.656   5.731  11.349 -0.1751  0.6272 -2.9719
  848MOL0     H14464  10.821   5.676  11.060  1.3720 -0.0519 -0.2645
  848MOL0     H14465  10.980   5.545  10.925  0.1365  2.0582  6.2828
  848MOL0     H14466   9.720   5.595  10.526  0.6233 -1.6789 -0.7814
  848MOL0     H14467   9.488   5.678  10.587  2.4469  2.1061  1.4221
  848MOL0     H14468   8.966   5.368  10.717 -0.6573 -1.1491 -0.3290
  848MOL0     H14469   8.750   5.478  10.704  0.1443 -0.8793 -3.4555
  848MOL0     H14470   8.737   5.951  10.827 -0.1013  0.3284 -0.4972
  848MOL0     H14471   8.757   5.889  10.664 -1.0800 -2.5368 -1.0067
  848MOL0     H14472   8.477   5.878  10.777 -0.5998 -0.5700 -0.6566
  848MOL0     H14473   8.526   5.898  10.613  0.1964  0.1643  0.0620
  848MOL0     H14474   8.560   6.110  10.836  1.3981 -2.4469 -0.0514
  848MOL0     H14475   8.418   6.098  10.727 -1.4824 -2.3188  0.0089
  848MOL0     H14476   8.545   6.259  10.621  0.7794  0.9509 -0.6503
  848MOL0     H14477   8.599   6.120  10.534 -0.5881 -1.9783  0.9136
  848MOL0     H14478   8.962   6.210  10.717 -0.2859 -1.7843 -0.4377
  848MOL0     H14479   8.945   5.848  10.836 -2.1294  0.1545 -1.4852
  848MOL0     H14480   9.167   5.739  10.816  0.0943  0.4003 -1.0876
  849MOL0     O14481   5.622   3.737   9.843 -0.0538  0.2113  0.3038
  849MOL0     C14482   5.603   3.809   9.749  0.4209 -0.8771 -0.3490
  849MOL0     O14483   5.481   3.846   9.699  0.1453 -0.3806  0.1192
  849MOL0     C14484   5.362   3.775   9.750  0.0364 -0.1806  0.4831
  849MOL0     C14485   5.279   3.848   9.828 -0.1415 -0.6030 -0.8927
  849MOL0     C14486   5.148   3.800   9.868  0.5984 -0.0172  0.0813
  849MOL0     C14487   5.104   3.674   9.812  0.1141  0.2641  0.4932
  849MOL0     O14488   4.969   3.647   9.822 -0.3692  0.0333 -0.2082
  849MOL0     C14489   4.916   3.529   9.766 -0.6663  0.2369 -0.2419
  849MOL0     C14490   4.778   3.551   9.708 -0.8056  0.6045 -0.3837
  849MOL0     C14491   4.671   3.610   9.799 -0.1049 -0.3896 -0.1342
  849MOL0     C14492   4.648   3.542   9.929 -0.2589 -0.1466 -0.3843
  849MOL0     C14493   4.531   3.611  10.004 -1.2630  0.7725  0.3384
  849MOL0     C14494   4.517   3.552  10.143 -0.0205 -0.1165 -0.1622
  849MOL0     C14495   4.449   3.414  10.158 -0.5597  0.9470  0.7008
  849MOL0     C14496   4.431   3.371  10.304 -0.4521  0.3322 -0.0914
  849MOL0     N14497   4.371   3.237  10.308 -0.3383  0.0450 -0.4729
  849MOL0     C14498   4.280   3.181  10.221  0.2689 -0.2008  0.4570
  849MOL0     C14499   4.267   3.056  10.252  0.2315 -0.8703 -0.2824
  849MOL0     C14500   4.180   2.956  10.184 -0.2696 -0.2897  0.0258
  849MOL0     C14501   4.041   2.972  10.244  0.1749 -0.1877 -0.3021
  849MOL0     C14502   3.959   3.079  10.169  0.0841  0.4578  0.1271
  849MOL0     C14503   3.809   3.034  10.155  0.0425  0.1050 -0.4981
  849MOL0     O14504   3.731   3.036  10.273  0.6612 -0.3770 -0.7214
  849MOL0     C14505   3.600   3.059  10.262 -0.2050 -1.5127 -1.0977
  849MOL0     C14506   3.532   2.990  10.162  0.1573 -0.1524 -0.3739
  849MOL0     C14507   3.398   3.006  10.139  0.5531 -0.6100 -0.4355
  849MOL0     C14508   3.341   2.957  10.009  0.0285  0.8146  0.6903
  849MOL0     C14509   3.321   3.094  10.221 -0.3567 -0.3070  0.2141
  849MOL0     C14510   3.179   3.113  10.207 -0.0113  0.0918 -0.0414
  849MOL0     O14511   3.150   3.239  10.257 -0.1027  0.8173 -0.4536
  849MOL0     C14512   3.018   3.280  10.269 -0.9845  0.9114  0.9918
  849MOL0     C14513   2.984   3.338  10.382  0.1978  0.0733 -0.3746
  849MOL0     C14514   2.850   3.375  10.399  1.3494  0.4352 -0.6044
  849MOL0     C14515   2.753   3.360  10.297  0.0295 -0.1291 -0.5341
  849MOL0     O14516   2.631   3.411  10.328  0.0323 -0.0201 -0.2698
  849MOL0     C14517   2.543   3.312  10.377 -0.1519 -0.1017 -0.2279
  849MOL0     C14518   2.422   3.371  10.441 -0.2990  0.2242  0.1647
  849MOL0     C14519   2.316   3.260  10.473 -0.1579 -0.3608 -0.2218
  849MOL0     C14520   2.180   3.329  10.509  0.4379  1.0347 -0.3546
  849MOL0     C14521   2.087   3.225  10.565  0.2549  0.0776 -0.0770
  849MOL0     C14522   1.951   3.276  10.622 -0.5103 -0.6242 -0.4959
  849MOL0     C14523   1.855   3.159  10.657 -0.1901 -0.1257  0.2614
  849MOL0     C14524   1.796   3.079  10.542  0.2260 -0.2218  0.5427
  849MOL0    Cl14525   1.679   3.178  10.456 -0.2169 -0.1464 -0.2419
  849MOL0     C14526   2.793   3.305  10.181  0.9354 -0.8088  0.1596
  849MOL0     C14527   2.923   3.266  10.160  0.1814  1.6109 -0.7869
  849MOL0     O14528   3.095   3.022  10.176  0.1109 -0.0153 -0.2089
  849MOL0     C14529   3.393   3.166  10.326  0.2376 -0.5868  0.5479
  849MOL0     C14530   3.529   3.144  10.351 -0.2150 -0.0166  0.4202
  849MOL0     N14531   4.340   3.029  10.361 -0.1867 -0.3198 -0.4784
  849MOL0     N14532   4.402   3.136  10.391  0.4169  0.1920  0.2888
  849MOL0     C14533   5.191   3.596   9.736 -0.8596 -0.0165  0.5007
  849MOL0     C14534   5.314   3.652   9.701  1.1628 -0.1299 -0.2418
  849MOL0     C14535   5.724   3.879   9.708 -0.5829  0.2371  0.5198
  849MOL0     C14536   5.718   3.983   9.622  0.4529  0.1888  0.1411
  849MOL0     C14537   5.833   4.055   9.581 -0.1986  0.1224 -0.7751
  849MOL0     C14538   5.958   4.014   9.630  0.3159  0.5420 -0.3477
  849MOL0     O14539   6.079   4.072   9.617 -0.4009  0.1735 -0.3581
  849MOL0     C14540   6.093   4.182   9.526 -0.3773 -0.1049  0.2202
  849MOL0     C14541   6.238   4.185   9.476  0.3256  0.3457  0.0064
  849MOL0     C14542   6.359   4.188   9.575  0.3520  0.7708  0.1356
  849MOL0     C14543   6.492   4.170   9.493  0.2153 -0.4925  0.1839
  849MOL0     C14544   6.596   4.151   9.595 -0.2475  0.0919 -0.0421
  849MOL0     C14545   6.666   4.140   9.690 -0.2378  0.3720 -0.0690
  849MOL0     C14546   5.965   3.904   9.717 -1.0724  0.2288  0.4017
  849MOL0     C14547   5.855   3.835   9.759  0.4321 -0.1414  0.2426
  849MOL0     H14548   5.304   3.949   9.858  2.6070 -2.0513  2.3561
  849MOL0     H14549   5.084   3.870   9.922  0.8328 -1.5886  2.5035
  849MOL0     H14550   4.968   3.498   9.675 -0.3817  3.8519 -1.4973
  849MOL0     H14551   4.914   3.447   9.838 -2.1519  0.5546  0.1124
  849MOL0     H14552   4.795   3.620   9.625 -2.1305  0.1205 -1.0751
  849MOL0     H14553   4.741   3.453   9.679 -0.5308  0.6925 -1.0554
  849MOL0     H14554   4.705   3.710   9.826 -0.2725 -0.6016  0.8941
  849MOL0     H14555   4.571   3.608   9.755 -1.4719  2.7973  2.4272
  849MOL0     H14556   4.630   3.435   9.916 -0.3827 -0.3688  1.3286
  849MOL0     H14557   4.745   3.544   9.979 -0.0845 -1.8734 -0.5923
  849MOL0     H14558   4.539   3.719  10.017 -0.1568  0.7012  0.3342
  849MOL0     H14559   4.444   3.588   9.940 -1.8251  1.3538  0.8799
  849MOL0     H14560   4.617   3.551  10.188  0.6171  4.3597 -1.0066
  849MOL0     H14561   4.449   3.618  10.198 -3.0591 -1.6700 -1.8276
  849MOL0     H14562   4.353   3.432  10.108  1.4287  2.8664 -2.8195
  849MOL0     H14563   4.501   3.342  10.093 -1.7641  0.2153  0.5141
  849MOL0     H14564   4.362   3.448  10.342 -1.6975  0.4779 -2.4425
  849MOL0     H14565   4.521   3.373  10.365 -1.8036  2.0341  1.9997
  849MOL0     H14566   4.238   3.234  10.136 -1.4834  0.2495  1.5547
  849MOL0     H14567   4.173   2.962  10.075 -1.5008 -2.7200 -0.0986
  849MOL0     H14568   4.212   2.853  10.203 -0.5363 -0.8703 -2.3119
  849MOL0     H14569   4.045   2.999  10.350  1.3019  3.0875 -1.0467
  849MOL0     H14570   3.978   2.884  10.235 -3.5082  2.1776  0.3546
  849MOL0     H14571   4.016   3.088  10.076  3.0288 -0.9140  1.6457
  849MOL0     H14572   3.970   3.178  10.214 -1.3594  0.4275  0.5814
  849MOL0     H14573   3.800   2.932  10.117  1.2785  0.4530 -1.8021
  849MOL0     H14574   3.763   3.095  10.078 -0.2203 -0.5387 -0.8558
  849MOL0     H14575   3.587   2.927  10.092 -0.0123 -0.2591 -0.4119
  849MOL0     H14576   3.312   3.041   9.946 -0.5072  0.3666  0.3293
  849MOL0     H14577   3.410   2.887   9.960  0.8014  0.8101  1.7492
  849MOL0     H14578   3.249   2.902  10.030  0.4748  0.8417  3.0214
  849MOL0     H14579   3.058   3.360  10.459 -0.5669  1.9710 -0.1422
  849MOL0     H14580   2.818   3.428  10.488  0.4643  1.4863 -1.5257
  849MOL0     H14581   2.502   3.249  10.297  0.7999 -2.7066  1.2291
  849MOL0     H14582   2.591   3.253  10.455  0.4202  1.1420  0.3917
  849MOL0     H14583   2.456   3.421  10.532  0.0841 -0.0884  0.1968
  849MOL0     H14584   2.375   3.437  10.367  0.4347 -1.8764 -2.3045
  849MOL0     H14585   2.343   3.209  10.566 -0.1572 -0.8456 -0.4853
  849MOL0     H14586   2.307   3.193  10.387 -0.8096  1.0315 -1.2719
  849MOL0     H14587   2.178   3.404  10.589  2.0253 -0.8299  1.5634
  849MOL0     H14588   2.144   3.371  10.415 -1.1635 -0.3157 -0.3900
  849MOL0     H14589   2.130   3.182  10.656 -2.5089  0.8087  1.6931
  849MOL0     H14590   2.062   3.150  10.490  0.4511  1.3238 -1.4389
  849MOL0     H14591   1.957   3.330  10.717 -0.8585  2.2836 -1.9939
  849MOL0     H14592   1.912   3.341  10.543  2.1207 -0.4487 -1.7636
  849MOL0     H14593   1.770   3.207  10.707 -0.9615 -1.1792 -0.0157
  849MOL0     H14594   1.902   3.090  10.728  2.4233  1.0153 -0.2308
  849MOL0     H14595   1.752   2.986  10.579 -1.6715  0.4770  0.1874
  849MOL0     H14596   1.876   3.044  10.476 -0.3812 -3.0493  1.1769
  849MOL0     H14597   2.723   3.305  10.098  2.5136 -0.1378 -1.2205
  849MOL0     H14598   2.944   3.211  10.069 -0.1993 -0.0946  0.1136
  849MOL0     H14599   3.343   3.239  10.389  0.4446 -0.5982  0.7258
  849MOL0     H14600   3.587   3.184  10.433 -0.9340 -1.5634  1.7270
  849MOL0     H14601   5.169   3.498   9.695 -0.5665  0.5967 -1.2127
  849MOL0     H14602   5.377   3.600   9.629  0.2764  1.1516 -2.0133
  849MOL0     H14603   5.622   4.026   9.596 -0.7429 -0.8120  2.5600
  849MOL0     H14604   5.820   4.150   9.530  0.1404 -0.1503 -1.3911
  849MOL0     H14605   6.042   4.172   9.430  0.6853  0.3177 -0.4037
  849MOL0     H14606   6.061   4.271   9.580  1.4407 -0.2101  1.5605
  849MOL0     H14607   6.246   4.276   9.416 -0.6902 -0.6856 -1.7735
  849MOL0     H14608   6.255   4.092   9.421  5.2557  0.5741  0.7395
  849MOL0     H14609   6.355   4.105   9.647 -0.0767  0.5981 -0.0812
  849MOL0     H14610   6.365   4.278   9.636  1.4494  0.7150  0.1371
  849MOL0     H14611   6.511   4.263   9.438 -3.2206 -0.7554 -1.7159
  849MOL0     H14612   6.486   4.077   9.435  2.1275 -0.3566 -0.3276
  849MOL0     H14613   6.720   4.122   9.781  1.4220 -1.2953 -1.2878
  849MOL0     H14614   6.060   3.876   9.763 -1.2452 -0.2168  0.4994
  849MOL0     H14615   5.860   3.759   9.837 -2.2299 -2.5654 -1.7334
  850MOL0     O14616   4.579  10.118   6.338 -0.0696  0.1341 -0.1443
  850MOL0     C14617   4.667  10.201   6.316 -0.9819  0.5372 -0.6477
  850MOL0     O14618   4.650  10.333   6.303 -1.1278  0.0408 -0.0376
  850MOL0     C14619   4.536  10.400   6.306 -0.9989 -0.2265 -0.3050
  850MOL0     C14620   4.557  10.543   6.326 -0.2538 -0.1261 -0.0198
  850MOL0     C14621   4.449  10.629   6.362  0.1193 -0.2141  0.0183
  850MOL0     C14622   4.322  10.571   6.373  0.9934 -0.4144 -0.0091
  850MOL0     O14623   4.209  10.640   6.412  0.0843  0.1644 -0.4248
  850MOL0     C14624   4.197  10.776   6.361 -0.4429  1.2373  0.0212
  850MOL0     C14625   4.111  10.843   6.467 -0.6234 -0.2900 -0.5375
  850MOL0     C14626   4.083  10.988   6.443 -0.0456 -0.3940 -0.3333
  850MOL0     C14627   4.190  11.085   6.499 -0.1998  0.0702 -0.4504
  850MOL0     C14628   4.159  11.232   6.455  0.4002  0.2719 -0.4258
  850MOL0     C14629   4.287  11.326   6.482 -0.6336 -0.1548 -0.1505
  850MOL0     C14630   4.280  11.479   6.458 -0.3885 -0.9896  0.5373
  850MOL0     C14631   4.303  11.512   6.309  1.1763  0.2298  0.5905
  850MOL0     N14632   4.313  11.659   6.280 -0.2756 -0.1834 -0.1723
  850MOL0     C14633   4.205  11.728   6.220 -0.3441  1.2624  0.7869
  850MOL0     C14634   4.254  11.850   6.197  0.6378 -0.1372  0.2261
  850MOL0     C14635   4.184  11.972   6.147  0.3193 -0.2551 -1.1090
  850MOL0     C14636   4.111  11.940   6.023  0.6795 -0.4401  0.1250
  850MOL0     C14637   4.039  12.077   5.989  0.0333 -0.1030 -0.0162
  850MOL0     C14638   3.960  12.075   5.852  0.0220 -0.0182  0.5152
  850MOL0     O14639   3.918  12.202   5.807 -0.2100  0.4717 -0.1265
  850MOL0     C14640   3.827  12.277   5.876  1.0844  0.4659  0.8959
  850MOL0     C14641   3.858  12.400   5.923 -0.2116  0.3246 -0.3151
  850MOL0     C14642   3.769  12.478   5.995  0.6340 -0.0279 -0.8964
  850MOL0     C14643   3.809  12.618   6.045  0.7038 -0.0706 -0.2527
  850MOL0     C14644   3.635  12.427   6.013  0.0044 -0.0141 -0.2169
  850MOL0     C14645   3.526  12.492   6.085  0.7915 -0.0351 -1.3509
  850MOL0     O14646   3.432  12.419   6.149 -0.9771 -0.2605 -0.4655
  850MOL0     C14647   3.341  12.474   6.227 -0.3101  0.3076  0.4924
  850MOL0     C14648   3.212  12.502   6.175  0.2441 -0.0977  0.4273
  850MOL0     C14649   3.110  12.544   6.263  0.4345  0.9522 -0.6659
  850MOL0     C14650   3.128  12.577   6.398 -0.6955  0.0518 -0.0048
  850MOL0     O14651   3.036  12.624   6.494 -0.4832 -0.1090 -0.5337
  850MOL0     C14652   2.902  12.602   6.465  0.7800 -0.4424 -0.6908
  850MOL0     C14653   2.821  12.629   6.596  0.2782 -0.0643 -1.2492
  850MOL0     C14654   2.866  12.752   6.673  0.4004  0.3805  0.3204
  850MOL0     C14655   2.763  12.771   6.788 -0.7826 -0.3677  0.0386
  850MOL0     C14656   2.795  12.903   6.865  0.0310  0.3380  0.1069
  850MOL0     C14657   2.690  12.943   6.969  0.5889  0.7016 -0.3950
  850MOL0     C14658   2.751  13.058   7.041  0.1974 -1.0172 -0.5666
  850MOL0     C14659   2.649  13.132   7.132 -0.1611 -0.7602 -1.0258
  850MOL0    Cl14660   2.504  13.166   7.027 -0.3912 -0.1867  0.3308
  850MOL0     C14661   3.262  12.559   6.438  0.7216 -0.0796 -0.2620
  850MOL0     C14662   3.366  12.515   6.359  0.4114  0.1575 -0.1281
  850MOL0     O14663   3.531  12.617   6.099 -0.0374 -0.4885  0.8388
  850MOL0     C14664   3.601  12.300   5.959 -1.0335  0.1529  0.5197
  850MOL0     C14665   3.702  12.232   5.901  0.7689 -0.1299  0.5518
  850MOL0     N14666   4.385  11.861   6.236 -0.4500  0.3374 -0.2531
  850MOL0     N14667   4.423  11.742   6.279 -0.7389  0.9735 -0.0834
  850MOL0     C14668   4.305  10.436   6.343  1.2846 -1.0570  0.7935
  850MOL0     C14669   4.405  10.353   6.301 -0.1053  0.4744 -0.3229
  850MOL0     C14670   4.807  10.149   6.336  0.4872  0.3949  0.5265
  850MOL0     C14671   4.846  10.021   6.312 -0.6755  0.1140 -0.0948
  850MOL0     C14672   4.977   9.976   6.337 -0.0650  0.4803 -0.0632
  850MOL0     C14673   5.073  10.057   6.393  1.0333  0.2316 -0.0128
  850MOL0     O14674   5.197  10.011   6.421  0.5245  0.3954 -0.3916
  850MOL0     C14675   5.282  10.006   6.307 -0.4643  0.0531 -0.5458
  850MOL0     C14676   5.341  10.145   6.282  0.5001  0.3528 -0.0165
  850MOL0     C14677   5.427  10.209   6.395  0.5719  0.2312  0.1959
  850MOL0     C14678   5.461  10.355   6.354  0.3644  0.0020 -0.5184
  850MOL0     C14679   5.385  10.450   6.445 -0.5505  0.6211  0.3899
  850MOL0     C14680   5.340  10.537   6.523 -1.0666 -0.0868 -1.3830
  850MOL0     C14681   5.044  10.193   6.416 -0.3515 -0.4152 -0.1610
  850MOL0     C14682   4.906  10.241   6.388 -0.5619  0.7832 -0.0883
  850MOL0     H14683   4.657  10.583   6.316 -0.4512  0.7093  1.0855
  850MOL0     H14684   4.471  10.732   6.389  2.9223 -0.6824 -0.2006
  850MOL0     H14685   4.292  10.827   6.342  1.1163 -1.6565 -0.6767
  850MOL0     H14686   4.139  10.772   6.268 -1.4944  0.7106  0.6797
  850MOL0     H14687   4.020  10.782   6.477  0.2585 -1.6960 -0.8873
  850MOL0     H14688   4.170  10.838   6.559 -3.5295  0.1946  1.5182
  850MOL0     H14689   4.063  11.016   6.340  0.1778  0.1635 -0.2300
  850MOL0     H14690   3.991  11.018   6.493 -0.4169 -0.4502 -0.9847
  850MOL0     H14691   4.188  11.084   6.608 -0.9751 -0.9984 -0.4654
  850MOL0     H14692   4.288  11.056   6.462 -0.5058  0.7582 -1.8978
  850MOL0     H14693   4.142  11.244   6.347 -0.5233  0.6559 -0.2466
  850MOL0     H14694   4.083  11.272   6.523 -1.1202 -3.2896  0.1981
  850MOL0     H14695   4.303  11.316   6.590 -0.6954  1.6217  0.0498
  850MOL0     H14696   4.373  11.285   6.428  0.0594 -2.8711  2.7066
  850MOL0     H14697   4.184  11.516   6.497 -0.1170  1.4035 -0.8645
  850MOL0     H14698   4.357  11.536   6.510 -0.1343 -0.5783 -0.2765
  850MOL0     H14699   4.226  11.461   6.252  1.7590 -0.8822  0.7746
  850MOL0     H14700   4.399  11.470   6.277  0.9243  0.4291 -0.4517
  850MOL0     H14701   4.104  11.692   6.207  0.5230 -1.5731  1.2746
  850MOL0     H14702   4.122  12.010   6.228  1.8853 -0.0842  0.0513
  850MOL0     H14703   4.249  12.059   6.130 -0.9361  0.8536 -0.4273
  850MOL0     H14704   4.037  11.860   6.037  0.1293 -0.3300 -1.8856
  850MOL0     H14705   4.181  11.915   5.944  2.5220 -1.0125  1.8590
  850MOL0     H14706   4.110  12.159   5.973 -1.9123  1.7628  0.4787
  850MOL0     H14707   3.975  12.115   6.070  1.3871  1.8464  0.2233
  850MOL0     H14708   3.877  12.004   5.863 -0.7078 -0.0940 -3.8748
  850MOL0     H14709   4.025  12.031   5.775 -1.1576  0.7673 -0.9747
  850MOL0     H14710   3.958  12.421   5.888  0.6187 -2.7308 -0.0439
  850MOL0     H14711   3.905  12.646   6.001  1.0252 -0.1648  0.3712
  850MOL0     H14712   3.743  12.698   6.011  1.9234  0.5057 -1.3392
  850MOL0     H14713   3.839  12.625   6.150  2.0708 -0.4035 -0.6050
  850MOL0     H14714   3.194  12.496   6.068 -1.6827  3.7132  0.3527
  850MOL0     H14715   3.012  12.549   6.219  0.0118 -2.2165 -0.3162
  850MOL0     H14716   2.857  12.669   6.390  1.7959 -0.2715 -1.1642
  850MOL0     H14717   2.885  12.496   6.444  1.0173 -1.6075  3.9926
  850MOL0     H14718   2.714  12.632   6.576 -0.5185 -0.8403  2.1555
  850MOL0     H14719   2.842  12.543   6.661  1.3599 -1.3901 -3.2501
  850MOL0     H14720   2.868  12.846   6.618  1.8335  0.9419  1.2751
  850MOL0     H14721   2.968  12.741   6.711  0.4611 -0.1646  0.0178
  850MOL0     H14722   2.658  12.779   6.757 -0.7521 -1.1377 -0.2751
  850MOL0     H14723   2.769  12.680   6.847 -1.2925 -1.0457 -0.9272
  850MOL0     H14724   2.808  12.992   6.802 -2.5659  2.3477  2.1854
  850MOL0     H14725   2.890  12.894   6.918 -1.1575  1.0364  2.4787
  850MOL0     H14726   2.595  12.962   6.920  0.6747  0.7741 -0.5345
  850MOL0     H14727   2.682  12.858   7.038 -1.2140  0.2728 -1.1028
  850MOL0     H14728   2.801  13.126   6.971  0.9213 -1.8877 -0.9129
  850MOL0     H14729   2.828  13.018   7.108 -1.3414 -0.6692  1.4889
  850MOL0     H14730   2.685  13.230   7.164  0.9966 -0.9040 -1.8455
  850MOL0     H14731   2.628  13.076   7.223  2.7347 -0.6331 -0.1975
  850MOL0     H14732   3.298  12.591   6.535 -1.6460  0.2693  0.5506
  850MOL0     H14733   3.468  12.519   6.397  0.2930  0.9107  0.1305
  850MOL0     H14734   3.501  12.259   5.969 -1.9538  2.4334  1.4074
  850MOL0     H14735   3.685  12.136   5.854  0.9511  0.1741 -0.1441
  850MOL0     H14736   4.208  10.388   6.334 -0.3741  2.0729  0.7148
  850MOL0     H14737   4.382  10.249   6.283  2.0467 -0.2088  0.5415
  850MOL0     H14738   4.784   9.942   6.270  1.0195  0.1064 -2.8770
  850MOL0     H14739   5.003   9.875   6.308 -0.5877  0.1571  0.5932
  850MOL0     H14740   5.362   9.931   6.314  0.4234  0.8804 -1.5277
  850MOL0     H14741   5.228   9.987   6.214  0.1304  2.7418 -1.4991
  850MOL0     H14742   5.258  10.214   6.261 -0.0728 -0.6676 -1.2632
  850MOL0     H14743   5.398  10.137   6.189 -1.0429 -0.2173 -0.9566
  850MOL0     H14744   5.517  10.148   6.403  0.0771 -0.6178 -0.5824
  850MOL0     H14745   5.372  10.195   6.489 -0.0626 -1.9451 -0.4498
  850MOL0     H14746   5.447  10.377   6.248 -1.7039  0.0265 -0.2687
  850MOL0     H14747   5.568  10.378   6.364  0.1308  0.6958  0.5259
  850MOL0     H14748   5.299  10.612   6.587 -0.1715 -0.9827  0.3211
  850MOL0     H14749   5.126  10.250   6.457 -1.6827  1.0102  0.6548
  850MOL0     H14750   4.902  10.350   6.390 -0.4244  0.9289 -2.9651
  851MOL0     O14751   6.030   1.877   0.372  0.4106 -0.1712  0.8049
  851MOL0     C14752   6.083   1.790   0.308  0.0072  0.0990  0.3712
  851MOL0     O14753   6.027   1.704   0.220  0.4588  0.5514 -0.2784
  851MOL0     C14754   5.889   1.715   0.214 -0.3402  0.6252 -0.6501
  851MOL0     C14755   5.810   1.626   0.288 -0.8737 -0.6260  0.5507
  851MOL0     C14756   5.668   1.638   0.283 -0.0691  0.7628 -0.0414
  851MOL0     C14757   5.605   1.735   0.202 -0.5092 -0.6929 -0.0764
  851MOL0     O14758   5.470   1.740   0.217 -0.3867 -0.5495  0.5732
  851MOL0     C14759   5.383   1.787   0.116  0.1696 -1.0981 -1.1131
  851MOL0     C14760   5.235   1.808   0.166 -0.5568  0.8608  0.6420
  851MOL0     C14761   5.168   1.670   0.200 -0.0762 -0.2292  1.1262
  851MOL0     C14762   5.030   1.692   0.257 -0.3766  0.6867 -0.3628
  851MOL0     C14763   4.953   1.559   0.262 -1.4687 -0.8250 -0.7014
  851MOL0     C14764   4.815   1.576   0.319  0.4627  0.1411 -0.0912
  851MOL0     C14765   4.806   1.599   0.473  0.5486  0.2354 -0.0790
  851MOL0     C14766   4.670   1.655   0.522 -0.3311 -0.7370  0.4594
  851MOL0     N14767   4.558   1.576   0.497 -0.1844  0.5149  0.3303
  851MOL0     C14768   4.465   1.591   0.404 -0.5401 -0.6072 -0.0915
  851MOL0     C14769   4.374   1.491   0.431  0.4366 -0.0822 -0.5113
  851MOL0     C14770   4.232   1.468   0.377 -0.4787  0.0176 -0.0184
  851MOL0     C14771   4.232   1.464   0.218  0.9175 -0.2942  0.0501
  851MOL0     C14772   4.310   1.338   0.166 -0.2916  0.2543 -0.2661
  851MOL0     C14773   4.282   1.314   0.013 -0.7014 -0.1015 -1.2584
  851MOL0     O14774   4.371   1.400  -0.067  0.3130 -0.1940 -0.3132
  851MOL0     C14775   4.443   1.331  -0.159 -0.7815 -0.0356 -0.1216
  851MOL0     C14776   4.377   1.242  -0.242  0.0031  0.1851 -0.0249
  851MOL0     C14777   4.444   1.154  -0.326  0.2440 -0.3614 -0.4455
  851MOL0     C14778   4.360   1.063  -0.409 -0.0469  0.0066 -0.4348
  851MOL0     C14779   4.582   1.144  -0.313 -0.3482 -0.8464  0.8042
  851MOL0     C14780   4.669   1.038  -0.382  0.0666 -0.3252 -0.7144
  851MOL0     O14781   4.803   1.049  -0.386 -0.1120 -0.3705 -0.6467
  851MOL0     C14782   4.874   0.937  -0.407 -1.4388  0.7131  0.0596
  851MOL0     C14783   4.961   0.899  -0.305  0.5315 -0.1187 -0.6503
  851MOL0     C14784   5.048   0.792  -0.317 -0.3851  0.0476  0.4503
  851MOL0     C14785   5.036   0.712  -0.439  0.0305  0.0055  0.7786
  851MOL0     O14786   5.109   0.605  -0.486 -0.0221  0.0998 -0.3024
  851MOL0     C14787   5.239   0.599  -0.426  0.3399  0.3225  0.5212
  851MOL0     C14788   5.321   0.505  -0.512  0.0397 -0.0525 -0.1051
  851MOL0     C14789   5.467   0.500  -0.467 -0.3863 -0.6337  0.7874
  851MOL0     C14790   5.553   0.387  -0.551 -0.5560  0.0096  0.0183
  851MOL0     C14791   5.689   0.355  -0.493 -0.1503 -0.3107  0.0349
  851MOL0     C14792   5.765   0.241  -0.554  0.4832 -0.0954 -0.1883
  851MOL0     C14793   5.889   0.197  -0.466 -0.2018  0.3547  0.1633
  851MOL0     C14794   5.969   0.088  -0.538 -0.4745 -0.2068 -1.1625
  851MOL0    Cl14795   6.113   0.039  -0.435  0.2165  0.6847  0.2699
  851MOL0     C14796   4.951   0.755  -0.548 -1.8066 -0.3064 -0.1575
  851MOL0     C14797   4.874   0.864  -0.527 -0.0156  0.0169  1.0547
  851MOL0     O14798   4.609   0.932  -0.405  0.4835  0.6701  0.3151
  851MOL0     C14799   4.659   1.229  -0.230  1.0139 -0.1518  0.0293
  851MOL0     C14800   4.585   1.334  -0.156 -1.0187  0.4612  0.5801
  851MOL0     N14801   4.424   1.409   0.536 -0.0742  0.4391 -0.2505
  851MOL0     N14802   4.532   1.469   0.577 -0.3376 -0.1187  0.4167
  851MOL0     C14803   5.682   1.806   0.108  0.3099 -0.1192  0.4430
  851MOL0     C14804   5.818   1.788   0.118 -0.3384  0.4851 -0.7822
  851MOL0     C14805   6.227   1.781   0.342  1.1157  0.0504  0.8129
  851MOL0     C14806   6.304   1.874   0.412  0.2889  0.7280 -0.3316
  851MOL0     C14807   6.436   1.845   0.440 -0.2299  0.6213  0.3921
  851MOL0     C14808   6.502   1.730   0.402 -0.1171 -0.2281 -0.3432
  851MOL0     O14809   6.638   1.709   0.406 -0.4675  0.0266 -0.3178
  851MOL0     C14810   6.725   1.797   0.469  0.0283 -0.6722 -0.7794
  851MOL0     C14811   6.873   1.740   0.468  0.4985 -0.0688  0.8525
  851MOL0     C14812   6.976   1.833   0.540 -0.0183 -0.4613 -0.3596
  851MOL0     C14813   7.103   1.753   0.555 -0.3760  0.7247  0.3078
  851MOL0     C14814   7.201   1.823   0.635  0.4560  0.2327  0.5687
  851MOL0     C14815   7.275   1.899   0.700  0.0341 -0.3594  1.0244
  851MOL0     C14816   6.430   1.638   0.330 -0.0570  0.0419  0.4014
  851MOL0     C14817   6.295   1.669   0.297  0.0526  0.7566  0.7121
  851MOL0     H14818   5.874   1.565   0.350  1.5913  1.5032  0.2791
  851MOL0     H14819   5.610   1.566   0.341  1.4938 -0.9732 -0.5068
  851MOL0     H14820   5.418   1.884   0.080 -0.1938 -0.5123  0.0589
  851MOL0     H14821   5.392   1.718   0.032  1.1537 -1.1697 -0.9596
  851MOL0     H14822   5.231   1.868   0.257 -4.5823  0.8006  0.6770
  851MOL0     H14823   5.172   1.857   0.090 -0.1451 -0.8120 -0.8346
  851MOL0     H14824   5.152   1.618   0.105  1.0920  1.2765  0.0635
  851MOL0     H14825   5.229   1.608   0.266  0.8518 -0.5482 -0.0002
  851MOL0     H14826   5.030   1.738   0.356 -1.3385  0.1326 -0.0838
  851MOL0     H14827   4.976   1.755   0.186  1.6739  0.9537 -1.7480
  851MOL0     H14828   4.945   1.528   0.158 -2.0829  2.6640 -1.8130
  851MOL0     H14829   5.008   1.488   0.324 -0.4053  0.0643 -0.6005
  851MOL0     H14830   4.765   1.662   0.272 -0.3334  0.0765  0.6172
  851MOL0     H14831   4.756   1.487   0.298  1.0950  0.0215 -1.4276
  851MOL0     H14832   4.824   1.505   0.525  0.2261 -0.0927 -0.5559
  851MOL0     H14833   4.890   1.662   0.505  0.0675 -0.5211  2.9830
  851MOL0     H14834   4.647   1.747   0.468 -0.4016 -0.6460  0.6441
  851MOL0     H14835   4.677   1.682   0.627 -0.6088 -1.6640  0.7300
  851MOL0     H14836   4.450   1.664   0.325  0.6969 -1.2116 -0.9097
  851MOL0     H14837   4.194   1.375   0.420  1.5789 -0.5857  0.5855
  851MOL0     H14838   4.169   1.550   0.412  0.8099  1.5649 -1.1422
  851MOL0     H14839   4.288   1.554   0.191  0.1582  0.5608  1.1948
  851MOL0     H14840   4.130   1.468   0.177  0.8103 -3.2300 -0.1535
  851MOL0     H14841   4.283   1.247   0.221 -0.1270  0.8595  0.8363
  851MOL0     H14842   4.417   1.361   0.175  0.0307 -1.3110  0.4026
  851MOL0     H14843   4.180   1.346  -0.008 -1.7235 -1.3992  1.2973
  851MOL0     H14844   4.282   1.208  -0.015 -3.4914 -0.7133  0.5995
  851MOL0     H14845   4.269   1.242  -0.255  0.0348 -1.4414 -0.4013
  851MOL0     H14846   4.254   1.088  -0.401  0.0215 -0.1233  1.6844
  851MOL0     H14847   4.396   1.051  -0.511 -0.4105 -1.2892 -0.4203
  851MOL0     H14848   4.371   0.962  -0.369  1.4490  0.3017 -0.0260
  851MOL0     H14849   4.964   0.950  -0.209 -0.0959 -0.2479 -0.5500
  851MOL0     H14850   5.116   0.770  -0.236 -1.3239  3.1177  2.2373
  851MOL0     H14851   5.292   0.694  -0.434  1.4066 -0.3943 -1.6821
  851MOL0     H14852   5.233   0.563  -0.323  0.0525  3.0722  1.5361
  851MOL0     H14853   5.270   0.409  -0.508 -2.1216  0.9709 -1.3315
  851MOL0     H14854   5.316   0.533  -0.618 -2.7085 -1.7668 -0.5225
  851MOL0     H14855   5.462   0.477  -0.361 -2.5408  0.9044  1.0699
  851MOL0     H14856   5.510   0.600  -0.474 -1.3114 -0.2703  0.0869
  851MOL0     H14857   5.486   0.300  -0.552 -1.8559  0.9659  0.5921
  851MOL0     H14858   5.571   0.436  -0.647  0.5839  1.4305  0.9193
  851MOL0     H14859   5.681   0.337  -0.385 -3.1899 -1.7541 -0.3268
  851MOL0     H14860   5.750   0.444  -0.511  1.9163 -1.7983 -0.6297
  851MOL0     H14861   5.697   0.156  -0.566 -2.0367  1.2327  3.1477
  851MOL0     H14862   5.797   0.269  -0.654 -0.9125  1.0797 -0.3195
  851MOL0     H14863   5.854   0.153  -0.372  0.7470  3.0310  1.8858
  851MOL0     H14864   5.948   0.282  -0.431 -2.1261  1.4222  1.0044
  851MOL0     H14865   6.017   0.123  -0.630 -0.3915 -0.2470 -1.1337
  851MOL0     H14866   5.909  -0.002  -0.552  0.6479 -1.4780  1.5799
  851MOL0     H14867   4.951   0.709  -0.646  0.9452 -2.7900  0.8540
  851MOL0     H14868   4.813   0.893  -0.612  0.6816  0.1386  0.5935
  851MOL0     H14869   4.765   1.217  -0.212  0.9457 -1.8642 -0.5457
  851MOL0     H14870   4.637   1.395  -0.083  0.5413  0.7340 -0.7036
  851MOL0     H14871   5.644   1.879   0.038  0.6199  0.7974  1.2063
  851MOL0     H14872   5.885   1.852   0.061  1.5866 -1.4888 -0.8847
  851MOL0     H14873   6.260   1.973   0.425 -1.2821 -0.0082  0.1998
  851MOL0     H14874   6.493   1.928   0.481 -0.9449  1.1397  0.3573
  851MOL0     H14875   6.715   1.895   0.422 -1.9506 -0.3431  0.2182
  851MOL0     H14876   6.698   1.822   0.572  1.0253 -2.0430 -0.1483
  851MOL0     H14877   6.907   1.724   0.365  2.4373  0.9687  1.2918
  851MOL0     H14878   6.884   1.639   0.508  1.5603 -0.8525 -1.2191
  851MOL0     H14879   6.945   1.863   0.641  1.5718  1.9300 -0.5057
  851MOL0     H14880   7.004   1.925   0.488 -2.4400  0.5154 -0.0710
  851MOL0     H14881   7.140   1.736   0.453 -0.9962 -0.1930  0.2234
  851MOL0     H14882   7.089   1.656   0.604 -0.7856 -0.9564 -2.8620
  851MOL0     H14883   7.334   1.967   0.758 -1.9472  0.0303  2.6853
  851MOL0     H14884   6.484   1.553   0.289  3.4487  0.1228  4.2334
  851MOL0     H14885   6.253   1.607   0.219  1.3002  0.8517 -0.0607
  852MOL0     O14886   0.527   5.229   9.678 -0.4403  0.2482 -0.4426
  852MOL0     C14887   0.529   5.248   9.558 -0.1113  0.0122  0.2480
  852MOL0     O14888   0.420   5.232   9.478  0.1049  0.2484 -0.2041
  852MOL0     C14889   0.300   5.174   9.512 -0.0052  0.1656  0.1807
  852MOL0     C14890   0.247   5.074   9.432  0.7943 -0.1509  0.5575
  852MOL0     C14891   0.123   5.027   9.455 -0.1883  0.2830 -0.1250
  852MOL0     C14892   0.044   5.075   9.556 -0.2080  0.1733 -0.3865
  852MOL0     O14893  -0.085   5.033   9.556  0.3901  0.4873  0.2589
  852MOL0     C14894  -0.161   5.034   9.680 -0.0201  0.0160 -0.6909
  852MOL0     C14895  -0.256   4.922   9.672  0.2662 -0.2478 -0.3858
  852MOL0     C14896  -0.371   4.943   9.767 -0.4037 -0.1414 -0.2345
  852MOL0     C14897  -0.443   4.818   9.788  0.2288  0.8958  0.1185
  852MOL0     C14898  -0.569   4.826   9.879 -0.6422 -0.5520  0.0623
  852MOL0     C14899  -0.635   4.690   9.872  0.4687  0.7541  0.1416
  852MOL0     C14900  -0.776   4.695   9.936 -0.6845 -0.9053  0.0846
  852MOL0     C14901  -0.843   4.562   9.902  0.7412 -0.0120  0.3612
  852MOL0     N14902  -0.975   4.553   9.977  0.0081  0.2048 -0.3428
  852MOL0     C14903  -1.098   4.579   9.913 -0.6475  0.9380  0.1857
  852MOL0     C14904  -1.188   4.514   9.992  0.7144  0.2404  0.0421
  852MOL0     C14905  -1.339   4.492   9.970 -0.5667 -0.0556 -0.1746
  852MOL0     C14906  -1.403   4.597   9.892  0.2908 -0.6860 -0.7844
  852MOL0     C14907  -1.364   4.587   9.746 -0.1138 -0.0879  1.1621
  852MOL0     C14908  -1.416   4.707   9.669 -0.1939 -0.2450 -0.1442
  852MOL0     O14909  -1.382   4.839   9.711 -0.2376  0.4599 -0.6501
  852MOL0     C14910  -1.256   4.886   9.687 -0.4637  0.1615  0.7591
  852MOL0     C14911  -1.190   4.969   9.769  0.1803 -0.6268 -0.0054
  852MOL0     C14912  -1.054   5.011   9.750 -0.4805 -0.5051  0.0504
  852MOL0     C14913  -1.005   5.118   9.833 -0.1891  0.4549 -0.4581
  852MOL0     C14914  -0.992   4.976   9.624  0.2253  0.1076 -0.7207
  852MOL0     C14915  -0.858   5.023   9.563  0.6907  0.2109  0.0750
  852MOL0     O14916  -0.803   4.940   9.462  0.4029 -0.2382 -0.4106
  852MOL0     C14917  -0.689   4.990   9.405 -0.1680  0.5119  0.8100
  852MOL0     C14918  -0.581   5.031   9.478  1.0924 -0.1980 -0.0034
  852MOL0     C14919  -0.463   5.092   9.428  0.1293  0.1945 -0.3698
  852MOL0     C14920  -0.448   5.106   9.289  0.2204  0.5696  0.0037
  852MOL0     O14921  -0.337   5.151   9.221  0.0143  0.2332  0.1813
  852MOL0     C14922  -0.243   5.232   9.293 -0.6106 -0.1459  0.5057
  852MOL0     C14923  -0.190   5.359   9.218  0.6302  0.5287 -0.6259
  852MOL0     C14924  -0.047   5.399   9.279  0.2860  0.2044  0.2479
  852MOL0     C14925   0.008   5.501   9.180 -0.9342 -0.5155 -0.7073
  852MOL0     C14926   0.160   5.529   9.200 -0.0160  0.5846  0.1128
  852MOL0     C14927   0.231   5.630   9.113 -0.3100 -0.0062  0.9549
  852MOL0     C14928   0.210   5.604   8.959 -0.5326 -0.0663 -0.6790
  852MOL0     C14929   0.308   5.697   8.890 -0.1560  0.0493 -0.3650
  852MOL0    Cl14930   0.482   5.652   8.915 -0.3021 -0.0868  0.0165
  852MOL0     C14931  -0.555   5.060   9.204  0.2850 -0.5274  0.9415
  852MOL0     C14932  -0.675   5.013   9.259 -0.2437 -0.0358  0.2004
  852MOL0     O14933  -0.800   5.115   9.614 -0.3424  0.2539 -0.3159
  852MOL0     C14934  -1.055   4.894   9.533  0.2781 -0.2603 -0.4631
  852MOL0     C14935  -1.187   4.865   9.565  0.3921 -0.0053 -0.2539
  852MOL0     N14936  -1.128   4.432  10.091  0.8799 -0.1999  0.6294
  852MOL0     N14937  -1.000   4.452  10.073 -0.0996 -0.4297  0.0191
  852MOL0     C14938   0.084   5.181   9.635 -0.0192 -0.6216 -0.8818
  852MOL0     C14939   0.218   5.230   9.611 -0.2871 -0.6686  0.1910
  852MOL0     C14940   0.653   5.291   9.492 -0.3525 -0.5247 -0.3742
  852MOL0     C14941   0.766   5.345   9.564  0.1357 -0.1314 -0.3569
  852MOL0     C14942   0.881   5.380   9.499  0.4535  0.3701  0.2612
  852MOL0     C14943   0.898   5.367   9.358 -0.0792 -1.1156 -0.4076
  852MOL0     O14944   1.007   5.412   9.278 -0.4802 -0.2059 -0.8970
  852MOL0     C14945   1.112   5.473   9.358  0.1175  1.3126 -0.9462
  852MOL0     C14946   1.212   5.360   9.407 -0.7914 -0.5923  0.1124
  852MOL0     C14947   1.288   5.296   9.304 -1.6266  0.1434 -0.6876
  852MOL0     C14948   1.369   5.179   9.353 -0.3114  0.7576  0.2830
  852MOL0     C14949   1.296   5.051   9.346 -0.0318  0.6834  0.2800
  852MOL0     C14950   1.252   4.939   9.337 -0.3810  0.3021 -0.1576
  852MOL0     C14951   0.788   5.324   9.294 -0.1875 -0.5195  0.3374
  852MOL0     C14952   0.666   5.289   9.349 -0.4576 -0.4577 -0.5855
  852MOL0     H14953   0.297   5.039   9.342 -2.0937 -2.9077 -0.1642
  852MOL0     H14954   0.106   4.938   9.394 -0.0514 -0.0163  0.2685
  852MOL0     H14955  -0.104   5.045   9.773 -2.3561  0.3981  0.7749
  852MOL0     H14956  -0.222   5.125   9.678 -0.6254 -0.2826  1.7491
  852MOL0     H14957  -0.290   4.912   9.568 -1.0386  3.1339 -0.4017
  852MOL0     H14958  -0.198   4.840   9.716  0.9623  1.7704  2.7413
  852MOL0     H14959  -0.319   4.972   9.859  1.3692 -0.5051 -1.0772
  852MOL0     H14960  -0.438   5.025   9.740 -2.3840 -0.7967  2.3064
  852MOL0     H14961  -0.478   4.786   9.690 -1.2557  0.9668  0.5993
  852MOL0     H14962  -0.377   4.742   9.832  0.4619  0.7382 -0.4915
  852MOL0     H14963  -0.535   4.852   9.980 -2.6022  0.3386  0.5308
  852MOL0     H14964  -0.632   4.902   9.833  1.5397  0.1075 -2.0232
  852MOL0     H14965  -0.661   4.676   9.766 -0.5334 -3.3269  0.7593
  852MOL0     H14966  -0.576   4.612   9.919 -1.5919 -2.0956 -1.6836
  852MOL0     H14967  -0.779   4.717  10.043 -1.0289  0.3429 -0.1603
  852MOL0     H14968  -0.842   4.761   9.878  2.0519 -0.2419 -2.5161
  852MOL0     H14969  -0.778   4.480   9.934 -1.2292 -1.8864 -0.2043
  852MOL0     H14970  -0.861   4.539   9.797  0.1791  0.5187  0.3340
  852MOL0     H14971  -1.113   4.662   9.846  1.6492  3.4231  2.4824
  852MOL0     H14972  -1.362   4.392   9.932  0.1687 -0.4343  0.3532
  852MOL0     H14973  -1.385   4.500  10.069 -0.3921 -2.6655  0.1884
  852MOL0     H14974  -1.368   4.691   9.934 -1.1250 -1.2559  1.8733
  852MOL0     H14975  -1.510   4.588   9.912  0.6435 -1.0371  1.1301
  852MOL0     H14976  -1.412   4.500   9.699 -0.1809 -0.3763  1.7564
  852MOL0     H14977  -1.257   4.588   9.724 -0.5195  1.8142 -1.0729
  852MOL0     H14978  -1.524   4.694   9.657 -0.4297 -1.0924  2.3260
  852MOL0     H14979  -1.395   4.700   9.562 -1.4753 -1.2087 -0.3518
  852MOL0     H14980  -1.243   5.008   9.855  0.2802  1.4910 -0.8458
  852MOL0     H14981  -1.068   5.113   9.922 -1.7940  0.2085 -1.5694
  852MOL0     H14982  -0.903   5.092   9.864  0.3509  0.4843 -2.1033
  852MOL0     H14983  -1.014   5.214   9.781  1.8359  0.5063 -0.8116
  852MOL0     H14984  -0.591   5.025   9.586 -1.7010 -1.1661 -0.2441
  852MOL0     H14985  -0.388   5.122   9.501 -0.1197 -1.4941  0.6182
  852MOL0     H14986  -0.274   5.263   9.393  0.1084 -0.9383  0.9915
  852MOL0     H14987  -0.155   5.168   9.309  1.0781  1.9641  0.1031
  852MOL0     H14988  -0.176   5.339   9.111  3.1375 -0.9641 -0.1014
  852MOL0     H14989  -0.252   5.447   9.238 -1.1078 -0.2297 -2.2858
  852MOL0     H14990   0.018   5.313   9.297  2.0150  1.6121  1.0374
  852MOL0     H14991  -0.051   5.439   9.381  0.6083 -2.3383  1.3440
  852MOL0     H14992  -0.009   5.457   9.082  0.7557 -0.9867 -0.8079
  852MOL0     H14993  -0.034   5.602   9.182  0.8125  0.2546 -0.9383
  852MOL0     H14994   0.203   5.430   9.179  3.0298  1.4401  1.7534
  852MOL0     H14995   0.172   5.548   9.307  0.1918 -2.5719  0.7479
  852MOL0     H14996   0.188   5.728   9.137 -3.9418 -0.9608 -0.9759
  852MOL0     H14997   0.337   5.634   9.139 -0.0811 -0.1073  0.0632
  852MOL0     H14998   0.107   5.611   8.925 -0.8499  0.2808  0.3225
  852MOL0     H14999   0.253   5.505   8.940  1.1976 -0.0249  2.3574
  852MOL0     H15000   0.286   5.796   8.933 -0.7800 -0.7487  1.2331
  852MOL0     H15001   0.288   5.693   8.783 -1.8983  0.5369 -0.0850
  852MOL0     H15002  -0.553   5.050   9.096 -3.3684  2.5711  0.3738
  852MOL0     H15003  -0.759   4.966   9.209 -2.4740  2.6013  1.1926
  852MOL0     H15004  -1.009   4.867   9.438  1.4094 -0.9784  0.2647
  852MOL0     H15005  -1.228   4.806   9.484  3.0205 -1.3621 -0.6964
  852MOL0     H15006   0.012   5.216   9.708  1.9904 -0.7270  1.3056
  852MOL0     H15007   0.263   5.298   9.683 -1.6068  1.9874 -1.3568
  852MOL0     H15008   0.756   5.333   9.672  0.7316 -2.4456 -0.5020
  852MOL0     H15009   0.967   5.411   9.557  0.5304  0.3183  0.1734
  852MOL0     H15010   1.169   5.535   9.288 -0.3894  1.1358 -1.5219
  852MOL0     H15011   1.091   5.535   9.445  1.1295 -2.8685  2.6390
  852MOL0     H15012   1.165   5.279   9.463  0.1161 -0.8993  0.4466
  852MOL0     H15013   1.289   5.396   9.476  1.0841 -2.5484 -0.8506
  852MOL0     H15014   1.356   5.374   9.267  0.9212 -0.5687  2.0698
  852MOL0     H15015   1.220   5.265   9.224 -1.2048 -0.2946 -0.8859
  852MOL0     H15016   1.390   5.189   9.460  0.9007 -1.4846  0.3284
  852MOL0     H15017   1.465   5.172   9.300  0.0215  0.6685  0.8817
  852MOL0     H15018   1.221   4.838   9.322 -1.0029  0.7528 -2.1159
  852MOL0     H15019   0.801   5.329   9.186 -0.7093  0.4236  0.3082
  852MOL0     H15020   0.576   5.268   9.292 -1.0475 -0.1529  0.2333
  853MOL0     O15021   6.373   8.713   0.116  0.3623 -0.3180  0.0551
  853MOL0     C15022   6.417   8.640   0.024  0.0502 -0.0329  0.5255
  853MOL0     O15023   6.333   8.556  -0.051 -0.4158  0.0624  0.0707
  853MOL0     C15024   6.198   8.557  -0.038  0.9611  0.2659 -0.7807
  853MOL0     C15025   6.131   8.501   0.065  0.6000  0.1342  0.8759
  853MOL0     C15026   5.989   8.512   0.083  0.6327  0.1075  0.2640
  853MOL0     C15027   5.913   8.593   0.002  0.5078 -0.6464 -0.7517
  853MOL0     O15028   5.779   8.589   0.019  1.0623 -0.2732  0.0940
  853MOL0     C15029   5.696   8.688  -0.043 -0.1991 -0.1511  0.7722
  853MOL0     C15030   5.551   8.666   0.006 -0.5027 -0.0425  0.3117
  853MOL0     C15031   5.444   8.734  -0.078  0.5988  0.1513  0.6051
  853MOL0     C15032   5.390   8.626  -0.168  0.2539  0.8889  0.1474
  853MOL0     C15033   5.287   8.690  -0.264  0.3491 -0.3609  0.5141
  853MOL0     C15034   5.157   8.718  -0.189  0.1130 -0.7974 -0.6153
  853MOL0     C15035   5.044   8.729  -0.285  0.9440 -0.6270  0.4637
  853MOL0     C15036   4.930   8.787  -0.203 -0.7511  0.0575 -0.2723
  853MOL0     N15037   4.813   8.819  -0.286  0.4467 -0.2222 -0.7493
  853MOL0     C15038   4.795   8.921  -0.375 -1.0883  0.5640  0.1477
  853MOL0     C15039   4.666   8.908  -0.424 -0.8623 -1.0644 -0.6491
  853MOL0     C15040   4.606   9.010  -0.528  0.2455  0.1291 -0.1074
  853MOL0     C15041   4.583   8.943  -0.671  0.5037  0.0145 -0.4208
  853MOL0     C15042   4.544   9.055  -0.770  1.2525  0.3858  0.1055
  853MOL0     C15043   4.523   9.004  -0.914 -0.4812 -0.3782  0.8372
  853MOL0     O15044   4.417   8.918  -0.938  0.1338  0.2697 -0.7304
  853MOL0     C15045   4.292   8.955  -0.985 -0.9460 -0.4962 -0.6643
  853MOL0     C15046   4.256   9.088  -1.026  0.5005 -0.5281 -0.4585
  853MOL0     C15047   4.119   9.115  -1.058 -0.4197  0.2315 -0.3288
  853MOL0     C15048   4.099   9.263  -1.096  0.2100 -0.2400 -0.2603
  853MOL0     C15049   4.015   9.019  -1.055 -0.7314  0.2782 -0.7768
  853MOL0     C15050   3.877   9.054  -1.106  0.9961  0.9104  0.0632
  853MOL0     O15051   3.777   9.065  -1.008  0.2097 -0.8789 -0.8881
  853MOL0     C15052   3.643   9.038  -1.035 -0.6338  1.6453  0.1286
  853MOL0     C15053   3.612   8.941  -1.130  0.6588 -0.0354 -0.1431
  853MOL0     C15054   3.480   8.913  -1.153 -0.8963  0.6783  0.4981
  853MOL0     C15055   3.376   8.985  -1.100  0.4005  0.4942  0.1215
  853MOL0     O15056   3.245   8.960  -1.120  0.2865  0.0483  1.0655
  853MOL0     C15057   3.194   8.876  -1.235  0.4786 -0.0761 -0.1813
  853MOL0     C15058   3.141   8.964  -1.353 -0.0484 -0.0705  0.1364
  853MOL0     C15059   3.225   9.069  -1.401  0.3916  0.1771  1.1716
  853MOL0     C15060   3.144   9.174  -1.482  0.1155 -0.1838  0.3099
  853MOL0     C15061   3.078   9.116  -1.609 -0.2431 -0.2700  0.1152
  853MOL0     C15062   3.005   9.222  -1.680 -0.8115 -0.0244 -0.1987
  853MOL0     C15063   2.898   9.165  -1.770  1.1270  0.2187 -0.0105
  853MOL0     C15064   2.873   9.261  -1.893  0.9249 -0.0937 -1.0469
  853MOL0    Cl15065   3.017   9.266  -1.986  0.1331 -0.1694  0.2152
  853MOL0     C15066   3.405   9.078  -0.997  0.5844  0.5158 -0.2404
  853MOL0     C15067   3.541   9.097  -0.959 -0.0610  0.1470  0.9198
  853MOL0     O15068   3.861   9.069  -1.222 -0.3215  0.9242 -0.5478
  853MOL0     C15069   4.053   8.885  -1.005 -0.0751 -0.1848 -0.2740
  853MOL0     C15070   4.196   8.854  -0.978  0.1470  0.1846  0.2587
  853MOL0     N15071   4.621   8.789  -0.371 -0.3894  0.6576  0.7172
  853MOL0     N15072   4.707   8.733  -0.289  0.3154 -0.0718 -0.2534
  853MOL0     C15073   5.978   8.645  -0.110 -0.4053  0.3105  0.0746
  853MOL0     C15074   6.122   8.630  -0.133  0.0534  0.0340  0.0907
  853MOL0     C15075   6.565   8.638   0.004  1.2254  0.6228  0.1787
  853MOL0     C15076   6.647   8.688   0.098 -0.2196  1.0181 -0.4785
  853MOL0     C15077   6.789   8.680   0.085 -0.4634 -0.2278 -0.2727
  853MOL0     C15078   6.841   8.616  -0.030 -0.7331 -0.5329  0.9287
  853MOL0     O15079   6.982   8.604  -0.034  0.4709 -0.2636 -0.2749
  853MOL0     C15080   7.048   8.521  -0.130 -0.1692 -0.0872 -0.0278
  853MOL0     C15081   7.202   8.526  -0.101  0.1074 -0.5879 -0.4282
  853MOL0     C15082   7.281   8.490  -0.231 -0.1685 -0.0323  0.4714
  853MOL0     C15083   7.435   8.476  -0.220 -0.1467  0.4217 -1.0565
  853MOL0     C15084   7.504   8.604  -0.210  0.1339 -0.0931  1.2032
  853MOL0     C15085   7.582   8.698  -0.190  0.8960 -0.3182  0.4185
  853MOL0     C15086   6.748   8.567  -0.125  0.3378  0.9656  0.4542
  853MOL0     C15087   6.605   8.583  -0.113  0.6676 -0.6232  1.0331
  853MOL0     H15088   6.178   8.430   0.133  0.9615 -0.3611  0.1252
  853MOL0     H15089   5.942   8.447   0.156 -1.7473  1.0176 -0.3431
  853MOL0     H15090   5.732   8.789  -0.022 -0.7808  0.7649 -2.1025
  853MOL0     H15091   5.705   8.688  -0.152  0.7240  1.1516  0.8300
  853MOL0     H15092   5.533   8.558   0.011 -2.3185  0.0867 -1.9513
  853MOL0     H15093   5.546   8.709   0.107 -0.6014  0.3608  0.1335
  853MOL0     H15094   5.356   8.748  -0.014 -0.2727 -1.0698 -0.2903
  853MOL0     H15095   5.462   8.825  -0.136 -3.0344  0.6084 -0.0405
  853MOL0     H15096   5.468   8.576  -0.226 -0.3924 -1.1365  0.9263
  853MOL0     H15097   5.340   8.544  -0.115  1.8140 -1.4660 -1.8077
  853MOL0     H15098   5.322   8.782  -0.311  0.8967 -0.8837 -0.1220
  853MOL0     H15099   5.264   8.620  -0.346  2.1783 -1.7693  1.1479
  853MOL0     H15100   5.126   8.636  -0.123 -1.4581 -0.6679 -1.1342
  853MOL0     H15101   5.182   8.815  -0.147 -0.6571 -0.2554 -1.3835
  853MOL0     H15102   5.079   8.797  -0.363  1.4343 -0.0816  1.1540
  853MOL0     H15103   5.020   8.633  -0.332 -1.1293  0.7530 -1.4983
  853MOL0     H15104   4.969   8.881  -0.164 -0.8645 -0.0672  0.1574
  853MOL0     H15105   4.904   8.723  -0.118  0.7483  1.0667  0.9960
  853MOL0     H15106   4.868   8.998  -0.398 -0.4612 -0.1851 -0.4313
  853MOL0     H15107   4.508   9.048  -0.499 -1.1543 -4.1441  1.5027
  853MOL0     H15108   4.672   9.097  -0.541 -1.1877  0.8528 -3.8454
  853MOL0     H15109   4.510   8.862  -0.670 -1.5911  1.7998  0.9518
  853MOL0     H15110   4.681   8.912  -0.710  0.5352  0.4189 -0.6768
  853MOL0     H15111   4.616   9.137  -0.774  2.7085 -0.8313  0.4550
  853MOL0     H15112   4.446   9.091  -0.741 -0.2953 -1.2355 -2.6247
  853MOL0     H15113   4.608   8.944  -0.950 -3.2706 -2.4260 -3.1903
  853MOL0     H15114   4.519   9.090  -0.981  0.3793  1.1035  2.5922
  853MOL0     H15115   4.339   9.159  -1.028  0.5132 -0.4835  0.9604
  853MOL0     H15116   4.097   9.289  -1.202  1.3040  3.7446  0.5248
  853MOL0     H15117   4.003   9.297  -1.053 -0.4627 -1.3022 -0.8827
  853MOL0     H15118   4.174   9.335  -1.062  0.2673  0.7445 -2.3206
  853MOL0     H15119   3.694   8.886  -1.177 -1.1057 -2.1541 -0.9165
  853MOL0     H15120   3.453   8.829  -1.216 -0.3998  0.7670  0.1604
  853MOL0     H15121   3.266   8.803  -1.275 -0.7995 -0.5872 -1.6280
  853MOL0     H15122   3.111   8.809  -1.210 -1.1186  1.9420  0.1465
  853MOL0     H15123   3.113   8.900  -1.437  1.3011 -2.3877  1.3426
  853MOL0     H15124   3.053   9.014  -1.311 -0.4477 -1.0676  0.5197
  853MOL0     H15125   3.299   9.026  -1.468 -0.7456  0.5089 -0.3558
  853MOL0     H15126   3.265   9.124  -1.315  1.9277  0.8156  0.0794
  853MOL0     H15127   3.067   9.220  -1.420  2.3192  1.8424  1.7058
  853MOL0     H15128   3.211   9.253  -1.519  1.1143 -1.4226 -0.6276
  853MOL0     H15129   3.009   9.046  -1.561  1.9857 -2.0929  0.8296
  853MOL0     H15130   3.150   9.063  -1.672 -0.6107  0.0386 -0.5795
  853MOL0     H15131   2.942   9.292  -1.624 -1.9915 -0.5263 -0.8625
  853MOL0     H15132   3.072   9.286  -1.738 -1.0976  1.0568  0.6333
  853MOL0     H15133   2.808   9.145  -1.711  2.7198 -3.0633  1.5681
  853MOL0     H15134   2.927   9.065  -1.805 -1.2842 -0.2470 -0.8583
  853MOL0     H15135   2.853   9.364  -1.860  2.2797  0.1538 -0.9545
  853MOL0     H15136   2.784   9.222  -1.942  0.2530 -0.0951  0.1349
  853MOL0     H15137   3.332   9.126  -0.933  0.3062 -1.6002  1.1567
  853MOL0     H15138   3.555   9.175  -0.885  2.0358  0.6227  0.0927
  853MOL0     H15139   3.976   8.809  -0.997 -1.2538  0.6533 -2.5677
  853MOL0     H15140   4.208   8.748  -0.960 -2.6441 -0.1911  0.3892
  853MOL0     H15141   5.920   8.688  -0.190  1.0440  1.7093 -0.2869
  853MOL0     H15142   6.170   8.656  -0.227  2.6577 -1.1630  0.9865
  853MOL0     H15143   6.606   8.734   0.188 -1.4224 -1.9684  0.6364
  853MOL0     H15144   6.846   8.725   0.166 -0.7578 -1.1367  0.4594
  853MOL0     H15145   7.010   8.418  -0.134  0.6727 -0.4120  0.1035
  853MOL0     H15146   7.032   8.543  -0.236  0.2684 -2.0550 -0.5591
  853MOL0     H15147   7.240   8.454  -0.029  1.5529 -0.4873 -1.0471
  853MOL0     H15148   7.234   8.624  -0.065 -0.6040 -0.4910 -0.0534
  853MOL0     H15149   7.256   8.561  -0.310 -1.3402  1.5582  2.1972
  853MOL0     H15150   7.236   8.394  -0.261 -1.3107  1.4260 -2.9879
  853MOL0     H15151   7.473   8.437  -0.315  1.8587 -0.0319 -0.1085
  853MOL0     H15152   7.452   8.398  -0.146 -0.8269  1.3996  0.1715
  853MOL0     H15153   7.651   8.776  -0.166 -2.3460  2.2939  2.1078
  853MOL0     H15154   6.777   8.502  -0.207  0.0625  0.7553  0.5211
  853MOL0     H15155   6.526   8.558  -0.184  1.1144  1.7716 -0.3992
  854MOL0     O15156   9.087   2.012   7.341  0.3520  0.2230 -0.5321
  854MOL0     C15157   9.148   1.907   7.317  0.5372  0.3077 -0.3904
  854MOL0     O15158   9.104   1.783   7.362 -0.0183  0.7344  0.0884
  854MOL0     C15159   8.979   1.754   7.421  0.0273 -0.1707  0.2037
  854MOL0     C15160   8.955   1.617   7.448 -0.0671  0.4229  0.3384
  854MOL0     C15161   8.832   1.568   7.485 -0.4456  0.2671  0.0217
  854MOL0     C15162   8.723   1.653   7.501  0.2955 -0.0024 -0.1491
  854MOL0     O15163   8.597   1.602   7.530 -0.6816  0.1781  0.2606
  854MOL0     C15164   8.536   1.645   7.652  0.5363 -0.0587 -0.2765
  854MOL0     C15165   8.396   1.587   7.648 -1.0376 -0.2419  0.7254
  854MOL0     C15166   8.298   1.646   7.758 -0.2289 -0.8332  0.0950
  854MOL0     C15167   8.154   1.617   7.717 -0.8239 -0.1443 -0.2155
  854MOL0     C15168   8.051   1.680   7.812  0.3402 -0.5244 -0.0385
  854MOL0     C15169   7.911   1.623   7.770  0.5969  0.1751  0.6299
  854MOL0     C15170   7.806   1.640   7.877  0.1546 -0.9684  0.2837
  854MOL0     C15171   7.823   1.564   8.011 -0.3819  0.3607 -0.3401
  854MOL0     N15172   7.686   1.546   8.092 -1.2783 -0.1664  0.9185
  854MOL0     C15173   7.681   1.582   8.222 -0.1129  0.0758  0.2105
  854MOL0     C15174   7.551   1.546   8.257 -0.9524  0.6847  0.5426
  854MOL0     C15175   7.487   1.558   8.392 -0.3460 -0.4392 -0.3429
  854MOL0     C15176   7.429   1.692   8.425  0.5940  0.1751 -0.6940
  854MOL0     C15177   7.353   1.678   8.557 -0.1657  0.0812  0.9595
  854MOL0     C15178   7.219   1.608   8.530  0.1742  0.1812  0.6908
  854MOL0     O15179   7.133   1.673   8.622  0.0595  0.5684  0.1016
  854MOL0     C15180   7.002   1.700   8.603 -0.8689 -0.3018  0.3837
  854MOL0     C15181   6.926   1.654   8.493 -0.1685  0.4359  1.0778
  854MOL0     C15182   6.794   1.689   8.467 -0.8871 -0.0226  0.1936
  854MOL0     C15183   6.752   1.683   8.327  0.6683  0.3227 -0.1513
  854MOL0     C15184   6.714   1.746   8.566 -0.0906  0.4215 -0.2717
  854MOL0     C15185   6.567   1.768   8.554  0.2114 -0.5789  0.3063
  854MOL0     O15186   6.500   1.697   8.459 -0.7320 -0.1592 -0.0577
  854MOL0     C15187   6.372   1.664   8.488 -0.2825  0.3165 -0.2000
  854MOL0     C15188   6.345   1.554   8.579  0.2353 -1.6759  0.4762
  854MOL0     C15189   6.220   1.514   8.612  0.8500  0.6844  0.5213
  854MOL0     C15190   6.111   1.573   8.558  0.3816 -0.5946  0.2125
  854MOL0     O15191   5.984   1.535   8.587 -0.0714 -0.6499 -0.2841
  854MOL0     C15192   5.951   1.446   8.702  0.2938 -0.0285  0.3016
  854MOL0     C15193   5.807   1.468   8.751 -0.0349  0.3393  0.1196
  854MOL0     C15194   5.767   1.340   8.825 -0.2977 -0.7086  0.3947
  854MOL0     C15195   5.618   1.361   8.878 -0.4094  0.1534  0.1755
  854MOL0     C15196   5.574   1.229   8.936  0.0750  0.4900 -1.2791
  854MOL0     C15197   5.428   1.213   8.977  0.5155 -1.1352  0.2478
  854MOL0     C15198   5.365   1.335   9.036 -0.6566  0.3749  0.0770
  854MOL0     C15199   5.222   1.328   9.062  0.7702 -0.5300 -0.3557
  854MOL0    Cl15200   5.133   1.373   8.912 -0.1841  0.6097 -0.0994
  854MOL0     C15201   6.131   1.676   8.462 -0.1365  0.1597  0.4197
  854MOL0     C15202   6.261   1.716   8.422 -0.2348  0.0957  0.4307
  854MOL0     O15203   6.517   1.838   8.646 -1.0174 -0.7874 -0.2034
  854MOL0     C15204   6.777   1.764   8.691 -0.3976 -0.2741  0.5414
  854MOL0     C15205   6.918   1.749   8.702  0.1503  0.2116 -0.2802
  854MOL0     N15206   7.501   1.479   8.148  0.6003 -0.2434 -0.0435
  854MOL0     N15207   7.570   1.489   8.047 -0.2646  0.3058 -0.0281
  854MOL0     C15208   8.746   1.785   7.486  0.4780 -0.6005  0.9411
  854MOL0     C15209   8.865   1.837   7.444  0.0663  0.2332  0.7043
  854MOL0     C15210   9.268   1.911   7.233 -0.2468  0.0628 -0.7607
  854MOL0     C15211   9.317   2.031   7.174 -0.4301 -0.3092 -0.7947
  854MOL0     C15212   9.443   2.024   7.101  0.5226 -0.3899 -0.3666
  854MOL0     C15213   9.507   1.900   7.082  1.4133  0.5582  0.6630
  854MOL0     O15214   9.609   1.899   6.994  0.5513 -0.4336 -0.2231
  854MOL0     C15215   9.681   1.779   6.978 -0.5252 -1.0967  0.5890
  854MOL0     C15216   9.800   1.796   6.883 -0.5517 -0.2642  0.4846
  854MOL0     C15217   9.768   1.860   6.744 -0.2039  0.0246 -0.0533
  854MOL0     C15218   9.889   1.877   6.651  0.2322 -0.9058 -0.7660
  854MOL0     C15219   9.849   1.978   6.553  0.6955 -0.7746  0.4071
  854MOL0     C15220   9.804   2.063   6.476 -0.8737  0.4878 -0.2615
  854MOL0     C15221   9.462   1.782   7.147  1.0252 -0.2806  0.2512
  854MOL0     C15222   9.344   1.788   7.219  0.3648 -0.1485  0.2019
  854MOL0     H15223   9.031   1.542   7.428  1.1900  1.5666  0.6696
  854MOL0     H15224   8.814   1.461   7.489 -1.1407  0.2859 -1.7317
  854MOL0     H15225   8.582   1.597   7.739 -2.8460 -0.4033  1.4942
  854MOL0     H15226   8.540   1.754   7.660 -1.9376  0.1380 -0.9606
  854MOL0     H15227   8.354   1.609   7.549 -0.5459 -0.1874  0.5249
  854MOL0     H15228   8.400   1.478   7.650  3.5004 -0.3184 -0.1982
  854MOL0     H15229   8.315   1.615   7.862  0.7502  1.7426  0.7833
  854MOL0     H15230   8.316   1.754   7.751 -0.3343 -0.6926  1.6593
  854MOL0     H15231   8.143   1.655   7.615  0.6012  2.3302  0.4786
  854MOL0     H15232   8.139   1.509   7.722  0.6478 -0.5414 -2.4429
  854MOL0     H15233   8.078   1.656   7.916 -0.1118  1.0192  0.4694
  854MOL0     H15234   8.052   1.789   7.800  1.8868 -0.4584  0.4587
  854MOL0     H15235   7.879   1.679   7.682  3.3663  1.6720  0.4834
  854MOL0     H15236   7.912   1.517   7.744 -2.7393 -0.0103  0.8237
  854MOL0     H15237   7.795   1.745   7.903 -0.2739 -1.4998  2.4124
  854MOL0     H15238   7.715   1.612   7.822  0.5901 -1.7104 -0.0818
  854MOL0     H15239   7.898   1.613   8.073  1.5218  0.5282 -2.6208
  854MOL0     H15240   7.858   1.463   7.987 -0.3539  0.6264 -1.4941
  854MOL0     H15241   7.754   1.624   8.290  0.3425  3.5049 -2.1536
  854MOL0     H15242   7.414   1.477   8.405  0.8395 -1.5672 -0.4273
  854MOL0     H15243   7.575   1.546   8.456  0.0069 -1.1822 -0.9493
  854MOL0     H15244   7.380   1.746   8.343  3.7886  2.9179 -0.9828
  854MOL0     H15245   7.508   1.765   8.445  1.2107  0.3911 -3.4714
  854MOL0     H15246   7.346   1.781   8.593  0.1366  1.2223 -1.9238
  854MOL0     H15247   7.423   1.627   8.624  2.6160  2.0415 -0.2579
  854MOL0     H15248   7.230   1.501   8.552  0.3620 -0.4657 -2.1019
  854MOL0     H15249   7.185   1.631   8.428 -2.3584 -0.3430  1.3524
  854MOL0     H15250   6.992   1.611   8.418  0.3918  0.8004  1.3563
  854MOL0     H15251   6.836   1.707   8.261  1.0310 -2.2538 -0.7254
  854MOL0     H15252   6.706   1.589   8.297 -2.5843  1.8618 -0.4922
  854MOL0     H15253   6.682   1.766   8.310  1.6800  1.9629  2.9015
  854MOL0     H15254   6.430   1.516   8.635  1.1355 -1.0120 -0.4022
  854MOL0     H15255   6.207   1.447   8.696 -0.8292  1.3112  0.8114
  854MOL0     H15256   5.968   1.344   8.664 -0.6269  0.0430 -0.3367
  854MOL0     H15257   6.011   1.469   8.790  0.3954  2.2281 -0.3063
  854MOL0     H15258   5.815   1.553   8.820 -1.7815 -0.9616  2.0118
  854MOL0     H15259   5.732   1.498   8.677  1.3052 -0.2449 -1.5524
  854MOL0     H15260   5.839   1.328   8.907  0.8509 -1.4471 -0.6996
  854MOL0     H15261   5.779   1.260   8.752  2.9124  2.1761 -2.6132
  854MOL0     H15262   5.614   1.438   8.955  0.8966  1.1933 -0.7406
  854MOL0     H15263   5.559   1.396   8.793  1.5911  1.6937 -0.6581
  854MOL0     H15264   5.622   1.214   9.033 -0.4954 -2.9617 -1.3995
  854MOL0     H15265   5.597   1.146   8.868  2.7631  0.7210 -0.7491
  854MOL0     H15266   5.360   1.196   8.893 -1.0542  0.2527  1.1852
  854MOL0     H15267   5.417   1.135   9.053 -0.7903  0.1356  1.4122
  854MOL0     H15268   5.389   1.418   8.968  0.2183 -0.8473 -1.1604
  854MOL0     H15269   5.420   1.358   9.128  2.2522 -0.4972 -1.3233
  854MOL0     H15270   5.190   1.402   9.136 -0.2119 -2.3200  1.0854
  854MOL0     H15271   5.191   1.227   9.092 -0.9903  0.3877  1.1276
  854MOL0     H15272   6.041   1.718   8.418 -1.3668 -0.7596  1.9610
  854MOL0     H15273   6.278   1.792   8.346  0.9008  0.2543  0.8362
  854MOL0     H15274   6.715   1.796   8.774 -1.6084 -0.2891 -0.3339
  854MOL0     H15275   6.959   1.765   8.802  2.5572 -0.3580 -1.0932
  854MOL0     H15276   8.665   1.856   7.499 -2.0328 -2.9471 -0.9252
  854MOL0     H15277   8.874   1.944   7.431 -0.2115  0.2246  0.4295
  854MOL0     H15278   9.277   2.130   7.188  1.7630  0.3707  1.2518
  854MOL0     H15279   9.482   2.114   7.053  2.2059 -0.2461  1.1690
  854MOL0     H15280   9.730   1.758   7.074 -0.5963 -0.7053  0.7126
  854MOL0     H15281   9.626   1.693   6.939  0.3577 -0.4689 -2.2351
  854MOL0     H15282   9.839   1.694   6.875  2.5270  0.9347 -1.3337
  854MOL0     H15283   9.891   1.845   6.917  1.0036 -2.5926 -0.0836
  854MOL0     H15284   9.716   1.955   6.765  0.1931  0.0570  0.8392
  854MOL0     H15285   9.711   1.793   6.680 -2.2339  1.2786  0.3435
  854MOL0     H15286   9.922   1.779   6.617  2.6497 -0.2431 -0.5153
  854MOL0     H15287   9.970   1.929   6.703 -1.1378  0.4727  0.0966
  854MOL0     H15288   9.770   2.130   6.400 -0.6228  0.9230  0.0012
  854MOL0     H15289   9.512   1.687   7.135  0.0338 -0.8854  0.7842
  854MOL0     H15290   9.304   1.694   7.258 -0.5360 -0.6432 -1.7624
  855MOL0     O15291   6.109   3.688   4.039  0.6589  0.1059 -0.1076
  855MOL0     C15292   6.143   3.572   4.070 -0.3524  0.6905 -0.2489
  855MOL0     O15293   6.061   3.463   4.066  0.7716 -0.5346 -0.6830
  855MOL0     C15294   5.930   3.495   4.028 -0.1675  0.0438  0.4743
  855MOL0     C15295   5.868   3.441   3.921  0.9052  0.0809  0.1957
  855MOL0     C15296   5.733   3.464   3.901 -0.4303  0.6958  0.2306
  855MOL0     C15297   5.657   3.545   3.989  0.4136  0.5892  0.2718
  855MOL0     O15298   5.525   3.564   3.983 -0.0610  0.1194 -0.3327
  855MOL0     C15299   5.435   3.463   3.930 -0.3170 -0.1102 -0.6152
  855MOL0     C15300   5.300   3.523   3.951 -0.7965 -0.0883 -0.0463
  855MOL0     C15301   5.192   3.423   3.920  0.3248  0.3399 -0.5261
  855MOL0     C15302   5.055   3.469   3.971 -0.4412  0.3016  0.3425
  855MOL0     C15303   4.978   3.343   4.007 -0.2578 -0.3143 -0.3377
  855MOL0     C15304   4.833   3.385   3.997  0.5964  0.7293  0.1311
  855MOL0     C15305   4.746   3.265   4.016  0.5519  0.5725  0.5447
  855MOL0     C15306   4.593   3.290   4.044  0.2018 -0.2640 -0.5536
  855MOL0     N15307   4.500   3.182   4.041 -0.2584  0.4911 -0.0388
  855MOL0     C15308   4.484   3.091   3.941 -0.2307 -0.1863 -0.0801
  855MOL0     C15309   4.380   3.021   3.977 -0.1323  0.3766 -0.2521
  855MOL0     C15310   4.311   2.921   3.891 -0.8932 -0.0782 -0.9893
  855MOL0     C15311   4.416   2.820   3.828  0.2810 -0.2337  0.5006
  855MOL0     C15312   4.388   2.681   3.885 -0.5084  0.7557  0.4048
  855MOL0     C15313   4.263   2.605   3.818 -0.5583  0.6388  0.0433
  855MOL0     O15314   4.144   2.654   3.885 -0.7085  0.0818  0.3841
  855MOL0     C15315   4.030   2.583   3.857  0.2744  0.3819 -0.0333
  855MOL0     C15316   4.015   2.501   3.748 -0.2096  0.5644 -0.6996
  855MOL0     C15317   3.890   2.449   3.720 -0.4621 -0.0644  0.4262
  855MOL0     C15318   3.881   2.387   3.586  0.2466  0.1179  0.4400
  855MOL0     C15319   3.785   2.454   3.819 -0.5824  0.4964 -0.6639
  855MOL0     C15320   3.647   2.411   3.792  0.4686 -0.7666 -0.5475
  855MOL0     O15321   3.599   2.458   3.673 -0.1201 -0.4957  0.3117
  855MOL0     C15322   3.495   2.390   3.622  0.4622 -0.6113 -0.1437
  855MOL0     C15323   3.373   2.456   3.614 -0.4322 -0.6103 -1.0461
  855MOL0     C15324   3.262   2.398   3.564 -0.0368 -0.3095  0.2931
  855MOL0     C15325   3.279   2.276   3.502  0.5516 -0.1017  0.6330
  855MOL0     O15326   3.184   2.209   3.426 -0.1619  0.4983 -0.4121
  855MOL0     C15327   3.040   2.243   3.443 -0.2100  0.1850 -0.4336
  855MOL0     C15328   3.004   2.360   3.341  1.0937 -0.9936 -0.5316
  855MOL0     C15329   2.848   2.358   3.314 -0.8379  0.0613  0.4500
  855MOL0     C15330   2.837   2.433   3.184  0.0850 -0.5264  0.0530
  855MOL0     C15331   2.698   2.448   3.141 -0.2156  0.2343 -0.0541
  855MOL0     C15332   2.700   2.521   3.003  0.1375 -0.0568 -0.4758
  855MOL0     C15333   2.574   2.504   2.926 -0.7196 -0.8498 -0.6010
  855MOL0     C15334   2.456   2.561   3.004 -0.3968  0.5620  0.3772
  855MOL0    Cl15335   2.466   2.741   2.979  0.0454 -0.0123  0.3026
  855MOL0     C15336   3.404   2.213   3.492  1.1197 -0.5105 -0.6414
  855MOL0     C15337   3.514   2.271   3.556 -0.5523 -0.4164  0.6206
  855MOL0     O15338   3.589   2.347   3.883  0.0564 -0.7221 -0.3197
  855MOL0     C15339   3.805   2.528   3.942 -0.4764 -0.3508  0.7655
  855MOL0     C15340   3.931   2.595   3.957  1.4985 -0.4108 -0.1815
  855MOL0     N15341   4.322   3.083   4.079 -0.3187 -0.4335 -0.6080
  855MOL0     N15342   4.400   3.172   4.128  0.2484  0.2453  0.1936
  855MOL0     C15343   5.721   3.605   4.095 -0.7479 -0.0988  0.2249
  855MOL0     C15344   5.854   3.576   4.116  0.1542 -0.3707  0.1398
  855MOL0     C15345   6.289   3.542   4.109 -0.1932 -0.5233  0.3800
  855MOL0     C15346   6.389   3.643   4.101  0.3709 -0.2538  0.6427
  855MOL0     C15347   6.521   3.606   4.131  0.1405 -0.1127  0.0395
  855MOL0     C15348   6.557   3.473   4.151  0.0514 -0.3653 -0.3888
  855MOL0     O15349   6.687   3.449   4.188  1.0650  0.0040  0.1789
  855MOL0     C15350   6.746   3.336   4.121  0.2383 -0.9002 -0.0846
  855MOL0     C15351   6.893   3.369   4.090  0.0708 -0.3245 -0.1825
  855MOL0     C15352   6.955   3.247   4.036  0.0348 -0.1339 -0.7186
  855MOL0     C15353   7.031   3.269   3.903  0.8482  0.3709 -0.5518
  855MOL0     C15354   7.148   3.353   3.935 -0.5290 -0.5975 -0.2508
  855MOL0     C15355   7.238   3.428   3.962 -1.3210 -0.0154  0.3357
  855MOL0     C15356   6.455   3.384   4.150  0.1614 -0.1503  0.1865
  855MOL0     C15357   6.318   3.413   4.142 -0.0107 -0.8788  0.3721
  855MOL0     H15358   5.918   3.373   3.853  0.1486 -1.7025  1.3427
  855MOL0     H15359   5.693   3.407   3.818 -0.7040 -0.6129  1.2432
  855MOL0     H15360   5.439   3.442   3.823  0.3479 -3.5076 -0.0506
  855MOL0     H15361   5.450   3.365   3.977 -0.0959  0.2640  0.1129
  855MOL0     H15362   5.300   3.565   4.052  2.5815 -2.4834  1.1106
  855MOL0     H15363   5.291   3.601   3.874  1.3506  1.3922  1.0824
  855MOL0     H15364   5.186   3.370   3.825 -1.2132  0.2498 -0.4100
  855MOL0     H15365   5.217   3.339   3.986 -1.8621 -0.2496 -0.3713
  855MOL0     H15366   5.060   3.531   4.060  0.3014  0.0142  0.5044
  855MOL0     H15367   5.007   3.527   3.892 -0.7026 -2.5454 -1.7943
  855MOL0     H15368   4.999   3.265   3.933  0.5575 -0.0734 -0.3612
  855MOL0     H15369   5.006   3.310   4.107  0.9180  2.6882  0.4028
  855MOL0     H15370   4.806   3.465   4.067 -2.8506  0.5888 -0.8782
  855MOL0     H15371   4.818   3.426   3.897  1.6120 -1.3791 -0.9564
  855MOL0     H15372   4.753   3.206   3.925  2.1133  1.3672  0.1087
  855MOL0     H15373   4.798   3.201   4.088  0.8448  0.6581  0.4115
  855MOL0     H15374   4.561   3.362   3.968  1.4661  0.3633 -0.5123
  855MOL0     H15375   4.582   3.352   4.133 -0.6458 -1.4328  0.1958
  855MOL0     H15376   4.534   3.090   3.845 -0.4090 -2.0128 -0.1824
  855MOL0     H15377   4.240   2.862   3.950 -1.1716  1.6542  0.5233
  855MOL0     H15378   4.264   2.985   3.816  0.1805  1.0955 -0.6892
  855MOL0     H15379   4.523   2.840   3.837  0.0660  1.9596 -1.0087
  855MOL0     H15380   4.404   2.818   3.719 -1.5249  0.8187  0.6275
  855MOL0     H15381   4.379   2.675   3.994  1.0954 -1.1732  0.4820
  855MOL0     H15382   4.478   2.627   3.857 -0.3258  0.6278  1.2078
  855MOL0     H15383   4.280   2.498   3.833 -0.5715  0.8704  2.0159
  855MOL0     H15384   4.262   2.627   3.711 -3.4393  0.7780  0.0408
  855MOL0     H15385   4.088   2.492   3.669 -3.4997  1.5574 -4.1064
  855MOL0     H15386   3.827   2.448   3.513 -0.1453 -3.6198 -2.6706
  855MOL0     H15387   3.980   2.363   3.547 -0.2221 -1.5317  0.1723
  855MOL0     H15388   3.820   2.297   3.597  1.9735 -1.2564 -0.7256
  855MOL0     H15389   3.360   2.558   3.648  0.9378 -0.0948 -1.9572
  855MOL0     H15390   3.173   2.460   3.558  0.1973  0.0418  0.3948
  855MOL0     H15391   2.991   2.149   3.420  0.8355 -0.6083  0.4636
  855MOL0     H15392   3.020   2.279   3.544 -0.7876 -0.2763 -0.3828
  855MOL0     H15393   3.030   2.458   3.382  1.3806 -2.1994  2.4943
  855MOL0     H15394   3.054   2.334   3.248 -0.9003 -2.8489 -1.1920
  855MOL0     H15395   2.792   2.404   3.396  3.3868  2.5127  2.2642
  855MOL0     H15396   2.812   2.256   3.299  1.4817 -1.2359  2.9678
  855MOL0     H15397   2.875   2.534   3.200  0.3901 -0.8032  1.1580
  855MOL0     H15398   2.891   2.380   3.106 -0.1047 -1.6103  0.6345
  855MOL0     H15399   2.645   2.500   3.221  2.7705  0.1091  2.1759
  855MOL0     H15400   2.649   2.351   3.130  2.9532 -1.7239  1.3332
  855MOL0     H15401   2.723   2.627   3.021 -1.4494 -0.0840  2.2734
  855MOL0     H15402   2.769   2.465   2.939 -1.8122 -0.3838 -2.4351
  855MOL0     H15403   2.555   2.396   2.920  1.6988 -1.4967  1.6839
  855MOL0     H15404   2.592   2.552   2.830  3.9127  0.6455  0.7775
  855MOL0     H15405   2.459   2.543   3.112 -0.9845 -0.6053  0.2103
  855MOL0     H15406   2.357   2.537   2.964 -1.6054 -0.5568  3.7147
  855MOL0     H15407   3.406   2.123   3.431  1.7855  0.1906 -1.6968
  855MOL0     H15408   3.615   2.231   3.545 -1.6760 -3.5815  1.0356
  855MOL0     H15409   3.733   2.540   4.023 -0.9181 -0.4883  0.4008
  855MOL0     H15410   3.933   2.662   4.042 -1.1435 -0.3266 -0.1093
  855MOL0     H15411   5.678   3.668   4.172  2.0343  0.3999  1.5028
  855MOL0     H15412   5.910   3.618   4.199  2.1170 -0.1770 -1.2387
  855MOL0     H15413   6.360   3.744   4.073  0.3096 -0.2356  0.7673
  855MOL0     H15414   6.600   3.678   4.152 -0.5906  0.3119  1.4430
  855MOL0     H15415   6.748   3.253   4.192 -1.5896  0.2970  1.4851
  855MOL0     H15416   6.689   3.304   4.033 -0.8569 -0.7752  0.5566
  855MOL0     H15417   6.958   3.405   4.170  3.1961 -1.4492 -2.0002
  855MOL0     H15418   6.887   3.440   4.007 -1.5254  2.6394  2.2744
  855MOL0     H15419   6.884   3.166   4.017  0.6024 -0.7921 -0.0991
  855MOL0     H15420   7.026   3.215   4.113  0.9171  2.6335 -0.2927
  855MOL0     H15421   6.970   3.312   3.823 -0.3360 -0.4215 -0.1074
  855MOL0     H15422   7.076   3.176   3.867  0.9308 -0.7820  2.2345
  855MOL0     H15423   7.315   3.493   4.000 -1.7464  1.0712 -0.6093
  855MOL0     H15424   6.475   3.281   4.176  1.0516 -0.4752 -1.6294
  855MOL0     H15425   6.251   3.330   4.162 -0.0136 -0.4713  2.2844
  856MOL0     O15426   1.319   3.793   5.811 -0.7665  0.5701  0.0726
  856MOL0     C15427   1.298   3.884   5.738 -0.0162 -0.2903 -0.0946
  856MOL0     O15428   1.182   3.953   5.733  0.0391  0.0590 -0.2106
  856MOL0     C15429   1.059   3.901   5.770 -0.1653 -0.5686  0.9081
  856MOL0     C15430   0.955   3.991   5.771  0.1066  0.0401 -0.0808
  856MOL0     C15431   0.827   3.967   5.810  0.7725  0.0935 -0.0746
  856MOL0     C15432   0.795   3.836   5.839 -0.1546 -0.8080  0.7402
  856MOL0     O15433   0.668   3.812   5.869  0.0365  0.4889  0.1871
  856MOL0     C15434   0.623   3.682   5.872  0.3960 -0.9205 -0.8499
  856MOL0     C15435   0.475   3.694   5.885 -1.2655  0.5944  0.1798
  856MOL0     C15436   0.416   3.560   5.922 -0.1913 -0.6766  0.1710
  856MOL0     C15437   0.381   3.464   5.810  0.2161 -0.2436 -0.3167
  856MOL0     C15438   0.304   3.345   5.868  0.1087  0.4099 -1.0973
  856MOL0     C15439   0.287   3.243   5.766  0.3729 -0.2214 -0.3369
  856MOL0     C15440   0.199   3.279   5.654  0.0017 -0.0743 -1.0396
  856MOL0     C15441   0.235   3.223   5.521  0.1696  0.7861  0.0841
  856MOL0     N15442   0.113   3.209   5.438  0.1980  0.7918  0.2251
  856MOL0     C15443   0.015   3.111   5.442 -0.2511 -0.2980  0.2316
  856MOL0     C15444  -0.067   3.140   5.331 -0.7010 -0.3075 -0.5975
  856MOL0     C15445  -0.191   3.071   5.283  0.1621  0.4750  0.4582
  856MOL0     C15446  -0.298   3.060   5.387 -0.7826  0.5101 -0.2851
  856MOL0     C15447  -0.364   3.194   5.418 -0.2502 -0.7351  0.0449
  856MOL0     C15448  -0.481   3.182   5.520  0.8646 -0.0012  1.1225
  856MOL0     O15449  -0.604   3.106   5.481  0.6556  1.0043 -0.0616
  856MOL0     C15450  -0.704   3.168   5.405 -0.5074 -0.5346  0.1282
  856MOL0     C15451  -0.833   3.200   5.464 -0.9375  0.3193  0.4418
  856MOL0     C15452  -0.929   3.262   5.390  0.8807 -0.7376  0.2586
  856MOL0     C15453  -1.055   3.287   5.476  0.1963  0.3609 -0.1234
  856MOL0     C15454  -0.914   3.276   5.251 -0.1852 -0.6196 -0.4000
  856MOL0     C15455  -1.024   3.330   5.172  1.3694  0.0101  0.2672
  856MOL0     O15456  -1.063   3.233   5.080 -0.5518  0.7527 -0.7143
  856MOL0     C15457  -1.187   3.229   5.020 -0.1353 -0.2040  0.0096
  856MOL0     C15458  -1.303   3.279   5.083 -0.6376 -0.5056  0.3433
  856MOL0     C15459  -1.437   3.282   5.021 -0.4122  1.2398  0.0005
  856MOL0     C15460  -1.438   3.219   4.894  0.4315 -0.3237  0.5236
  856MOL0     O15461  -1.548   3.213   4.814  0.2651 -0.6873  0.0247
  856MOL0     C15462  -1.650   3.140   4.874  0.2963  0.2728  0.7344
  856MOL0     C15463  -1.776   3.126   4.788 -1.2894 -1.7112 -1.2391
  856MOL0     C15464  -1.855   3.251   4.782 -0.8122  0.3936 -0.5675
  856MOL0     C15465  -1.962   3.247   4.679 -0.1674 -0.1031  0.0285
  856MOL0     C15466  -2.077   3.142   4.703 -0.3927  0.0113  0.5645
  856MOL0     C15467  -2.206   3.205   4.645  0.1741  0.1209  0.8366
  856MOL0     C15468  -2.322   3.103   4.650  0.5144 -0.0817 -0.0722
  856MOL0     C15469  -2.467   3.155   4.633  0.4885  1.3085  0.3589
  856MOL0    Cl15470  -2.512   3.253   4.488 -0.1006  0.5843  0.1879
  856MOL0     C15471  -1.332   3.154   4.839  0.2055  0.4832  1.0887
  856MOL0     C15472  -1.206   3.173   4.898 -0.1336 -1.2302 -0.2278
  856MOL0     O15473  -1.060   3.450   5.179  0.7152  0.2310  0.6238
  856MOL0     C15474  -0.791   3.229   5.196 -0.9994  0.2350  0.1917
  856MOL0     C15475  -0.681   3.184   5.267 -0.6036  0.6974 -0.0378
  856MOL0     N15476  -0.006   3.242   5.255  0.0243  0.7428 -1.1306
  856MOL0     N15477   0.098   3.277   5.324 -0.1624  0.0165 -0.3158
  856MOL0     C15478   0.893   3.739   5.828 -0.0821  0.3648  0.2962
  856MOL0     C15479   1.030   3.771   5.801  0.0177  0.5520  0.1494
  856MOL0     C15480   1.404   3.937   5.642  0.2971  0.8313  0.3704
  856MOL0     C15481   1.527   3.876   5.634  0.0399  1.0085  0.7547
  856MOL0     C15482   1.620   3.920   5.539  0.1938 -0.7552  0.3304
  856MOL0     C15483   1.602   4.036   5.464 -0.5373  0.6325  0.6767
  856MOL0     O15484   1.691   4.092   5.374  0.2323  0.3049  1.5973
  856MOL0     C15485   1.820   4.035   5.336 -0.4965  0.0937  0.1995
  856MOL0     C15486   1.924   4.114   5.410 -0.6235 -0.6137 -0.0619
  856MOL0     C15487   2.069   4.073   5.368 -1.1326 -0.1147  0.9298
  856MOL0     C15488   2.140   3.990   5.480 -0.8384  0.4524  0.4758
  856MOL0     C15489   2.106   3.852   5.487  0.1418 -0.0063  0.0898
  856MOL0     C15490   2.040   3.756   5.497 -0.7854  0.3763  0.9968
  856MOL0     C15491   1.484   4.105   5.478 -0.1612 -0.0374  0.7321
  856MOL0     C15492   1.384   4.051   5.561 -0.0342 -0.0960  0.3083
  856MOL0     H15493   0.980   4.095   5.755 -1.7124  0.5187 -0.1173
  856MOL0     H15494   0.747   4.040   5.804  1.9967  1.4148 -1.1089
  856MOL0     H15495   0.646   3.622   5.784  1.8669 -0.5479 -0.7522
  856MOL0     H15496   0.666   3.635   5.961  2.0058  0.3441 -0.9111
  856MOL0     H15497   0.444   3.759   5.968 -1.8844  0.8552 -0.2469
  856MOL0     H15498   0.436   3.736   5.792 -0.1906  1.3759  0.0617
  856MOL0     H15499   0.500   3.514   5.974  0.5719 -1.4515 -1.6829
  856MOL0     H15500   0.325   3.567   5.983 -0.6618  0.7731 -0.6484
  856MOL0     H15501   0.308   3.520   5.751  0.9718  0.0951 -0.9496
  856MOL0     H15502   0.474   3.445   5.756  0.9739  0.3413  0.7340
  856MOL0     H15503   0.364   3.311   5.952 -1.2408  0.4527 -0.0817
  856MOL0     H15504   0.208   3.375   5.911  1.5664  0.8442  2.0727
  856MOL0     H15505   0.390   3.221   5.734  0.2253 -2.8752  0.7442
  856MOL0     H15506   0.258   3.147   5.808  1.2425 -0.3698 -0.0395
  856MOL0     H15507   0.095   3.257   5.679 -1.0871  0.6241 -4.4779
  856MOL0     H15508   0.211   3.385   5.629  0.1037  0.3695  0.7090
  856MOL0     H15509   0.273   3.122   5.536  1.2169  0.0579 -5.2877
  856MOL0     H15510   0.318   3.285   5.484 -0.2953  0.8186 -0.9626
  856MOL0     H15511   0.014   3.033   5.517  0.6198  0.0467  0.6210
  856MOL0     H15512  -0.231   3.137   5.206  1.4478  1.2437  0.4278
  856MOL0     H15513  -0.166   2.981   5.226 -2.2410  0.5034 -0.7618
  856MOL0     H15514  -0.247   3.020   5.475  1.9757  0.2599 -1.8873
  856MOL0     H15515  -0.379   2.995   5.351  0.5042 -0.2809 -1.9076
  856MOL0     H15516  -0.406   3.240   5.328  0.0124  0.4057  0.4992
  856MOL0     H15517  -0.284   3.252   5.465 -1.2757  0.3041  0.5622
  856MOL0     H15518  -0.509   3.286   5.538  0.8073  0.5588 -1.7191
  856MOL0     H15519  -0.446   3.142   5.616  0.6179  1.2035  1.7368
  856MOL0     H15520  -0.848   3.190   5.571 -0.9514 -1.9843  0.2773
  856MOL0     H15521  -1.098   3.385   5.454 -2.0602 -0.6839 -0.6174
  856MOL0     H15522  -1.137   3.218   5.455 -0.3461  0.5455  1.2603
  856MOL0     H15523  -1.036   3.278   5.584  2.0649 -2.6965 -0.5927
  856MOL0     H15524  -1.291   3.327   5.179 -2.3945  0.8848 -0.0719
  856MOL0     H15525  -1.524   3.338   5.053 -1.8500  0.0103 -1.5462
  856MOL0     H15526  -1.615   3.039   4.897 -2.0119 -0.8929 -0.4131
  856MOL0     H15527  -1.690   3.193   4.961 -2.7928  1.3527 -1.1735
  856MOL0     H15528  -1.746   3.099   4.687  0.8614  1.5019 -1.6043
  856MOL0     H15529  -1.845   3.053   4.831 -1.2247 -1.5872 -0.9170
  856MOL0     H15530  -1.778   3.320   4.747  3.9182 -4.7374 -1.6444
  856MOL0     H15531  -1.908   3.275   4.875 -0.5587  2.1900 -0.8593
  856MOL0     H15532  -2.001   3.349   4.681 -0.7514 -0.3174 -0.1495
  856MOL0     H15533  -1.919   3.221   4.582 -2.0398 -1.3873 -0.5255
  856MOL0     H15534  -2.082   3.123   4.811 -1.0323 -0.3108  0.4885
  856MOL0     H15535  -2.054   3.051   4.647  1.6322 -0.0178  1.3785
  856MOL0     H15536  -2.243   3.294   4.696  1.0843  0.0925  1.5609
  856MOL0     H15537  -2.182   3.240   4.544  0.5092 -2.4196 -0.0350
  856MOL0     H15538  -2.322   3.049   4.745 -0.8551 -2.3361 -1.2684
  856MOL0     H15539  -2.310   3.029   4.570 -0.8026 -0.8380  0.3855
  856MOL0     H15540  -2.487   3.211   4.724 -0.3078  3.6183 -1.1396
  856MOL0     H15541  -2.525   3.062   4.637  1.0486  0.8221 -1.5640
  856MOL0     H15542  -1.356   3.099   4.749 -2.2174 -1.1285  2.6161
  856MOL0     H15543  -1.129   3.118   4.846 -0.5008 -0.9892 -1.0475
  856MOL0     H15544  -0.793   3.227   5.088  0.0368  3.8103 -0.0230
  856MOL0     H15545  -0.587   3.164   5.215 -1.2185 -0.8451 -0.6063
  856MOL0     H15546   0.869   3.636   5.848  0.1923 -0.0234 -1.2369
  856MOL0     H15547   1.100   3.689   5.805 -1.7586 -1.0439 -0.0888
  856MOL0     H15548   1.543   3.779   5.679  0.1927  0.4336 -0.4782
  856MOL0     H15549   1.719   3.879   5.521 -0.4386 -0.9472 -3.5804
  856MOL0     H15550   1.833   3.927   5.349 -0.5709  0.0308 -0.2292
  856MOL0     H15551   1.840   4.053   5.230  1.4091 -0.3984  0.4402
  856MOL0     H15552   1.912   4.104   5.518 -0.4010  1.4184  0.1875
  856MOL0     H15553   1.903   4.218   5.385  0.9083 -0.4061 -0.5800
  856MOL0     H15554   2.136   4.155   5.342 -0.2635 -1.4133 -1.0808
  856MOL0     H15555   2.069   4.015   5.275  0.7338  1.8295 -0.3670
  856MOL0     H15556   2.105   4.030   5.576  1.8317 -0.6526  2.0279
  856MOL0     H15557   2.249   3.999   5.472 -0.9226  1.7472  0.5285
  856MOL0     H15558   1.979   3.671   5.519 -0.3303  0.3348  2.2047
  856MOL0     H15559   1.464   4.190   5.412  0.9130 -2.1704 -2.5871
  856MOL0     H15560   1.298   4.116   5.576  0.6616  0.2834  3.1863
  857MOL0     O15561   9.700   1.991   4.442 -0.6006 -0.1389  0.8790
  857MOL0     C15562   9.807   1.985   4.381 -0.3238 -0.0333 -0.1730
  857MOL0     O15563   9.834   2.053   4.270 -0.3352  0.3955  0.0522
  857MOL0     C15564   9.739   2.136   4.213  0.7564  0.1489  0.3504
  857MOL0     C15565   9.672   2.230   4.296 -0.7384 -0.0694  0.4856
  857MOL0     C15566   9.574   2.311   4.245 -0.0138 -0.3747 -0.3767
  857MOL0     C15567   9.532   2.292   4.109 -0.2232  0.4362 -0.6578
  857MOL0     O15568   9.424   2.350   4.049 -0.4514 -0.4357 -0.1521
  857MOL0     C15569   9.359   2.453   4.114  0.0330 -0.7545 -0.4626
  857MOL0     C15570   9.248   2.493   4.009  0.9540 -0.5694  0.6237
  857MOL0     C15571   9.132   2.558   4.081  0.3314 -0.7566 -0.6327
  857MOL0     C15572   9.012   2.564   3.980 -0.5543  0.4469  0.0349
  857MOL0     C15573   8.895   2.629   4.051  0.1717 -0.0574 -0.5838
  857MOL0     C15574   8.768   2.598   3.975  0.9777 -0.0826  0.2272
  857MOL0     C15575   8.642   2.677   4.020 -0.3209 -0.0614  0.7596
  857MOL0     C15576   8.617   2.669   4.169  1.2728 -0.2928  0.0921
  857MOL0     N15577   8.476   2.692   4.208 -0.0835  0.0450 -0.1262
  857MOL0     C15578   8.393   2.797   4.175  0.1448  0.3540  0.0245
  857MOL0     C15579   8.271   2.771   4.234  0.5797  0.1194  0.3589
  857MOL0     C15580   8.145   2.855   4.233 -0.1359  0.0607  0.4153
  857MOL0     C15581   8.164   2.984   4.305  0.0695 -0.4830  0.2704
  857MOL0     C15582   8.051   3.081   4.302  0.3622  0.0380 -0.6087
  857MOL0     C15583   7.921   3.018   4.347  0.2433  0.6862 -0.5155
  857MOL0     O15584   7.862   2.938   4.238 -0.2128  0.3524 -0.1928
  857MOL0     C15585   7.730   2.898   4.237  0.9626  0.2655  0.2021
  857MOL0     C15586   7.623   2.935   4.322 -0.4358  0.0419 -0.1939
  857MOL0     C15587   7.491   2.884   4.305  0.7697  0.5913 -0.9488
  857MOL0     C15588   7.379   2.939   4.395 -0.2104 -0.2704  0.4025
  857MOL0     C15589   7.466   2.782   4.203 -0.6037  0.3029 -0.6432
  857MOL0     C15590   7.330   2.727   4.167 -0.7624 -0.6189  0.1249
  857MOL0     O15591   7.327   2.610   4.105  0.3329  0.0133  0.3455
  857MOL0     C15592   7.200   2.562   4.066 -0.0175 -0.3531  0.2857
  857MOL0     C15593   7.098   2.543   4.157  0.6152  0.5374  0.3081
  857MOL0     C15594   6.971   2.498   4.122  0.0311  0.0208 -0.3731
  857MOL0     C15595   6.948   2.467   3.987 -0.4965 -0.4563 -0.1983
  857MOL0     O15596   6.817   2.419   3.968  0.3541 -0.2913  0.2851
  857MOL0     C15597   6.781   2.376   3.834 -0.4111 -0.2188 -1.4366
  857MOL0     C15598   6.632   2.368   3.837 -0.7593 -0.2273  1.4376
  857MOL0     C15599   6.563   2.313   3.963 -0.0410  0.3844 -0.2329
  857MOL0     C15600   6.419   2.265   3.947 -0.3232  0.2612 -0.0665
  857MOL0     C15601   6.362   2.219   4.080 -0.0199 -0.5472  0.9846
  857MOL0     C15602   6.219   2.253   4.104  0.2795 -0.3456 -0.1279
  857MOL0     C15603   6.134   2.230   3.988  0.7089 -0.2039  0.3324
  857MOL0     C15604   5.996   2.300   4.014 -0.0767  0.5723  0.1998
  857MOL0    Cl15605   5.900   2.232   4.153  0.0516  0.0912 -0.0689
  857MOL0     C15606   7.042   2.502   3.886 -0.3983 -0.1718  0.2136
  857MOL0     C15607   7.174   2.540   3.926  0.2864 -0.1870  0.2825
  857MOL0     O15608   7.233   2.787   4.203 -0.4767  0.3109  1.1196
  857MOL0     C15609   7.575   2.738   4.117  0.3663 -0.1854  0.2603
  857MOL0     C15610   7.699   2.802   4.136 -0.3588 -0.3083 -0.6702
  857MOL0     N15611   8.288   2.652   4.301  0.4240 -0.1452  0.2006
  857MOL0     N15612   8.410   2.599   4.280 -0.5401  0.0704  0.2638
  857MOL0     C15613   9.592   2.194   4.033  0.0520 -0.7973  0.7208
  857MOL0     C15614   9.695   2.114   4.087 -0.1408 -0.2674  0.2525
  857MOL0     C15615   9.926   1.908   4.439  0.3605  0.4167  0.0561
  857MOL0     C15616   9.901   1.818   4.548 -1.0037  0.7923  0.2128
  857MOL0     C15617  10.006   1.732   4.596 -0.6124 -0.2007  0.4868
  857MOL0     C15618  10.137   1.733   4.532 -0.0142  0.9742 -0.4374
  857MOL0     O15619  10.243   1.658   4.558  0.4600  0.4776 -0.4867
  857MOL0     C15620  10.255   1.563   4.658  0.6273  0.0044 -0.2458
  857MOL0     C15621  10.402   1.519   4.668 -0.1176 -0.7680  0.3033
  857MOL0     C15622  10.455   1.483   4.523 -0.5139 -0.2275  1.1576
  857MOL0     C15623  10.497   1.606   4.428 -0.3538  0.0104 -0.0436
  857MOL0     C15624  10.591   1.566   4.317 -0.2163 -0.4455  0.0598
  857MOL0     C15625  10.669   1.546   4.226 -0.6797  0.0391  0.6644
  857MOL0     C15626  10.152   1.833   4.441  0.0596 -0.3996 -0.2814
  857MOL0     C15627  10.053   1.923   4.387  0.1359 -0.2146  0.4826
  857MOL0     H15628   9.692   2.243   4.402 -2.1434  1.2747  0.6138
  857MOL0     H15629   9.510   2.378   4.302  0.5570 -0.3320  0.2289
  857MOL0     H15630   9.304   2.421   4.203 -1.6224  1.6159 -0.5447
  857MOL0     H15631   9.422   2.539   4.138 -2.4328  0.5944  1.6674
  857MOL0     H15632   9.300   2.569   3.950  0.9053  1.4435  2.9827
  857MOL0     H15633   9.210   2.411   3.947 -1.7277  0.4359  0.8180
  857MOL0     H15634   9.097   2.492   4.161  0.1377 -3.1443 -2.5586
  857MOL0     H15635   9.152   2.658   4.119 -0.1560 -0.9137  0.0492
  857MOL0     H15636   9.042   2.630   3.899  1.0696 -1.5121 -1.0552
  857MOL0     H15637   8.983   2.468   3.936  0.7330  0.0188  0.0883
  857MOL0     H15638   8.882   2.568   4.141  2.5457 -0.4177 -0.4118
  857MOL0     H15639   8.920   2.732   4.078 -0.8378 -0.1241  0.7130
  857MOL0     H15640   8.779   2.639   3.875 -1.1087  3.4660  1.2310
  857MOL0     H15641   8.742   2.492   3.968  1.1118 -0.0202 -1.6694
  857MOL0     H15642   8.669   2.777   3.984  3.2028 -1.3183 -0.4831
  857MOL0     H15643   8.565   2.635   3.954  3.5378 -1.6559 -3.2185
  857MOL0     H15644   8.694   2.733   4.213  0.7593 -0.9747  2.0823
  857MOL0     H15645   8.650   2.571   4.205  0.0456 -0.9569 -0.5173
  857MOL0     H15646   8.415   2.881   4.110  4.1305 -0.2236  0.3894
  857MOL0     H15647   8.110   2.862   4.130 -5.4975 -0.0347  1.9616
  857MOL0     H15648   8.066   2.796   4.281 -1.0246  0.9021  0.0159
  857MOL0     H15649   8.247   3.049   4.277  0.8549 -1.5669  0.0133
  857MOL0     H15650   8.190   2.964   4.410 -2.7320 -3.4756  0.5550
  857MOL0     H15651   8.033   3.137   4.210 -1.1545  2.9229  1.3301
  857MOL0     H15652   8.073   3.163   4.371 -1.3482  0.7555 -0.8684
  857MOL0     H15653   7.847   3.086   4.390 -2.7261 -1.8275 -1.2344
  857MOL0     H15654   7.923   2.946   4.429  0.2224  0.8054 -0.4091
  857MOL0     H15655   7.629   3.013   4.398 -1.5190  1.1424 -1.1768
  857MOL0     H15656   7.370   2.880   4.487 -0.2724  1.7205  1.7375
  857MOL0     H15657   7.417   3.032   4.439  2.7151 -1.8823  1.6334
  857MOL0     H15658   7.279   2.963   4.359 -0.5635  2.0736  2.6763
  857MOL0     H15659   7.118   2.561   4.263  0.4540 -0.5597  0.5312
  857MOL0     H15660   6.888   2.483   4.190 -3.0584  1.7201 -3.4981
  857MOL0     H15661   6.798   2.453   3.758 -3.2729 -0.7679 -2.7430
  857MOL0     H15662   6.846   2.294   3.804  2.0493  0.8719  0.4196
  857MOL0     H15663   6.595   2.469   3.821  1.8693  0.3763 -2.5072
  857MOL0     H15664   6.602   2.314   3.746  1.0948  2.5824 -1.0736
  857MOL0     H15665   6.570   2.392   4.039  0.8220 -0.3679  0.4887
  857MOL0     H15666   6.614   2.227   4.005 -3.6172 -2.2595 -0.8409
  857MOL0     H15667   6.363   2.354   3.919 -1.5173 -0.3049  0.4757
  857MOL0     H15668   6.406   2.187   3.872 -0.2692  0.1144  0.0760
  857MOL0     H15669   6.413   2.278   4.157  0.8134 -0.0741  0.0773
  857MOL0     H15670   6.384   2.113   4.097 -0.9736 -0.6196  1.8729
  857MOL0     H15671   6.182   2.186   4.182 -2.2667  1.5392  0.4021
  857MOL0     H15672   6.215   2.360   4.126 -1.6560 -0.1842 -1.1283
  857MOL0     H15673   6.126   2.124   3.962 -2.3440  0.1716 -0.6921
  857MOL0     H15674   6.162   2.285   3.898 -2.7347  1.5549  0.1541
  857MOL0     H15675   5.937   2.294   3.923  1.2712 -2.8594 -0.6035
  857MOL0     H15676   6.015   2.403   4.045  0.3415 -0.4185  3.6506
  857MOL0     H15677   7.029   2.483   3.780 -2.3276 -1.1841  0.5892
  857MOL0     H15678   7.238   2.558   3.840  1.2137 -2.1916  0.4864
  857MOL0     H15679   7.555   2.649   4.058  0.2145  0.6852 -1.0497
  857MOL0     H15680   7.776   2.773   4.065  0.5699  3.0538 -1.2177
  857MOL0     H15681   9.562   2.172   3.931 -0.5086 -1.0140  0.9287
  857MOL0     H15682   9.738   2.023   4.046  1.1460 -0.1545  1.2842
  857MOL0     H15683   9.801   1.817   4.590 -0.9681 -2.5593  0.4714
  857MOL0     H15684   9.981   1.655   4.669  1.1325 -0.8847  0.4103
  857MOL0     H15685  10.217   1.594   4.756  1.6123 -1.7070  0.7279
  857MOL0     H15686  10.183   1.487   4.625 -0.0564  0.1875  0.7771
  857MOL0     H15687  10.403   1.428   4.729  2.1044  0.9289  3.0448
  857MOL0     H15688  10.463   1.590   4.725  0.6812 -1.4955  0.3729
  857MOL0     H15689  10.376   1.428   4.471  0.2372 -0.6246  0.3911
  857MOL0     H15690  10.538   1.414   4.543  0.4769 -0.0912 -1.9706
  857MOL0     H15691  10.547   1.681   4.491  3.3804 -0.9133 -1.6522
  857MOL0     H15692  10.411   1.652   4.378 -1.3954 -1.3271  0.4613
  857MOL0     H15693  10.738   1.505   4.155 -0.6696 -1.3373  1.4487
  857MOL0     H15694  10.250   1.847   4.397 -0.0226  0.6710 -0.1527
  857MOL0     H15695  10.066   2.004   4.316  1.8205 -1.0129 -0.1790
  858MOL0     O15696   2.557   2.152   3.658  0.4497  0.0806  0.0566
  858MOL0     C15697   2.618   2.260   3.657  0.5157  1.8910 -0.6817
  858MOL0     O15698   2.572   2.374   3.597  0.8237  0.5528  0.3597
  858MOL0     C15699   2.447   2.358   3.538  0.4650 -0.6163  0.6160
  858MOL0     C15700   2.426   2.350   3.396 -0.9021 -0.2800 -0.6417
  858MOL0     C15701   2.302   2.360   3.337  0.3219  0.0407  0.7726
  858MOL0     C15702   2.189   2.361   3.410  1.2135  0.3782 -0.6218
  858MOL0     O15703   2.064   2.353   3.344  0.4196 -0.3225 -0.1768
  858MOL0     C15704   1.951   2.391   3.416  0.2872  0.1188 -0.5136
  858MOL0     C15705   1.844   2.422   3.314  0.0897 -0.0008 -0.0990
  858MOL0     C15706   1.716   2.470   3.382  0.3069 -0.3782  0.0701
  858MOL0     C15707   1.603   2.481   3.281 -0.3238 -0.4661 -0.0955
  858MOL0     C15708   1.475   2.488   3.358 -0.3417  0.4349  0.4183
  858MOL0     C15709   1.436   2.618   3.415  0.3508 -0.1282 -1.5836
  858MOL0     C15710   1.289   2.634   3.469  0.3844 -0.3986  1.0897
  858MOL0     C15711   1.184   2.624   3.354  0.4594 -0.2066 -0.0172
  858MOL0     N15712   1.051   2.650   3.408 -0.4801  0.5321 -0.3873
  858MOL0     C15713   0.989   2.769   3.423  0.4406  0.8514  0.6071
  858MOL0     C15714   0.879   2.738   3.501  0.2515  0.1294 -0.2781
  858MOL0     C15715   0.774   2.834   3.536 -0.6033 -0.0957 -1.3810
  858MOL0     C15716   0.645   2.800   3.459 -1.0261 -0.6860 -0.3995
  858MOL0     C15717   0.541   2.905   3.483 -1.1903 -0.5052  0.1541
  858MOL0     C15718   0.478   2.910   3.626  0.1902 -0.3073  0.5315
  858MOL0     O15719   0.397   3.024   3.619 -0.1117  0.0940  0.1887
  858MOL0     C15720   0.270   2.993   3.618 -0.0230 -0.1913  0.5061
  858MOL0     C15721   0.197   3.000   3.733  0.3217 -0.1249  0.6223
  858MOL0     C15722   0.059   2.975   3.742 -0.0398  0.3685 -0.3288
  858MOL0     C15723   0.002   2.999   3.875  0.0395  0.3205  0.8437
  858MOL0     C15724  -0.011   2.930   3.624 -0.0226 -0.2755  0.3747
  858MOL0     C15725  -0.160   2.885   3.614 -0.8054  0.1799 -0.1581
  858MOL0     O15726  -0.202   2.838   3.488  0.4452  0.3566 -0.4909
  858MOL0     C15727  -0.321   2.766   3.489  0.7323  0.3033  0.1356
  858MOL0     C15728  -0.418   2.795   3.389  0.4754 -0.1154  1.1609
  858MOL0     C15729  -0.545   2.724   3.400 -0.1904  0.6878 -0.2677
  858MOL0     C15730  -0.564   2.613   3.483 -0.4592 -0.7655  0.3729
  858MOL0     O15731  -0.682   2.547   3.475 -0.2314 -0.4616  0.3036
  858MOL0     C15732  -0.723   2.443   3.563 -0.0586  0.6123 -0.1947
  858MOL0     C15733  -0.853   2.383   3.491 -0.2615 -0.6775  0.0348
  858MOL0     C15734  -0.979   2.474   3.503 -0.1223  1.1112  0.4907
  858MOL0     C15735  -1.052   2.484   3.629  0.3796  0.3855 -0.1892
  858MOL0     C15736  -1.115   2.349   3.682  0.1666 -0.3036  0.5724
  858MOL0     C15737  -1.187   2.370   3.813  0.0975 -0.4440  0.6478
  858MOL0     C15738  -1.248   2.234   3.848 -0.6221  0.7903  0.2182
  858MOL0     C15739  -1.332   2.255   3.982  1.0701  0.9762 -0.3657
  858MOL0    Cl15740  -1.219   2.304   4.109 -0.0184  0.2893 -0.0185
  858MOL0     C15741  -0.452   2.571   3.560 -1.1697 -0.6398 -0.5846
  858MOL0     C15742  -0.339   2.652   3.572 -0.6335 -0.2714  0.0551
  858MOL0     O15743  -0.225   2.871   3.719  0.0409 -0.4777 -0.2364
  858MOL0     C15744   0.069   2.927   3.506  0.1447 -0.3431  1.7472
  858MOL0     C15745   0.201   2.964   3.496 -0.2097  0.6493 -0.8812
  858MOL0     N15746   0.895   2.606   3.541  0.0706  0.2063 -0.1851
  858MOL0     N15747   0.990   2.551   3.480  0.1413 -0.7481 -0.5721
  858MOL0     C15748   2.203   2.364   3.549  0.1473 -0.4421 -0.5692
  858MOL0     C15749   2.328   2.369   3.614 -0.4128  0.2974 -0.6774
  858MOL0     C15750   2.758   2.273   3.718  0.0236  0.2150  0.9992
  858MOL0     C15751   2.833   2.394   3.738  0.4032  0.6037 -0.5654
  858MOL0     C15752   2.966   2.382   3.784  0.0791  0.4641 -0.5436
  858MOL0     C15753   3.033   2.263   3.817 -0.0706  0.5091 -1.4983
  858MOL0     O15754   3.167   2.265   3.863 -0.2728  0.0270  0.1141
  858MOL0     C15755   3.246   2.150   3.876  0.3830  0.3736 -0.2179
  858MOL0     C15756   3.246   2.089   4.020 -0.4278  0.3145  1.2266
  858MOL0     C15757   3.314   2.172   4.133 -0.4129 -0.8833 -0.1862
  858MOL0     C15758   3.299   2.120   4.275 -0.3509 -0.2491 -0.1982
  858MOL0     C15759   3.387   2.204   4.353  0.3970 -0.3850 -0.4355
  858MOL0     C15760   3.454   2.270   4.431 -0.2611 -0.2990 -0.3800
  858MOL0     C15761   2.962   2.151   3.802 -0.4493  0.3426  0.9184
  858MOL0     C15762   2.836   2.152   3.738 -0.0862 -0.6032 -0.1337
  858MOL0     H15763   2.516   2.347   3.336  0.3917  1.1556  1.1566
  858MOL0     H15764   2.295   2.369   3.229  1.7798  1.5917  0.7707
  858MOL0     H15765   1.924   2.311   3.485  0.2523  0.5480 -0.0239
  858MOL0     H15766   1.975   2.485   3.467 -0.0364  0.8555 -1.6707
  858MOL0     H15767   1.890   2.500   3.253  0.9622 -0.0567  0.4745
  858MOL0     H15768   1.825   2.328   3.262  1.3774 -0.9158  1.0044
  858MOL0     H15769   1.683   2.402   3.461  1.8558 -3.1259 -1.4571
  858MOL0     H15770   1.736   2.572   3.415  0.1989  0.2696 -1.7436
  858MOL0     H15771   1.595   2.556   3.202  3.4567 -1.4735 -1.6311
  858MOL0     H15772   1.601   2.389   3.222 -0.4103  0.0855 -0.9733
  858MOL0     H15773   1.384   2.467   3.301  1.5589 -0.2206 -2.6063
  858MOL0     H15774   1.472   2.415   3.440 -1.7936  0.0237  0.0384
  858MOL0     H15775   1.508   2.636   3.496 -0.2877  0.4317 -1.1356
  858MOL0     H15776   1.457   2.699   3.345  0.5257  1.4747  0.2467
  858MOL0     H15777   1.263   2.554   3.539  0.9402 -0.1226  1.6138
  858MOL0     H15778   1.274   2.733   3.513  1.6272  0.4198 -0.2476
  858MOL0     H15779   1.187   2.520   3.318  2.5482 -0.6761  1.3467
  858MOL0     H15780   1.207   2.700   3.279  1.1980  0.1543  0.5689
  858MOL0     H15781   1.007   2.864   3.374  1.1587  1.4957  2.0724
  858MOL0     H15782   0.757   2.828   3.644 -0.2986 -0.3835 -1.3480
  858MOL0     H15783   0.796   2.939   3.515  1.8822  0.4573  2.8450
  858MOL0     H15784   0.611   2.703   3.494 -0.4219 -0.4523  0.8940
  858MOL0     H15785   0.658   2.798   3.350  0.0301 -1.6292 -0.2774
  858MOL0     H15786   0.461   2.893   3.408 -0.8809 -0.4243 -0.1951
  858MOL0     H15787   0.586   3.000   3.450  1.4407 -2.2841 -1.7813
  858MOL0     H15788   0.550   2.933   3.705  1.7514 -0.4260 -0.8112
  858MOL0     H15789   0.418   2.825   3.658 -0.1216  0.1080  1.0791
  858MOL0     H15790   0.251   3.031   3.822 -0.7155  4.2160 -0.0335
  858MOL0     H15791  -0.037   2.911   3.928 -1.0145  1.9837  2.9778
  858MOL0     H15792   0.085   3.027   3.942  1.6946  0.7397 -1.2749
  858MOL0     H15793  -0.068   3.083   3.876 -0.2947  0.0441  0.8430
  858MOL0     H15794  -0.397   2.872   3.316 -0.8632 -0.5470  0.2809
  858MOL0     H15795  -0.629   2.743   3.334 -0.0019 -2.8467 -1.7632
  858MOL0     H15796  -0.636   2.378   3.579 -0.1108  0.9484  1.6825
  858MOL0     H15797  -0.744   2.478   3.664  1.5583 -0.6799  0.6310
  858MOL0     H15798  -0.836   2.357   3.387 -0.5286  0.4360 -0.2952
  858MOL0     H15799  -0.870   2.294   3.552 -2.6334  0.2575  0.8904
  858MOL0     H15800  -1.045   2.438   3.423 -0.0505  1.0171  0.4743
  858MOL0     H15801  -0.951   2.576   3.472 -0.4025  0.8453 -0.7218
  858MOL0     H15802  -0.987   2.537   3.699 -0.0055 -3.0935  3.1276
  858MOL0     H15803  -1.139   2.548   3.612 -2.2190 -2.3501  1.6580
  858MOL0     H15804  -1.030   2.280   3.689 -0.5835 -1.1857  1.1685
  858MOL0     H15805  -1.179   2.304   3.606  1.3861 -0.7926 -0.1933
  858MOL0     H15806  -1.109   2.397   3.884  2.1376 -1.7759 -0.9519
  858MOL0     H15807  -1.269   2.442   3.805 -1.0202 -1.8800 -3.7891
  858MOL0     H15808  -1.173   2.156   3.863  0.9922  2.4758  1.3438
  858MOL0     H15809  -1.312   2.202   3.765  0.5898 -0.4471 -0.2674
  858MOL0     H15810  -1.370   2.156   4.009 -0.8038  0.9478 -2.7856
  858MOL0     H15811  -1.417   2.322   3.973 -2.2882 -2.7150  0.8411
  858MOL0     H15812  -0.453   2.477   3.614  2.9095 -0.3620  0.2792
  858MOL0     H15813  -0.259   2.616   3.636  0.2366 -0.0489 -0.8871
  858MOL0     H15814   0.023   2.885   3.417 -1.5681 -0.1485  2.5157
  858MOL0     H15815   0.253   2.954   3.402  1.3046  3.4720 -0.4483
  858MOL0     H15816   2.112   2.372   3.606 -1.1399  0.1840 -2.5857
  858MOL0     H15817   2.324   2.376   3.722  1.6913 -2.2888 -0.3358
  858MOL0     H15818   2.791   2.492   3.719 -0.1849  1.2541  3.2094
  858MOL0     H15819   3.029   2.470   3.782  1.4215 -0.4753 -1.6778
  858MOL0     H15820   3.227   2.081   3.793  2.3719 -1.1447  0.4903
  858MOL0     H15821   3.348   2.186   3.859 -0.0270  1.6383 -0.0596
  858MOL0     H15822   3.305   1.998   4.007  1.3318  1.3702  1.4945
  858MOL0     H15823   3.144   2.056   4.040 -0.9752 -0.2304 -1.9320
  858MOL0     H15824   3.274   2.273   4.125 -2.4432 -1.6006  0.3011
  858MOL0     H15825   3.422   2.175   4.114 -0.3005 -2.8313 -0.1128
  858MOL0     H15826   3.336   2.018   4.291  3.7909  1.2678  1.3151
  858MOL0     H15827   3.198   2.136   4.312  0.1136  3.6727 -0.1932
  858MOL0     H15828   3.507   2.320   4.509  1.0889 -1.3708 -0.5732
  858MOL0     H15829   3.010   2.059   3.833 -0.6143 -0.5197 -1.1478
  858MOL0     H15830   2.805   2.048   3.734  0.9433 -1.0118  1.4817
  859MOL0     O15831  10.209   7.691   8.993 -0.2014 -0.7327  0.0668
  859MOL0     C15832  10.192   7.597   8.912  0.0839  0.0941  0.8143
  859MOL0     O15833  10.099   7.504   8.927 -0.2575 -0.6602  0.1268
  859MOL0     C15834   9.999   7.527   9.011  0.0739 -0.4845  0.0747
  859MOL0     C15835  10.010   7.497   9.148 -0.9182 -0.9164 -0.7506
  859MOL0     C15836   9.902   7.540   9.234  0.0449  0.5510  0.4453
  859MOL0     C15837   9.780   7.577   9.180 -0.0839  0.7110 -0.0589
  859MOL0     O15838   9.676   7.598   9.267  0.0731 -0.1826  0.0755
  859MOL0     C15839   9.547   7.635   9.227  0.6213 -0.2218  1.0289
  859MOL0     C15840   9.470   7.650   9.355 -0.9642  0.1273  0.3974
  859MOL0     C15841   9.322   7.602   9.337  0.6907  0.0076  0.1859
  859MOL0     C15842   9.248   7.651   9.456 -0.0041  0.1841 -1.4005
  859MOL0     C15843   9.106   7.628   9.433  1.1483 -0.2257 -0.0766
  859MOL0     C15844   9.055   7.482   9.434  1.4797  0.3604 -0.2683
  859MOL0     C15845   8.899   7.472   9.457 -0.3361 -0.5988  0.5565
  859MOL0     C15846   8.823   7.533   9.339 -0.4795  0.3744  0.3173
  859MOL0     N15847   8.682   7.547   9.378 -0.1590 -0.9498 -0.1285
  859MOL0     C15848   8.634   7.622   9.478 -0.0216 -0.1753  0.3196
  859MOL0     C15849   8.498   7.593   9.470 -0.0925 -0.6282  1.0509
  859MOL0     C15850   8.386   7.630   9.553 -0.6533 -0.0980 -0.2695
  859MOL0     C15851   8.388   7.562   9.682 -0.0882 -0.4248  0.7822
  859MOL0     C15852   8.297   7.632   9.782 -0.4693 -0.7427 -0.1784
  859MOL0     C15853   8.262   7.531   9.881 -0.5838 -0.6496  0.3665
  859MOL0     O15854   8.186   7.603   9.980 -0.2257 -0.1468  0.2769
  859MOL0     C15855   8.126   7.529  10.079  0.6066 -0.1666 -0.3511
  859MOL0     C15856   8.161   7.393  10.105  0.8524 -0.7298  0.4312
  859MOL0     C15857   8.093   7.322  10.214 -0.0008  0.3435  0.5792
  859MOL0     C15858   8.153   7.182  10.253 -0.2643 -0.0359  0.8132
  859MOL0     C15859   7.989   7.382  10.284 -0.3886  0.7037 -0.8565
  859MOL0     C15860   7.908   7.310  10.385  0.2741 -0.8301 -0.0662
  859MOL0     O15861   7.814   7.381  10.447 -0.7980  0.2758  0.6182
  859MOL0     C15862   7.730   7.313  10.531 -0.2555 -0.6377 -0.7708
  859MOL0     C15863   7.611   7.273  10.474 -0.1932 -0.1795 -0.4591
  859MOL0     C15864   7.525   7.186  10.547  0.0080 -0.2402  0.2527
  859MOL0     C15865   7.561   7.135  10.673 -0.7809 -0.1632  0.1751
  859MOL0     O15866   7.475   7.048  10.734  0.6171 -0.1053 -0.1370
  859MOL0     C15867   7.471   7.041  10.879  0.4017  0.4380  0.2488
  859MOL0     C15868   7.331   7.019  10.920  0.3623  0.5575 -0.3750
  859MOL0     C15869   7.284   6.874  10.882  0.2107 -1.0543 -0.0314
  859MOL0     C15870   7.134   6.853  10.904 -0.0655 -0.2314  0.0864
  859MOL0     C15871   7.101   6.716  10.854 -0.0841 -0.2221 -0.0815
  859MOL0     C15872   6.962   6.667  10.900 -0.2439  0.3832  0.4469
  859MOL0     C15873   6.845   6.745  10.829 -0.2047  1.1875  0.7328
  859MOL0     C15874   6.701   6.687  10.860 -0.2319  0.9396  0.4237
  859MOL0    Cl15875   6.667   6.666  11.033  0.2571 -0.1355  0.0520
  859MOL0     C15876   7.686   7.173  10.734 -0.7542  0.0800  0.2504
  859MOL0     C15877   7.772   7.258  10.661  0.3911 -0.6744 -0.1985
  859MOL0     O15878   7.917   7.186  10.393  0.3423  0.0118  0.4388
  859MOL0     C15879   7.962   7.522  10.262  0.1195  0.7950  0.6880
  859MOL0     C15880   8.025   7.589  10.159  0.3038  0.3237  0.6987
  859MOL0     N15881   8.467   7.514   9.359 -0.0251  0.4365 -0.1471
  859MOL0     N15882   8.581   7.485   9.305 -0.5281  0.3282 -0.2491
  859MOL0     C15883   9.762   7.596   9.038 -0.6352 -0.8569  0.3167
  859MOL0     C15884   9.877   7.575   8.955  0.3346 -0.2683 -0.2267
  859MOL0     C15885  10.285   7.576   8.801  0.2067  0.2996 -0.3053
  859MOL0     C15886  10.277   7.483   8.691  0.7972  0.3000 -0.2927
  859MOL0     C15887  10.363   7.485   8.577  0.0849  0.3802  0.1015
  859MOL0     C15888  10.473   7.567   8.583 -0.5290 -0.3660 -0.2716
  859MOL0     O15889  10.562   7.578   8.481 -0.4214 -0.8493 -0.0853
  859MOL0     C15890  10.637   7.456   8.471  0.3340  0.0097 -0.8001
  859MOL0     C15891  10.743   7.459   8.358  0.6346  0.3042 -0.2056
  859MOL0     C15892  10.837   7.336   8.362 -0.3152  0.6140  0.0720
  859MOL0     C15893  10.986   7.373   8.322  0.9310 -0.0517  0.8332
  859MOL0     C15894  11.053   7.471   8.412 -0.5615  0.3519  0.0323
  859MOL0     C15895  11.102   7.553   8.489 -0.2629  0.6321  0.8964
  859MOL0     C15896  10.494   7.661   8.695 -0.1720  0.2826  0.7843
  859MOL0     C15897  10.394   7.658   8.792 -0.1753 -0.6955 -0.6076
  859MOL0     H15898  10.104   7.466   9.193 -1.2042 -0.1840  0.4006
  859MOL0     H15899   9.919   7.544   9.341  0.9074 -1.8223  0.4695
  859MOL0     H15900   9.532   7.727   9.170 -0.1995 -1.1086 -0.2248
  859MOL0     H15901   9.498   7.557   9.167 -2.0869  3.0023 -1.3261
  859MOL0     H15902   9.515   7.577   9.424  0.2758  1.6830  1.2926
  859MOL0     H15903   9.481   7.753   9.389 -1.8351  0.1310  0.6824
  859MOL0     H15904   9.288   7.650   9.245 -0.1791  2.4698  1.6969
  859MOL0     H15905   9.324   7.493   9.335  0.0919 -0.0071  0.0633
  859MOL0     H15906   9.296   7.610   9.546  0.4070  2.1473 -0.6629
  859MOL0     H15907   9.280   7.755   9.466  1.3837 -0.3567  0.5006
  859MOL0     H15908   9.056   7.685   9.512  0.6352  4.7986 -3.5706
  859MOL0     H15909   9.077   7.660   9.333  0.3130 -6.1487 -2.1355
  859MOL0     H15910   9.083   7.435   9.340 -1.5438 -0.9588 -0.6072
  859MOL0     H15911   9.105   7.420   9.510  0.4574 -0.2594 -0.0839
  859MOL0     H15912   8.857   7.373   9.477 -0.5448 -0.8883 -1.1519
  859MOL0     H15913   8.868   7.530   9.544 -1.2638 -2.1070  1.2718
  859MOL0     H15914   8.829   7.458   9.260 -0.6130  0.7052 -0.0159
  859MOL0     H15915   8.860   7.627   9.296 -0.5986  0.5043  0.4966
  859MOL0     H15916   8.689   7.680   9.551 -2.8666  2.0645  0.8278
  859MOL0     H15917   8.386   7.739   9.567  0.6175  0.0086 -0.9772
  859MOL0     H15918   8.294   7.600   9.501  0.8364 -0.9662 -2.5850
  859MOL0     H15919   8.489   7.567   9.725 -1.0136 -1.5625  3.2926
  859MOL0     H15920   8.376   7.453   9.674 -0.0189 -0.3641 -0.2692
  859MOL0     H15921   8.211   7.676   9.731 -0.6703 -0.2844  0.5296
  859MOL0     H15922   8.355   7.713   9.830 -3.1001  1.2741 -0.1858
  859MOL0     H15923   8.353   7.498   9.931 -0.1499 -1.3603 -0.8374
  859MOL0     H15924   8.210   7.446   9.835 -0.4442  0.0888 -1.2431
  859MOL0     H15925   8.242   7.344  10.052 -0.5434 -1.0831 -1.4651
  859MOL0     H15926   8.166   7.175  10.361 -0.9650  0.8489  0.9696
  859MOL0     H15927   8.083   7.101  10.228  0.9038 -1.2248  1.2688
  859MOL0     H15928   8.252   7.161  10.211  0.6626  1.9042  1.8810
  859MOL0     H15929   7.583   7.297  10.372 -2.1715 -0.6378 -0.0609
  859MOL0     H15930   7.431   7.154  10.505 -0.7583  1.2916  0.7183
  859MOL0     H15931   7.533   6.959  10.918  0.1830 -0.5509 -1.4054
  859MOL0     H15932   7.505   7.129  10.934  1.4208  0.4464 -0.3609
  859MOL0     H15933   7.325   7.036  11.028 -0.1975 -3.4708  0.3859
  859MOL0     H15934   7.265   7.091  10.871  0.7766  1.7268  0.7472
  859MOL0     H15935   7.346   6.795  10.927  0.7591 -1.0870 -0.8266
  859MOL0     H15936   7.292   6.872  10.773 -0.9813  1.3024 -0.2302
  859MOL0     H15937   7.114   6.860  11.011 -0.8448  0.7808 -0.1117
  859MOL0     H15938   7.074   6.932  10.858  2.7712  0.7700 -2.2983
  859MOL0     H15939   7.180   6.647  10.888 -1.0096  0.9915  5.3805
  859MOL0     H15940   7.092   6.713  10.745  0.1045  0.3964 -0.1172
  859MOL0     H15941   6.944   6.561  10.880 -1.5526  0.9668 -1.9035
  859MOL0     H15942   6.950   6.666  11.008  0.7332 -2.5024  0.5917
  859MOL0     H15943   6.843   6.739  10.720 -0.9687  2.2557  0.6724
  859MOL0     H15944   6.836   6.851  10.854 -1.2838  1.1833  0.4082
  859MOL0     H15945   6.678   6.598  10.800 -0.0157  2.1078 -1.4600
  859MOL0     H15946   6.625   6.756  10.823 -4.3179 -2.3074  1.9999
  859MOL0     H15947   7.724   7.136  10.828 -2.1494 -0.2647  0.7030
  859MOL0     H15948   7.868   7.279  10.707 -0.4855 -1.3703  2.0862
  859MOL0     H15949   7.890   7.584  10.314 -0.9523  1.3497 -1.3467
  859MOL0     H15950   7.989   7.689  10.137 -0.2279 -0.2802 -1.3047
  859MOL0     H15951   9.672   7.630   8.988  0.8781 -1.3470 -3.1032
  859MOL0     H15952   9.857   7.597   8.850 -0.5471 -1.8714 -0.4225
  859MOL0     H15953  10.210   7.399   8.706  1.3317 -0.0254  0.3277
  859MOL0     H15954  10.347   7.423   8.489  3.5296  0.1101 -0.4827
  859MOL0     H15955  10.684   7.443   8.569 -3.2291  0.3632  1.1011
  859MOL0     H15956  10.569   7.371   8.461 -1.0443  0.9980 -0.1839
  859MOL0     H15957  10.797   7.554   8.363 -1.5425  1.9607 -3.9849
  859MOL0     H15958  10.697   7.473   8.260 -2.5186  1.6106  1.3125
  859MOL0     H15959  10.805   7.257   8.293  3.5639  0.0883 -1.3659
  859MOL0     H15960  10.838   7.294   8.463  0.3236  0.3729 -0.0298
  859MOL0     H15961  10.984   7.416   8.222  1.4456 -1.4778  0.1952
  859MOL0     H15962  11.040   7.279   8.314 -0.3576 -0.6406 -2.0155
  859MOL0     H15963  11.158   7.622   8.549 -1.8118  2.4720  0.2951
  859MOL0     H15964  10.567   7.740   8.708 -1.9576  1.6449  3.5215
  859MOL0     H15965  10.399   7.731   8.873 -3.5424 -0.8076 -0.1751
  860MOL0     O15966   3.257   0.233   1.962  0.3437 -0.1744  0.0745
  860MOL0     C15967   3.245   0.186   2.074  0.3981 -0.0531  0.2359
  860MOL0     O15968   3.135   0.133   2.128 -0.1791  0.0468 -0.7790
  860MOL0     C15969   3.006   0.153   2.087 -0.5497 -0.4511  0.1814
  860MOL0     C15970   2.915   0.141   2.193 -1.2090 -0.4188 -0.5378
  860MOL0     C15971   2.775   0.151   2.170 -0.0829 -0.3326  0.3092
  860MOL0     C15972   2.718   0.179   2.044  0.3903 -0.8563  0.3556
  860MOL0     O15973   2.582   0.206   2.020  0.4066 -0.0705 -0.2704
  860MOL0     C15974   2.506   0.088   1.991  0.2558 -0.1352 -0.2932
  860MOL0     C15975   2.375   0.119   1.907 -0.3140  0.2070 -0.0630
  860MOL0     C15976   2.295   0.240   1.954  0.3423 -0.8733  0.2493
  860MOL0     C15977   2.163   0.248   1.877 -0.0148 -0.3780  0.2582
  860MOL0     C15978   2.102   0.392   1.905  0.4578 -0.1615 -0.2587
  860MOL0     C15979   1.965   0.410   1.843  0.1613 -0.2598  0.4647
  860MOL0     C15980   1.886   0.537   1.862 -0.0826 -0.2669 -0.3970
  860MOL0     C15981   1.748   0.523   1.808  0.3588 -0.2265  0.3977
  860MOL0     N15982   1.670   0.427   1.893 -0.2629 -0.5472 -0.2130
  860MOL0     C15983   1.641   0.453   2.032  0.4318 -0.4448 -0.3374
  860MOL0     C15984   1.536   0.370   2.060 -0.3288 -0.6967 -0.4694
  860MOL0     C15985   1.462   0.364   2.192 -0.4319  0.1289 -0.2084
  860MOL0     C15986   1.309   0.370   2.170 -0.0609  0.2060 -0.3327
  860MOL0     C15987   1.262   0.493   2.095  0.4541  0.9972  0.2133
  860MOL0     C15988   1.110   0.521   2.110 -0.1880  0.2104 -0.1235
  860MOL0     O15989   1.033   0.404   2.105  0.4341  0.3679  0.3487
  860MOL0     C15990   0.914   0.403   2.175 -0.1461  0.3591  0.2928
  860MOL0     C15991   0.839   0.525   2.202  0.0566 -0.7011  0.5340
  860MOL0     C15992   0.711   0.506   2.260  0.2480 -0.4298 -0.2260
  860MOL0     C15993   0.636   0.632   2.305 -0.3272  0.1751 -0.2916
  860MOL0     C15994   0.661   0.377   2.272  0.0942  0.1432 -0.3447
  860MOL0     C15995   0.522   0.355   2.328 -0.0014  0.8389  0.2051
  860MOL0     O15996   0.477   0.430   2.428 -0.5460  0.8877  0.2106
  860MOL0     C15997   0.347   0.425   2.466  0.6493 -0.4548 -0.1850
  860MOL0     C15998   0.300   0.317   2.549 -0.4148 -0.6173 -0.1461
  860MOL0     C15999   0.165   0.302   2.581 -0.7197  0.0265 -0.7291
  860MOL0     C16000   0.086   0.411   2.560  0.2452 -0.4408  0.0243
  860MOL0     O16001  -0.045   0.391   2.596  0.9225 -0.0729  0.4501
  860MOL0     C16002  -0.138   0.376   2.491  0.0540  0.4767  0.1224
  860MOL0     C16003  -0.267   0.386   2.565 -0.4125  0.9581 -0.3899
  860MOL0     C16004  -0.284   0.532   2.616  0.3438  0.3227  0.2842
  860MOL0     C16005  -0.421   0.542   2.682 -0.1355  0.4321 -0.5421
  860MOL0     C16006  -0.435   0.679   2.760  0.0656  0.0066  0.1636
  860MOL0     C16007  -0.466   0.798   2.665 -0.5112  0.8051  0.6372
  860MOL0     C16008  -0.468   0.924   2.750  0.0108  0.5628  0.7165
  860MOL0     C16009  -0.605   0.964   2.801 -0.1247 -0.2537 -0.0735
  860MOL0    Cl16010  -0.743   0.963   2.675 -0.4401  0.2671 -0.3778
  860MOL0     C16011   0.127   0.519   2.487  0.4318  0.5110  0.4683
  860MOL0     C16012   0.253   0.519   2.436 -0.1029 -0.1766 -0.0689
  860MOL0     O16013   0.457   0.269   2.269  0.2263  0.1255 -0.3153
  860MOL0     C16014   0.740   0.267   2.252 -1.1809  0.1144  0.9655
  860MOL0     C16015   0.869   0.275   2.203  0.4317 -0.5880 -0.5193
  860MOL0     N16016   1.501   0.303   1.946 -0.2496  0.0464 -0.3170
  860MOL0     N16017   1.572   0.348   1.845  0.1402 -0.1566 -0.2315
  860MOL0     C16018   2.815   0.183   1.937 -0.2929 -0.2178  0.8041
  860MOL0     C16019   2.959   0.179   1.966  0.4679  0.7152 -0.2708
  860MOL0     C16020   3.368   0.176   2.159 -1.0109  0.9607 -0.3860
  860MOL0     C16021   3.496   0.184   2.101 -0.2012 -0.5075 -0.5364
  860MOL0     C16022   3.613   0.181   2.178 -0.9880  0.0957 -0.1763
  860MOL0     C16023   3.609   0.157   2.319 -0.0696 -0.4212 -0.6076
  860MOL0     O16024   3.724   0.133   2.392  0.5170 -0.0705 -0.3525
  860MOL0     C16025   3.718   0.118   2.537  0.7788 -0.3141  0.1138
  860MOL0     C16026   3.857   0.074   2.593  0.2014 -0.4429 -0.8054
  860MOL0     C16027   3.863   0.054   2.743 -0.1507  0.3200  0.4412
  860MOL0     C16028   4.009   0.021   2.802 -0.3830 -0.0530  0.0473
  860MOL0     C16029   4.014   0.078   2.938 -0.4078 -0.8128  0.1366
  860MOL0     C16030   4.019   0.135   3.045  0.4842 -0.8354  0.0677
  860MOL0     C16031   3.481   0.150   2.374  0.1064 -0.8060 -0.0901
  860MOL0     C16032   3.362   0.151   2.303 -0.6735  0.6125 -0.7777
  860MOL0     H16033   2.948   0.124   2.295 -3.7030  0.6113  0.5099
  860MOL0     H16034   2.705   0.134   2.252  1.7166 -3.6909  1.3505
  860MOL0     H16035   2.563   0.016   1.931  0.1253 -2.1834  1.8729
  860MOL0     H16036   2.477   0.039   2.085 -1.9488 -0.6932 -1.2074
  860MOL0     H16037   2.384   0.115   1.798 -0.3064 -0.2944 -0.0470
  860MOL0     H16038   2.305   0.037   1.924 -3.7654  2.8972 -0.0178
  860MOL0     H16039   2.270   0.233   2.060  0.6056 -0.7913  0.3172
  860MOL0     H16040   2.352   0.332   1.941 -1.0737 -0.0240 -0.1223
  860MOL0     H16041   2.181   0.250   1.769  0.4479 -2.0577  0.2731
  860MOL0     H16042   2.082   0.179   1.901  0.3914 -0.1955  2.3324
  860MOL0     H16043   2.090   0.407   2.012  1.5616 -0.2308 -0.1049
  860MOL0     H16044   2.171   0.469   1.868 -0.8864  1.5884  0.7648
  860MOL0     H16045   1.965   0.403   1.733 -3.0148  3.1431  0.0440
  860MOL0     H16046   1.908   0.331   1.893 -2.5692  2.5649  2.1969
  860MOL0     H16047   1.892   0.553   1.970  2.2230 -0.0261 -0.5236
  860MOL0     H16048   1.942   0.609   1.802  1.9650 -0.1057  1.5837
  860MOL0     H16049   1.759   0.490   1.704  1.5314  2.3187 -0.3493
  860MOL0     H16050   1.696   0.619   1.808 -0.1923 -0.5031 -0.7708
  860MOL0     H16051   1.694   0.520   2.099 -1.1566  0.1292  0.4173
  860MOL0     H16052   1.485   0.272   2.245 -1.1615 -0.8754 -1.5661
  860MOL0     H16053   1.493   0.444   2.260 -0.9166  0.0736  0.0865
  860MOL0     H16054   1.269   0.370   2.272  1.9936 -0.6358  0.5202
  860MOL0     H16055   1.271   0.281   2.118 -1.0013 -0.0779  0.7909
  860MOL0     H16056   1.272   0.470   1.988 -0.4284  0.6341  0.1968
  860MOL0     H16057   1.330   0.576   2.117  1.3626  0.1689  0.6140
  860MOL0     H16058   1.082   0.590   2.029  4.4488  1.5653 -0.8825
  860MOL0     H16059   1.111   0.564   2.210  3.8497 -2.1204  1.0705
  860MOL0     H16060   0.878   0.622   2.170  2.7368 -1.9661 -0.3531
  860MOL0     H16061   0.667   0.727   2.261  2.7119  0.1760  1.5918
  860MOL0     H16062   0.527   0.631   2.292 -0.8564 -0.5944  3.2059
  860MOL0     H16063   0.670   0.645   2.408 -2.8954  0.3031  0.6208
  860MOL0     H16064   0.351   0.226   2.579 -1.1213 -1.7453 -2.1623
  860MOL0     H16065   0.127   0.209   2.620 -2.0705  0.3507 -1.2141
  860MOL0     H16066  -0.144   0.455   2.416 -3.2857 -0.5116 -0.8372
  860MOL0     H16067  -0.134   0.274   2.450  0.2598  0.5297  0.0087
  860MOL0     H16068  -0.346   0.350   2.499  1.4465  0.3674 -2.3865
  860MOL0     H16069  -0.271   0.314   2.648 -0.5370  2.1562  0.6812
  860MOL0     H16070  -0.280   0.602   2.531 -2.4250  1.3146  0.8595
  860MOL0     H16071  -0.201   0.563   2.680 -1.1772  0.5384  2.2277
  860MOL0     H16072  -0.503   0.513   2.616 -0.8873  1.3337 -0.0307
  860MOL0     H16073  -0.423   0.474   2.767 -1.2637 -0.0952 -0.9696
  860MOL0     H16074  -0.348   0.709   2.820 -1.6961  2.1368  1.8240
  860MOL0     H16075  -0.516   0.666   2.833 -0.1869  0.0085 -0.1165
  860MOL0     H16076  -0.383   0.809   2.595 -3.5529  1.2582 -3.2227
  860MOL0     H16077  -0.557   0.779   2.608 -0.5933  0.2359  0.9414
  860MOL0     H16078  -0.429   1.001   2.683 -2.0727  0.1867 -1.0425
  860MOL0     H16079  -0.393   0.912   2.829  1.5814  0.7171 -0.6909
  860MOL0     H16080  -0.599   1.071   2.822  1.7576  0.5261 -3.6996
  860MOL0     H16081  -0.624   0.905   2.891 -0.4163  2.0621  1.4431
  860MOL0     H16082   0.059   0.603   2.471  2.5673  2.3749  0.6601
  860MOL0     H16083   0.277   0.599   2.367  1.9752 -0.0594  0.7122
  860MOL0     H16084   0.701   0.168   2.275 -0.0554 -0.1035  2.0073
  860MOL0     H16085   0.936   0.192   2.182  0.5294 -0.3681 -1.1259
  860MOL0     H16086   2.799   0.187   1.830  0.0660 -1.5855  0.6893
  860MOL0     H16087   3.028   0.174   1.882  2.8614  1.0623  1.5924
  860MOL0     H16088   3.501   0.207   1.995 -0.9405  5.4009  0.3569
  860MOL0     H16089   3.712   0.193   2.135 -1.6364 -0.3245 -1.8810
  860MOL0     H16090   3.698   0.222   2.566  1.1521  0.7211 -2.9741
  860MOL0     H16091   3.638   0.048   2.561 -0.6400  2.1860  3.2666
  860MOL0     H16092   3.926   0.154   2.565 -0.8867  0.4265 -1.0368
  860MOL0     H16093   3.899  -0.013   2.542 -1.4462 -2.1913  0.6465
  860MOL0     H16094   3.811  -0.041   2.753 -1.5391  0.3289 -4.2786
  860MOL0     H16095   3.824   0.142   2.794  0.6146  0.7102  0.3628
  860MOL0     H16096   4.082   0.078   2.743 -2.1925  0.4841 -1.7815
  860MOL0     H16097   4.037  -0.084   2.802  0.0777  0.0302  2.3608
  860MOL0     H16098   4.007   0.184   3.140  0.1146  0.1587 -0.4724
  860MOL0     H16099   3.460   0.141   2.480 -2.6975 -2.1570 -0.6615
  860MOL0     H16100   3.265   0.146   2.351  0.3821 -2.9306  1.3436
  861MOL0     O16101   1.250   8.352   0.546  0.4835 -0.6686 -0.4258
  861MOL0     C16102   1.264   8.289   0.442  0.0276 -0.5925 -0.7101
  861MOL0     O16103   1.156   8.244   0.371  0.8138 -0.0894 -0.3505
  861MOL0     C16104   1.050   8.177   0.433 -0.5965  0.1653  0.0632
  861MOL0     C16105   0.933   8.155   0.364  0.5047 -0.1944 -0.1547
  861MOL0     C16106   0.826   8.087   0.418 -0.5038  0.7936 -0.6433
  861MOL0     C16107   0.844   8.027   0.548  0.4499  0.6361  0.3210
  861MOL0     O16108   0.745   7.952   0.614  0.3824  0.1814 -0.2558
  861MOL0     C16109   0.613   7.946   0.557 -0.2371  0.0416  0.2106
  861MOL0     C16110   0.529   7.849   0.631  0.1293  0.0279 -0.9134
  861MOL0     C16111   0.472   7.901   0.763  0.5767  0.5988 -1.6883
  861MOL0     C16112   0.350   8.006   0.756 -0.4621  0.5653 -0.5273
  861MOL0     C16113   0.334   8.065   0.894  0.7843 -0.0078 -0.1089
  861MOL0     C16114   0.428   8.189   0.922  0.4244  1.8214  0.0815
  861MOL0     C16115   0.434   8.220   1.078 -0.5315  0.5113 -0.6154
  861MOL0     C16116   0.328   8.331   1.123 -0.2663  0.4706  0.7334
  861MOL0     N16117   0.193   8.264   1.141  0.8385  0.1261  0.2435
  861MOL0     C16118   0.154   8.148   1.199 -0.2075  0.4041 -1.3189
  861MOL0     C16119   0.018   8.144   1.184  0.4218 -0.7239 -0.8559
  861MOL0     C16120  -0.083   8.039   1.236 -0.7845  0.2124  0.5891
  861MOL0     C16121  -0.157   8.112   1.339  0.1881  0.3203 -0.8383
  861MOL0     C16122  -0.256   8.015   1.407  0.3400 -0.0460 -0.1161
  861MOL0     C16123  -0.368   7.953   1.315  0.0286 -0.6124 -0.3711
  861MOL0     O16124  -0.443   8.048   1.244  0.0784 -0.0211 -0.0452
  861MOL0     C16125  -0.541   7.991   1.158  0.2417 -0.4821 -0.5405
  861MOL0     C16126  -0.573   7.853   1.154 -0.5654  0.2869  0.0688
  861MOL0     C16127  -0.668   7.799   1.066  0.5288 -0.8825 -1.0836
  861MOL0     C16128  -0.683   7.657   1.071 -0.0210  0.5913 -0.4736
  861MOL0     C16129  -0.747   7.888   0.982 -1.2303  0.3445 -0.3412
  861MOL0     C16130  -0.836   7.842   0.870 -0.4206 -0.6304  0.3777
  861MOL0     O16131  -0.889   7.936   0.784 -0.5627  0.0605 -0.3334
  861MOL0     C16132  -0.996   7.875   0.713  0.5585  0.0121  0.2489
  861MOL0     C16133  -1.122   7.913   0.736 -0.3268 -0.4244 -0.2671
  861MOL0     C16134  -1.226   7.876   0.651  0.4726  0.4254  0.1521
  861MOL0     C16135  -1.206   7.809   0.535  0.0979 -0.1773  0.8863
  861MOL0     O16136  -1.307   7.778   0.452  0.8703 -0.2763 -0.3852
  861MOL0     C16137  -1.432   7.722   0.513  0.0561 -0.1429  0.2440
  861MOL0     C16138  -1.539   7.821   0.473  1.4452 -0.4032  0.5262
  861MOL0     C16139  -1.675   7.770   0.503  0.2920 -0.2562  0.3083
  861MOL0     C16140  -1.737   7.670   0.398 -0.5954 -1.2025  0.6520
  861MOL0     C16141  -1.843   7.576   0.449 -0.7848  0.9690  0.2174
  861MOL0     C16142  -1.988   7.613   0.440 -0.0041 -0.4355 -0.8223
  861MOL0     C16143  -2.082   7.521   0.516 -1.1866 -0.2516  0.1194
  861MOL0     C16144  -2.221   7.562   0.526 -0.1949 -0.5141  0.2281
  861MOL0    Cl16145  -2.212   7.712   0.634 -0.2983  0.0287  0.0222
  861MOL0     C16146  -1.081   7.766   0.509 -0.3437 -0.3371  0.0861
  861MOL0     C16147  -0.980   7.799   0.594 -0.3013  0.7561 -1.3832
  861MOL0     O16148  -0.867   7.720   0.870 -0.6182 -0.1725 -0.7756
  861MOL0     C16149  -0.720   8.028   0.996  0.2780 -0.1162 -0.8530
  861MOL0     C16150  -0.618   8.074   1.085  0.7101  0.1791  0.2227
  861MOL0     N16151  -0.024   8.261   1.116  0.1107  0.1092 -0.2246
  861MOL0     N16152   0.084   8.328   1.088  0.0041 -0.7465 -0.6471
  861MOL0     C16153   0.968   8.037   0.612  0.1334  0.3566  0.6394
  861MOL0     C16154   1.063   8.122   0.561 -0.3462  1.5464  1.1157
  861MOL0     C16155   1.398   8.263   0.393  1.1255  0.6016 -0.2419
  861MOL0     C16156   1.506   8.311   0.461  0.0798 -0.3254 -0.3844
  861MOL0     C16157   1.637   8.270   0.429  0.2961 -0.0813 -0.1648
  861MOL0     C16158   1.658   8.198   0.311 -0.1287  0.5790  0.2645
  861MOL0     O16159   1.783   8.178   0.268 -0.5866 -0.6550  0.0442
  861MOL0     C16160   1.892   8.290   0.265  0.2742 -0.0136  0.5700
  861MOL0     C16161   1.945   8.289   0.115  0.2660 -0.4947  0.0639
  861MOL0     C16162   2.025   8.426   0.098  0.3914 -0.2101  0.0161
  861MOL0     C16163   2.084   8.445  -0.036 -0.2676 -0.3657 -0.7307
  861MOL0     C16164   1.997   8.413  -0.148 -0.0752 -0.1458 -0.4881
  861MOL0     C16165   1.964   8.388  -0.260  0.8805  0.4050  0.6070
  861MOL0     C16166   1.550   8.144   0.243  0.0766 -0.3476 -0.0904
  861MOL0     C16167   1.421   8.166   0.289 -0.5346 -0.0013 -0.9837
  861MOL0     H16168   0.892   8.208   0.278 -2.0154  4.4350  3.4438
  861MOL0     H16169   0.733   8.079   0.363 -0.8950 -0.9855  0.1725
  861MOL0     H16170   0.572   8.047   0.560 -0.2009  0.0663 -0.1376
  861MOL0     H16171   0.611   7.919   0.451  1.1570  3.2150 -0.7395
  861MOL0     H16172   0.439   7.829   0.572 -0.9696  0.5807  0.4971
  861MOL0     H16173   0.584   7.760   0.661 -1.9475 -0.5302  1.5785
  861MOL0     H16174   0.428   7.811   0.807 -1.2151  1.9808 -0.5044
  861MOL0     H16175   0.556   7.931   0.827 -0.8501 -2.0542  1.8155
  861MOL0     H16176   0.376   8.077   0.676 -1.0093  0.7928 -0.5069
  861MOL0     H16177   0.260   7.961   0.714  0.6529 -1.8409 -0.5242
  861MOL0     H16178   0.234   8.110   0.906  1.0494  0.7240 -0.5767
  861MOL0     H16179   0.338   7.987   0.970 -0.1986  0.3910  0.3729
  861MOL0     H16180   0.521   8.153   0.876 -1.5907 -0.8216 -2.3067
  861MOL0     H16181   0.398   8.279   0.869 -1.9144  1.0335 -0.0365
  861MOL0     H16182   0.432   8.124   1.131 -2.3842 -2.0882 -4.9064
  861MOL0     H16183   0.530   8.268   1.102 -1.1157  0.6087  1.7174
  861MOL0     H16184   0.324   8.421   1.061 -0.3189  0.1878  0.3242
  861MOL0     H16185   0.367   8.371   1.217 -0.0186  0.3841  0.6689
  861MOL0     H16186   0.221   8.076   1.243  1.1904  1.7657 -1.1400
  861MOL0     H16187  -0.157   8.021   1.158  1.8128 -2.2909 -1.5166
  861MOL0     H16188  -0.040   7.948   1.278 -2.2733 -0.4259  0.7686
  861MOL0     H16189  -0.211   8.198   1.299 -3.8255  0.2697  3.6278
  861MOL0     H16190  -0.088   8.154   1.412  2.4633 -2.8306 -0.9515
  861MOL0     H16191  -0.300   8.073   1.489  2.3868  0.6458  0.5676
  861MOL0     H16192  -0.193   7.932   1.440  2.6797  1.5588 -0.2681
  861MOL0     H16193  -0.430   7.909   1.393  2.0072  1.1781  2.3648
  861MOL0     H16194  -0.322   7.883   1.244 -1.6251 -1.5268 -0.5972
  861MOL0     H16195  -0.511   7.782   1.207 -0.2952 -1.6493 -2.6416
  861MOL0     H16196  -0.625   7.608   1.149  0.4965  0.3557 -1.0040
  861MOL0     H16197  -0.787   7.631   1.096  0.1858  2.0996  2.3240
  861MOL0     H16198  -0.654   7.617   0.973 -1.2477  2.8466 -1.8423
  861MOL0     H16199  -1.148   7.979   0.819 -3.6901 -1.6053 -0.2314
  861MOL0     H16200  -1.328   7.912   0.659  0.2637  0.3441 -1.7409
  861MOL0     H16201  -1.448   7.626   0.462  0.7283  0.3629 -0.9557
  861MOL0     H16202  -1.434   7.712   0.622 -0.4655 -1.1443  0.1596
  861MOL0     H16203  -1.521   7.916   0.526 -1.4852  1.1655 -1.0536
  861MOL0     H16204  -1.537   7.840   0.366  1.6865  2.8784  1.0056
  861MOL0     H16205  -1.747   7.850   0.521  1.3004  0.5909  0.7283
  861MOL0     H16206  -1.666   7.716   0.597  2.8539  1.8961  1.4278
  861MOL0     H16207  -1.767   7.725   0.308 -2.9219 -0.9326  1.5367
  861MOL0     H16208  -1.646   7.615   0.374 -0.8084 -1.1935 -0.1911
  861MOL0     H16209  -1.830   7.574   0.558 -1.0254  0.5982  0.2418
  861MOL0     H16210  -1.835   7.476   0.406 -3.7741  1.3140 -1.4237
  861MOL0     H16211  -2.002   7.720   0.460 -2.6317 -0.5964 -1.4037
  861MOL0     H16212  -2.008   7.587   0.335 -0.8336 -3.6641  0.0483
  861MOL0     H16213  -2.051   7.518   0.622 -1.7556  2.2725  0.4215
  861MOL0     H16214  -2.070   7.421   0.473  2.4974  0.3906 -0.6998
  861MOL0     H16215  -2.287   7.487   0.570 -1.4231  1.3031  1.6123
  861MOL0     H16216  -2.258   7.589   0.427 -1.0541 -0.8126  0.4633
  861MOL0     H16217  -1.053   7.702   0.426 -1.1437 -4.1009  2.4866
  861MOL0     H16218  -0.884   7.749   0.590 -1.7626 -3.0583  2.8649
  861MOL0     H16219  -0.789   8.084   0.933 -0.7425 -1.4900 -1.0177
  861MOL0     H16220  -0.592   8.179   1.080  0.3267  0.2284 -1.3566
  861MOL0     H16221   0.977   8.000   0.714 -1.9461  0.1668  0.7936
  861MOL0     H16222   1.142   8.143   0.632 -0.4059  1.9006  1.0771
  861MOL0     H16223   1.496   8.392   0.533 -0.7074 -0.9464  0.2303
  861MOL0     H16224   1.720   8.293   0.496  0.6592 -1.3494 -0.1445
  861MOL0     H16225   1.847   8.389   0.283 -3.5875 -1.1589 -1.5242
  861MOL0     H16226   1.969   8.277   0.342 -1.9726 -1.0177  2.8029
  861MOL0     H16227   1.859   8.286   0.047 -1.6600 -1.3374  2.3575
  861MOL0     H16228   2.008   8.201   0.100  1.9417  0.6108  0.3320
  861MOL0     H16229   2.106   8.438   0.172 -1.2663  1.9305  1.6015
  861MOL0     H16230   1.951   8.505   0.114  3.1894  2.7558 -0.6331
  861MOL0     H16231   2.180   8.395  -0.050 -0.9612 -1.7856 -0.6173
  861MOL0     H16232   2.096   8.554  -0.035 -2.5714 -0.0725  0.7774
  861MOL0     H16233   1.925   8.343  -0.349 -1.7233 -1.0824  2.3820
  861MOL0     H16234   1.567   8.074   0.162  0.3090  0.3947 -0.6947
  861MOL0     H16235   1.337   8.128   0.232 -1.0808  0.4793 -0.5211
  862MOL0     O16236   4.134   6.214   5.659 -0.1365  0.6811 -0.0591
  862MOL0     C16237   4.254   6.217   5.691 -0.0020 -0.3512  0.3693
  862MOL0     O16238   4.329   6.122   5.773  0.1699 -0.7255  0.0017
  862MOL0     C16239   4.268   6.002   5.779  0.0273  0.7534 -0.0618
  862MOL0     C16240   4.350   5.887   5.742  0.2289 -0.7944  0.1397
  862MOL0     C16241   4.307   5.760   5.760 -0.3671  0.4867 -0.2171
  862MOL0     C16242   4.175   5.745   5.815 -1.1974  0.7828  0.0985
  862MOL0     O16243   4.110   5.620   5.833  0.1081 -0.4122  0.4092
  862MOL0     C16244   4.137   5.513   5.747 -0.7127  0.5371  0.6918
  862MOL0     C16245   4.026   5.417   5.730  0.0273  0.6077  1.1096
  862MOL0     C16246   3.903   5.494   5.662  0.2330 -0.6693 -0.1058
  862MOL0     C16247   3.800   5.526   5.779  0.5624 -0.3423  0.2818
  862MOL0     C16248   3.680   5.606   5.729  0.4240 -0.4147 -0.1230
  862MOL0     C16249   3.703   5.760   5.714 -0.4821 -0.1994  0.1323
  862MOL0     C16250   3.581   5.838   5.686 -0.1820 -0.6564 -0.3882
  862MOL0     C16251   3.620   5.988   5.709 -0.1456  0.8714 -0.0383
  862MOL0     N16252   3.509   6.078   5.709 -0.2331 -0.5760 -0.5072
  862MOL0     C16253   3.415   6.101   5.610  0.6531  0.0863  0.2682
  862MOL0     C16254   3.336   6.201   5.663 -0.2226 -0.0058 -0.2175
  862MOL0     C16255   3.208   6.245   5.596  0.1180 -0.1821 -0.9744
  862MOL0     C16256   3.242   6.318   5.468 -0.6017 -0.0943  0.4308
  862MOL0     C16257   3.127   6.380   5.402 -0.7933  0.4626 -0.0900
  862MOL0     C16258   3.167   6.438   5.266  0.5511  0.6378 -0.1608
  862MOL0     O16259   3.102   6.562   5.254  0.0856 -0.3164 -0.4122
  862MOL0     C16260   2.973   6.576   5.255  0.2594 -0.0685  0.1541
  862MOL0     C16261   2.878   6.472   5.227 -0.0134 -0.6851  0.6968
  862MOL0     C16262   2.741   6.499   5.206  0.0686  0.5196  0.7152
  862MOL0     C16263   2.648   6.392   5.178  0.5628  0.4964  0.9032
  862MOL0     C16264   2.704   6.638   5.192  0.6453  0.0416  0.6016
  862MOL0     C16265   2.560   6.678   5.161 -0.1436  0.4259 -0.9166
  862MOL0     O16266   2.519   6.801   5.217  0.0196 -0.6291  0.5028
  862MOL0     C16267   2.392   6.845   5.208 -0.8979  0.7428 -0.5752
  862MOL0     C16268   2.364   6.984   5.200  0.0109 -0.2547 -0.4790
  862MOL0     C16269   2.228   7.025   5.213 -0.0861  0.4776 -0.4289
  862MOL0     C16270   2.121   6.936   5.228  0.3774 -0.2641 -0.0818
  862MOL0     O16271   1.997   6.995   5.247 -1.1461 -0.3029 -0.6983
  862MOL0     C16272   1.903   6.920   5.331 -0.8747 -0.4264  0.7538
  862MOL0     C16273   1.767   6.989   5.315 -0.2705 -0.5720 -0.0800
  862MOL0     C16274   1.701   7.001   5.172  0.3872  0.6422 -0.6791
  862MOL0     C16275   1.584   7.101   5.157 -0.4241  0.1437 -0.5488
  862MOL0     C16276   1.445   7.065   5.204  0.3625  0.3436 -0.2391
  862MOL0     C16277   1.376   6.968   5.113 -0.4024  0.6438 -0.0456
  862MOL0     C16278   1.343   7.022   4.978 -0.2365 -0.3684  0.2239
  862MOL0     C16279   1.273   6.917   4.902  0.2217  0.2245  0.6011
  862MOL0    Cl16280   1.382   6.812   4.828 -0.1117 -0.2393 -0.0154
  862MOL0     C16281   2.151   6.797   5.240  0.7852 -0.2860  0.4526
  862MOL0     C16282   2.281   6.758   5.226  0.7407 -0.2384  0.0088
  862MOL0     O16283   2.500   6.617   5.080  0.3529  0.2886  0.5593
  862MOL0     C16284   2.796   6.736   5.227  0.3771  0.4651  0.5776
  862MOL0     C16285   2.925   6.701   5.261  0.6923 -0.5480  0.0399
  862MOL0     N16286   3.396   6.243   5.787  0.5912  0.6549  0.3705
  862MOL0     N16287   3.498   6.167   5.811  0.1135  0.2707  0.2768
  862MOL0     C16288   4.095   5.851   5.845 -0.7698 -0.0349 -1.2503
  862MOL0     C16289   4.142   5.982   5.827  0.1656  0.1437 -0.4186
  862MOL0     C16290   4.326   6.328   5.643 -0.1667 -0.1354 -0.7335
  862MOL0     C16291   4.467   6.328   5.637 -0.0779 -0.7335  0.5480
  862MOL0     C16292   4.541   6.443   5.601 -0.2758  0.0832  0.6130
  862MOL0     C16293   4.470   6.559   5.566 -0.3020 -0.2686 -0.0440
  862MOL0     O16294   4.538   6.666   5.525 -0.1988  0.3388  0.3516
  862MOL0     C16295   4.685   6.673   5.523 -0.1607 -0.6384  0.8712
  862MOL0     C16296   4.732   6.803   5.449 -0.0109  0.2828 -0.3839
  862MOL0     C16297   4.884   6.802   5.426 -0.0922  0.0927 -0.0852
  862MOL0     C16298   4.921   6.907   5.321 -0.4011  0.6137 -0.2516
  862MOL0     C16299   4.916   6.855   5.186  0.2114  0.9992  0.3654
  862MOL0     C16300   4.925   6.787   5.080  0.3613 -0.6626  0.3352
  862MOL0     C16301   4.330   6.566   5.569  0.3315  0.6980  0.2588
  862MOL0     C16302   4.259   6.449   5.609 -0.5693  0.4184 -0.8193
  862MOL0     H16303   4.452   5.913   5.714 -0.9852  3.4225 -1.0248
  862MOL0     H16304   4.363   5.673   5.727 -0.2459 -0.1914  1.6635
  862MOL0     H16305   4.161   5.554   5.649  0.2017  0.9045  1.0521
  862MOL0     H16306   4.227   5.458   5.777 -0.8733 -1.2312 -1.7399
  862MOL0     H16307   4.055   5.343   5.656 -1.7559  1.6841 -0.7672
  862MOL0     H16308   4.003   5.362   5.822 -2.1101  0.8815  0.7865
  862MOL0     H16309   3.927   5.591   5.618 -0.5882  0.2115  1.3333
  862MOL0     H16310   3.861   5.428   5.586  1.9059 -0.1481 -1.5449
  862MOL0     H16311   3.763   5.429   5.813 -0.7844 -1.1986 -3.1379
  862MOL0     H16312   3.850   5.582   5.857 -1.3225 -0.0827  1.3639
  862MOL0     H16313   3.650   5.570   5.630  0.8581  0.5809 -0.6315
  862MOL0     H16314   3.599   5.593   5.801  0.7524 -1.4576  0.0753
  862MOL0     H16315   3.759   5.794   5.801  1.8955 -0.4134 -1.2382
  862MOL0     H16316   3.784   5.774   5.641  0.3222  0.6221  1.1662
  862MOL0     H16317   3.545   5.818   5.585 -1.5724  1.7896 -0.4494
  862MOL0     H16318   3.507   5.810   5.761 -1.5668  0.0328 -1.4567
  862MOL0     H16319   3.689   6.008   5.626  2.4645 -0.0491  1.7858
  862MOL0     H16320   3.688   5.998   5.794  1.2018  1.0029 -1.0945
  862MOL0     H16321   3.412   6.053   5.512  0.8271  0.5186  0.0471
  862MOL0     H16322   3.132   6.166   5.587  0.1065 -0.5071  1.2632
  862MOL0     H16323   3.170   6.326   5.658  2.0849 -0.0087  0.0891
  862MOL0     H16324   3.276   6.244   5.396 -0.5494 -0.0862  0.4474
  862MOL0     H16325   3.323   6.390   5.484  1.3450 -2.1354  0.2885
  862MOL0     H16326   3.102   6.465   5.466  1.9034  3.2374 -2.4749
  862MOL0     H16327   3.049   6.306   5.382  0.5026 -1.2423  0.9069
  862MOL0     H16328   3.125   6.378   5.184 -1.6570  3.2250 -1.0658
  862MOL0     H16329   3.275   6.451   5.253  0.1961  3.8030 -0.5893
  862MOL0     H16330   2.907   6.370   5.248  3.2180  0.6301  3.8624
  862MOL0     H16331   2.664   6.308   5.246  0.2052 -0.5890 -0.3021
  862MOL0     H16332   2.542   6.417   5.185 -0.4444 -2.5442 -1.2986
  862MOL0     H16333   2.674   6.344   5.083  0.0823  1.2654  0.3727
  862MOL0     H16334   2.443   7.054   5.175  0.0849 -1.6461 -5.0386
  862MOL0     H16335   2.207   7.130   5.200 -0.6415  0.5392  0.8416
  862MOL0     H16336   1.898   6.818   5.292 -0.0134  0.3683 -1.6195
  862MOL0     H16337   1.937   6.920   5.435  1.4659 -1.3021  0.0663
  862MOL0     H16338   1.694   6.938   5.378 -2.1758 -0.7217 -2.2871
  862MOL0     H16339   1.774   7.092   5.352 -2.1199  0.1588 -1.5938
  862MOL0     H16340   1.679   6.904   5.128  1.6874  1.7555 -4.1244
  862MOL0     H16341   1.784   7.043   5.115  0.1707  3.1616  0.6757
  862MOL0     H16342   1.614   7.179   5.227  0.9926 -0.8348 -0.0116
  862MOL0     H16343   1.584   7.137   5.054 -0.3812  0.3552 -0.4744
  862MOL0     H16344   1.385   7.155   5.220  1.0256  0.9221 -0.9141
  862MOL0     H16345   1.457   7.017   5.301  1.2319 -1.0095 -0.9778
  862MOL0     H16346   1.444   6.882   5.102 -0.0612  0.6871  1.5469
  862MOL0     H16347   1.282   6.934   5.157 -1.5628 -0.2674 -2.9843
  862MOL0     H16348   1.432   7.064   4.930 -1.4557  0.4791 -1.4127
  862MOL0     H16349   1.280   7.111   4.990  0.1019  0.3940 -2.7702
  862MOL0     H16350   1.215   6.961   4.820  0.5156 -3.0894 -1.5697
  862MOL0     H16351   1.205   6.857   4.964 -0.5587 -1.2785 -1.5855
  862MOL0     H16352   2.073   6.730   5.273 -0.2925 -0.3380 -1.9863
  862MOL0     H16353   2.302   6.659   5.265 -0.8626  0.4229  2.8448
  862MOL0     H16354   2.776   6.843   5.220  0.9945  0.5444 -0.0429
  862MOL0     H16355   2.985   6.787   5.292 -0.3614 -0.0615  0.7939
  862MOL0     H16356   3.997   5.834   5.886  0.3878 -2.1161  0.8394
  862MOL0     H16357   4.093   6.069   5.871  2.6577  0.7097  1.5176
  862MOL0     H16358   4.527   6.240   5.660  3.0746  0.7066 -1.5483
  862MOL0     H16359   4.649   6.436   5.609 -0.2000 -1.2463 -0.9989
  862MOL0     H16360   4.731   6.671   5.622  1.3843  2.3864  0.3554
  862MOL0     H16361   4.720   6.597   5.452 -4.9803 -0.5703 -2.0128
  862MOL0     H16362   4.708   6.893   5.507  1.4249  0.4858 -0.0805
  862MOL0     H16363   4.686   6.802   5.349  2.7584 -5.2661 -2.0148
  862MOL0     H16364   4.924   6.707   5.392 -0.1003  0.4856 -1.2174
  862MOL0     H16365   4.929   6.834   5.521 -0.7502  2.0771 -0.3903
  862MOL0     H16366   5.028   6.918   5.340 -0.2764  1.0035 -1.1426
  862MOL0     H16367   4.885   7.010   5.328  0.5186  0.8458  1.9243
  862MOL0     H16368   4.929   6.731   4.988  1.9101  2.9063 -1.9754
  862MOL0     H16369   4.286   6.664   5.552 -0.6919  0.3541  0.8525
  862MOL0     H16370   4.152   6.466   5.620 -0.6646 -0.3728 -0.4879
  863MOL0     O16371   6.442   7.284   8.599  0.6778  0.0875  0.0108
  863MOL0     C16372   6.460   7.240   8.710  0.1526 -0.0838  0.1213
  863MOL0     O16373   6.360   7.188   8.792 -0.9589 -0.4078  0.3860
  863MOL0     C16374   6.239   7.220   8.760  0.1047  0.1313  0.3421
  863MOL0     C16375   6.194   7.355   8.763  1.1838  0.3251  0.9778
  863MOL0     C16376   6.059   7.382   8.741 -0.5572 -0.2126  0.0194
  863MOL0     C16377   5.968   7.277   8.712  0.2533 -0.4043 -0.4216
  863MOL0     O16378   5.838   7.301   8.685  0.1058  0.3137  0.5151
  863MOL0     C16379   5.774   7.415   8.734 -0.1964  0.7029  0.9036
  863MOL0     C16380   5.624   7.397   8.727 -0.5902 -0.1888  0.3540
  863MOL0     C16381   5.552   7.539   8.735  0.2091 -0.2452 -0.1863
  863MOL0     C16382   5.396   7.517   8.712 -0.2233  0.1090  0.8533
  863MOL0     C16383   5.322   7.647   8.669 -0.3886 -0.3211 -1.1462
  863MOL0     C16384   5.171   7.626   8.656  0.0716 -0.5863 -0.1882
  863MOL0     C16385   5.102   7.745   8.595 -0.8319 -0.2345 -0.2363
  863MOL0     C16386   4.960   7.744   8.635  0.3204  0.4400  0.2862
  863MOL0     N16387   4.899   7.870   8.600 -0.1217  0.0318  0.6645
  863MOL0     C16388   4.775   7.914   8.649 -0.8699 -1.6595 -0.4694
  863MOL0     C16389   4.769   8.039   8.600 -0.5114  0.0247 -0.1070
  863MOL0     C16390   4.668   8.137   8.633 -0.5287  0.0354  0.4210
  863MOL0     C16391   4.641   8.164   8.782  0.4030 -0.9204  0.4967
  863MOL0     C16392   4.571   8.296   8.805  1.0094 -0.5277  0.1529
  863MOL0     C16393   4.654   8.417   8.780 -0.1772 -0.2299  0.2666
  863MOL0     O16394   4.595   8.531   8.833  0.0972 -0.4205 -0.1106
  863MOL0     C16395   4.493   8.593   8.764 -0.6440 -0.6850 -0.4627
  863MOL0     C16396   4.445   8.705   8.826  0.9790  0.3652 -0.1907
  863MOL0     C16397   4.350   8.791   8.768 -0.6365 -0.2239 -0.5564
  863MOL0     C16398   4.311   8.908   8.838  0.0793 -0.4505 -0.3969
  863MOL0     C16399   4.303   8.758   8.636  0.8419 -0.2595  0.1428
  863MOL0     C16400   4.199   8.840   8.559  0.1716  0.0606  0.5479
  863MOL0     O16401   4.163   8.970   8.609 -0.5532 -0.1548 -0.4067
  863MOL0     C16402   4.066   9.041   8.543  0.3913  0.4749  0.4056
  863MOL0     C16403   4.126   9.115   8.450 -0.6376  0.7937 -0.3773
  863MOL0     C16404   4.044   9.194   8.370  0.2957  1.3059 -0.7597
  863MOL0     C16405   3.908   9.200   8.384 -0.4953  0.3578 -0.6986
  863MOL0     O16406   3.839   9.283   8.305 -0.4810  0.5438  0.1227
  863MOL0     C16407   3.715   9.325   8.351  0.6877  0.5892  0.3462
  863MOL0     C16408   3.588   9.251   8.313 -0.1140  0.3365  0.1238
  863MOL0     C16409   3.461   9.328   8.351  0.5536  0.1567 -0.7108
  863MOL0     C16410   3.465   9.480   8.333  0.1965  0.1244 -0.1987
  863MOL0     C16411   3.322   9.533   8.330 -0.8876  0.4190 -0.6044
  863MOL0     C16412   3.256   9.537   8.466  0.5351  0.4331  0.2974
  863MOL0     C16413   3.108   9.593   8.458 -0.9444 -0.0620  1.4765
  863MOL0     C16414   3.054   9.611   8.600  0.8186 -0.2722  0.1256
  863MOL0    Cl16415   3.024   9.454   8.672 -0.0411  0.4160  0.2219
  863MOL0     C16416   3.849   9.122   8.491 -0.1428 -0.0241 -0.2167
  863MOL0     C16417   3.931   9.035   8.568 -0.6282 -0.5777  0.0063
  863MOL0     O16418   4.144   8.795   8.457  0.1706 -0.3547 -0.6250
  863MOL0     C16419   4.353   8.639   8.574  0.1619  0.1544  0.0927
  863MOL0     C16420   4.447   8.563   8.637 -0.7378 -0.3620 -0.0669
  863MOL0     N16421   4.875   8.058   8.504  0.1811 -0.8780 -0.5223
  863MOL0     N16422   4.955   7.964   8.518  0.2868  0.6023  0.2600
  863MOL0     C16423   6.023   7.146   8.697 -0.8132 -0.6765  0.5075
  863MOL0     C16424   6.155   7.119   8.717  0.8635  0.2234 -0.3431
  863MOL0     C16425   6.575   7.263   8.789  0.1368 -0.5800 -0.0065
  863MOL0     C16426   6.592   7.213   8.917  0.0833 -0.8706 -0.1157
  863MOL0     C16427   6.708   7.214   8.983 -0.8044  0.2957 -0.4561
  863MOL0     C16428   6.824   7.259   8.925  0.4863 -0.7193 -0.3101
  863MOL0     O16429   6.949   7.230   8.985  0.2524 -0.3850  0.3558
  863MOL0     C16430   7.065   7.293   8.923 -1.0152 -0.5246  0.0795
  863MOL0     C16431   7.196   7.261   9.000  0.5004 -0.4414 -0.1530
  863MOL0     C16432   7.322   7.302   8.935  0.4927  0.3403  0.2502
  863MOL0     C16433   7.411   7.368   9.033 -0.5286  0.4528  0.2886
  863MOL0     C16434   7.455   7.270   9.138  0.4036 -0.1841  0.1826
  863MOL0     C16435   7.482   7.201   9.238 -1.0549 -0.7316  0.8062
  863MOL0     C16436   6.804   7.325   8.806 -0.1649 -0.2698  0.0404
  863MOL0     C16437   6.685   7.325   8.744  0.2821 -0.6816  0.0179
  863MOL0     H16438   6.254   7.441   8.788  0.4862  0.8354  0.9328
  863MOL0     H16439   6.033   7.486   8.754 -1.1850 -0.2059 -1.1901
  863MOL0     H16440   5.797   7.433   8.839  0.5090  0.6973  0.7536
  863MOL0     H16441   5.802   7.505   8.677  1.6633 -0.0097  0.6502
  863MOL0     H16442   5.595   7.350   8.632 -0.0991 -0.7505  0.4738
  863MOL0     H16443   5.590   7.332   8.808  3.9176 -0.0823  2.6528
  863MOL0     H16444   5.570   7.589   8.830 -1.0458  0.6002 -0.3753
  863MOL0     H16445   5.590   7.602   8.654  3.2957 -0.0075  1.3057
  863MOL0     H16446   5.381   7.448   8.629 -0.7412  0.2741  0.8070
  863MOL0     H16447   5.346   7.472   8.798 -1.1705 -0.9166 -0.1917
  863MOL0     H16448   5.344   7.723   8.745  1.7484 -0.7808 -1.2143
  863MOL0     H16449   5.377   7.679   8.579 -0.9477  0.9705 -1.0499
  863MOL0     H16450   5.157   7.530   8.605  0.8102 -1.1387  0.6100
  863MOL0     H16451   5.129   7.625   8.757  0.2800 -1.5187 -0.0990
  863MOL0     H16452   5.140   7.835   8.644 -1.5063 -0.5557  0.9137
  863MOL0     H16453   5.121   7.758   8.488  0.5386  2.6927  0.2768
  863MOL0     H16454   4.940   7.730   8.742 -1.8613  0.2446 -0.1019
  863MOL0     H16455   4.896   7.668   8.588 -1.8650  2.8519 -0.8450
  863MOL0     H16456   4.719   7.878   8.735  1.3850 -1.7097  1.0594
  863MOL0     H16457   4.704   8.229   8.587 -3.5799  2.5942  2.6756
  863MOL0     H16458   4.577   8.124   8.574  0.6972  3.1722 -2.4763
  863MOL0     H16459   4.736   8.169   8.835 -1.1491  3.3793  3.4326
  863MOL0     H16460   4.575   8.083   8.817  0.1878 -0.3593  1.4321
  863MOL0     H16461   4.541   8.304   8.910 -0.1173 -0.7125 -0.1378
  863MOL0     H16462   4.482   8.296   8.741  0.9741  2.0486  0.1180
  863MOL0     H16463   4.693   8.419   8.677  0.1413  0.1749  0.3921
  863MOL0     H16464   4.739   8.394   8.845  0.9855 -0.7854 -1.3749
  863MOL0     H16465   4.495   8.730   8.920  0.7498  0.6312 -0.1373
  863MOL0     H16466   4.362   8.994   8.792 -1.0113  0.5111  0.1487
  863MOL0     H16467   4.204   8.928   8.845  0.3033  0.4471  0.9681
  863MOL0     H16468   4.340   8.904   8.943  2.3851 -0.1768 -0.9528
  863MOL0     H16469   4.235   9.118   8.446 -0.3370 -2.1776  1.9488
  863MOL0     H16470   4.088   9.262   8.298 -1.6854  1.1405 -2.1873
  863MOL0     H16471   3.711   9.343   8.459 -0.6130 -2.9003  1.0145
  863MOL0     H16472   3.713   9.423   8.302  1.5197 -0.6454 -2.3293
  863MOL0     H16473   3.590   9.238   8.204  1.3190 -0.0280  0.1771
  863MOL0     H16474   3.580   9.149   8.353  2.0186 -0.4713 -1.3341
  863MOL0     H16475   3.443   9.308   8.456 -2.2946  1.2707 -0.9027
  863MOL0     H16476   3.374   9.292   8.296  0.4363 -1.2334  0.3461
  863MOL0     H16477   3.522   9.520   8.417 -1.1304  1.4179  0.1383
  863MOL0     H16478   3.518   9.506   8.241  1.4907 -0.2146  0.4288
  863MOL0     H16479   3.268   9.469   8.260  1.6601  0.7059 -2.9975
  863MOL0     H16480   3.332   9.635   8.292  1.4693  0.4494 -0.1034
  863MOL0     H16481   3.260   9.439   8.513  2.1769  0.2415 -0.1781
  863MOL0     H16482   3.315   9.608   8.524  0.1211  1.8863 -0.9777
  863MOL0     H16483   3.052   9.528   8.391 -1.0057  1.1816  0.2923
  863MOL0     H16484   3.117   9.688   8.405  0.6575 -1.5873 -1.2061
  863MOL0     H16485   2.963   9.672   8.605  0.4361 -0.8286  0.0466
  863MOL0     H16486   3.132   9.670   8.648  0.2804  2.7312 -2.3438
  863MOL0     H16487   3.745   9.118   8.521  0.0532 -0.5617  0.4220
  863MOL0     H16488   3.884   8.980   8.649 -1.4509 -1.8396 -1.2747
  863MOL0     H16489   4.320   8.609   8.474 -0.0234 -0.9561  0.4692
  863MOL0     H16490   4.481   8.475   8.584 -0.5902  0.2914 -1.0712
  863MOL0     H16491   5.951   7.074   8.661 -0.4979 -0.4631 -0.5804
  863MOL0     H16492   6.181   7.016   8.696 -2.3790 -1.1130  1.4352
  863MOL0     H16493   6.508   7.177   8.976  0.1446 -1.0225 -0.1216
  863MOL0     H16494   6.703   7.158   9.075 -1.8683 -0.8233 -1.1558
  863MOL0     H16495   7.070   7.248   8.823  1.3117  0.7279 -0.4541
  863MOL0     H16496   7.054   7.398   8.893  1.4440  0.7016  2.9994
  863MOL0     H16497   7.205   7.154   9.020  2.4186 -0.2898 -0.0072
  863MOL0     H16498   7.180   7.309   9.097 -0.1784 -1.4239  0.2333
  863MOL0     H16499   7.307   7.362   8.845  1.3433 -0.7576 -0.6638
  863MOL0     H16500   7.364   7.209   8.895 -0.9560  0.2031 -1.0749
  863MOL0     H16501   7.359   7.453   9.078 -4.1889 -1.3434 -0.2257
  863MOL0     H16502   7.493   7.395   8.966  1.9420 -5.6512  0.2614
  863MOL0     H16503   7.510   7.125   9.307  1.3444 -0.9837 -0.3462
  863MOL0     H16504   6.885   7.381   8.759 -0.6806 -0.4710 -1.1397
  863MOL0     H16505   6.675   7.376   8.649 -2.5642 -0.9902  0.0770
  864MOL0     O16506   6.222   2.585   4.445 -0.9193  0.1143 -0.2460
  864MOL0     C16507   6.267   2.480   4.486 -0.1902  0.7537 -0.4642
  864MOL0     O16508   6.198   2.385   4.563  0.1144  0.0364  0.2724
  864MOL0     C16509   6.068   2.410   4.586 -0.2797 -0.0856  0.1353
  864MOL0     C16510   6.027   2.495   4.690  0.0310  0.0536 -0.6587
  864MOL0     C16511   5.894   2.540   4.712  0.5639  0.1975 -0.2353
  864MOL0     C16512   5.791   2.472   4.639 -0.1245  0.3272 -0.2786
  864MOL0     O16513   5.666   2.526   4.651 -0.5170 -0.0105  0.3889
  864MOL0     C16514   5.563   2.458   4.584  0.1184  0.4167  0.2155
  864MOL0     C16515   5.434   2.540   4.602 -0.4259 -0.2601 -0.2037
  864MOL0     C16516   5.319   2.482   4.533  0.5984  0.6656 -0.1914
  864MOL0     C16517   5.305   2.324   4.558 -0.1343  0.5274 -0.2956
  864MOL0     C16518   5.168   2.282   4.515 -0.1752  0.3163  0.2467
  864MOL0     C16519   5.143   2.131   4.551  0.3309 -0.5357  0.3618
  864MOL0     C16520   4.990   2.100   4.543 -0.3105  0.7940  0.7226
  864MOL0     C16521   4.942   2.080   4.401 -0.3099  0.6444  0.0992
  864MOL0     N16522   4.800   2.080   4.403  0.0418 -0.2034  0.0167
  864MOL0     C16523   4.713   1.978   4.418 -0.1836 -0.4286 -0.3696
  864MOL0     C16524   4.589   2.032   4.428  0.9113  0.4656 -0.0547
  864MOL0     C16525   4.468   1.942   4.432  0.5777  1.3147  0.5588
  864MOL0     C16526   4.387   1.964   4.302  0.3211 -0.7867  1.4549
  864MOL0     C16527   4.290   1.850   4.267  0.3391  0.1648  0.0905
  864MOL0     C16528   4.152   1.905   4.229  0.1237  0.0135  0.0136
  864MOL0     O16529   4.077   1.788   4.190  0.1943  0.8717 -0.0185
  864MOL0     C16530   3.954   1.805   4.229 -0.8471 -0.6088 -0.2961
  864MOL0     C16531   3.869   1.873   4.145  0.0392 -0.5892 -0.6559
  864MOL0     C16532   3.733   1.888   4.190 -0.7373 -0.4377  0.6195
  864MOL0     C16533   3.633   1.945   4.089 -0.8372 -0.0729 -0.7823
  864MOL0     C16534   3.698   1.818   4.313 -0.9021  0.2115 -0.0742
  864MOL0     C16535   3.556   1.794   4.354  0.8329  0.1500  0.1113
  864MOL0     O16536   3.532   1.759   4.480 -0.0414 -0.3373  0.8086
  864MOL0     C16537   3.410   1.718   4.520  0.2216 -0.1221 -0.4010
  864MOL0     C16538   3.321   1.797   4.604  0.3339 -0.2967 -0.0324
  864MOL0     C16539   3.186   1.751   4.632  1.0880  0.2423 -0.4517
  864MOL0     C16540   3.149   1.621   4.586 -0.4016  0.4641 -0.7504
  864MOL0     O16541   3.027   1.573   4.613  0.2726  0.4034 -0.1549
  864MOL0     C16542   2.983   1.446   4.562 -0.2677  0.0396  0.6173
  864MOL0     C16543   2.854   1.398   4.631 -0.0278 -0.4835 -0.3401
  864MOL0     C16544   2.748   1.501   4.602  0.5885  0.5773 -1.1733
  864MOL0     C16545   2.610   1.441   4.606  0.1930  0.8193 -0.2184
  864MOL0     C16546   2.504   1.544   4.643  0.2666 -1.0294  0.1451
  864MOL0     C16547   2.487   1.558   4.795  0.6853  0.2037  0.3706
  864MOL0     C16548   2.364   1.633   4.827  0.4288 -0.1402  0.5311
  864MOL0     C16549   2.323   1.599   4.973  0.0873 -0.0816  0.2707
  864MOL0    Cl16550   2.186   1.712   5.026 -0.0375 -0.2032  0.3500
  864MOL0     C16551   3.246   1.542   4.516  0.8197 -0.2453  0.0359
  864MOL0     C16552   3.368   1.598   4.470 -0.0525  0.9209 -0.6192
  864MOL0     O16553   3.468   1.792   4.265 -0.4530  0.4432 -0.3775
  864MOL0     C16554   3.788   1.750   4.390 -0.2900  0.9664 -0.2676
  864MOL0     C16555   3.917   1.749   4.356  0.5600 -0.3062 -0.1144
  864MOL0     N16556   4.600   2.166   4.410  0.2080 -0.5597  0.3250
  864MOL0     N16557   4.721   2.190   4.404  0.4961 -0.0449  1.2827
  864MOL0     C16558   5.829   2.366   4.553 -0.0644  0.2962 -0.3842
  864MOL0     C16559   5.967   2.341   4.528 -0.2014  0.2831  0.0439
  864MOL0     C16560   6.405   2.439   4.456 -0.0801 -0.1282  0.2140
  864MOL0     C16561   6.443   2.302   4.471  0.4477 -0.9310  0.2181
  864MOL0     C16562   6.578   2.275   4.466  0.7060  0.4229  0.0021
  864MOL0     C16563   6.668   2.368   4.415  0.6097  0.0721  0.5700
  864MOL0     O16564   6.799   2.341   4.401 -0.2635 -0.2972 -0.5242
  864MOL0     C16565   6.860   2.319   4.528 -0.8957 -0.5258 -0.6308
  864MOL0     C16566   6.990   2.384   4.559  0.2065 -0.0154  0.4175
  864MOL0     C16567   6.988   2.543   4.545  0.7917  0.1068  0.5158
  864MOL0     C16568   7.109   2.608   4.608  0.3640 -0.6393 -0.6610
  864MOL0     C16569   7.241   2.564   4.560  0.2018  0.3870 -0.0746
  864MOL0     C16570   7.353   2.538   4.509  0.3632  0.1973 -0.1300
  864MOL0     C16571   6.629   2.503   4.395 -0.5926  1.2003 -0.1437
  864MOL0     C16572   6.493   2.535   4.413  0.2474 -0.5371 -0.0244
  864MOL0     H16573   6.103   2.547   4.748 -1.4745  1.4643  0.1308
  864MOL0     H16574   5.875   2.622   4.780  1.6603  1.4489 -1.3822
  864MOL0     H16575   5.577   2.439   4.478  0.4592  1.0524  0.1411
  864MOL0     H16576   5.559   2.371   4.650  1.0958  0.6696  0.6161
  864MOL0     H16577   5.406   2.549   4.708  1.1951  0.3493  0.2013
  864MOL0     H16578   5.458   2.641   4.568 -0.7400 -0.5323 -1.2531
  864MOL0     H16579   5.231   2.539   4.561  0.4316  1.4261 -2.1199
  864MOL0     H16580   5.347   2.507   4.430  3.0754  0.9927  0.4955
  864MOL0     H16581   5.382   2.266   4.508  0.7675  1.5917 -0.1834
  864MOL0     H16582   5.322   2.293   4.662 -2.0258 -1.5335 -0.5323
  864MOL0     H16583   5.102   2.356   4.561  2.0402  3.0678 -0.6644
  864MOL0     H16584   5.148   2.308   4.411 -1.0510  3.3494  1.0508
  864MOL0     H16585   5.204   2.063   4.490  0.6665 -0.2255  0.3506
  864MOL0     H16586   5.176   2.115   4.654  3.9758  1.4989 -0.3137
  864MOL0     H16587   4.967   2.007   4.595  3.2358 -1.2588 -1.0398
  864MOL0     H16588   4.943   2.191   4.581  0.5322  1.1142  1.0317
  864MOL0     H16589   4.987   1.992   4.355 -2.3546  0.7840 -2.3409
  864MOL0     H16590   4.971   2.166   4.339 -1.3562  0.9553  0.0172
  864MOL0     H16591   4.733   1.872   4.431 -1.6229 -0.5022  1.9526
  864MOL0     H16592   4.499   1.837   4.427  0.1807  1.1563  1.3118
  864MOL0     H16593   4.403   1.968   4.516 -1.3742 -1.5490  0.0654
  864MOL0     H16594   4.459   1.974   4.220 -0.5782  0.5760  0.7945
  864MOL0     H16595   4.341   2.063   4.310  2.6848  0.5608 -0.1910
  864MOL0     H16596   4.283   1.783   4.354  0.9558  0.1292  0.1185
  864MOL0     H16597   4.331   1.782   4.192  0.1764 -0.2291  0.3520
  864MOL0     H16598   4.169   1.964   4.138  2.9334  1.7351  1.4798
  864MOL0     H16599   4.099   1.970   4.298 -0.6239  0.8917 -1.3381
  864MOL0     H16600   3.902   1.916   4.051  2.3819  1.4505  0.9504
  864MOL0     H16601   3.575   1.873   4.031 -1.2660  0.4392 -0.9907
  864MOL0     H16602   3.556   1.987   4.154 -1.4274 -1.6468 -0.4033
  864MOL0     H16603   3.677   2.026   4.030  0.4933 -0.9847 -1.0924
  864MOL0     H16604   3.341   1.901   4.628  2.1788 -0.4234 -0.8243
  864MOL0     H16605   3.127   1.817   4.696  3.1777 -0.2507  2.1404
  864MOL0     H16606   2.981   1.451   4.453  2.6065  0.2901  0.5116
  864MOL0     H16607   3.055   1.366   4.581 -1.0350 -0.8919 -0.2710
  864MOL0     H16608   2.826   1.303   4.584 -3.0295  1.1830 -2.2846
  864MOL0     H16609   2.877   1.382   4.737  2.1510  0.0930 -0.6957
  864MOL0     H16610   2.756   1.546   4.503 -0.5540 -0.8760 -1.9822
  864MOL0     H16611   2.761   1.576   4.680 -1.5843 -0.1721  0.0340
  864MOL0     H16612   2.586   1.392   4.511  0.7171  1.5633 -0.7461
  864MOL0     H16613   2.607   1.358   4.678  0.5985  2.1545  1.4095
  864MOL0     H16614   2.408   1.521   4.595 -1.2178  1.6952  1.5310
  864MOL0     H16615   2.547   1.636   4.602 -0.7256 -1.6436 -2.5222
  864MOL0     H16616   2.474   1.455   4.831 -2.9484 -0.9334 -3.3313
  864MOL0     H16617   2.576   1.596   4.845  0.5851 -0.3936  1.0289
  864MOL0     H16618   2.283   1.612   4.756  1.0101 -0.2475 -0.1188
  864MOL0     H16619   2.385   1.740   4.816 -0.5174 -0.1823 -3.3418
  864MOL0     H16620   2.408   1.629   5.036 -0.4638  4.0950 -0.6441
  864MOL0     H16621   2.295   1.499   5.004  0.5172 -0.2371  0.1719
  864MOL0     H16622   3.219   1.445   4.476 -1.2292  0.9946 -1.8589
  864MOL0     H16623   3.440   1.539   4.413  0.5594  0.7423  0.3240
  864MOL0     H16624   3.759   1.706   4.485 -0.6295 -0.4220 -0.9760
  864MOL0     H16625   3.992   1.707   4.422 -0.1205  0.1745  0.9931
  864MOL0     H16626   5.760   2.323   4.481 -0.5470  1.4723 -0.6538
  864MOL0     H16627   5.999   2.262   4.461 -0.7331  1.9063 -2.2647
  864MOL0     H16628   6.367   2.229   4.498 -1.1091  0.3160 -0.6784
  864MOL0     H16629   6.617   2.175   4.484  0.8809  0.4952  0.0264
  864MOL0     H16630   6.792   2.360   4.603  0.4805  2.9329 -1.1080
  864MOL0     H16631   6.864   2.210   4.533 -0.7722 -0.4759  0.4893
  864MOL0     H16632   7.062   2.340   4.489 -1.2658  0.6602 -1.6213
  864MOL0     H16633   7.020   2.350   4.659  0.7050 -0.7241  0.0362
  864MOL0     H16634   6.900   2.576   4.601  1.7776 -0.1102  2.2529
  864MOL0     H16635   6.979   2.578   4.441  2.3284  1.1406  0.6921
  864MOL0     H16636   7.085   2.603   4.715 -0.6657  3.0668 -0.5888
  864MOL0     H16637   7.107   2.715   4.585 -1.0738 -0.8843 -1.7951
  864MOL0     H16638   7.453   2.511   4.482  0.6621  0.5290  0.6192
  864MOL0     H16639   6.706   2.571   4.359  0.2721 -0.5400 -1.7230
  864MOL0     H16640   6.448   2.632   4.396 -0.6229 -0.9313 -0.0317
  865MOL0     O16641  10.104   7.695   5.456  0.0493 -0.3090 -0.2586
  865MOL0     C16642  10.108   7.594   5.395 -0.2612 -1.1470  0.4631
  865MOL0     O16643  10.000   7.508   5.383 -0.2845  0.0580  0.3045
  865MOL0     C16644   9.891   7.527   5.462  1.1798 -0.5197 -0.1104
  865MOL0     C16645   9.765   7.532   5.392 -0.3472  0.1079  0.1584
  865MOL0     C16646   9.651   7.540   5.466  0.3383  0.3280  0.3349
  865MOL0     C16647   9.656   7.557   5.603  0.2158 -0.9867 -0.7890
  865MOL0     O16648   9.539   7.547   5.665 -0.0789 -0.0852  0.4418
  865MOL0     C16649   9.507   7.633   5.774 -0.6297  0.6177  0.5744
  865MOL0     C16650   9.448   7.766   5.726 -0.2006 -1.0796  0.1029
  865MOL0     C16651   9.328   7.757   5.628  0.6563  0.8726 -0.2532
  865MOL0     C16652   9.283   7.903   5.584 -1.1209  0.1987 -0.4778
  865MOL0     C16653   9.192   7.907   5.459 -0.4519  0.5244 -0.1888
  865MOL0     C16654   9.043   7.865   5.494 -0.3706 -0.1601 -0.0427
  865MOL0     C16655   8.963   7.832   5.369 -0.0400 -0.4533 -0.0921
  865MOL0     C16656   8.960   7.959   5.271  0.3270 -0.7458  0.8820
  865MOL0     N16657   8.839   7.966   5.184  0.1543  0.9653  0.9741
  865MOL0     C16658   8.734   7.876   5.170  0.5740 -0.5764 -0.1717
  865MOL0     C16659   8.632   7.942   5.112 -1.1629  0.2740 -0.2196
  865MOL0     C16660   8.497   7.881   5.087 -0.9453 -0.3793  0.2683
  865MOL0     C16661   8.391   7.989   5.057 -0.1120  0.5288  0.1314
  865MOL0     C16662   8.250   7.929   5.080 -0.4983  0.9556  0.9707
  865MOL0     C16663   8.140   8.028   5.093  0.5168 -0.3840  0.1221
  865MOL0     O16664   8.009   7.965   5.107  0.2521  0.5421  0.4879
  865MOL0     C16665   7.895   8.034   5.065 -0.2072 -0.4523  0.8249
  865MOL0     C16666   7.894   8.164   5.019 -0.0148 -0.6658 -0.0941
  865MOL0     C16667   7.782   8.235   4.987  0.5390  0.8354 -0.3435
  865MOL0     C16668   7.805   8.383   4.943  0.3520 -0.3475 -0.4300
  865MOL0     C16669   7.655   8.172   4.998 -0.2066 -0.4542  0.2432
  865MOL0     C16670   7.520   8.235   4.979 -0.3727  0.8667 -0.5623
  865MOL0     O16671   7.416   8.152   5.032 -0.1222 -1.2198  0.7103
  865MOL0     C16672   7.283   8.187   5.018  0.0619 -0.4729 -0.3805
  865MOL0     C16673   7.187   8.089   5.030 -0.0258  0.7424  0.3274
  865MOL0     C16674   7.051   8.105   5.023  0.3282 -0.4070  0.1088
  865MOL0     C16675   6.998   8.237   5.010  0.1287 -0.3274  0.1465
  865MOL0     O16676   6.864   8.256   4.995  0.1761  0.3021 -0.2697
  865MOL0     C16677   6.838   8.342   4.885  0.5673  0.1633  0.5804
  865MOL0     C16678   6.678   8.337   4.870 -0.0521 -0.2157 -0.6646
  865MOL0     C16679   6.620   8.201   4.825 -0.3287  0.2741  0.2716
  865MOL0     C16680   6.641   8.171   4.681  0.2795 -0.4125  0.2337
  865MOL0     C16681   6.598   8.034   4.646 -0.0475  0.3733 -1.4127
  865MOL0     C16682   6.652   7.999   4.501  0.2035  0.4654 -0.5684
  865MOL0     C16683   6.592   7.859   4.454 -0.3200 -1.2729 -0.7987
  865MOL0     C16684   6.653   7.824   4.318  0.3025  0.0947  1.0074
  865MOL0    Cl16685   6.522   7.805   4.195 -0.0999 -0.3501 -0.1761
  865MOL0     C16686   7.090   8.343   4.986 -0.1435  0.3194 -0.0302
  865MOL0     C16687   7.226   8.322   5.003  0.3708  0.5769  0.6976
  865MOL0     O16688   7.503   8.335   4.920  0.2618  0.0410 -0.8113
  865MOL0     C16689   7.650   8.037   5.043 -0.3127 -0.5580  0.8856
  865MOL0     C16690   7.769   7.976   5.074  0.2766  0.0180 -0.8433
  865MOL0     N16691   8.669   8.071   5.102 -0.1267 -0.3837  0.1947
  865MOL0     N16692   8.783   8.082   5.149 -0.7982 -0.6247  0.0230
  865MOL0     C16693   9.781   7.549   5.671  0.0202 -0.1488 -0.9956
  865MOL0     C16694   9.897   7.537   5.598  0.8433  0.0524  0.0002
  865MOL0     C16695  10.231   7.552   5.331 -0.4552  0.2922  0.1431
  865MOL0     C16696  10.340   7.638   5.333 -0.0522  0.0575 -0.3091
  865MOL0     C16697  10.456   7.606   5.265  0.5658  0.1680 -1.0601
  865MOL0     C16698  10.474   7.488   5.198 -0.1671 -0.0287 -0.2932
  865MOL0     O16699  10.597   7.453   5.142 -0.3916  0.2610  0.3384
  865MOL0     C16700  10.722   7.502   5.190 -0.4682  0.4609 -1.1183
  865MOL0     C16701  10.847   7.425   5.159 -0.5376  0.2686 -0.2748
  865MOL0     C16702  10.872   7.440   5.004 -0.8700  0.7345 -0.6991
  865MOL0     C16703  10.956   7.330   4.948 -0.1774 -0.8106  0.0620
  865MOL0     C16704  10.998   7.361   4.807 -0.6400  0.5621 -0.3226
  865MOL0     C16705  11.003   7.368   4.687  0.0191 -0.3476  0.4550
  865MOL0     C16706  10.364   7.404   5.180 -0.4484 -0.5933  0.0652
  865MOL0     C16707  10.249   7.436   5.250 -0.5187  0.1539 -1.0796
  865MOL0     H16708   9.751   7.516   5.286 -0.5656  1.7302 -0.0927
  865MOL0     H16709   9.556   7.513   5.422  1.2486 -0.6631 -1.0827
  865MOL0     H16710   9.432   7.582   5.834 -1.9064  4.4947  2.6684
  865MOL0     H16711   9.594   7.650   5.839  0.2886  1.2824 -0.7867
  865MOL0     H16712   9.428   7.825   5.816  1.2293  1.8469 -1.3570
  865MOL0     H16713   9.526   7.818   5.669  0.9137 -2.4314  0.3198
  865MOL0     H16714   9.350   7.697   5.539 -2.0438 -0.7747  0.0838
  865MOL0     H16715   9.245   7.698   5.668  2.3864 -1.1074  0.5384
  865MOL0     H16716   9.233   7.950   5.669 -2.2116 -1.0489 -0.3965
  865MOL0     H16717   9.379   7.950   5.561 -0.5765 -1.0007 -0.7412
  865MOL0     H16718   9.190   8.006   5.412 -1.4312  0.3460 -0.5517
  865MOL0     H16719   9.232   7.836   5.385  1.3274  1.3035 -0.0260
  865MOL0     H16720   9.056   7.773   5.551 -0.6453  0.3350  0.8426
  865MOL0     H16721   8.983   7.928   5.561 -1.9900 -0.3797 -1.2240
  865MOL0     H16722   9.014   7.749   5.320  1.9394  0.4084  0.4163
  865MOL0     H16723   8.857   7.821   5.393 -0.3101 -0.8533 -1.3929
  865MOL0     H16724   9.052   7.963   5.211 -0.5263 -0.0017 -0.4363
  865MOL0     H16725   8.961   8.052   5.328 -0.3621 -0.6092  0.6849
  865MOL0     H16726   8.735   7.770   5.195 -1.1818 -0.3289  1.1701
  865MOL0     H16727   8.495   7.818   4.998 -0.7252  1.6943 -1.2885
  865MOL0     H16728   8.468   7.816   5.170 -2.2022  1.1666  1.1015
  865MOL0     H16729   8.404   8.023   4.954  3.0248 -0.9109 -0.0712
  865MOL0     H16730   8.405   8.063   5.136 -0.3282 -2.5256  3.2950
  865MOL0     H16731   8.245   7.870   5.172 -0.4287 -3.0873 -1.3926
  865MOL0     H16732   8.233   7.860   4.996  1.8327 -0.3725  1.4943
  865MOL0     H16733   8.136   8.087   5.001  0.0974  0.0177  0.3950
  865MOL0     H16734   8.161   8.105   5.168 -0.3739  1.3487 -1.3342
  865MOL0     H16735   7.979   8.230   5.023 -1.2473  0.9253  1.3576
  865MOL0     H16736   7.828   8.392   4.837  0.4097  0.3441 -0.3689
  865MOL0     H16737   7.706   8.430   4.952 -0.3983 -2.0855  1.0792
  865MOL0     H16738   7.889   8.421   5.002  0.1428  1.1609 -1.0474
  865MOL0     H16739   7.233   7.991   5.032  1.0886  1.2280  3.2045
  865MOL0     H16740   6.990   8.016   5.028 -1.1026  0.3832 -1.8835
  865MOL0     H16741   6.862   8.447   4.906  0.6694  0.1733  0.4162
  865MOL0     H16742   6.886   8.305   4.794 -2.4806 -3.0793  0.0887
  865MOL0     H16743   6.635   8.352   4.970  2.2196 -2.0018  0.6911
  865MOL0     H16744   6.642   8.425   4.815  0.9562 -0.1781 -1.2907
  865MOL0     H16745   6.515   8.194   4.853 -0.3479  0.9602  0.3961
  865MOL0     H16746   6.671   8.127   4.888 -0.9026 -0.5609 -0.2310
  865MOL0     H16747   6.604   8.255   4.621  3.6915  1.1786  0.0834
  865MOL0     H16748   6.750   8.165   4.670  0.2487  0.1666 -0.4655
  865MOL0     H16749   6.490   8.023   4.650 -0.1850  1.2027 -2.3286
  865MOL0     H16750   6.633   7.962   4.721 -0.1953  1.1125 -0.6328
  865MOL0     H16751   6.613   8.081   4.441 -1.5492  0.4557  0.4860
  865MOL0     H16752   6.761   7.987   4.493  0.3330  0.0432  1.3064
  865MOL0     H16753   6.483   7.860   4.468 -0.0615  1.8012  2.6362
  865MOL0     H16754   6.626   7.778   4.518  0.9258 -1.3267 -1.5028
  865MOL0     H16755   6.716   7.736   4.331 -0.0536 -0.6166 -1.4568
  865MOL0     H16756   6.730   7.896   4.288  0.8573 -0.8405  0.0988
  865MOL0     H16757   7.052   8.442   4.962 -0.7267 -0.0205 -0.5145
  865MOL0     H16758   7.282   8.415   4.998  0.8919  0.4260  2.8479
  865MOL0     H16759   7.558   7.979   5.051  0.7619 -2.3646  0.8267
  865MOL0     H16760   7.771   7.872   5.103  2.7840  0.2455 -0.0049
  865MOL0     H16761   9.785   7.532   5.779  1.5652 -1.8590 -1.2740
  865MOL0     H16762   9.993   7.526   5.647 -0.2064  0.1264  2.2169
  865MOL0     H16763  10.335   7.726   5.396  1.0672 -1.0654  1.4426
  865MOL0     H16764  10.536   7.678   5.274 -0.0353  0.7185  0.2300
  865MOL0     H16765  10.716   7.605   5.153 -3.9425  0.7808 -0.0466
  865MOL0     H16766  10.705   7.495   5.298 -0.2625  1.9956 -0.9598
  865MOL0     H16767  10.831   7.324   5.198 -2.0559  1.9527  3.9632
  865MOL0     H16768  10.930   7.464   5.218  0.1690 -0.7609 -0.5624
  865MOL0     H16769  10.928   7.533   4.991  1.2164  0.2766  3.2563
  865MOL0     H16770  10.782   7.451   4.942  0.7231  2.2163 -2.8929
  865MOL0     H16771  10.897   7.238   4.955 -0.8277 -0.3941  0.0981
  865MOL0     H16772  11.048   7.314   5.005 -0.7834  0.6194  1.5191
  865MOL0     H16773  10.983   7.384   4.583  1.7648 -1.4318 -0.0742
  865MOL0     H16774  10.374   7.306   5.136 -2.2916 -1.2396  1.0225
  865MOL0     H16775  10.166   7.367   5.237 -1.2201  0.8107 -0.2273
  866MOL0     O16776   1.883   2.395   0.484 -0.1341  0.5915  0.3216
  866MOL0     C16777   1.920   2.302   0.556  0.0002 -0.4102  0.5400
  866MOL0     O16778   1.850   2.267   0.665  0.1734  0.0352  0.1560
  866MOL0     C16779   1.716   2.291   0.681  0.2426 -0.3817  1.1196
  866MOL0     C16780   1.671   2.235   0.796  0.5865  0.1180  0.6382
  866MOL0     C16781   1.535   2.248   0.838 -0.8433 -0.0238 -0.7823
  866MOL0     C16782   1.438   2.305   0.756 -0.2608 -0.7739 -0.0525
  866MOL0     O16783   1.309   2.298   0.807 -0.0654 -0.1893  0.5741
  866MOL0     C16784   1.199   2.312   0.720  0.1945  0.1695 -0.2348
  866MOL0     C16785   1.152   2.462   0.712 -0.2446  0.3656 -0.1706
  866MOL0     C16786   1.039   2.486   0.611 -0.4555  0.9827 -0.8772
  866MOL0     C16787   0.902   2.440   0.659  0.1476  0.0938  0.2539
  866MOL0     C16788   0.786   2.494   0.582  0.5950 -0.2688 -0.0345
  866MOL0     C16789   0.811   2.489   0.429 -0.1630 -0.4232 -0.5563
  866MOL0     C16790   0.671   2.460   0.371  0.1355 -0.0701 -0.2654
  866MOL0     C16791   0.659   2.478   0.225  0.1520 -0.8274 -0.2334
  866MOL0     N16792   0.519   2.519   0.179  0.4376  0.7104 -1.1851
  866MOL0     C16793   0.422   2.428   0.148  0.5880 -0.3498  0.5462
  866MOL0     C16794   0.336   2.499   0.073  0.7561  0.6922  0.5178
  866MOL0     C16795   0.209   2.446   0.014 -0.3583 -0.4721 -0.5281
  866MOL0     C16796   0.089   2.532   0.021 -0.0839 -0.0921  0.0117
  866MOL0     C16797  -0.026   2.481  -0.066  0.2491 -1.0537  0.0437
  866MOL0     C16798  -0.156   2.568  -0.042 -0.3754  0.5418 -0.3929
  866MOL0     O16799  -0.256   2.506  -0.129  0.0172  1.0277 -0.5205
  866MOL0     C16800  -0.374   2.586  -0.146 -0.6473 -0.3954  0.2624
  866MOL0     C16801  -0.421   2.682  -0.060  0.7495 -0.0763 -1.0559
  866MOL0     C16802  -0.534   2.765  -0.077 -0.0802 -0.6516  1.1116
  866MOL0     C16803  -0.567   2.866   0.030  0.0250 -0.2806  0.5812
  866MOL0     C16804  -0.603   2.751  -0.199  0.1650 -0.2530  0.8378
  866MOL0     C16805  -0.734   2.814  -0.232  0.2482  0.3738  0.5114
  866MOL0     O16806  -0.774   2.798  -0.364  0.0854  0.1674  0.0231
  866MOL0     C16807  -0.877   2.871  -0.410 -0.2403 -0.3466 -0.2567
  866MOL0     C16808  -0.885   3.015  -0.397  0.8339 -0.1714 -0.9006
  866MOL0     C16809  -0.995   3.082  -0.446  0.3938  0.7150 -0.0467
  866MOL0     C16810  -1.106   3.017  -0.495  0.5831 -0.4762  0.4600
  866MOL0     O16811  -1.215   3.075  -0.561  0.0537 -0.4021  0.2678
  866MOL0     C16812  -1.196   3.209  -0.606 -0.0654  0.6007  0.0307
  866MOL0     C16813  -1.274   3.255  -0.731  0.5158 -0.6307  0.5701
  866MOL0     C16814  -1.422   3.290  -0.707 -0.0753  0.5420 -0.2407
  866MOL0     C16815  -1.493   3.349  -0.832 -0.6797  0.3556 -0.3387
  866MOL0     C16816  -1.628   3.423  -0.824 -0.4689  0.2332  0.5386
  866MOL0     C16817  -1.683   3.498  -0.952 -0.4390 -0.1055  0.1586
  866MOL0     C16818  -1.823   3.554  -0.918  0.3442 -0.2289  0.7022
  866MOL0     C16819  -1.877   3.648  -1.031  0.3975 -0.3665 -0.1720
  866MOL0    Cl16820  -1.903   3.547  -1.173 -0.3821 -0.5513 -0.2099
  866MOL0     C16821  -1.100   2.876  -0.501  0.0660  0.7704  0.0522
  866MOL0     C16822  -0.987   2.803  -0.468  0.0698 -0.0375 -0.4966
  866MOL0     O16823  -0.805   2.867  -0.147 -0.5647 -0.1047  0.2048
  866MOL0     C16824  -0.549   2.656  -0.294  0.3394 -0.9807  0.2702
  866MOL0     C16825  -0.440   2.583  -0.270 -0.7690  0.4251  0.1858
  866MOL0     N16826   0.371   2.634   0.076 -0.0501  0.3207  0.8552
  866MOL0     N16827   0.485   2.643   0.130  0.2381 -0.1849 -0.5981
  866MOL0     C16828   1.479   2.377   0.645 -0.0236 -0.8382  0.3116
  866MOL0     C16829   1.614   2.360   0.598  0.0059 -0.9228 -0.4199
  866MOL0     C16830   2.063   2.262   0.547  0.3046  0.5378  0.1784
  866MOL0     C16831   2.140   2.295   0.430  0.5322  0.5088 -0.1703
  866MOL0     C16832   2.274   2.275   0.423  1.2047 -0.1064  0.5957
  866MOL0     C16833   2.342   2.225   0.532 -0.4271 -0.2006  0.3928
  866MOL0     O16834   2.483   2.210   0.535 -0.0133 -0.6293 -0.4157
  866MOL0     C16835   2.546   2.172   0.412 -0.5782 -0.2650  0.6222
  866MOL0     C16836   2.691   2.139   0.441 -0.0853 -0.2372  0.1832
  866MOL0     C16837   2.770   2.075   0.331  0.4283 -0.4221 -0.1868
  866MOL0     C16838   2.916   2.082   0.372 -1.7783 -0.1477  0.6899
  866MOL0     C16839   3.008   2.006   0.283 -0.2343 -0.0842  0.5052
  866MOL0     C16840   3.083   1.943   0.206  0.8259 -0.1302 -0.3226
  866MOL0     C16841   2.270   2.178   0.639 -0.3259 -0.0466  0.4616
  866MOL0     C16842   2.130   2.194   0.650  0.1317 -0.2104 -0.9960
  866MOL0     H16843   1.742   2.174   0.851 -0.0409 -0.8054  0.4558
  866MOL0     H16844   1.510   2.202   0.933  2.3336  2.2611  1.3946
  866MOL0     H16845   1.226   2.275   0.620  2.8246  1.5114 -0.1064
  866MOL0     H16846   1.113   2.257   0.758  1.0438 -1.1703 -0.2130
  866MOL0     H16847   1.115   2.497   0.809 -4.0202 -1.6225 -0.7237
  866MOL0     H16848   1.234   2.525   0.676 -1.6039  2.3515  0.0413
  866MOL0     H16849   1.027   2.593   0.589 -3.5012  0.6340 -1.4457
  866MOL0     H16850   1.067   2.434   0.519  1.9545 -2.9467  1.7860
  866MOL0     H16851   0.891   2.331   0.662 -1.7604  0.1718 -1.3376
  866MOL0     H16852   0.879   2.463   0.763  1.1570 -0.8999  0.7153
  866MOL0     H16853   0.704   2.424   0.602  2.3571 -2.8234 -1.2347
  866MOL0     H16854   0.753   2.594   0.614 -1.3882  0.2244 -3.1477
  866MOL0     H16855   0.850   2.587   0.402 -0.7415  0.4894  1.7240
  866MOL0     H16856   0.872   2.399   0.412  3.6419  1.9300 -0.6345
  866MOL0     H16857   0.641   2.360   0.404 -0.7969  0.1131 -0.5272
  866MOL0     H16858   0.598   2.531   0.412 -0.2784 -0.0635 -0.9910
  866MOL0     H16859   0.694   2.390   0.170 -1.0936 -1.5743  0.1535
  866MOL0     H16860   0.730   2.555   0.191  0.9754 -2.5843 -2.7712
  866MOL0     H16861   0.404   2.322   0.166  0.8099 -0.3954  0.5145
  866MOL0     H16862   0.234   2.425  -0.090 -0.4114 -0.8266 -0.4712
  866MOL0     H16863   0.184   2.353   0.066  0.3567 -0.3102  0.1303
  866MOL0     H16864   0.118   2.627  -0.026 -2.9602  1.0695  0.3851
  866MOL0     H16865   0.055   2.558   0.122  0.4916 -0.0356  0.1945
  866MOL0     H16866  -0.054   2.379  -0.039  1.3152 -1.6329 -0.9848
  866MOL0     H16867   0.009   2.482  -0.169 -0.0279 -2.5316 -0.0779
  866MOL0     H16868  -0.143   2.672  -0.072 -1.3036  0.3147 -1.7001
  866MOL0     H16869  -0.189   2.555   0.061  1.0131 -3.5816 -0.2917
  866MOL0     H16870  -0.355   2.702   0.025  1.5425  0.1222 -1.7028
  866MOL0     H16871  -0.603   2.959  -0.015  0.3151 -0.0933  0.7315
  866MOL0     H16872  -0.639   2.820   0.098 -1.1379 -0.3948 -0.6831
  866MOL0     H16873  -0.475   2.895   0.083 -0.1596 -0.5939  1.0752
  866MOL0     H16874  -0.792   3.056  -0.359  1.1543 -1.4170 -0.2886
  866MOL0     H16875  -0.987   3.190  -0.447  1.4177  0.6428 -0.4763
  866MOL0     H16876  -1.208   3.269  -0.515  3.2579 -0.4437  1.2780
  866MOL0     H16877  -1.091   3.212  -0.636  1.0054 -3.4203  2.5681
  866MOL0     H16878  -1.215   3.336  -0.774  0.7867  0.0246  2.1288
  866MOL0     H16879  -1.275   3.181  -0.812  1.2130  1.9174 -1.9434
  866MOL0     H16880  -1.437   3.358  -0.623  0.9132  0.2143  0.2219
  866MOL0     H16881  -1.461   3.194  -0.673  5.2702 -0.2487  5.6217
  866MOL0     H16882  -1.426   3.426  -0.871  2.2705 -3.3916 -3.3988
  866MOL0     H16883  -1.487   3.272  -0.909  1.5816  2.0192 -1.9627
  866MOL0     H16884  -1.622   3.503  -0.750  3.1951  0.4889  0.1656
  866MOL0     H16885  -1.707   3.356  -0.790 -0.4801 -0.1780 -0.2537
  866MOL0     H16886  -1.618   3.581  -0.980  1.8361 -1.5576  0.8620
  866MOL0     H16887  -1.699   3.424  -1.032  0.5679 -1.9403  1.5619
  866MOL0     H16888  -1.827   3.601  -0.819 -0.9475  0.6096  0.2829
  866MOL0     H16889  -1.883   3.464  -0.906 -0.7410  0.0349 -2.0324
  866MOL0     H16890  -1.808   3.728  -1.060 -0.3464  0.1411 -0.6005
  866MOL0     H16891  -1.970   3.697  -1.001 -0.7782 -2.8367  0.4151
  866MOL0     H16892  -1.189   2.840  -0.552  0.1646  2.3735 -1.3276
  866MOL0     H16893  -0.995   2.695  -0.468 -2.4940  0.1013  0.2800
  866MOL0     H16894  -0.596   2.642  -0.391  0.0446 -0.6420  0.3618
  866MOL0     H16895  -0.413   2.501  -0.336 -3.5090 -0.0765 -0.4524
  866MOL0     H16896   1.402   2.421   0.581  0.4229  0.6671  0.7682
  866MOL0     H16897   1.655   2.399   0.505  0.9748 -4.0888 -1.4380
  866MOL0     H16898   2.093   2.350   0.349 -0.3102 -0.0447 -0.0646
  866MOL0     H16899   2.326   2.312   0.336 -0.4619 -3.3841 -2.0505
  866MOL0     H16900   2.488   2.088   0.371  2.5337 -2.3767  0.2109
  866MOL0     H16901   2.552   2.260   0.348  2.0732  0.4033  1.6684
  866MOL0     H16902   2.687   2.064   0.521 -0.5752 -0.3913  0.0187
  866MOL0     H16903   2.746   2.231   0.461  2.2176 -1.7955  1.4342
  866MOL0     H16904   2.749   2.135   0.242 -2.0671  2.1216  1.9414
  866MOL0     H16905   2.745   1.969   0.318  1.9516 -0.8205 -0.1029
  866MOL0     H16906   2.926   2.052   0.476 -1.1764 -0.7993  0.4548
  866MOL0     H16907   2.943   2.188   0.364 -0.2941 -0.5576 -0.1700
  866MOL0     H16908   3.116   1.884   0.123 -1.5831 -0.6786 -0.9591
  866MOL0     H16909   2.329   2.125   0.713 -0.4197  0.9532  1.2669
  866MOL0     H16910   2.085   2.168   0.746 -0.6190  0.6913 -1.0871
  867MOL0     O16911  11.184  10.582   7.874 -0.6023  0.2579 -0.3431
  867MOL0     C16912  11.246  10.622   7.976  1.1473 -0.4341  0.6539
  867MOL0     O16913  11.197  10.717   8.060 -0.0451  0.2460 -0.7518
  867MOL0     C16914  11.074  10.783   8.044  0.8663 -0.4610  0.9086
  867MOL0     C16915  11.075  10.908   8.117  0.3815  0.5264  0.0633
  867MOL0     C16916  10.962  10.997   8.092  0.0696 -0.7584  0.1271
  867MOL0     C16917  10.857  10.963   8.016 -1.2940 -0.3830 -0.1299
  867MOL0     O16918  10.759  11.064   8.001  0.0658 -0.4267  0.0914
  867MOL0     C16919  10.677  11.057   7.883 -0.9660  0.9003  0.1029
  867MOL0     C16920  10.571  11.156   7.877 -0.4305  0.2253  0.6054
  867MOL0     C16921  10.462  11.138   7.985 -0.1838 -1.0353 -0.8395
  867MOL0     C16922  10.342  11.225   7.963  0.7566  0.4977 -0.3641
  867MOL0     C16923  10.227  11.206   8.063  0.5633  0.1548 -1.5391
  867MOL0     C16924  10.155  11.332   8.115  0.2244 -0.8423 -0.9907
  867MOL0     C16925  10.018  11.303   8.179  0.6210  0.1628  1.2228
  867MOL0     C16926   9.910  11.279   8.079  0.2485 -0.6996 -0.8930
  867MOL0     N16927   9.770  11.292   8.130  0.3830 -0.3328 -0.6459
  867MOL0     C16928   9.685  11.204   8.182 -0.0567 -0.0413 -0.2684
  867MOL0     C16929   9.586  11.274   8.226  0.0632  0.2180  0.0097
  867MOL0     C16930   9.461  11.206   8.284  0.5708 -0.2031 -0.3963
  867MOL0     C16931   9.365  11.146   8.180 -0.9719  0.5162 -0.6099
  867MOL0     C16932   9.285  11.262   8.119  0.4843  0.4930  1.0890
  867MOL0     C16933   9.204  11.221   7.994 -0.7088  0.5949  0.6308
  867MOL0     O16934   9.100  11.134   8.027  0.6098 -0.5151 -0.3586
  867MOL0     C16935   8.972  11.186   8.016 -0.7020  0.3750  0.4357
  867MOL0     C16936   8.923  11.292   8.092  0.6601 -0.5305  1.5878
  867MOL0     C16937   8.790  11.350   8.058 -0.2197  0.2379 -0.5068
  867MOL0     C16938   8.746  11.460   8.149 -0.2704  0.6661 -0.5327
  867MOL0     C16939   8.724  11.308   7.941  0.7015 -0.0495 -0.6794
  867MOL0     C16940   8.589  11.352   7.899  0.4762  0.1508  0.0175
  867MOL0     O16941   8.538  11.306   7.779  0.2185 -0.6029  0.2794
  867MOL0     C16942   8.414  11.346   7.728  0.7086 -0.0484 -0.4978
  867MOL0     C16943   8.393  11.449   7.638  0.0844 -0.6023 -0.4021
  867MOL0     C16944   8.275  11.486   7.575  0.5072  0.2782  0.1682
  867MOL0     C16945   8.158  11.423   7.618  0.3565 -0.1142 -0.1983
  867MOL0     O16946   8.036  11.470   7.579  0.5317 -0.0982  0.3282
  867MOL0     C16947   7.950  11.498   7.687 -0.4253 -0.9648 -0.5825
  867MOL0     C16948   7.807  11.438   7.666 -0.4370  0.1567 -0.1198
  867MOL0     C16949   7.805  11.289   7.679  0.5865  0.6331  0.6203
  867MOL0     C16950   7.664  11.233   7.664  0.3247  0.5179  0.7030
  867MOL0     C16951   7.665  11.080   7.643  0.0506 -1.4427  0.4030
  867MOL0     C16952   7.529  11.021   7.655 -0.1469  1.4726  0.0796
  867MOL0     C16953   7.436  11.081   7.559 -0.5128  0.4299  0.0270
  867MOL0     C16954   7.309  10.995   7.544 -0.7777  0.2094  0.1495
  867MOL0    Cl16955   7.240  10.957   7.709 -0.4450  0.0378  0.6863
  867MOL0     C16956   8.169  11.326   7.714  0.1961  0.1609  0.5107
  867MOL0     C16957   8.294  11.279   7.763 -0.4931 -0.3375 -0.4513
  867MOL0     O16958   8.524  11.429   7.975  0.0166  0.4161 -0.0614
  867MOL0     C16959   8.786  11.205   7.864 -0.3643  0.0675  0.4392
  867MOL0     C16960   8.901  11.147   7.898 -0.5320  0.1031 -0.2733
  867MOL0     N16961   9.595  11.407   8.192 -0.0555  0.1210  0.0318
  867MOL0     N16962   9.710  11.415   8.134 -0.2420  0.0241  0.0055
  867MOL0     C16963  10.854  10.833   7.954 -0.4785 -0.2439  0.1078
  867MOL0     C16964  10.965  10.748   7.965 -0.0873  0.3620  0.2807
  867MOL0     C16965  11.375  10.549   8.008 -0.4369 -0.1696 -0.3432
  867MOL0     C16966  11.447  10.580   8.128  0.4125  0.2008  0.0607
  867MOL0     C16967  11.581  10.533   8.140  0.6252 -0.1054 -0.0652
  867MOL0     C16968  11.632  10.438   8.055 -0.0762  0.4440  0.5711
  867MOL0     O16969  11.762  10.397   8.078 -0.2258  0.0947 -0.1410
  867MOL0     C16970  11.810  10.279   8.018 -1.0978 -0.1467  0.0452
  867MOL0     C16971  11.903  10.313   7.903 -0.1124  0.5549  0.6447
  867MOL0     C16972  12.035  10.361   7.951 -1.0153 -0.5802  1.0246
  867MOL0     C16973  12.104  10.428   7.838 -0.0048 -0.5975 -0.7111
  867MOL0     C16974  12.232  10.488   7.867  0.7630 -0.5276 -0.0763
  867MOL0     C16975  12.338  10.546   7.891  0.0498  0.5295  0.5350
  867MOL0     C16976  11.561  10.410   7.942  0.0172 -0.2722  0.1548
  867MOL0     C16977  11.435  10.461   7.913 -0.3871 -0.4218 -0.3374
  867MOL0     H16978  11.166  10.929   8.171  3.1042 -2.1798 -2.9734
  867MOL0     H16979  10.964  11.089   8.149  0.3791 -1.1246  0.7209
  867MOL0     H16980  10.748  11.067   7.800  0.9701 -2.4703  1.1273
  867MOL0     H16981  10.637  10.956   7.872  1.4858  0.0333 -1.8773
  867MOL0     H16982  10.624  11.249   7.899  1.0217 -0.0050 -1.6463
  867MOL0     H16983  10.539  11.162   7.773  0.9717  0.5247  0.1780
  867MOL0     H16984  10.420  11.037   7.995 -1.9850 -0.4033 -1.4997
  867MOL0     H16985  10.499  11.154   8.086 -0.0436 -1.7897 -0.7648
  867MOL0     H16986  10.382  11.326   7.975  0.1699  0.6500  0.3720
  867MOL0     H16987  10.302  11.219   7.861 -3.8850 -1.1524  1.2835
  867MOL0     H16988  10.152  11.157   8.000  2.4536 -2.0151 -2.2264
  867MOL0     H16989  10.260  11.140   8.143  1.8515  0.5027 -1.7687
  867MOL0     H16990  10.216  11.374   8.195 -1.2657  0.9324 -0.7273
  867MOL0     H16991  10.143  11.411   8.040 -3.3817 -0.2898 -0.0031
  867MOL0     H16992  10.029  11.232   8.261 -1.8049  0.3993  1.8399
  867MOL0     H16993   9.987  11.393   8.233 -1.3841 -1.2399  2.5675
  867MOL0     H16994   9.926  11.177   8.041  0.9464 -0.9813  0.1207
  867MOL0     H16995   9.924  11.353   8.000 -1.9057  2.8298  1.7151
  867MOL0     H16996   9.683  11.095   8.175 -2.8151 -0.1574  0.9554
  867MOL0     H16997   9.495  11.109   8.322 -2.8988 -1.6704 -0.7122
  867MOL0     H16998   9.407  11.261   8.362  0.8524 -1.9973  1.1259
  867MOL0     H16999   9.293  11.074   8.220  1.5712 -1.0332  1.4836
  867MOL0     H17000   9.423  11.093   8.104  0.3319 -0.8060  1.2072
  867MOL0     H17001   9.362  11.330   8.082  2.5405 -0.4373  3.3416
  867MOL0     H17002   9.220  11.312   8.192  0.7372  3.4609 -0.5615
  867MOL0     H17003   9.271  11.162   7.931 -1.6443  1.8696 -1.6899
  867MOL0     H17004   9.170  11.305   7.932 -0.0475 -0.3949 -1.1586
  867MOL0     H17005   8.978  11.337   8.174  0.9557 -2.1380  2.3173
  867MOL0     H17006   8.739  11.553   8.092 -0.6601  1.3084  0.5422
  867MOL0     H17007   8.648  11.431   8.188 -0.6306  1.5181 -0.7854
  867MOL0     H17008   8.819  11.479   8.228 -0.3910 -2.7546  0.5952
  867MOL0     H17009   8.488  11.501   7.630 -0.0395 -0.0608  1.4007
  867MOL0     H17010   8.262  11.562   7.498  2.4541 -1.6505 -2.2442
  867MOL0     H17011   7.986  11.457   7.782  0.5481 -2.1186 -1.4206
  867MOL0     H17012   7.946  11.606   7.702  3.4202 -0.7032 -0.6105
  867MOL0     H17013   7.740  11.471   7.746 -3.3641 -0.5777 -2.1050
  867MOL0     H17014   7.761  11.463   7.569 -1.1742 -2.5523 -0.5504
  867MOL0     H17015   7.837  11.283   7.784  0.4282  0.9888  0.6907
  867MOL0     H17016   7.877  11.236   7.617 -0.6421 -1.0683  0.5493
  867MOL0     H17017   7.603  11.267   7.748 -1.4537  0.0703 -0.3544
  867MOL0     H17018   7.618  11.273   7.573  1.6445  1.6505  0.4780
  867MOL0     H17019   7.745  11.044   7.708  0.6762  0.5284  0.7829
  867MOL0     H17020   7.700  11.065   7.541  0.3866 -0.7858  0.4164
  867MOL0     H17021   7.544  10.913   7.644 -2.1993  1.2345 -0.6694
  867MOL0     H17022   7.488  11.037   7.755  0.7294 -2.3339  1.2151
  867MOL0     H17023   7.482  11.089   7.460 -1.6349 -1.3358 -0.6635
  867MOL0     H17024   7.403  11.178   7.599 -0.6480 -0.2448  1.6212
  867MOL0     H17025   7.340  10.909   7.484  2.4915  1.7928 -0.6806
  867MOL0     H17026   7.237  11.052   7.484  0.0975  3.6656  2.1014
  867MOL0     H17027   8.076  11.280   7.747  1.0498 -1.9191  0.1409
  867MOL0     H17028   8.316  11.205   7.840  0.0766 -1.8513 -2.0005
  867MOL0     H17029   8.740  11.155   7.779 -0.5819 -3.3737  2.3864
  867MOL0     H17030   8.948  11.067   7.842  0.2842  0.4242 -0.0556
  867MOL0     H17031  10.775  10.794   7.892 -0.2118 -2.2378  0.9540
  867MOL0     H17032  10.962  10.654   7.911  0.0121  1.7206 -2.2623
  867MOL0     H17033  11.409  10.651   8.201 -1.7665  0.2068 -1.0007
  867MOL0     H17034  11.649  10.556   8.223  0.7336 -3.4581  0.8970
  867MOL0     H17035  11.866  10.220   8.092  3.8948  1.5943 -1.9018
  867MOL0     H17036  11.725  10.222   7.980 -0.4607 -0.6583 -0.6530
  867MOL0     H17037  11.851  10.377   7.831 -0.3713 -0.9684 -0.5874
  867MOL0     H17038  11.915  10.219   7.848 -5.0368  0.9439 -1.6634
  867MOL0     H17039  12.094  10.278   7.992  1.7702  1.3577  1.2017
  867MOL0     H17040  12.013  10.439   8.024 -0.2568 -1.3605  2.1073
  867MOL0     H17041  12.048  10.505   7.784  0.7290  1.7603  1.6705
  867MOL0     H17042  12.131  10.349   7.767  1.7012  0.4906 -1.3573
  867MOL0     H17043  12.433  10.590   7.914  1.5414 -0.5783 -2.8933
  867MOL0     H17044  11.587  10.343   7.860 -0.1992  1.2439 -1.1996
  867MOL0     H17045  11.387  10.437   7.819  0.0741 -0.4700 -0.5627
  868MOL0     O17046   8.253   7.300   7.469 -0.0414  0.2834 -0.1581
  868MOL0     C17047   8.149   7.363   7.462  1.0310 -0.9358  0.2546
  868MOL0     O17048   8.127   7.478   7.541  0.6850  0.7401 -0.3054
  868MOL0     C17049   8.214   7.520   7.635 -0.3478  0.2306  0.0913
  868MOL0     C17050   8.169   7.551   7.765 -0.7792 -0.0727  0.7814
  868MOL0     C17051   8.252   7.594   7.870 -0.1090 -0.0332  0.4230
  868MOL0     C17052   8.395   7.608   7.842  0.6249  0.1233  0.6069
  868MOL0     O17053   8.470   7.636   7.950 -0.2192  0.6662 -0.0028
  868MOL0     C17054   8.612   7.657   7.936 -0.5549  0.2282 -0.2452
  868MOL0     C17055   8.680   7.669   8.071  0.1067 -1.3693  0.2658
  868MOL0     C17056   8.691   7.535   8.149  0.0589  0.2428 -0.1149
  868MOL0     C17057   8.801   7.541   8.254  0.4579  0.2801  0.7787
  868MOL0     C17058   8.756   7.631   8.376  0.0464  0.5543 -0.4885
  868MOL0     C17059   8.659   7.545   8.462 -0.1305  0.4970  0.9908
  868MOL0     C17060   8.551   7.613   8.535 -0.0770  0.1397  0.4631
  868MOL0     C17061   8.458   7.684   8.428  0.9750 -0.0445 -0.1795
  868MOL0     N17062   8.339   7.752   8.490  0.7799 -0.0524 -0.4200
  868MOL0     C17063   8.226   7.689   8.528 -0.3173  0.2928  0.2437
  868MOL0     C17064   8.151   7.780   8.590 -0.6758  0.0370 -0.0907
  868MOL0     C17065   8.014   7.772   8.646 -0.7343 -0.1557  0.2521
  868MOL0     C17066   7.916   7.815   8.541  0.5409  0.6282  0.2659
  868MOL0     C17067   7.916   7.745   8.408  0.2991  0.1130  0.1259
  868MOL0     C17068   7.805   7.802   8.310  0.9504 -0.0279 -0.4143
  868MOL0     O17069   7.736   7.697   8.245 -0.8466  0.5471 -0.3391
  868MOL0     C17070   7.639   7.725   8.148 -0.3896 -0.0253  0.1860
  868MOL0     C17071   7.548   7.626   8.112  0.1362 -0.2405  1.1900
  868MOL0     C17072   7.455   7.640   8.011  0.2498 -0.1004 -0.0324
  868MOL0     C17073   7.372   7.527   7.967  0.9353  1.2366  0.4100
  868MOL0     C17074   7.448   7.761   7.941  0.7281  0.0427  0.2775
  868MOL0     C17075   7.352   7.793   7.829 -0.2224  0.3073 -0.0182
  868MOL0     O17076   7.387   7.900   7.754  0.2682 -0.6117 -0.0545
  868MOL0     C17077   7.297   7.943   7.662  0.9923  0.1407 -0.4014
  868MOL0     C17078   7.245   8.074   7.662 -0.5450 -0.1329  0.0625
  868MOL0     C17079   7.154   8.124   7.571  0.4495 -0.4043 -0.4443
  868MOL0     C17080   7.123   8.044   7.457 -0.3702 -1.0329 -0.1092
  868MOL0     O17081   7.055   8.087   7.344 -0.4157 -0.7440 -0.0245
  868MOL0     C17082   6.964   8.205   7.356  0.4288  0.5936  0.8265
  868MOL0     C17083   6.876   8.214   7.232 -0.7125 -0.1716  0.4699
  868MOL0     C17084   6.958   8.222   7.105 -0.1761 -0.5386 -0.3790
  868MOL0     C17085   6.864   8.283   6.991 -0.3383  0.6372 -0.1730
  868MOL0     C17086   6.930   8.276   6.851  1.5785  0.2037  0.0536
  868MOL0     C17087   7.067   8.323   6.832  0.8788 -0.0689 -0.4330
  868MOL0     C17088   7.081   8.350   6.681 -0.1429 -0.2804 -0.3774
  868MOL0     C17089   7.218   8.402   6.640 -1.0570  0.6423  0.5685
  868MOL0    Cl17090   7.340   8.272   6.640  0.1984 -0.2611  0.2280
  868MOL0     C17091   7.161   7.905   7.451  0.3904  0.0691 -0.2763
  868MOL0     C17092   7.253   7.861   7.552 -0.2970  0.2799 -0.1906
  868MOL0     O17093   7.247   7.735   7.817  0.2092  1.0027 -0.0403
  868MOL0     C17094   7.536   7.866   7.981  0.1596  0.6411  0.4699
  868MOL0     C17095   7.623   7.847   8.084 -0.3868 -0.3069 -0.4598
  868MOL0     N17096   8.225   7.895   8.597  0.1380 -0.0782  0.6978
  868MOL0     N17097   8.336   7.876   8.542  0.8301 -0.5229  0.0729
  868MOL0     C17098   8.434   7.586   7.708 -0.3685  0.1392 -1.0688
  868MOL0     C17099   8.346   7.549   7.604  0.7106  0.3252 -0.5153
  868MOL0     C17100   8.048   7.320   7.364  0.2814  0.3358 -0.0316
  868MOL0     C17101   8.075   7.226   7.269 -0.1226  0.3945  0.8416
  868MOL0     C17102   7.984   7.191   7.173  1.2619 -0.9622  0.0897
  868MOL0     C17103   7.851   7.237   7.183 -0.9029  0.3250 -0.8888
  868MOL0     O17104   7.759   7.184   7.088  0.6896  0.2942 -0.2503
  868MOL0     C17105   7.612   7.172   7.123 -0.7734 -0.4097 -0.3159
  868MOL0     C17106   7.532   7.297   7.091 -0.6532  0.4804 -0.0216
  868MOL0     C17107   7.381   7.269   7.114  0.0949  0.9111  0.3576
  868MOL0     C17108   7.292   7.400   7.104 -0.0594  0.0417 -0.0553
  868MOL0     C17109   7.318   7.491   7.212  0.0997 -0.4373  0.0546
  868MOL0     C17110   7.339   7.572   7.300  0.0163 -0.8490  0.2838
  868MOL0     C17111   7.815   7.329   7.285 -0.4512  0.4742 -0.0366
  868MOL0     C17112   7.917   7.372   7.371  0.2335 -0.2121 -0.4882
  868MOL0     H17113   8.065   7.525   7.783 -0.1131 -4.5733 -0.6712
  868MOL0     H17114   8.209   7.603   7.969 -1.9829 -1.1436 -0.2429
  868MOL0     H17115   8.652   7.568   7.887 -1.9604  0.0789 -1.1644
  868MOL0     H17116   8.635   7.749   7.881  0.8414  1.2744  1.9621
  868MOL0     H17117   8.779   7.714   8.059 -1.6688  2.5851 -1.4964
  868MOL0     H17118   8.634   7.748   8.130  4.0543  0.6742  0.9411
  868MOL0     H17119   8.596   7.510   8.197  0.2377 -1.0627 -0.3982
  868MOL0     H17120   8.715   7.458   8.075 -2.0487  1.2306 -1.9766
  868MOL0     H17121   8.814   7.436   8.280 -0.2786  0.0423  0.2430
  868MOL0     H17122   8.890   7.579   8.203  0.4407  1.6788  1.7451
  868MOL0     H17123   8.846   7.655   8.433  2.5024 -1.2648 -3.2955
  868MOL0     H17124   8.697   7.715   8.339 -0.5849  0.9240  1.3083
  868MOL0     H17125   8.617   7.460   8.407 -4.6801  3.9414 -1.5232
  868MOL0     H17126   8.725   7.500   8.538 -0.7380  1.4781  2.1390
  868MOL0     H17127   8.502   7.534   8.591  1.3234 -1.6452 -0.7224
  868MOL0     H17128   8.600   7.678   8.609 -1.4774  0.0322  1.5290
  868MOL0     H17129   8.411   7.608   8.365  0.2614  0.3551 -0.1306
  868MOL0     H17130   8.508   7.763   8.372 -1.6389  0.6087 -1.7095
  868MOL0     H17131   8.208   7.582   8.525  4.9252 -0.8660 -1.6565
  868MOL0     H17132   7.995   7.670   8.682 -0.0706  0.3954  2.2950
  868MOL0     H17133   7.999   7.833   8.735  2.2520 -1.1473  1.5778
  868MOL0     H17134   7.933   7.923   8.536 -2.3650  1.3138  2.6334
  868MOL0     H17135   7.822   7.787   8.590  0.1340  0.2266 -0.7275
  868MOL0     H17136   7.909   7.636   8.413  0.4152 -0.0706 -2.2274
  868MOL0     H17137   8.014   7.763   8.362 -0.4132 -1.4130 -2.1706
  868MOL0     H17138   7.851   7.867   8.234 -0.6862  0.5286 -0.9655
  868MOL0     H17139   7.734   7.867   8.362  0.2392  0.8425 -2.3767
  868MOL0     H17140   7.541   7.526   8.154 -1.2124 -1.2008 -1.1528
  868MOL0     H17141   7.267   7.555   7.968  0.8894  1.0800 -0.0717
  868MOL0     H17142   7.398   7.481   7.871  0.1848  0.9131  0.3534
  868MOL0     H17143   7.380   7.450   8.045  1.0767 -0.9677 -1.6710
  868MOL0     H17144   7.257   8.147   7.741 -1.1966  1.1661 -0.9970
  868MOL0     H17145   7.112   8.224   7.579 -0.3290 -0.8592  2.0796
  868MOL0     H17146   6.901   8.194   7.444  1.1301 -1.5968  1.1134
  868MOL0     H17147   7.019   8.298   7.369 -3.7774  3.2769  1.1161
  868MOL0     H17148   6.814   8.126   7.217  0.9364 -0.9655 -2.5785
  868MOL0     H17149   6.806   8.298   7.236  1.7867  2.0508  1.0508
  868MOL0     H17150   7.012   8.132   7.077  3.3963  1.1076  0.6653
  868MOL0     H17151   7.042   8.292   7.112 -0.9181  0.2686  0.6479
  868MOL0     H17152   6.771   8.225   6.987  1.2213 -2.3170  2.0700
  868MOL0     H17153   6.848   8.387   7.020  0.7031  0.5252  0.8704
  868MOL0     H17154   6.863   8.328   6.782 -1.2139 -1.5902  1.1904
  868MOL0     H17155   6.921   8.171   6.820  1.9100  0.5835 -1.4185
  868MOL0     H17156   7.080   8.421   6.880 -0.2912  0.7080 -1.6183
  868MOL0     H17157   7.141   8.249   6.864  1.4599 -0.6216 -2.7945
  868MOL0     H17158   7.008   8.422   6.641 -1.4652 -0.8535  0.8972
  868MOL0     H17159   7.074   8.249   6.640 -0.9812 -1.8733  3.2174
  868MOL0     H17160   7.268   8.470   6.709  1.0345 -1.3141  1.1005
  868MOL0     H17161   7.205   8.447   6.541 -1.9934 -1.4383 -0.3171
  868MOL0     H17162   7.116   7.848   7.371 -0.4826 -0.2784  0.4417
  868MOL0     H17163   7.282   7.757   7.555  0.9120  0.6086  0.2403
  868MOL0     H17164   7.528   7.962   7.931  1.2644  0.0863 -0.8491
  868MOL0     H17165   7.684   7.936   8.101  1.1651 -1.3557 -0.3851
  868MOL0     H17166   8.538   7.605   7.686  0.7196 -1.0824  2.3603
  868MOL0     H17167   8.401   7.545   7.510  2.7326  0.5110  0.5987
  868MOL0     H17168   8.172   7.179   7.256 -1.1599 -1.8564  0.8197
  868MOL0     H17169   8.012   7.108   7.109 -0.9311 -0.8735 -1.0654
  868MOL0     H17170   7.571   7.087   7.067  2.3676 -1.4000 -1.3273
  868MOL0     H17171   7.597   7.142   7.227 -2.1888  2.0742  0.2816
  868MOL0     H17172   7.560   7.322   6.988 -0.4578  1.0206  0.1559
  868MOL0     H17173   7.562   7.383   7.152 -1.7048  0.3828  0.6553
  868MOL0     H17174   7.368   7.243   7.220  1.8179 -1.5430  0.0499
  868MOL0     H17175   7.337   7.198   7.044 -1.4575  3.3100 -1.2520
  868MOL0     H17176   7.187   7.369   7.094  0.1375 -0.7375  0.1785
  868MOL0     H17177   7.314   7.449   7.009 -4.0152 -0.1388 -1.2712
  868MOL0     H17178   7.370   7.628   7.386 -0.6500 -3.0133  2.0171
  868MOL0     H17179   7.713   7.365   7.289 -0.4285  0.5586 -0.1910
  868MOL0     H17180   7.903   7.440   7.454 -0.0506  0.1960 -0.8667
  869MOL0     O17181   5.781   0.771   7.471 -0.5123  1.0044  0.5385
  869MOL0     C17182   5.842   0.822   7.562 -0.3311  0.0523  0.8508
  869MOL0     O17183   5.787   0.909   7.649  0.0275 -0.1109 -0.7833
  869MOL0     C17184   5.650   0.931   7.649 -0.4166 -0.2322  0.8590
  869MOL0     C17185   5.597   1.056   7.663 -1.6616  0.0883 -0.5701
  869MOL0     C17186   5.457   1.081   7.647 -0.0610  0.3971  0.3692
  869MOL0     C17187   5.372   0.970   7.644 -0.7441 -0.2267  0.1866
  869MOL0     O17188   5.241   0.983   7.661  0.3156  0.2090  0.8509
  869MOL0     C17189   5.196   1.029   7.792 -0.4535 -0.1965 -0.5551
  869MOL0     C17190   5.050   0.998   7.815  0.4605  0.3618 -0.2502
  869MOL0     C17191   4.967   1.092   7.726  0.5170  0.4978 -0.1899
  869MOL0     C17192   4.823   1.134   7.771 -0.1181  0.0193  0.8213
  869MOL0     C17193   4.747   1.016   7.818  0.3090 -0.0625  0.2252
  869MOL0     C17194   4.594   1.051   7.831 -0.5303  0.4382  0.1204
  869MOL0     C17195   4.534   0.933   7.904  0.2526 -0.4304 -0.2076
  869MOL0     C17196   4.515   0.951   8.053 -0.1545  0.4983  0.1015
  869MOL0     N17197   4.415   0.865   8.114  1.3697 -0.1606  0.5015
  869MOL0     C17198   4.278   0.879   8.075  0.6465  0.3986 -0.8177
  869MOL0     C17199   4.209   0.817   8.179  0.1918 -0.6956 -0.0682
  869MOL0     C17200   4.058   0.800   8.178 -0.3227  0.0183  0.2420
  869MOL0     C17201   4.022   0.709   8.065  0.5560 -0.0263 -0.1780
  869MOL0     C17202   3.866   0.674   8.060  0.0973 -0.4736  0.2416
  869MOL0     C17203   3.792   0.804   7.997 -0.0475  1.1041 -0.1711
  869MOL0     O17204   3.659   0.774   7.976  0.5173 -0.5585 -0.0686
  869MOL0     C17205   3.567   0.798   8.080 -0.5885  0.5110  0.4738
  869MOL0     C17206   3.442   0.813   8.054  0.5875  0.0824  0.3367
  869MOL0     C17207   3.344   0.855   8.146 -0.4241  0.2207  0.1507
  869MOL0     C17208   3.206   0.902   8.091 -1.0313  0.2154 -0.4823
  869MOL0     C17209   3.373   0.867   8.282  0.0554  1.3098  0.5652
  869MOL0     C17210   3.272   0.904   8.387 -0.2958 -0.1430  0.7406
  869MOL0     O17211   3.330   0.960   8.497  0.1455  0.2174  0.8194
  869MOL0     C17212   3.250   1.027   8.589 -0.1363  0.5671 -0.3685
  869MOL0     C17213   3.219   1.159   8.568 -0.5103 -1.3816 -0.1716
  869MOL0     C17214   3.149   1.233   8.669  0.3226  0.8591 -1.0574
  869MOL0     C17215   3.110   1.165   8.783 -0.2935  0.0129  0.6269
  869MOL0     O17216   3.041   1.237   8.880 -0.4144 -0.0092 -0.5916
  869MOL0     C17217   3.052   1.199   9.023  0.0962  0.7572  0.0054
  869MOL0     C17218   3.188   1.220   9.069 -0.1934  0.3929  0.0777
  869MOL0     C17219   3.216   1.372   9.071  0.6055 -0.0749 -0.0359
  869MOL0     C17220   3.367   1.403   9.086  0.4087  0.9690 -0.1883
  869MOL0     C17221   3.394   1.519   9.176 -0.1118  0.0276 -0.2657
  869MOL0     C17222   3.342   1.654   9.125 -0.5105  0.1267  0.6279
  869MOL0     C17223   3.402   1.779   9.190 -0.1247 -0.0454 -0.4449
  869MOL0     C17224   3.331   1.803   9.317  0.3418  0.7160  0.0034
  869MOL0    Cl17225   3.334   1.979   9.332  0.1535  0.0344 -0.2009
  869MOL0     C17226   3.154   1.034   8.804  0.2999  0.3038 -0.1196
  869MOL0     C17227   3.216   0.957   8.699 -0.0186 -0.9235 -0.8493
  869MOL0     O17228   3.151   0.906   8.367  0.3171  0.3164  0.0716
  869MOL0     C17229   3.510   0.867   8.307 -0.3702  0.1006 -0.9329
  869MOL0     C17230   3.602   0.831   8.204 -0.2712 -0.8448 -0.0181
  869MOL0     N17231   4.301   0.784   8.278  0.8560 -0.4299 -0.3636
  869MOL0     N17232   4.416   0.824   8.241 -0.2540 -0.4081  0.3686
  869MOL0     C17233   5.434   0.840   7.639 -0.1927 -0.1826 -0.6494
  869MOL0     C17234   5.566   0.822   7.632  0.5129 -0.3273  0.0612
  869MOL0     C17235   5.983   0.796   7.570 -0.2648 -0.0445 -0.0283
  869MOL0     C17236   6.067   0.895   7.613  1.2274 -0.4950  0.0649
  869MOL0     C17237   6.196   0.870   7.634 -0.3262 -0.9390  0.3093
  869MOL0     C17238   6.251   0.738   7.618  0.6186  0.4366  1.0189
  869MOL0     O17239   6.384   0.705   7.641  0.5176 -0.3524  0.0370
  869MOL0     C17240   6.475   0.804   7.701  1.2337 -0.0878 -0.2195
  869MOL0     C17241   6.613   0.736   7.737  0.2159 -0.4291  0.1269
  869MOL0     C17242   6.692   0.725   7.603 -0.5601 -0.2278 -0.0153
  869MOL0     C17243   6.815   0.627   7.614  0.0659 -0.0366  0.4392
  869MOL0     C17244   6.936   0.683   7.559  0.3558  0.0153  0.5178
  869MOL0     C17245   7.041   0.714   7.512  0.5039  0.3151 -0.3977
  869MOL0     C17246   6.169   0.642   7.561 -0.5834  0.1611 -0.2042
  869MOL0     C17247   6.033   0.675   7.534 -0.1063  0.0200 -0.0175
  869MOL0     H17248   5.676   1.130   7.669  0.1614 -1.8968  1.3770
  869MOL0     H17249   5.426   1.185   7.658  0.9517  0.6095  1.2865
  869MOL0     H17250   5.255   0.974   7.866  1.0966  1.7555 -0.2622
  869MOL0     H17251   5.205   1.138   7.797 -0.9247 -0.0736 -1.9830
  869MOL0     H17252   5.037   0.893   7.786 -3.4318  0.4298  0.6643
  869MOL0     H17253   5.022   1.011   7.920 -0.4449  0.1308 -0.4586
  869MOL0     H17254   5.023   1.186   7.720  2.4220 -0.6350 -1.0899
  869MOL0     H17255   4.962   1.050   7.625  0.0578 -0.2715  0.1441
  869MOL0     H17256   4.825   1.212   7.847 -2.0258  0.5529  0.3768
  869MOL0     H17257   4.762   1.166   7.687  1.2357  0.1780 -0.1378
  869MOL0     H17258   4.755   0.929   7.752  2.5284  0.9934 -1.0226
  869MOL0     H17259   4.799   0.997   7.912  1.8561 -0.9549 -0.7660
  869MOL0     H17260   4.579   1.141   7.891 -0.2408 -0.3405  1.3924
  869MOL0     H17261   4.541   1.067   7.737 -0.7124 -0.9206 -0.0249
  869MOL0     H17262   4.434   0.922   7.860 -1.4188  2.1078  2.5106
  869MOL0     H17263   4.592   0.841   7.897  0.6189 -0.2620  0.5260
  869MOL0     H17264   4.492   1.056   8.069 -1.0941  0.0268  2.1757
  869MOL0     H17265   4.614   0.936   8.098  0.2741  0.2662 -0.8806
  869MOL0     H17266   4.234   0.913   7.982 -3.0022  1.0840  0.9531
  869MOL0     H17267   4.030   0.754   8.273  4.4450 -2.0405  0.9759
  869MOL0     H17268   4.019   0.902   8.170 -0.6307 -0.0790  0.4813
  869MOL0     H17269   4.078   0.615   8.065 -1.3853 -1.2573  0.6563
  869MOL0     H17270   4.049   0.765   7.975 -1.5736  1.0498 -0.2036
  869MOL0     H17271   3.826   0.646   8.158 -1.4406  0.5186 -0.0659
  869MOL0     H17272   3.838   0.596   7.988  1.5905  0.7080 -1.7054
  869MOL0     H17273   3.841   0.818   7.900 -0.6241  1.2864 -0.4373
  869MOL0     H17274   3.800   0.899   8.050 -0.3571  0.6428  0.7067
  869MOL0     H17275   3.421   0.804   7.948  1.3668  0.0126  0.1833
  869MOL0     H17276   3.206   0.900   7.982  0.5979  1.1518 -0.5345
  869MOL0     H17277   3.123   0.839   8.124 -0.8885  0.0637 -0.4080
  869MOL0     H17278   3.189   1.005   8.125  1.1473  0.3944  0.2376
  869MOL0     H17279   3.251   1.204   8.475 -0.1609 -0.7808  0.2297
  869MOL0     H17280   3.134   1.340   8.661 -0.8696  0.8885  0.9772
  869MOL0     H17281   2.987   1.265   9.083 -0.2383  0.6351 -0.2184
  869MOL0     H17282   3.012   1.099   9.043 -0.6560  1.3567  1.6839
  869MOL0     H17283   3.198   1.186   9.172  0.8920  3.3938  1.0717
  869MOL0     H17284   3.266   1.167   9.014  3.8896  2.6346  3.1291
  869MOL0     H17285   3.177   1.421   9.160 -1.5587  3.6839 -2.7629
  869MOL0     H17286   3.158   1.434   9.002  0.0861 -2.3293 -1.7527
  869MOL0     H17287   3.402   1.310   9.132 -2.0306 -0.8713 -1.7941
  869MOL0     H17288   3.406   1.423   8.986  0.3228  5.0044  0.4301
  869MOL0     H17289   3.504   1.519   9.179 -0.0988 -1.2099 -0.2214
  869MOL0     H17290   3.365   1.512   9.281  1.2510  1.3799  0.2449
  869MOL0     H17291   3.367   1.657   9.019 -2.2698  0.3610  0.1817
  869MOL0     H17292   3.232   1.653   9.119 -0.5252  0.3491  0.8575
  869MOL0     H17293   3.395   1.864   9.121 -1.3189  1.6979  1.6890
  869MOL0     H17294   3.507   1.759   9.213 -0.6434 -2.1340  0.3207
  869MOL0     H17295   3.389   1.767   9.402  1.0144 -0.2905 -0.8489
  869MOL0     H17296   3.226   1.775   9.311  0.4128  0.4218  0.1257
  869MOL0     H17297   3.118   0.980   8.891 -1.6293  2.1330  0.3145
  869MOL0     H17298   3.243   0.852   8.702  1.6873 -0.5110 -0.9424
  869MOL0     H17299   3.544   0.893   8.406  0.6141  2.9034 -1.9131
  869MOL0     H17300   3.706   0.830   8.235 -0.4496 -2.3163  0.6284
  869MOL0     H17301   5.371   0.751   7.646 -0.5287  0.1677  3.0813
  869MOL0     H17302   5.608   0.723   7.646 -2.8767 -2.0954 -1.0926
  869MOL0     H17303   6.025   0.989   7.647  1.0928  0.0420 -1.5413
  869MOL0     H17304   6.251   0.950   7.682 -5.4577  4.5633 -1.6579
  869MOL0     H17305   6.484   0.898   7.645 -3.3168  0.0832 -1.0091
  869MOL0     H17306   6.427   0.846   7.790 -2.3725 -0.8088 -1.6505
  869MOL0     H17307   6.585   0.636   7.772 -1.1336 -0.5656 -1.2258
  869MOL0     H17308   6.663   0.796   7.813  0.3013 -0.2252 -0.0870
  869MOL0     H17309   6.726   0.820   7.561 -0.9968 -0.3769 -0.7236
  869MOL0     H17310   6.628   0.682   7.525  1.9604 -0.5779 -1.9920
  869MOL0     H17311   6.796   0.531   7.565 -0.9542 -0.6508  1.9486
  869MOL0     H17312   6.835   0.613   7.721  1.7557 -0.5924  0.0844
  869MOL0     H17313   7.143   0.732   7.484 -0.1000  0.4240 -2.6939
  869MOL0     H17314   6.203   0.544   7.527 -1.0056  0.2569 -0.9352
  869MOL0     H17315   5.962   0.603   7.494 -0.3899 -1.1850  2.5191
  870MOL0     O17316   6.901   7.211   1.524  0.1134 -0.6519  0.0620
  870MOL0     C17317   7.018   7.198   1.494  0.3210 -0.1295 -0.3097
  870MOL0     O17318   7.069   7.091   1.430  0.3263  0.2104 -0.4267
  870MOL0     C17319   7.001   6.979   1.393 -0.0055  0.4688 -1.0583
  870MOL0     C17320   6.867   6.944   1.428  0.7403  0.1294  1.2547
  870MOL0     C17321   6.805   6.824   1.387 -0.9122 -0.0138  0.5320
  870MOL0     C17322   6.876   6.733   1.306  0.1701 -0.2598 -1.0161
  870MOL0     O17323   6.830   6.614   1.263  0.5576  0.3901 -0.0494
  870MOL0     C17324   6.814   6.606   1.118  0.5253  0.2950 -0.3702
  870MOL0     C17325   6.671   6.651   1.067 -0.3553 -0.2918  0.2811
  870MOL0     C17326   6.560   6.556   1.103 -0.2047  0.6515 -0.1066
  870MOL0     C17327   6.431   6.588   1.028  0.1829 -0.0455  0.3056
  870MOL0     C17328   6.317   6.500   1.056 -0.1166  0.0735  0.1704
  870MOL0     C17329   6.181   6.545   1.001  0.2883 -0.4501  0.1424
  870MOL0     C17330   6.075   6.443   1.046  0.2178 -0.1954  0.0807
  870MOL0     C17331   5.928   6.507   1.026 -0.0822  1.7397  0.3699
  870MOL0     N17332   5.904   6.557   0.895 -0.6699 -0.2665 -0.4663
  870MOL0     C17333   5.824   6.503   0.798  0.1201 -0.3770  0.8233
  870MOL0     C17334   5.817   6.593   0.703  0.1673  0.5684 -0.3610
  870MOL0     C17335   5.732   6.576   0.580 -0.6672 -0.4499 -0.8070
  870MOL0     C17336   5.586   6.552   0.618 -0.8772 -0.1782  0.4857
  870MOL0     C17337   5.495   6.598   0.505 -0.2062 -0.6616 -0.2102
  870MOL0     C17338   5.357   6.568   0.536  0.2837  0.1173 -0.3280
  870MOL0     O17339   5.290   6.591   0.415 -0.2747 -0.5563  0.0280
  870MOL0     C17340   5.171   6.524   0.392  0.4276  0.3998  0.6786
  870MOL0     C17341   5.102   6.540   0.275  0.4685 -0.2438 -1.0784
  870MOL0     C17342   4.985   6.464   0.247 -0.3614 -0.0064  0.3047
  870MOL0     C17343   4.928   6.484   0.116  0.4250  0.5066  0.1316
  870MOL0     C17344   4.926   6.373   0.339 -0.5522  0.0100 -0.6666
  870MOL0     C17345   4.806   6.303   0.318  0.3671  0.8731  0.2602
  870MOL0     O17346   4.799   6.180   0.373  0.2643 -0.1578 -0.0509
  870MOL0     C17347   4.698   6.098   0.341 -0.6083  0.3751 -0.3798
  870MOL0     C17348   4.685   6.058   0.203  0.3398  0.1190 -0.2224
  870MOL0     C17349   4.557   6.004   0.171  0.0764 -0.3121  0.0419
  870MOL0     C17350   4.461   5.982   0.267  0.5890  0.2820 -0.5397
  870MOL0     O17351   4.339   5.936   0.221  0.3352 -0.8613 -0.4531
  870MOL0     C17352   4.251   5.865   0.313  0.2025 -0.0849 -0.1470
  870MOL0     C17353   4.151   5.782   0.230 -0.5891  0.3403 -0.0545
  870MOL0     C17354   4.034   5.725   0.311  0.4814 -0.2386 -0.8425
  870MOL0     C17355   3.926   5.813   0.365  0.1598  0.0047 -0.2047
  870MOL0     C17356   3.792   5.745   0.397  0.3254 -0.7495 -0.4584
  870MOL0     C17357   3.707   5.825   0.484  0.5789  0.1709 -0.4758
  870MOL0     C17358   3.586   5.750   0.543  0.1978 -0.5799 -0.2003
  870MOL0     C17359   3.479   5.845   0.609  0.8422  0.2236  0.8247
  870MOL0    Cl17360   3.452   5.999   0.526 -0.3077  0.3919 -0.2028
  870MOL0     C17361   4.487   6.006   0.400  0.7408  0.3050 -0.1028
  870MOL0     C17362   4.605   6.073   0.442 -0.2812  0.5224  0.4913
  870MOL0     O17363   4.719   6.358   0.255  0.2762 -0.0713 -0.1708
  870MOL0     C17364   4.994   6.373   0.468  0.4605 -0.6288  0.0082
  870MOL0     C17365   5.102   6.448   0.486 -0.8514  0.3055 -0.4900
  870MOL0     N17366   5.891   6.704   0.738 -0.0241  0.9030  0.0241
  870MOL0     N17367   5.951   6.674   0.849  0.6247 -0.5388  0.6117
  870MOL0     C17368   7.012   6.768   1.274  0.6230  0.9744 -0.1190
  870MOL0     C17369   7.072   6.889   1.312 -0.5556  0.2783 -1.7966
  870MOL0     C17370   7.117   7.294   1.535 -0.2423 -0.1027 -0.1113
  870MOL0     C17371   7.079   7.414   1.602  0.4501 -0.0370  0.0848
  870MOL0     C17372   7.173   7.504   1.650  0.4080  0.9912 -0.5776
  870MOL0     C17373   7.310   7.481   1.625  0.6648  0.3077  0.3365
  870MOL0     O17374   7.405   7.555   1.675 -0.1955 -0.1598  0.2948
  870MOL0     C17375   7.392   7.689   1.642  0.1654 -0.0109 -0.5385
  870MOL0     C17376   7.542   7.728   1.658 -0.1692  0.0360  0.6562
  870MOL0     C17377   7.654   7.655   1.587  0.5044  0.6984 -0.1583
  870MOL0     C17378   7.706   7.528   1.658  0.3033 -0.1750  0.1754
  870MOL0     C17379   7.840   7.538   1.714  0.3378 -0.1020 -0.3943
  870MOL0     C17380   7.945   7.568   1.770  0.2180  1.0282  0.0895
  870MOL0     C17381   7.347   7.368   1.552  1.0406 -0.2485 -0.6702
  870MOL0     C17382   7.254   7.268   1.506  0.1012 -0.1422  0.3319
  870MOL0     H17383   6.798   7.009   1.480 -0.1733 -1.0264  1.5175
  870MOL0     H17384   6.705   6.804   1.424 -1.9767 -1.5083 -2.7304
  870MOL0     H17385   6.888   6.670   1.069  1.3386 -1.5793 -1.7054
  870MOL0     H17386   6.831   6.507   1.075  0.7718  0.8246 -1.5378
  870MOL0     H17387   6.652   6.746   1.118 -1.1995 -1.7864  2.9855
  870MOL0     H17388   6.673   6.660   0.958  0.3270 -2.8068  0.0148
  870MOL0     H17389   6.583   6.455   1.067 -1.6153  0.7287 -1.3061
  870MOL0     H17390   6.541   6.565   1.211 -0.0785  3.3702 -0.2588
  870MOL0     H17391   6.399   6.691   1.047 -1.1413  0.0845 -2.1541
  870MOL0     H17392   6.450   6.589   0.920  1.0460 -1.6406  0.4137
  870MOL0     H17393   6.327   6.400   1.013 -0.6838  0.4700 -0.9451
  870MOL0     H17394   6.321   6.479   1.163  1.4305  0.6816  0.2623
  870MOL0     H17395   6.156   6.643   1.043  2.3775  0.0632  0.3183
  870MOL0     H17396   6.193   6.549   0.893  0.4040  3.7239  0.1841
  870MOL0     H17397   6.089   6.348   0.994  1.8877 -0.5575  1.1087
  870MOL0     H17398   6.090   6.424   1.152 -2.5880 -1.7859  0.2794
  870MOL0     H17399   5.930   6.597   1.089 -0.3362  0.6060  2.0620
  870MOL0     H17400   5.856   6.428   1.052  1.4117 -0.3523 -1.5182
  870MOL0     H17401   5.766   6.412   0.810 -1.3069  0.6186  1.7914
  870MOL0     H17402   5.744   6.670   0.524  1.3362  1.1140  1.9380
  870MOL0     H17403   5.763   6.498   0.510  2.3028  0.4040 -0.6039
  870MOL0     H17404   5.562   6.601   0.712  0.9180  0.6382  0.5691
  870MOL0     H17405   5.577   6.443   0.625  0.8018 -0.7945 -3.6950
  870MOL0     H17406   5.535   6.547   0.416  0.7811 -1.1218  0.4768
  870MOL0     H17407   5.502   6.707   0.493  0.2166 -0.6979 -0.3218
  870MOL0     H17408   5.322   6.617   0.627 -0.6931 -2.7635  0.9670
  870MOL0     H17409   5.356   6.461   0.560  1.1650 -0.1278 -1.3005
  870MOL0     H17410   5.148   6.602   0.198 -0.4079  0.8041 -0.7919
  870MOL0     H17411   4.932   6.384   0.071 -1.9244 -0.2407  1.3861
  870MOL0     H17412   4.822   6.512   0.115 -0.1065 -1.2083 -2.2180
  870MOL0     H17413   4.979   6.567   0.066 -3.3462  3.1246  0.2540
  870MOL0     H17414   4.752   6.092   0.125 -0.3954  0.4443 -0.7267
  870MOL0     H17415   4.535   5.973   0.070 -1.1483  0.3399  0.0857
  870MOL0     H17416   4.322   5.805   0.371 -1.0456 -1.4166  0.0530
  870MOL0     H17417   4.195   5.940   0.369 -0.9100 -1.6110  0.8715
  870MOL0     H17418   4.120   5.854   0.153  1.3776  1.7548  0.4112
  870MOL0     H17419   4.210   5.700   0.188 -0.5650  0.9687 -1.2790
  870MOL0     H17420   4.075   5.669   0.396 -2.2558  0.5348  1.1287
  870MOL0     H17421   3.975   5.655   0.252  1.0372 -1.3307 -0.1433
  870MOL0     H17422   3.962   5.846   0.463 -0.6592 -1.2546  0.5371
  870MOL0     H17423   3.903   5.901   0.304  0.0382  1.2881  1.6000
  870MOL0     H17424   3.812   5.648   0.443 -1.3448 -0.5174  0.8420
  870MOL0     H17425   3.741   5.718   0.305  2.2577 -1.3147 -1.4051
  870MOL0     H17426   3.773   5.863   0.562  2.1760 -3.2582  0.0151
  870MOL0     H17427   3.670   5.910   0.425 -3.3549 -0.1710  1.1864
  870MOL0     H17428   3.623   5.675   0.613  2.6164  1.7291  1.1929
  870MOL0     H17429   3.533   5.711   0.455 -1.0200  1.6371 -0.5388
  870MOL0     H17430   3.507   5.871   0.711 -0.5773  0.2155  1.2406
  870MOL0     H17431   3.388   5.788   0.627  0.4185  1.5330  3.1418
  870MOL0     H17432   4.408   5.987   0.472  1.9700  0.7725  1.4247
  870MOL0     H17433   4.621   6.102   0.546 -1.0691 -1.3990  1.1918
  870MOL0     H17434   4.952   6.319   0.552  0.2677 -0.2133  0.1830
  870MOL0     H17435   5.142   6.445   0.587  2.5910  0.8545 -1.6917
  870MOL0     H17436   7.088   6.702   1.233  0.4551  1.6788 -1.6419
  870MOL0     H17437   7.179   6.888   1.290  0.1785 -1.6054  1.2105
  870MOL0     H17438   6.974   7.431   1.622  0.5667 -1.3664  2.0867
  870MOL0     H17439   7.149   7.598   1.699  1.5058  3.2527 -3.9888
  870MOL0     H17440   7.344   7.706   1.545 -1.4170 -1.2250 -0.0149
  870MOL0     H17441   7.340   7.753   1.713 -0.5914  0.1164 -1.1982
  870MOL0     H17442   7.575   7.730   1.763  3.0656 -0.1940 -0.2475
  870MOL0     H17443   7.542   7.830   1.619  1.6665  0.1348  0.8629
  870MOL0     H17444   7.736   7.726   1.576  0.8164  0.8772  2.6763
  870MOL0     H17445   7.613   7.640   1.486  2.0790 -1.4107 -0.5552
  870MOL0     H17446   7.707   7.454   1.577 -3.1099 -1.4773  1.1533
  870MOL0     H17447   7.631   7.496   1.731  0.4257 -0.1408  0.3162
  870MOL0     H17448   8.044   7.584   1.809  1.1939 -2.3915 -0.5846
  870MOL0     H17449   7.451   7.351   1.527  0.6902 -3.3975 -0.3220
  870MOL0     H17450   7.288   7.188   1.442  0.1580  2.3198 -2.9778
  871MOL0     O17451   1.938   5.307   3.099  0.0043  0.2286  0.0866
  871MOL0     C17452   1.881   5.393   3.031 -0.3498  0.2063  0.2161
  871MOL0     O17453   1.948   5.493   2.963 -0.1606 -0.7620  0.2425
  871MOL0     C17454   2.086   5.516   2.958 -0.0636  0.2582  0.3844
  871MOL0     C17455   2.135   5.637   2.903  0.3593 -0.7402 -0.0170
  871MOL0     C17456   2.269   5.666   2.894 -0.1782 -0.6223 -1.0214
  871MOL0     C17457   2.360   5.572   2.936  0.4486  0.4420  0.2510
  871MOL0     O17458   2.492   5.586   2.915  0.6017 -0.0486 -0.3772
  871MOL0     C17459   2.542   5.575   2.786  0.0231 -0.8097  0.1154
  871MOL0     C17460   2.693   5.576   2.779  0.9694 -1.1866 -0.5804
  871MOL0     C17461   2.752   5.714   2.802  0.0566  0.4370 -0.5262
  871MOL0     C17462   2.896   5.721   2.738 -0.1980  0.4686  0.0432
  871MOL0     C17463   2.929   5.872   2.736 -0.5158 -0.2776 -0.4242
  871MOL0     C17464   3.045   5.908   2.647 -0.2760 -0.0965  0.2018
  871MOL0     C17465   3.180   5.848   2.694  0.1070 -1.0936 -0.2477
  871MOL0     C17466   3.298   5.920   2.624  0.1706 -0.3434  0.3043
  871MOL0     N17467   3.406   5.821   2.637  0.6020  0.1967 -2.0025
  871MOL0     C17468   3.452   5.754   2.530 -0.7121  0.0318  0.2257
  871MOL0     C17469   3.576   5.728   2.558 -0.1765 -0.2534  0.2591
  871MOL0     C17470   3.686   5.670   2.474  0.6251  0.1471 -0.6241
  871MOL0     C17471   3.760   5.770   2.383 -0.7538 -0.2520 -0.4155
  871MOL0     C17472   3.857   5.853   2.459  0.3582 -0.5147  0.4137
  871MOL0     C17473   3.921   5.967   2.387 -0.4265 -0.1080 -0.0153
  871MOL0     O17474   4.030   5.914   2.306 -0.6528 -0.3089  0.4468
  871MOL0     C17475   4.106   6.007   2.234  0.0634  0.1682  0.5073
  871MOL0     C17476   4.060   6.138   2.211 -1.0148 -0.2960  0.5708
  871MOL0     C17477   4.130   6.225   2.133 -0.5255  0.1838  0.2105
  871MOL0     C17478   4.068   6.358   2.114  0.7167 -0.7926 -0.3564
  871MOL0     C17479   4.250   6.191   2.077 -0.5501 -0.0226 -0.7344
  871MOL0     C17480   4.343   6.283   1.999 -0.6318  0.5600  0.1486
  871MOL0     O17481   4.456   6.225   1.948  0.2876  0.4935  0.2058
  871MOL0     C17482   4.530   6.291   1.850 -0.1970  0.1712  1.1546
  871MOL0     C17483   4.462   6.352   1.738 -0.1913 -0.7551  0.1335
  871MOL0     C17484   4.529   6.450   1.657  1.3156 -0.1730 -0.0732
  871MOL0     C17485   4.667   6.463   1.679 -0.7243  0.7517 -0.4558
  871MOL0     O17486   4.731   6.559   1.606 -0.0348 -0.5857 -0.1478
  871MOL0     C17487   4.863   6.521   1.551  0.6507 -0.3983  0.1502
  871MOL0     C17488   4.860   6.555   1.403 -1.0949  1.3607  0.5583
  871MOL0     C17489   4.976   6.469   1.324  0.3994 -0.2096 -0.7094
  871MOL0     C17490   5.116   6.482   1.379 -0.3331  0.6456  0.1281
  871MOL0     C17491   5.154   6.629   1.394 -0.1283  0.6663 -0.0287
  871MOL0     C17492   5.302   6.619   1.429 -0.0162 -0.1940 -0.3178
  871MOL0     C17493   5.349   6.766   1.450 -0.6203 -0.4244  0.5804
  871MOL0     C17494   5.505   6.754   1.445 -0.0439 -0.5928 -0.1586
  871MOL0    Cl17495   5.580   6.918   1.449 -0.0353  0.0534  0.5240
  871MOL0     C17496   4.742   6.395   1.777  0.4118  0.9447 -0.1330
  871MOL0     C17497   4.673   6.308   1.862 -0.2576 -0.1026 -0.3238
  871MOL0     O17498   4.312   6.397   1.981  0.3151  0.1483  0.2763
  871MOL0     C17499   4.299   6.061   2.086  0.9580  0.0798  0.5271
  871MOL0     C17500   4.218   5.971   2.164 -0.6221 -0.0219  1.0653
  871MOL0     N17501   3.601   5.766   2.686  0.3137 -0.2598  0.8464
  871MOL0     N17502   3.495   5.813   2.741 -0.3010 -0.6009 -0.3603
  871MOL0     C17503   2.315   5.449   2.988 -0.5853 -0.0621  0.3895
  871MOL0     C17504   2.186   5.421   2.995 -0.5762 -0.4268 -0.1274
  871MOL0     C17505   1.737   5.402   3.043  0.1189  0.1152  0.0112
  871MOL0     C17506   1.675   5.532   3.052 -0.1021 -0.3361 -0.7888
  871MOL0     C17507   1.535   5.546   3.063 -0.4748  0.2985  0.5712
  871MOL0     C17508   1.453   5.437   3.064  0.2752 -0.0836 -0.2786
  871MOL0     O17509   1.317   5.458   3.099  0.1406  0.0725  0.1621
  871MOL0     C17510   1.225   5.348   3.105 -0.5248  0.5201 -0.9968
  871MOL0     C17511   1.086   5.414   3.146 -0.1166  0.0596  0.3786
  871MOL0     C17512   1.086   5.493   3.278  0.5794 -0.4443 -0.9877
  871MOL0     C17513   0.956   5.582   3.274  0.3127  0.4477 -0.3556
  871MOL0     C17514   0.986   5.687   3.175  0.1126 -0.3556  0.3231
  871MOL0     C17515   1.010   5.774   3.091 -0.0756  0.2834 -0.5336
  871MOL0     C17516   1.510   5.305   3.052 -0.9848 -0.5236 -0.3321
  871MOL0     C17517   1.646   5.290   3.043 -0.3900  0.3908 -0.6168
  871MOL0     H17518   2.071   5.716   2.867  0.2801 -1.6276 -1.9385
  871MOL0     H17519   2.306   5.753   2.841 -1.6137  0.5467 -0.1704
  871MOL0     H17520   2.529   5.474   2.746  0.4004 -0.2369 -1.4907
  871MOL0     H17521   2.497   5.653   2.724  0.0475  0.2025  1.3149
  871MOL0     H17522   2.731   5.516   2.862 -0.5850 -1.2236  0.1453
  871MOL0     H17523   2.732   5.542   2.682  0.7480 -1.3628 -0.6084
  871MOL0     H17524   2.677   5.781   2.759  0.3673 -0.0346 -1.8699
  871MOL0     H17525   2.754   5.742   2.907  0.7618  0.2657 -0.4829
  871MOL0     H17526   2.964   5.670   2.807  0.7637  2.3479  0.5561
  871MOL0     H17527   2.897   5.676   2.638 -1.0169  1.2966 -0.3570
  871MOL0     H17528   2.846   5.934   2.701 -0.8921  0.4066  1.5501
  871MOL0     H17529   2.952   5.903   2.838 -0.9979  0.6056 -0.5715
  871MOL0     H17530   3.022   5.890   2.541  0.5432  2.0959 -0.4087
  871MOL0     H17531   3.062   6.014   2.666 -2.1701  0.1933  0.4364
  871MOL0     H17532   3.195   5.875   2.799 -0.9036  1.6466 -0.7411
  871MOL0     H17533   3.168   5.741   2.673  0.2059 -1.2938  0.6803
  871MOL0     H17534   3.323   6.015   2.672  4.9887 -1.8261  1.2254
  871MOL0     H17535   3.272   5.941   2.520  1.2260 -0.5000  0.0019
  871MOL0     H17536   3.418   5.765   2.428  5.4259  1.2265 -2.1139
  871MOL0     H17537   3.758   5.610   2.530 -1.4156 -0.6850  1.2297
  871MOL0     H17538   3.628   5.596   2.419 -0.0712 -0.0544  0.3621
  871MOL0     H17539   3.681   5.836   2.346  0.0585  0.9333 -0.0715
  871MOL0     H17540   3.811   5.713   2.304  2.0458  1.7546 -0.1913
  871MOL0     H17541   3.928   5.781   2.501 -1.7991 -2.3778  1.0865
  871MOL0     H17542   3.802   5.891   2.546  1.5516  0.8726  0.5948
  871MOL0     H17543   3.964   6.031   2.465 -1.3779 -0.1888  0.5911
  871MOL0     H17544   3.844   6.022   2.331 -0.9476  1.4472  2.0741
  871MOL0     H17545   3.963   6.167   2.250  0.1328  1.2161  2.5223
  871MOL0     H17546   3.986   6.364   2.186 -1.7531 -0.0135 -3.0652
  871MOL0     H17547   4.136   6.439   2.143 -0.4319 -0.1162  0.5655
  871MOL0     H17548   4.017   6.371   2.019 -2.5773  1.6567  1.5178
  871MOL0     H17549   4.355   6.334   1.727 -0.2782 -1.2132  1.4843
  871MOL0     H17550   4.481   6.505   1.576 -0.2996 -2.1176 -0.5097
  871MOL0     H17551   4.944   6.579   1.597  1.1962 -1.0520  0.0247
  871MOL0     H17552   4.884   6.415   1.560 -2.0912 -0.9454  0.8318
  871MOL0     H17553   4.765   6.533   1.354 -0.5513  3.5716 -1.7402
  871MOL0     H17554   4.875   6.661   1.380 -0.4065  1.6497  2.1980
  871MOL0     H17555   4.960   6.491   1.218 -3.6502  0.6272 -0.0681
  871MOL0     H17556   4.949   6.365   1.344  0.4579  0.0988  1.0655
  871MOL0     H17557   5.140   6.429   1.471  3.2316 -0.1234 -1.1038
  871MOL0     H17558   5.180   6.434   1.304 -1.2992  1.5868 -1.3531
  871MOL0     H17559   5.107   6.674   1.482  0.3681  1.3737 -0.1193
  871MOL0     H17560   5.133   6.685   1.303 -1.0577  0.5088  0.0758
  871MOL0     H17561   5.321   6.556   1.517  0.4719 -1.0127 -0.9860
  871MOL0     H17562   5.362   6.575   1.348 -0.1517 -0.0860 -0.4760
  871MOL0     H17563   5.306   6.801   1.544 -2.0270 -0.0953 -0.1514
  871MOL0     H17564   5.322   6.817   1.357  0.3683 -4.3255 -2.1399
  871MOL0     H17565   5.531   6.705   1.350 -0.4297  0.1850 -0.6784
  871MOL0     H17566   5.528   6.683   1.524 -2.5531 -1.7151 -0.3380
  871MOL0     H17567   4.848   6.404   1.800  0.3095 -0.1723  0.8951
  871MOL0     H17568   4.724   6.263   1.946  1.3684  1.1245 -0.6064
  871MOL0     H17569   4.393   6.026   2.044 -0.1251  1.2993 -3.3285
  871MOL0     H17570   4.249   5.868   2.183  1.6004  0.3747 -0.0217
  871MOL0     H17571   2.394   5.389   3.032  0.1655  1.0363  0.6070
  871MOL0     H17572   2.159   5.321   3.028 -1.9310 -0.1373 -0.3010
  871MOL0     H17573   1.751   5.609   3.051  1.2603 -1.6326 -1.0076
  871MOL0     H17574   1.504   5.650   3.057  0.8246  0.6292 -3.2563
  871MOL0     H17575   1.215   5.286   3.015 -0.1716 -0.5003 -0.3464
  871MOL0     H17576   1.258   5.285   3.188  0.8388 -0.7699 -2.4563
  871MOL0     H17577   1.007   5.339   3.142  0.7578 -0.8238 -3.1051
  871MOL0     H17578   1.066   5.478   3.060 -3.0301  1.4540  1.9589
  871MOL0     H17579   1.169   5.564   3.285  0.1378 -0.0870  1.1090
  871MOL0     H17580   1.085   5.431   3.368 -0.0477  0.2170 -0.5274
  871MOL0     H17581   0.942   5.618   3.376  0.2176  0.7314 -0.4667
  871MOL0     H17582   0.868   5.523   3.247 -0.0824  1.4961 -1.4930
  871MOL0     H17583   1.035   5.849   3.019 -0.2365  1.8013  0.9457
  871MOL0     H17584   1.456   5.212   3.040 -2.1131 -0.4257  2.9544
  871MOL0     H17585   1.691   5.191   3.042 -0.6212  0.2695 -1.8863
  872MOL0     O17586   6.373  10.534   4.713 -0.9785 -0.0188  0.5993
  872MOL0     C17587   6.445  10.597   4.795  1.1389  0.0936  0.1393
  872MOL0     O17588   6.407  10.720   4.857  0.3251  0.5131  0.4491
  872MOL0     C17589   6.287  10.767   4.808  0.2696 -0.3741  0.1545
  872MOL0     C17590   6.161  10.735   4.866 -0.2000 -0.2206 -0.2208
  872MOL0     C17591   6.039  10.766   4.811  0.5458  0.7907  0.0839
  872MOL0     C17592   6.038  10.851   4.696  0.2309 -0.2938  0.9083
  872MOL0     O17593   5.912  10.888   4.630  0.6014  0.3052 -0.9283
  872MOL0     C17594   5.919  10.980   4.517 -0.2229  0.4326 -0.6016
  872MOL0     C17595   5.785  10.980   4.451  0.3330  0.3028 -0.1721
  872MOL0     C17596   5.667  11.035   4.539 -0.4322 -0.3395 -0.1623
  872MOL0     C17597   5.539  11.067   4.453 -0.8405  0.0306  0.5099
  872MOL0     C17598   5.449  10.946   4.450  0.2032  0.0873  0.5662
  872MOL0     C17599   5.326  10.970   4.364 -0.1037 -0.0240  0.2932
  872MOL0     C17600   5.275  10.828   4.310 -0.2235 -0.3122 -0.0588
  872MOL0     C17601   5.156  10.836   4.221  0.4153 -0.6119  0.1221
  872MOL0     N17602   5.120  10.714   4.154  0.2722  0.1310 -0.5037
  872MOL0     C17603   5.012  10.634   4.169  0.5684 -0.2807 -0.3708
  872MOL0     C17604   5.027  10.542   4.069  0.0820  0.1659  0.0387
  872MOL0     C17605   4.923  10.431   4.038 -0.1323 -0.4737  0.2583
  872MOL0     C17606   4.804  10.485   3.953 -0.2484  0.3915  0.4176
  872MOL0     C17607   4.718  10.583   4.043  0.1732  0.2056 -0.1988
  872MOL0     C17608   4.568  10.581   4.016  1.3829  0.5379 -0.0005
  872MOL0     O17609   4.519  10.452   3.978  0.2746  0.2621 -0.4900
  872MOL0     C17610   4.401  10.450   3.905  0.7353 -0.7768  0.1197
  872MOL0     C17611   4.305  10.551   3.921  0.5792  0.3651  0.1084
  872MOL0     C17612   4.202  10.561   3.830 -0.8274  0.4087 -0.2482
  872MOL0     C17613   4.106  10.678   3.836 -0.1171 -0.3135  0.1744
  872MOL0     C17614   4.179  10.456   3.739 -1.2497  1.7972 -0.2190
  872MOL0     C17615   4.059  10.441   3.650 -0.2383 -0.8610  0.0523
  872MOL0     O17616   4.074  10.389   3.527  0.3582 -0.6844  0.2105
  872MOL0     C17617   4.000  10.457   3.427 -0.1782  0.2585  0.2987
  872MOL0     C17618   3.961  10.594   3.422 -0.0265  0.1305 -0.5687
  872MOL0     C17619   3.878  10.656   3.317 -0.3750  0.8765 -0.1526
  872MOL0     C17620   3.844  10.570   3.210  0.0315  0.9066  1.2483
  872MOL0     O17621   3.773  10.614   3.100 -0.3957  0.5653  0.4430
  872MOL0     C17622   3.767  10.753   3.068 -0.0101 -0.0224 -0.4853
  872MOL0     C17623   3.710  10.780   2.933  0.0266 -0.0561 -0.1674
  872MOL0     C17624   3.563  10.727   2.912 -0.0546 -0.1070 -0.5378
  872MOL0     C17625   3.497  10.747   2.771 -0.9406 -0.4315 -0.0858
  872MOL0     C17626   3.353  10.693   2.757  0.5155 -0.0998  0.7005
  872MOL0     C17627   3.308  10.715   2.618  0.7129 -0.1446  0.1314
  872MOL0     C17628   3.158  10.667   2.588  0.2730  0.4465  0.4992
  872MOL0     C17629   3.135  10.637   2.443  0.8784  0.9472 -0.0485
  872MOL0    Cl17630   2.964  10.586   2.417 -0.2097 -0.1868  0.2683
  872MOL0     C17631   3.893  10.441   3.209 -0.5856 -0.4203  0.7276
  872MOL0     C17632   3.968  10.378   3.311  0.6882 -0.0388 -0.5159
  872MOL0     O17633   3.952  10.477   3.700 -0.0092  0.2239 -0.0867
  872MOL0     C17634   4.274  10.356   3.721 -0.1395 -0.6180 -0.1434
  872MOL0     C17635   4.386  10.356   3.806  0.4848 -0.5852  0.0361
  872MOL0     N17636   5.156  10.549   4.020 -0.1805 -0.2189 -0.3885
  872MOL0     N17637   5.205  10.665   4.067  0.2334 -0.9616  0.2575
  872MOL0     C17638   6.163  10.908   4.657 -0.1470 -0.0242  0.0569
  872MOL0     C17639   6.283  10.866   4.704 -0.5525  0.2050  0.2903
  872MOL0     C17640   6.573  10.541   4.835 -0.9432  0.0233 -0.0797
  872MOL0     C17641   6.598  10.402   4.809 -0.9159 -0.0740 -0.1155
  872MOL0     C17642   6.726  10.348   4.843  0.3919 -0.6299  0.2063
  872MOL0     C17643   6.826  10.429   4.904  0.1868  0.5045 -0.1667
  872MOL0     O17644   6.950  10.372   4.917 -0.4388 -0.1284 -0.2542
  872MOL0     C17645   7.054  10.422   5.001 -0.2814  0.0866 -0.3951
  872MOL0     C17646   7.195  10.362   4.968 -0.5780  0.1430 -0.6254
  872MOL0     C17647   7.303  10.462   5.026  0.7584 -0.1159 -0.1882
  872MOL0     C17648   7.435  10.406   4.980  0.8935  0.1406 -0.3546
  872MOL0     C17649   7.549  10.494   5.016  0.4610  0.7209  0.6398
  872MOL0     C17650   7.640  10.571   5.046 -0.8509  0.2933 -0.3148
  872MOL0     C17651   6.804  10.565   4.923 -0.3464 -0.0858 -0.1643
  872MOL0     C17652   6.673  10.617   4.898  0.4493  1.1274 -0.0554
  872MOL0     H17653   6.163  10.675   4.957 -1.4794  0.1093  0.0495
  872MOL0     H17654   5.946  10.724   4.849 -0.3919  0.8893 -1.9763
  872MOL0     H17655   5.945  11.083   4.543 -0.1301  0.2861 -0.0970
  872MOL0     H17656   5.981  10.934   4.439 -0.0827 -1.9306  0.7990
  872MOL0     H17657   5.798  11.052   4.369  1.3651  1.9470  1.3618
  872MOL0     H17658   5.769  10.878   4.416 -0.3102 -0.2075  1.5122
  872MOL0     H17659   5.645  10.976   4.629  0.1067  0.7008  0.6773
  872MOL0     H17660   5.703  11.129   4.583  0.7262 -1.4641  1.3999
  872MOL0     H17661   5.490  11.159   4.487  1.2203  1.2692  0.2737
  872MOL0     H17662   5.574  11.084   4.351  2.7630 -0.0023  1.6117
  872MOL0     H17663   5.511  10.864   4.412  2.1003 -0.4586  4.4274
  872MOL0     H17664   5.404  10.917   4.545 -1.9530  0.4223 -0.3008
  872MOL0     H17665   5.246  11.023   4.416 -0.8082 -1.4509  0.7137
  872MOL0     H17666   5.356  11.023   4.273 -1.0494  0.8136  0.4517
  872MOL0     H17667   5.358  10.785   4.255  0.0589  0.4274 -0.2265
  872MOL0     H17668   5.262  10.761   4.396  0.1909  0.7838  0.8942
  872MOL0     H17669   5.180  10.906   4.140 -2.4020  0.2889 -0.0229
  872MOL0     H17670   5.069  10.866   4.279  0.7816 -0.7949  0.7827
  872MOL0     H17671   4.935  10.649   4.245  1.5159  2.0015  0.1960
  872MOL0     H17672   4.980  10.350   3.992  4.3958  1.0367  2.5472
  872MOL0     H17673   4.890  10.402   4.137  0.5652  0.5794  0.8234
  872MOL0     H17674   4.745  10.403   3.911  0.4398 -1.0791  2.2177
  872MOL0     H17675   4.835  10.543   3.865  0.2974 -1.7499 -0.8652
  872MOL0     H17676   4.738  10.690   4.032 -0.4190  0.2270 -1.1889
  872MOL0     H17677   4.721  10.557   4.149 -0.6521 -2.7922 -0.8167
  872MOL0     H17678   4.542  10.655   3.940  0.4272  0.8548  0.6067
  872MOL0     H17679   4.517  10.624   4.103  0.6743  1.8596 -1.0209
  872MOL0     H17680   4.313  10.633   3.992  1.4531 -0.8195  1.4329
  872MOL0     H17681   4.036  10.673   3.919 -0.4321  0.0777 -0.0667
  872MOL0     H17682   4.163  10.771   3.841 -3.2232  1.7734 -0.7661
  872MOL0     H17683   4.061  10.694   3.738  2.5592  0.7040 -0.9863
  872MOL0     H17684   3.982  10.667   3.500 -1.2546  1.2549 -1.2414
  872MOL0     H17685   3.843  10.759   3.323  0.3397  1.1766 -1.0080
  872MOL0     H17686   3.693  10.802   3.132  0.3381  0.6978 -0.6180
  872MOL0     H17687   3.864  10.804   3.074 -1.0941  2.0778  0.0432
  872MOL0     H17688   3.718  10.887   2.911  2.4793 -0.1213  0.1509
  872MOL0     H17689   3.783  10.738   2.864  1.9716  3.0736 -0.2006
  872MOL0     H17690   3.499  10.776   2.986 -1.2068 -0.3579 -1.3462
  872MOL0     H17691   3.555  10.620   2.932  2.9648 -0.0448  1.6933
  872MOL0     H17692   3.488  10.854   2.749 -0.3787 -0.0100  1.5853
  872MOL0     H17693   3.561  10.706   2.693 -1.3370  0.0348 -0.6683
  872MOL0     H17694   3.296  10.737   2.840 -0.2444 -0.7392  0.5359
  872MOL0     H17695   3.358  10.584   2.764  4.0242 -0.1029 -0.1429
  872MOL0     H17696   3.314  10.823   2.600 -2.6716 -0.0162 -0.9111
  872MOL0     H17697   3.382  10.663   2.558  0.8113  0.4314 -0.2550
  872MOL0     H17698   3.089  10.747   2.617  2.1831  1.2512  3.3104
  872MOL0     H17699   3.130  10.585   2.655 -2.7405  2.1856  1.5664
  872MOL0     H17700   3.203  10.557   2.414 -1.8276 -2.0059  1.1641
  872MOL0     H17701   3.159  10.727   2.385  0.9002 -0.1903 -1.8576
  872MOL0     H17702   3.896  10.378   3.121  2.5523 -0.8928  1.0424
  872MOL0     H17703   4.001  10.275   3.302  2.1035  0.4051 -0.6641
  872MOL0     H17704   4.257  10.278   3.647 -0.4533 -0.2618 -0.4523
  872MOL0     H17705   4.469  10.287   3.798  0.9894 -0.0982  0.9288
  872MOL0     H17706   6.167  10.973   4.571 -2.9766 -1.5462 -1.3737
  872MOL0     H17707   6.370  10.907   4.654 -0.7245 -0.0486 -0.2148
  872MOL0     H17708   6.524  10.340   4.758 -0.9681  0.5895 -0.8482
  872MOL0     H17709   6.758  10.247   4.820  3.8446  0.7601 -2.0524
  872MOL0     H17710   7.068  10.530   4.993 -0.3562  0.3872  2.4838
  872MOL0     H17711   7.019  10.419   5.105  0.5839  1.8720 -0.0035
  872MOL0     H17712   7.204  10.370   4.859 -3.1821 -0.5719 -0.9523
  872MOL0     H17713   7.206  10.262   5.011  1.1960  1.6931  2.9822
  872MOL0     H17714   7.287  10.473   5.134  1.4671  2.2104 -0.2566
  872MOL0     H17715   7.283  10.557   4.973 -0.9820 -1.2736 -1.7605
  872MOL0     H17716   7.429  10.400   4.871  1.1832 -0.6747 -0.3293
  872MOL0     H17717   7.441  10.302   5.013  2.2679 -0.8637 -3.4062
  872MOL0     H17718   7.731  10.621   5.072  0.6315 -2.6267  0.5783
  872MOL0     H17719   6.880  10.631   4.964 -1.0204  1.2174 -0.9127
  872MOL0     H17720   6.648  10.722   4.914 -3.8303  0.2050  0.4112
  873MOL0     O17721   9.213   0.316   5.242  0.2627  0.4420  0.2747
  873MOL0     C17722   9.209   0.413   5.313 -0.3661 -0.2832 -0.5029
  873MOL0     O17723   9.112   0.450   5.403 -0.1867  0.2548  0.2068
  873MOL0     C17724   9.008   0.357   5.405  0.7662  0.5329  0.0527
  873MOL0     C17725   8.889   0.370   5.332  0.0692  0.5171  0.2335
  873MOL0     C17726   8.777   0.278   5.339  0.3984  0.4060 -0.6565
  873MOL0     C17727   8.795   0.174   5.427 -0.0479  0.5149 -0.0887
  873MOL0     O17728   8.704   0.074   5.436  0.3747 -0.3041 -0.3503
  873MOL0     C17729   8.616   0.027   5.324 -0.1014 -0.1350 -1.1094
  873MOL0     C17730   8.595  -0.121   5.334  0.0914 -0.6182 -0.3862
  873MOL0     C17731   8.477  -0.153   5.422  0.5258 -0.3751  0.3343
  873MOL0     C17732   8.450  -0.300   5.432 -1.2741 -0.1925  0.0015
  873MOL0     C17733   8.311  -0.325   5.499 -0.2607 -0.2576  0.1188
  873MOL0     C17734   8.310  -0.278   5.642 -0.0278 -0.0440  0.0324
  873MOL0     C17735   8.180  -0.286   5.710 -0.1215  0.5403 -0.8660
  873MOL0     C17736   8.172  -0.225   5.845 -0.1216 -0.8900  0.0584
  873MOL0     N17737   8.029  -0.227   5.882 -0.1675 -0.2690  0.0042
  873MOL0     C17738   7.930  -0.148   5.829  0.1480  0.5192 -0.3300
  873MOL0     C17739   7.812  -0.209   5.856  1.4284  0.3723 -0.1856
  873MOL0     C17740   7.681  -0.173   5.788 -0.5757  1.2957  0.4412
  873MOL0     C17741   7.563  -0.174   5.892 -0.7583 -1.0420 -0.1418
  873MOL0     C17742   7.433  -0.140   5.820  0.5356  0.2225 -0.0159
  873MOL0     C17743   7.307  -0.156   5.906 -0.2892 -0.5500 -0.4961
  873MOL0     O17744   7.197  -0.072   5.847  0.1494 -0.1741 -0.6168
  873MOL0     C17745   7.068  -0.111   5.866 -0.1660 -0.1954 -0.8626
  873MOL0     C17746   6.973  -0.045   5.787 -0.4852 -0.1813 -0.2775
  873MOL0     C17747   6.833  -0.067   5.793  0.5959 -0.1123  1.1609
  873MOL0     C17748   6.752   0.019   5.695  0.0009 -0.8710 -0.1234
  873MOL0     C17749   6.784  -0.162   5.882 -0.3749 -0.5362 -0.1226
  873MOL0     C17750   6.647  -0.201   5.909 -0.0727  0.3996  0.3933
  873MOL0     O17751   6.622  -0.321   5.971 -0.0525  0.4356 -0.0387
  873MOL0     C17752   6.499  -0.375   5.977  0.6569  0.3368  0.1720
  873MOL0     C17753   6.412  -0.403   5.867 -0.0746  0.4306  0.3567
  873MOL0     C17754   6.294  -0.478   5.891 -0.1937  1.1363  0.1022
  873MOL0     C17755   6.253  -0.528   6.022  0.8081 -0.2841 -0.3674
  873MOL0     O17756   6.144  -0.607   6.027  0.1423 -0.0018 -0.0881
  873MOL0     C17757   6.107  -0.668   6.152  0.0593  0.0818 -1.3296
  873MOL0     C17758   6.003  -0.583   6.234 -0.0667  0.4472 -0.4786
  873MOL0     C17759   5.883  -0.534   6.150 -0.3885 -0.3156 -0.2070
  873MOL0     C17760   5.772  -0.476   6.242 -0.2070  0.2709 -0.2823
  873MOL0     C17761   5.659  -0.408   6.168 -0.4269  0.9001 -0.1391
  873MOL0     C17762   5.547  -0.358   6.261  0.1961 -0.4155  1.1765
  873MOL0     C17763   5.485  -0.490   6.334 -0.8243  0.6625  0.7677
  873MOL0     C17764   5.342  -0.471   6.386 -0.6837 -0.0868 -0.0165
  873MOL0    Cl17765   5.349  -0.365   6.528  0.0351 -0.3008 -0.0528
  873MOL0     C17766   6.335  -0.498   6.125  0.0347 -0.2600  0.3207
  873MOL0     C17767   6.447  -0.420   6.104 -0.0407  0.2114  0.6652
  873MOL0     O17768   6.557  -0.147   5.846  0.1519  0.3451 -0.6912
  873MOL0     C17769   6.883  -0.233   5.953  0.4732  0.7670 -0.9145
  873MOL0     C17770   7.024  -0.202   5.960 -0.2183  0.6689 -0.1092
  873MOL0     N17771   7.843  -0.313   5.939 -0.0040  0.0779  0.8563
  873MOL0     N17772   7.969  -0.329   5.950 -0.2009 -0.1638 -0.3698
  873MOL0     C17773   8.902   0.172   5.515 -0.3135 -0.0628 -0.5517
  873MOL0     C17774   9.008   0.261   5.505  0.2646  0.4294  1.5853
  873MOL0     C17775   9.341   0.490   5.325  0.0152 -0.4657 -0.0315
  873MOL0     C17776   9.449   0.458   5.240  0.1800  0.5522 -0.2420
  873MOL0     C17777   9.562   0.545   5.238  0.2026 -0.5661  0.0552
  873MOL0     C17778   9.576   0.660   5.323  1.1352  0.6618  0.3122
  873MOL0     O17779   9.684   0.737   5.334  0.2294  1.1754  0.4995
  873MOL0     C17780   9.757   0.763   5.212  0.1969  0.5790 -0.0755
  873MOL0     C17781   9.874   0.841   5.253  0.4511 -0.5874  1.0480
  873MOL0     C17782   9.989   0.749   5.312  0.5964  0.0020  0.2990
  873MOL0     C17783  10.131   0.804   5.285 -0.6418 -0.3164  0.6856
  873MOL0     C17784  10.237   0.714   5.312  0.2568 -0.1973  0.0079
  873MOL0     C17785  10.327   0.642   5.350  1.1829  0.2486  0.8474
  873MOL0     C17786   9.468   0.684   5.409  0.8010  0.1660  0.6311
  873MOL0     C17787   9.360   0.599   5.405  0.1260  0.8636  0.2210
  873MOL0     H17788   8.880   0.459   5.270 -2.1171  0.5129  0.4687
  873MOL0     H17789   8.690   0.284   5.276  1.4293 -0.2113 -2.1851
  873MOL0     H17790   8.517   0.073   5.319 -0.3216  0.2040  3.0642
  873MOL0     H17791   8.663   0.046   5.227  0.9705  1.6969 -0.2786
  873MOL0     H17792   8.570  -0.144   5.230 -1.5043 -1.0308  0.0751
  873MOL0     H17793   8.683  -0.179   5.364 -0.5650 -1.3057  0.2468
  873MOL0     H17794   8.505  -0.115   5.521  1.4626  1.6158 -0.6380
  873MOL0     H17795   8.387  -0.102   5.386  1.7478 -0.3583 -3.0771
  873MOL0     H17796   8.469  -0.344   5.333  2.1559  1.2951 -0.1340
  873MOL0     H17797   8.525  -0.356   5.489 -1.7898  1.7479  2.7338
  873MOL0     H17798   8.232  -0.273   5.443  0.3730  1.8537  1.0701
  873MOL0     H17799   8.298  -0.433   5.495 -1.7545 -0.1533  1.0992
  873MOL0     H17800   8.387  -0.334   5.696  1.3865  1.4517 -0.3721
  873MOL0     H17801   8.328  -0.170   5.639 -2.0137  0.4766  2.7629
  873MOL0     H17802   8.114  -0.225   5.647 -1.8709  0.8292  1.1406
  873MOL0     H17803   8.142  -0.388   5.717  0.1041  0.5421  0.8050
  873MOL0     H17804   8.211  -0.123   5.848 -2.9986  0.2903  1.0635
  873MOL0     H17805   8.237  -0.282   5.912  1.5758  1.6572  0.6922
  873MOL0     H17806   7.945  -0.059   5.769 -1.4519  1.3563  0.4497
  873MOL0     H17807   7.704  -0.074   5.747  1.3056  1.7712  2.5056
  873MOL0     H17808   7.659  -0.243   5.707  0.6337  1.9191 -0.4665
  873MOL0     H17809   7.586  -0.101   5.970 -2.1622  0.0021 -0.6590
  873MOL0     H17810   7.556  -0.269   5.945 -1.6734 -0.5296  0.6792
  873MOL0     H17811   7.426  -0.201   5.729  1.2935  0.8578 -0.5129
  873MOL0     H17812   7.437  -0.037   5.785 -0.3523  1.5906  3.5392
  873MOL0     H17813   7.343  -0.127   6.005  2.1470 -0.4312 -1.3514
  873MOL0     H17814   7.275  -0.261   5.915 -1.1226 -0.1678  1.6500
  873MOL0     H17815   7.008   0.031   5.718 -0.1529  0.7751  0.9049
  873MOL0     H17816   6.677  -0.040   5.640  0.0360 -3.2005  2.1134
  873MOL0     H17817   6.695   0.088   5.757  0.7826 -1.7103  1.6139
  873MOL0     H17818   6.815   0.073   5.624  1.9166 -0.4539  1.7824
  873MOL0     H17819   6.436  -0.381   5.764  0.2497  2.5020  0.8235
  873MOL0     H17820   6.224  -0.507   5.813 -0.7622 -0.0116  1.0067
  873MOL0     H17821   6.053  -0.759   6.123 -1.7187  0.8664 -0.6220
  873MOL0     H17822   6.184  -0.690   6.225 -1.0403  1.0322  0.1821
  873MOL0     H17823   5.952  -0.633   6.317  0.9569 -2.9477 -1.7297
  873MOL0     H17824   6.045  -0.488   6.268 -0.9937  2.0724 -3.5126
  873MOL0     H17825   5.836  -0.624   6.110  2.6798 -3.3677  2.4004
  873MOL0     H17826   5.910  -0.464   6.070  0.1064 -1.0285 -0.6879
  873MOL0     H17827   5.727  -0.565   6.288 -1.7681  0.4165 -1.4522
  873MOL0     H17828   5.808  -0.410   6.321 -2.7256 -0.4693  1.6118
  873MOL0     H17829   5.627  -0.476   6.089 -0.7733 -0.7849  1.3846
  873MOL0     H17830   5.706  -0.314   6.139  0.9420  1.1038  2.3773
  873MOL0     H17831   5.595  -0.297   6.338  1.2370 -0.1681  0.3508
  873MOL0     H17832   5.475  -0.304   6.199  1.8836  0.3676 -0.1653
  873MOL0     H17833   5.545  -0.535   6.414 -1.4233  0.9977  1.4190
  873MOL0     H17834   5.481  -0.569   6.259  2.2072 -0.0496  1.2032
  873MOL0     H17835   5.309  -0.572   6.410  1.1453 -0.5123  0.8639
  873MOL0     H17836   5.281  -0.424   6.308  1.1516 -0.2977 -1.6593
  873MOL0     H17837   6.307  -0.531   6.225 -3.5360  0.0902 -0.4354
  873MOL0     H17838   6.506  -0.395   6.192 -1.6386 -0.8113  2.0802
  873MOL0     H17839   6.853  -0.314   6.019  0.2197  2.1155  0.6942
  873MOL0     H17840   7.087  -0.274   6.012  0.9223  0.7363 -1.3158
  873MOL0     H17841   8.893   0.098   5.593 -3.5874  1.5911  0.8014
  873MOL0     H17842   9.091   0.238   5.570 -0.3328 -4.1798  1.0699
  873MOL0     H17843   9.435   0.376   5.170  1.5698  0.9720 -1.0472
  873MOL0     H17844   9.647   0.509   5.181  1.9844  0.1715  2.1032
  873MOL0     H17845   9.785   0.679   5.149 -2.8970 -0.2293 -0.5206
  873MOL0     H17846   9.701   0.835   5.152 -0.3673 -0.2327 -0.5325
  873MOL0     H17847   9.846   0.915   5.328 -2.1223 -0.4167  0.0308
  873MOL0     H17848   9.915   0.901   5.172  0.0819  0.9778  1.9831
  873MOL0     H17849   9.988   0.650   5.265  4.1036 -0.3875  0.8264
  873MOL0     H17850   9.976   0.728   5.418  2.7154  2.5914  1.1730
  873MOL0     H17851  10.140   0.895   5.346  0.7054 -0.8771  1.3513
  873MOL0     H17852  10.150   0.835   5.182  1.4037 -0.7942  0.8929
  873MOL0     H17853  10.403   0.572   5.379  1.5871  0.8799  1.3132
  873MOL0     H17854   9.461   0.769   5.476 -0.9329  0.1803  0.4669
  873MOL0     H17855   9.283   0.627   5.475  0.2174  0.9216  0.2979
  874MOL0     O17856   1.160   2.920   3.165  0.1044  0.7213  0.0273
  874MOL0     C17857   1.185   3.008   3.084 -0.4593  0.3428  0.0332
  874MOL0     O17858   1.109   3.114   3.051 -0.4149 -0.7570 -0.1370
  874MOL0     C17859   0.974   3.103   3.060  0.1373  0.5455 -0.1677
  874MOL0     C17860   0.910   3.225   3.071  0.3192 -0.1563 -0.9497
  874MOL0     C17861   0.765   3.229   3.088  0.5700  0.9604 -0.3252
  874MOL0     C17862   0.695   3.106   3.089  0.4683 -0.3137 -0.4734
  874MOL0     O17863   0.561   3.132   3.096  0.0705 -0.7088  0.3141
  874MOL0     C17864   0.464   3.040   3.146  0.2734  0.3284  1.1969
  874MOL0     C17865   0.395   2.954   3.036 -0.2891  0.8702 -0.3009
  874MOL0     C17866   0.260   2.891   3.094 -0.0920 -0.5998 -0.2607
  874MOL0     C17867   0.164   2.866   2.985  0.3403 -0.1895 -0.0570
  874MOL0     C17868   0.023   2.829   3.031  0.8252 -0.7616  0.3668
  874MOL0     C17869   0.013   2.685   3.082  0.2102 -0.8399  0.4766
  874MOL0     C17870  -0.124   2.643   3.126 -0.0701  0.6133 -0.2930
  874MOL0     C17871  -0.115   2.515   3.211 -0.5985 -0.2925 -0.5895
  874MOL0     N17872  -0.228   2.421   3.173  0.2246  0.2054 -0.5865
  874MOL0     C17873  -0.355   2.451   3.209  0.1707  0.2283  0.2488
  874MOL0     C17874  -0.442   2.372   3.146  0.2263  1.2580  0.1119
  874MOL0     C17875  -0.594   2.374   3.127  0.3391 -0.2084 -0.0815
  874MOL0     C17876  -0.636   2.475   3.014  0.2810  0.1254 -0.6987
  874MOL0     C17877  -0.785   2.512   3.011  0.9400 -0.5100  0.2260
  874MOL0     C17878  -0.837   2.637   2.938 -0.2145  0.4343 -0.3753
  874MOL0     O17879  -0.964   2.667   2.972 -0.5759 -0.3161 -0.2424
  874MOL0     C17880  -1.067   2.611   2.900 -0.3748 -0.3859 -0.0455
  874MOL0     C17881  -1.049   2.501   2.817  0.2383 -0.2492  1.2806
  874MOL0     C17882  -1.150   2.450   2.733  0.1870  0.7934 -0.1746
  874MOL0     C17883  -1.124   2.341   2.633  0.7340 -1.3351 -0.8659
  874MOL0     C17884  -1.273   2.520   2.740 -0.3603  0.3520  0.1706
  874MOL0     C17885  -1.391   2.474   2.664 -1.2300  0.5521  0.8832
  874MOL0     O17886  -1.508   2.475   2.734  0.0975 -0.2967  0.3412
  874MOL0     C17887  -1.614   2.440   2.655  0.3490  0.3466  0.4053
  874MOL0     C17888  -1.697   2.538   2.593  0.3321 -0.1819 -0.0666
  874MOL0     C17889  -1.808   2.496   2.530  0.5905  0.2512  0.8845
  874MOL0     C17890  -1.841   2.355   2.526  1.1368  0.0127  0.7720
  874MOL0     O17891  -1.945   2.316   2.444 -0.2718 -0.6544 -0.6492
  874MOL0     C17892  -2.004   2.185   2.471 -0.1056 -0.2045 -0.1731
  874MOL0     C17893  -2.118   2.150   2.386  0.1492 -0.2217  0.8492
  874MOL0     C17894  -2.072   2.100   2.241 -0.4729 -0.2759 -0.2281
  874MOL0     C17895  -2.179   2.089   2.130 -0.0884  0.7058  0.2404
  874MOL0     C17896  -2.137   2.091   1.989 -1.3817  0.4203 -0.5410
  874MOL0     C17897  -2.248   2.084   1.893 -0.2486 -0.8066  0.6381
  874MOL0     C17898  -2.207   2.062   1.740 -0.6624 -0.1743 -1.6633
  874MOL0     C17899  -2.333   2.083   1.655 -0.2545 -0.4388  0.0208
  874MOL0    Cl17900  -2.279   2.070   1.479  0.1103  0.0009  0.1443
  874MOL0     C17901  -1.760   2.262   2.595 -0.2276 -0.6015  0.1990
  874MOL0     C17902  -1.646   2.307   2.660 -0.1053 -0.0725  0.6850
  874MOL0     O17903  -1.379   2.449   2.541  0.4775 -0.9231  0.4236
  874MOL0     C17904  -1.292   2.624   2.830 -0.1185 -0.0458  0.5821
  874MOL0     C17905  -1.194   2.668   2.908 -0.1607 -1.1276 -0.3519
  874MOL0     N17906  -0.364   2.285   3.067  0.3835  0.3522 -0.0288
  874MOL0     N17907  -0.241   2.322   3.075 -0.0428  0.2043 -1.1281
  874MOL0     C17908   0.758   2.985   3.086  0.2092  0.7356 -0.7347
  874MOL0     C17909   0.892   2.986   3.065  0.4574  0.8006 -1.2429
  874MOL0     C17910   1.330   3.014   3.041 -0.2907 -0.7977  0.3921
  874MOL0     C17911   1.368   3.114   2.949  0.1597  0.9868 -0.3411
  874MOL0     C17912   1.504   3.125   2.909 -0.1927 -0.4743 -0.3400
  874MOL0     C17913   1.601   3.042   2.969 -0.3670 -0.0100  0.0448
  874MOL0     O17914   1.732   3.074   2.927 -0.0583 -0.3061 -0.1448
  874MOL0     C17915   1.840   3.007   2.995  0.0843  0.3327  0.2063
  874MOL0     C17916   1.968   3.079   2.959  0.9730 -0.2583 -0.8115
  874MOL0     C17917   2.081   3.034   3.053 -0.3622  0.6546 -0.1189
  874MOL0     C17918   2.211   3.056   2.969  0.4099  0.6431  1.0493
  874MOL0     C17919   2.344   3.046   3.037  0.4371  1.1593  0.0393
  874MOL0     C17920   2.450   3.043   3.089  0.2813 -0.4950 -0.0809
  874MOL0     C17921   1.558   2.939   3.065 -0.0840 -0.1306  0.5358
  874MOL0     C17922   1.428   2.924   3.089  0.0556 -0.2764  0.4049
  874MOL0     H17923   0.962   3.320   3.081  2.4910 -1.4740  1.6819
  874MOL0     H17924   0.711   3.323   3.096 -0.7341  0.2362 -0.3715
  874MOL0     H17925   0.520   2.988   3.224  3.1669  2.8489  0.9809
  874MOL0     H17926   0.377   3.091   3.188 -0.1526 -0.5940  1.4407
  874MOL0     H17927   0.368   3.016   2.951 -1.7921  0.8487  0.1339
  874MOL0     H17928   0.460   2.874   2.999 -0.8198  0.7814 -1.0548
  874MOL0     H17929   0.286   2.791   3.131  1.7641 -0.9314 -2.2737
  874MOL0     H17930   0.223   2.951   3.178 -0.1654  0.9670 -1.3895
  874MOL0     H17931   0.158   2.961   2.932 -1.3334  1.0856  2.2265
  874MOL0     H17932   0.212   2.795   2.917  0.9700 -0.1924  0.3789
  874MOL0     H17933  -0.017   2.900   3.105  1.1221  0.8475 -0.9527
  874MOL0     H17934  -0.043   2.837   2.944  1.5640  0.6641 -0.0996
  874MOL0     H17935   0.049   2.631   2.994  0.7015  1.9619 -1.1551
  874MOL0     H17936   0.085   2.671   3.163  2.1607  2.1243 -0.5687
  874MOL0     H17937  -0.172   2.715   3.193 -0.9105 -0.7590  0.6294
  874MOL0     H17938  -0.183   2.629   3.034  2.7060  4.2194 -2.9324
  874MOL0     H17939  -0.108   2.531   3.319  0.4472  3.6625 -1.0704
  874MOL0     H17940  -0.018   2.468   3.194  0.5551  0.6203  2.7175
  874MOL0     H17941  -0.388   2.542   3.259 -1.3202  0.5381 -1.2119
  874MOL0     H17942  -0.630   2.274   3.100  1.1859 -0.8066  0.9006
  874MOL0     H17943  -0.636   2.398   3.225  1.1078 -0.0838  0.2227
  874MOL0     H17944  -0.623   2.421   2.920  2.8852 -1.6918  0.5625
  874MOL0     H17945  -0.567   2.560   3.019  1.7762 -1.0609 -0.3236
  874MOL0     H17946  -0.809   2.538   3.115  0.7167 -3.5805  1.0265
  874MOL0     H17947  -0.843   2.423   2.986  0.6152 -0.0266 -0.8078
  874MOL0     H17948  -0.816   2.634   2.831  2.1614 -0.6245  0.0487
  874MOL0     H17949  -0.775   2.721   2.973  2.1931 -1.3787  0.0041
  874MOL0     H17950  -0.953   2.454   2.801  1.1710  0.7327  3.5203
  874MOL0     H17951  -1.201   2.263   2.624  0.8032 -1.5243  0.0940
  874MOL0     H17952  -1.129   2.392   2.536 -3.3728 -0.8722 -0.5940
  874MOL0     H17953  -1.037   2.277   2.647  1.6969  0.1257 -0.0359
  874MOL0     H17954  -1.678   2.644   2.605 -1.2845  0.4508 -2.3069
  874MOL0     H17955  -1.874   2.558   2.471 -1.0776 -2.2190  0.0038
  874MOL0     H17956  -1.925   2.110   2.458  2.0332  1.5802  1.6220
  874MOL0     H17957  -2.033   2.172   2.575  0.3404  1.8902  0.2508
  874MOL0     H17958  -2.165   2.066   2.437  0.0392  0.6105  2.1727
  874MOL0     H17959  -2.189   2.233   2.392 -1.2522 -1.3731  0.7192
  874MOL0     H17960  -2.012   2.009   2.250  1.2843  0.4514 -3.1467
  874MOL0     H17961  -2.000   2.174   2.204  2.6179 -3.3644 -0.9305
  874MOL0     H17962  -2.224   1.991   2.148 -0.1061  0.8005  0.7355
  874MOL0     H17963  -2.254   2.165   2.153 -0.3263  0.6716 -0.4155
  874MOL0     H17964  -2.076   2.004   1.962  0.4504  0.8615  1.7940
  874MOL0     H17965  -2.073   2.179   1.971  2.2398 -1.8228  0.2679
  874MOL0     H17966  -2.308   1.997   1.921 -2.6537  0.1236 -1.2770
  874MOL0     H17967  -2.303   2.178   1.900  2.3591  0.7744  1.5258
  874MOL0     H17968  -2.172   1.958   1.735  3.4880  0.7597  1.7473
  874MOL0     H17969  -2.125   2.132   1.721  1.0780 -1.7533 -0.3947
  874MOL0     H17970  -2.385   2.176   1.679 -0.4536 -0.4032 -0.5307
  874MOL0     H17971  -2.398   1.996   1.670 -2.2509  1.1276  0.9661
  874MOL0     H17972  -1.779   2.156   2.599 -0.7670 -0.5088  0.0923
  874MOL0     H17973  -1.573   2.242   2.707  2.1344  0.7348 -1.4840
  874MOL0     H17974  -1.384   2.679   2.846 -1.3053 -2.1147  1.1297
  874MOL0     H17975  -1.213   2.756   2.968  1.6147 -0.3815 -0.8161
  874MOL0     H17976   0.714   2.887   3.101  0.2580  1.1871  3.2773
  874MOL0     H17977   0.947   2.893   3.048  1.0111  1.4570 -3.3432
  874MOL0     H17978   1.308   3.199   2.920  0.5752  0.7995 -1.8018
  874MOL0     H17979   1.536   3.208   2.848 -2.2344  0.7848  0.2151
  874MOL0     H17980   1.822   3.001   3.102 -1.1652  0.9497  0.0448
  874MOL0     H17981   1.830   2.907   2.950  0.9778 -0.5098  1.8057
  874MOL0     H17982   1.957   3.185   2.980  0.2078 -0.0466 -2.2114
  874MOL0     H17983   1.994   3.070   2.853  1.6370  3.2252 -1.0524
  874MOL0     H17984   2.079   2.925   3.062 -0.1918  0.5753 -0.9218
  874MOL0     H17985   2.096   3.088   3.147 -2.6334  3.2885 -1.1345
  874MOL0     H17986   2.202   3.155   2.922  0.0824  1.2105  2.2781
  874MOL0     H17987   2.236   2.985   2.890  0.3023  2.3968 -0.6457
  874MOL0     H17988   2.553   3.051   3.118  0.2535  1.2911 -0.3687
  874MOL0     H17989   1.618   2.868   3.120 -4.5843 -2.9861  2.3158
  874MOL0     H17990   1.391   2.851   3.159 -0.9431  1.2440  1.5319
  875MOL0     O17991   1.704   6.805   2.458 -0.5136 -0.4150 -0.0069
  875MOL0     C17992   1.670   6.889   2.540  0.1627 -0.9951 -0.8715
  875MOL0     O17993   1.715   6.892   2.664 -0.1863  0.4104 -0.8210
  875MOL0     C17994   1.818   6.801   2.700  0.2026 -0.4565  0.2801
  875MOL0     C17995   1.801   6.710   2.803  0.6057  0.5160 -0.6398
  875MOL0     C17996   1.889   6.614   2.841  0.2644 -0.3708  0.1311
  875MOL0     C17997   2.014   6.611   2.779  0.3027  0.4349  0.2279
  875MOL0     O17998   2.109   6.514   2.794 -0.5835 -0.0505 -0.7886
  875MOL0     C17999   2.144   6.488   2.933  0.2805  0.4417 -0.1372
  875MOL0     C18000   2.076   6.360   2.976 -0.2506 -0.6317 -0.2810
  875MOL0     C18001   2.098   6.241   2.874 -0.0546  1.0642 -0.1515
  875MOL0     C18002   2.033   6.117   2.925 -0.1378 -0.0184  0.0427
  875MOL0     C18003   1.883   6.109   2.887  0.9400  0.8997 -0.4097
  875MOL0     C18004   1.795   6.175   2.996 -1.6124 -0.5609  0.4981
  875MOL0     C18005   1.656   6.111   3.007 -0.4560 -0.2460  0.1684
  875MOL0     C18006   1.586   6.099   2.872 -0.5795 -1.2686  0.2173
  875MOL0     N18007   1.488   6.205   2.841 -0.1262 -1.1288  0.4438
  875MOL0     C18008   1.527   6.325   2.796  0.3128 -0.9594  0.4122
  875MOL0     C18009   1.407   6.394   2.797 -0.1793 -0.4052 -0.6003
  875MOL0     C18010   1.383   6.538   2.761  0.0635 -0.2014  0.6870
  875MOL0     C18011   1.323   6.554   2.623 -0.7800 -0.7905 -0.2651
  875MOL0     C18012   1.374   6.686   2.557 -0.2503 -0.8884  0.6687
  875MOL0     C18013   1.330   6.700   2.408 -0.1109  0.2791 -0.2933
  875MOL0     O18014   1.189   6.676   2.390  0.9885 -0.2247 -0.7161
  875MOL0     C18015   1.146   6.736   2.275  0.4789  0.2718 -0.5230
  875MOL0     C18016   1.140   6.875   2.254 -0.6332  0.0088  0.5495
  875MOL0     C18017   1.091   6.927   2.138  0.5756 -0.1912  0.7620
  875MOL0     C18018   1.082   7.080   2.124 -0.2903  0.4693 -0.6560
  875MOL0     C18019   1.041   6.837   2.035  0.1301 -0.7416 -0.3567
  875MOL0     C18020   0.972   6.882   1.908 -0.1910 -0.8120 -0.4337
  875MOL0     O18021   0.982   7.015   1.867  0.1333 -0.3756 -0.3076
  875MOL0     C18022   0.897   7.084   1.787  0.4905  0.2048  0.2619
  875MOL0     C18023   0.758   7.051   1.779  0.6957 -0.4479  0.3042
  875MOL0     C18024   0.679   7.135   1.696  0.2352  0.0485 -0.0590
  875MOL0     C18025   0.725   7.256   1.638 -1.2378  0.3869  0.5023
  875MOL0     O18026   0.631   7.343   1.592  0.4624 -0.0220 -0.6960
  875MOL0     C18027   0.652   7.427   1.469 -0.0282 -0.2504  0.1005
  875MOL0     C18028   0.528   7.515   1.459 -0.0055  0.5007 -0.0359
  875MOL0     C18029   0.399   7.436   1.417  0.1856  0.2057  0.1483
  875MOL0     C18030   0.277   7.521   1.420 -0.1041 -0.3956  0.2899
  875MOL0     C18031   0.157   7.448   1.367  0.4102  0.4391 -0.0843
  875MOL0     C18032   0.035   7.541   1.389 -0.3436  1.3690  0.1398
  875MOL0     C18033  -0.087   7.491   1.306  0.4339 -0.8043 -0.1623
  875MOL0     C18034  -0.220   7.565   1.350  0.0272 -0.4083 -0.6312
  875MOL0    Cl18035  -0.250   7.547   1.534  0.1147  0.6036  0.0038
  875MOL0     C18036   0.861   7.288   1.654  0.2272 -0.1092  0.1523
  875MOL0     C18037   0.938   7.204   1.736 -0.3544  0.1397  0.0836
  875MOL0     O18038   0.913   6.802   1.842 -0.0793 -0.4283 -0.4342
  875MOL0     C18039   1.060   6.704   2.057 -0.7884 -0.0444 -0.4208
  875MOL0     C18040   1.105   6.651   2.174  0.4910  0.3588  0.6040
  875MOL0     N18041   1.311   6.321   2.856  0.6149 -0.4137 -0.7078
  875MOL0     N18042   1.361   6.207   2.890 -0.5956  0.2237  0.5640
  875MOL0     C18043   2.024   6.694   2.662 -0.2639 -0.0499 -0.4000
  875MOL0     C18044   1.932   6.798   2.631 -0.1126 -0.8331 -0.0410
  875MOL0     C18045   1.575   6.990   2.495  0.2979 -0.3511  0.5236
  875MOL0     C18046   1.541   6.999   2.353 -0.7474 -0.0380  0.2316
  875MOL0     C18047   1.459   7.104   2.318  0.7833 -0.5477 -0.3163
  875MOL0     C18048   1.394   7.191   2.402 -0.2819 -0.1167 -0.7250
  875MOL0     O18049   1.294   7.269   2.346 -0.2953  0.5127  0.2693
  875MOL0     C18050   1.221   7.356   2.435  0.0547  0.6135  0.1888
  875MOL0     C18051   1.093   7.386   2.367 -0.3375 -0.2147  0.1981
  875MOL0     C18052   1.113   7.480   2.253 -0.3857 -0.4029 -0.9445
  875MOL0     C18053   0.979   7.525   2.203 -0.2248  0.1301  0.3203
  875MOL0     C18054   0.916   7.434   2.104 -1.0902  0.7265  0.4009
  875MOL0     C18055   0.857   7.357   2.031 -0.0834  0.5349 -0.2635
  875MOL0     C18056   1.427   7.179   2.532  0.1260  0.5021 -0.2421
  875MOL0     C18057   1.513   7.085   2.582  0.0849 -0.4829 -0.1092
  875MOL0     H18058   1.709   6.731   2.857  1.1535  3.0616 -0.5910
  875MOL0     H18059   1.877   6.550   2.928  1.3179  1.2303  1.5396
  875MOL0     H18060   2.252   6.484   2.955  0.0994  1.8500  1.1576
  875MOL0     H18061   2.102   6.572   2.989 -2.4996  1.6409 -3.6713
  875MOL0     H18062   2.121   6.345   3.075  0.3552  0.3811 -0.3929
  875MOL0     H18063   1.968   6.371   2.995 -0.5680 -1.2905 -1.5745
  875MOL0     H18064   2.066   6.255   2.771  1.8826 -2.0469 -1.3203
  875MOL0     H18065   2.204   6.215   2.868 -0.0269  1.1399 -0.0113
  875MOL0     H18066   2.084   6.027   2.891 -0.9490 -0.4594 -0.0276
  875MOL0     H18067   2.059   6.114   3.031  4.2642  0.4388 -0.8320
  875MOL0     H18068   1.874   6.149   2.785  3.5496 -1.4970 -1.7262
  875MOL0     H18069   1.854   6.004   2.882 -1.4906  1.4255  1.3478
  875MOL0     H18070   1.836   6.167   3.097 -0.5183  1.4339  0.2664
  875MOL0     H18071   1.781   6.278   2.963 -0.5115 -0.3710  0.5962
  875MOL0     H18072   1.664   6.015   3.059  2.3107 -1.1101 -1.6573
  875MOL0     H18073   1.596   6.179   3.068 -1.0179  1.5474 -2.2150
  875MOL0     H18074   1.535   6.003   2.865 -1.4560 -0.8375  0.5518
  875MOL0     H18075   1.651   6.097   2.783 -2.0181  1.5114 -1.0249
  875MOL0     H18076   1.624   6.360   2.764  0.6401 -1.5563  0.7317
  875MOL0     H18077   1.329   6.595   2.837 -0.1030 -0.1192  0.5070
  875MOL0     H18078   1.479   6.590   2.756 -0.5877  1.2517  2.1419
  875MOL0     H18079   1.215   6.542   2.637 -0.6934 -1.6850 -0.3319
  875MOL0     H18080   1.368   6.478   2.558 -1.5045 -0.3791 -1.2791
  875MOL0     H18081   1.483   6.682   2.563 -0.1711  0.2409  0.3029
  875MOL0     H18082   1.337   6.766   2.622  3.4002  1.9887 -0.4431
  875MOL0     H18083   1.380   6.623   2.349 -3.4348 -1.8972 -0.5669
  875MOL0     H18084   1.356   6.805   2.387 -2.5880  2.3199  5.0509
  875MOL0     H18085   1.180   6.943   2.329 -0.2424 -0.1006  0.4425
  875MOL0     H18086   0.985   7.103   2.079 -2.4057 -0.5136  3.0661
  875MOL0     H18087   1.069   7.125   2.223 -0.3571  1.3555 -1.0520
  875MOL0     H18088   1.171   7.115   2.070  1.9340 -1.2679  1.6390
  875MOL0     H18089   0.719   6.955   1.813 -1.6682  0.7361  1.1348
  875MOL0     H18090   0.573   7.119   1.686  0.3226  0.4346 -1.9123
  875MOL0     H18091   0.733   7.499   1.483 -1.7210  1.5601  1.1980
  875MOL0     H18092   0.656   7.369   1.376 -1.2122 -0.4713  0.1705
  875MOL0     H18093   0.511   7.554   1.560  0.2105  0.5168 -0.0063
  875MOL0     H18094   0.549   7.594   1.386 -1.9813  0.8711 -0.2508
  875MOL0     H18095   0.402   7.347   1.481  2.4758 -0.9029 -1.3336
  875MOL0     H18096   0.405   7.390   1.317 -1.6455  1.0966 -0.4122
  875MOL0     H18097   0.239   7.551   1.518 -4.5568  2.1618 -1.9142
  875MOL0     H18098   0.299   7.618   1.375  0.0586 -1.4389 -2.0471
  875MOL0     H18099   0.155   7.354   1.422  0.9692 -0.1099 -0.9889
  875MOL0     H18100   0.148   7.418   1.263 -0.5559 -2.0565  0.6477
  875MOL0     H18101   0.021   7.559   1.496 -0.0433 -0.0412  0.4412
  875MOL0     H18102   0.055   7.645   1.362 -3.5878  2.3420  0.9487
  875MOL0     H18103  -0.101   7.383   1.315 -2.5662 -0.3548  2.4809
  875MOL0     H18104  -0.076   7.520   1.201  0.0933  1.6165  0.4015
  875MOL0     H18105  -0.301   7.517   1.293 -0.1420 -1.5650  0.5408
  875MOL0     H18106  -0.214   7.672   1.329  1.3560 -0.0110  1.5183
  875MOL0     H18107   0.915   7.373   1.614  2.4833 -2.6863 -2.7342
  875MOL0     H18108   1.038   7.231   1.770 -0.7109  0.3565  0.9762
  875MOL0     H18109   1.037   6.628   1.983  3.6596 -0.6754 -1.4350
  875MOL0     H18110   1.119   6.545   2.192 -0.2095  0.4533  1.8279
  875MOL0     H18111   2.107   6.672   2.596  0.0448 -2.3738  0.6641
  875MOL0     H18112   1.964   6.851   2.542  0.5546 -0.2282  0.5532
  875MOL0     H18113   1.568   6.918   2.285  1.5245  0.4372  0.5009
  875MOL0     H18114   1.417   7.124   2.220  1.2346 -0.1030 -0.4251
  875MOL0     H18115   1.201   7.294   2.522 -1.4337 -0.4902 -0.8861
  875MOL0     H18116   1.284   7.442   2.460 -1.4802  1.6459  0.6209
  875MOL0     H18117   1.023   7.430   2.438 -2.6705 -2.3361 -0.6702
  875MOL0     H18118   1.039   7.298   2.331 -1.7994  0.2255  1.2498
  875MOL0     H18119   1.181   7.439   2.178 -1.8936  0.0246 -2.5983
  875MOL0     H18120   1.166   7.572   2.279 -1.0005  0.4928 -2.6863
  875MOL0     H18121   0.981   7.624   2.158 -0.0789  0.3531  0.8187
  875MOL0     H18122   0.913   7.538   2.289 -1.9207 -2.6446 -0.4337
  875MOL0     H18123   0.800   7.284   1.978  0.4254 -2.6399  3.1747
  875MOL0     H18124   1.382   7.250   2.602 -0.4403 -2.5256  2.7115
  875MOL0     H18125   1.535   7.096   2.688 -0.7861 -2.1826  0.2767
  876MOL0     O18126   7.478   6.947   9.581 -0.3994 -0.2451  1.1089
  876MOL0     C18127   7.520   6.835   9.594 -0.4051 -0.6706  0.5064
  876MOL0     O18128   7.443   6.724   9.615 -0.4680  0.0926  0.2083
  876MOL0     C18129   7.310   6.712   9.578 -0.6616 -0.2344 -0.0926
  876MOL0     C18130   7.242   6.797   9.493  0.2457  0.5036  0.5720
  876MOL0     C18131   7.104   6.782   9.454 -0.8608 -0.9055  0.7777
  876MOL0     C18132   7.040   6.675   9.492  0.5497  0.3650  0.1014
  876MOL0     O18133   6.910   6.651   9.454 -0.5041 -0.5243 -0.4356
  876MOL0     C18134   6.820   6.729   9.526  0.7821 -0.4951 -0.8317
  876MOL0     C18135   6.662   6.694   9.504 -0.6936  0.2347 -0.7175
  876MOL0     C18136   6.566   6.767   9.587  0.2940 -0.6744  0.4705
  876MOL0     C18137   6.424   6.747   9.539 -0.5087 -1.4175 -0.3288
  876MOL0     C18138   6.332   6.830   9.630 -0.0402  0.1267 -0.0300
  876MOL0     C18139   6.198   6.831   9.567 -0.1919  0.4205  0.0367
  876MOL0     C18140   6.106   6.947   9.616 -1.8926  0.0235  0.0140
  876MOL0     C18141   5.955   6.961   9.567  0.8087 -0.0887  0.6971
  876MOL0     N18142   5.881   6.840   9.586 -0.2278  0.2687  0.4247
  876MOL0     C18143   5.878   6.765   9.707  0.4804 -1.0802 -0.3322
  876MOL0     C18144   5.837   6.635   9.672 -0.3960  0.4705 -0.2236
  876MOL0     C18145   5.840   6.523   9.775 -0.3642 -0.9267  0.0121
  876MOL0     C18146   5.969   6.515   9.867  0.0886 -0.2844  0.0053
  876MOL0     C18147   6.099   6.498   9.790 -0.2627 -0.2424 -0.7819
  876MOL0     C18148   6.202   6.393   9.840 -0.0425  0.8256 -0.0682
  876MOL0     O18149   6.163   6.267   9.801  0.8045  0.4381  0.8126
  876MOL0     C18150   6.265   6.170   9.800  0.2129 -0.2702  0.5842
  876MOL0     C18151   6.378   6.176   9.878 -0.3033 -0.2792 -0.2083
  876MOL0     C18152   6.483   6.085   9.876 -0.2887  0.6747  0.1713
  876MOL0     C18153   6.594   6.114   9.972  0.3129  0.1493 -0.0555
  876MOL0     C18154   6.473   5.979   9.778  0.2872 -0.2953 -0.2896
  876MOL0     C18155   6.583   5.886   9.751 -0.1933  0.8034 -0.9236
  876MOL0     O18156   6.696   5.889   9.827  0.8480  0.0040 -0.1513
  876MOL0     C18157   6.808   5.812   9.797  0.0140 -0.0553  0.4352
  876MOL0     C18158   6.829   5.726   9.687  0.9269  0.4152 -1.1265
  876MOL0     C18159   6.944   5.654   9.685  0.9232  0.0034 -0.0975
  876MOL0     C18160   7.054   5.673   9.774 -0.0341 -0.0938  0.2248
  876MOL0     O18161   7.188   5.636   9.771 -0.4610 -0.0285 -0.0839
  876MOL0     C18162   7.217   5.551   9.655 -0.7713 -0.1347 -0.5664
  876MOL0     C18163   7.359   5.489   9.648 -0.5394 -0.8105 -0.9822
  876MOL0     C18164   7.416   5.450   9.788 -0.6558  0.4119 -0.3418
  876MOL0     C18165   7.554   5.389   9.769  0.5019 -0.1750  0.3346
  876MOL0     C18166   7.636   5.357   9.896  0.4277 -0.5268 -0.2952
  876MOL0     C18167   7.760   5.271   9.861 -0.0649  0.4452  0.8038
  876MOL0     C18168   7.843   5.241   9.996  0.1580 -0.1372  0.5328
  876MOL0     C18169   7.984   5.214   9.953  0.1935  0.3651  0.5343
  876MOL0    Cl18170   8.081   5.258  10.094 -0.3446 -0.3671  0.2493
  876MOL0     C18171   7.027   5.760   9.881  0.0396 -1.3471  0.0037
  876MOL0     C18172   6.908   5.833   9.886  0.6754 -0.4611 -0.7279
  876MOL0     O18173   6.561   5.801   9.660 -0.3926 -0.1029 -0.3704
  876MOL0     C18174   6.358   5.970   9.695 -0.0683 -0.4451 -0.7575
  876MOL0     C18175   6.251   6.065   9.707  0.0210 -0.3564  0.5412
  876MOL0     N18176   5.818   6.631   9.537  0.1856 -0.2476 -0.0556
  876MOL0     N18177   5.848   6.750   9.492  0.2527  0.1230 -0.3178
  876MOL0     C18178   7.095   6.579   9.575 -0.3259 -0.2699  0.3174
  876MOL0     C18179   7.239   6.598   9.613  0.3472  0.0640  0.6680
  876MOL0     C18180   7.662   6.813   9.606 -0.7952 -1.6366  1.1222
  876MOL0     C18181   7.754   6.919   9.613 -0.2906 -0.1642  0.0531
  876MOL0     C18182   7.890   6.892   9.599 -0.4534  0.0601 -0.1895
  876MOL0     C18183   7.937   6.762   9.587 -1.1014  0.3421 -0.7699
  876MOL0     O18184   8.071   6.739   9.565 -0.2202 -0.4274 -0.3459
  876MOL0     C18185   8.136   6.827   9.472 -0.2355  0.2862 -0.8150
  876MOL0     C18186   8.271   6.760   9.425 -0.1250  0.4766 -0.2424
  876MOL0     C18187   8.341   6.874   9.344 -0.8399  0.7507 -0.0317
  876MOL0     C18188   8.310   6.864   9.193  1.0033 -0.2823  0.0121
  876MOL0     C18189   8.191   6.947   9.150  0.9326 -0.6191 -0.6067
  876MOL0     C18190   8.087   7.010   9.124 -0.1383 -0.7195  0.4166
  876MOL0     C18191   7.847   6.657   9.606 -1.1692  0.1062 -0.5269
  876MOL0     C18192   7.711   6.680   9.610  0.7772  0.1550 -0.1347
  876MOL0     H18193   7.287   6.883   9.445  1.4517  0.2243  1.1491
  876MOL0     H18194   7.060   6.853   9.385  1.9328  1.0767  0.8549
  876MOL0     H18195   6.838   6.709   9.632  1.6577 -1.2230 -1.1044
  876MOL0     H18196   6.847   6.832   9.501  1.6010 -0.1921  1.0788
  876MOL0     H18197   6.655   6.723   9.399  0.6590 -0.4808 -1.0343
  876MOL0     H18198   6.643   6.587   9.520  1.6117 -0.7302 -3.4995
  876MOL0     H18199   6.584   6.717   9.683  2.8202 -1.6873 -0.4333
  876MOL0     H18200   6.593   6.873   9.595  1.6671 -0.9069 -0.6623
  876MOL0     H18201   6.422   6.763   9.430 -3.2322 -0.7567 -0.2628
  876MOL0     H18202   6.396   6.642   9.546 -3.5735 -0.6022  1.3907
  876MOL0     H18203   6.327   6.791   9.732 -0.0607 -0.4974 -0.2694
  876MOL0     H18204   6.374   6.932   9.631  0.9982 -0.2522 -1.4714
  876MOL0     H18205   6.202   6.839   9.458  0.9161  1.8393  0.1497
  876MOL0     H18206   6.150   6.734   9.580 -0.4263  0.8874  3.3971
  876MOL0     H18207   6.097   6.958   9.724  0.1243  1.5739  0.0951
  876MOL0     H18208   6.167   7.034   9.589  2.9084 -1.8336  3.4737
  876MOL0     H18209   5.953   6.975   9.458  2.4000  1.6324  0.8387
  876MOL0     H18210   5.905   7.048   9.611 -2.6969 -0.3551 -2.2541
  876MOL0     H18211   5.910   6.797   9.806  1.4061  0.9728 -1.2445
  876MOL0     H18212   5.751   6.533   9.837  0.1207  0.7310  0.4863
  876MOL0     H18213   5.838   6.426   9.725 -0.5554 -1.5899  1.2522
  876MOL0     H18214   5.951   6.431   9.935 -0.7661  0.1300  0.2973
  876MOL0     H18215   5.974   6.603   9.932 -0.1650  0.4455 -0.9356
  876MOL0     H18216   6.151   6.594   9.783 -4.1317  2.0285 -0.7576
  876MOL0     H18217   6.070   6.481   9.686 -0.8280  0.5013 -0.7570
  876MOL0     H18218   6.205   6.404   9.949 -0.9261  0.3046  0.0184
  876MOL0     H18219   6.301   6.419   9.801  0.8233 -0.8955  0.8313
  876MOL0     H18220   6.391   6.267   9.936 -0.1527 -0.4672  0.0555
  876MOL0     H18221   6.574   6.207  10.025 -4.8278  0.4921 -1.9857
  876MOL0     H18222   6.598   6.037  10.049  1.4587  1.8288  1.6512
  876MOL0     H18223   6.691   6.127   9.921 -0.1324  3.9076 -0.2308
  876MOL0     H18224   6.759   5.698   9.608  0.4706  0.0977 -0.6128
  876MOL0     H18225   6.947   5.585   9.601  0.2138 -0.7239  0.4515
  876MOL0     H18226   7.156   5.462   9.673  0.6214 -1.2341 -1.1093
  876MOL0     H18227   7.196   5.600   9.560 -0.9900  2.5573  0.7686
  876MOL0     H18228   7.361   5.402   9.582 -1.1696  0.0047 -2.1017
  876MOL0     H18229   7.421   5.572   9.612 -0.8456 -0.3086 -0.3600
  876MOL0     H18230   7.344   5.391   9.845 -1.1820  0.2097 -1.1986
  876MOL0     H18231   7.436   5.537   9.851  0.5368  0.1980 -0.4113
  876MOL0     H18232   7.546   5.296   9.713 -0.7303 -0.5901  1.1505
  876MOL0     H18233   7.608   5.467   9.714 -3.9684  2.2115 -1.1728
  876MOL0     H18234   7.579   5.307   9.975 -0.2327  2.4116  1.1997
  876MOL0     H18235   7.657   5.455   9.940 -0.3977 -1.9783  3.7549
  876MOL0     H18236   7.723   5.181   9.811  2.6215 -1.4695  2.0090
  876MOL0     H18237   7.824   5.321   9.787 -0.7420 -0.5957 -0.5377
  876MOL0     H18238   7.801   5.156  10.051  0.0429 -0.7291 -0.4500
  876MOL0     H18239   7.855   5.331  10.058  3.0074 -0.5267  0.6637
  876MOL0     H18240   8.005   5.277   9.867  2.9620  0.8525  1.4730
  876MOL0     H18241   7.999   5.110   9.923 -0.8443  0.5164 -0.5780
  876MOL0     H18242   7.098   5.783   9.960  0.2400 -0.6442 -0.3726
  876MOL0     H18243   6.884   5.901   9.967 -1.4547 -1.8030 -0.1573
  876MOL0     H18244   6.343   5.896   9.617  2.4510 -0.7092 -1.0698
  876MOL0     H18245   6.166   6.063   9.639 -0.5899  0.4386  1.2680
  876MOL0     H18246   7.042   6.490   9.608 -0.5961 -1.0078 -1.9411
  876MOL0     H18247   7.290   6.522   9.671  1.3135 -0.4833 -0.8408
  876MOL0     H18248   7.719   7.022   9.620 -5.2246 -1.6046  0.7616
  876MOL0     H18249   7.954   6.979   9.598 -1.2861  0.6860 -0.3547
  876MOL0     H18250   8.078   6.846   9.381  0.9522  0.6679 -1.5158
  876MOL0     H18251   8.174   6.919   9.517  0.2884 -1.0184  1.5677
  876MOL0     H18252   8.241   6.678   9.360 -0.2706 -0.4636  0.9709
  876MOL0     H18253   8.330   6.720   9.508 -0.2710 -4.0563 -2.0592
  876MOL0     H18254   8.449   6.866   9.358 -0.5616  0.9168 -1.8173
  876MOL0     H18255   8.319   6.973   9.385 -0.2999  0.1072  1.9062
  876MOL0     H18256   8.309   6.761   9.157  2.9260 -0.0794 -0.7414
  876MOL0     H18257   8.390   6.904   9.131 -0.6620  2.3921 -0.5441
  876MOL0     H18258   7.995   7.061   9.102  1.3553  1.9759 -0.0557
  876MOL0     H18259   7.893   6.561   9.628  2.1657  1.8014  0.5534
  876MOL0     H18260   7.639   6.599   9.619 -0.3487  1.3808  4.2768
  877MOL0     O18261   0.603  10.605   5.439  0.2640 -0.2935  1.1266
  877MOL0     C18262   0.626  10.553   5.547 -0.3569 -0.2980  0.3702
  877MOL0     O18263   0.533  10.476   5.619 -0.4314  0.3216 -0.4547
  877MOL0     C18264   0.412  10.455   5.564 -0.3295  0.4404 -0.3296
  877MOL0     C18265   0.382  10.342   5.489  0.0951 -0.2767 -0.7786
  877MOL0     C18266   0.266  10.315   5.426  0.0815  0.1948 -0.5016
  877MOL0     C18267   0.166  10.406   5.430 -0.0290 -0.8129  0.1069
  877MOL0     O18268   0.051  10.372   5.369  0.1957 -0.8821 -0.1628
  877MOL0     C18269  -0.055  10.461   5.378  0.6487 -0.0225 -0.5087
  877MOL0     C18270  -0.180  10.403   5.302  0.6176 -0.2739  0.7667
  877MOL0     C18271  -0.163  10.373   5.148 -0.8958 -0.4900  0.9538
  877MOL0     C18272  -0.184  10.490   5.053  0.4282 -1.0172  0.8552
  877MOL0     C18273  -0.099  10.503   4.925  0.4198  0.6678  0.2819
  877MOL0     C18274  -0.135  10.616   4.823  0.6815  1.0152 -0.0613
  877MOL0     C18275  -0.018  10.630   4.729  0.0437  0.1397  0.2401
  877MOL0     C18276  -0.055  10.716   4.615  0.6592 -0.4824  0.2483
  877MOL0     N18277   0.061  10.773   4.549 -0.7770  0.0451 -0.6521
  877MOL0     C18278   0.106  10.903   4.554  0.1588 -0.5205 -0.0486
  877MOL0     C18279   0.222  10.908   4.494  0.1519  0.0274  0.8612
  877MOL0     C18280   0.307  11.024   4.467  1.1699 -0.0657  0.4957
  877MOL0     C18281   0.222  11.134   4.398 -0.1367 -0.7939  0.4821
  877MOL0     C18282   0.305  11.242   4.314 -0.5515  0.2789 -0.0573
  877MOL0     C18283   0.441  11.285   4.359 -0.1087  0.5683  1.1006
  877MOL0     O18284   0.534  11.182   4.302  0.3205 -0.4608 -0.9454
  877MOL0     C18285   0.668  11.207   4.334 -0.6480  0.2409  0.9972
  877MOL0     C18286   0.756  11.110   4.283 -1.3247 -0.2084 -0.2405
  877MOL0     C18287   0.892  11.119   4.304 -0.4434  0.5942 -0.6875
  877MOL0     C18288   0.971  11.001   4.258 -0.0396  0.9266  0.4354
  877MOL0     C18289   0.949  11.232   4.368 -0.2160  0.1466 -0.2911
  877MOL0     C18290   1.099  11.267   4.372  0.7602 -0.2744 -0.1005
  877MOL0     O18291   1.138  11.373   4.442  0.1176 -0.4359  0.3825
  877MOL0     C18292   1.270  11.379   4.482  0.1883  0.3595 -0.3089
  877MOL0     C18293   1.287  11.391   4.617 -0.3094 -0.3669 -0.1088
  877MOL0     C18294   1.406  11.379   4.676  0.0045 -0.3836  0.6257
  877MOL0     C18295   1.519  11.383   4.595 -0.0121  1.1986 -0.1656
  877MOL0     O18296   1.634  11.375   4.669 -0.2231 -0.9952  0.1838
  877MOL0     C18297   1.762  11.365   4.610 -0.4174 -0.2479  0.0828
  877MOL0     C18298   1.857  11.425   4.709 -0.9253  0.2577  0.1402
  877MOL0     C18299   1.995  11.406   4.647 -0.8827 -0.3569 -1.0755
  877MOL0     C18300   2.105  11.447   4.740 -0.1108  0.3311 -0.1532
  877MOL0     C18301   2.244  11.425   4.675 -0.6226 -0.1782  0.0799
  877MOL0     C18302   2.349  11.512   4.746  0.5078  0.3443  0.1411
  877MOL0     C18303   2.491  11.486   4.701 -0.1204 -0.0080  0.2478
  877MOL0     C18304   2.600  11.582   4.762  0.6981  0.1327  0.2061
  877MOL0    Cl18305   2.698  11.638   4.632 -0.4499  0.4231 -0.2862
  877MOL0     C18306   1.512  11.382   4.456  0.3630  0.3518  0.4241
  877MOL0     C18307   1.382  11.388   4.397 -0.4331  1.1224  0.1937
  877MOL0     O18308   1.176  11.197   4.314 -0.0105  0.3334  0.0469
  877MOL0     C18309   0.859  11.324   4.430  0.5957  0.3235 -0.2624
  877MOL0     C18310   0.719  11.317   4.403 -0.1182  0.7124  0.4229
  877MOL0     N18311   0.252  10.781   4.461  0.3722 -0.4461  0.1144
  877MOL0     N18312   0.166  10.696   4.509  0.2670  0.0575  0.5829
  877MOL0     C18313   0.186  10.537   5.501 -0.1011  0.9926 -0.9844
  877MOL0     C18314   0.313  10.554   5.572  0.0111  0.0988  1.3078
  877MOL0     C18315   0.755  10.589   5.610 -0.0261  0.4868  0.0253
  877MOL0     C18316   0.859  10.652   5.546 -0.7147 -0.4385  0.9078
  877MOL0     C18317   0.978  10.678   5.614  0.3632 -0.2677 -0.0643
  877MOL0     C18318   1.006  10.641   5.744 -0.3419 -0.1937 -0.0865
  877MOL0     O18319   1.128  10.673   5.809  0.3343 -0.7009  0.0824
  877MOL0     C18320   1.253  10.686   5.736  1.1781  0.6795 -0.1230
  877MOL0     C18321   1.370  10.710   5.836  0.4620 -0.3855  0.6267
  877MOL0     C18322   1.507  10.738   5.771  0.3407  0.4264  0.4834
  877MOL0     C18323   1.608  10.726   5.883 -0.6739  0.1836  0.6561
  877MOL0     C18324   1.738  10.708   5.821 -0.0422 -0.2428  1.3824
  877MOL0     C18325   1.849  10.695   5.773 -0.8218  0.3166  0.8724
  877MOL0     C18326   0.898  10.578   5.815 -0.4593  0.2901 -0.4968
  877MOL0     C18327   0.776  10.552   5.747  0.1046  0.4666 -0.1061
  877MOL0     H18328   0.464  10.272   5.480 -0.1828 -1.0545  1.8065
  877MOL0     H18329   0.254  10.224   5.370 -1.2755  0.1930 -0.2371
  877MOL0     H18330  -0.086  10.478   5.482 -0.9172  0.1913 -0.9848
  877MOL0     H18331  -0.031  10.557   5.331 -1.7966  0.0777 -1.7587
  877MOL0     H18332  -0.191  10.306   5.351 -0.9527 -1.0672 -0.9966
  877MOL0     H18333  -0.272  10.461   5.312 -0.4389 -1.6678 -0.3666
  877MOL0     H18334  -0.068  10.318   5.139 -0.2793  0.8771 -2.1581
  877MOL0     H18335  -0.238  10.301   5.113 -2.2462  1.6011 -0.6566
  877MOL0     H18336  -0.290  10.485   5.026  0.5750  1.6107 -0.6061
  877MOL0     H18337  -0.176  10.585   5.106 -0.2391 -0.8085  0.5933
  877MOL0     H18338  -0.000  10.535   4.959  1.8257 -0.8105 -2.0983
  877MOL0     H18339  -0.088  10.405   4.878  2.8854 -0.0849  2.2231
  877MOL0     H18340  -0.218  10.582   4.761  2.7271  0.5957 -2.7606
  877MOL0     H18341  -0.160  10.711   4.870 -0.4673  1.0998 -0.7932
  877MOL0     H18342   0.064  10.680   4.782  0.8960  0.4273 -1.2853
  877MOL0     H18343   0.028  10.536   4.698  0.3214  0.1650  0.5658
  877MOL0     H18344  -0.099  10.811   4.647 -1.1910 -0.7136 -1.3910
  877MOL0     H18345  -0.128  10.663   4.553  0.0686 -0.2233  0.7032
  877MOL0     H18346   0.056  10.989   4.598 -0.4164  0.4843 -2.5185
  877MOL0     H18347   0.354  11.064   4.557  1.8263  0.9287 -0.2602
  877MOL0     H18348   0.390  11.002   4.399  1.0834 -0.0227  0.3750
  877MOL0     H18349   0.163  11.187   4.474 -0.5891 -1.1762  0.4054
  877MOL0     H18350   0.136  11.096   4.342 -0.3533  0.0946  0.1936
  877MOL0     H18351   0.236  11.324   4.291 -1.1683 -0.4398 -0.8227
  877MOL0     H18352   0.323  11.196   4.216  1.8092 -1.6402  1.1525
  877MOL0     H18353   0.459  11.292   4.467 -3.3958 -0.4352  1.8463
  877MOL0     H18354   0.459  11.380   4.308 -0.8085 -0.1806 -0.6078
  877MOL0     H18355   0.721  11.019   4.235  0.2971 -0.7197 -0.5445
  877MOL0     H18356   1.035  11.025   4.173  0.2246 -2.7971 -0.5778
  877MOL0     H18357   1.032  10.963   4.340  1.4895 -0.1998 -1.1489
  877MOL0     H18358   0.907  10.915   4.235  2.9641 -1.0948 -0.9211
  877MOL0     H18359   1.197  11.386   4.678  0.9390  0.8445  1.9250
  877MOL0     H18360   1.418  11.371   4.783  0.1494  0.5826  0.6868
  877MOL0     H18361   1.789  11.265   4.575  0.9672  0.9264 -2.4891
  877MOL0     H18362   1.771  11.421   4.516  0.9557  0.1816  0.4558
  877MOL0     H18363   1.837  11.530   4.732  1.1063  0.8110 -0.3798
  877MOL0     H18364   1.859  11.373   4.805 -1.5082 -0.9916 -0.5062
  877MOL0     H18365   2.000  11.474   4.561  0.3659 -1.4138 -1.8823
  877MOL0     H18366   2.005  11.304   4.609  1.0286 -0.7955  0.4459
  877MOL0     H18367   2.094  11.554   4.758  0.6744  0.3224  0.4148
  877MOL0     H18368   2.105  11.401   4.839 -1.3519 -0.6730 -0.5961
  877MOL0     H18369   2.235  11.451   4.569  1.2313  2.5803  0.4859
  877MOL0     H18370   2.263  11.317   4.680 -1.4129 -0.2653  2.2037
  877MOL0     H18371   2.329  11.619   4.731  3.0184  2.0054  5.8148
  877MOL0     H18372   2.339  11.493   4.853 -1.5790  3.2851  0.6046
  877MOL0     H18373   2.497  11.490   4.592 -2.8014  2.9310  0.0630
  877MOL0     H18374   2.512  11.387   4.742 -0.4111  0.0040  0.4329
  877MOL0     H18375   2.653  11.521   4.837 -1.6129 -2.0655  0.1714
  877MOL0     H18376   2.558  11.672   4.808 -0.0996 -1.1983  2.2452
  877MOL0     H18377   1.596  11.379   4.386  1.2298 -1.3707  1.4795
  877MOL0     H18378   1.382  11.378   4.289  0.3172  1.0972  0.1914
  877MOL0     H18379   0.909  11.398   4.492 -0.0595 -1.0257  1.9987
  877MOL0     H18380   0.655  11.400   4.433  0.0629  0.3223  1.9124
  877MOL0     H18381   0.113  10.618   5.512 -0.3531  0.4115  3.3880
  877MOL0     H18382   0.332  10.648   5.624 -1.5898  3.2288 -3.1344
  877MOL0     H18383   0.862  10.684   5.443  0.5283 -0.3161  0.9670
  877MOL0     H18384   1.061  10.722   5.560  0.4733  1.9069  1.7150
  877MOL0     H18385   1.265  10.597   5.674 -2.5055  0.2523 -0.4828
  877MOL0     H18386   1.248  10.773   5.669 -1.4442 -1.5373 -3.1671
  877MOL0     H18387   1.370  10.637   5.917  0.2562  1.0520  1.9930
  877MOL0     H18388   1.343  10.805   5.883 -2.6029 -0.3844 -0.8795
  877MOL0     H18389   1.498  10.839   5.727 -1.4698  2.2497  4.5360
  877MOL0     H18390   1.521  10.658   5.698  0.7117  1.0966 -0.1998
  877MOL0     H18391   1.600  10.641   5.952 -3.0493  1.6509  2.3156
  877MOL0     H18392   1.614  10.821   5.937 -0.4133  1.1197 -0.9459
  877MOL0     H18393   1.948  10.683   5.731 -2.1520 -0.4073 -2.3698
  877MOL0     H18394   0.912  10.548   5.918 -2.7630  0.6740 -0.0191
  877MOL0     H18395   0.702  10.496   5.804 -0.4364  1.3622  0.0946
  878MOL0     O18396   0.588   1.792   1.992 -0.4140 -0.2177  0.0939
  878MOL0     C18397   0.631   1.676   2.001 -0.2560 -0.1915  0.3759
  878MOL0     O18398   0.548   1.566   2.015  0.1913 -0.4855  0.0917
  878MOL0     C18399   0.423   1.596   2.056  0.4192  0.2273  0.1085
  878MOL0     C18400   0.324   1.602   1.958  0.0438 -0.9134  0.1781
  878MOL0     C18401   0.194   1.595   1.997 -0.5198  0.1475 -0.8408
  878MOL0     C18402   0.153   1.590   2.132  0.2430 -0.0166 -0.0745
  878MOL0     O18403   0.016   1.598   2.159  0.4075  0.2902  0.6750
  878MOL0     C18404  -0.043   1.469   2.161  0.8845 -0.5435 -0.6204
  878MOL0     C18405  -0.185   1.474   2.210 -0.2509  0.0970  0.1842
  878MOL0     C18406  -0.285   1.546   2.116  0.9053 -0.1532  0.4714
  878MOL0     C18407  -0.423   1.547   2.181 -0.5820  0.3973 -0.7223
  878MOL0     C18408  -0.525   1.595   2.077  0.4712  0.4370 -0.7403
  878MOL0     C18409  -0.670   1.586   2.137  0.4392 -0.0793  0.8980
  878MOL0     C18410  -0.699   1.710   2.228 -0.1232 -0.4145  0.0729
  878MOL0     C18411  -0.835   1.698   2.291 -0.0143 -0.2691  0.7173
  878MOL0     N18412  -0.922   1.808   2.242 -0.3604  1.2973  0.4212
  878MOL0     C18413  -0.922   1.928   2.299 -0.1407  0.9364 -0.9451
  878MOL0     C18414  -1.023   2.001   2.236 -0.1331 -0.7366  0.4177
  878MOL0     C18415  -1.050   2.151   2.266  0.2122  0.1216  0.1997
  878MOL0     C18416  -1.129   2.216   2.143  0.8772 -0.1140 -0.4529
  878MOL0     C18417  -1.166   2.368   2.174 -0.9571 -0.2069 -0.6756
  878MOL0     C18418  -1.185   2.458   2.058  0.0838  0.5320  0.2944
  878MOL0     O18419  -1.319   2.432   2.004  0.4707  0.1453  0.0159
  878MOL0     C18420  -1.356   2.464   1.879 -0.3985 -0.4483 -0.4164
  878MOL0     C18421  -1.308   2.581   1.820  0.2792 -0.0637 -0.6847
  878MOL0     C18422  -1.353   2.628   1.695 -0.3853  0.0132 -0.3910
  878MOL0     C18423  -1.273   2.732   1.623  0.7567  0.2558 -0.1744
  878MOL0     C18424  -1.461   2.548   1.637  0.7922 -0.2783  0.0917
  878MOL0     C18425  -1.539   2.599   1.522  0.3636 -0.4911  0.0624
  878MOL0     O18426  -1.629   2.521   1.454  0.2500 -0.1869  0.5496
  878MOL0     C18427  -1.689   2.578   1.344  0.5684  1.3531 -1.1804
  878MOL0     C18428  -1.800   2.658   1.359 -0.1868  0.5074  0.2758
  878MOL0     C18429  -1.872   2.708   1.248  0.2027 -0.1542 -0.5720
  878MOL0     C18430  -1.844   2.671   1.111  0.3666  0.0705 -0.4388
  878MOL0     O18431  -1.910   2.717   1.002 -0.3184  0.1580 -0.2764
  878MOL0     C18432  -2.030   2.798   1.015 -0.2717  0.0888 -0.9199
  878MOL0     C18433  -2.012   2.906   0.913  0.4755 -0.4332  0.0613
  878MOL0     C18434  -1.894   3.001   0.937 -0.2475  0.4140  0.0476
  878MOL0     C18435  -1.892   3.069   1.080  0.8000 -0.2668  0.0155
  878MOL0     C18436  -2.032   3.139   1.103  0.4498 -0.1456  0.4660
  878MOL0     C18437  -2.037   3.229   1.228  0.1963 -0.3103 -0.1474
  878MOL0     C18438  -2.163   3.322   1.227  0.4064  0.5380  0.1643
  878MOL0     C18439  -2.170   3.410   1.352  0.5326 -0.2340 -0.4615
  878MOL0    Cl18440  -2.306   3.533   1.345  0.4476 -0.0893 -0.4024
  878MOL0     C18441  -1.725   2.595   1.097  0.1768 -0.8885 -0.1318
  878MOL0     C18442  -1.655   2.546   1.212  0.1170  0.0314 -0.3647
  878MOL0     O18443  -1.518   2.720   1.496 -0.0906  0.7777  0.3726
  878MOL0     C18444  -1.520   2.444   1.702  0.4253  0.5961 -0.2783
  878MOL0     C18445  -1.462   2.392   1.815  0.5925  0.0123  0.1529
  878MOL0     N18446  -1.084   1.919   2.145 -0.3479 -0.1751  0.3017
  878MOL0     N18447  -1.022   1.808   2.151 -0.1375  0.0423  0.1777
  878MOL0     C18448   0.253   1.605   2.227  0.2323 -0.3348  0.0984
  878MOL0     C18449   0.389   1.596   2.192  0.0992  0.4788  0.3807
  878MOL0     C18450   0.774   1.652   1.988 -0.0138  0.3919  0.3444
  878MOL0     C18451   0.819   1.518   1.959 -0.1097 -0.1134  0.3391
  878MOL0     C18452   0.956   1.496   1.958  0.4530 -0.1629 -0.1548
  878MOL0     C18453   1.047   1.597   1.977  0.4403 -0.2668  0.1059
  878MOL0     O18454   1.179   1.571   1.981 -0.0273  0.6414  0.2371
  878MOL0     C18455   1.232   1.544   2.110  0.1711  0.1822 -0.4671
  878MOL0     C18456   1.375   1.600   2.104 -0.3419 -0.0198 -1.3871
  878MOL0     C18457   1.451   1.527   1.992  0.0241 -0.4002  0.1295
  878MOL0     C18458   1.601   1.522   2.009  0.0796  0.2306 -0.5762
  878MOL0     C18459   1.672   1.649   2.032 -0.1760  0.2303  0.4523
  878MOL0     C18460   1.721   1.753   2.040  0.6676  0.5740  0.0171
  878MOL0     C18461   1.003   1.732   1.981 -0.6384  0.0532 -1.1730
  878MOL0     C18462   0.871   1.763   1.993 -0.7039 -0.4026  0.3369
  878MOL0     H18463   0.357   1.620   1.857 -0.4690  2.9518  0.5364
  878MOL0     H18464   0.117   1.608   1.922 -3.4986  0.5442  2.0247
  878MOL0     H18465  -0.048   1.426   2.061 -0.3758  0.5643 -1.0635
  878MOL0     H18466   0.004   1.401   2.234  0.3541  0.0398  0.2839
  878MOL0     H18467  -0.221   1.371   2.217  1.6865 -0.6890 -0.6396
  878MOL0     H18468  -0.198   1.529   2.303 -1.7564 -1.1721  0.7704
  878MOL0     H18469  -0.266   1.652   2.098 -0.6831  0.2372  0.9125
  878MOL0     H18470  -0.297   1.497   2.018 -0.0729 -0.3206  0.6640
  878MOL0     H18471  -0.449   1.450   2.224 -0.1448  0.0386 -1.2610
  878MOL0     H18472  -0.419   1.611   2.270  0.4135 -0.7021  0.0703
  878MOL0     H18473  -0.509   1.699   2.048  1.0590  0.2587 -1.0843
  878MOL0     H18474  -0.520   1.538   1.983  1.2942  1.0507 -1.0747
  878MOL0     H18475  -0.734   1.582   2.048  1.9124 -0.6966 -0.1622
  878MOL0     H18476  -0.689   1.491   2.186 -2.7459 -1.5587 -2.7085
  878MOL0     H18477  -0.633   1.706   2.315 -0.5934 -1.9393  0.3905
  878MOL0     H18478  -0.687   1.804   2.173 -1.0816 -0.6861 -0.6269
  878MOL0     H18479  -0.839   1.701   2.401 -1.6833  0.7902  0.6670
  878MOL0     H18480  -0.881   1.601   2.269 -1.3334  0.6720 -0.8305
  878MOL0     H18481  -0.857   1.960   2.380  0.5725  1.6936 -1.7924
  878MOL0     H18482  -1.102   2.158   2.362  0.8689  1.5998  0.4832
  878MOL0     H18483  -0.959   2.210   2.280  0.4709 -0.1915 -0.1639
  878MOL0     H18484  -1.219   2.158   2.122 -0.0347  0.8474  0.6457
  878MOL0     H18485  -1.064   2.199   2.056  0.3899 -0.4807 -0.7460
  878MOL0     H18486  -1.111   2.422   2.252 -1.2735 -0.4716 -0.2645
  878MOL0     H18487  -1.262   2.356   2.225 -0.6850 -1.5887 -0.4561
  878MOL0     H18488  -1.107   2.451   1.982 -0.6165  1.7229 -0.5733
  878MOL0     H18489  -1.192   2.562   2.093  1.6396 -0.0758  2.6748
  878MOL0     H18490  -1.229   2.636   1.869  0.2241 -0.4104 -0.2027
  878MOL0     H18491  -1.261   2.716   1.515 -0.6690  0.9630 -0.4538
  878MOL0     H18492  -1.323   2.828   1.638 -2.9632 -1.3117 -1.2819
  878MOL0     H18493  -1.179   2.739   1.679  0.0394 -0.7421  1.2068
  878MOL0     H18494  -1.851   2.679   1.452  0.0160  2.0936  0.0603
  878MOL0     H18495  -1.953   2.774   1.278 -4.0108 -3.8773 -2.6576
  878MOL0     H18496  -2.124   2.751   0.983 -1.8426  2.0060  0.5825
  878MOL0     H18497  -2.041   2.846   1.113  0.6674 -0.6768 -0.4302
  878MOL0     H18498  -1.994   2.850   0.821  0.4324 -1.5245  0.6981
  878MOL0     H18499  -2.105   2.963   0.906 -0.7681 -2.1312  1.7063
  878MOL0     H18500  -1.897   3.068   0.850 -1.6337  0.1197 -0.1713
  878MOL0     H18501  -1.802   2.943   0.929  0.9260  2.2223 -0.1839
  878MOL0     H18502  -1.873   2.991   1.154 -2.4534 -0.1110  1.1617
  878MOL0     H18503  -1.815   3.146   1.086 -0.7844  1.2234  2.8151
  878MOL0     H18504  -2.111   3.065   1.118  0.9720 -0.7520  0.2485
  878MOL0     H18505  -2.060   3.187   1.009 -1.8591 -1.3055  0.4839
  878MOL0     H18506  -2.046   3.175   1.323  0.4242  2.7440  1.7352
  878MOL0     H18507  -1.943   3.285   1.233 -0.3897  0.9450 -2.1001
  878MOL0     H18508  -2.250   3.256   1.235  1.6663 -0.9570  3.0000
  878MOL0     H18509  -2.161   3.388   1.139 -1.2005  2.5953  1.5914
  878MOL0     H18510  -2.075   3.464   1.350 -0.3249  1.3550  0.0560
  878MOL0     H18511  -2.175   3.346   1.441  1.4539  0.0091 -0.2281
  878MOL0     H18512  -1.704   2.549   1.001 -2.0282 -1.5696 -0.3419
  878MOL0     H18513  -1.568   2.483   1.201 -0.4248 -0.5088 -1.8266
  878MOL0     H18514  -1.606   2.392   1.662 -1.4499  1.5035  2.3079
  878MOL0     H18515  -1.488   2.296   1.858  2.7535  0.4751  2.7936
  878MOL0     H18516   0.222   1.627   2.329 -1.3127  0.8267 -0.5641
  878MOL0     H18517   0.457   1.615   2.274  2.6696  3.7652 -2.1949
  878MOL0     H18518   0.746   1.438   1.952  2.5011 -2.6802  0.9814
  878MOL0     H18519   0.981   1.394   1.930  0.8477 -0.1883  0.2709
  878MOL0     H18520   1.191   1.601   2.193  4.7876 -1.3311  3.3143
  878MOL0     H18521   1.219   1.440   2.140 -0.1416  0.8013  1.6554
  878MOL0     H18522   1.419   1.577   2.201  0.9943  0.8835 -1.7514
  878MOL0     H18523   1.392   1.707   2.087  0.0296  0.0895 -0.4023
  878MOL0     H18524   1.424   1.582   1.902 -1.2335  0.5076  1.0206
  878MOL0     H18525   1.416   1.424   2.000 -3.4893  0.8020  3.8208
  878MOL0     H18526   1.652   1.486   1.919  1.1740 -0.8617  0.4612
  878MOL0     H18527   1.621   1.458   2.094 -0.0016 -1.1127 -1.5345
  878MOL0     H18528   1.765   1.849   2.060 -2.8227  2.8296 -2.0363
  878MOL0     H18529   1.078   1.810   1.993 -2.3409  1.5074  0.6685
  878MOL0     H18530   0.841   1.867   1.998 -1.3790 -0.2628 -3.4475
  879MOL0     O18531   5.337   9.475   9.289 -0.5175  0.4084 -0.4820
  879MOL0     C18532   5.395   9.516   9.382 -0.2231 -1.0595  0.9606
  879MOL0     O18533   5.331   9.563   9.500 -0.4758 -0.4862  0.3897
  879MOL0     C18534   5.193   9.560   9.502 -0.6500  1.0725 -0.1296
  879MOL0     C18535   5.115   9.447   9.467 -0.3920  0.4993  0.8150
  879MOL0     C18536   4.975   9.455   9.468  0.4565 -0.9239 -0.3233
  879MOL0     C18537   4.906   9.575   9.512  0.0735  0.0632  0.4963
  879MOL0     O18538   4.767   9.568   9.534  0.0523  1.4812 -0.0965
  879MOL0     C18539   4.703   9.667   9.601 -0.3736 -0.8033 -0.7454
  879MOL0     C18540   4.557   9.671   9.566 -0.7071 -0.1030 -0.0962
  879MOL0     C18541   4.481   9.576   9.657 -0.0031 -0.0952  0.0122
  879MOL0     C18542   4.330   9.605   9.658  0.2534  0.3108  0.1536
  879MOL0     C18543   4.256   9.527   9.774  0.1951 -0.6866 -0.0691
  879MOL0     C18544   4.117   9.592   9.787  0.1387  0.6610 -0.3030
  879MOL0     C18545   4.053   9.559   9.914 -0.3653 -0.5893 -0.1125
  879MOL0     C18546   3.915   9.627   9.930 -0.6635 -1.0815 -0.6405
  879MOL0     N18547   3.867   9.622  10.062 -0.2359 -0.1082 -0.0900
  879MOL0     C18548   3.765   9.706  10.111 -0.2735  0.4420  0.5903
  879MOL0     C18549   3.730   9.647  10.232 -0.2375  0.0682  0.3835
  879MOL0     C18550   3.637   9.673  10.341  0.1079  0.7008  1.1140
  879MOL0     C18551   3.636   9.814  10.402  0.3830 -0.9230  0.4418
  879MOL0     C18552   3.564   9.811  10.533  0.4241  0.3520  0.0594
  879MOL0     C18553   3.579   9.936  10.614  0.5640 -0.3010 -0.0397
  879MOL0     O18554   3.514   9.935  10.738  0.0561 -0.1072 -1.1823
  879MOL0     C18555   3.380   9.964  10.751  0.9790  0.7133 -0.3571
  879MOL0     C18556   3.331   9.985  10.882 -0.5317 -0.5708  0.3842
  879MOL0     C18557   3.197  10.014  10.909 -0.2058 -1.0437 -0.6318
  879MOL0     C18558   3.181  10.040  11.050  0.1156 -0.1800  0.3023
  879MOL0     C18559   3.106  10.024  10.809  0.2235 -0.4610  0.1247
  879MOL0     C18560   2.974  10.073  10.832 -0.3675 -0.6449 -0.3073
  879MOL0     O18561   2.874   9.992  10.788 -0.3350 -0.4192 -0.4189
  879MOL0     C18562   2.753   9.992  10.857 -0.0755 -0.6988 -0.1142
  879MOL0     C18563   2.747   9.942  10.981 -0.2626  0.3757  0.6552
  879MOL0     C18564   2.622   9.930  11.047 -0.5300  0.1583 -0.2529
  879MOL0     C18565   2.508   9.981  10.990  0.3606 -0.6818 -0.3551
  879MOL0     O18566   2.397   9.987  11.073  0.7068  0.3252  0.3418
  879MOL0     C18567   2.267  10.023  11.010  0.7320 -0.1234 -0.4753
  879MOL0     C18568   2.148  10.025  11.102 -0.0888  0.1374 -0.4619
  879MOL0     C18569   2.054   9.909  11.086  0.0726 -0.1338  0.7240
  879MOL0     C18570   1.915   9.956  11.099  0.0353  0.3680 -0.4566
  879MOL0     C18571   1.860  10.024  10.980 -0.0554  0.0290  0.8839
  879MOL0     C18572   1.735  10.105  11.020 -0.3890  0.7712 -0.4115
  879MOL0     C18573   1.632  10.008  11.071 -0.4467 -0.7800  0.0202
  879MOL0     C18574   1.501  10.071  11.099 -0.2516  0.3400 -0.0345
  879MOL0    Cl18575   1.403  10.131  10.961  0.0779 -0.1621 -0.6779
  879MOL0     C18576   2.504  10.033  10.862 -0.3273 -0.3460  0.0509
  879MOL0     C18577   2.634  10.039  10.794  0.2781 -0.3507  0.0661
  879MOL0     O18578   2.964  10.179  10.884 -0.4756 -0.1594  0.3198
  879MOL0     C18579   3.152   9.992  10.676 -0.5569 -0.2846  0.2460
  879MOL0     C18580   3.284   9.961  10.652 -0.1437  0.1178  0.4020
  879MOL0     N18581   3.821   9.543  10.247  0.2192 -0.0512 -0.0261
  879MOL0     N18582   3.898   9.524  10.150 -0.3861  0.2889 -0.2407
  879MOL0     C18583   4.990   9.693   9.529 -0.0592  0.4811 -0.6717
  879MOL0     C18584   5.130   9.685   9.523 -0.2656  0.0438  0.1743
  879MOL0     C18585   5.548   9.529   9.374  1.3510  0.2750 -0.2944
  879MOL0     C18586   5.630   9.585   9.479  1.0473  0.1130  0.2431
  879MOL0     C18587   5.767   9.590   9.473  0.0562  0.7358 -0.2936
  879MOL0     C18588   5.838   9.533   9.363  0.3603 -0.8702  0.2162
  879MOL0     O18589   5.972   9.535   9.335 -0.6778 -0.0374 -0.3988
  879MOL0     C18590   6.059   9.605   9.427 -0.5198 -0.5025  0.2546
  879MOL0     C18591   6.196   9.580   9.372 -0.4327  0.1877  0.4132
  879MOL0     C18592   6.310   9.661   9.443  0.9458 -0.2968 -0.3376
  879MOL0     C18593   6.429   9.684   9.339  0.7214 -0.0235  0.0025
  879MOL0     C18594   6.546   9.719   9.417 -0.4492  0.6512  1.1636
  879MOL0     C18595   6.643   9.745   9.486  0.6025 -0.8109 -0.4291
  879MOL0     C18596   5.755   9.489   9.259  0.3321  0.1850 -0.4033
  879MOL0     C18597   5.617   9.487   9.266  0.8641  0.3807 -0.0075
  879MOL0     H18598   5.166   9.356   9.437  0.1359  0.5647  1.4816
  879MOL0     H18599   4.915   9.376   9.424  0.6247 -1.2308 -0.0035
  879MOL0     H18600   4.719   9.678   9.708 -1.2005  4.8157 -0.8974
  879MOL0     H18601   4.744   9.756   9.552 -1.2415 -1.2458 -2.3617
  879MOL0     H18602   4.513   9.769   9.586  0.2566  0.0954  1.2282
  879MOL0     H18603   4.541   9.656   9.459  0.6934  3.1201 -0.8992
  879MOL0     H18604   4.494   9.471   9.627 -1.8641 -0.7507  1.3249
  879MOL0     H18605   4.513   9.578   9.762 -0.5979 -0.4266  0.2043
  879MOL0     H18606   4.302   9.710   9.675 -2.2585 -0.3239  0.3132
  879MOL0     H18607   4.283   9.567   9.566 -2.7450  2.2786  0.7200
  879MOL0     H18608   4.251   9.419   9.753 -2.6642 -1.0005  1.7653
  879MOL0     H18609   4.315   9.538   9.866 -2.5070 -2.6511  2.0674
  879MOL0     H18610   4.118   9.701   9.774  0.5211  0.7547  0.4650
  879MOL0     H18611   4.053   9.562   9.703 -0.9140  1.0899  0.3191
  879MOL0     H18612   4.023   9.455   9.925 -2.9218 -0.7484 -5.5178
  879MOL0     H18613   4.118   9.591   9.996 -0.1463 -1.6801  0.1581
  879MOL0     H18614   3.846   9.569   9.869 -0.7370 -2.9451  1.1320
  879MOL0     H18615   3.919   9.733   9.901 -0.8777 -0.2600  2.0928
  879MOL0     H18616   3.725   9.784  10.047 -0.4972 -3.0147 -4.0843
  879MOL0     H18617   3.539   9.641  10.302  0.5955 -0.8844  1.1171
  879MOL0     H18618   3.639   9.600  10.423 -1.4746  2.6441  3.0144
  879MOL0     H18619   3.581   9.887  10.341 -0.8810 -0.1402  2.3912
  879MOL0     H18620   3.738   9.851  10.415  1.2786 -3.3119  0.5324
  879MOL0     H18621   3.615   9.739  10.598 -0.1274  0.7818  1.0011
  879MOL0     H18622   3.462   9.775  10.515  1.5817 -3.6602  0.5817
  879MOL0     H18623   3.538  10.022  10.559 -0.5549 -2.3152 -2.5540
  879MOL0     H18624   3.682   9.971  10.624  1.5610 -1.3763 -4.4382
  879MOL0     H18625   3.407   9.967  10.958 -0.0724 -2.5972 -0.4892
  879MOL0     H18626   3.235  10.131  11.077 -0.6725  0.1720  0.7333
  879MOL0     H18627   3.078  10.042  11.087 -2.0592 -1.1412 -4.7321
  879MOL0     H18628   3.236   9.970  11.113 -1.7791 -0.7393  1.4227
  879MOL0     H18629   2.838   9.900  11.023  0.6187  0.0617 -1.4836
  879MOL0     H18630   2.636   9.873  11.139 -2.3105 -1.7780 -1.0892
  879MOL0     H18631   2.278  10.122  10.964  4.4468  1.1310  2.5380
  879MOL0     H18632   2.248   9.945  10.937  1.4432 -2.5377  1.7716
  879MOL0     H18633   2.181  10.030  11.206 -0.8089  2.6597 -0.2819
  879MOL0     H18634   2.093  10.120  11.094 -2.2241 -0.8431  1.4484
  879MOL0     H18635   2.080   9.846  11.171  2.3327 -0.9313 -0.4640
  879MOL0     H18636   2.077   9.842  11.002  2.0785 -0.1821  1.2579
  879MOL0     H18637   1.867   9.859  11.119 -0.5609  0.7478 -0.0367
  879MOL0     H18638   1.907  10.019  11.188 -0.6159 -2.6313  1.7582
  879MOL0     H18639   1.824   9.956  10.902 -1.6518  0.0469  1.5853
  879MOL0     H18640   1.935  10.082  10.924  0.0583  1.1350  2.1420
  879MOL0     H18641   1.762  10.174  11.100 -1.7520 -1.7564  2.4399
  879MOL0     H18642   1.691  10.155  10.933 -2.0954 -0.0083 -0.0387
  879MOL0     H18643   1.673   9.968  11.165 -0.8893 -1.8273 -0.2188
  879MOL0     H18644   1.613   9.922  11.006  2.4619 -1.5386  0.0463
  879MOL0     H18645   1.525  10.151  11.170  1.8185 -1.4347  1.4061
  879MOL0     H18646   1.438   9.997  11.150 -2.1864  2.3430  0.6688
  879MOL0     H18647   2.422  10.088  10.818 -2.1569 -1.9930  1.2508
  879MOL0     H18648   2.621  10.075  10.692 -5.0589 -1.7431 -0.0684
  879MOL0     H18649   3.073  10.009  10.603  1.1735  0.4880 -1.5283
  879MOL0     H18650   3.323   9.943  10.552 -2.2496 -1.6047 -0.1806
  879MOL0     H18651   4.946   9.790   9.550 -0.4160  0.5866 -1.8461
  879MOL0     H18652   5.193   9.769   9.549 -0.5847 -0.6902  3.9502
  879MOL0     H18653   5.569   9.631   9.556 -0.2123 -1.6427  0.3581
  879MOL0     H18654   5.809   9.640   9.559 -0.4423 -1.8889  1.5990
  879MOL0     H18655   6.043   9.712   9.440  1.2426 -0.3084  1.0090
  879MOL0     H18656   6.042   9.557   9.525  1.7079 -0.1872  0.8393
  879MOL0     H18657   6.197   9.605   9.265 -1.2946 -4.0104 -0.7613
  879MOL0     H18658   6.220   9.474   9.381  0.5797  0.3698  0.0167
  879MOL0     H18659   6.345   9.601   9.527 -0.7772  0.3799  0.9144
  879MOL0     H18660   6.274   9.757   9.479 -1.7528 -0.8351 -1.3763
  879MOL0     H18661   6.404   9.770   9.276  0.7296  0.3620  0.5144
  879MOL0     H18662   6.443   9.600   9.271 -1.0600 -0.9184  0.6596
  879MOL0     H18663   6.739   9.767   9.527  0.6185  0.3490 -1.0463
  879MOL0     H18664   5.796   9.459   9.163  0.1816 -0.4628 -0.2685
  879MOL0     H18665   5.568   9.451   9.176 -0.4825  2.8532 -0.3499
  880MOL0     O18666   4.185  11.116   2.981  0.2949 -0.3605  0.4977
  880MOL0     C18667   4.194  10.995   2.986  0.3237  0.1755  0.0990
  880MOL0     O18668   4.179  10.894   2.890 -0.1159 -0.0666  0.6635
  880MOL0     C18669   4.127  10.931   2.774 -0.0714 -1.3962  1.0451
  880MOL0     C18670   4.001  10.994   2.772 -0.3430 -0.3733  0.0456
  880MOL0     C18671   3.952  11.068   2.661  0.4891 -0.2768 -0.6717
  880MOL0     C18672   4.026  11.090   2.550 -0.9523 -0.2640 -0.0109
  880MOL0     O18673   3.977  11.159   2.440 -0.2922 -0.2003  0.0170
  880MOL0     C18674   4.073  11.194   2.340 -0.5583  0.5373 -0.0142
  880MOL0     C18675   4.068  11.099   2.220  0.2044  1.1411  0.1607
  880MOL0     C18676   3.938  11.082   2.135  0.4538 -0.6537  0.0630
  880MOL0     C18677   3.844  11.214   2.124 -0.0350  0.2917  1.3693
  880MOL0     C18678   3.739  11.198   2.012  0.2966 -0.1500 -0.9061
  880MOL0     C18679   3.794  11.173   1.868 -0.6576 -0.5142  0.3290
  880MOL0     C18680   3.862  11.300   1.803  0.0199 -1.1082 -0.2091
  880MOL0     C18681   3.918  11.270   1.665  0.2912 -0.0062  0.0683
  880MOL0     N18682   4.034  11.184   1.666 -0.8795  0.1762 -0.1153
  880MOL0     C18683   4.132  11.168   1.765 -0.3165  0.0495  1.0639
  880MOL0     C18684   4.215  11.068   1.718  1.2364 -0.4830 -0.2450
  880MOL0     C18685   4.318  11.003   1.803 -0.9119  0.4205 -0.8204
  880MOL0     C18686   4.461  11.041   1.775 -0.1146 -0.2515 -0.2248
  880MOL0     C18687   4.496  11.191   1.783  0.1540 -0.7666  0.4442
  880MOL0     C18688   4.645  11.210   1.775  0.1454 -0.2679 -0.3668
  880MOL0     O18689   4.694  11.343   1.815 -0.2363  0.2331 -0.1884
  880MOL0     C18690   4.819  11.384   1.780 -0.9130  0.4285 -0.2756
  880MOL0     C18691   4.844  11.514   1.782 -0.0443 -0.2307 -1.2818
  880MOL0     C18692   4.981  11.560   1.776  0.3363  0.3380  0.9368
  880MOL0     C18693   5.005  11.704   1.818  0.6875  0.0491 -0.6911
  880MOL0     C18694   5.075  11.473   1.732 -0.6378  0.7371  0.9265
  880MOL0     C18695   5.211  11.508   1.705  0.2996 -0.0749  0.0987
  880MOL0     O18696   5.215  11.622   1.625  0.0701  0.2117 -0.6399
  880MOL0     C18697   5.333  11.695   1.617 -0.0220 -0.4437  0.1614
  880MOL0     C18698   5.328  11.831   1.664 -0.0896 -0.3741  0.2654
  880MOL0     C18699   5.439  11.918   1.655 -0.4457  0.0580  0.7582
  880MOL0     C18700   5.553  11.873   1.595  0.5173 -0.1170  0.3332
  880MOL0     O18701   5.670  11.955   1.593  0.5454 -0.3841  0.4561
  880MOL0     C18702   5.748  11.946   1.467 -0.0617 -0.2897  0.4915
  880MOL0     C18703   5.888  11.905   1.509  0.3340  0.3239 -0.4022
  880MOL0     C18704   5.968  12.021   1.551 -0.2513 -0.7416 -0.0396
  880MOL0     C18705   6.116  11.972   1.569  0.0945 -0.4284  0.6052
  880MOL0     C18706   6.206  12.093   1.549 -0.5951  0.3796 -0.1623
  880MOL0     C18707   6.351  12.060   1.551 -0.3486  0.0542  0.0294
  880MOL0     C18708   6.436  12.177   1.543  0.5438 -0.5560  0.8489
  880MOL0     C18709   6.590  12.150   1.555  0.5080  0.2080  0.1711
  880MOL0    Cl18710   6.623  12.093   1.714  0.0586  0.6116  0.0988
  880MOL0     C18711   5.563  11.739   1.553  0.1138 -0.4285 -0.2509
  880MOL0     C18712   5.451  11.653   1.554  0.1380  0.0335 -0.8016
  880MOL0     O18713   5.308  11.449   1.763 -0.0992 -0.6806 -0.1414
  880MOL0     C18714   5.041  11.341   1.714  0.3675 -0.1642  0.6629
  880MOL0     C18715   4.914  11.297   1.746  0.9003  0.5603  0.5067
  880MOL0     N18716   4.174  11.031   1.589  0.5138 -0.1446 -0.4801
  880MOL0     N18717   4.063  11.102   1.560 -0.0825 -0.0074  0.0064
  880MOL0     C18718   4.144  11.018   2.545 -0.0030  0.1945  0.7147
  880MOL0     C18719   4.197  10.941   2.652 -0.5251  0.2639 -0.1949
  880MOL0     C18720   4.243  10.947   3.122  0.0256 -0.7556 -0.0981
  880MOL0     C18721   4.304  11.035   3.209 -0.3177  0.3836  0.0980
  880MOL0     C18722   4.334  10.991   3.338 -0.7248 -1.0466 -0.4561
  880MOL0     C18723   4.326  10.859   3.370 -0.5807  1.1276 -0.0288
  880MOL0     O18724   4.367  10.829   3.492  0.8122  0.4857  0.2565
  880MOL0     C18725   4.352  10.695   3.544  0.2978  0.0989 -0.5203
  880MOL0     C18726   4.491  10.633   3.505  0.7337  0.2141 -0.0948
  880MOL0     C18727   4.611  10.668   3.599 -0.1797  0.6844  0.4509
  880MOL0     C18728   4.749  10.631   3.550  0.0419 -0.6180  0.2008
  880MOL0     C18729   4.857  10.694   3.630 -0.1226 -0.6466 -0.8209
  880MOL0     C18730   4.954  10.740   3.687  0.4277 -0.1161 -1.0616
  880MOL0     C18731   4.271  10.769   3.272 -0.0377 -0.1878 -1.0136
  880MOL0     C18732   4.236  10.810   3.149  0.3022  0.3665  0.1507
  880MOL0     H18733   3.937  10.985   2.859 -1.6772  0.4371 -0.8070
  880MOL0     H18734   3.855  11.118   2.662  0.8007  0.5165 -3.4334
  880MOL0     H18735   4.050  11.294   2.302 -1.9261  0.6358  1.0269
  880MOL0     H18736   4.176  11.197   2.377 -0.2845 -0.1885 -0.6840
  880MOL0     H18737   4.153  11.124   2.156  0.2534 -0.4007 -0.4378
  880MOL0     H18738   4.103  11.000   2.251 -0.4123 -0.0161 -2.5720
  880MOL0     H18739   3.978  11.052   2.038  2.8704  1.2696  0.3546
  880MOL0     H18740   3.881  10.998   2.175  0.4455 -0.2068  1.0088
  880MOL0     H18741   3.790  11.234   2.218  0.3216  1.1650  1.3928
  880MOL0     H18742   3.910  11.298   2.101 -1.5301  0.9373 -0.8871
  880MOL0     H18743   3.666  11.124   2.046 -1.5051  2.2528  0.8710
  880MOL0     H18744   3.683  11.292   2.011  2.4547  1.3576  2.3570
  880MOL0     H18745   3.863  11.089   1.865  1.7323  1.3574 -0.5162
  880MOL0     H18746   3.708  11.144   1.807  0.4160  0.9315 -2.0483
  880MOL0     H18747   3.787  11.379   1.804  0.4437 -0.6540  1.9853
  880MOL0     H18748   3.935  11.342   1.874 -1.7962 -0.7262  1.5076
  880MOL0     H18749   3.940  11.362   1.610 -1.0469 -0.8876 -2.0439
  880MOL0     H18750   3.846  11.208   1.611  1.3806 -2.1578  0.9689
  880MOL0     H18751   4.134  11.222   1.859  2.1355  0.5477  0.8001
  880MOL0     H18752   4.303  11.022   1.910  3.4454  1.0928 -0.1245
  880MOL0     H18753   4.309  10.894   1.791 -2.3587  0.5735 -1.3453
  880MOL0     H18754   4.493  11.004   1.677  1.6632  1.5711 -0.4133
  880MOL0     H18755   4.528  10.991   1.846  0.0498 -0.1766 -0.3247
  880MOL0     H18756   4.462  11.240   1.875  1.4078  1.2951 -0.1204
  880MOL0     H18757   4.448  11.235   1.695 -0.0298  2.2720  1.9366
  880MOL0     H18758   4.675  11.179   1.675  0.3345  2.0363 -1.0910
  880MOL0     H18759   4.691  11.147   1.852  0.9935  0.2427 -0.4390
  880MOL0     H18760   4.773  11.588   1.816  2.4805  1.9460 -0.4244
  880MOL0     H18761   5.108  11.718   1.851  0.6535  0.7983 -0.8888
  880MOL0     H18762   4.996  11.778   1.737  2.1248  1.5305  0.4423
  880MOL0     H18763   4.933  11.734   1.894  1.2780  1.0295 -0.4945
  880MOL0     H18764   5.239  11.878   1.703  0.7308  1.1819  0.3456
  880MOL0     H18765   5.434  12.022   1.686  0.4126  0.0263  1.0372
  880MOL0     H18766   5.699  11.877   1.398 -0.8862  0.2428  0.5298
  880MOL0     H18767   5.768  12.036   1.407  0.2187 -2.3883 -2.8283
  880MOL0     H18768   5.886  11.832   1.590 -0.1081 -0.8305 -1.4218
  880MOL0     H18769   5.939  11.865   1.421  0.4327  3.2111 -1.7835
  880MOL0     H18770   5.924  12.056   1.645  1.8181  5.0826 -0.8468
  880MOL0     H18771   5.971  12.109   1.486  1.5298  1.0827  2.3086
  880MOL0     H18772   6.130  11.928   1.669 -2.1198 -1.2600  0.6208
  880MOL0     H18773   6.139  11.899   1.491 -2.0352 -0.1496 -0.3547
  880MOL0     H18774   6.194  12.160   1.635  2.9557 -0.2745  1.0244
  880MOL0     H18775   6.191  12.144   1.454  3.0169 -0.0384 -1.0972
  880MOL0     H18776   6.376  12.007   1.644 -0.4976 -2.5328 -1.3134
  880MOL0     H18777   6.387  11.990   1.475  1.9730 -0.2960  1.3346
  880MOL0     H18778   6.407  12.243   1.625  0.1617 -1.4641  1.4606
  880MOL0     H18779   6.407  12.223   1.448 -0.4907 -1.2539  0.8083
  880MOL0     H18780   6.656  12.234   1.530 -0.5573  0.4790 -2.0702
  880MOL0     H18781   6.616  12.070   1.485 -1.7156 -1.1492  0.8004
  880MOL0     H18782   5.650  11.700   1.500 -0.6955 -2.0867 -0.4178
  880MOL0     H18783   5.452  11.551   1.516 -2.5673  0.8097 -3.3344
  880MOL0     H18784   5.119  11.280   1.669  0.2788  1.6174 -2.0911
  880MOL0     H18785   4.888  11.191   1.741 -1.0882  1.0251  0.0799
  880MOL0     H18786   4.208  11.022   2.457  1.2002 -3.2429  1.2868
  880MOL0     H18787   4.297  10.902   2.636 -0.4424  0.7982 -1.0593
  880MOL0     H18788   4.324  11.138   3.181  6.0080 -0.3651  0.2658
  880MOL0     H18789   4.384  11.047   3.417 -0.7126 -2.0241  0.2577
  880MOL0     H18790   4.338  10.695   3.653 -0.4982 -0.8865 -0.6099
  880MOL0     H18791   4.268  10.644   3.496  0.5211 -2.5771  1.6451
  880MOL0     H18792   4.515  10.671   3.405 -1.9004 -0.4381 -1.0620
  880MOL0     H18793   4.481  10.525   3.492  2.2510  0.3262 -3.1357
  880MOL0     H18794   4.597  10.614   3.694  1.8337 -2.3778 -0.8281
  880MOL0     H18795   4.608  10.776   3.614  0.3083  0.9601 -1.2367
  880MOL0     H18796   4.776  10.665   3.449  0.2991 -3.4780 -0.7830
  880MOL0     H18797   4.763  10.522   3.549  1.4397 -0.4594 -0.7629
  880MOL0     H18798   5.041  10.740   3.750 -1.6565 -1.1112  2.0667
  880MOL0     H18799   4.273  10.661   3.280  0.9365 -0.5989 -4.9168
  880MOL0     H18800   4.209  10.722   3.090  1.3611 -2.0134  2.9756
  881MOL0     O18801   5.429   6.989   0.656 -0.4410  0.4470 -0.4927
  881MOL0     C18802   5.433   7.098   0.713  0.0607 -0.1781 -0.6755
  881MOL0     O18803   5.349   7.190   0.697 -0.0190 -0.0081 -0.8120
  881MOL0     C18804   5.221   7.161   0.652 -0.0728  0.3070  0.1144
  881MOL0     C18805   5.148   7.043   0.679  0.0265  0.0683  0.3030
  881MOL0     C18806   5.021   7.034   0.634  0.4512 -0.0962 -0.7877
  881MOL0     C18807   4.962   7.130   0.556 -0.5640 -0.5859  0.4988
  881MOL0     O18808   4.837   7.101   0.501  0.2202  0.3510  0.0366
  881MOL0     C18809   4.754   7.200   0.434 -0.4684  0.0128  0.3184
  881MOL0     C18810   4.627   7.117   0.395 -0.3797  0.6051 -0.0703
  881MOL0     C18811   4.519   7.198   0.329  0.2534  0.0188  0.0031
  881MOL0     C18812   4.408   7.107   0.269 -0.0461  0.8935 -0.3686
  881MOL0     C18813   4.323   7.017   0.387  0.4166 -0.5835 -0.3721
  881MOL0     C18814   4.236   6.911   0.320  0.1845  1.1508  0.4629
  881MOL0     C18815   4.111   6.956   0.247  0.7277 -0.3059  0.1058
  881MOL0     C18816   4.027   6.842   0.191  0.0234 -1.1517 -0.1945
  881MOL0     N18817   3.894   6.889   0.141 -0.5011 -0.0483 -0.1342
  881MOL0     C18818   3.845   6.856   0.020 -0.3038  0.2087  0.1309
  881MOL0     C18819   3.713   6.898   0.022 -0.6130 -0.3755  0.2142
  881MOL0     C18820   3.619   6.884  -0.085 -0.0301  0.2501  0.6312
  881MOL0     C18821   3.529   7.003  -0.118  0.2941 -0.0637 -0.3887
  881MOL0     C18822   3.397   7.005  -0.042 -1.1950  0.1287  0.5080
  881MOL0     C18823   3.297   7.101  -0.108  0.3958  0.0040 -0.2573
  881MOL0     O18824   3.242   7.052  -0.235 -0.4740  0.2982  0.3926
  881MOL0     C18825   3.129   7.122  -0.280  0.0477  0.5165 -0.3079
  881MOL0     C18826   3.073   7.072  -0.394 -0.7359  0.3014 -0.8722
  881MOL0     C18827   2.959   7.132  -0.457 -0.3220 -0.2449  0.0018
  881MOL0     C18828   2.908   7.055  -0.577 -0.4700 -0.5160 -0.1386
  881MOL0     C18829   2.915   7.255  -0.409 -0.9663  0.0642  1.0818
  881MOL0     C18830   2.806   7.336  -0.460  0.1367  0.5913  0.0671
  881MOL0     O18831   2.762   7.444  -0.389  0.1691  0.1786 -0.5206
  881MOL0     C18832   2.669   7.536  -0.441  0.4342 -0.7403  0.0978
  881MOL0     C18833   2.583   7.535  -0.556 -0.8826 -0.1367 -0.4359
  881MOL0     C18834   2.502   7.641  -0.590 -0.1849  0.0409 -0.1571
  881MOL0     C18835   2.492   7.754  -0.514 -0.9823  0.1706  0.0930
  881MOL0     O18836   2.434   7.874  -0.544  0.2293 -0.8331 -0.7818
  881MOL0     C18837   2.293   7.867  -0.585  0.7208  0.5514 -0.0585
  881MOL0     C18838   2.210   7.973  -0.512 -0.2352 -0.1605  0.0173
  881MOL0     C18839   2.257   8.114  -0.546 -0.1639 -0.5201  0.5894
  881MOL0     C18840   2.166   8.223  -0.499  0.7198  0.7533 -0.6490
  881MOL0     C18841   2.195   8.370  -0.541 -0.2736 -1.5406 -0.3601
  881MOL0     C18842   2.200   8.394  -0.696 -0.4123  1.1142  0.5657
  881MOL0     C18843   2.187   8.545  -0.741  0.0826 -0.2539  0.0095
  881MOL0     C18844   2.221   8.572  -0.887 -0.3636  1.5844  1.0083
  881MOL0    Cl18845   2.188   8.742  -0.919 -0.1523 -0.3513 -0.0143
  881MOL0     C18846   2.561   7.756  -0.398 -0.6282 -0.0122  0.2138
  881MOL0     C18847   2.649   7.652  -0.359 -1.0460 -0.2741  0.2409
  881MOL0     O18848   2.750   7.286  -0.555 -0.1408 -0.4901  0.0033
  881MOL0     C18849   2.979   7.309  -0.294 -0.0675  0.8174  0.4100
  881MOL0     C18850   3.082   7.240  -0.231  0.2509  0.0798 -0.0747
  881MOL0     N18851   3.694   6.955   0.146  0.1626 -0.3311 -0.4344
  881MOL0     N18852   3.809   6.963   0.211  0.4361 -0.6232 -0.4394
  881MOL0     C18853   5.034   7.239   0.519 -0.2314 -0.2555  0.0850
  881MOL0     C18854   5.166   7.259   0.574  0.4689 -0.9860  0.7107
  881MOL0     C18855   5.554   7.125   0.800  0.1278  0.3416 -0.3768
  881MOL0     C18856   5.663   7.046   0.785  0.7268 -0.0361 -0.6570
  881MOL0     C18857   5.776   7.071   0.866  0.1286 -0.0845  0.1014
  881MOL0     C18858   5.785   7.173   0.959  0.5205  0.1188 -0.6723
  881MOL0     O18859   5.903   7.190   1.024  0.4188 -0.2597 -0.0799
  881MOL0     C18860   5.920   7.303   1.114 -0.5314 -0.7377 -0.2395
  881MOL0     C18861   6.058   7.289   1.177 -0.8680 -0.7911  0.6729
  881MOL0     C18862   6.068   7.394   1.290  0.8560  0.5204  0.2506
  881MOL0     C18863   6.189   7.384   1.379 -0.2511  0.4939 -1.0560
  881MOL0     C18864   6.300   7.464   1.324 -0.4794 -0.0991 -0.7900
  881MOL0     C18865   6.382   7.542   1.286  0.1344  0.0578  0.4299
  881MOL0     C18866   5.674   7.255   0.970 -0.4432  0.5431  0.3270
  881MOL0     C18867   5.564   7.236   0.888  0.5867 -0.3732  0.6414
  881MOL0     H18868   5.192   6.971   0.748 -0.1158 -0.4221 -0.1140
  881MOL0     H18869   4.955   6.950   0.652  1.7358 -0.9454  0.0882
  881MOL0     H18870   4.728   7.287   0.495 -0.1402  1.0080 -0.9098
  881MOL0     H18871   4.807   7.231   0.343  1.3256 -1.5811  0.7513
  881MOL0     H18872   4.652   7.027   0.337  2.7961 -0.1891  2.2685
  881MOL0     H18873   4.576   7.071   0.480 -2.0496 -0.1486 -1.4008
  881MOL0     H18874   4.483   7.281   0.390  0.7647 -0.7826  1.4450
  881MOL0     H18875   4.560   7.245   0.240 -1.0906  1.9201  0.3230
  881MOL0     H18876   4.333   7.170   0.222 -0.9650  1.5624  1.8571
  881MOL0     H18877   4.455   7.040   0.197 -0.2177 -0.8041  1.0381
  881MOL0     H18878   4.397   6.963   0.447 -1.5833  0.6801  3.5185
  881MOL0     H18879   4.261   7.077   0.453  0.7390 -1.4682  0.7611
  881MOL0     H18880   4.297   6.853   0.250 -0.3592 -0.2898  1.1535
  881MOL0     H18881   4.210   6.834   0.393  2.8000 -1.6154 -1.2658
  881MOL0     H18882   4.053   7.013   0.321 -1.1918 -1.0651 -0.7277
  881MOL0     H18883   4.135   7.027   0.168  1.4132 -0.7053 -0.0486
  881MOL0     H18884   4.013   6.769   0.271  0.1030  1.0668  1.9639
  881MOL0     H18885   4.078   6.798   0.104  1.6186  0.1238  0.0620
  881MOL0     H18886   3.897   6.812  -0.064  0.3528  0.1159  0.5782
  881MOL0     H18887   3.679   6.853  -0.171 -0.3086 -0.8593  0.8204
  881MOL0     H18888   3.556   6.795  -0.072  0.1942 -0.3847 -2.0289
  881MOL0     H18889   3.509   6.996  -0.225 -1.9756  1.6004 -0.1608
  881MOL0     H18890   3.581   7.098  -0.101  0.7954 -0.3457 -0.3297
  881MOL0     H18891   3.406   7.033   0.063 -1.9180  0.3164  0.5256
  881MOL0     H18892   3.355   6.904  -0.046 -1.4740  0.2703 -0.4444
  881MOL0     H18893   3.351   7.195  -0.124  0.6173  0.5812  3.1298
  881MOL0     H18894   3.206   7.115  -0.050 -2.1110  0.0033 -3.9088
  881MOL0     H18895   3.119   6.981  -0.431 -0.7281  0.3592 -1.0050
  881MOL0     H18896   2.899   7.123  -0.662  2.6382  1.0871  0.7015
  881MOL0     H18897   2.973   6.970  -0.599  2.0927  1.4247 -0.5383
  881MOL0     H18898   2.813   7.010  -0.546 -1.3627  1.0300 -0.5439
  881MOL0     H18899   2.576   7.442  -0.611  0.9612  0.6778 -2.1742
  881MOL0     H18900   2.438   7.647  -0.677  0.2434  0.8115 -0.4373
  881MOL0     H18901   2.281   7.873  -0.693  2.2586 -2.0902 -0.4837
  881MOL0     H18902   2.254   7.771  -0.550 -0.2128  0.0020 -2.4429
  881MOL0     H18903   2.104   7.965  -0.535 -0.1916  1.4824 -0.9422
  881MOL0     H18904   2.221   7.960  -0.404 -2.4181 -1.0179  0.1660
  881MOL0     H18905   2.269   8.129  -0.654 -4.1077  1.6620  0.2886
  881MOL0     H18906   2.352   8.139  -0.498  1.6615 -1.2980 -2.3441
  881MOL0     H18907   2.060   8.201  -0.516 -0.0861  1.6974  2.3811
  881MOL0     H18908   2.182   8.224  -0.390  2.2770  0.2922 -0.8533
  881MOL0     H18909   2.291   8.412  -0.511 -1.6756  1.3471  0.4684
  881MOL0     H18910   2.115   8.427  -0.492  0.1332 -0.1800 -1.2243
  881MOL0     H18911   2.299   8.376  -0.739 -0.3763  0.9035  0.7318
  881MOL0     H18912   2.127   8.328  -0.743  0.7425  0.3878 -0.2624
  881MOL0     H18913   2.239   8.605  -0.666 -1.1379 -0.5114  1.0927
  881MOL0     H18914   2.080   8.569  -0.739  0.1607  0.1220 -0.2633
  881MOL0     H18915   2.163   8.511  -0.957 -0.1637  2.3801  0.1247
  881MOL0     H18916   2.322   8.533  -0.903 -0.0099  2.3983  1.2136
  881MOL0     H18917   2.566   7.855  -0.354 -1.2594  0.2075 -0.1956
  881MOL0     H18918   2.710   7.668  -0.271  0.3095 -3.2641 -0.0412
  881MOL0     H18919   2.948   7.403  -0.250 -0.2870 -0.2369  2.5956
  881MOL0     H18920   3.128   7.284  -0.143 -0.1800 -0.6007  0.4993
  881MOL0     H18921   4.985   7.313   0.456  0.4409 -1.3664 -1.8169
  881MOL0     H18922   5.220   7.348   0.546 -1.8717 -0.1469 -1.5985
  881MOL0     H18923   5.659   6.964   0.715  0.1329  0.4780 -1.2358
  881MOL0     H18924   5.863   7.007   0.854 -0.4886 -0.7170 -1.3371
  881MOL0     H18925   5.897   7.397   1.063 -0.9005 -1.5774 -1.6945
  881MOL0     H18926   5.840   7.292   1.189 -0.4696  1.1939  0.1540
  881MOL0     H18927   6.140   7.295   1.104 -1.8633  0.0358 -0.4169
  881MOL0     H18928   6.063   7.184   1.209 -0.2115 -1.3039 -0.9698
  881MOL0     H18929   5.979   7.379   1.352  2.4194 -2.1623  2.0933
  881MOL0     H18930   6.065   7.496   1.250  0.2004 -0.9207 -3.9618
  881MOL0     H18931   6.211   7.277   1.388 -1.6514  0.2313 -0.4891
  881MOL0     H18932   6.173   7.424   1.480 -3.2176  2.2237 -2.0892
  881MOL0     H18933   6.450   7.604   1.232  3.2499 -4.5798 -1.6375
  881MOL0     H18934   5.675   7.345   1.030  0.6497  1.0123 -0.3585
  881MOL0     H18935   5.474   7.295   0.899  0.9677  0.9258 -2.3544
  882MOL0     O18936   1.523   6.773   3.945 -0.2565  0.1540 -0.0472
  882MOL0     C18937   1.581   6.678   3.898  0.0640 -0.8912  0.0245
  882MOL0     O18938   1.516   6.564   3.857  0.5483 -1.1258  0.1507
  882MOL0     C18939   1.388   6.534   3.891  0.4616  0.4959  1.0585
  882MOL0     C18940   1.320   6.544   4.014 -0.4716  0.6347 -0.1237
  882MOL0     C18941   1.198   6.490   4.040  0.2339  0.2956  0.1504
  882MOL0     C18942   1.121   6.445   3.927  0.3235  0.6040 -0.2356
  882MOL0     O18943   0.996   6.387   3.921  0.1028  1.0390 -0.4343
  882MOL0     C18944   0.908   6.427   4.019 -0.2976  0.4107  0.0023
  882MOL0     C18945   0.762   6.389   4.011  0.3497  0.0005  1.0571
  882MOL0     C18946   0.687   6.439   4.127 -0.4662  0.5874 -0.2654
  882MOL0     C18947   0.535   6.432   4.103  0.6163  0.6083 -0.6111
  882MOL0     C18948   0.455   6.467   4.231  0.1824  0.7069 -0.9108
  882MOL0     C18949   0.303   6.465   4.218 -0.3081 -0.6975 -0.3302
  882MOL0     C18950   0.233   6.594   4.278 -0.1321  0.7620 -0.7012
  882MOL0     C18951   0.242   6.710   4.183 -0.1856 -0.2021 -0.6503
  882MOL0     N18952   0.133   6.804   4.208 -0.4450  0.2171 -1.5906
  882MOL0     C18953   0.004   6.779   4.230  0.0925 -0.3775 -0.7887
  882MOL0     C18954  -0.051   6.904   4.250  0.0767  0.0036  0.9312
  882MOL0     C18955  -0.200   6.904   4.260  0.2096 -0.5039 -0.0573
  882MOL0     C18956  -0.255   7.014   4.346 -0.0835 -0.3766  0.1604
  882MOL0     C18957  -0.410   7.015   4.360 -1.0143  0.0077 -0.4983
  882MOL0     C18958  -0.460   7.088   4.484  0.9291 -0.4498  0.3539
  882MOL0     O18959  -0.514   7.214   4.441  0.1106  0.0097  0.3903
  882MOL0     C18960  -0.642   7.254   4.474 -1.0465  0.0090  0.3083
  882MOL0     C18961  -0.714   7.234   4.587 -0.0689  0.1144  0.7273
  882MOL0     C18962  -0.836   7.293   4.622 -0.5665 -0.1048 -0.5889
  882MOL0     C18963  -0.894   7.259   4.755  0.5780 -0.6049 -0.1498
  882MOL0     C18964  -0.909   7.355   4.520 -0.3733  0.7660 -0.0774
  882MOL0     C18965  -1.053   7.397   4.539 -0.3939  0.4761 -0.3260
  882MOL0     O18966  -1.101   7.505   4.476  0.6551  0.4454  0.2171
  882MOL0     C18967  -1.237   7.521   4.466  0.0427 -0.4515 -0.9200
  882MOL0     C18968  -1.315   7.427   4.402  0.6570  0.3015 -0.2774
  882MOL0     C18969  -1.453   7.450   4.388  0.0855 -0.1838  0.2961
  882MOL0     C18970  -1.506   7.569   4.427 -0.1165 -0.2589 -0.0827
  882MOL0     O18971  -1.642   7.583   4.397  0.3986 -0.9274  0.1196
  882MOL0     C18972  -1.706   7.713   4.391 -0.6492  0.2338  1.6017
  882MOL0     C18973  -1.802   7.724   4.270 -1.0544  0.1925  0.6966
  882MOL0     C18974  -1.928   7.640   4.291  0.1006  0.3462 -0.1210
  882MOL0     C18975  -2.009   7.652   4.160 -0.7149 -0.4690 -0.8414
  882MOL0     C18976  -2.143   7.587   4.160 -0.4154  0.6099  0.3079
  882MOL0     C18977  -2.251   7.651   4.252 -0.3674 -0.5430  0.8814
  882MOL0     C18978  -2.362   7.554   4.277 -1.3382  0.3167  0.1065
  882MOL0     C18979  -2.446   7.616   4.396 -0.3833 -0.1907 -0.0619
  882MOL0    Cl18980  -2.597   7.519   4.398  0.2483 -0.0716  0.1823
  882MOL0     C18981  -1.426   7.674   4.482  0.2997  0.6445 -0.5121
  882MOL0     C18982  -1.296   7.646   4.504  0.2005 -0.4970  0.6326
  882MOL0     O18983  -1.117   7.324   4.614  0.3560  0.3799 -0.0186
  882MOL0     C18984  -0.832   7.387   4.404  0.4815 -0.1070  0.4889
  882MOL0     C18985  -0.704   7.345   4.389 -0.1671 -0.6960  0.1353
  882MOL0     N18986   0.044   6.998   4.248  0.0277  0.9735 -0.1476
  882MOL0     N18987   0.154   6.936   4.227 -0.1314  0.1508 -0.7258
  882MOL0     C18988   1.180   6.440   3.807  1.0364 -0.0354 -0.3412
  882MOL0     C18989   1.314   6.477   3.789  0.4787 -0.3817 -0.6628
  882MOL0     C18990   1.723   6.689   3.870 -0.4746  0.1471 -0.0737
  882MOL0     C18991   1.791   6.593   3.789 -0.4471  0.2432  0.4667
  882MOL0     C18992   1.924   6.600   3.767 -0.1519 -0.5210 -0.3979
  882MOL0     C18993   1.997   6.708   3.813 -0.0862  0.4112 -0.0452
  882MOL0     O18994   2.129   6.711   3.769 -0.0320  0.4294 -0.1842
  882MOL0     C18995   2.202   6.814   3.829  0.3977 -0.3803 -1.0495
  882MOL0     C18996   2.343   6.813   3.785  0.0292 -0.3108  0.0825
  882MOL0     C18997   2.443   6.728   3.861 -0.3234  0.1360  0.7944
  882MOL0     C18998   2.413   6.577   3.845 -0.3010  0.5775 -0.5373
  882MOL0     C18999   2.488   6.541   3.726  0.3178  0.6922  0.3925
  882MOL0     C19000   2.556   6.511   3.630  0.2333 -0.2282 -0.0370
  882MOL0     C19001   1.927   6.803   3.879 -0.3303 -0.4239 -0.9387
  882MOL0     C19002   1.798   6.794   3.921 -0.0689 -0.4667  0.3472
  882MOL0     H19003   1.382   6.587   4.092 -1.4343 -0.6225  1.3991
  882MOL0     H19004   1.144   6.487   4.134 -2.5659  3.8226 -1.0922
  882MOL0     H19005   0.939   6.380   4.113 -0.5976 -3.0131 -1.4584
  882MOL0     H19006   0.924   6.535   4.029  0.2787  0.3855 -0.5951
  882MOL0     H19007   0.727   6.446   3.924  0.3011 -2.3951 -0.5934
  882MOL0     H19008   0.745   6.284   3.984 -2.3550 -0.5196  4.1793
  882MOL0     H19009   0.724   6.384   4.214  3.1669  0.5977 -1.5949
  882MOL0     H19010   0.715   6.543   4.146 -0.0963  0.5172 -0.4015
  882MOL0     H19011   0.495   6.491   4.020  1.2014 -1.4355 -2.4660
  882MOL0     H19012   0.503   6.328   4.088 -0.3182  0.6587  0.8990
  882MOL0     H19013   0.479   6.412   4.322  2.5748  0.3258 -1.7057
  882MOL0     H19014   0.473   6.570   4.263 -2.3299  0.5885  1.1787
  882MOL0     H19015   0.267   6.444   4.116 -1.1881 -0.3542 -0.0992
  882MOL0     H19016   0.265   6.373   4.263  0.5556 -1.5977 -1.3748
  882MOL0     H19017   0.129   6.572   4.304  0.8346 -2.0210  1.3438
  882MOL0     H19018   0.280   6.615   4.375 -0.3085  0.5984 -0.5797
  882MOL0     H19019   0.211   6.674   4.084 -3.0196  1.5766 -0.5099
  882MOL0     H19020   0.338   6.762   4.186 -0.3741  0.1221  0.6238
  882MOL0     H19021  -0.044   6.682   4.240 -0.8341  0.0847 -0.6889
  882MOL0     H19022  -0.254   6.923   4.167 -3.1551  1.9322  2.1771
  882MOL0     H19023  -0.234   6.806   4.294 -2.3792  0.3852  0.1347
  882MOL0     H19024  -0.221   7.112   4.311  2.2014 -1.0790  0.2027
  882MOL0     H19025  -0.210   7.012   4.446 -0.7769  4.7163  0.8406
  882MOL0     H19026  -0.439   6.910   4.353 -0.0157 -0.2159 -1.7513
  882MOL0     H19027  -0.449   7.070   4.274 -0.0373  0.3286 -0.7597
  882MOL0     H19028  -0.384   7.095   4.562  3.1111 -3.6180 -1.2076
  882MOL0     H19029  -0.549   7.036   4.522 -0.2456 -0.5056 -2.2512
  882MOL0     H19030  -0.673   7.161   4.656 -1.0730 -1.0373  0.1561
  882MOL0     H19031  -0.965   7.336   4.785  1.8079  1.4423 -2.1418
  882MOL0     H19032  -0.960   7.172   4.753  0.2748 -0.3975  0.7008
  882MOL0     H19033  -0.818   7.229   4.828 -0.4751 -1.7580  0.5193
  882MOL0     H19034  -1.272   7.333   4.369 -1.7232 -0.2160 -2.1473
  882MOL0     H19035  -1.520   7.377   4.343 -0.9578  0.8081  0.2027
  882MOL0     H19036  -1.767   7.736   4.479 -1.9045  1.3754  0.4867
  882MOL0     H19037  -1.639   7.800   4.398 -3.8289  2.7902  3.1980
  882MOL0     H19038  -1.828   7.830   4.267  1.2550  0.8674  2.2260
  882MOL0     H19039  -1.744   7.690   4.183 -0.8980 -2.7451  1.8383
  882MOL0     H19040  -1.982   7.688   4.372  0.0693  1.3051 -0.7024
  882MOL0     H19041  -1.906   7.537   4.323  0.1468  0.9070  1.7482
  882MOL0     H19042  -2.016   7.758   4.133  0.0494 -0.4455 -0.9647
  882MOL0     H19043  -1.945   7.605   4.084 -1.4279 -2.0765 -0.4850
  882MOL0     H19044  -2.122   7.488   4.201  1.5225  0.7751 -0.1439
  882MOL0     H19045  -2.176   7.582   4.056  0.6773 -1.2684  0.0008
  882MOL0     H19046  -2.213   7.693   4.345 -1.6621 -1.6435  1.9480
  882MOL0     H19047  -2.296   7.733   4.196 -2.5388 -2.0355  0.3063
  882MOL0     H19048  -2.313   7.463   4.312  1.4112  0.9061 -1.8132
  882MOL0     H19049  -2.441   7.542   4.202 -1.1795  3.6534 -0.7769
  882MOL0     H19050  -2.469   7.719   4.370 -3.7949 -0.4634  1.3103
  882MOL0     H19051  -2.398   7.618   4.495 -3.1770 -0.4884  1.4067
  882MOL0     H19052  -1.461   7.775   4.504  0.0290  0.8955 -1.9739
  882MOL0     H19053  -1.236   7.726   4.547  1.3710 -2.2538  2.4303
  882MOL0     H19054  -0.865   7.452   4.324 -0.2141 -0.7207  0.2586
  882MOL0     H19055  -0.657   7.383   4.298  0.2431  2.1910  1.4375
  882MOL0     H19056   1.118   6.419   3.721  2.0067  1.6059 -1.4911
  882MOL0     H19057   1.353   6.478   3.688 -1.3537  2.6375 -1.4701
  882MOL0     H19058   1.738   6.510   3.741  1.1794  0.2203 -1.4173
  882MOL0     H19059   1.971   6.535   3.695  1.3273 -1.2586  1.1626
  882MOL0     H19060   2.165   6.912   3.796  1.4409 -0.1212 -1.5064
  882MOL0     H19061   2.188   6.806   3.937  0.5232 -0.5870 -1.0478
  882MOL0     H19062   2.370   6.918   3.800 -0.0747 -0.4969  1.8480
  882MOL0     H19063   2.339   6.780   3.681 -1.2593  1.0861 -0.3441
  882MOL0     H19064   2.435   6.760   3.965 -2.7470  0.9488  0.4227
  882MOL0     H19065   2.548   6.738   3.831 -0.6343  0.8237 -0.1059
  882MOL0     H19066   2.306   6.558   3.850 -0.0687 -0.5779  2.5174
  882MOL0     H19067   2.465   6.520   3.923  2.1443  0.6487 -1.9983
  882MOL0     H19068   2.610   6.479   3.543 -0.9802 -2.2552 -0.1021
  882MOL0     H19069   1.969   6.887   3.932 -0.9353  0.5910 -2.0203
  882MOL0     H19070   1.745   6.866   3.984 -0.0559  0.1838 -0.3753
  883MOL0     O19071   7.017   0.040   3.613 -0.4743 -0.1975  0.2847
  883MOL0     C19072   7.056   0.084   3.504  0.0620  0.0055  0.5922
  883MOL0     O19073   6.974   0.122   3.395 -0.0885  0.6278  0.2965
  883MOL0     C19074   6.846   0.088   3.396  1.1544 -0.4462  0.1575
  883MOL0     C19075   6.761   0.131   3.505  0.4882  0.2365  0.8638
  883MOL0     C19076   6.625   0.089   3.494  1.5071  0.1849  0.0631
  883MOL0     C19077   6.568   0.011   3.386 -0.1853 -0.1525  0.4583
  883MOL0     O19078   6.431  -0.032   3.394  0.1002 -0.1881 -0.2248
  883MOL0     C19079   6.391  -0.135   3.295  0.1192  0.7041  0.2995
  883MOL0     C19080   6.244  -0.158   3.308  0.1498  0.6877  0.4126
  883MOL0     C19081   6.184  -0.206   3.453 -0.9492  0.4324 -1.1481
  883MOL0     C19082   6.211  -0.349   3.471  0.0655 -0.4093 -0.9368
  883MOL0     C19083   6.125  -0.399   3.585 -0.2902 -0.4321 -0.9632
  883MOL0     C19084   5.997  -0.446   3.521  0.5416  0.3556  0.6187
  883MOL0     C19085   5.914  -0.538   3.614 -0.3705  0.0185 -0.4263
  883MOL0     C19086   5.914  -0.689   3.581 -0.5075 -0.2392  0.2310
  883MOL0     N19087   6.051  -0.744   3.587 -0.0863 -1.3049  0.4240
  883MOL0     C19088   6.141  -0.754   3.691  0.5900 -1.0383  0.6300
  883MOL0     C19089   6.263  -0.773   3.632 -0.6352 -0.0808  0.2722
  883MOL0     C19090   6.394  -0.796   3.702 -0.0486  0.1428  0.1977
  883MOL0     C19091   6.436  -0.683   3.792 -0.2940  0.3973 -0.4763
  883MOL0     C19092   6.559  -0.710   3.893  1.2149  0.6751  0.2044
  883MOL0     C19093   6.687  -0.722   3.808 -0.4502 -0.7779 -0.2982
  883MOL0     O19094   6.802  -0.684   3.892 -0.2696 -0.1789 -0.1557
  883MOL0     C19095   6.932  -0.662   3.843  0.3712 -0.5458  0.9995
  883MOL0     C19096   7.039  -0.646   3.938  0.7179  0.5265  0.3130
  883MOL0     C19097   7.170  -0.611   3.892 -0.7924  0.0927 -0.9585
  883MOL0     C19098   7.268  -0.581   3.999 -0.3405  0.6524 -1.6679
  883MOL0     C19099   7.205  -0.620   3.756 -0.3275 -0.4755  0.0197
  883MOL0     C19100   7.345  -0.605   3.701  0.0787  0.6718  0.6809
  883MOL0     O19101   7.360  -0.677   3.581 -0.3747  0.4249  0.1523
  883MOL0     C19102   7.488  -0.676   3.525  0.5199 -0.2928  0.3672
  883MOL0     C19103   7.575  -0.781   3.555  0.1020 -0.0722  0.1212
  883MOL0     C19104   7.705  -0.791   3.496 -0.6298 -0.0285 -0.2810
  883MOL0     C19105   7.757  -0.677   3.418  0.6447  0.2571  0.1267
  883MOL0     O19106   7.887  -0.659   3.373 -0.2707  0.1549  0.0052
  883MOL0     C19107   7.977  -0.756   3.427  0.4244 -0.3429 -0.0425
  883MOL0     C19108   8.120  -0.726   3.373  0.4694  0.0537 -0.3079
  883MOL0     C19109   8.223  -0.838   3.384 -0.0795  0.2694  0.4897
  883MOL0     C19110   8.359  -0.796   3.353 -0.6827 -0.0188 -0.3559
  883MOL0     C19111   8.455  -0.915   3.355 -1.4155  0.2128  0.6944
  883MOL0     C19112   8.600  -0.864   3.355 -0.0005  0.4454 -0.5345
  883MOL0     C19113   8.689  -0.985   3.345  0.0364  0.2312 -0.2627
  883MOL0     C19114   8.840  -0.961   3.360  0.3810 -0.7435 -0.0287
  883MOL0    Cl19115   8.879  -0.839   3.236 -0.0315  0.3108 -0.4467
  883MOL0     C19116   7.669  -0.567   3.401  0.3917  0.3311 -1.0450
  883MOL0     C19117   7.533  -0.571   3.446 -0.3246  0.5747  0.4359
  883MOL0     O19118   7.439  -0.561   3.766 -0.4311  0.0563  0.5937
  883MOL0     C19119   7.096  -0.647   3.666  0.0111 -0.6055  0.0093
  883MOL0     C19120   6.963  -0.663   3.702  0.7040 -0.1388  0.1067
  883MOL0     N19121   6.243  -0.794   3.499  0.0307 -0.3681 -0.0302
  883MOL0     N19122   6.117  -0.786   3.473  0.0053 -0.2310 -0.3127
  883MOL0     C19123   6.658  -0.025   3.278  0.0632  0.4065 -0.1719
  883MOL0     C19124   6.789   0.021   3.282  0.1803  0.3681  0.3152
  883MOL0     C19125   7.200   0.097   3.482  0.4037 -1.2790 -1.1158
  883MOL0     C19126   7.290   0.023   3.565  1.3502 -0.3317 -0.4607
  883MOL0     C19127   7.428   0.043   3.533 -0.4005 -0.4693 -0.2938
  883MOL0     C19128   7.472   0.137   3.441  1.0330 -0.6369  0.8445
  883MOL0     O19129   7.602   0.170   3.421  0.5152  0.1973 -0.2388
  883MOL0     C19130   7.675   0.184   3.537 -0.6820 -0.3956  0.6921
  883MOL0     C19131   7.784   0.082   3.517 -0.4051  0.3417  0.0840
  883MOL0     C19132   7.876   0.125   3.404  0.1601  0.7300  0.0839
  883MOL0     C19133   7.979   0.005   3.377 -0.2780 -0.5682 -0.8854
  883MOL0     C19134   8.083  -0.006   3.488  0.7914  0.3059  0.5840
  883MOL0     C19135   8.159  -0.004   3.578  0.1735  0.3016 -0.8851
  883MOL0     C19136   7.381   0.204   3.364  1.1222 -0.7871  1.5862
  883MOL0     C19137   7.244   0.188   3.387 -0.5842 -0.7274  0.0280
  883MOL0     H19138   6.796   0.187   3.591  0.4457  3.3102 -0.9914
  883MOL0     H19139   6.557   0.127   3.570  0.0675  1.0934 -1.6065
  883MOL0     H19140   6.417  -0.103   3.193 -0.1360 -0.8820 -0.2963
  883MOL0     H19141   6.444  -0.230   3.309 -2.4089 -1.1215 -1.7074
  883MOL0     H19142   6.195  -0.063   3.287 -1.8381 -0.3280  0.2516
  883MOL0     H19143   6.198  -0.228   3.238  1.2451 -2.1618  2.3625
  883MOL0     H19144   6.227  -0.156   3.540  0.9730 -1.3665 -0.9835
  883MOL0     H19145   6.075  -0.200   3.458 -0.9182  0.4325 -0.3749
  883MOL0     H19146   6.197  -0.407   3.379 -0.1648 -1.5872 -0.1867
  883MOL0     H19147   6.316  -0.358   3.500  0.1026  2.4585  0.0962
  883MOL0     H19148   6.168  -0.482   3.643 -2.8078  0.3845  2.4051
  883MOL0     H19149   6.127  -0.324   3.665  3.6779  0.4702 -1.6911
  883MOL0     H19150   5.933  -0.360   3.496 -0.0889  0.1364  1.4261
  883MOL0     H19151   6.014  -0.496   3.426  1.1123  1.1837  0.2742
  883MOL0     H19152   5.956  -0.537   3.715  1.4386 -3.6873 -0.9746
  883MOL0     H19153   5.810  -0.504   3.610  0.2742  1.9796 -1.7823
  883MOL0     H19154   5.875  -0.693   3.479 -0.6987  2.9812  0.0749
  883MOL0     H19155   5.835  -0.739   3.638 -0.7820 -0.9319 -0.7538
  883MOL0     H19156   6.130  -0.741   3.798 -1.5207 -1.6010  0.5188
  883MOL0     H19157   6.364  -0.877   3.770 -0.5358 -0.4878 -0.7360
  883MOL0     H19158   6.471  -0.826   3.630  1.4907  0.5332  1.6247
  883MOL0     H19159   6.347  -0.669   3.854  2.0296 -2.0151  3.8947
  883MOL0     H19160   6.459  -0.595   3.731 -2.1217  0.5576 -0.9858
  883MOL0     H19161   6.546  -0.798   3.956 -1.6384  0.5200 -0.4907
  883MOL0     H19162   6.553  -0.624   3.961 -0.4306 -0.0478  1.0135
  883MOL0     H19163   6.680  -0.657   3.720 -1.1348 -0.6629 -0.1699
  883MOL0     H19164   6.703  -0.825   3.775 -0.5897 -1.9654  3.0213
  883MOL0     H19165   7.012  -0.665   4.042  2.7055  0.4951  0.8683
  883MOL0     H19166   7.210  -0.565   4.090 -0.8604 -1.1435 -1.6439
  883MOL0     H19167   7.335  -0.662   4.029  0.1037  0.9576 -1.8197
  883MOL0     H19168   7.327  -0.492   3.974 -0.8366  1.2337 -0.8227
  883MOL0     H19169   7.543  -0.859   3.623  0.1004  0.2841  0.5297
  883MOL0     H19170   7.760  -0.882   3.515 -2.7059 -1.6047 -1.4026
  883MOL0     H19171   7.971  -0.754   3.536 -2.2594 -0.9038 -0.1164
  883MOL0     H19172   7.938  -0.850   3.388 -0.2750 -0.8999  1.9055
  883MOL0     H19173   8.121  -0.697   3.268  1.4565  1.8777  0.1589
  883MOL0     H19174   8.157  -0.639   3.428  0.7238 -0.4339  0.3015
  883MOL0     H19175   8.195  -0.907   3.304  0.0494  1.2966 -0.4738
  883MOL0     H19176   8.221  -0.891   3.479  2.1854 -0.5267  0.1765
  883MOL0     H19177   8.364  -0.737   3.261 -1.0698 -0.0909 -0.4230
  883MOL0     H19178   8.393  -0.730   3.433  2.7443 -2.0713  0.0951
  883MOL0     H19179   8.431  -0.968   3.262 -1.6375 -0.6021  1.2117
  883MOL0     H19180   8.430  -0.978   3.441 -2.9673  0.9773  0.8470
  883MOL0     H19181   8.615  -0.804   3.265  4.2307  0.4253 -0.0129
  883MOL0     H19182   8.623  -0.799   3.440 -1.7266  1.2759 -0.6468
  883MOL0     H19183   8.677  -1.025   3.244 -3.3671  0.7706 -0.1889
  883MOL0     H19184   8.665  -1.067   3.413  0.1707 -0.5667 -1.1486
  883MOL0     H19185   8.883  -1.055   3.326  3.2135  0.7714 -1.0045
  883MOL0     H19186   8.883  -0.923   3.453  0.5073 -0.0664 -0.3519
  883MOL0     H19187   7.712  -0.477   3.359  1.3643  1.5261  2.2197
  883MOL0     H19188   7.478  -0.481   3.423 -0.8862  0.4870  1.3848
  883MOL0     H19189   7.124  -0.658   3.562 -2.0743  0.0425 -0.6534
  883MOL0     H19190   6.885  -0.677   3.627 -0.5788 -1.7960  1.6847
  883MOL0     H19191   6.624  -0.081   3.191  0.1526  0.1622 -0.0506
  883MOL0     H19192   6.857   0.001   3.200 -1.0519 -0.8068 -0.4615
  883MOL0     H19193   7.245  -0.042   3.641 -3.2865 -0.2193 -2.7425
  883MOL0     H19194   7.495  -0.015   3.596 -1.3508  0.8446  2.0628
  883MOL0     H19195   7.723   0.282   3.542  0.2299 -0.6684 -1.5148
  883MOL0     H19196   7.617   0.166   3.628 -0.8622 -0.4551  0.5654
  883MOL0     H19197   7.741  -0.016   3.496 -2.5731  1.4631 -1.0946
  883MOL0     H19198   7.839   0.080   3.612 -1.5856  1.5890  0.8251
  883MOL0     H19199   7.927   0.217   3.435  3.0421  0.2347 -2.6578
  883MOL0     H19200   7.830   0.152   3.309  0.1729  1.3471  0.2443
  883MOL0     H19201   8.034   0.012   3.283  1.3775  2.8909  0.1812
  883MOL0     H19202   7.915  -0.083   3.370 -0.4757 -0.3383 -2.6216
  883MOL0     H19203   8.221  -0.000   3.666 -0.9033  0.3245 -0.1133
  883MOL0     H19204   7.424   0.267   3.287 -2.1579 -1.2827 -0.8852
  883MOL0     H19205   7.177   0.255   3.332 -0.5441  1.0619  2.0279
  884MOL0     O19206   3.014   6.132   7.855 -0.4119  0.0317  0.2440
  884MOL0     C19207   3.088   6.045   7.802  0.2982 -0.3409 -0.8115
  884MOL0     O19208   3.049   5.973   7.693  0.9875  0.2364 -0.1560
  884MOL0     C19209   2.920   5.938   7.666  0.1571 -0.0161 -0.8967
  884MOL0     C19210   2.810   5.921   7.754 -0.8397 -0.0143 -0.1389
  884MOL0     C19211   2.688   5.881   7.714  0.3114  0.2948  0.0777
  884MOL0     C19212   2.684   5.819   7.590  0.8644 -1.0211 -0.5014
  884MOL0     O19213   2.564   5.765   7.543  0.9591 -0.0547 -0.0813
  884MOL0     C19214   2.437   5.793   7.604  0.3155 -0.3331 -0.8310
  884MOL0     C19215   2.340   5.703   7.532 -0.0213  1.2907  0.1781
  884MOL0     C19216   2.201   5.713   7.603 -0.2859 -0.1809  1.1220
  884MOL0     C19217   2.090   5.610   7.542 -0.0623 -0.0172  0.4169
  884MOL0     C19218   1.965   5.609   7.629  0.1190 -0.1052 -0.1160
  884MOL0     C19219   1.896   5.472   7.619  0.2009  0.4077 -0.0812
  884MOL0     C19220   1.764   5.463   7.701 -1.0262 -0.4364 -0.2808
  884MOL0     C19221   1.654   5.530   7.629 -0.1407 -0.2866  1.0503
  884MOL0     N19222   1.521   5.509   7.692  0.0775 -0.3021 -0.5336
  884MOL0     C19223   1.404   5.532   7.626  0.2156  0.2393 -0.3292
  884MOL0     C19224   1.308   5.467   7.684  0.4962 -0.3478 -0.5521
  884MOL0     C19225   1.163   5.500   7.652  0.6953  0.0489 -0.3859
  884MOL0     C19226   1.108   5.436   7.530 -0.1375 -0.2872 -0.5542
  884MOL0     C19227   0.965   5.483   7.487  0.2166 -0.2362 -0.1928
  884MOL0     C19228   0.926   5.408   7.356 -0.0635 -0.6626 -0.2944
  884MOL0     O19229   0.788   5.420   7.337  0.0293  0.2512  0.1143
  884MOL0     C19230   0.736   5.545   7.316 -0.2605  0.1433 -0.3287
  884MOL0     C19231   0.802   5.655   7.267  0.3194  0.6754  0.6643
  884MOL0     C19232   0.726   5.770   7.225  0.1237 -0.2177 -0.2600
  884MOL0     C19233   0.805   5.880   7.157  0.5278 -0.2100  0.4594
  884MOL0     C19234   0.583   5.785   7.255 -0.1103  0.0402 -0.3227
  884MOL0     C19235   0.511   5.917   7.241  1.8247  0.7268 -0.4966
  884MOL0     O19236   0.381   5.905   7.307  0.3336  0.2024 -0.5354
  884MOL0     C19237   0.312   6.028   7.331  0.1641  0.9192 -0.5840
  884MOL0     C19238   0.342   6.101   7.446 -0.4712  0.3877  0.1601
  884MOL0     C19239   0.277   6.221   7.468  0.1378  0.8272 -0.0278
  884MOL0     C19240   0.185   6.272   7.385 -0.0207 -1.5700  0.2763
  884MOL0     O19241   0.122   6.388   7.427  0.3600  0.6896  0.3587
  884MOL0     C19242   0.053   6.457   7.317 -0.5039  0.6828 -0.2401
  884MOL0     C19243   0.005   6.594   7.378 -0.4855  0.8153  0.4622
  884MOL0     C19244  -0.099   6.662   7.286 -0.1754 -0.4629  0.1290
  884MOL0     C19245  -0.157   6.783   7.360  0.6351  0.1429 -0.1905
  884MOL0     C19246  -0.301   6.816   7.331  0.8409 -0.4224  0.5583
  884MOL0     C19247  -0.330   6.846   7.176  1.0920 -0.8277 -0.4287
  884MOL0     C19248  -0.478   6.900   7.157 -0.3004 -0.1265  0.4869
  884MOL0     C19249  -0.488   7.053   7.179 -0.1163  0.5200 -0.3647
  884MOL0    Cl19250  -0.660   7.092   7.184  0.0732  0.1054 -0.1648
  884MOL0     C19251   0.152   6.202   7.257 -0.7133 -0.9366 -0.8600
  884MOL0     C19252   0.221   6.084   7.238  0.1253  0.2499 -0.6426
  884MOL0     O19253   0.536   5.997   7.157 -0.2401  0.1565  0.7428
  884MOL0     C19254   0.522   5.676   7.314 -0.4811  0.7686 -0.2855
  884MOL0     C19255   0.600   5.566   7.347 -0.3803 -0.1128  0.0982
  884MOL0     N19256   1.368   5.392   7.785 -0.2117 -0.4487 -0.2635
  884MOL0     N19257   1.494   5.413   7.782 -0.1769  0.0741  0.7399
  884MOL0     C19258   2.794   5.813   7.507  0.1197 -0.3709  0.1852
  884MOL0     C19259   2.909   5.884   7.541  0.6063 -0.3225  0.1699
  884MOL0     C19260   3.230   6.049   7.842  0.5991  0.1715  0.2748
  884MOL0     C19261   3.321   5.971   7.760  0.0719  0.6463 -0.2355
  884MOL0     C19262   3.456   5.974   7.793 -0.2672 -0.7971 -0.3663
  884MOL0     C19263   3.502   6.047   7.899 -0.4559 -0.8103  0.0169
  884MOL0     O19264   3.634   6.032   7.926  0.0410 -0.3143 -0.0317
  884MOL0     C19265   3.702   6.111   8.025 -0.0050  0.0163  0.0346
  884MOL0     C19266   3.853   6.112   7.995  0.2986  0.2400 -0.2704
  884MOL0     C19267   3.888   6.212   7.874  0.0064  0.4527  0.3720
  884MOL0     C19268   4.038   6.207   7.850 -0.0149 -0.4549  0.3674
  884MOL0     C19269   4.111   6.274   7.956 -1.1174  0.2085 -1.0706
  884MOL0     C19270   4.168   6.337   8.043 -0.1670 -0.0960  0.2813
  884MOL0     C19271   3.416   6.112   7.980  0.5505 -0.5577  0.0814
  884MOL0     C19272   3.284   6.117   7.952  0.5469  0.3884  0.0753
  884MOL0     H19273   2.832   5.943   7.858 -1.7721 -2.1333  0.5636
  884MOL0     H19274   2.604   5.879   7.782 -1.0182  0.0895 -1.5193
  884MOL0     H19275   2.427   5.780   7.712  1.6476 -0.7561 -0.7446
  884MOL0     H19276   2.405   5.897   7.589 -3.6882 -1.0599  1.1578
  884MOL0     H19277   2.334   5.736   7.428 -2.2718  2.0547  0.5031
  884MOL0     H19278   2.379   5.601   7.537 -0.0071  1.0657 -2.8358
  884MOL0     H19279   2.211   5.698   7.711 -0.5013  3.4482  1.8069
  884MOL0     H19280   2.167   5.817   7.592  2.6184  0.6721 -0.7693
  884MOL0     H19281   2.066   5.633   7.438 -0.9290 -0.6339  0.4656
  884MOL0     H19282   2.131   5.509   7.537 -2.3654 -1.0423  1.0467
  884MOL0     H19283   1.981   5.622   7.737 -1.9515  0.9264  0.1271
  884MOL0     H19284   1.899   5.686   7.588 -1.0494 -1.2431 -0.4660
  884MOL0     H19285   1.879   5.440   7.515  1.4843  1.2504 -0.5671
  884MOL0     H19286   1.957   5.394   7.666 -1.9945 -0.2608  1.8728
  884MOL0     H19287   1.740   5.359   7.723  1.0838 -1.2538 -1.5012
  884MOL0     H19288   1.778   5.506   7.800  0.9493  0.2059 -0.7893
  884MOL0     H19289   1.646   5.485   7.530  2.7527  0.6233  0.3229
  884MOL0     H19290   1.668   5.638   7.619 -3.5708  0.1408 -0.8675
  884MOL0     H19291   1.396   5.602   7.544  1.6112  0.3740 -0.3770
  884MOL0     H19292   1.104   5.482   7.742  1.9451  2.5735  1.0265
  884MOL0     H19293   1.156   5.609   7.641 -0.6683  0.4395  3.1841
  884MOL0     H19294   1.098   5.327   7.534  0.9579 -0.5066 -2.3923
  884MOL0     H19295   1.180   5.442   7.448  2.0465 -0.1665  1.3052
  884MOL0     H19296   0.965   5.592   7.479 -0.5023 -0.3167 -1.6279
  884MOL0     H19297   0.886   5.460   7.559  2.9290 -0.3485  3.0231
  884MOL0     H19298   0.948   5.301   7.369 -1.1798 -0.8878 -0.1340
  884MOL0     H19299   0.977   5.454   7.271  1.2217  0.1902  0.8914
  884MOL0     H19300   0.907   5.657   7.238 -0.3999  0.7008 -2.1569
  884MOL0     H19301   0.910   5.851   7.152 -0.1978 -4.1367  3.3036
  884MOL0     H19302   0.774   5.896   7.054 -0.8200  1.0240  1.0162
  884MOL0     H19303   0.798   5.976   7.211 -0.1879 -0.2595  0.4650
  884MOL0     H19304   0.421   6.059   7.506  1.6005 -2.6083 -4.1143
  884MOL0     H19305   0.304   6.277   7.557  1.5617  0.8763 -0.4616
  884MOL0     H19306   0.112   6.493   7.232 -3.5765  2.0752 -1.9571
  884MOL0     H19307  -0.029   6.398   7.274  0.5192 -2.6379  2.0505
  884MOL0     H19308  -0.051   6.569   7.469 -2.9538 -1.1746 -1.4868
  884MOL0     H19309   0.090   6.660   7.396  1.2409 -1.1086 -0.1257
  884MOL0     H19310  -0.183   6.597   7.259  0.1426 -0.4414 -0.9791
  884MOL0     H19311  -0.060   6.698   7.190  0.3550 -1.2230  0.0475
  884MOL0     H19312  -0.138   6.768   7.467  0.5181  3.5134  0.4007
  884MOL0     H19313  -0.098   6.867   7.323  0.1887  1.8980  2.7098
  884MOL0     H19314  -0.318   6.904   7.394  2.6421 -1.0582  2.0224
  884MOL0     H19315  -0.360   6.727   7.356  2.7733 -2.8411 -2.7417
  884MOL0     H19316  -0.255   6.916   7.140  2.9833 -2.6653 -0.2390
  884MOL0     H19317  -0.305   6.754   7.121 -0.3621 -2.4560  1.4771
  884MOL0     H19318  -0.544   6.860   7.235 -0.9262  2.0962  1.1862
  884MOL0     H19319  -0.509   6.857   7.061  1.0864 -1.2953  0.5388
  884MOL0     H19320  -0.443   7.107   7.095  0.2285  0.4157 -0.2503
  884MOL0     H19321  -0.434   7.079   7.270  2.1138  1.2959 -1.8172
  884MOL0     H19322   0.086   6.241   7.180  0.2870  0.8003 -0.8840
  884MOL0     H19323   0.199   6.016   7.157  1.1241  0.8186 -1.4142
  884MOL0     H19324   0.419   5.672   7.348 -0.3599  0.3135  0.0286
  884MOL0     H19325   0.551   5.482   7.396  0.5237 -0.2727  0.7455
  884MOL0     H19326   2.788   5.771   7.407 -2.7021 -0.1991  0.1917
  884MOL0     H19327   2.992   5.892   7.472 -0.8529  1.9672 -1.4840
  884MOL0     H19328   3.297   5.924   7.665  1.0500  3.3256 -1.9368
  884MOL0     H19329   3.521   5.906   7.740 -0.1114  0.3228 -1.6571
  884MOL0     H19330   3.660   6.212   8.015 -0.9066 -0.3246  0.2713
  884MOL0     H19331   3.688   6.077   8.128 -2.4330  0.9025  0.0588
  884MOL0     H19332   3.882   6.009   7.974  1.2120  0.7887 -1.9159
  884MOL0     H19333   3.896   6.139   8.092 -0.2029  0.2607 -0.0511
  884MOL0     H19334   3.861   6.317   7.889  1.3521  0.7708  0.7081
  884MOL0     H19335   3.840   6.160   7.790 -0.8065 -1.4609  1.9395
  884MOL0     H19336   4.058   6.259   7.755  0.4356 -0.9795  0.1692
  884MOL0     H19337   4.079   6.106   7.838 -0.9566 -0.9724  1.3093
  884MOL0     H19338   4.204   6.396   8.124 -0.9047  0.6265  0.0953
  884MOL0     H19339   3.441   6.168   8.069 -0.0823 -2.7986  1.7485
  884MOL0     H19340   3.217   6.172   8.017 -0.3131  1.4676 -1.6815
  885MOL0     O19341   1.730   1.292  10.374  0.2067  0.0404  0.1961
  885MOL0     C19342   1.841   1.229  10.356  1.0243 -0.2576  1.1191
  885MOL0     O19343   1.845   1.110  10.294 -0.7113  0.1724  0.3220
  885MOL0     C19344   1.732   1.032  10.278  0.5901  0.3831  0.7914
  885MOL0     C19345   1.719   0.944  10.170  0.4562  0.3970 -0.7722
  885MOL0     C19346   1.613   0.861  10.151  0.9511  0.0002  0.8857
  885MOL0     C19347   1.515   0.848  10.252  0.5025 -0.0097  0.1053
  885MOL0     O19348   1.399   0.765  10.251 -0.0032  0.0025  0.7380
  885MOL0     C19349   1.397   0.653  10.161 -0.2392 -0.3439 -0.1491
  885MOL0     C19350   1.315   0.541  10.220  0.0743  0.3618 -0.5624
  885MOL0     C19351   1.163   0.571  10.193  1.0405  0.2905 -0.1623
  885MOL0     C19352   1.117   0.511  10.059 -0.0550 -0.8538 -0.2639
  885MOL0     C19353   0.967   0.476  10.050 -0.2566  0.4867  0.3694
  885MOL0     C19354   0.931   0.367   9.946 -0.7806  0.1512  0.0680
  885MOL0     C19355   0.784   0.363   9.908 -0.6624  0.1493 -0.3970
  885MOL0     C19356   0.703   0.250   9.980  0.1432 -0.4525  0.8039
  885MOL0     N19357   0.565   0.238   9.931 -0.8170  0.7628 -1.0315
  885MOL0     C19358   0.455   0.303   9.973 -0.2623  0.0036 -0.3481
  885MOL0     C19359   0.349   0.270   9.889 -0.2174  0.3862 -0.0831
  885MOL0     C19360   0.203   0.290   9.914  0.6768  0.6571 -0.7195
  885MOL0     C19361   0.157   0.439   9.934 -0.1057 -0.7754  0.5825
  885MOL0     C19362   0.022   0.481   9.871 -0.4904  0.8790 -0.5162
  885MOL0     C19363  -0.027   0.614   9.939  0.7666 -0.8659 -0.2535
  885MOL0     O19364  -0.109   0.682   9.845  0.1163 -0.1899 -0.1983
  885MOL0     C19365  -0.242   0.656   9.828  1.0781  0.0867  1.1365
  885MOL0     C19366  -0.293   0.723   9.718 -0.3139 -0.6844 -0.5263
  885MOL0     C19367  -0.421   0.701   9.668  0.0114 -0.8360 -0.1345
  885MOL0     C19368  -0.450   0.795   9.551  1.0959  0.5353  0.7793
  885MOL0     C19369  -0.510   0.630   9.736 -0.7687  0.2923 -0.2159
  885MOL0     C19370  -0.650   0.631   9.701 -0.5928 -0.0977 -0.6010
  885MOL0     O19371  -0.699   0.750   9.674 -0.3014  0.6270  0.2581
  885MOL0     C19372  -0.817   0.781   9.632  0.7762 -0.6924 -0.5472
  885MOL0     C19373  -0.843   0.918   9.632  0.0504  0.4916 -0.3198
  885MOL0     C19374  -0.966   0.969   9.594  1.1791  0.0220  0.4105
  885MOL0     C19375  -1.070   0.880   9.554  0.0791  0.5813  1.0818
  885MOL0     O19376  -1.197   0.909   9.517  0.2727 -0.0793  0.6934
  885MOL0     C19377  -1.254   1.032   9.559  0.2212  0.2589 -0.3595
  885MOL0     C19378  -1.393   1.008   9.640  0.0335  0.0872  0.8154
  885MOL0     C19379  -1.462   1.144   9.651  0.3595  0.5242  0.6605
  885MOL0     C19380  -1.607   1.128   9.697 -0.5753  0.2655  0.8521
  885MOL0     C19381  -1.706   1.101   9.589  0.0155  0.3858 -0.0114
  885MOL0     C19382  -1.841   1.082   9.657  0.1593 -0.4252  0.3282
  885MOL0     C19383  -1.953   1.062   9.553 -0.3798 -0.8092 -0.3202
  885MOL0     C19384  -2.094   1.056   9.623  1.1576 -0.6916 -0.3708
  885MOL0    Cl19385  -2.159   1.216   9.665  0.1670  0.1104 -0.0033
  885MOL0     C19386  -1.042   0.746   9.553  0.2243 -0.5732 -0.1608
  885MOL0     C19387  -0.920   0.685   9.587 -0.1333 -0.2566  0.4766
  885MOL0     O19388  -0.716   0.530   9.720 -0.6249 -0.1216 -0.8179
  885MOL0     C19389  -0.455   0.552   9.844  0.2499 -0.0206  1.2306
  885MOL0     C19390  -0.322   0.558   9.884  0.1229 -0.8059 -0.0258
  885MOL0     N19391   0.409   0.186   9.795 -0.0515  0.9215 -0.2860
  885MOL0     N19392   0.532   0.171   9.818 -0.4724 -0.2923  0.1270
  885MOL0     C19393   1.533   0.925  10.369 -0.1384  0.4294  0.0513
  885MOL0     C19394   1.638   1.012  10.378  0.0384 -0.2769  0.1702
  885MOL0     C19395   1.966   1.274  10.417 -0.1113  0.1170  0.4940
  885MOL0     C19396   2.096   1.238  10.382 -0.5937  0.3134  0.6311
  885MOL0     C19397   2.209   1.273  10.449 -0.2189 -0.4479 -0.3356
  885MOL0     C19398   2.201   1.359  10.562 -0.3219  0.0987  0.1691
  885MOL0     O19399   2.309   1.374  10.644  0.2984 -0.3899  0.8259
  885MOL0     C19400   2.307   1.488  10.739  0.3283  0.1426  0.0828
  885MOL0     C19401   2.442   1.515  10.803 -0.4622 -0.4856  0.2061
  885MOL0     C19402   2.482   1.410  10.895 -0.4519 -0.2571  0.6906
  885MOL0     C19403   2.623   1.425  10.958  0.8454  0.8143 -0.2748
  885MOL0     C19404   2.620   1.515  11.074 -0.1196  0.5738 -0.4039
  885MOL0     C19405   2.631   1.578  11.178  0.2897 -0.8184 -0.2413
  885MOL0     C19406   2.077   1.415  10.585 -0.3909  0.5741 -0.2762
  885MOL0     C19407   1.965   1.367  10.523  0.2964 -0.1206 -0.2054
  885MOL0     H19408   1.801   0.952  10.099  2.2600 -0.4289  1.0936
  885MOL0     H19409   1.611   0.812  10.055 -2.2443 -2.8167  2.1710
  885MOL0     H19410   1.358   0.682  10.064 -2.2480 -1.2533  0.3448
  885MOL0     H19411   1.495   0.605  10.151  0.4933  1.2631 -1.0635
  885MOL0     H19412   1.353   0.451  10.170 -0.6008 -1.4028  1.9285
  885MOL0     H19413   1.343   0.528  10.324 -0.2337  3.6024  0.0304
  885MOL0     H19414   1.106   0.524  10.273 -1.1303  0.0169 -1.7706
  885MOL0     H19415   1.141   0.679  10.192 -1.9872 -0.2316 -0.2503
  885MOL0     H19416   1.158   0.573   9.979  0.7188 -0.4309  0.4359
  885MOL0     H19417   1.155   0.408  10.053  0.1359 -0.7276 -5.0160
  885MOL0     H19418   0.943   0.434  10.148 -1.8303  2.2072  0.7628
  885MOL0     H19419   0.898   0.559  10.036 -0.9002 -0.2999 -1.4814
  885MOL0     H19420   0.993   0.371   9.856 -0.3112  1.7378  0.4318
  885MOL0     H19421   0.959   0.268   9.982  3.5161  0.3975 -2.0348
  885MOL0     H19422   0.738   0.458   9.934  2.5383  1.1982  2.0291
  885MOL0     H19423   0.776   0.350   9.799 -0.4262  2.0463 -0.6780
  885MOL0     H19424   0.700   0.270  10.088  0.5119  1.5267  0.4942
  885MOL0     H19425   0.750   0.156   9.950 -1.9625 -2.1766  2.5157
  885MOL0     H19426   0.439   0.368  10.059 -2.0928 -0.4944 -0.2835
  885MOL0     H19427   0.135   0.248   9.839  0.6750  2.0471 -1.5375
  885MOL0     H19428   0.192   0.237  10.008 -1.1920  1.4799 -0.4405
  885MOL0     H19429   0.236   0.501   9.892  0.6184 -2.5282 -0.8108
  885MOL0     H19430   0.147   0.471  10.038  0.5863  0.4518  0.2874
  885MOL0     H19431  -0.044   0.396   9.886  1.3294 -1.1251 -3.0132
  885MOL0     H19432   0.034   0.494   9.763 -1.2014 -1.0958 -0.8703
  885MOL0     H19433   0.055   0.682   9.965 -0.3851 -0.0681  1.4778
  885MOL0     H19434  -0.083   0.598  10.031  2.0774 -2.1809  0.3560
  885MOL0     H19435  -0.220   0.783   9.665  0.8332 -0.0251  1.6345
  885MOL0     H19436  -0.361   0.798   9.488  0.5095  1.6648 -0.0321
  885MOL0     H19437  -0.526   0.759   9.482  1.5409 -2.0203  1.5310
  885MOL0     H19438  -0.498   0.886   9.590 -1.1624 -0.0579 -0.4471
  885MOL0     H19439  -0.757   0.979   9.656  2.3342 -0.5371 -4.7971
  885MOL0     H19440  -0.974   1.077   9.601  0.7754 -0.0463  1.0151
  885MOL0     H19441  -1.192   1.096   9.623 -0.9259  1.0924 -0.0304
  885MOL0     H19442  -1.280   1.089   9.469 -1.8116 -0.2160 -0.1410
  885MOL0     H19443  -1.445   0.932   9.581  1.4877  0.4190 -1.0139
  885MOL0     H19444  -1.383   0.970   9.742 -2.3916 -2.8893  0.0906
  885MOL0     H19445  -1.469   1.197   9.556 -3.2069 -3.4176 -1.5717
  885MOL0     H19446  -1.409   1.204   9.725 -0.0127  0.4159  1.0210
  885MOL0     H19447  -1.622   1.047   9.770 -3.2946  2.2308  2.6416
  885MOL0     H19448  -1.636   1.221   9.746 -1.7469  1.5039 -1.9998
  885MOL0     H19449  -1.670   1.021   9.524 -0.2738  1.0763 -1.0493
  885MOL0     H19450  -1.710   1.186   9.520  2.6907  0.6969  0.1334
  885MOL0     H19451  -1.839   0.991   9.719 -1.5395 -0.2264  0.7333
  885MOL0     H19452  -1.849   1.169   9.723  1.5502  0.2989 -0.4264
  885MOL0     H19453  -1.918   0.971   9.503  2.4974 -1.5524  2.6685
  885MOL0     H19454  -1.952   1.148   9.486 -1.8898  1.1642  2.0216
  885MOL0     H19455  -2.099   0.999   9.716  2.2261 -0.6281 -0.2642
  885MOL0     H19456  -2.173   1.006   9.566 -1.8902  1.5394  1.5710
  885MOL0     H19457  -1.129   0.682   9.537 -1.3445  0.5483  3.0055
  885MOL0     H19458  -0.910   0.578   9.570 -2.0070 -0.0198 -3.2264
  885MOL0     H19459  -0.521   0.481   9.893 -1.0235 -0.4099 -0.8925
  885MOL0     H19460  -0.286   0.496   9.966 -1.4130  0.1967  1.4928
  885MOL0     H19461   1.460   0.909  10.447 -0.5999  0.6525 -0.3308
  885MOL0     H19462   1.661   1.072  10.465  0.3197  1.9216 -1.3531
  885MOL0     H19463   2.104   1.162  10.305  1.5508  0.7598  0.3469
  885MOL0     H19464   2.309   1.238  10.425  0.8925  1.4986  1.1200
  885MOL0     H19465   2.281   1.579  10.683 -2.8504 -1.8802 -2.0798
  885MOL0     H19466   2.231   1.466  10.814 -0.3229 -0.7749 -0.8301
  885MOL0     H19467   2.431   1.606  10.863 -1.6047 -1.5501  1.6637
  885MOL0     H19468   2.525   1.526  10.732  0.6801 -1.9521  1.2549
  885MOL0     H19469   2.486   1.315  10.842  0.2288  0.7981 -1.2649
  885MOL0     H19470   2.403   1.406  10.970  0.9005 -0.7720  2.1441
  885MOL0     H19471   2.699   1.461  10.888  0.8608 -1.2209 -1.3719
  885MOL0     H19472   2.657   1.326  10.991  1.3380  1.0075 -0.2019
  885MOL0     H19473   2.632   1.633  11.270  1.4735  0.2991 -0.8954
  885MOL0     H19474   2.057   1.486  10.664 -1.0739 -0.0260  0.0951
  885MOL0     H19475   1.868   1.403  10.558  0.3939 -0.0025 -0.0582
  886MOL0     O19476   6.314   7.074   9.256 -0.0263 -0.5792  0.2885
  886MOL0     C19477   6.399   6.991   9.220 -0.3574  0.1820  0.1085
  886MOL0     O19478   6.374   6.874   9.163  0.0597  0.1165  0.8575
  886MOL0     C19479   6.250   6.841   9.118 -0.0994 -0.0552  0.1653
  886MOL0     C19480   6.193   6.912   9.011  0.8858  0.2189  0.1523
  886MOL0     C19481   6.058   6.889   8.978  0.2934 -0.1533  0.4697
  886MOL0     C19482   5.986   6.791   9.041  0.3350 -0.5431 -0.0739
  886MOL0     O19483   5.861   6.757   8.994 -0.3989  0.5020  0.8917
  886MOL0     C19484   5.863   6.678   8.874 -0.0814 -0.2376 -0.9175
  886MOL0     C19485   5.743   6.710   8.789  0.6612  0.3997 -0.2532
  886MOL0     C19486   5.724   6.861   8.765 -1.1543  0.5094 -0.3098
  886MOL0     C19487   5.606   6.898   8.675  0.3821  0.5498  0.1149
  886MOL0     C19488   5.586   7.048   8.662 -0.5254 -0.1377  0.5094
  886MOL0     C19489   5.442   7.072   8.608 -0.8179  0.0850  0.1520
  886MOL0     C19490   5.407   6.994   8.479  0.1419  0.1175 -0.1127
  886MOL0     C19491   5.293   7.050   8.408  0.2036 -0.0530  0.7292
  886MOL0     N19492   5.259   6.981   8.283  0.2195  0.0615 -0.5431
  886MOL0     C19493   5.214   6.853   8.264 -0.1187  0.3772  0.8947
  886MOL0     C19494   5.222   6.828   8.130 -0.2926  0.2497  0.4082
  886MOL0     C19495   5.160   6.710   8.061  0.3911 -0.2706  0.4437
  886MOL0     C19496   5.004   6.686   8.069 -0.0123 -0.5929 -0.4010
  886MOL0     C19497   4.979   6.531   8.043 -0.6576 -0.4193 -0.3462
  886MOL0     C19498   4.824   6.501   8.058  0.2028 -0.5151  0.4639
  886MOL0     O19499   4.782   6.508   8.188 -0.0236 -0.4660  0.2994
  886MOL0     C19500   4.657   6.552   8.217  0.5917 -0.1614  0.7098
  886MOL0     C19501   4.626   6.645   8.322  0.3721  0.6969 -0.6104
  886MOL0     C19502   4.508   6.720   8.329 -0.0191 -0.6629 -1.2993
  886MOL0     C19503   4.496   6.838   8.424  1.0163  0.3073 -0.3140
  886MOL0     C19504   4.399   6.675   8.252 -1.0755 -0.3307  0.2886
  886MOL0     C19505   4.265   6.741   8.256 -0.9645  0.0360  0.4214
  886MOL0     O19506   4.155   6.668   8.280  0.5847  0.1167  0.0586
  886MOL0     C19507   4.037   6.740   8.289 -0.5392 -0.0982 -0.0291
  886MOL0     C19508   3.960   6.745   8.170  0.1156  0.1844  0.4830
  886MOL0     C19509   3.826   6.792   8.177  0.1733  0.8094  0.3044
  886MOL0     C19510   3.773   6.856   8.289 -0.0458  0.2120 -0.2297
  886MOL0     O19511   3.660   6.932   8.294 -0.5044 -0.4891 -0.2702
  886MOL0     C19512   3.555   6.866   8.365  0.4318 -0.0712 -0.4890
  886MOL0     C19513   3.475   6.771   8.282 -0.3056  1.0040  1.4521
  886MOL0     C19514   3.420   6.836   8.146  0.0027  0.2663  0.1084
  886MOL0     C19515   3.354   6.973   8.162 -0.9957  0.2667 -0.4036
  886MOL0     C19516   3.214   6.976   8.236  0.0915  0.1838 -0.6911
  886MOL0     C19517   3.122   6.866   8.207  0.1386  1.1132  0.0913
  886MOL0     C19518   2.982   6.893   8.266  0.1302 -0.2328  0.6471
  886MOL0     C19519   2.891   6.987   8.171  0.4221  0.2286 -0.5028
  886MOL0    Cl19520   2.862   6.913   8.011 -0.3993  0.1443 -0.2121
  886MOL0     C19521   3.848   6.848   8.404  0.8055  0.2304  0.5372
  886MOL0     C19522   3.977   6.793   8.407  0.3735 -0.6363 -0.2029
  886MOL0     O19523   4.269   6.861   8.223 -0.1659 -0.2822  0.3913
  886MOL0     C19524   4.421   6.577   8.154 -1.0441  0.5580 -0.1868
  886MOL0     C19525   4.547   6.519   8.140 -0.0237  0.2003  0.3061
  886MOL0     N19526   5.284   6.944   8.079  0.2773  0.3735  0.0693
  886MOL0     N19527   5.299   7.035   8.165 -0.5853 -1.0160  0.5634
  886MOL0     C19528   6.048   6.720   9.143 -0.2246  1.3225 -0.2109
  886MOL0     C19529   6.178   6.746   9.186 -0.0651  0.1076 -0.4317
  886MOL0     C19530   6.539   7.024   9.252 -1.3949 -0.0322  0.4279
  886MOL0     C19531   6.573   7.136   9.331  0.0785 -1.1915  0.0829
  886MOL0     C19532   6.704   7.171   9.366 -0.0671  0.7282 -0.1126
  886MOL0     C19533   6.809   7.082   9.325  0.2361 -1.2012  0.4716
  886MOL0     O19534   6.940   7.094   9.346  0.8207  0.3333  0.3490
  886MOL0     C19535   6.985   7.221   9.358  0.1352  0.5453  0.0533
  886MOL0     C19536   7.019   7.243   9.508  0.4173 -0.4725 -0.2647
  886MOL0     C19537   7.163   7.198   9.535 -0.9969  0.1520 -0.0326
  886MOL0     C19538   7.215   7.231   9.681  1.3547 -0.6762  0.0245
  886MOL0     C19539   7.276   7.364   9.692 -0.2479 -0.4559  0.6378
  886MOL0     C19540   7.320   7.480   9.701  0.1789  0.6304 -0.0770
  886MOL0     C19541   6.774   6.965   9.262  0.5152  0.0879  0.4008
  886MOL0     C19542   6.645   6.938   9.220  0.5440 -0.3592  0.2544
  886MOL0     H19543   6.254   6.981   8.953  2.5910  0.0522  1.6576
  886MOL0     H19544   6.007   6.940   8.897  0.1366  2.1839  1.9532
  886MOL0     H19545   5.959   6.695   8.823  0.5864 -0.1889  0.3029
  886MOL0     H19546   5.870   6.570   8.893 -1.3561 -0.3728 -1.1671
  886MOL0     H19547   5.729   6.661   8.693 -0.3301  3.0496 -1.5586
  886MOL0     H19548   5.657   6.679   8.850 -1.2586  0.3319 -2.8337
  886MOL0     H19549   5.708   6.913   8.860  0.5021  2.1543 -0.8744
  886MOL0     H19550   5.822   6.892   8.727  0.1982 -0.7747  1.8833
  886MOL0     H19551   5.630   6.857   8.577  2.4775 -0.2630  0.9121
  886MOL0     H19552   5.517   6.843   8.706  0.5383  0.3106  0.1336
  886MOL0     H19553   5.608   7.084   8.763  1.5987  0.4683 -0.1181
  886MOL0     H19554   5.661   7.094   8.598  0.2433 -0.0662  1.4353
  886MOL0     H19555   5.367   7.036   8.679  0.3979  0.4469  1.6533
  886MOL0     H19556   5.430   7.179   8.589 -2.6072 -0.0877  0.1362
  886MOL0     H19557   5.490   7.002   8.408  0.2084  0.1888 -0.0271
  886MOL0     H19558   5.392   6.888   8.502 -0.6222  0.6753  2.2426
  886MOL0     H19559   5.302   7.156   8.386  0.6852  0.4341  3.0387
  886MOL0     H19560   5.205   7.044   8.472  0.6545  0.5650  1.4197
  886MOL0     H19561   5.192   6.778   8.340  3.9318  0.5531  2.5023
  886MOL0     H19562   5.188   6.709   7.955  0.3143 -1.3392  0.4225
  886MOL0     H19563   5.209   6.621   8.101  1.8340  0.9032  1.4136
  886MOL0     H19564   4.958   6.753   7.996 -2.4731 -0.9076  0.7389
  886MOL0     H19565   4.975   6.710   8.172  3.1290 -2.0257  0.9192
  886MOL0     H19566   5.031   6.469   8.117 -2.2861 -0.5713  0.7290
  886MOL0     H19567   5.014   6.513   7.941  2.4968  0.7005  0.4257
  886MOL0     H19568   4.799   6.402   8.021 -0.0753 -1.3607  2.7610
  886MOL0     H19569   4.778   6.579   7.996  0.8669 -0.8878 -0.5112
  886MOL0     H19570   4.702   6.677   8.392 -2.3760  2.9449  1.5371
  886MOL0     H19571   4.407   6.843   8.488  0.7764  1.5308 -0.7238
  886MOL0     H19572   4.583   6.825   8.490  0.3796 -0.1875  0.4565
  886MOL0     H19573   4.497   6.932   8.369 -0.1928  0.0190 -0.8651
  886MOL0     H19574   4.005   6.723   8.073 -2.3524  0.5531 -0.8349
  886MOL0     H19575   3.779   6.795   8.080 -0.2629 -2.7573  0.2894
  886MOL0     H19576   3.589   6.807   8.451  1.1113 -1.3927 -1.6297
  886MOL0     H19577   3.494   6.943   8.414  1.7168 -1.5822  4.0313
  886MOL0     H19578   3.541   6.690   8.251  1.8328  3.7087 -1.7730
  886MOL0     H19579   3.399   6.737   8.353 -0.4970  1.0678  1.2786
  886MOL0     H19580   3.344   6.777   8.094 -0.1486  1.9193 -1.6892
  886MOL0     H19581   3.504   6.855   8.078 -0.5928  3.8245  0.1726
  886MOL0     H19582   3.434   7.037   8.201  0.9260 -1.1836 -1.7447
  886MOL0     H19583   3.335   7.010   8.061  0.3898  2.8282  0.1880
  886MOL0     H19584   3.161   7.067   8.206 -0.5560 -0.6505 -2.2320
  886MOL0     H19585   3.235   6.986   8.342 -2.2902 -0.3641 -0.1050
  886MOL0     H19586   3.104   6.843   8.101 -0.7772 -4.4003  1.1041
  886MOL0     H19587   3.158   6.771   8.248 -0.2326  1.4506  1.2133
  886MOL0     H19588   3.000   6.926   8.369 -4.1369  2.4423  0.7643
  886MOL0     H19589   2.931   6.799   8.284 -0.7455  0.4061  1.6093
  886MOL0     H19590   2.938   7.084   8.152  0.8300  0.0848 -0.2492
  886MOL0     H19591   2.801   7.007   8.230 -0.9764 -2.7930 -1.4248
  886MOL0     H19592   3.791   6.883   8.490 -0.7768 -0.5264 -0.1515
  886MOL0     H19593   4.029   6.793   8.502 -0.9266  0.6808  0.5324
  886MOL0     H19594   4.340   6.536   8.094 -0.5053 -1.3170  0.2922
  886MOL0     H19595   4.553   6.433   8.073 -2.9919  0.4580 -0.4229
  886MOL0     H19596   5.999   6.632   9.182  2.5785  0.2466  1.1754
  886MOL0     H19597   6.218   6.689   9.270 -2.0282  1.5854  1.6352
  886MOL0     H19598   6.500   7.213   9.353  0.1235 -1.6458  2.0381
  886MOL0     H19599   6.731   7.258   9.426 -1.4975 -2.1535  5.3505
  886MOL0     H19600   7.074   7.240   9.297 -0.6923 -0.2803 -1.4654
  886MOL0     H19601   6.912   7.298   9.333  0.7616  0.4603 -2.2537
  886MOL0     H19602   6.945   7.197   9.575  0.9729 -0.9913  0.0033
  886MOL0     H19603   7.014   7.351   9.526  0.1032 -0.4558 -0.4523
  886MOL0     H19604   7.234   7.230   9.458  0.4906 -0.5156  1.0017
  886MOL0     H19605   7.155   7.090   9.520 -1.8922  0.2783 -0.4994
  886MOL0     H19606   7.299   7.166   9.708  0.9645 -0.9838  0.5171
  886MOL0     H19607   7.137   7.213   9.755  1.8558 -1.2208  0.4325
  886MOL0     H19608   7.356   7.577   9.730  0.2122  0.3268  0.9194
  886MOL0     H19609   6.849   6.888   9.243  1.7362  0.8687  1.8329
  886MOL0     H19610   6.624   6.847   9.166 -2.3415  0.4362 -0.1227
  887MOL0     O19611   6.775   7.146   7.951  0.0152  0.2923 -0.3359
  887MOL0     C19612   6.775   7.178   7.832 -0.4201  0.2408 -0.7531
  887MOL0     O19613   6.883   7.182   7.761 -0.7218  0.2314  0.7167
  887MOL0     C19614   7.005   7.160   7.813 -0.0300  0.5061  0.2988
  887MOL0     C19615   7.097   7.099   7.725  0.4979  0.4609 -0.3070
  887MOL0     C19616   7.232   7.096   7.768 -0.4095 -0.1476  0.6940
  887MOL0     C19617   7.275   7.150   7.889 -0.1009 -1.0385 -0.4689
  887MOL0     O19618   7.402   7.146   7.937  0.3383 -0.2825  0.6053
  887MOL0     C19619   7.502   7.068   7.876 -0.1429  0.1423 -0.4029
  887MOL0     C19620   7.629   7.084   7.952 -0.3199 -1.5621 -0.2961
  887MOL0     C19621   7.646   7.225   8.011 -0.4746 -1.1249 -0.2405
  887MOL0     C19622   7.788   7.260   8.016 -0.0050 -0.1590  0.1690
  887MOL0     C19623   7.819   7.409   8.044 -0.9455 -0.3552  0.2874
  887MOL0     C19624   7.966   7.437   8.070 -0.9895  0.8315 -0.7473
  887MOL0     C19625   8.022   7.363   8.190  0.3562 -0.5000 -0.0683
  887MOL0     C19626   8.166   7.320   8.177 -0.7948  0.0664  0.6439
  887MOL0     N19627   8.232   7.313   8.305  0.0239 -0.2904  0.1920
  887MOL0     C19628   8.183   7.290   8.427  0.1808  0.0556  0.0107
  887MOL0     C19629   8.275   7.307   8.513  0.9076 -0.4240 -0.5254
  887MOL0     C19630   8.260   7.340   8.657  0.3421  0.6050 -1.1754
  887MOL0     C19631   8.252   7.203   8.728 -0.0628  0.3929  1.3004
  887MOL0     C19632   8.252   7.219   8.873  1.2457 -0.6277  0.2113
  887MOL0     C19633   8.132   7.299   8.921 -0.2615  0.4260 -0.5418
  887MOL0     O19634   8.007   7.243   8.887 -0.0202 -0.0594 -0.0626
  887MOL0     C19635   7.922   7.325   8.813 -0.5537  0.4238  0.3631
  887MOL0     C19636   7.874   7.286   8.695  1.0522  0.2809  0.7208
  887MOL0     C19637   7.773   7.352   8.632  0.7865  0.4017  0.5043
  887MOL0     C19638   7.733   7.291   8.493 -1.0482 -0.4358  0.3498
  887MOL0     C19639   7.711   7.462   8.693 -0.4093  0.6479  0.3170
  887MOL0     C19640   7.599   7.537   8.642 -0.8500 -0.3435 -0.2020
  887MOL0     O19641   7.557   7.504   8.515 -0.1755 -0.5189 -0.4886
  887MOL0     C19642   7.441   7.564   8.471  0.2528  0.3620  0.0473
  887MOL0     C19643   7.417   7.707   8.460 -1.0443  0.2238  0.0758
  887MOL0     C19644   7.315   7.767   8.379 -0.6042  0.4812  0.0974
  887MOL0     C19645   7.228   7.668   8.322  0.7251 -1.1566 -0.4047
  887MOL0     O19646   7.119   7.729   8.261  0.6674 -0.0514 -0.4027
  887MOL0     C19647   7.017   7.644   8.207 -0.9495 -0.8801  0.2440
  887MOL0     C19648   6.901   7.722   8.155  0.0879  0.2153  0.3836
  887MOL0     C19649   6.822   7.638   8.046 -1.3554 -0.1557 -0.0837
  887MOL0     C19650   6.707   7.716   7.988  0.0655  0.5761  0.0493
  887MOL0     C19651   6.632   7.646   7.877  0.1758 -0.0033  0.7774
  887MOL0     C19652   6.532   7.745   7.814  0.6747  0.2490 -0.3302
  887MOL0     C19653   6.406   7.778   7.898  0.5950  0.6758 -0.2602
  887MOL0     C19654   6.309   7.662   7.900  0.3290  0.2386 -0.5302
  887MOL0    Cl19655   6.151   7.706   7.984 -0.2042 -0.2584 -0.2062
  887MOL0     C19656   7.255   7.531   8.315  0.7429  0.7039  0.1155
  887MOL0     C19657   7.364   7.483   8.398  0.0787 -0.1805  0.7181
  887MOL0     O19658   7.538   7.618   8.718 -0.2302 -0.1649 -0.2776
  887MOL0     C19659   7.760   7.504   8.810  1.1884 -0.2892  0.9273
  887MOL0     C19660   7.872   7.446   8.865 -0.1281  0.9458 -0.1703
  887MOL0     N19661   8.389   7.344   8.443  0.4823 -0.7674 -0.0393
  887MOL0     N19662   8.363   7.349   8.311  0.8449  0.3889 -0.1367
  887MOL0     C19663   7.185   7.202   7.982  0.1381  0.5540  0.2545
  887MOL0     C19664   7.050   7.213   7.939 -0.2241 -0.3835  0.1063
  887MOL0     C19665   6.654   7.231   7.772  0.8739  0.1265 -0.3914
  887MOL0     C19666   6.651   7.284   7.648 -0.4869 -0.3813  0.1534
  887MOL0     C19667   6.533   7.336   7.592  0.7687 -0.2811 -0.5432
  887MOL0     C19668   6.415   7.336   7.660  0.3886 -0.2933 -0.3582
  887MOL0     O19669   6.316   7.418   7.620 -0.5558 -0.9999 -0.0508
  887MOL0     C19670   6.180   7.379   7.632  0.8989 -0.0851 -0.1060
  887MOL0     C19671   6.094   7.434   7.517  0.4383 -0.0740  0.4792
  887MOL0     C19672   6.077   7.582   7.531 -0.6457 -0.2510  0.0604
  887MOL0     C19673   5.982   7.645   7.433  0.1401 -0.4240 -0.3939
  887MOL0     C19674   5.846   7.611   7.465  0.0052  0.9306  0.0115
  887MOL0     C19675   5.737   7.568   7.513 -0.0910  0.1009 -0.2316
  887MOL0     C19676   6.415   7.284   7.793  0.3102  0.1016  0.4475
  887MOL0     C19677   6.535   7.238   7.843 -0.0948 -0.0437 -0.9971
  887MOL0     H19678   7.066   7.056   7.630 -2.5745 -0.9253  1.1896
  887MOL0     H19679   7.304   7.045   7.705 -1.0594 -3.5718  2.4512
  887MOL0     H19680   7.465   6.966   7.871 -1.9128  0.6072  1.6605
  887MOL0     H19681   7.522   7.104   7.774 -0.2773 -1.9918 -1.2239
  887MOL0     H19682   7.624   7.016   8.038 -1.4931 -0.3769  0.6124
  887MOL0     H19683   7.708   7.066   7.879  1.3427  3.8347 -0.2230
  887MOL0     H19684   7.598   7.295   7.943  0.4512 -2.0327 -1.8789
  887MOL0     H19685   7.597   7.227   8.109 -1.2107 -0.7706 -0.6067
  887MOL0     H19686   7.849   7.194   8.078  1.9267  1.6867  0.3286
  887MOL0     H19687   7.835   7.244   7.919  1.4730 -1.9161  1.1031
  887MOL0     H19688   7.797   7.474   7.959  3.3415  0.6717 -0.2666
  887MOL0     H19689   7.754   7.432   8.129  2.4223  1.0227  2.7346
  887MOL0     H19690   8.016   7.406   7.978 -2.7144 -0.5642 -1.2677
  887MOL0     H19691   7.994   7.540   8.094  1.3185 -0.0723  0.8178
  887MOL0     H19692   8.029   7.435   8.273  1.8752 -0.1049 -0.5055
  887MOL0     H19693   7.957   7.279   8.219 -0.8462  0.1497 -0.8128
  887MOL0     H19694   8.224   7.384   8.109 -2.7129  0.3410 -0.8130
  887MOL0     H19695   8.165   7.220   8.133  3.3222  0.0051  0.2622
  887MOL0     H19696   8.076   7.282   8.444 -0.3595  0.2268 -2.7678
  887MOL0     H19697   8.340   7.398   8.702  0.3382 -0.5209  0.3368
  887MOL0     H19698   8.171   7.402   8.675  0.0435 -0.3195  0.7573
  887MOL0     H19699   8.336   7.138   8.702  0.7008  2.2657 -1.3525
  887MOL0     H19700   8.163   7.150   8.694  1.2163 -1.6031  0.8870
  887MOL0     H19701   8.350   7.255   8.906  0.9332 -1.3306  2.0259
  887MOL0     H19702   8.252   7.127   8.932 -0.3474 -0.2765  0.8112
  887MOL0     H19703   8.138   7.402   8.884  1.4213  0.5913  0.1062
  887MOL0     H19704   8.143   7.306   9.029 -3.4738 -0.8315 -0.0132
  887MOL0     H19705   7.924   7.197   8.658  4.2655 -0.1548  5.1954
  887MOL0     H19706   7.624   7.287   8.477 -1.0247 -0.3743  0.1691
  887MOL0     H19707   7.787   7.355   8.422  1.7937 -1.6176  1.3107
  887MOL0     H19708   7.770   7.189   8.480  0.0146 -0.4689  3.1324
  887MOL0     H19709   7.486   7.774   8.509 -3.0250  1.8192  0.8150
  887MOL0     H19710   7.314   7.873   8.356 -1.5001  0.2993 -0.8024
  887MOL0     H19711   7.079   7.606   8.125 -0.3450 -1.0952  0.7923
  887MOL0     H19712   6.981   7.559   8.266 -2.7808 -0.5316 -0.2950
  887MOL0     H19713   6.843   7.743   8.245  1.2703 -2.1270  1.7924
  887MOL0     H19714   6.922   7.822   8.116 -1.4997 -0.1162 -1.4658
  887MOL0     H19715   6.787   7.542   8.085 -0.2870 -1.3559 -1.9628
  887MOL0     H19716   6.893   7.598   7.973  0.3644 -0.2205  1.5248
  887MOL0     H19717   6.646   7.753   8.071  0.9355 -1.0423  1.4760
  887MOL0     H19718   6.758   7.806   7.952  1.3574 -0.5118 -0.9359
  887MOL0     H19719   6.577   7.554   7.898 -3.8919  2.2668  1.0850
  887MOL0     H19720   6.706   7.622   7.800 -2.1360 -2.3552 -0.8691
  887MOL0     H19721   6.575   7.835   7.769 -1.7449  1.2705 -0.7510
  887MOL0     H19722   6.493   7.692   7.727 -1.5585  1.8419 -0.3813
  887MOL0     H19723   6.356   7.867   7.860 -2.0724 -0.5968  0.0937
  887MOL0     H19724   6.436   7.804   8.000  2.8204  2.0908 -1.1834
  887MOL0     H19725   6.364   7.576   7.941  2.6305 -0.2373 -4.1815
  887MOL0     H19726   6.277   7.634   7.799  0.0726 -2.0586  0.1286
  887MOL0     H19727   7.203   7.464   8.248 -0.3778  0.6794  0.9820
  887MOL0     H19728   7.390   7.379   8.378 -0.5296 -0.2884  0.4813
  887MOL0     H19729   7.712   7.585   8.863  1.2101  1.1917 -1.1788
  887MOL0     H19730   7.914   7.483   8.958  0.8805  1.8632 -0.9758
  887MOL0     H19731   7.220   7.241   8.077 -0.8398  1.4539  0.2595
  887MOL0     H19732   6.974   7.271   7.989  1.5404 -0.6520  3.3277
  887MOL0     H19733   6.740   7.300   7.588 -0.1086 -1.0750  0.5236
  887MOL0     H19734   6.530   7.393   7.500 -0.3859  0.7323  0.0781
  887MOL0     H19735   6.173   7.270   7.639  0.4781 -0.2118 -1.9385
  887MOL0     H19736   6.135   7.419   7.723  1.7270  1.4320 -0.3306
  887MOL0     H19737   5.997   7.384   7.521  0.5638 -0.6605 -2.0524
  887MOL0     H19738   6.147   7.409   7.425  0.3663  1.2587  0.0655
  887MOL0     H19739   6.181   7.615   7.528  0.0062 -2.2395 -1.8460
  887MOL0     H19740   6.031   7.607   7.627 -2.2372 -0.0884 -0.7084
  887MOL0     H19741   6.007   7.622   7.329  0.3074 -0.3196 -0.3764
  887MOL0     H19742   5.992   7.752   7.449  1.0701 -0.7966  2.0490
  887MOL0     H19743   5.648   7.530   7.558  0.6397 -0.5234  0.7165
  887MOL0     H19744   6.323   7.269   7.848  0.0180  2.1875  0.6054
  887MOL0     H19745   6.535   7.204   7.946  2.0230 -0.2998 -1.0232
  888MOL0     O19746   4.644   8.879   4.930 -0.0046  0.4349 -0.1446
  888MOL0     C19747   4.567   8.866   4.835 -0.1616 -0.3003  0.1870
  888MOL0     O19748   4.586   8.790   4.722 -1.0006 -0.2729  0.2430
  888MOL0     C19749   4.703   8.726   4.672  0.4202 -0.1863 -0.0299
  888MOL0     C19750   4.685   8.640   4.564 -0.0953  0.0111  0.0969
  888MOL0     C19751   4.787   8.559   4.517 -0.3042 -0.3808  0.1972
  888MOL0     C19752   4.914   8.553   4.580  0.5765 -0.1104 -0.3286
  888MOL0     O19753   5.006   8.461   4.529 -0.0004 -0.4945 -0.6742
  888MOL0     C19754   5.139   8.447   4.589  0.5144  0.0720 -0.2943
  888MOL0     C19755   5.204   8.340   4.500 -0.3813  0.4946 -0.7497
  888MOL0     C19756   5.348   8.312   4.545  0.0328 -0.1005 -0.2312
  888MOL0     C19757   5.351   8.235   4.674 -0.7178 -0.5314  0.0540
  888MOL0     C19758   5.492   8.186   4.712 -1.2305 -0.3648 -0.2470
  888MOL0     C19759   5.482   8.104   4.838 -0.3932 -0.2264  0.0641
  888MOL0     C19760   5.611   8.046   4.897  0.2950  0.0765  0.2920
  888MOL0     C19761   5.614   7.991   5.038  0.2727  0.1809 -0.0744
  888MOL0     N19762   5.510   7.885   5.060 -0.5918  0.4213 -0.8042
  888MOL0     C19763   5.394   7.906   5.130  0.1732 -0.0699  0.4040
  888MOL0     C19764   5.327   7.796   5.116  0.0164 -0.0779 -0.0159
  888MOL0     C19765   5.191   7.769   5.161  0.2757  0.3482 -0.5602
  888MOL0     C19766   5.149   7.620   5.159 -0.7689 -0.0434  0.1384
  888MOL0     C19767   5.084   7.584   5.017 -0.6673 -0.0957  0.0237
  888MOL0     C19768   5.028   7.445   5.010  0.2963 -0.9091 -0.3607
  888MOL0     O19769   4.955   7.424   4.889 -0.2782  0.2462  0.6234
  888MOL0     C19770   4.828   7.470   4.872 -0.3339 -0.0391 -0.1969
  888MOL0     C19771   4.778   7.456   4.742 -0.1300  0.4061  0.2260
  888MOL0     C19772   4.656   7.507   4.698  0.0509 -0.7112 -0.9753
  888MOL0     C19773   4.615   7.499   4.557 -0.2776 -0.0807 -0.1532
  888MOL0     C19774   4.580   7.584   4.794 -0.6180  0.1065  0.2867
  888MOL0     C19775   4.458   7.660   4.762 -0.0290 -0.2179 -0.9157
  888MOL0     O19776   4.455   7.721   4.642 -0.2513 -0.0661  1.0255
  888MOL0     C19777   4.352   7.806   4.609 -0.4433  0.5070  0.2796
  888MOL0     C19778   4.312   7.905   4.694  0.0144  0.4688  0.2276
  888MOL0     C19779   4.192   7.978   4.673  0.1867  0.0342  0.1339
  888MOL0     C19780   4.115   7.959   4.554  0.0626  0.8996 -0.1270
  888MOL0     O19781   3.989   8.001   4.530  0.4436  0.0384 -0.1111
  888MOL0     C19782   3.920   8.088   4.623  0.0022 -0.0251  0.1866
  888MOL0     C19783   3.770   8.089   4.592  0.7607 -0.1436 -0.3732
  888MOL0     C19784   3.695   8.172   4.696  0.5816 -0.8241 -0.1823
  888MOL0     C19785   3.619   8.287   4.617  0.3729  0.3195  0.1265
  888MOL0     C19786   3.492   8.241   4.548  0.0799  0.1464 -0.3803
  888MOL0     C19787   3.393   8.180   4.647 -0.0707 -0.6680 -0.5759
  888MOL0     C19788   3.256   8.153   4.582 -0.4778  0.1593 -0.2762
  888MOL0     C19789   3.177   8.280   4.555 -0.3732 -1.0120 -0.6198
  888MOL0    Cl19790   3.012   8.239   4.500 -0.4715 -0.0472 -0.1937
  888MOL0     C19791   4.167   7.871   4.458  1.3088  0.1486 -0.1661
  888MOL0     C19792   4.282   7.797   4.489 -0.0898 -0.0628 -0.1893
  888MOL0     O19793   4.367   7.668   4.843  0.2440 -0.8318  0.0036
  888MOL0     C19794   4.633   7.606   4.922 -0.0260 -0.3630  0.1228
  888MOL0     C19795   4.742   7.542   4.962 -0.7016  0.5958 -0.1928
  888MOL0     N19796   5.410   7.702   5.046  0.6404  0.9412  0.0900
  888MOL0     N19797   5.514   7.760   5.016 -0.6388  1.0744  0.0943
  888MOL0     C19798   4.930   8.631   4.692  0.9787  0.6840  0.7271
  888MOL0     C19799   4.827   8.720   4.738  0.1739  0.2503 -0.2643
  888MOL0     C19800   4.439   8.932   4.841  1.2770  0.0955  0.5650
  888MOL0     C19801   4.340   8.920   4.744  0.1091  0.2539 -0.1387
  888MOL0     C19802   4.203   8.970   4.771  0.4135 -0.3853  0.4763
  888MOL0     C19803   4.175   9.050   4.881  0.9507  0.3732  0.0967
  888MOL0     O19804   4.041   9.095   4.896 -0.3724  0.7788 -0.2855
  888MOL0     C19805   4.002   9.177   5.006 -0.1184 -0.0147  0.8713
  888MOL0     C19806   3.862   9.235   4.975  0.4715 -1.1697  0.2182
  888MOL0     C19807   3.818   9.318   5.100  1.2275  0.7409  0.1860
  888MOL0     C19808   3.661   9.362   5.098 -0.0767  0.1144 -0.7996
  888MOL0     C19809   3.637   9.431   5.227  0.3077 -0.0175  0.2947
  888MOL0     C19810   3.618   9.479   5.338 -0.2902  0.3416  0.4074
  888MOL0     C19811   4.279   9.082   4.971 -0.5564 -0.6252  0.3962
  888MOL0     C19812   4.405   9.016   4.952 -0.3801 -0.1852  0.2340
  888MOL0     H19813   4.583   8.627   4.527  0.8049 -4.3667 -1.4400
  888MOL0     H19814   4.760   8.482   4.446  1.2217 -1.4265  0.6771
  888MOL0     H19815   5.197   8.539   4.581  1.1415 -0.3058 -0.2110
  888MOL0     H19816   5.142   8.411   4.692 -2.3067 -3.3003 -1.2141
  888MOL0     H19817   5.143   8.250   4.509  0.8992 -0.8029 -3.7750
  888MOL0     H19818   5.220   8.367   4.395  0.6852  1.4003 -0.3818
  888MOL0     H19819   5.397   8.259   4.463 -1.3783 -2.1688  0.1826
  888MOL0     H19820   5.390   8.411   4.568 -2.6737  0.4313  3.2055
  888MOL0     H19821   5.313   8.299   4.754  0.6856 -1.0111  1.1649
  888MOL0     H19822   5.284   8.150   4.662 -1.5531 -0.2198  2.1018
  888MOL0     H19823   5.544   8.141   4.627  0.5441 -1.3026  1.2783
  888MOL0     H19824   5.557   8.270   4.739 -2.3158 -0.3810  2.8478
  888MOL0     H19825   5.444   8.159   4.925  2.4846 -0.5292  1.6629
  888MOL0     H19826   5.409   8.024   4.826  2.0680 -2.4487 -1.3107
  888MOL0     H19827   5.636   7.963   4.830 -2.1174  0.8459 -1.7239
  888MOL0     H19828   5.680   8.129   4.879  1.5846 -0.0815  3.7539
  888MOL0     H19829   5.614   8.076   5.107 -0.0547  1.0675 -1.1290
  888MOL0     H19830   5.703   7.934   5.064  0.3469  0.2353 -0.2053
  888MOL0     H19831   5.361   7.997   5.180 -1.4090 -1.0471  1.2079
  888MOL0     H19832   5.193   7.804   5.265 -1.7870 -0.2873 -0.2462
  888MOL0     H19833   5.128   7.837   5.102  1.6563  1.9050 -0.2960
  888MOL0     H19834   5.076   7.616   5.239 -0.5819  0.4466  0.3325
  888MOL0     H19835   5.233   7.562   5.199 -0.3217 -0.2848 -1.0787
  888MOL0     H19836   5.154   7.598   4.934  1.4081  0.1283  1.7303
  888MOL0     H19837   4.997   7.649   5.000  1.0868  1.7576 -2.6027
  888MOL0     H19838   4.972   7.439   5.104 -0.6304 -2.2693 -0.9572
  888MOL0     H19839   5.112   7.376   5.019  1.6695  0.7732  0.1856
  888MOL0     H19840   4.843   7.401   4.676 -0.8582  0.1281 -0.2764
  888MOL0     H19841   4.519   7.446   4.556 -0.5651  0.0893  3.7787
  888MOL0     H19842   4.594   7.596   4.510  2.1714  0.8087  0.4180
  888MOL0     H19843   4.694   7.453   4.499  0.2679  0.8541 -0.1796
  888MOL0     H19844   4.372   7.921   4.783  1.7116 -1.5302 -0.4683
  888MOL0     H19845   4.157   8.053   4.743 -1.1264  1.7778 -2.2599
  888MOL0     H19846   3.938   8.045   4.722  2.7419  0.1629 -0.1649
  888MOL0     H19847   3.960   8.189   4.611  0.4847 -0.2493 -0.0950
  888MOL0     H19848   3.746   8.117   4.489  1.2765 -1.9795 -1.0456
  888MOL0     H19849   3.745   7.983   4.602  0.5081 -0.0225  0.3179
  888MOL0     H19850   3.772   8.221   4.757  2.9106 -0.5131 -3.1838
  888MOL0     H19851   3.643   8.099   4.758  1.3263 -2.2607 -1.2032
  888MOL0     H19852   3.585   8.358   4.693 -0.6512  1.8203 -1.6484
  888MOL0     H19853   3.678   8.342   4.543 -1.5232  0.4923 -1.3301
  888MOL0     H19854   3.508   8.165   4.471 -2.1793 -2.0005  1.1329
  888MOL0     H19855   3.452   8.330   4.499 -1.1996  0.1005  0.5312
  888MOL0     H19856   3.441   8.090   4.689 -1.6025 -1.1329  0.2395
  888MOL0     H19857   3.373   8.243   4.734 -2.4175 -1.1595 -0.7122
  888MOL0     H19858   3.203   8.090   4.654 -3.7367 -1.1107 -3.4305
  888MOL0     H19859   3.259   8.092   4.491  1.2035 -0.0328 -0.1118
  888MOL0     H19860   3.218   8.354   4.486 -1.1325  0.6946  0.6757
  888MOL0     H19861   3.161   8.335   4.649 -1.5398  0.4768 -1.6333
  888MOL0     H19862   4.107   7.857   4.369 -0.2977  0.8787  0.7475
  888MOL0     H19863   4.319   7.733   4.408 -1.8247 -1.2599 -0.0833
  888MOL0     H19864   4.578   7.660   4.998 -1.3501  0.9774 -1.6968
  888MOL0     H19865   4.774   7.566   5.063  0.8757  2.3387 -1.0284
  888MOL0     H19866   5.025   8.629   4.744  2.1788  0.6685 -1.3585
  888MOL0     H19867   4.839   8.781   4.827  0.1989 -1.2352  0.8002
  888MOL0     H19868   4.348   8.860   4.654 -0.5306 -0.0626  0.0049
  888MOL0     H19869   4.128   8.950   4.695 -0.8489  3.2543  0.5948
  888MOL0     H19870   4.004   9.116   5.097  3.4859  0.0744  1.0045
  888MOL0     H19871   4.078   9.255   5.015 -1.6639  2.4508 -3.8470
  888MOL0     H19872   3.789   9.156   4.954 -0.9326  0.5089 -1.5841
  888MOL0     H19873   3.861   9.302   4.889  2.7533  0.7238  1.5339
  888MOL0     H19874   3.886   9.403   5.104  2.3276  0.0459 -2.0140
  888MOL0     H19875   3.845   9.263   5.191  0.8474  0.2382  0.0017
  888MOL0     H19876   3.591   9.278   5.099  2.2748 -1.9981  1.6539
  888MOL0     H19877   3.647   9.424   5.009  0.9429  0.4483 -0.7467
  888MOL0     H19878   3.619   9.542   5.424  0.1380  0.3332  0.4111
  888MOL0     H19879   4.267   9.157   5.048  4.3379  3.0046 -1.8321
  888MOL0     H19880   4.482   9.016   5.029 -0.5074  0.3541  0.3603
  889MOL0     O19881   2.911   7.463   6.384 -1.1336 -0.3113  0.4609
  889MOL0     C19882   2.877   7.570   6.428  0.5714  0.1707 -0.5085
  889MOL0     O19883   2.929   7.630   6.547  0.0924 -0.6725  0.5087
  889MOL0     C19884   3.017   7.555   6.625 -0.0025 -0.1750 -0.0065
  889MOL0     C19885   3.161   7.558   6.601  0.5332 -1.0319 -0.0373
  889MOL0     C19886   3.243   7.464   6.681  0.3112 -0.0403  0.9146
  889MOL0     C19887   3.200   7.399   6.789 -0.1657  0.0669  0.3491
  889MOL0     O19888   3.291   7.336   6.870  0.0106  0.4773  0.3072
  889MOL0     C19889   3.365   7.226   6.818 -0.2626  0.5021 -0.2288
  889MOL0     C19890   3.469   7.169   6.919  0.3913  0.0487  0.6620
  889MOL0     C19891   3.397   7.128   7.057  0.5455 -0.5553  0.4438
  889MOL0     C19892   3.483   7.039   7.135 -0.6591 -0.0114 -0.5397
  889MOL0     C19893   3.413   6.916   7.182 -0.0439  0.7464 -0.2926
  889MOL0     C19894   3.502   6.810   7.257  0.1280  0.2358  0.0293
  889MOL0     C19895   3.425   6.748   7.376  0.2050  0.4674 -0.3382
  889MOL0     C19896   3.509   6.654   7.459  0.0719 -0.5883  0.0115
  889MOL0     N19897   3.563   6.534   7.389  0.8080  0.4013 -0.1148
  889MOL0     C19898   3.678   6.529   7.311 -0.0285  0.0949 -0.1458
  889MOL0     C19899   3.700   6.396   7.293 -0.2123  0.2293  0.1818
  889MOL0     C19900   3.812   6.330   7.219 -0.2181  0.1139 -0.1205
  889MOL0     C19901   3.951   6.336   7.284 -0.8248 -0.5626  0.3311
  889MOL0     C19902   4.004   6.475   7.257 -0.6739  0.1655  0.1885
  889MOL0     C19903   4.155   6.463   7.280 -0.2236 -0.2943 -0.5126
  889MOL0     O19904   4.177   6.433   7.422 -0.7004 -1.1020  0.0865
  889MOL0     C19905   4.304   6.437   7.468 -0.2622  0.3414 -0.5318
  889MOL0     C19906   4.326   6.421   7.597 -0.0619  0.1910 -0.1059
  889MOL0     C19907   4.456   6.431   7.659 -0.0493  0.3150 -0.2254
  889MOL0     C19908   4.459   6.411   7.809  0.0550 -0.3015 -0.6055
  889MOL0     C19909   4.570   6.459   7.578 -0.8268 -0.1249 -0.0279
  889MOL0     C19910   4.709   6.472   7.631  0.6266 -0.8213 -0.5523
  889MOL0     O19911   4.798   6.515   7.541 -0.5949 -0.5569 -0.1274
  889MOL0     C19912   4.912   6.568   7.594 -0.7212 -0.2020 -0.0430
  889MOL0     C19913   5.032   6.487   7.588  0.0813 -0.3087 -0.6660
  889MOL0     C19914   5.148   6.536   7.645 -0.2135 -0.2382  0.4619
  889MOL0     C19915   5.156   6.674   7.691  0.4361  0.0489 -0.3577
  889MOL0     O19916   5.284   6.719   7.717  0.5919 -0.2050  0.1680
  889MOL0     C19917   5.305   6.860   7.735 -0.3889  0.7170 -0.3186
  889MOL0     C19918   5.455   6.883   7.769  0.0202  0.9224  0.0988
  889MOL0     C19919   5.545   6.857   7.641  0.6022 -0.0224 -0.0012
  889MOL0     C19920   5.670   6.785   7.691  1.0349 -0.3414 -0.4157
  889MOL0     C19921   5.744   6.723   7.582  0.4366  0.6325  0.2688
  889MOL0     C19922   5.853   6.624   7.634 -0.2252 -0.1977  0.9110
  889MOL0     C19923   5.951   6.576   7.517  0.3596 -1.1698 -0.6028
  889MOL0     C19924   6.058   6.488   7.573 -0.1793 -1.1980  0.3422
  889MOL0    Cl19925   6.006   6.321   7.604 -0.7979  0.0084 -0.0784
  889MOL0     C19926   5.036   6.750   7.696 -0.2197  0.3989  0.2293
  889MOL0     C19927   4.913   6.699   7.656 -0.7622  0.0760  0.3091
  889MOL0     O19928   4.730   6.449   7.751 -0.5696 -0.1894  0.3305
  889MOL0     C19929   4.542   6.460   7.441 -0.7336 -0.0391  0.1902
  889MOL0     C19930   4.417   6.448   7.390 -0.0186 -0.6684  0.2137
  889MOL0     N19931   3.590   6.324   7.335 -0.1448  0.3865  0.0793
  889MOL0     N19932   3.509   6.405   7.400 -1.1292  1.0059  0.3845
  889MOL0     C19933   3.066   7.419   6.820  0.4948  0.0131  0.3547
  889MOL0     C19934   2.977   7.483   6.733  0.2358  1.0102 -0.4010
  889MOL0     C19935   2.764   7.629   6.367  1.0379  0.3187  0.7864
  889MOL0     C19936   2.705   7.745   6.413  0.8170 -0.0632  0.9120
  889MOL0     C19937   2.591   7.801   6.357  0.6221  0.3044 -0.5536
  889MOL0     C19938   2.525   7.728   6.253 -0.7887 -0.1908 -0.0524
  889MOL0     O19939   2.411   7.792   6.214 -0.7914 -0.2900 -0.3989
  889MOL0     C19940   2.314   7.694   6.162  0.6809  0.5142  0.5570
  889MOL0     C19941   2.169   7.717   6.191 -0.3041  0.1512  0.4197
  889MOL0     C19942   2.145   7.692   6.340  1.0493 -0.4223 -0.1816
  889MOL0     C19943   2.011   7.758   6.389 -0.6773  0.9083  0.2971
  889MOL0     C19944   1.907   7.755   6.280  0.6500 -0.1503 -0.7779
  889MOL0     C19945   1.825   7.759   6.193 -0.6741 -0.3728 -0.2387
  889MOL0     C19946   2.592   7.615   6.193  0.7347 -0.8046  0.4716
  889MOL0     C19947   2.714   7.572   6.247  0.6929 -0.2649 -0.3048
  889MOL0     H19948   3.200   7.610   6.514  4.1755 -1.4476  1.1794
  889MOL0     H19949   3.351   7.471   6.679  0.4852 -1.6509 -2.9052
  889MOL0     H19950   3.289   7.150   6.801 -1.3123  0.2809  4.1542
  889MOL0     H19951   3.420   7.257   6.729  3.6874 -0.2965  1.6744
  889MOL0     H19952   3.533   7.091   6.876 -1.6324 -1.8200  0.8622
  889MOL0     H19953   3.542   7.249   6.935  1.2781 -0.1419 -1.8805
  889MOL0     H19954   3.389   7.225   7.107  2.1170 -0.6776  0.9914
  889MOL0     H19955   3.299   7.084   7.036  0.4836 -1.9005  3.0842
  889MOL0     H19956   3.567   7.000   7.077 -1.9206 -2.6883 -0.7488
  889MOL0     H19957   3.513   7.095   7.224 -2.1491  0.6258 -0.4066
  889MOL0     H19958   3.331   6.948   7.246 -0.7111  1.1097 -1.2908
  889MOL0     H19959   3.363   6.875   7.094  1.9178 -0.0905 -1.0954
  889MOL0     H19960   3.523   6.734   7.181 -3.8962 -1.7748  0.6603
  889MOL0     H19961   3.594   6.858   7.291  0.3305 -0.0245 -0.1517
  889MOL0     H19962   3.373   6.817   7.442  1.0436  0.8335 -0.0443
  889MOL0     H19963   3.348   6.686   7.329 -1.0185  0.8135  1.1589
  889MOL0     H19964   3.446   6.618   7.541 -1.8823 -0.4654 -1.3960
  889MOL0     H19965   3.588   6.716   7.504 -1.7239  2.0701 -0.3308
  889MOL0     H19966   3.749   6.606   7.282 -0.9125  0.9412 -0.1408
  889MOL0     H19967   3.790   6.223   7.210 -0.3200 -0.1069  2.1707
  889MOL0     H19968   3.807   6.385   7.124 -0.6865  1.1692  0.4936
  889MOL0     H19969   4.017   6.264   7.234  1.4436  1.2806  0.4564
  889MOL0     H19970   3.946   6.329   7.393  1.0721 -2.4498  0.3613
  889MOL0     H19971   3.953   6.560   7.302 -2.6964  0.4957 -2.4730
  889MOL0     H19972   4.000   6.494   7.149  0.0263  2.6287  0.5401
  889MOL0     H19973   4.204   6.557   7.253 -1.3282  0.7655  1.0143
  889MOL0     H19974   4.202   6.390   7.214  1.5653 -1.4655  1.8984
  889MOL0     H19975   4.240   6.401   7.661 -0.1387 -1.4960 -0.6910
  889MOL0     H19976   4.486   6.504   7.861  0.9633 -1.3646  0.8795
  889MOL0     H19977   4.360   6.378   7.844 -0.1049  2.0850  1.5369
  889MOL0     H19978   4.534   6.340   7.844  0.9776  0.0020 -1.8986
  889MOL0     H19979   5.000   6.391   7.548 -1.9805 -0.0797  0.2562
  889MOL0     H19980   5.238   6.475   7.655  2.0140  2.6595 -0.7378
  889MOL0     H19981   5.267   6.926   7.656 -3.3688  0.3948  0.7191
  889MOL0     H19982   5.267   6.886   7.834  1.0779 -0.0150  0.4751
  889MOL0     H19983   5.458   6.988   7.800 -1.8971  1.4038 -1.1772
  889MOL0     H19984   5.476   6.818   7.854 -1.1201 -1.5910 -1.4378
  889MOL0     H19985   5.572   6.949   7.590  0.4099  1.1019  1.8319
  889MOL0     H19986   5.497   6.800   7.561 -0.3160  0.2212  0.3550
  889MOL0     H19987   5.724   6.851   7.759 -1.8837  2.9344 -0.9469
  889MOL0     H19988   5.641   6.699   7.751 -1.5890  0.9590  0.3307
  889MOL0     H19989   5.798   6.796   7.522  0.4084 -0.5141 -1.2106
  889MOL0     H19990   5.674   6.670   7.516 -0.5453 -0.4525  2.0929
  889MOL0     H19991   5.923   6.664   7.708  0.7907  0.9511 -0.5904
  889MOL0     H19992   5.809   6.539   7.687 -0.0370 -0.4287  0.7026
  889MOL0     H19993   6.001   6.666   7.482  2.6004 -1.8396  0.6613
  889MOL0     H19994   5.893   6.519   7.444  1.4066  1.4154 -3.6965
  889MOL0     H19995   6.086   6.533   7.668 -0.6742  0.6813 -0.3539
  889MOL0     H19996   6.147   6.484   7.510  1.0405 -2.2063  2.0452
  889MOL0     H19997   5.038   6.851   7.735 -2.4791  0.3369  0.6403
  889MOL0     H19998   4.822   6.758   7.666  0.5146  1.8597  2.1433
  889MOL0     H19999   4.620   6.445   7.368  1.2911 -4.0344  2.8082
  889MOL0     H20000   4.410   6.441   7.282  1.7251 -4.5097  0.1963
  889MOL0     H20001   3.034   7.378   6.916 -0.0799 -1.9773 -0.6225
  889MOL0     H20002   2.872   7.475   6.758  0.2799  1.8414  0.0678
  889MOL0     H20003   2.751   7.804   6.491  1.4599  0.0593  0.4442
  889MOL0     H20004   2.557   7.898   6.394  1.0317  0.3551 -0.3012
  889MOL0     H20005   2.330   7.687   6.054  2.3007 -0.8858  0.8444
  889MOL0     H20006   2.334   7.593   6.197  2.5000 -0.3252 -2.5431
  889MOL0     H20007   2.111   7.650   6.128  1.4656 -1.4125  0.3598
  889MOL0     H20008   2.149   7.824   6.177 -2.1825 -0.2034  0.1801
  889MOL0     H20009   2.230   7.727   6.399 -0.2914  1.7821  0.5347
  889MOL0     H20010   2.156   7.583   6.341 -0.7437 -0.6280  0.4403
  889MOL0     H20011   2.023   7.864   6.413  1.5185  0.6593  0.5706
  889MOL0     H20012   1.971   7.704   6.475 -1.2841 -1.5630 -1.4374
  889MOL0     H20013   1.748   7.764   6.120 -1.0737  0.6871  0.2358
  889MOL0     H20014   2.557   7.566   6.103  0.8270  3.7629 -2.4039
  889MOL0     H20015   2.771   7.497   6.194  0.6006  0.5501 -1.6049
  890MOL0     O20016   7.046   1.137   8.739 -0.7937 -0.0787 -0.5339
  890MOL0     C20017   7.128   1.232   8.761  0.1803  0.2077  0.0834
  890MOL0     O20018   7.108   1.343   8.843 -0.5893  0.0037  0.1334
  890MOL0     C20019   6.995   1.346   8.911  0.6559 -0.3616  0.4811
  890MOL0     C20020   6.891   1.427   8.859 -0.5031 -0.4451 -0.2263
  890MOL0     C20021   6.775   1.442   8.942  0.5378  0.5468 -0.2639
  890MOL0     C20022   6.766   1.371   9.059 -0.4071  0.0736 -0.4536
  890MOL0     O20023   6.656   1.388   9.145  0.5773 -0.7173  0.6117
  890MOL0     C20024   6.592   1.271   9.207 -0.3695  0.2269 -0.0743
  890MOL0     C20025   6.460   1.312   9.268 -0.5447 -0.8018 -0.2950
  890MOL0     C20026   6.331   1.323   9.177 -0.0235  0.0003 -0.1527
  890MOL0     C20027   6.338   1.432   9.070  0.1979 -0.0407 -0.8337
  890MOL0     C20028   6.386   1.576   9.116 -0.3066  0.0623  0.1046
  890MOL0     C20029   6.386   1.669   8.998 -0.4472 -0.5781 -0.5533
  890MOL0     C20030   6.248   1.719   8.949 -0.3768  0.1025  0.1921
  890MOL0     C20031   6.258   1.843   8.866  0.2277  0.6837  0.2666
  890MOL0     N20032   6.126   1.902   8.847  0.1651  0.0602 -0.0662
  890MOL0     C20033   6.012   1.843   8.796 -0.6927  0.8577 -0.9502
  890MOL0     C20034   5.917   1.931   8.797 -0.2008 -0.2627 -0.0851
  890MOL0     C20035   5.779   1.906   8.751 -0.2689  0.1613 -0.3229
  890MOL0     C20036   5.768   1.882   8.601 -0.3100  0.5848  0.1824
  890MOL0     C20037   5.775   2.016   8.519  0.0047 -0.1002 -0.0369
  890MOL0     C20038   5.653   2.108   8.539  0.8318  0.0120  0.7190
  890MOL0     O20039   5.534   2.039   8.504 -0.0186 -0.1542 -0.3162
  890MOL0     C20040   5.423   2.069   8.580 -0.7203 -0.2251  0.0298
  890MOL0     C20041   5.310   2.112   8.509  0.1479 -0.6775 -0.3935
  890MOL0     C20042   5.195   2.156   8.579  0.8464 -1.0901 -0.3175
  890MOL0     C20043   5.092   2.230   8.509 -0.3251  0.1152  1.5753
  890MOL0     C20044   5.202   2.154   8.727  0.3293 -0.1509 -0.4738
  890MOL0     C20045   5.106   2.221   8.822 -0.0776 -0.0536 -0.0997
  890MOL0     O20046   5.007   2.293   8.770  0.3724 -0.3641 -0.5652
  890MOL0     C20047   4.900   2.353   8.842  0.5551 -0.1326 -0.7377
  890MOL0     C20048   4.857   2.319   8.970  0.3922  0.2793 -0.1703
  890MOL0     C20049   4.741   2.385   9.025  0.1984  0.9309 -0.9104
  890MOL0     C20050   4.649   2.448   8.941  0.5044  0.5172 -0.0252
  890MOL0     O20051   4.523   2.493   8.982  0.0757  0.0467 -0.5668
  890MOL0     C20052   4.489   2.500   9.125 -0.1098 -0.2166 -0.1857
  890MOL0     C20053   4.374   2.602   9.149  0.4053 -0.3963  0.2586
  890MOL0     C20054   4.240   2.581   9.066 -0.6099  0.1238  0.1915
  890MOL0     C20055   4.140   2.478   9.119  0.9962  0.7170  0.0811
  890MOL0     C20056   3.997   2.484   9.034 -0.6189  0.4356 -0.5391
  890MOL0     C20057   4.027   2.428   8.887 -0.2562  0.2471 -0.3765
  890MOL0     C20058   3.960   2.509   8.771 -0.4308 -0.0726  0.0203
  890MOL0     C20059   3.980   2.437   8.643 -0.6220  0.0621  0.8072
  890MOL0    Cl20060   3.854   2.507   8.550  0.0046 -0.5041  0.0596
  890MOL0     C20061   4.693   2.475   8.812 -0.1817 -0.2343  1.2269
  890MOL0     C20062   4.820   2.433   8.760  0.3137 -0.7237 -0.1368
  890MOL0     O20063   5.117   2.200   8.940 -0.3065  0.4498  0.4597
  890MOL0     C20064   5.316   2.090   8.786  0.8148  0.6904  0.5786
  890MOL0     C20065   5.415   2.033   8.714  0.5982 -0.2137 -0.0288
  890MOL0     N20066   5.962   2.057   8.845  0.3473 -0.0964  0.1020
  890MOL0     N20067   6.089   2.036   8.874 -0.7177  1.0270  1.2199
  890MOL0     C20068   6.871   1.286   9.101 -0.1447 -1.6329 -1.0158
  890MOL0     C20069   6.984   1.271   9.024 -0.4419 -0.8842  0.0923
  890MOL0     C20070   7.254   1.247   8.686 -0.4224  0.2811  0.5010
  890MOL0     C20071   7.353   1.344   8.733  0.7667  0.5630  0.9030
  890MOL0     C20072   7.483   1.337   8.682 -0.7534 -0.0238  0.5046
  890MOL0     C20073   7.511   1.250   8.573  0.0585  0.0972 -0.1161
  890MOL0     O20074   7.635   1.266   8.516  0.4875  0.3980 -0.2966
  890MOL0     C20075   7.684   1.184   8.412  0.2728  0.3098  0.9102
  890MOL0     C20076   7.807   1.239   8.344 -0.5218 -0.3885  0.1449
  890MOL0     C20077   7.871   1.132   8.254  0.5292  0.8623  0.2617
  890MOL0     C20078   8.027   1.145   8.234  0.0433 -0.3850 -0.1067
  890MOL0     C20079   8.070   1.249   8.143  1.1232 -1.0370 -0.1711
  890MOL0     C20080   8.108   1.341   8.071 -0.0878 -0.6654 -0.3174
  890MOL0     C20081   7.414   1.160   8.529  0.1774  0.3340 -1.5022
  890MOL0     C20082   7.281   1.156   8.586 -1.0339  0.0731 -0.0709
  890MOL0     H20083   6.914   1.475   8.765  2.0629  0.0242  0.5467
  890MOL0     H20084   6.704   1.519   8.916  0.9584  0.2667 -2.4619
  890MOL0     H20085   6.578   1.188   9.137  0.1395  1.3326 -1.5506
  890MOL0     H20086   6.651   1.233   9.291 -1.5855 -2.1723 -0.2261
  890MOL0     H20087   6.432   1.246   9.350  0.8952 -0.7077  0.3079
  890MOL0     H20088   6.471   1.411   9.314  1.3185 -0.6320 -1.0253
  890MOL0     H20089   6.293   1.229   9.135 -1.1280  0.4028 -0.0857
  890MOL0     H20090   6.246   1.355   9.238 -1.2041 -0.0166 -1.7496
  890MOL0     H20091   6.406   1.401   8.990  3.0923 -3.0503  2.4770
  890MOL0     H20092   6.236   1.433   9.031  0.5969  1.8598 -1.9673
  890MOL0     H20093   6.315   1.601   9.196  2.3966 -2.5678  3.6392
  890MOL0     H20094   6.489   1.572   9.153 -0.3319 -1.8154  0.0706
  890MOL0     H20095   6.454   1.752   9.018 -1.5739  0.0782  0.6706
  890MOL0     H20096   6.417   1.623   8.903  0.8277 -0.3368 -0.2793
  890MOL0     H20097   6.188   1.642   8.899 -2.3125 -1.1036  3.9403
  890MOL0     H20098   6.185   1.746   9.034 -1.1485 -0.4210 -0.2015
  890MOL0     H20099   6.297   1.819   8.767  2.1995  0.5790  1.0167
  890MOL0     H20100   6.332   1.911   8.909  0.6954  1.0466 -1.0758
  890MOL0     H20101   6.014   1.738   8.770  1.0302  0.2874  1.2424
  890MOL0     H20102   5.745   1.815   8.801  0.5153  0.8387  1.4950
  890MOL0     H20103   5.714   1.992   8.768  1.1420  1.0199  0.9960
  890MOL0     H20104   5.678   1.831   8.565  0.3525  0.5038 -1.4379
  890MOL0     H20105   5.855   1.830   8.559 -1.8640  0.2305 -2.8887
  890MOL0     H20106   5.761   1.978   8.418 -1.4281 -0.3223  0.2330
  890MOL0     H20107   5.871   2.068   8.532 -1.3618  2.4455  0.5619
  890MOL0     H20108   5.654   2.193   8.471  1.9632 -0.0009  0.6973
  890MOL0     H20109   5.662   2.148   8.640  2.0530 -0.8659  0.9876
  890MOL0     H20110   5.305   2.115   8.401 -3.5775 -1.7044 -0.4068
  890MOL0     H20111   4.991   2.188   8.512 -0.1797 -0.4691 -0.4062
  890MOL0     H20112   5.099   2.334   8.542 -0.4976  0.8428 -0.5591
  890MOL0     H20113   5.115   2.250   8.404  0.2970  0.2587  1.7361
  890MOL0     H20114   4.908   2.258   9.043  1.4089 -0.7712 -1.7156
  890MOL0     H20115   4.710   2.379   9.129 -0.5450 -0.1530 -1.1682
  890MOL0     H20116   4.463   2.399   9.159 -0.9421 -0.7816 -2.3673
  890MOL0     H20117   4.577   2.527   9.184  0.3038 -2.2923  0.2494
  890MOL0     H20118   4.346   2.613   9.254 -2.3526 -1.8596 -0.2326
  890MOL0     H20119   4.416   2.699   9.119  1.2913 -0.2594  1.8329
  890MOL0     H20120   4.267   2.581   8.960  0.8194 -1.5666  0.5111
  890MOL0     H20121   4.176   2.669   9.079  0.2265  0.5691  1.5603
  890MOL0     H20122   4.172   2.374   9.127  0.7235  0.2642 -3.4816
  890MOL0     H20123   4.105   2.492   9.222 -2.3577  1.3110 -1.0217
  890MOL0     H20124   3.968   2.590   9.034 -3.0297 -0.0876 -3.3753
  890MOL0     H20125   3.929   2.423   9.093  1.8783 -2.9830 -0.8789
  890MOL0     H20126   4.134   2.419   8.865 -0.2071  0.5329 -0.2490
  890MOL0     H20127   3.995   2.323   8.883 -0.1937  0.2242 -0.2657
  890MOL0     H20128   4.002   2.609   8.762  3.2380 -1.4283  0.2200
  890MOL0     H20129   3.854   2.520   8.797 -0.6503 -0.9608 -0.4380
  890MOL0     H20130   3.968   2.329   8.653 -3.6559  0.0769 -1.3553
  890MOL0     H20131   4.079   2.470   8.609 -1.5207  1.1050 -0.9381
  890MOL0     H20132   4.628   2.527   8.743 -1.2272 -1.8872  0.9128
  890MOL0     H20133   4.854   2.466   8.663 -1.8294  2.0892 -0.0726
  890MOL0     H20134   5.329   2.074   8.893 -4.3289 -1.1150  1.1926
  890MOL0     H20135   5.504   1.999   8.766 -1.0198 -1.8672  1.8283
  890MOL0     H20136   6.870   1.234   9.196 -2.2011  1.4363  0.8214
  890MOL0     H20137   7.054   1.194   9.054  1.1313  2.1454  5.4279
  890MOL0     H20138   7.319   1.399   8.820 -3.6809  0.3813 -0.4646
  890MOL0     H20139   7.561   1.396   8.730  0.4824 -0.0743 -1.3266
  890MOL0     H20140   7.688   1.081   8.450 -0.2320 -0.0557  0.0016
  890MOL0     H20141   7.603   1.185   8.339  0.2803 -2.9170  0.7140
  890MOL0     H20142   7.875   1.276   8.422  0.1571  0.0315 -0.6253
  890MOL0     H20143   7.771   1.321   8.281  2.0351 -0.9929 -2.3115
  890MOL0     H20144   7.825   1.132   8.155 -0.5297  2.0767  0.7180
  890MOL0     H20145   7.865   1.031   8.296  1.4242  0.6018 -0.2292
  890MOL0     H20146   8.072   1.055   8.192  0.4512  0.9288 -2.7351
  890MOL0     H20147   8.084   1.166   8.325  1.2648  2.2569 -1.3582
  890MOL0     H20148   8.159   1.403   8.001 -2.3613 -1.5772 -2.9743
  890MOL0     H20149   7.446   1.090   8.452  2.1816  0.1292 -0.5288
  890MOL0     H20150   7.208   1.085   8.547  0.5100 -0.0721 -3.0429
  891MOL0     O20151   6.551   1.439   4.557  0.2439 -0.2641  0.1484
  891MOL0     C20152   6.571   1.508   4.450  0.5405 -0.3094  0.5577
  891MOL0     O20153   6.476   1.567   4.368 -0.2750 -0.5481 -0.2954
  891MOL0     C20154   6.339   1.546   4.407  0.3665  0.6746  0.1192
  891MOL0     C20155   6.284   1.569   4.537  0.0549 -0.5373  0.4228
  891MOL0     C20156   6.148   1.569   4.550 -1.4534 -0.6360 -0.0377
  891MOL0     C20157   6.058   1.547   4.447 -0.2256 -0.4964 -0.3870
  891MOL0     O20158   5.922   1.530   4.459  0.3188  0.1869  0.5595
  891MOL0     C20159   5.858   1.541   4.590 -0.7536 -0.0018  0.7559
  891MOL0     C20160   5.725   1.482   4.556 -0.0341 -0.0496 -0.7744
  891MOL0     C20161   5.624   1.482   4.664 -0.1301 -0.2767 -0.1050
  891MOL0     C20162   5.620   1.350   4.731  0.1595  0.3440  0.7238
  891MOL0     C20163   5.506   1.342   4.829  1.9145  0.7495  0.0355
  891MOL0     C20164   5.497   1.211   4.907  0.6134  0.6376 -0.0886
  891MOL0     C20165   5.409   1.205   5.039  0.5804  0.3896 -0.2332
  891MOL0     C20166   5.386   1.065   5.090  0.5686 -0.0634  0.3051
  891MOL0     N20167   5.295   1.077   5.206  0.6949  0.5982  0.5379
  891MOL0     C20168   5.328   1.085   5.336 -0.6242 -0.0094  0.6970
  891MOL0     C20169   5.202   1.077   5.393 -1.2636 -0.0264 -0.7430
  891MOL0     C20170   5.196   1.061   5.537  0.1064 -0.3307 -0.2492
  891MOL0     C20171   5.092   1.145   5.615  0.5193  0.7034  0.0302
  891MOL0     C20172   5.083   1.116   5.762  0.1472  0.4645  0.0648
  891MOL0     C20173   4.961   1.199   5.824 -0.4890  0.0801  0.1613
  891MOL0     O20174   4.846   1.120   5.817 -0.8738 -0.4674  0.0299
  891MOL0     C20175   4.729   1.168   5.874 -0.0274  0.2473  0.3722
  891MOL0     C20176   4.643   1.078   5.932 -0.1951  0.0409 -0.2395
  891MOL0     C20177   4.518   1.117   5.991  1.1614  0.5303  0.3136
  891MOL0     C20178   4.421   1.014   6.029 -0.1261  0.1228 -0.1357
  891MOL0     C20179   4.480   1.255   5.989 -0.4576  0.1973  0.7064
  891MOL0     C20180   4.355   1.317   6.046  0.5148  0.1300 -0.2139
  891MOL0     O20181   4.313   1.441   5.998 -0.4659  0.4018  0.0067
  891MOL0     C20182   4.190   1.496   6.032  1.5598  0.1191 -0.5502
  891MOL0     C20183   4.102   1.463   6.142  0.5414 -0.4235  0.4612
  891MOL0     C20184   3.976   1.515   6.161  1.1661 -0.5964 -0.2811
  891MOL0     C20185   3.932   1.610   6.068  0.3409 -0.0556  0.3706
  891MOL0     O20186   3.820   1.686   6.093  0.6078  1.2465 -0.4153
  891MOL0     C20187   3.778   1.781   5.989  0.1253  0.4871  0.6305
  891MOL0     C20188   3.642   1.833   6.021 -0.1186 -0.1169  0.4242
  891MOL0     C20189   3.573   1.893   5.895  0.0183 -0.1854 -0.3524
  891MOL0     C20190   3.429   1.941   5.920  0.9995  0.7744 -0.2302
  891MOL0     C20191   3.355   1.964   5.783 -0.2297 -0.7837 -0.3721
  891MOL0     C20192   3.212   2.029   5.795  0.5709  0.4331  0.4813
  891MOL0     C20193   3.147   2.046   5.651 -0.3184 -0.5852 -0.2382
  891MOL0     C20194   3.222   2.163   5.573 -0.9778  1.3040 -1.1734
  891MOL0    Cl20195   3.147   2.185   5.414 -0.3726 -0.1377 -0.1885
  891MOL0     C20196   4.020   1.649   5.956 -0.8207  0.0489 -0.7196
  891MOL0     C20197   4.147   1.598   5.948 -0.4915 -0.4079 -0.3093
  891MOL0     O20198   4.298   1.256   6.132  0.1575 -0.0175 -0.5038
  891MOL0     C20199   4.581   1.349   5.948 -0.2492 -0.2663  0.2377
  891MOL0     C20200   4.705   1.305   5.890 -0.3206 -0.2899 -0.5394
  891MOL0     N20201   5.103   1.065   5.298 -0.5920  0.3323 -0.8761
  891MOL0     N20202   5.164   1.049   5.187  0.4295 -0.3707 -0.8173
  891MOL0     C20203   6.114   1.519   4.326 -0.7021  0.0980  0.0436
  891MOL0     C20204   6.253   1.514   4.302 -0.6042 -0.0562  0.2111
  891MOL0     C20205   6.708   1.556   4.424  0.4230  0.1642  0.5977
  891MOL0     C20206   6.805   1.546   4.522 -0.3124  1.0486  0.0808
  891MOL0     C20207   6.939   1.577   4.505  0.0611  0.9028  0.1614
  891MOL0     C20208   6.972   1.618   4.374  0.0355 -0.0090  0.3779
  891MOL0     O20209   7.097   1.662   4.343 -0.6502  0.3272 -0.7002
  891MOL0     C20210   7.210   1.657   4.432 -0.4420 -0.3942  0.8715
  891MOL0     C20211   7.335   1.679   4.345  0.9630  0.2810 -0.5774
  891MOL0     C20212   7.332   1.815   4.265 -0.0914  0.9207 -0.2735
  891MOL0     C20213   7.461   1.849   4.193  0.2425 -0.1768 -0.0195
  891MOL0     C20214   7.501   1.749   4.094 -0.0682  0.2598 -0.4425
  891MOL0     C20215   7.541   1.688   3.995  0.0699  0.2279 -0.9693
  891MOL0     C20216   6.878   1.623   4.269  0.0695  0.2725  0.1717
  891MOL0     C20217   6.753   1.589   4.297  0.3420  0.2915  0.3673
  891MOL0     H20218   6.351   1.588   4.620 -1.9492  1.0897  1.7765
  891MOL0     H20219   6.112   1.573   4.653 -3.8026  1.7677 -0.8253
  891MOL0     H20220   5.917   1.487   4.665  0.2913  1.9480  1.3918
  891MOL0     H20221   5.842   1.644   4.623 -1.3531 -0.3073  1.4348
  891MOL0     H20222   5.686   1.532   4.467  0.3069 -3.0588 -2.7343
  891MOL0     H20223   5.741   1.380   4.522 -3.4659 -0.7814 -0.5630
  891MOL0     H20224   5.645   1.555   4.742 -1.0035  0.0439 -0.1565
  891MOL0     H20225   5.527   1.508   4.621  0.8764  1.1426 -1.6145
  891MOL0     H20226   5.602   1.271   4.657  2.1317  0.7265 -0.2340
  891MOL0     H20227   5.717   1.336   4.779 -0.3006  0.5983  1.7638
  891MOL0     H20228   5.513   1.427   4.897  0.5156 -0.6426  2.0228
  891MOL0     H20229   5.413   1.344   4.772  1.5157  5.5153  0.5199
  891MOL0     H20230   5.451   1.146   4.833  0.0292  1.6958 -0.6828
  891MOL0     H20231   5.592   1.179   4.951  0.7308  2.2477  0.9214
  891MOL0     H20232   5.456   1.267   5.116 -1.2784  0.9814  0.4996
  891MOL0     H20233   5.313   1.252   5.013 -1.1300 -2.8263 -0.2795
  891MOL0     H20234   5.482   1.015   5.106  1.0596  0.5213 -0.7491
  891MOL0     H20235   5.332   1.009   5.013 -0.3861  0.8452  0.2948
  891MOL0     H20236   5.428   1.081   5.378  0.3732  1.9379 -1.2623
  891MOL0     H20237   5.180   0.955   5.554  2.2229 -1.0274 -2.1096
  891MOL0     H20238   5.298   1.072   5.577 -0.2991 -1.8324  1.3029
  891MOL0     H20239   4.995   1.128   5.569 -0.2190 -0.0271  1.7472
  891MOL0     H20240   5.112   1.252   5.611 -2.6792  1.5899  3.1762
  891MOL0     H20241   5.171   1.150   5.818  2.0051 -3.0189 -0.4381
  891MOL0     H20242   5.060   1.011   5.783 -2.7177  0.6693 -1.5923
  891MOL0     H20243   4.955   1.295   5.771  0.2682  2.0221  3.2875
  891MOL0     H20244   4.990   1.221   5.928  1.4415  0.6331 -0.4429
  891MOL0     H20245   4.668   0.973   5.941  2.2881  0.5861 -0.1778
  891MOL0     H20246   4.410   1.012   6.137  1.7453 -0.9086  0.0710
  891MOL0     H20247   4.321   1.034   5.990 -1.1285  0.0873  2.2710
  891MOL0     H20248   4.460   0.921   5.986  1.3946  0.6220  0.1145
  891MOL0     H20249   4.145   1.395   6.215 -0.0809 -4.2984 -2.4680
  891MOL0     H20250   3.917   1.478   6.245  0.8169  2.6244  1.0296
  891MOL0     H20251   3.840   1.871   5.988  1.1422 -0.1982 -0.5137
  891MOL0     H20252   3.793   1.723   5.898 -0.1128 -1.7693  1.9290
  891MOL0     H20253   3.585   1.742   6.039  0.3279 -1.0273 -2.3102
  891MOL0     H20254   3.646   1.900   6.108  0.2792  0.8670 -0.3241
  891MOL0     H20255   3.584   1.819   5.816 -1.3205 -1.1462  0.3228
  891MOL0     H20256   3.631   1.976   5.854  0.6880 -0.9363 -0.9655
  891MOL0     H20257   3.369   1.865   5.972 -2.5324  3.4728 -0.0229
  891MOL0     H20258   3.417   2.029   5.984 -0.5948 -0.3232  1.0756
  891MOL0     H20259   3.359   1.874   5.721  2.3173  0.0334 -1.5362
  891MOL0     H20260   3.421   2.040   5.740 -0.6248  1.5228  2.7474
  891MOL0     H20261   3.138   1.972   5.852  0.3632 -0.2679 -0.4781
  891MOL0     H20262   3.222   2.128   5.842  0.0858  2.8766 -3.9971
  891MOL0     H20263   3.042   2.075   5.647 -0.2315  0.1185  1.5839
  891MOL0     H20264   3.153   1.945   5.609  1.5373 -0.7784  0.4063
  891MOL0     H20265   3.325   2.140   5.545 -1.1589  0.1783 -0.9699
  891MOL0     H20266   3.219   2.254   5.633 -4.2777  0.2982  0.4525
  891MOL0     H20267   3.986   1.724   5.886 -3.4929  0.4657  0.9188
  891MOL0     H20268   4.215   1.627   5.869 -1.3539  2.0160 -0.2304
  891MOL0     H20269   4.563   1.455   5.963  3.0377  0.5967 -1.0844
  891MOL0     H20270   4.773   1.387   5.864 -0.7989  0.5308  0.7173
  891MOL0     H20271   6.045   1.502   4.243 -0.6433  1.2004 -0.2381
  891MOL0     H20272   6.295   1.508   4.202  2.7454  2.3677  1.2799
  891MOL0     H20273   6.779   1.509   4.620 -4.5307  0.3892 -1.1116
  891MOL0     H20274   7.011   1.569   4.585  0.4849 -1.7913 -0.3808
  891MOL0     H20275   7.202   1.744   4.498  2.2654  0.2983  0.4292
  891MOL0     H20276   7.220   1.566   4.493  0.1832  0.6582  2.4092
  891MOL0     H20277   7.345   1.594   4.277  0.2809  1.5279 -2.3007
  891MOL0     H20278   7.427   1.670   4.404  0.3040 -3.1891  0.1794
  891MOL0     H20279   7.297   1.898   4.327 -1.4949 -1.0740  1.7880
  891MOL0     H20280   7.259   1.800   4.185 -2.0340  0.9192  1.4259
  891MOL0     H20281   7.538   1.844   4.270 -1.0717 -0.8959  1.2909
  891MOL0     H20282   7.462   1.949   4.149  0.4246 -0.5394 -0.8579
  891MOL0     H20283   7.579   1.641   3.907  0.1035 -0.6820 -0.4865
  891MOL0     H20284   6.911   1.660   4.173 -0.3209 -1.5645 -0.7189
  891MOL0     H20285   6.695   1.603   4.206  2.4175  1.7857 -0.7993
  892MOL0     O20286   4.220  10.905   5.278  0.3259  0.9141  0.6347
  892MOL0     C20287   4.215  10.908   5.399 -0.2692  0.5761  0.3844
  892MOL0     O20288   4.108  10.922   5.472  0.6836 -0.1522  0.1797
  892MOL0     C20289   3.984  10.910   5.423  0.2578  0.1417  0.0972
  892MOL0     C20290   3.943  10.795   5.351 -0.5943  0.0425 -0.9699
  892MOL0     C20291   3.807  10.776   5.316 -0.2725  0.2061  0.2309
  892MOL0     C20292   3.717  10.872   5.361 -1.1845  0.0154  0.3642
  892MOL0     O20293   3.578  10.867   5.341 -0.1683  0.2578 -0.5193
  892MOL0     C20294   3.501  10.819   5.463  0.0369 -0.2929  0.4975
  892MOL0     C20295   3.350  10.808   5.440  0.0495  0.0550  0.5827
  892MOL0     C20296   3.270  10.943   5.430 -0.1956 -0.3849  0.1530
  892MOL0     C20297   3.245  10.993   5.282 -0.1589  0.7127  0.6845
  892MOL0     C20298   3.125  10.924   5.213 -0.3330 -0.7210  0.2217
  892MOL0     C20299   2.990  10.985   5.260  0.3321 -0.4378  0.0995
  892MOL0     C20300   2.857  10.916   5.212  0.4842 -0.5517 -0.0296
  892MOL0     C20301   2.826  10.783   5.282 -0.4072  0.0077  0.0725
  892MOL0     N20302   2.764  10.805   5.414 -0.1119  0.4518 -0.6441
  892MOL0     C20303   2.634  10.853   5.438  0.0149 -0.1756  1.2968
  892MOL0     C20304   2.602  10.835   5.568 -0.9172  0.7411 -0.6557
  892MOL0     C20305   2.476  10.856   5.638  0.0296  0.1333 -0.6584
  892MOL0     C20306   2.431  10.714   5.697 -0.2333  0.2997  0.5194
  892MOL0     C20307   2.386  10.617   5.590 -0.0706 -0.6346  0.5597
  892MOL0     C20308   2.271  10.665   5.494  0.9265  0.0721 -0.0628
  892MOL0     O20309   2.152  10.723   5.559  0.2525  0.1633  0.1785
  892MOL0     C20310   2.030  10.703   5.503  0.2666 -1.1492  0.1279
  892MOL0     C20311   1.953  10.821   5.478  0.1392  0.6540 -0.3619
  892MOL0     C20312   1.812  10.810   5.443 -0.5446 -0.3839  0.2256
  892MOL0     C20313   1.731  10.937   5.408 -0.1001 -0.2385  0.0334
  892MOL0     C20314   1.761  10.686   5.421  0.3820  0.7772 -0.9227
  892MOL0     C20315   1.617  10.668   5.386 -0.2541  0.1667  0.8854
  892MOL0     O20316   1.515  10.707   5.467  0.2672  0.2987 -0.0372
  892MOL0     C20317   1.394  10.701   5.412  0.6523 -0.7809  0.2198
  892MOL0     C20318   1.336  10.813   5.352 -0.2924  0.2355  0.6954
  892MOL0     C20319   1.212  10.805   5.289  0.2722 -0.1740 -0.2893
  892MOL0     C20320   1.147  10.680   5.281  0.0185 -0.0067  0.2223
  892MOL0     O20321   1.024  10.687   5.231  0.6571  0.5424 -0.4802
  892MOL0     C20322   0.966  10.562   5.185  0.2150 -0.0944 -0.5028
  892MOL0     C20323   0.818  10.586   5.141  0.2964 -0.3030 -0.2623
  892MOL0     C20324   0.775  10.641   5.004  0.4420  0.9094  0.9402
  892MOL0     C20325   0.675  10.763   4.984 -0.8657  0.1916 -0.6456
  892MOL0     C20326   0.552  10.760   5.077 -0.0748 -0.0062 -0.0894
  892MOL0     C20327   0.474  10.630   5.046 -0.0351 -0.4802  0.1769
  892MOL0     C20328   0.329  10.626   5.098  0.2958 -0.2805  0.9948
  892MOL0     C20329   0.262  10.493   5.062  0.0539  0.0455 -0.3972
  892MOL0    Cl20330   0.271  10.456   4.881  0.4559 -0.2631  0.0133
  892MOL0     C20331   1.214  10.561   5.322  0.6626 -0.0290  0.2734
  892MOL0     C20332   1.333  10.576   5.388 -0.4891  0.7381  0.3355
  892MOL0     O20333   1.611  10.614   5.275  0.2713  0.0569 -0.1879
  892MOL0     C20334   1.837  10.573   5.444 -0.6840 -0.5541  0.0867
  892MOL0     C20335   1.968  10.581   5.487  0.8591 -0.0852 -0.8402
  892MOL0     N20336   2.714  10.791   5.626  0.2215  0.6683  0.2356
  892MOL0     N20337   2.807  10.777   5.540 -0.6541  0.3468  0.6230
  892MOL0     C20338   3.760  10.982   5.432  0.3879 -0.9719 -0.2614
  892MOL0     C20339   3.894  11.004   5.457  0.1399  0.6856 -0.0738
  892MOL0     C20340   4.347  10.910   5.474 -0.2210  0.1134 -0.2546
  892MOL0     C20341   4.362  10.927   5.612  0.3221 -0.1235  0.2797
  892MOL0     C20342   4.478  10.920   5.678  0.2281 -0.8878  0.5072
  892MOL0     C20343   4.601  10.905   5.613  0.5955  0.0567 -0.0721
  892MOL0     O20344   4.712  10.909   5.694  0.7803 -0.2505  0.0728
  892MOL0     C20345   4.840  10.924   5.630  0.0398 -0.4403 -0.1110
  892MOL0     C20346   4.948  10.970   5.727  0.4547  0.0063  0.8071
  892MOL0     C20347   4.945  10.917   5.873  0.2402 -0.1690  0.1956
  892MOL0     C20348   5.075  10.940   5.943  0.5565 -0.1845  0.1579
  892MOL0     C20349   5.067  10.856   6.064 -0.0891 -0.9933 -0.4151
  892MOL0     C20350   5.062  10.770   6.157 -0.4322  0.2206 -0.0531
  892MOL0     C20351   4.589  10.889   5.474 -1.0115 -0.6887  0.2843
  892MOL0     C20352   4.467  10.886   5.406 -0.3811 -0.5388 -0.2116
  892MOL0     H20353   4.020  10.728   5.313 -1.6041 -0.5972 -1.9524
  892MOL0     H20354   3.760  10.695   5.261  0.1146 -0.1703  0.4520
  892MOL0     H20355   3.550  10.730   5.503  2.5010  0.3510 -0.9290
  892MOL0     H20356   3.516  10.891   5.544  1.5255 -2.9554  2.7735
  892MOL0     H20357   3.324  10.749   5.351 -1.9319  0.1434  1.0489
  892MOL0     H20358   3.300  10.750   5.519 -1.2190 -0.9774 -0.9227
  892MOL0     H20359   3.172  10.928   5.475 -0.1746 -2.0128 -0.2714
  892MOL0     H20360   3.325  11.023   5.481 -2.1558  0.3356  1.2509
  892MOL0     H20361   3.231  11.102   5.281  0.4180  0.8019 -1.0379
  892MOL0     H20362   3.334  10.982   5.220 -1.0210 -0.1658 -0.4550
  892MOL0     H20363   3.126  10.922   5.103  1.6415  2.1838  0.0662
  892MOL0     H20364   3.121  10.817   5.234  2.8144 -0.6226  2.0320
  892MOL0     H20365   2.995  10.979   5.369 -0.8482 -0.5425  0.1675
  892MOL0     H20366   2.996  11.088   5.222  1.3135 -1.1001 -1.6285
  892MOL0     H20367   2.766  10.975   5.227  0.9471  0.0242  0.5608
  892MOL0     H20368   2.873  10.898   5.105  1.3245 -0.5505  0.0888
  892MOL0     H20369   2.921  10.730   5.293  0.2954  0.4257 -2.9338
  892MOL0     H20370   2.760  10.720   5.221 -0.5339  2.9102 -3.1146
  892MOL0     H20371   2.562  10.878   5.362 -2.7782 -0.9812  3.5047
  892MOL0     H20372   2.493  10.920   5.725 -1.6275  0.3330 -0.4482
  892MOL0     H20373   2.405  10.907   5.573 -0.3673  1.2679  0.6146
  892MOL0     H20374   2.344  10.727   5.762 -0.7898 -0.4651 -0.0545
  892MOL0     H20375   2.507  10.678   5.768  0.5832 -0.0972 -0.5320
  892MOL0     H20376   2.351  10.525   5.638 -0.6844  0.0830  1.5156
  892MOL0     H20377   2.472  10.593   5.526  1.8142  1.2369  2.2282
  892MOL0     H20378   2.235  10.591   5.421  0.1353  1.0986 -0.7476
  892MOL0     H20379   2.308  10.749   5.435  0.5029 -0.8685 -1.7432
  892MOL0     H20380   1.993  10.922   5.479 -1.2330  1.2310 -0.3536
  892MOL0     H20381   1.653  10.947   5.484  0.5615 -1.6054  0.9260
  892MOL0     H20382   1.784  11.032   5.395  0.1034 -0.6048 -2.1065
  892MOL0     H20383   1.673  10.934   5.315 -0.7286 -1.5939  0.4543
  892MOL0     H20384   1.382  10.912   5.355  0.1017  0.1987 -1.8714
  892MOL0     H20385   1.155  10.885   5.242 -0.4692 -1.1192 -1.0343
  892MOL0     H20386   1.019  10.530   5.094  0.9489 -0.3549  0.0001
  892MOL0     H20387   0.943  10.492   5.266 -2.0875 -0.4118 -1.3601
  892MOL0     H20388   0.776  10.485   5.137 -0.6600  0.1078 -1.0336
  892MOL0     H20389   0.777  10.643   5.225 -0.5172  1.8446 -2.0026
  892MOL0     H20390   0.739  10.563   4.935  1.5989  2.1147 -1.1496
  892MOL0     H20391   0.867  10.669   4.952  0.6033  0.0050  0.7294
  892MOL0     H20392   0.737  10.853   4.998 -2.4273  1.0016  1.7533
  892MOL0     H20393   0.643  10.776   4.880  0.0203  0.3009 -0.9173
  892MOL0     H20394   0.504  10.854   5.049 -1.1836 -0.0374  1.6045
  892MOL0     H20395   0.586  10.754   5.181  3.3571  1.7457 -0.9383
  892MOL0     H20396   0.481  10.597   4.942  2.0603  0.2874  0.0289
  892MOL0     H20397   0.519  10.549   5.103 -1.5583  1.0316  3.8135
  892MOL0     H20398   0.269  10.708   5.056 -1.8291 -1.3324  1.8330
  892MOL0     H20399   0.324  10.640   5.207 -3.2436  3.2901  0.6008
  892MOL0     H20400   0.160  10.498   5.103  0.6843  0.8539  1.1510
  892MOL0     H20401   0.318  10.417   5.117 -0.7089 -1.3332 -1.4529
  892MOL0     H20402   1.158  10.468   5.313 -0.5270  0.8805 -5.1996
  892MOL0     H20403   1.383  10.485   5.419 -0.0774  0.3737 -1.3246
  892MOL0     H20404   1.803  10.471   5.428 -1.3519  0.0594 -2.9296
  892MOL0     H20405   2.023  10.492   5.518 -1.5991 -1.4893 -0.2493
  892MOL0     H20406   3.694  11.063   5.460  0.4241 -1.2514  0.7064
  892MOL0     H20407   3.931  11.097   5.500  1.1737  0.4888 -0.5137
  892MOL0     H20408   4.271  10.937   5.671 -0.7430  0.7884 -1.4291
  892MOL0     H20409   4.472  10.918   5.787  0.3671 -4.4492  0.5640
  892MOL0     H20410   4.863  10.828   5.583  2.8620  1.2888 -2.6215
  892MOL0     H20411   4.820  11.002   5.556 -0.6522 -0.4870  0.0200
  892MOL0     H20412   4.928  11.078   5.732 -2.7627 -0.3191 -1.5699
  892MOL0     H20413   5.042  10.946   5.676 -1.2808 -2.9940 -1.3334
  892MOL0     H20414   4.912  10.813   5.874  1.5639 -0.6134  1.4560
  892MOL0     H20415   4.874  10.973   5.936  1.0094  0.1691  0.7706
  892MOL0     H20416   5.081  11.044   5.979  0.5660 -0.6482  1.5647
  892MOL0     H20417   5.155  10.897   5.882 -0.7088 -2.1419 -0.2115
  892MOL0     H20418   5.069  10.691   6.229 -2.2829 -0.9430 -1.0732
  892MOL0     H20419   4.684  10.879   5.422 -0.9365  0.8311  0.0897
  892MOL0     H20420   4.459  10.872   5.299 -0.2255  3.0818 -0.8237
  893MOL0     O20421   8.738   4.910   7.779 -0.1251  0.3638  0.0322
  893MOL0     C20422   8.735   4.961   7.894  1.3140 -0.3992  0.2844
  893MOL0     O20423   8.620   4.989   7.964 -0.5287  0.0066  0.6156
  893MOL0     C20424   8.493   4.994   7.908  0.3414 -0.4968  0.6433
  893MOL0     C20425   8.388   4.982   7.996 -0.2995 -1.2269 -0.0850
  893MOL0     C20426   8.256   4.979   7.955  0.6205  0.7967 -1.4370
  893MOL0     C20427   8.218   5.002   7.823 -0.1770  0.7961 -0.2557
  893MOL0     O20428   8.086   5.012   7.774 -0.1837 -0.8433 -0.2956
  893MOL0     C20429   7.981   5.069   7.846 -0.0857 -0.7222 -0.3643
  893MOL0     C20430   7.847   4.985   7.824 -0.3325  0.4422  0.6035
  893MOL0     C20431   7.865   4.841   7.884  0.4556  0.1417  0.3251
  893MOL0     C20432   7.736   4.763   7.906 -0.1629 -0.4703 -0.1827
  893MOL0     C20433   7.646   4.769   7.777  0.1542  0.2477 -0.5982
  893MOL0     C20434   7.546   4.657   7.775 -0.3389  0.7043  0.2320
  893MOL0     C20435   7.461   4.648   7.646  1.0759  0.3806 -0.0600
  893MOL0     C20436   7.424   4.793   7.578 -0.8843 -0.0896 -0.6738
  893MOL0     N20437   7.317   4.785   7.477 -0.9130 -0.7355 -0.4936
  893MOL0     C20438   7.270   4.893   7.400  0.7504 -0.4869  0.3809
  893MOL0     C20439   7.189   4.832   7.308  0.6014  0.3368 -0.7594
  893MOL0     C20440   7.135   4.898   7.183  0.7017  0.0786 -0.9629
  893MOL0     C20441   7.172   5.045   7.147 -0.2237  0.3600 -0.5512
  893MOL0     C20442   7.116   5.154   7.245  0.7342  0.2026 -0.2798
  893MOL0     C20443   6.960   5.150   7.270  0.3154  1.0463  0.6119
  893MOL0     O20444   6.917   5.279   7.331  0.8108 -0.1985 -0.6767
  893MOL0     C20445   6.791   5.284   7.405 -0.3639 -0.7388 -0.2563
  893MOL0     C20446   6.789   5.381   7.506 -0.2206 -0.1968  0.2296
  893MOL0     C20447   6.675   5.387   7.590 -0.2783  0.0507 -0.8882
  893MOL0     C20448   6.667   5.499   7.686 -0.4852 -1.0420  0.7723
  893MOL0     C20449   6.569   5.301   7.568  0.2807  0.1540  1.0889
  893MOL0     C20450   6.444   5.299   7.645 -0.0677 -0.3207 -0.2959
  893MOL0     O20451   6.469   5.280   7.776 -0.2871  0.6550 -0.9323
  893MOL0     C20452   6.374   5.226   7.862  0.4961  0.4877  1.3612
  893MOL0     C20453   6.269   5.143   7.824 -0.8375 -0.0720  0.3682
  893MOL0     C20454   6.177   5.096   7.918  0.8987 -0.0837 -0.1246
  893MOL0     C20455   6.183   5.140   8.048  0.1090 -0.8366 -0.1517
  893MOL0     O20456   6.111   5.113   8.155 -0.5190 -0.7474  0.5815
  893MOL0     C20457   5.977   5.068   8.140  0.7601 -0.2060  0.2565
  893MOL0     C20458   5.950   4.979   8.264  0.6709  0.8495  0.5046
  893MOL0     C20459   5.802   4.927   8.257 -0.5478 -0.8649 -0.0575
  893MOL0     C20460   5.786   4.831   8.372 -0.7536 -0.3414 -0.3005
  893MOL0     C20461   5.648   4.773   8.394  0.7468 -0.3118  1.1252
  893MOL0     C20462   5.593   4.694   8.271  0.1231  0.3908  0.5578
  893MOL0     C20463   5.509   4.775   8.175 -0.5901  0.7408 -0.0186
  893MOL0     C20464   5.507   4.722   8.032 -0.6269 -1.6845  0.2493
  893MOL0    Cl20465   5.507   4.551   8.001 -0.1684  0.1112  0.0907
  893MOL0     C20466   6.285   5.224   8.082 -0.1952  0.6890 -0.4195
  893MOL0     C20467   6.381   5.265   7.988  0.5705 -0.3963 -0.6368
  893MOL0     O20468   6.337   5.292   7.587  0.2498 -0.0003 -0.0784
  893MOL0     C20469   6.571   5.212   7.459  0.0524  0.1208  1.3511
  893MOL0     C20470   6.683   5.201   7.375 -0.0376 -0.9428  0.1043
  893MOL0     N20471   7.177   4.697   7.338  0.1844  1.0176 -0.4838
  893MOL0     N20472   7.242   4.679   7.446  0.4639  0.2290  0.2496
  893MOL0     C20473   8.322   5.028   7.735 -0.2030 -0.4728 -0.6657
  893MOL0     C20474   8.455   5.030   7.774  0.3504  1.4923 -0.6735
  893MOL0     C20475   8.864   4.959   7.972 -0.3504  0.6129 -0.4415
  893MOL0     C20476   8.866   5.035   8.088  0.3248  0.8482  0.6663
  893MOL0     C20477   8.986   5.076   8.138 -0.4042 -0.4446 -0.7431
  893MOL0     C20478   9.111   5.041   8.090  0.9344 -0.4543 -0.7917
  893MOL0     O20479   9.222   5.109   8.142 -0.3948 -0.3015  0.0353
  893MOL0     C20480   9.351   5.058   8.109  0.0894  0.3444  0.4538
  893MOL0     C20481   9.366   4.927   8.181 -0.3214  0.0214  0.0384
  893MOL0     C20482   9.359   4.959   8.331  0.9999 -0.0599 -0.4379
  893MOL0     C20483   9.394   4.829   8.410 -0.0909 -0.1414  0.7249
  893MOL0     C20484   9.517   4.757   8.371 -0.4761 -0.8275  1.4122
  893MOL0     C20485   9.613   4.710   8.328 -0.3215  0.0390 -0.4265
  893MOL0     C20486   9.110   4.958   7.980 -0.1072  0.0545 -0.1732
  893MOL0     C20487   8.990   4.905   7.923 -0.0143  0.9642 -0.0691
  893MOL0     H20488   8.428   4.976   8.097  2.5675  2.4437 -0.7987
  893MOL0     H20489   8.180   4.966   8.032  1.4849  2.3609 -0.2463
  893MOL0     H20490   8.005   5.055   7.952 -0.9225 -4.6181 -0.5675
  893MOL0     H20491   7.956   5.176   7.840 -1.3859 -0.9321  0.7405
  893MOL0     H20492   7.763   5.035   7.873 -0.4478  0.7615  0.0950
  893MOL0     H20493   7.838   4.983   7.715 -0.4455  1.4896  0.5847
  893MOL0     H20494   7.927   4.784   7.815 -0.5464 -1.4661  0.7091
  893MOL0     H20495   7.925   4.835   7.975  0.9740  1.8536  0.1331
  893MOL0     H20496   7.765   4.660   7.927 -1.4978 -0.8015  0.1103
  893MOL0     H20497   7.678   4.795   7.993 -0.4826  3.2957 -1.5905
  893MOL0     H20498   7.583   4.857   7.793 -2.7483 -1.5102 -1.6173
  893MOL0     H20499   7.711   4.769   7.689  2.9364 -2.5071  1.2185
  893MOL0     H20500   7.587   4.559   7.799 -0.8858 -0.6393 -3.6446
  893MOL0     H20501   7.471   4.680   7.852 -1.1952  0.6168 -0.5669
  893MOL0     H20502   7.509   4.576   7.580  0.7029 -0.1272  0.2164
  893MOL0     H20503   7.366   4.599   7.670  0.4413  1.1508 -0.9017
  893MOL0     H20504   7.513   4.852   7.552 -0.3353 -0.8029 -0.4556
  893MOL0     H20505   7.375   4.845   7.661  0.6207 -1.5030  1.1914
  893MOL0     H20506   7.308   4.995   7.402  5.0775 -1.7941 -2.3384
  893MOL0     H20507   7.163   4.831   7.101  0.6937 -2.3227  0.8999
  893MOL0     H20508   7.027   4.894   7.198  0.7769  0.6656 -0.2136
  893MOL0     H20509   7.131   5.060   7.047  0.6489  2.2593 -0.6783
  893MOL0     H20510   7.281   5.051   7.152 -0.2399  0.3802  3.9438
  893MOL0     H20511   7.138   5.246   7.190  0.2677  0.1957 -0.4857
  893MOL0     H20512   7.164   5.158   7.343 -0.8577  0.8761  0.5010
  893MOL0     H20513   6.941   5.073   7.345  1.5895 -1.3751 -1.4111
  893MOL0     H20514   6.902   5.136   7.178  3.2360  0.1970 -1.2261
  893MOL0     H20515   6.874   5.446   7.522  0.1234 -0.2493 -1.2752
  893MOL0     H20516   6.654   5.470   7.790  3.5647  1.2816  2.1265
  893MOL0     H20517   6.758   5.559   7.680 -0.3005 -1.4193 -2.7813
  893MOL0     H20518   6.577   5.556   7.660  0.3240 -0.5591 -1.1717
  893MOL0     H20519   6.256   5.109   7.722 -0.0963  2.1159 -0.5034
  893MOL0     H20520   6.097   5.030   7.886  1.5357 -1.3810  0.8477
  893MOL0     H20521   5.909   5.153   8.131  0.5678 -0.3100  0.6857
  893MOL0     H20522   5.955   5.004   8.055 -0.7515  0.7419 -0.0985
  893MOL0     H20523   6.016   4.893   8.258  0.7085  0.9767 -2.3426
  893MOL0     H20524   5.970   5.040   8.353 -0.1012 -0.0929  1.3556
  893MOL0     H20525   5.785   4.891   8.155  1.0823 -1.0973 -0.2683
  893MOL0     H20526   5.747   5.021   8.267  1.4917  0.1331  3.4556
  893MOL0     H20527   5.854   4.746   8.365  1.2785  1.2878 -1.2806
  893MOL0     H20528   5.807   4.884   8.465 -0.8025 -1.6552  0.4774
  893MOL0     H20529   5.576   4.853   8.414 -0.7591 -1.5539  0.8258
  893MOL0     H20530   5.650   4.709   8.482 -2.2849 -2.6085 -0.2931
  893MOL0     H20531   5.676   4.659   8.209 -0.6285  1.8771 -1.3891
  893MOL0     H20532   5.530   4.609   8.299 -1.5058  1.5684  0.5939
  893MOL0     H20533   5.533   4.881   8.167  0.3166  0.4371 -1.8658
  893MOL0     H20534   5.408   4.767   8.216 -0.7894 -1.4303 -0.7943
  893MOL0     H20535   5.591   4.772   7.982  1.0444 -2.3138  2.2857
  893MOL0     H20536   5.417   4.774   7.998 -0.0002  1.0602  2.4088
  893MOL0     H20537   6.290   5.258   8.185 -0.2262  0.1396 -0.2347
  893MOL0     H20538   6.464   5.330   8.014 -0.8767  0.8727  1.0057
  893MOL0     H20539   6.479   5.156   7.449 -0.0829  0.2976  1.6005
  893MOL0     H20540   6.684   5.134   7.290  2.6674  1.0640 -1.6282
  893MOL0     H20541   8.307   5.042   7.628  2.5448  0.3194 -1.0312
  893MOL0     H20542   8.530   5.049   7.698 -0.0393  0.0217 -1.4569
  893MOL0     H20543   8.786   5.081   8.144  1.0584  0.4810  2.0584
  893MOL0     H20544   8.993   5.156   8.211 -1.3556 -0.0037 -1.1174
  893MOL0     H20545   9.361   5.053   8.001  1.1114  0.2146  0.5466
  893MOL0     H20546   9.427   5.130   8.141  0.2479  0.3682  0.0302
  893MOL0     H20547   9.462   4.879   8.156 -0.8595 -2.0381  1.5861
  893MOL0     H20548   9.285   4.858   8.157  2.4603 -3.2837 -0.6922
  893MOL0     H20549   9.257   4.986   8.361  1.2648 -0.6184  1.0457
  893MOL0     H20550   9.424   5.044   8.353  0.3620  1.7292 -4.5567
  893MOL0     H20551   9.310   4.762   8.389  1.3001 -1.3163 -1.4357
  893MOL0     H20552   9.394   4.854   8.517 -0.4801 -0.7448  0.8699
  893MOL0     H20553   9.691   4.638   8.310 -0.8539 -0.8066  0.4834
  893MOL0     H20554   9.212   4.945   7.945  0.5442  1.0114  1.2471
  893MOL0     H20555   8.987   4.849   7.830  1.9329  0.2687  0.2363
  894MOL0     O20556   0.773   5.650   0.876  0.1252  0.4570 -0.1047
  894MOL0     C20557   0.854   5.561   0.874 -0.1889 -0.0566 -0.4182
  894MOL0     O20558   0.838   5.445   0.941 -0.0324 -0.0575 -0.9803
  894MOL0     C20559   0.719   5.408   1.007 -0.9770 -1.2073 -0.1966
  894MOL0     C20560   0.667   5.468   1.119  0.0652  0.0397  0.7298
  894MOL0     C20561   0.554   5.424   1.179 -0.1940 -0.2434  0.2951
  894MOL0     C20562   0.488   5.315   1.126 -1.0181  0.1427  0.0201
  894MOL0     O20563   0.389   5.279   1.210 -0.3397 -0.0339  0.2519
  894MOL0     C20564   0.294   5.177   1.167  0.4314 -0.0423 -0.6787
  894MOL0     C20565   0.191   5.176   1.279 -0.3877 -0.1296  0.2620
  894MOL0     C20566   0.064   5.104   1.251 -0.4996  0.1805 -0.0343
  894MOL0     C20567  -0.043   5.121   1.351 -0.2318  0.3499 -0.1181
  894MOL0     C20568  -0.149   5.016   1.326  0.2791  0.6307  0.7081
  894MOL0     C20569  -0.278   5.015   1.401 -0.8127 -0.4831  0.8748
  894MOL0     C20570  -0.358   4.898   1.372  0.9578  1.4050  0.0287
  894MOL0     C20571  -0.317   4.780   1.458 -0.6827  0.1848 -0.2014
  894MOL0     N20572  -0.410   4.673   1.433  0.7310  0.6791 -0.7300
  894MOL0     C20573  -0.528   4.657   1.500 -0.3228 -0.0784 -0.3813
  894MOL0     C20574  -0.575   4.538   1.453 -0.4581  0.3170 -0.2043
  894MOL0     C20575  -0.701   4.462   1.477 -0.6836  0.4288 -0.6227
  894MOL0     C20576  -0.696   4.376   1.600 -0.8241 -0.4034  0.0462
  894MOL0     C20577  -0.812   4.283   1.605  0.2108  0.1070 -0.0860
  894MOL0     C20578  -0.790   4.197   1.726 -0.2410  0.7281 -0.1862
  894MOL0     O20579  -0.892   4.104   1.709 -0.0375 -0.4669 -0.0685
  894MOL0     C20580  -0.897   4.001   1.790  0.2909  0.8613  0.2720
  894MOL0     C20581  -0.975   3.886   1.746  0.8647 -0.0398 -0.1352
  894MOL0     C20582  -1.015   3.783   1.839 -0.2919  0.4662  0.0844
  894MOL0     C20583  -1.112   3.681   1.789 -0.0337 -0.7720  0.2484
  894MOL0     C20584  -0.952   3.789   1.977 -0.4008  0.3659  0.4327
  894MOL0     C20585  -0.980   3.680   2.073  0.8227  0.6187 -0.2928
  894MOL0     O20586  -0.987   3.551   2.011 -0.2452 -0.4038 -0.2326
  894MOL0     C20587  -1.040   3.453   2.087 -0.1388  0.4238  0.3445
  894MOL0     C20588  -1.172   3.425   2.072 -0.1996 -0.4785  0.3817
  894MOL0     C20589  -1.239   3.328   2.147 -0.7439 -0.0675  0.3228
  894MOL0     C20590  -1.162   3.247   2.228 -0.5402  0.0841 -0.1707
  894MOL0     O20591  -1.225   3.147   2.301  0.5487 -0.3821 -0.3634
  894MOL0     C20592  -1.210   3.140   2.445 -0.0903  0.1590 -0.1254
  894MOL0     C20593  -1.274   3.253   2.517  0.5339 -0.1278 -0.6631
  894MOL0     C20594  -1.420   3.252   2.491  0.2208 -0.6537  0.7405
  894MOL0     C20595  -1.481   3.379   2.547  0.4209  0.4962  0.5169
  894MOL0     C20596  -1.634   3.376   2.544  0.3782  0.5551  0.4777
  894MOL0     C20597  -1.694   3.502   2.586  0.4322  0.0043  0.1137
  894MOL0     C20598  -1.847   3.514   2.594 -0.5908 -0.0396 -0.2183
  894MOL0     C20599  -1.912   3.396   2.681  0.6675 -0.8253  0.6055
  894MOL0    Cl20600  -2.086   3.432   2.681  0.2387  0.4581 -0.2413
  894MOL0     C20601  -1.021   3.270   2.246  0.3613 -0.2729  0.7274
  894MOL0     C20602  -0.958   3.370   2.165 -0.5268 -0.0413 -1.0645
  894MOL0     O20603  -0.989   3.704   2.193 -0.2545  0.5280 -0.7756
  894MOL0     C20604  -0.864   3.891   2.009  0.0689  0.0548 -1.1007
  894MOL0     C20605  -0.840   3.995   1.919 -0.3675 -0.7164  0.0765
  894MOL0     N20606  -0.487   4.496   1.354  0.9613 -0.3364 -0.1769
  894MOL0     N20607  -0.393   4.578   1.343  0.2414  0.2143 -0.2726
  894MOL0     C20608   0.531   5.259   1.003 -0.1125 -0.1490  0.3306
  894MOL0     C20609   0.657   5.300   0.952  0.0574  0.2680  0.4465
  894MOL0     C20610   0.988   5.573   0.806  0.4731  0.1637  0.2483
  894MOL0     C20611   1.066   5.468   0.767 -0.8714 -0.4427  0.3015
  894MOL0     C20612   1.198   5.476   0.727  0.2081  0.3295 -0.2314
  894MOL0     C20613   1.254   5.597   0.704 -0.1526 -0.3645 -0.5218
  894MOL0     O20614   1.380   5.617   0.661 -0.7638 -0.4559 -0.4888
  894MOL0     C20615   1.482   5.590   0.770  0.2373 -0.3343  0.4399
  894MOL0     C20616   1.538   5.707   0.840 -0.8052 -0.4393  0.7587
  894MOL0     C20617   1.611   5.804   0.744  0.1783  0.0465  0.3325
  894MOL0     C20618   1.694   5.912   0.812  0.2407 -0.0287  0.2030
  894MOL0     C20619   1.747   6.011   0.715 -0.0074 -0.3793  0.6103
  894MOL0     C20620   1.750   6.104   0.637 -0.3954  0.9495  0.5946
  894MOL0     C20621   1.184   5.710   0.742  0.3400 -0.8528  0.2668
  894MOL0     C20622   1.049   5.699   0.789 -0.1716 -0.1985 -0.1578
  894MOL0     H20623   0.726   5.548   1.163 -1.3611  2.3870 -1.3755
  894MOL0     H20624   0.523   5.479   1.267  0.8110 -2.8434  2.4255
  894MOL0     H20625   0.254   5.204   1.069 -1.0471  3.1503  0.6633
  894MOL0     H20626   0.342   5.079   1.162  0.7777  0.1795 -2.8485
  894MOL0     H20627   0.232   5.138   1.373 -0.7186  1.7255  1.2128
  894MOL0     H20628   0.158   5.280   1.292  3.0761  1.1556 -0.2136
  894MOL0     H20629   0.041   5.127   1.146  1.4567  0.0467 -0.5414
  894MOL0     H20630   0.095   4.999   1.241  0.9782  0.7356 -1.9342
  894MOL0     H20631  -0.002   5.112   1.452  2.0062  0.0239 -1.0047
  894MOL0     H20632  -0.080   5.224   1.349  1.5161  1.1086  2.0018
  894MOL0     H20633  -0.179   5.026   1.221 -2.6304 -0.0364  1.3777
  894MOL0     H20634  -0.101   4.919   1.338  0.3280  0.4649 -0.7290
  894MOL0     H20635  -0.251   5.032   1.505  0.2547 -1.3822  0.7622
  894MOL0     H20636  -0.333   5.099   1.357  0.7482 -0.3257 -0.9367
  894MOL0     H20637  -0.461   4.921   1.401  0.1472  1.2046 -2.4562
  894MOL0     H20638  -0.355   4.867   1.267  0.5305  1.5574 -0.0321
  894MOL0     H20639  -0.324   4.805   1.564 -0.4900 -2.9382  0.6266
  894MOL0     H20640  -0.214   4.749   1.436 -1.8571 -3.5630 -1.0196
  894MOL0     H20641  -0.571   4.723   1.575  2.3045 -0.0015  1.2144
  894MOL0     H20642  -0.779   4.538   1.473 -1.2006 -0.1303 -2.9821
  894MOL0     H20643  -0.710   4.395   1.390  4.8971 -1.2678 -0.2736
  894MOL0     H20644  -0.700   4.447   1.683  2.8427  0.1743 -0.1394
  894MOL0     H20645  -0.600   4.324   1.608 -0.5557  0.1484  0.4389
  894MOL0     H20646  -0.823   4.222   1.515 -3.6328 -0.9849  0.9340
  894MOL0     H20647  -0.911   4.326   1.622  0.9430  1.9081 -0.1752
  894MOL0     H20648  -0.800   4.262   1.814 -2.0549  1.6732 -1.0330
  894MOL0     H20649  -0.691   4.151   1.717 -0.5602  0.1472 -0.8465
  894MOL0     H20650  -1.016   3.891   1.646  2.4626 -1.5224 -0.9159
  894MOL0     H20651  -1.191   3.650   1.857 -2.7222  1.1382 -1.7616
  894MOL0     H20652  -1.161   3.721   1.699 -0.3811 -1.8898 -0.0768
  894MOL0     H20653  -1.052   3.594   1.761 -1.3100 -1.3404 -0.8468
  894MOL0     H20654  -1.229   3.489   2.006  3.0620  2.5897  0.2019
  894MOL0     H20655  -1.346   3.311   2.140 -0.9268  1.4991 -1.7320
  894MOL0     H20656  -1.258   3.050   2.485 -3.1247  1.9485  0.5206
  894MOL0     H20657  -1.102   3.132   2.460  0.0339 -1.7399 -1.6433
  894MOL0     H20658  -1.252   3.232   2.622  2.1884  1.0096 -0.7568
  894MOL0     H20659  -1.236   3.350   2.485  1.6245 -0.5520 -0.6902
  894MOL0     H20660  -1.471   3.163   2.530 -1.4030 -0.9188 -1.7596
  894MOL0     H20661  -1.443   3.256   2.384 -1.6618  0.7466  1.1470
  894MOL0     H20662  -1.446   3.391   2.650  1.1226  0.5067  0.2878
  894MOL0     H20663  -1.436   3.462   2.492  2.4230 -1.9875 -1.9340
  894MOL0     H20664  -1.675   3.290   2.598  1.3167 -2.1425 -2.8031
  894MOL0     H20665  -1.662   3.348   2.443 -0.7956 -2.0974  1.4533
  894MOL0     H20666  -1.669   3.517   2.691  1.3101 -0.8370  0.0405
  894MOL0     H20667  -1.651   3.580   2.521 -0.2035 -1.2506 -1.9127
  894MOL0     H20668  -1.896   3.515   2.497 -0.9237  1.0203 -0.0553
  894MOL0     H20669  -1.868   3.610   2.642  2.3268 -0.0920  1.4351
  894MOL0     H20670  -1.886   3.377   2.785 -0.1127 -2.6737  0.4959
  894MOL0     H20671  -1.896   3.297   2.637 -0.4605  0.0037 -1.8737
  894MOL0     H20672  -0.952   3.205   2.299  1.2003 -0.6982 -0.8316
  894MOL0     H20673  -0.852   3.376   2.186 -1.0291  1.1617  1.4494
  894MOL0     H20674  -0.839   3.892   2.114  0.4948 -1.1577 -1.1752
  894MOL0     H20675  -0.771   4.074   1.947  0.5790 -1.7608  0.8012
  894MOL0     H20676   0.492   5.168   0.960 -0.4287  0.6050 -1.0354
  894MOL0     H20677   0.697   5.254   0.862 -1.3721  0.0567 -0.1101
  894MOL0     H20678   1.027   5.369   0.785 -1.4392  0.0465  1.9298
  894MOL0     H20679   1.249   5.381   0.712  0.0306  0.2464 -0.3190
  894MOL0     H20680   1.436   5.531   0.850 -0.4989 -1.6952 -0.9250
  894MOL0     H20681   1.560   5.529   0.723  0.4265  0.5882 -0.4900
  894MOL0     H20682   1.606   5.672   0.919 -1.4801 -1.4191  0.9261
  894MOL0     H20683   1.454   5.760   0.884 -0.9432  0.2843 -0.3498
  894MOL0     H20684   1.538   5.855   0.679  2.0145  2.1812 -0.1946
  894MOL0     H20685   1.673   5.752   0.671  1.0565  1.4795  0.0168
  894MOL0     H20686   1.775   5.873   0.874  2.2681 -2.2002 -3.5039
  894MOL0     H20687   1.634   5.974   0.880  1.0723  3.6715 -2.1351
  894MOL0     H20688   1.759   6.178   0.559 -0.4320  1.5863  1.1801
  894MOL0     H20689   1.225   5.810   0.736 -0.9196 -0.3528 -0.5427
  894MOL0     H20690   0.984   5.785   0.800 -0.4826 -0.1264 -2.0969
  895MOL0     O20691   9.646   4.895   1.888  0.6144 -0.3254 -0.1784
  895MOL0     C20692   9.714   4.898   1.784 -1.1020 -0.0779 -1.0810
  895MOL0     O20693   9.668   4.875   1.653  0.5190  0.4680 -0.4326
  895MOL0     C20694   9.540   4.837   1.621 -0.0093  0.0472 -0.3502
  895MOL0     C20695   9.465   4.755   1.706 -0.1592 -0.0379 -0.4061
  895MOL0     C20696   9.341   4.695   1.657  0.0018  0.4031  0.6963
  895MOL0     C20697   9.305   4.721   1.523 -0.3122 -0.3146  0.0709
  895MOL0     O20698   9.208   4.649   1.459 -0.5584 -0.1927 -0.9203
  895MOL0     C20699   9.213   4.507   1.472 -0.3417 -0.1616 -0.5713
  895MOL0     C20700   9.168   4.451   1.338  0.3740 -0.8384  0.7752
  895MOL0     C20701   9.149   4.300   1.343 -0.1571 -0.0655 -0.1749
  895MOL0     C20702   9.075   4.241   1.227 -0.8138  0.1510  0.6687
  895MOL0     C20703   9.061   4.094   1.245 -1.1186 -0.1185 -0.9055
  895MOL0     C20704   8.971   4.049   1.126 -0.0114 -0.2325  0.4506
  895MOL0     C20705   8.935   3.900   1.126 -0.1898 -0.3959 -1.1255
  895MOL0     C20706   8.934   3.823   0.996  0.8732  0.2195  0.3437
  895MOL0     N20707   8.859   3.887   0.891 -0.4364  0.2824  0.0691
  895MOL0     C20708   8.721   3.900   0.894  0.3020  0.0103  0.5538
  895MOL0     C20709   8.687   3.986   0.797 -1.6365  0.0681 -0.5096
  895MOL0     C20710   8.555   4.028   0.751 -0.2823  0.0351  0.5311
  895MOL0     C20711   8.472   3.915   0.675  0.1464  0.1629 -0.5187
  895MOL0     C20712   8.419   3.809   0.775 -0.7500 -0.5925  0.3399
  895MOL0     C20713   8.319   3.717   0.711  0.4649  0.2164  0.3279
  895MOL0     O20714   8.191   3.782   0.684 -0.8326  0.5601 -0.0301
  895MOL0     C20715   8.106   3.708   0.608  0.4757  0.0858 -0.4819
  895MOL0     C20716   7.987   3.776   0.574 -0.4509 -0.2184 -0.1537
  895MOL0     C20717   7.881   3.717   0.497  0.5680 -0.8072 -0.5900
  895MOL0     C20718   7.750   3.792   0.493  0.4962 -0.4837  0.6832
  895MOL0     C20719   7.896   3.576   0.456 -0.1504 -0.5344  0.5885
  895MOL0     C20720   7.802   3.487   0.381  0.2689  0.2381  0.1175
  895MOL0     O20721   7.694   3.548   0.333  0.1182  0.2061  0.1878
  895MOL0     C20722   7.573   3.489   0.289  0.0149  0.0174  0.0811
  895MOL0     C20723   7.453   3.553   0.317  0.0865 -0.5885  0.1548
  895MOL0     C20724   7.339   3.520   0.247  0.1298  0.7903  0.2544
  895MOL0     C20725   7.343   3.411   0.146 -0.6769  0.5032  0.7733
  895MOL0     O20726   7.234   3.379   0.068 -0.4703 -0.0871  0.5771
  895MOL0     C20727   7.177   3.249   0.074 -0.1979  0.2084  0.2291
  895MOL0     C20728   7.041   3.235   0.005 -0.7482  0.0243 -0.6034
  895MOL0     C20729   6.919   3.282   0.085  0.7606  0.3471  0.2538
  895MOL0     C20730   6.912   3.411   0.151 -0.3186 -0.6343  0.0753
  895MOL0     C20731   6.894   3.518   0.055 -0.4131 -0.1294 -0.2241
  895MOL0     C20732   6.744   3.550   0.032  0.1916 -0.5787 -0.3387
  895MOL0     C20733   6.735   3.673  -0.059  0.1401  0.4166 -0.3873
  895MOL0     C20734   6.632   3.768  -0.011 -0.0217  0.1086  0.2700
  895MOL0    Cl20735   6.472   3.725  -0.065 -0.3645  0.6525 -0.2363
  895MOL0     C20736   7.460   3.329   0.137 -0.3085  0.0931  0.2402
  895MOL0     C20737   7.577   3.372   0.202  0.2414  0.6696 -0.5144
  895MOL0     O20738   7.827   3.366   0.370  0.8402 -0.1480  0.1290
  895MOL0     C20739   8.014   3.514   0.494 -1.0082 -0.5418 -0.0219
  895MOL0     C20740   8.118   3.577   0.565 -0.3439 -0.2561 -0.0541
  895MOL0     N20741   8.813   4.030   0.737  0.6282  0.7485 -0.0135
  895MOL0     N20742   8.910   3.966   0.786 -0.7497  0.0759  0.2439
  895MOL0     C20743   9.378   4.811   1.445  0.1173  0.3978  0.7631
  895MOL0     C20744   9.489   4.870   1.499  0.7725  0.0230 -0.5571
  895MOL0     C20745   9.856   4.935   1.799  0.1713 -0.6439  0.4274
  895MOL0     C20746   9.925   4.921   1.928 -0.2154  0.0575 -0.0715
  895MOL0     C20747  10.062   4.925   1.929 -0.1849  0.2608  0.4966
  895MOL0     C20748  10.137   4.930   1.811 -0.1849 -0.0093  0.2418
  895MOL0     O20749  10.275   4.915   1.797  0.4786  0.3294  0.7508
  895MOL0     C20750  10.358   4.949   1.914 -0.3384  1.0313 -0.2879
  895MOL0     C20751  10.500   4.905   1.879 -0.0094  0.4291 -0.0590
  895MOL0     C20752  10.601   4.915   1.993  0.5325 -0.7662  0.3076
  895MOL0     C20753  10.733   4.845   1.962  0.5540  0.2819  1.1441
  895MOL0     C20754  10.821   4.912   1.866  0.4533 -0.2234  0.5340
  895MOL0     C20755  10.891   4.987   1.809  0.7662 -0.2026 -0.2290
  895MOL0     C20756  10.073   4.944   1.693  0.5096  0.1354 -0.3454
  895MOL0     C20757   9.933   4.961   1.686  0.1937 -0.6942  0.7410
  895MOL0     H20758   9.487   4.726   1.808  2.1263 -3.6670 -1.7094
  895MOL0     H20759   9.283   4.622   1.713 -0.6582  1.8609  1.9878
  895MOL0     H20760   9.316   4.475   1.485 -1.4723 -3.1204  2.6949
  895MOL0     H20761   9.149   4.462   1.549 -2.6916 -1.9739 -3.3606
  895MOL0     H20762   9.070   4.493   1.316  0.3374 -1.0925  0.4604
  895MOL0     H20763   9.237   4.465   1.254 -1.7211 -1.0576 -1.0654
  895MOL0     H20764   9.245   4.249   1.353  1.6565  3.0441 -0.3962
  895MOL0     H20765   9.097   4.263   1.432 -0.8837 -3.9731 -2.0029
  895MOL0     H20766   8.980   4.288   1.198 -0.2727  0.5251 -0.5800
  895MOL0     H20767   9.142   4.256   1.142  0.3081 -0.4527  1.4162
  895MOL0     H20768   9.156   4.041   1.234 -2.3151 -2.5613 -0.1299
  895MOL0     H20769   9.015   4.079   1.343 -2.0637  0.5536 -1.2335
  895MOL0     H20770   8.881   4.110   1.128 -0.5691 -1.0464  0.4569
  895MOL0     H20771   9.041   4.076   1.046 -0.7420  2.2469  0.5824
  895MOL0     H20772   9.004   3.842   1.189 -0.2027 -1.0356 -1.6892
  895MOL0     H20773   8.838   3.880   1.173  0.1244  0.5187 -0.0547
  895MOL0     H20774   8.900   3.719   0.999 -0.3462  0.6243  1.0139
  895MOL0     H20775   9.038   3.807   0.965  0.4419 -2.0061 -0.1239
  895MOL0     H20776   8.662   3.846   0.968  2.0455 -1.6579  0.7819
  895MOL0     H20777   8.496   4.055   0.839  0.5023 -2.0502  1.7798
  895MOL0     H20778   8.563   4.102   0.672  1.7704 -0.8704 -0.1807
  895MOL0     H20779   8.542   3.864   0.607 -0.1304 -2.0627  0.7717
  895MOL0     H20780   8.388   3.950   0.615  0.3620  1.9584  0.1827
  895MOL0     H20781   8.383   3.875   0.855  1.5757  0.3579  0.6791
  895MOL0     H20782   8.498   3.752   0.825  0.0751  2.1432  2.4025
  895MOL0     H20783   8.302   3.630   0.774  1.1772  0.3257  0.6803
  895MOL0     H20784   8.363   3.683   0.617  0.0616  1.2564 -0.2621
  895MOL0     H20785   7.976   3.879   0.606  1.2550 -0.0141 -0.1626
  895MOL0     H20786   7.721   3.818   0.391 -2.1392 -0.9461  1.2612
  895MOL0     H20787   7.667   3.732   0.531 -0.4629 -0.0525 -0.6759
  895MOL0     H20788   7.754   3.877   0.562  0.7720 -0.3801  0.5409
  895MOL0     H20789   7.453   3.635   0.388  0.2497 -1.0998  0.7584
  895MOL0     H20790   7.254   3.587   0.250 -0.1493  0.4373  3.0790
  895MOL0     H20791   7.250   3.182   0.029  1.1862  0.7243  1.6200
  895MOL0     H20792   7.165   3.218   0.179  1.0199 -0.3387  0.2285
  895MOL0     H20793   7.035   3.286  -0.092 -0.7339 -0.3660 -0.8105
  895MOL0     H20794   7.032   3.127  -0.006  1.6818 -0.3699  0.5947
  895MOL0     H20795   6.912   3.206   0.164 -0.7699 -0.1267 -0.2961
  895MOL0     H20796   6.822   3.271   0.036  1.1005  2.6451 -1.0925
  895MOL0     H20797   6.834   3.399   0.226 -0.7698 -1.2368 -0.4715
  895MOL0     H20798   7.011   3.421   0.197 -0.0655 -3.5796  0.3976
  895MOL0     H20799   6.939   3.506  -0.044 -1.9275  1.4387 -1.1541
  895MOL0     H20800   6.939   3.606   0.100  0.0226  0.4252 -1.6812
  895MOL0     H20801   6.697   3.467  -0.022  0.7808 -1.9437  1.1696
  895MOL0     H20802   6.690   3.562   0.126 -0.9936  2.0671 -1.2457
  895MOL0     H20803   6.713   3.641  -0.161  0.6138 -3.3984  0.5504
  895MOL0     H20804   6.827   3.728  -0.078  0.6580  0.3947  1.8545
  895MOL0     H20805   6.649   3.864  -0.060 -3.3916  0.2238 -0.9100
  895MOL0     H20806   6.645   3.795   0.095  0.0928  2.5207 -0.3052
  895MOL0     H20807   7.469   3.231   0.090  0.3472  0.3802 -0.2442
  895MOL0     H20808   7.669   3.315   0.194 -1.3351 -2.3447  1.0897
  895MOL0     H20809   8.034   3.409   0.478 -0.8276 -0.7558  1.5436
  895MOL0     H20810   8.198   3.520   0.611  2.1021  1.9689 -1.3200
  895MOL0     H20811   9.346   4.836   1.344 -2.0859 -1.7283  0.8502
  895MOL0     H20812   9.560   4.931   1.443  2.1249 -0.2587  0.7751
  895MOL0     H20813   9.874   4.890   2.019  0.8479  0.3840  0.6520
  895MOL0     H20814  10.103   4.902   2.027 -1.7437  1.5072  1.4846
  895MOL0     H20815  10.352   5.056   1.935  1.6791  1.0667  0.3120
  895MOL0     H20816  10.333   4.898   2.007  1.2398 -1.7119 -1.2498
  895MOL0     H20817  10.528   4.949   1.782 -2.0813 -0.8635 -1.3097
  895MOL0     H20818  10.503   4.797   1.861 -0.1373 -0.2863  3.4798
  895MOL0     H20819  10.554   4.875   2.084 -3.2823 -2.1121 -2.0043
  895MOL0     H20820  10.618   5.021   2.017 -0.9914 -0.0855 -1.4108
  895MOL0     H20821  10.730   4.749   1.911  0.2912  1.7759 -1.8739
  895MOL0     H20822  10.780   4.830   2.060  3.0077  2.7312  0.4744
  895MOL0     H20823  10.969   5.043   1.761  0.5834  0.2248 -0.0323
  895MOL0     H20824  10.122   4.938   1.596 -0.3597  1.2174 -0.8819
  895MOL0     H20825   9.886   4.973   1.589  1.2169 -1.8734  0.0641
  896MOL0     O20826  11.330   8.115   2.614 -0.1202 -0.6356  0.0473
  896MOL0     C20827  11.415   8.191   2.578 -0.2100 -0.0310 -0.8633
  896MOL0     O20828  11.414   8.328   2.610  0.6165  0.2927  0.3140
  896MOL0     C20829  11.315   8.379   2.691  1.0644  0.8566  0.0789
  896MOL0     C20830  11.232   8.473   2.631 -0.1912  0.1539  0.0214
  896MOL0     C20831  11.124   8.526   2.699  0.4013 -1.0402  0.0174
  896MOL0     C20832  11.095   8.486   2.831 -0.5366  0.9163  0.4374
  896MOL0     O20833  10.987   8.552   2.892  0.4030  0.1978  0.3038
  896MOL0     C20834  11.003   8.564   3.033 -0.4764  0.0536 -0.3499
  896MOL0     C20835  10.887   8.638   3.099  0.3819  0.5214  0.4248
  896MOL0     C20836  10.909   8.693   3.238  0.6191  0.3999 -0.8277
  896MOL0     C20837  10.768   8.722   3.309 -0.3164  0.1129  0.1455
  896MOL0     C20838  10.792   8.832   3.415  0.0706  0.9556 -0.4011
  896MOL0     C20839  10.674   8.844   3.524  0.3004 -0.1764 -0.2716
  896MOL0     C20840  10.636   8.992   3.560  0.3384  0.2840 -0.4944
  896MOL0     C20841  10.493   8.999   3.617  0.0479 -0.4404  0.7950
  896MOL0     N20842  10.436   9.129   3.664  0.2602  0.0023 -0.3295
  896MOL0     C20843  10.517   9.228   3.714  0.6682  0.0711 -0.9314
  896MOL0     C20844  10.430   9.315   3.770  0.0099  0.1578  0.1679
  896MOL0     C20845  10.458   9.447   3.822 -0.0179  0.5437 -1.4122
  896MOL0     C20846  10.436   9.460   3.971 -0.0667  0.3645 -0.5138
  896MOL0     C20847  10.556   9.416   4.043 -0.9527  0.1981 -0.3974
  896MOL0     C20848  10.532   9.379   4.189  0.0586  0.6677  0.4187
  896MOL0     O20849  10.461   9.484   4.255  0.0952 -0.9041 -0.1592
  896MOL0     C20850  10.395   9.454   4.371 -0.2903 -1.0067  0.3874
  896MOL0     C20851  10.293   9.544   4.408 -0.2775 -0.9163 -0.4763
  896MOL0     C20852  10.226   9.543   4.528  0.3326 -0.2367 -0.8222
  896MOL0     C20853  10.118   9.649   4.543  0.2056 -0.7083 -0.4602
  896MOL0     C20854  10.245   9.436   4.624 -0.2495 -0.9390  0.1299
  896MOL0     C20855  10.182   9.419   4.761  0.1212  0.3883  0.2076
  896MOL0     O20856  10.204   9.312   4.833 -0.3114 -0.1726  0.1872
  896MOL0     C20857  10.143   9.316   4.956  0.6547 -0.7710 -0.4961
  896MOL0     C20858  10.002   9.312   4.964  0.5843  0.2510 -0.5872
  896MOL0     C20859   9.940   9.274   5.084  0.4082  0.3871  0.6397
  896MOL0     C20860  10.014   9.268   5.208  0.7608  0.2463 -0.0948
  896MOL0     O20861   9.928   9.261   5.319 -0.4448 -0.3022  0.5539
  896MOL0     C20862   9.994   9.289   5.446  0.0169 -0.2915  0.0179
  896MOL0     C20863   9.893   9.288   5.557  0.2402 -0.1005 -0.3436
  896MOL0     C20864   9.950   9.328   5.699  0.0573  0.5366  0.5087
  896MOL0     C20865   9.840   9.382   5.787 -0.5931 -1.0066 -0.6648
  896MOL0     C20866   9.732   9.272   5.814  0.4169 -0.1804 -0.4147
  896MOL0     C20867   9.611   9.331   5.891 -0.2020  0.7081  0.2006
  896MOL0     C20868   9.491   9.243   5.872  0.7705  0.4896  0.1573
  896MOL0     C20869   9.374   9.268   5.971 -0.1580 -0.1370  0.1422
  896MOL0    Cl20870   9.250   9.137   5.950  0.2646 -0.3328  0.0848
  896MOL0     C20871  10.150   9.284   5.199  0.8044 -0.0577 -0.6010
  896MOL0     C20872  10.212   9.297   5.073 -0.2280 -0.0037  0.7797
  896MOL0     O20873  10.112   9.520   4.794 -0.2751  0.4764 -0.0579
  896MOL0     C20874  10.338   9.342   4.587 -0.1362 -0.0289 -0.1799
  896MOL0     C20875  10.420   9.357   4.468 -0.6684  0.5242 -0.7170
  896MOL0     N20876  10.301   9.254   3.757  0.2469 -0.9551  0.1586
  896MOL0     N20877  10.305   9.146   3.704 -0.2589  0.1768  0.9208
  896MOL0     C20878  11.189   8.398   2.894 -0.3327 -0.4338 -0.4966
  896MOL0     C20879  11.299   8.352   2.822  0.1331 -1.4032  0.2689
  896MOL0     C20880  11.538   8.137   2.507 -0.0020 -0.2858  0.3067
  896MOL0     C20881  11.559   7.998   2.485 -0.2451 -0.5519  1.3616
  896MOL0     C20882  11.680   7.956   2.436  0.5315 -0.1575  0.4972
  896MOL0     C20883  11.783   8.049   2.414  0.5398  0.3723  0.3888
  896MOL0     O20884  11.902   7.989   2.366  0.4086 -0.3036 -0.0495
  896MOL0     C20885  12.022   8.066   2.361 -0.4847 -0.0428 -0.1932
  896MOL0     C20886  12.074   8.100   2.508 -0.4123  0.5814  0.1485
  896MOL0     C20887  12.160   7.999   2.581  0.2908 -0.0439  0.3389
  896MOL0     C20888  12.092   7.861   2.625 -0.5566  0.4370  0.3266
  896MOL0     C20889  12.194   7.753   2.646 -0.4058  0.0406  0.2785
  896MOL0     C20890  12.274   7.657   2.655 -0.2527 -0.0048  1.1832
  896MOL0     C20891  11.759   8.185   2.439 -0.6270 -1.2718 -0.8200
  896MOL0     C20892  11.642   8.227   2.488 -0.1540 -0.0574  0.1774
  896MOL0     H20893  11.251   8.507   2.530  0.6178 -1.1416 -0.2885
  896MOL0     H20894  11.059   8.598   2.651 -0.6296  0.5929  3.5518
  896MOL0     H20895  11.019   8.471   3.088  0.4072  1.4681  1.9165
  896MOL0     H20896  11.091   8.629   3.045  2.2560 -3.1386 -1.5269
  896MOL0     H20897  10.873   8.726   3.035 -0.7717  2.6294  3.3544
  896MOL0     H20898  10.801   8.571   3.104  0.4439  0.2341 -1.4124
  896MOL0     H20899  10.970   8.630   3.304 -0.4852  1.3155  1.1828
  896MOL0     H20900  10.969   8.784   3.237 -0.7693  1.3451 -0.6474
  896MOL0     H20901  10.700   8.766   3.235  0.8864  1.1640 -0.3887
  896MOL0     H20902  10.712   8.636   3.345 -0.2052 -0.1266 -0.2456
  896MOL0     H20903  10.882   8.810   3.474 -1.7376 -1.2832  1.7189
  896MOL0     H20904  10.814   8.921   3.355 -1.4647 -0.6586 -3.5626
  896MOL0     H20905  10.587   8.810   3.468  0.2887  0.3332 -0.5683
  896MOL0     H20906  10.688   8.776   3.609 -0.5871  0.6014  0.5214
  896MOL0     H20907  10.706   9.028   3.636  0.2274 -1.8817  0.7120
  896MOL0     H20908  10.633   9.058   3.473  0.2493 -0.9587 -1.4638
  896MOL0     H20909  10.510   8.927   3.698 -0.2674 -3.2664 -1.4765
  896MOL0     H20910  10.413   8.962   3.551 -1.6204  0.1561  2.4201
  896MOL0     H20911  10.625   9.240   3.710  0.5730  1.5148  0.1384
  896MOL0     H20912  10.560   9.467   3.789  0.6088 -2.8735 -1.9766
  896MOL0     H20913  10.384   9.511   3.773  0.5289  2.2667 -0.0683
  896MOL0     H20914  10.359   9.389   4.000  1.0313 -0.1620  1.2914
  896MOL0     H20915  10.412   9.561   4.005  0.6747  0.0672  0.9834
  896MOL0     H20916  10.630   9.496   4.035 -0.8275  0.1050 -0.1983
  896MOL0     H20917  10.595   9.324   3.998  2.0088  0.9431  0.4366
  896MOL0     H20918  10.624   9.359   4.244 -0.0135  0.9305  0.6411
  896MOL0     H20919  10.471   9.289   4.202 -1.2273  1.8932  5.3745
  896MOL0     H20920  10.265   9.624   4.340  0.1721 -0.8958 -0.6388
  896MOL0     H20921  10.150   9.711   4.627  2.9020 -1.8356 -0.5474
  896MOL0     H20922  10.106   9.714   4.456  1.4009 -0.9989 -0.8627
  896MOL0     H20923  10.019   9.608   4.566  0.1079  0.1441  0.7094
  896MOL0     H20924   9.943   9.314   4.873  1.8831 -2.2809 -1.6014
  896MOL0     H20925   9.834   9.253   5.075  0.7594 -0.4035 -3.3790
  896MOL0     H20926  10.078   9.219   5.456  0.2017  0.1727  2.0981
  896MOL0     H20927  10.034   9.390   5.436  0.4597 -0.5370 -0.8461
  896MOL0     H20928   9.806   9.351   5.536 -0.7324 -0.4840  2.1978
  896MOL0     H20929   9.851   9.187   5.562  1.1648 -0.4251  1.8559
  896MOL0     H20930  10.019   9.413   5.694  4.6370 -2.7607  1.1126
  896MOL0     H20931  10.005   9.240   5.734  2.2023  1.8314  0.5674
  896MOL0     H20932   9.891   9.412   5.878 -0.6177 -1.6265 -0.4418
  896MOL0     H20933   9.789   9.468   5.741  0.7511  1.5615  2.3300
  896MOL0     H20934   9.784   9.192   5.869  2.6309  0.0294 -2.0500
  896MOL0     H20935   9.695   9.228   5.721 -0.7764 -0.7886  0.3344
  896MOL0     H20936   9.626   9.350   5.997  2.4271 -0.5987  0.1523
  896MOL0     H20937   9.584   9.422   5.837  1.0169 -0.3115 -2.3168
  896MOL0     H20938   9.521   9.138   5.881 -1.0594 -0.5522 -3.7071
  896MOL0     H20939   9.449   9.255   5.772  0.4234 -0.1672  0.2189
  896MOL0     H20940   9.331   9.366   5.947  1.0130  0.7282  1.4497
  896MOL0     H20941   9.400   9.269   6.077 -0.2762 -2.0811  0.2268
  896MOL0     H20942  10.213   9.263   5.285 -0.8201  0.8394  0.8739
  896MOL0     H20943  10.320   9.293   5.060 -0.3058 -0.5489  0.2700
  896MOL0     H20944  10.363   9.256   4.647  2.6953 -0.2488 -1.5342
  896MOL0     H20945  10.489   9.276   4.449 -0.2028 -0.3217  3.6004
  896MOL0     H20946  11.182   8.349   2.990  0.9102 -1.5287 -0.9313
  896MOL0     H20947  11.363   8.276   2.866 -1.3049 -1.9463  1.5187
  896MOL0     H20948  11.492   7.918   2.517 -1.2865 -1.2050 -1.9799
  896MOL0     H20949  11.701   7.850   2.425 -1.8026 -0.7185  0.8436
  896MOL0     H20950  12.102   8.020   2.302  1.5123  1.5176  1.1372
  896MOL0     H20951  11.985   8.150   2.301  0.6360  0.9712  0.4978
  896MOL0     H20952  11.987   8.122   2.570 -0.6267  0.2282 -0.0232
  896MOL0     H20953  12.127   8.196   2.513 -0.7452  0.7535  0.4953
  896MOL0     H20954  12.207   8.048   2.666  0.6263  2.3886 -1.1766
  896MOL0     H20955  12.238   7.971   2.509  1.6991  0.2936  1.6850
  896MOL0     H20956  12.022   7.822   2.550 -0.3288 -0.3494  0.5051
  896MOL0     H20957  12.030   7.872   2.714 -0.7338  0.6781  0.1749
  896MOL0     H20958  12.327   7.565   2.664 -0.0811 -0.3756 -2.1940
  896MOL0     H20959  11.825   8.265   2.407 -4.6857  2.1693 -1.4686
  896MOL0     H20960  11.624   8.332   2.511 -2.5908 -0.2611 -0.5965
  897MOL0     O20961   1.215   8.049   3.067  0.5052 -0.4812  0.3023
  897MOL0     C20962   1.157   8.052   2.957 -0.2840 -0.6829  0.3232
  897MOL0     O20963   1.032   7.988   2.928 -0.7203 -0.1445 -0.7818
  897MOL0     C20964   0.973   7.903   3.022 -0.3803 -0.6353 -0.2108
  897MOL0     C20965   1.029   7.781   3.060  0.4902 -0.5385  0.9656
  897MOL0     C20966   0.966   7.696   3.157  0.3645 -0.7127  0.2658
  897MOL0     C20967   0.848   7.728   3.216 -0.4055 -0.6193  0.5816
  897MOL0     O20968   0.779   7.639   3.302 -1.3448  0.0627 -0.2288
  897MOL0     C20969   0.668   7.693   3.381  1.0332  0.5985 -0.2228
  897MOL0     C20970   0.573   7.575   3.413 -0.8414 -1.0533  0.2362
  897MOL0     C20971   0.458   7.621   3.507  0.4309  0.3350  0.7030
  897MOL0     C20972   0.351   7.717   3.434  0.5404  0.1474  0.2323
  897MOL0     C20973   0.232   7.721   3.519 -0.4087  0.9059 -0.1095
  897MOL0     C20974   0.118   7.788   3.434 -0.2129 -0.7318 -0.5604
  897MOL0     C20975  -0.009   7.823   3.513 -0.2325 -0.5308  0.2999
  897MOL0     C20976   0.026   7.927   3.624  0.1798  0.1519  0.0524
  897MOL0     N20977  -0.098   7.985   3.679  0.5334  0.3556 -0.0413
  897MOL0     C20978  -0.160   7.923   3.782  0.1248 -0.2500  0.2993
  897MOL0     C20979  -0.277   7.995   3.808  0.7110 -0.5654  0.2401
  897MOL0     C20980  -0.374   7.978   3.918  0.3901 -0.1584 -0.4689
  897MOL0     C20981  -0.352   8.100   4.010 -0.0107 -0.5081 -0.6708
  897MOL0     C20982  -0.441   8.086   4.134  0.0837  0.2301  0.0543
  897MOL0     C20983  -0.456   8.218   4.220 -0.4438  0.3588  0.1299
  897MOL0     O20984  -0.540   8.198   4.337 -0.9267  0.1684  0.0906
  897MOL0     C20985  -0.658   8.260   4.342 -0.1392  0.0842 -0.3282
  897MOL0     C20986  -0.673   8.365   4.428  0.1891 -0.1932 -0.3620
  897MOL0     C20987  -0.793   8.434   4.450  1.0454 -0.2541  0.0143
  897MOL0     C20988  -0.797   8.551   4.547 -0.5463 -0.0165 -0.0735
  897MOL0     C20989  -0.908   8.387   4.381  0.1460  0.9744 -0.7657
  897MOL0     C20990  -1.044   8.441   4.402 -0.0451 -0.2874 -0.2633
  897MOL0     O20991  -1.090   8.467   4.527 -0.3753  0.6111  0.8258
  897MOL0     C20992  -1.228   8.479   4.549 -0.1497  0.3232 -0.2721
  897MOL0     C20993  -1.317   8.390   4.487 -0.5766  0.4297 -0.0637
  897MOL0     C20994  -1.450   8.397   4.497 -0.5110  0.3880  0.3919
  897MOL0     C20995  -1.502   8.499   4.573 -0.1170 -0.0029 -0.0033
  897MOL0     O20996  -1.638   8.501   4.608 -0.1004 -1.2959  0.6476
  897MOL0     C20997  -1.730   8.458   4.502  0.3867 -1.2559 -0.9743
  897MOL0     C20998  -1.863   8.484   4.555  0.5665 -1.3706  0.1075
  897MOL0     C20999  -1.967   8.459   4.449  0.1557 -0.0185 -0.3748
  897MOL0     C21000  -2.102   8.503   4.507 -0.3810 -0.1742  0.1257
  897MOL0     C21001  -2.213   8.472   4.410  1.3773 -1.0799 -0.4125
  897MOL0     C21002  -2.355   8.466   4.468 -0.2117 -0.2560  0.9003
  897MOL0     C21003  -2.454   8.532   4.367  0.3019  0.8156 -0.2227
  897MOL0     C21004  -2.579   8.575   4.438 -0.2748  0.3055 -0.3631
  897MOL0    Cl21005  -2.690   8.679   4.346 -0.1638 -0.0488 -0.2507
  897MOL0     C21006  -1.418   8.582   4.651 -0.5723  0.2575 -0.2895
  897MOL0     C21007  -1.275   8.573   4.644  0.2673 -0.8368  0.2772
  897MOL0     O21008  -1.100   8.451   4.297  0.1378  0.2011 -0.4384
  897MOL0     C21009  -0.895   8.276   4.291 -0.2610  0.5244 -0.7054
  897MOL0     C21010  -0.772   8.213   4.283  1.3711  0.0963  0.9689
  897MOL0     N21011  -0.263   8.103   3.723 -0.2592  0.0484  0.2121
  897MOL0     N21012  -0.172   8.090   3.637  0.5188  0.1807  0.3309
  897MOL0     C21013   0.791   7.860   3.169  0.4582 -0.0064  0.1873
  897MOL0     C21014   0.855   7.945   3.084  0.0150  0.0767  0.3389
  897MOL0     C21015   1.228   8.123   2.847 -0.7763 -0.1670 -0.2837
  897MOL0     C21016   1.363   8.172   2.859  0.1709 -0.1473  0.9964
  897MOL0     C21017   1.434   8.224   2.745  1.1089 -0.0368 -0.7540
  897MOL0     C21018   1.370   8.222   2.626  0.6281 -0.2564 -0.4915
  897MOL0     O21019   1.449   8.267   2.520 -0.0116 -0.4655 -0.1413
  897MOL0     C21020   1.422   8.222   2.387 -0.5955  0.6970 -0.5443
  897MOL0     C21021   1.450   8.080   2.355 -0.9899  0.0761 -0.4165
  897MOL0     C21022   1.603   8.058   2.347  0.3311  0.4536  0.1198
  897MOL0     C21023   1.651   8.014   2.485  0.2898  0.1310 -0.2721
  897MOL0     C21024   1.797   8.022   2.490 -0.0380  0.1707  0.0073
  897MOL0     C21025   1.917   8.016   2.481 -0.3341  0.4487 -0.1719
  897MOL0     C21026   1.235   8.181   2.613  0.1125 -0.0177  0.4184
  897MOL0     C21027   1.164   8.132   2.724  0.5373 -0.0450 -0.7329
  897MOL0     H21028   1.125   7.752   3.019 -0.8078  0.1354 -2.9210
  897MOL0     H21029   1.017   7.603   3.183  1.5730 -0.1492  0.0168
  897MOL0     H21030   0.711   7.724   3.476  1.1705 -1.0642  0.2899
  897MOL0     H21031   0.606   7.772   3.337  0.3853 -0.2578 -0.8966
  897MOL0     H21032   0.536   7.537   3.318  0.3590 -0.6931 -0.3831
  897MOL0     H21033   0.623   7.491   3.462  1.0102  0.4349  1.0183
  897MOL0     H21034   0.404   7.528   3.525  1.9837 -0.4958  1.1779
  897MOL0     H21035   0.489   7.670   3.600  1.7528  0.8119  0.0345
  897MOL0     H21036   0.385   7.820   3.415 -0.4580  0.4833  0.1960
  897MOL0     H21037   0.321   7.676   3.337  0.6401 -0.9183  0.6478
  897MOL0     H21038   0.195   7.621   3.544 -1.3208  0.6039 -2.4166
  897MOL0     H21039   0.266   7.785   3.601  2.7759  0.6666 -1.1421
  897MOL0     H21040   0.160   7.883   3.399 -1.2773 -0.8671 -2.3204
  897MOL0     H21041   0.096   7.743   3.337 -2.2850 -1.4916  0.2208
  897MOL0     H21042  -0.091   7.855   3.448 -0.5135 -0.1976  0.8059
  897MOL0     H21043  -0.035   7.728   3.562  0.7787 -0.8115  0.3097
  897MOL0     H21044   0.091   8.005   3.582  0.2970 -0.2312 -0.4977
  897MOL0     H21045   0.086   7.872   3.698  2.0152 -0.0683 -1.4984
  897MOL0     H21046  -0.130   7.833   3.834 -0.4896 -0.9784 -0.5955
  897MOL0     H21047  -0.470   7.964   3.868  1.1377 -3.4974 -1.2301
  897MOL0     H21048  -0.354   7.882   3.967 -0.7709 -0.8068 -1.2363
  897MOL0     H21049  -0.383   8.187   3.951 -1.9397  1.5138  2.9810
  897MOL0     H21050  -0.247   8.099   4.042 -0.7293 -2.0172  1.8605
  897MOL0     H21051  -0.413   8.017   4.214  1.0698 -0.4422 -0.8527
  897MOL0     H21052  -0.537   8.049   4.098  0.6145  0.6162 -1.8631
  897MOL0     H21053  -0.507   8.289   4.154 -2.5452 -0.9933  0.2170
  897MOL0     H21054  -0.356   8.251   4.250  1.3105 -2.2965 -2.2627
  897MOL0     H21055  -0.577   8.385   4.475 -0.4475 -2.3867  2.1359
  897MOL0     H21056  -0.878   8.622   4.532 -1.6551 -1.5655 -1.9387
  897MOL0     H21057  -0.808   8.505   4.645  2.5893  0.5555  0.6813
  897MOL0     H21058  -0.701   8.604   4.548  2.3364 -4.6493  2.0340
  897MOL0     H21059  -1.288   8.310   4.420 -3.1770 -0.2345 -0.5058
  897MOL0     H21060  -1.505   8.315   4.452  2.3888 -0.5346 -1.7594
  897MOL0     H21061  -1.712   8.518   4.412 -1.0991 -1.3800 -1.3880
  897MOL0     H21062  -1.734   8.352   4.476  5.0253 -1.6163 -0.9897
  897MOL0     H21063  -1.877   8.438   4.653  3.2844  0.1205  1.2866
  897MOL0     H21064  -1.866   8.592   4.568 -0.0650 -1.2355 -1.0065
  897MOL0     H21065  -1.959   8.352   4.429 -0.6496 -0.1150 -0.2187
  897MOL0     H21066  -1.949   8.521   4.361 -0.8963  3.9633  1.9694
  897MOL0     H21067  -2.116   8.464   4.608  2.8075 -0.1024  0.6933
  897MOL0     H21068  -2.107   8.610   4.526 -1.9311 -0.6026  2.5390
  897MOL0     H21069  -2.193   8.380   4.353 -0.4666 -0.6962 -1.7440
  897MOL0     H21070  -2.206   8.555   4.340 -0.4651 -1.3926 -1.0067
  897MOL0     H21071  -2.383   8.363   4.492 -2.8461 -0.2575 -1.6334
  897MOL0     H21072  -2.366   8.522   4.561 -1.7256 -0.3095  0.7826
  897MOL0     H21073  -2.490   8.469   4.284 -0.0515  2.9444 -1.7646
  897MOL0     H21074  -2.412   8.619   4.316 -1.3522  0.2646 -2.7671
  897MOL0     H21075  -2.558   8.615   4.537 -1.0649  2.0101 -0.8367
  897MOL0     H21076  -2.637   8.483   4.449 -4.4532  2.2488 -3.3885
  897MOL0     H21077  -1.470   8.653   4.714 -0.6085  0.2111 -0.2662
  897MOL0     H21078  -1.211   8.650   4.686  1.7665 -1.0301 -1.5249
  897MOL0     H21079  -0.978   8.228   4.239 -0.3582 -0.2697  0.1527
  897MOL0     H21080  -0.775   8.126   4.217 -2.1595  0.6066  0.2510
  897MOL0     H21081   0.695   7.894   3.208  0.3605  0.2305 -0.2473
  897MOL0     H21082   0.814   8.044   3.067 -0.5970  0.3878  3.1785
  897MOL0     H21083   1.413   8.154   2.953  0.3550  0.7502  1.0779
  897MOL0     H21084   1.539   8.249   2.750  1.4736 -0.9316 -2.8353
  897MOL0     H21085   1.316   8.236   2.362 -1.9320 -1.7653  2.9658
  897MOL0     H21086   1.485   8.289   2.327 -0.7909 -0.4821 -2.1476
  897MOL0     H21087   1.409   8.044   2.260 -0.5069 -0.7664 -0.3131
  897MOL0     H21088   1.410   8.010   2.429  1.3930 -0.7681  0.1695
  897MOL0     H21089   1.653   8.150   2.315 -0.7562  1.1034  0.2572
  897MOL0     H21090   1.621   7.987   2.266  1.2316  0.5626  0.2117
  897MOL0     H21091   1.626   7.910   2.506 -0.7071  0.1318 -1.3536
  897MOL0     H21092   1.616   8.073   2.570 -0.7520  0.7790 -1.1200
  897MOL0     H21093   2.024   8.010   2.474 -0.4931 -0.6923 -4.4571
  897MOL0     H21094   1.182   8.193   2.520 -2.7375 -2.1963  1.6089
  897MOL0     H21095   1.070   8.080   2.709  0.2557  0.4386 -0.6393
  898MOL0     O21096   7.406   6.037   8.203 -0.1169  0.9386 -1.1994
  898MOL0     C21097   7.493   6.030   8.112  0.9384 -0.6061  0.9182
  898MOL0     O21098   7.477   6.075   7.979  0.0553 -0.2430 -0.4938
  898MOL0     C21099   7.359   6.137   7.940  0.0805 -0.1703 -0.4071
  898MOL0     C21100   7.323   6.112   7.811  0.2904 -1.2466  0.2057
  898MOL0     C21101   7.206   6.170   7.753 -0.0668 -0.2423  0.1923
  898MOL0     C21102   7.124   6.254   7.826 -0.0965  0.1088  0.1890
  898MOL0     O21103   7.015   6.310   7.770 -0.3224 -0.0048  0.7033
  898MOL0     C21104   6.896   6.288   7.845 -0.1505  1.0866 -0.4245
  898MOL0     C21105   6.784   6.360   7.779 -0.3467  0.1677 -1.1461
  898MOL0     C21106   6.644   6.335   7.843  0.9447 -0.4688  0.5169
  898MOL0     C21107   6.545   6.447   7.792 -0.5599  0.2547 -0.2673
  898MOL0     C21108   6.548   6.568   7.887 -0.1900  0.8433 -0.3982
  898MOL0     C21109   6.442   6.666   7.868  0.2811 -0.3460 -0.2836
  898MOL0     C21110   6.446   6.785   7.962  0.1787  0.0070 -0.4797
  898MOL0     C21111   6.409   6.918   7.889 -0.9467 -0.9983  0.0605
  898MOL0     N21112   6.281   6.912   7.826 -0.8372  0.4206 -0.4547
  898MOL0     C21113   6.171   6.975   7.864  0.8067 -0.7985  0.2227
  898MOL0     C21114   6.088   6.964   7.759 -0.4796  0.0738  0.4143
  898MOL0     C21115   5.946   7.017   7.754  1.1334  0.1316  0.0097
  898MOL0     C21116   5.928   7.158   7.815 -0.0963 -0.6387 -0.7829
  898MOL0     C21117   5.832   7.245   7.731 -0.3305 -0.3414  0.6694
  898MOL0     C21118   5.689   7.220   7.768 -0.6165  0.9845 -0.5412
  898MOL0     O21119   5.615   7.277   7.658 -0.3071  0.0246  0.1746
  898MOL0     C21120   5.477   7.285   7.657  0.0781  0.3377  0.2716
  898MOL0     C21121   5.394   7.276   7.773  0.4014  0.9677 -0.4261
  898MOL0     C21122   5.257   7.265   7.752  0.4216 -0.2599  0.3343
  898MOL0     C21123   5.175   7.244   7.881  0.6195 -0.7182 -0.0092
  898MOL0     C21124   5.195   7.267   7.622 -0.1916 -0.7280  0.1605
  898MOL0     C21125   5.053   7.234   7.593 -0.8539 -0.3925 -0.0044
  898MOL0     O21126   5.035   7.169   7.472  0.4103 -0.4031  0.1327
  898MOL0     C21127   4.914   7.102   7.444  0.3807 -1.1683 -0.3917
  898MOL0     C21128   4.901   6.965   7.450 -0.5429  0.7095  1.3092
  898MOL0     C21129   4.777   6.898   7.423 -0.8796 -0.0160  0.4268
  898MOL0     C21130   4.673   6.969   7.378  0.3785 -0.5374  0.3199
  898MOL0     O21131   4.554   6.914   7.353  0.5404 -0.4346  0.3537
  898MOL0     C21132   4.546   6.807   7.268 -0.5169  0.4565 -0.5634
  898MOL0     C21133   4.404   6.790   7.219  0.3820  0.2658 -0.1679
  898MOL0     C21134   4.333   6.922   7.166 -0.6668  0.8129 -0.3175
  898MOL0     C21135   4.407   6.967   7.041 -0.2139 -1.0413  0.2640
  898MOL0     C21136   4.328   7.071   6.957 -0.2890  0.2263 -0.1216
  898MOL0     C21137   4.330   7.214   7.015 -0.7130 -0.1262 -0.1765
  898MOL0     C21138   4.282   7.315   6.913  0.8617  0.0921  0.7801
  898MOL0     C21139   4.309   7.462   6.950  0.8056 -0.2814 -0.4464
  898MOL0    Cl21140   4.215   7.567   6.843 -0.2191 -0.1348  0.6121
  898MOL0     C21141   4.680   7.108   7.359 -1.0833  0.0438 -0.0990
  898MOL0     C21142   4.801   7.176   7.403 -0.5711  0.0063 -0.6290
  898MOL0     O21143   4.966   7.264   7.676  0.3862  0.2191  0.2788
  898MOL0     C21144   5.276   7.289   7.510 -0.0494  1.3248  0.3045
  898MOL0     C21145   5.416   7.298   7.531 -1.1235  0.1060 -0.2720
  898MOL0     N21146   6.157   6.899   7.658 -1.1280  0.1901  0.2925
  898MOL0     N21147   6.268   6.858   7.704 -0.1109 -0.0450 -0.2117
  898MOL0     C21148   7.157   6.280   7.956 -0.1446  0.2792 -0.7935
  898MOL0     C21149   7.273   6.224   8.011 -0.9459 -0.0209 -0.0702
  898MOL0     C21150   7.628   5.989   8.142  0.8038 -0.5723  0.7791
  898MOL0     C21151   7.650   5.948   8.273 -0.6719 -0.2278  0.1442
  898MOL0     C21152   7.783   5.908   8.302  0.7822  0.2098 -0.6971
  898MOL0     C21153   7.880   5.899   8.195  0.6980 -0.6533  0.7176
  898MOL0     O21154   8.001   5.829   8.203  0.8305 -0.0584 -0.2173
  898MOL0     C21155   8.017   5.750   8.321 -0.0499  0.4336 -0.2162
  898MOL0     C21156   8.157   5.686   8.322  0.5976 -0.9361 -0.2603
  898MOL0     C21157   8.262   5.780   8.370 -0.2353 -1.1902  0.2481
  898MOL0     C21158   8.404   5.730   8.354 -0.4624  0.0523 -0.1876
  898MOL0     C21159   8.456   5.781   8.225 -0.2724 -0.5621 -0.4624
  898MOL0     C21160   8.483   5.811   8.113 -0.3406  0.3281 -0.0171
  898MOL0     C21161   7.847   5.946   8.068 -1.1573 -0.5142  0.1006
  898MOL0     C21162   7.730   6.011   8.049  0.3865 -0.2095  0.6251
  898MOL0     H21163   7.389   6.048   7.752 -0.6476 -2.3904  0.3539
  898MOL0     H21164   7.174   6.150   7.651 -3.6605  0.6365  1.0010
  898MOL0     H21165   6.873   6.181   7.840  3.0423  0.3422 -2.0925
  898MOL0     H21166   6.899   6.315   7.951  1.0628 -3.9248  1.0752
  898MOL0     H21167   6.809   6.465   7.795 -2.7472  0.5013  0.9585
  898MOL0     H21168   6.786   6.336   7.672  3.3687  1.7964 -1.6050
  898MOL0     H21169   6.614   6.234   7.813 -0.2085  0.1168 -0.4008
  898MOL0     H21170   6.647   6.330   7.952  1.5689  4.2538  0.9416
  898MOL0     H21171   6.575   6.484   7.693  4.4583 -1.7933  0.1888
  898MOL0     H21172   6.442   6.410   7.786 -0.4033 -0.5892  1.5506
  898MOL0     H21173   6.543   6.529   7.989 -1.1802 -0.4884 -0.9182
  898MOL0     H21174   6.647   6.612   7.881  0.6816 -0.6467  1.7214
  898MOL0     H21175   6.450   6.704   7.765 -0.9445  0.6841 -0.0221
  898MOL0     H21176   6.341   6.624   7.873 -0.2161  0.4909 -2.3112
  898MOL0     H21177   6.388   6.769   8.053  1.8901  0.9100  0.8231
  898MOL0     H21178   6.548   6.791   8.000 -0.8497  0.5080  2.4444
  898MOL0     H21179   6.487   6.944   7.816 -0.0470 -0.9379  1.0313
  898MOL0     H21180   6.414   6.999   7.962 -3.8956 -0.5448 -0.0905
  898MOL0     H21181   6.154   7.026   7.958  2.8972  0.5235 -0.0555
  898MOL0     H21182   5.915   7.020   7.649 -2.7407  0.5728  0.9972
  898MOL0     H21183   5.882   6.951   7.814  1.8644 -2.0157 -1.4667
  898MOL0     H21184   6.023   7.211   7.804 -0.8173  1.4199  1.8601
  898MOL0     H21185   5.907   7.154   7.923  0.9240 -0.3670 -0.5684
  898MOL0     H21186   5.853   7.224   7.626 -1.6247  0.6082  0.2027
  898MOL0     H21187   5.846   7.353   7.742  4.0618 -0.5007 -1.0817
  898MOL0     H21188   5.678   7.267   7.866  1.9853  0.7887 -0.0840
  898MOL0     H21189   5.664   7.114   7.777  0.6098  0.5534 -1.8877
  898MOL0     H21190   5.429   7.278   7.876  1.9220  0.4691 -0.8939
  898MOL0     H21191   5.111   7.156   7.868 -1.5259  0.7559 -0.0648
  898MOL0     H21192   5.230   7.219   7.973 -0.1814 -1.4159  0.2927
  898MOL0     H21193   5.124   7.338   7.906  3.0095  0.5953  0.2320
  898MOL0     H21194   4.985   6.902   7.478  0.1888  2.1467  2.4916
  898MOL0     H21195   4.785   6.790   7.417 -0.0055 -0.0788  2.2473
  898MOL0     H21196   4.610   6.826   7.181 -1.8247  0.3087 -1.5761
  898MOL0     H21197   4.571   6.713   7.318 -1.6194  1.0025  1.0899
  898MOL0     H21198   4.403   6.710   7.144 -3.1483 -1.6036  1.6699
  898MOL0     H21199   4.345   6.750   7.301  1.0629 -3.7431 -1.4072
  898MOL0     H21200   4.344   6.995   7.246  1.9968 -0.5320  0.6744
  898MOL0     H21201   4.226   6.912   7.149 -0.6601  0.4157 -0.1261
  898MOL0     H21202   4.500   7.013   7.075 -1.3209 -0.3474  2.4950
  898MOL0     H21203   4.427   6.877   6.982  2.0456 -0.2703 -0.2490
  898MOL0     H21204   4.224   7.039   6.941 -0.8096  1.3187  0.8828
  898MOL0     H21205   4.372   7.083   6.858 -0.1194  1.5846  0.0883
  898MOL0     H21206   4.271   7.220   7.107  0.1655  1.0121  0.3454
  898MOL0     H21207   4.434   7.232   7.042 -1.0405  1.1058  0.3761
  898MOL0     H21208   4.176   7.300   6.890  0.7080  1.6784  0.3543
  898MOL0     H21209   4.333   7.302   6.817  0.4071 -1.3655  0.6966
  898MOL0     H21210   4.412   7.491   6.930  0.0666  4.3171  1.1741
  898MOL0     H21211   4.285   7.483   7.055 -0.3965  0.8324 -0.9047
  898MOL0     H21212   4.593   7.152   7.311 -2.2390 -0.7332  1.2027
  898MOL0     H21213   4.823   7.282   7.396  2.2785 -0.3877  0.6630
  898MOL0     H21214   5.247   7.291   7.405  1.8085 -1.3308 -0.3496
  898MOL0     H21215   5.471   7.310   7.438 -1.4078  2.2020 -0.2109
  898MOL0     H21216   7.089   6.336   8.020  0.4691  0.4462 -0.2721
  898MOL0     H21217   7.301   6.246   8.114 -0.9264 -2.8387  0.6222
  898MOL0     H21218   7.580   5.948   8.355 -1.4355 -1.1693 -0.4753
  898MOL0     H21219   7.804   5.881   8.405  1.0358  3.0859  0.0801
  898MOL0     H21220   8.007   5.820   8.404  1.5941  2.0095 -1.2848
  898MOL0     H21221   7.941   5.672   8.332  1.4232 -1.0783 -0.4049
  898MOL0     H21222   8.183   5.662   8.219  1.1282 -0.9150 -0.1341
  898MOL0     H21223   8.152   5.597   8.386 -0.3881 -1.2373 -0.7420
  898MOL0     H21224   8.248   5.790   8.478  0.5582 -1.5005  0.3799
  898MOL0     H21225   8.256   5.879   8.323 -0.6856 -3.1092 -4.2668
  898MOL0     H21226   8.405   5.624   8.381 -2.4406  0.5289  2.1801
  898MOL0     H21227   8.462   5.779   8.433 -2.8311  1.1803  0.9276
  898MOL0     H21228   8.489   5.830   8.008 -1.5266  0.4231 -0.0868
  898MOL0     H21229   7.922   5.950   7.990 -0.2673 -0.1132  0.9702
  898MOL0     H21230   7.729   6.059   7.952  1.0094  2.0191  1.6680
  899MOL0     O21231   1.887   2.793   3.318  0.0957  0.3177  1.2181
  899MOL0     C21232   1.946   2.871   3.387 -0.1441 -0.6338 -0.6216
  899MOL0     O21233   1.889   2.947   3.490 -0.7190 -0.4182 -0.3818
  899MOL0     C21234   1.756   2.951   3.498 -0.7386 -1.2711 -0.2112
  899MOL0     C21235   1.678   3.015   3.399  0.2970 -0.7334  0.4867
  899MOL0     C21236   1.540   3.016   3.402 -0.4237  0.0990 -0.1239
  899MOL0     C21237   1.474   2.956   3.499 -0.2534  0.0109 -0.3324
  899MOL0     O21238   1.336   2.964   3.490  0.2451  0.1997 -0.1990
  899MOL0     C21239   1.278   3.089   3.540  0.2836  0.3170  0.3822
  899MOL0     C21240   1.125   3.110   3.498  0.2061  0.5133  0.6386
  899MOL0     C21241   1.071   3.213   3.594 -0.2772 -0.2436  0.0169
  899MOL0     C21242   1.020   3.136   3.719 -0.6334 -0.5582  0.7586
  899MOL0     C21243   0.921   3.219   3.799 -0.1145  0.3621  0.4742
  899MOL0     C21244   0.851   3.126   3.902  0.2768  0.6326  0.1224
  899MOL0     C21245   0.730   3.190   3.981  0.5220 -0.8216 -0.4390
  899MOL0     C21246   0.615   3.219   3.890 -0.2275 -1.0227 -0.0633
  899MOL0     N21247   0.500   3.261   3.967  0.0843  0.4011 -0.2832
  899MOL0     C21248   0.511   3.362   4.067  0.2967 -0.1341  0.7813
  899MOL0     C21249   0.405   3.331   4.141  0.2410  0.8007 -0.4738
  899MOL0     C21250   0.345   3.412   4.256 -0.2839 -0.3004 -0.4012
  899MOL0     C21251   0.401   3.388   4.392  0.3782 -0.1842  0.1648
  899MOL0     C21252   0.304   3.397   4.507  0.0710 -0.3843 -0.4333
  899MOL0     C21253   0.371   3.346   4.637 -0.0095  0.7517  0.5772
  899MOL0     O21254   0.302   3.383   4.754 -0.6570 -0.1113 -0.0946
  899MOL0     C21255   0.374   3.365   4.873 -0.1626 -0.7404 -0.7535
  899MOL0     C21256   0.502   3.302   4.891  0.4844 -0.2585  0.5327
  899MOL0     C21257   0.561   3.294   5.024 -0.0640 -0.1215  1.3650
  899MOL0     C21258   0.697   3.221   5.038  0.5162 -0.6372  0.1711
  899MOL0     C21259   0.493   3.356   5.131  0.5645 -0.0260  0.3037
  899MOL0     C21260   0.546   3.372   5.271 -0.3468  0.9971 -0.2341
  899MOL0     O21261   0.646   3.286   5.304 -0.2962  0.7963 -0.5899
  899MOL0     C21262   0.696   3.288   5.428  0.0914  0.1254 -0.1180
  899MOL0     C21263   0.821   3.346   5.465  0.5417 -0.1384 -0.0245
  899MOL0     C21264   0.866   3.348   5.595 -0.9933  0.4173 -0.1873
  899MOL0     C21265   0.797   3.295   5.702 -0.3608 -0.0791  0.0321
  899MOL0     O21266   0.845   3.294   5.830  0.3981 -0.6382 -0.4134
  899MOL0     C21267   0.932   3.186   5.857 -0.2297  0.5428  0.2873
  899MOL0     C21268   1.078   3.195   5.816  0.5443 -0.3059  1.3485
  899MOL0     C21269   1.142   3.314   5.882 -0.3447 -0.7337  0.1078
  899MOL0     C21270   1.272   3.348   5.808  0.0708 -0.8059 -0.3888
  899MOL0     C21271   1.388   3.261   5.852 -0.3442  0.1989 -0.6734
  899MOL0     C21272   1.518   3.283   5.766 -0.4882 -0.2805  0.7514
  899MOL0     C21273   1.573   3.426   5.770 -0.2751  0.7171  0.2483
  899MOL0     C21274   1.717   3.426   5.724  0.4169 -0.7565  0.1180
  899MOL0    Cl21275   1.795   3.579   5.757 -0.3728 -0.4628 -0.3987
  899MOL0     C21276   0.676   3.229   5.673  0.7817  0.1036  0.5022
  899MOL0     C21277   0.623   3.228   5.535  0.3395 -0.1354  0.4701
  899MOL0     O21278   0.488   3.440   5.353 -0.1092 -0.4717 -0.2273
  899MOL0     C21279   0.364   3.411   5.095  0.5018 -0.5846 -0.4504
  899MOL0     C21280   0.308   3.420   4.974  1.6184 -0.5052 -0.3756
  899MOL0     N21281   0.326   3.226   4.093 -0.7223  0.3566 -0.7323
  899MOL0     N21282   0.389   3.187   3.989  0.6859  0.3682 -0.2272
  899MOL0     C21283   1.536   2.876   3.589 -0.0950 -0.6334  0.1342
  899MOL0     C21284   1.679   2.884   3.599  0.6968  0.0339 -0.1830
  899MOL0     C21285   2.093   2.865   3.383  0.1309  0.3973 -0.5020
  899MOL0     C21286   2.179   2.962   3.439 -0.2859 -0.2344 -0.1513
  899MOL0     C21287   2.311   2.945   3.443 -0.2597 -0.2121  0.5920
  899MOL0     C21288   2.378   2.835   3.397  0.0917  0.2298 -0.4724
  899MOL0     O21289   2.514   2.837   3.415 -0.6977 -0.2449  0.1853
  899MOL0     C21290   2.603   2.744   3.340 -0.5207  0.5633  0.2239
  899MOL0     C21291   2.746   2.800   3.340  0.1479  0.6547 -0.2222
  899MOL0     C21292   2.792   2.788   3.482 -0.5439 -0.6432  0.1830
  899MOL0     C21293   2.947   2.783   3.475  0.1176  0.4186 -0.9242
  899MOL0     C21294   3.013   2.767   3.606  0.9532  0.1255 -0.0606
  899MOL0     C21295   3.075   2.766   3.708 -0.1863 -0.2939 -1.2277
  899MOL0     C21296   2.300   2.741   3.336 -0.5036 -0.3073  0.7763
  899MOL0     C21297   2.163   2.754   3.330 -0.5203  0.5836 -0.3168
  899MOL0     H21298   1.737   3.058   3.319  1.1552 -1.8711  0.4873
  899MOL0     H21299   1.475   3.063   3.329 -0.7871 -0.1876  0.0145
  899MOL0     H21300   1.291   3.083   3.648  1.6317 -1.7240  0.1610
  899MOL0     H21301   1.331   3.169   3.489  1.4389 -1.6920 -1.7419
  899MOL0     H21302   1.122   3.157   3.400  1.1734 -3.0701 -1.2941
  899MOL0     H21303   1.068   3.016   3.495  0.1514  0.5475 -2.3092
  899MOL0     H21304   1.134   3.301   3.602 -0.8332  0.1627  0.0224
  899MOL0     H21305   0.983   3.253   3.542  1.2102  0.4579 -2.0601
  899MOL0     H21306   0.973   3.039   3.697 -2.0471  0.4611 -1.0521
  899MOL0     H21307   1.109   3.123   3.780  0.8003  1.1518 -0.8594
  899MOL0     H21308   0.975   3.302   3.846  1.0268 -0.5745  0.8722
  899MOL0     H21309   0.844   3.251   3.728  0.0790  0.8762  0.4858
  899MOL0     H21310   0.812   3.038   3.850  0.0585  0.7410  0.0999
  899MOL0     H21311   0.918   3.100   3.984 -0.5213 -0.9652  0.3152
  899MOL0     H21312   0.695   3.124   4.060 -0.4209  1.0550  0.7814
  899MOL0     H21313   0.766   3.287   4.016 -2.9910  0.0203  1.2699
  899MOL0     H21314   0.585   3.135   3.827  0.7131 -1.0809 -0.4436
  899MOL0     H21315   0.640   3.301   3.823 -0.9103 -0.6001  0.1906
  899MOL0     H21316   0.579   3.446   4.061 -0.6714  0.6601 -5.8470
  899MOL0     H21317   0.336   3.518   4.230  2.4892 -0.0997 -0.8597
  899MOL0     H21318   0.242   3.375   4.263 -0.2297 -0.1990  1.8795
  899MOL0     H21319   0.486   3.455   4.409  1.9038 -2.2161  0.8709
  899MOL0     H21320   0.434   3.284   4.396 -0.7557 -0.6161 -1.0339
  899MOL0     H21321   0.217   3.333   4.487  2.3016 -2.7072 -3.7898
  899MOL0     H21322   0.255   3.493   4.524  1.4287 -0.0749  2.3675
  899MOL0     H21323   0.473   3.385   4.629  0.5982 -0.6296  1.2734
  899MOL0     H21324   0.380   3.238   4.629 -0.8471  0.6840  0.4293
  899MOL0     H21325   0.550   3.253   4.806 -2.5674 -2.5944 -0.0080
  899MOL0     H21326   0.735   3.166   4.951 -1.7423 -0.9634 -0.6768
  899MOL0     H21327   0.760   3.305   5.069  1.2539 -1.6327  1.4478
  899MOL0     H21328   0.681   3.147   5.117 -0.1098 -0.0899  0.5609
  899MOL0     H21329   0.899   3.379   5.396  1.1808 -0.7255  0.3964
  899MOL0     H21330   0.959   3.390   5.633 -1.4650  0.1396  1.3268
  899MOL0     H21331   0.942   3.186   5.966 -0.3632  0.2743  0.3024
  899MOL0     H21332   0.885   3.094   5.819  0.1168  0.5770 -0.2387
  899MOL0     H21333   1.139   3.106   5.831  1.1152 -0.2661 -0.4690
  899MOL0     H21334   1.071   3.217   5.709 -2.3661  2.0169  1.9001
  899MOL0     H21335   1.141   3.299   5.990 -0.1211 -2.3822 -0.1007
  899MOL0     H21336   1.069   3.393   5.860 -0.2674 -1.1360 -1.8074
  899MOL0     H21337   1.260   3.339   5.699 -0.2171  1.9262 -0.6527
  899MOL0     H21338   1.300   3.452   5.826 -1.9053 -0.7017  2.7604
  899MOL0     H21339   1.357   3.156   5.851  1.4336 -0.3486 -1.3690
  899MOL0     H21340   1.407   3.286   5.957 -1.3463 -1.6913  0.0340
  899MOL0     H21341   1.596   3.221   5.811  0.9543  0.6358 -0.4108
  899MOL0     H21342   1.492   3.238   5.670 -2.0531  3.4842 -0.7629
  899MOL0     H21343   1.576   3.451   5.876  3.7020  0.9660  0.2306
  899MOL0     H21344   1.506   3.487   5.708 -0.9811  0.0525  0.3527
  899MOL0     H21345   1.721   3.397   5.619 -2.9107  4.4178 -1.8237
  899MOL0     H21346   1.780   3.356   5.780  3.6615  2.3079  0.6423
  899MOL0     H21347   0.616   3.181   5.750 -1.3718  0.6660 -0.7298
  899MOL0     H21348   0.545   3.157   5.508  0.6380 -0.3460  0.1433
  899MOL0     H21349   0.302   3.460   5.170  0.2461 -0.0713 -0.9982
  899MOL0     H21350   0.212   3.470   4.969  1.2449 -1.0470  0.8584
  899MOL0     H21351   1.492   2.820   3.671  1.9525  1.3797  2.8096
  899MOL0     H21352   1.734   2.826   3.673  2.9595  2.4733  0.1988
  899MOL0     H21353   2.134   3.052   3.479  0.6421 -0.6881  2.1090
  899MOL0     H21354   2.379   3.018   3.486  2.3176 -2.8985  1.3959
  899MOL0     H21355   2.601   2.637   3.363 -2.1635 -0.1538 -2.6677
  899MOL0     H21356   2.571   2.740   3.235 -0.7177 -1.3460  0.3200
  899MOL0     H21357   2.750   2.906   3.311 -0.8718  0.7562 -0.0234
  899MOL0     H21358   2.812   2.758   3.264  0.2300  2.2450 -1.0731
  899MOL0     H21359   2.758   2.692   3.522  3.4839 -2.1789  0.4697
  899MOL0     H21360   2.749   2.871   3.538 -1.3628  0.2143 -1.6675
  899MOL0     H21361   2.988   2.875   3.432 -2.4319  1.7342 -0.7065
  899MOL0     H21362   2.974   2.698   3.411 -0.9996  0.6410 -1.7264
  899MOL0     H21363   3.118   2.758   3.806 -2.9917 -1.2134  0.0425
  899MOL0     H21364   2.356   2.655   3.300 -1.5424 -1.3730  1.6322
  899MOL0     H21365   2.121   2.671   3.274 -0.4937  0.8802 -0.7857
  900MOL0     O21366   4.507   7.718   8.797  0.3412  0.5701 -0.0705
  900MOL0     C21367   4.515   7.606   8.847  1.0777 -0.5002 -0.2713
  900MOL0     O21368   4.598   7.571   8.956 -0.0333 -0.5024  0.2378
  900MOL0     C21369   4.706   7.651   8.972  0.3553 -0.1707 -0.8582
  900MOL0     C21370   4.693   7.781   9.023  0.3292 -0.4973  0.4726
  900MOL0     C21371   4.806   7.857   9.057  0.7073 -0.8729 -0.6686
  900MOL0     C21372   4.933   7.796   9.055  0.0145 -0.6693  0.2299
  900MOL0     O21373   5.048   7.861   9.062 -0.3116  0.3355  0.0307
  900MOL0     C21374   5.049   8.001   9.029 -0.2346 -0.2494 -0.1211
  900MOL0     C21375   4.999   8.033   8.890 -0.7403  0.1809 -0.0835
  900MOL0     C21376   5.007   8.190   8.859  0.2662  0.6199 -0.4540
  900MOL0     C21377   5.145   8.224   8.813 -0.3147 -0.2764 -0.4181
  900MOL0     C21378   5.175   8.357   8.757 -0.5989  0.7862  1.0926
  900MOL0     C21379   5.149   8.371   8.603 -1.2299  0.1828  0.5863
  900MOL0     C21380   5.109   8.512   8.577  0.9340 -0.5519 -0.5099
  900MOL0     C21381   5.068   8.546   8.438 -0.3107  0.9619  0.9417
  900MOL0     N21382   4.937   8.485   8.390 -0.3346 -0.9262  0.1893
  900MOL0     C21383   4.915   8.357   8.348 -0.1959 -0.5127 -0.2909
  900MOL0     C21384   4.777   8.361   8.322 -0.5117 -0.2400  0.4738
  900MOL0     C21385   4.704   8.239   8.278 -0.3162 -0.7039 -0.5754
  900MOL0     C21386   4.570   8.272   8.223 -0.7677 -0.3719  0.6265
  900MOL0     C21387   4.598   8.319   8.084  0.4364 -0.4744  0.9084
  900MOL0     C21388   4.470   8.356   8.015  0.6036  0.0643 -0.3203
  900MOL0     O21389   4.398   8.235   7.985  0.1368 -0.3453  0.3567
  900MOL0     C21390   4.265   8.246   7.954 -0.2588 -0.1861 -1.3551
  900MOL0     C21391   4.201   8.364   7.910 -0.3383 -0.1173 -0.2872
  900MOL0     C21392   4.063   8.363   7.870 -0.3295 -0.3809  0.2853
  900MOL0     C21393   4.007   8.491   7.806  0.0028  1.0403 -0.4459
  900MOL0     C21394   3.991   8.244   7.888  0.1194 -0.5133 -1.2046
  900MOL0     C21395   3.845   8.229   7.877 -0.1732 -0.1230 -1.1384
  900MOL0     O21396   3.772   8.345   7.886  0.4185 -0.3547 -0.6192
  900MOL0     C21397   3.649   8.333   7.939 -0.2491 -0.2716 -0.3604
  900MOL0     C21398   3.532   8.288   7.870  0.1936  0.9334 -0.0410
  900MOL0     C21399   3.407   8.290   7.931  0.0462  0.2454 -0.2875
  900MOL0     C21400   3.399   8.334   8.060  0.3450 -0.0948  0.0060
  900MOL0     O21401   3.267   8.334   8.116 -1.1424 -0.0557  0.6284
  900MOL0     C21402   3.258   8.380   8.243  0.8051 -0.0247 -0.9100
  900MOL0     C21403   3.117   8.361   8.283  0.2997 -0.0818  0.6203
  900MOL0     C21404   3.086   8.393   8.429 -0.4197  0.5658 -0.9925
  900MOL0     C21405   3.101   8.541   8.464  0.5778  0.3758  0.3497
  900MOL0     C21406   3.044   8.571   8.609  0.3705 -0.2286 -1.0802
  900MOL0     C21407   2.897   8.527   8.637  0.0462  0.1294  0.1312
  900MOL0     C21408   2.870   8.561   8.781 -0.4915 -0.6647 -0.3155
  900MOL0     C21409   2.889   8.717   8.814  0.5982  0.0887 -0.7980
  900MOL0    Cl21410   2.767   8.812   8.718  0.3141 -0.1310  0.4187
  900MOL0     C21411   3.513   8.382   8.133 -0.0274  0.2480  0.4805
  900MOL0     C21412   3.633   8.382   8.065  0.6432 -0.5617 -1.1201
  900MOL0     O21413   3.796   8.118   7.855  0.4088 -0.0533 -0.7124
  900MOL0     C21414   4.062   8.132   7.916  0.3993  0.8662  0.2947
  900MOL0     C21415   4.195   8.136   7.952  0.2670 -0.2066 -0.1133
  900MOL0     N21416   4.722   8.473   8.367  1.2990  0.5344 -0.2369
  900MOL0     N21417   4.816   8.548   8.411  0.0355  0.4510 -0.6461
  900MOL0     C21418   4.943   7.663   9.008  0.6853  0.3599  0.1600
  900MOL0     C21419   4.827   7.586   8.970 -0.1798 -0.1801  0.4797
  900MOL0     C21420   4.430   7.499   8.789 -0.0244 -0.4091 -0.5562
  900MOL0     C21421   4.425   7.377   8.858  0.0834 -0.0984  1.1532
  900MOL0     C21422   4.334   7.277   8.809  0.1876 -0.0587 -0.1152
  900MOL0     C21423   4.259   7.298   8.698  0.4030 -0.4177 -0.0818
  900MOL0     O21424   4.182   7.197   8.651  0.2713  0.4388 -0.9824
  900MOL0     C21425   4.101   7.186   8.529  0.2665 -0.0940 -0.2579
  900MOL0     C21426   4.166   7.129   8.397  0.2824  0.4187 -0.9576
  900MOL0     C21427   4.255   7.238   8.331 -1.7152 -0.4260  0.8860
  900MOL0     C21428   4.301   7.168   8.195 -0.3402 -0.0172 -0.4159
  900MOL0     C21429   4.363   7.258   8.097  0.4450  0.1259  0.5406
  900MOL0     C21430   4.404   7.326   8.003 -0.0758  1.0151 -0.2595
  900MOL0     C21431   4.264   7.422   8.638 -0.4274  0.4336 -0.2231
  900MOL0     C21432   4.348   7.527   8.676 -0.6465  0.3808  0.3682
  900MOL0     H21433   4.598   7.834   9.016  1.2452  1.0503 -1.0464
  900MOL0     H21434   4.785   7.961   9.083  0.8717 -1.3797  1.7249
  900MOL0     H21435   4.990   8.052   9.106 -1.6891 -1.7389 -0.1813
  900MOL0     H21436   5.151   8.038   9.039 -0.7840  1.7781 -1.4430
  900MOL0     H21437   5.055   7.973   8.818 -0.0028  1.2461 -0.4279
  900MOL0     H21438   4.892   8.010   8.889 -0.7318  0.0976 -1.8786
  900MOL0     H21439   4.936   8.221   8.781 -0.0605  1.0214 -0.0023
  900MOL0     H21440   4.985   8.250   8.948  1.6390  1.4691 -0.6661
  900MOL0     H21441   5.208   8.217   8.902 -1.3313  1.0876  0.4504
  900MOL0     H21442   5.180   8.151   8.739  1.6976 -1.3204  1.4706
  900MOL0     H21443   5.114   8.427   8.815  1.9237  1.5987  2.9363
  900MOL0     H21444   5.272   8.405   8.776 -2.7891  5.7009  1.4149
  900MOL0     H21445   5.241   8.336   8.555 -1.6095 -2.4901  1.6631
  900MOL0     H21446   5.067   8.309   8.567  0.1059 -0.8399 -0.8133
  900MOL0     H21447   5.024   8.540   8.640  2.5954 -1.3439  2.2429
  900MOL0     H21448   5.198   8.569   8.605  1.1963 -0.5224 -1.3612
  900MOL0     H21449   5.149   8.513   8.372 -0.0350  1.3514  1.0818
  900MOL0     H21450   5.061   8.655   8.434 -2.4310  0.8242 -1.0638
  900MOL0     H21451   4.992   8.281   8.337  0.5719 -0.0501  1.5530
  900MOL0     H21452   4.763   8.178   8.209  0.1803  0.0579 -0.8456
  900MOL0     H21453   4.684   8.180   8.368 -1.7470 -0.5385 -0.7647
  900MOL0     H21454   4.522   8.350   8.282  0.8367  1.9316 -0.9159
  900MOL0     H21455   4.502   8.186   8.217 -0.1068 -0.8517 -0.4031
  900MOL0     H21456   4.648   8.239   8.029 -0.9195 -0.9903  0.3924
  900MOL0     H21457   4.655   8.413   8.089 -1.7937  0.9370  1.2725
  900MOL0     H21458   4.487   8.412   7.923  0.4105  0.1206 -0.3221
  900MOL0     H21459   4.410   8.425   8.075  3.5881  0.9906  1.8204
  900MOL0     H21460   4.255   8.457   7.898 -0.4630  0.8175  4.5303
  900MOL0     H21461   3.940   8.467   7.724 -0.7071 -1.7198  0.8153
  900MOL0     H21462   3.949   8.544   7.883 -1.1907 -1.6293  0.6199
  900MOL0     H21463   4.089   8.560   7.783  0.6528  1.0833  1.7342
  900MOL0     H21464   3.543   8.247   7.770  0.6212 -3.2305  1.5504
  900MOL0     H21465   3.326   8.248   7.873 -1.4613  2.4967  0.0589
  900MOL0     H21466   3.323   8.331   8.316  1.5170  3.2614  0.8191
  900MOL0     H21467   3.274   8.488   8.249 -1.5387  0.2801  1.9324
  900MOL0     H21468   3.062   8.424   8.213  0.5628 -1.9665 -1.3980
  900MOL0     H21469   3.087   8.258   8.262 -3.7469  1.1109 -0.4628
  900MOL0     H21470   3.162   8.341   8.489  2.4055  3.9665 -1.2593
  900MOL0     H21471   2.985   8.354   8.444 -0.6172  0.3118 -2.8348
  900MOL0     H21472   3.205   8.575   8.462  0.6872  0.1202  1.2145
  900MOL0     H21473   3.046   8.609   8.399  2.8369  2.1374  0.1691
  900MOL0     H21474   3.045   8.681   8.610 -2.0441 -0.1504 -0.0584
  900MOL0     H21475   3.116   8.539   8.685 -0.3017 -0.3668 -0.5018
  900MOL0     H21476   2.819   8.564   8.571 -1.3359 -0.3706  1.4153
  900MOL0     H21477   2.894   8.418   8.628 -0.2393 -0.0288  1.8249
  900MOL0     H21478   2.949   8.517   8.844  1.1603  1.8268 -0.5013
  900MOL0     H21479   2.767   8.531   8.803 -0.7006  0.8832  0.9267
  900MOL0     H21480   2.992   8.749   8.798 -0.1432  3.6525  0.6348
  900MOL0     H21481   2.879   8.736   8.921  1.8268  0.0356 -0.6624
  900MOL0     H21482   3.508   8.408   8.238  1.8036 -0.1254  0.6963
  900MOL0     H21483   3.722   8.420   8.113  0.7204  0.9341 -2.3674
  900MOL0     H21484   4.008   8.039   7.926  0.4968  0.9546  2.0953
  900MOL0     H21485   4.230   8.041   7.992 -3.6046 -0.5075  3.2299
  900MOL0     H21486   5.042   7.619   9.004  0.8889  0.7104  1.0287
  900MOL0     H21487   4.830   7.480   8.947 -1.0745  0.0405 -0.7775
  900MOL0     H21488   4.489   7.370   8.946  1.1398  1.8829  0.5907
  900MOL0     H21489   4.328   7.180   8.859 -2.8107 -1.4277 -2.7777
  900MOL0     H21490   4.012   7.125   8.546 -0.0983  0.4478 -0.1692
  900MOL0     H21491   4.062   7.286   8.506 -0.4249 -0.1922  0.4622
  900MOL0     H21492   4.077   7.092   8.344 -1.5007 -2.5704  3.5612
  900MOL0     H21493   4.229   7.047   8.431  0.3883  0.1714 -1.7251
  900MOL0     H21494   4.342   7.271   8.389 -1.7253  0.3463  0.4773
  900MOL0     H21495   4.195   7.325   8.302 -1.5372 -0.5348  0.1717
  900MOL0     H21496   4.210   7.129   8.148 -1.1256 -1.2142  1.9684
  900MOL0     H21497   4.375   7.098   8.234 -2.0297 -0.3065  2.5654
  900MOL0     H21498   4.445   7.383   7.922  3.4557 -0.7229  0.0705
  900MOL0     H21499   4.195   7.443   8.557 -1.5374 -0.6141  0.4178
  900MOL0     H21500   4.339   7.626   8.632 -1.9200  1.8295  3.6326
  901MOL0     O21501   5.810   9.434   3.077 -1.0979  0.3961  0.1334
  901MOL0     C21502   5.858   9.413   2.970  1.1211  0.5942  0.1450
  901MOL0     O21503   5.987   9.435   2.922 -0.3016  0.0861 -0.2517
  901MOL0     C21504   6.071   9.480   3.012 -0.2869 -0.5840 -0.5425
  901MOL0     C21505   6.115   9.405   3.117  0.8615  0.3820 -0.6424
  901MOL0     C21506   6.219   9.461   3.196  0.6417  0.1693 -0.1199
  901MOL0     C21507   6.266   9.591   3.171  0.1337  0.4273 -0.0420
  901MOL0     O21508   6.338   9.649   3.270 -0.0106  0.9758 -0.0275
  901MOL0     C21509   6.474   9.653   3.228  0.4414 -0.2883 -0.2603
  901MOL0     C21510   6.532   9.789   3.266  0.5524 -0.2710 -0.6102
  901MOL0     C21511   6.545   9.814   3.419 -0.8202 -0.9921 -0.1467
  901MOL0     C21512   6.590   9.696   3.511  0.4045  0.7213 -0.1881
  901MOL0     C21513   6.627   9.756   3.641  0.2052 -0.3632  0.0113
  901MOL0     C21514   6.647   9.651   3.746  0.0028  0.7752 -0.3473
  901MOL0     C21515   6.781   9.578   3.729 -0.2706  0.4509 -0.0991
  901MOL0     C21516   6.795   9.461   3.832  0.2301 -0.4324 -0.7369
  901MOL0     N21517   6.667   9.386   3.835  0.4278 -0.1753  0.3137
  901MOL0     C21518   6.631   9.297   3.733  0.0709 -0.2610 -0.1378
  901MOL0     C21519   6.516   9.248   3.768 -0.7701  0.1328  0.0127
  901MOL0     C21520   6.427   9.162   3.682  0.8113 -0.4193  0.8108
  901MOL0     C21521   6.292   9.234   3.655  0.1192 -0.5583  0.3277
  901MOL0     C21522   6.201   9.143   3.564 -0.1343  0.0492  0.3775
  901MOL0     C21523   6.073   9.225   3.537 -0.1829  0.8476  0.4814
  901MOL0     O21524   6.009   9.152   3.428  0.8215 -0.7811 -0.4432
  901MOL0     C21525   5.879   9.184   3.386 -1.1464  0.1247  0.1832
  901MOL0     C21526   5.796   9.266   3.468  0.2408  0.4970 -0.5896
  901MOL0     C21527   5.662   9.277   3.430 -0.2744 -0.1841  0.1374
  901MOL0     C21528   5.574   9.359   3.512  0.1027 -0.4574 -1.0641
  901MOL0     C21529   5.612   9.222   3.310 -0.5956  0.3884 -0.1579
  901MOL0     C21530   5.479   9.251   3.251 -0.0070 -0.1617  0.4816
  901MOL0     O21531   5.414   9.371   3.280 -0.4164  0.4932  0.3055
  901MOL0     C21532   5.292   9.401   3.226  0.0139 -0.1602 -0.6934
  901MOL0     C21533   5.263   9.410   3.088  0.0529  0.6562  0.2013
  901MOL0     C21534   5.134   9.441   3.036  0.2706 -0.3829 -0.6800
  901MOL0     C21535   5.035   9.484   3.121  0.5051 -0.1690  0.2640
  901MOL0     O21536   4.920   9.519   3.064 -0.3671 -0.4329  0.0430
  901MOL0     C21537   4.841   9.624   3.118  0.7345  1.1091  0.0901
  901MOL0     C21538   4.757   9.690   3.019 -0.1544 -0.1790  0.0148
  901MOL0     C21539   4.668   9.793   3.083  0.3607 -0.0445 -0.2851
  901MOL0     C21540   4.545   9.823   2.994 -0.7794 -0.0078  0.0273
  901MOL0     C21541   4.444   9.899   3.066  1.3468 -0.2292  0.4292
  901MOL0     C21542   4.326   9.918   2.967  0.0821  0.7702 -0.5023
  901MOL0     C21543   4.222  10.004   3.025  0.1287 -0.1697  0.2313
  901MOL0     C21544   4.112  10.044   2.924  0.1442  0.0701  0.5114
  901MOL0    Cl21545   3.999  10.155   3.016 -0.2378  0.2787 -0.2865
  901MOL0     C21546   5.053   9.469   3.260  0.1293 -0.1452  0.2603
  901MOL0     C21547   5.187   9.432   3.314  0.1550  0.1403 -0.5518
  901MOL0     O21548   5.433   9.170   3.183 -0.5170  0.3133  0.8873
  901MOL0     C21549   5.698   9.142   3.231  0.0602  0.4526 -0.4879
  901MOL0     C21550   5.835   9.128   3.272 -0.5822  0.0985  0.0864
  901MOL0     N21551   6.487   9.284   3.901  0.7558  0.3437 -0.1236
  901MOL0     N21552   6.573   9.373   3.934  1.8765 -0.1843 -0.1568
  901MOL0     C21553   6.229   9.657   3.057  0.9389  0.3367 -0.3080
  901MOL0     C21554   6.130   9.603   2.984  0.8013  0.2466  0.8665
  901MOL0     C21555   5.763   9.352   2.870 -0.1699 -0.0484 -0.9018
  901MOL0     C21556   5.803   9.340   2.736  0.3495 -0.1925 -0.6175
  901MOL0     C21557   5.729   9.266   2.647 -0.7919 -0.2117 -0.4178
  901MOL0     C21558   5.615   9.190   2.691  0.6563  0.2172  0.1269
  901MOL0     O21559   5.546   9.104   2.602 -0.2221 -0.9429  0.3819
  901MOL0     C21560   5.606   9.077   2.477  0.0431 -0.5280  0.3089
  901MOL0     C21561   5.535   8.957   2.403  0.7407 -0.6295 -0.3137
  901MOL0     C21562   5.416   9.008   2.320  1.0832 -0.9980  0.1203
  901MOL0     C21563   5.325   8.898   2.271  0.7994  0.3458  0.0252
  901MOL0     C21564   5.208   8.933   2.194 -0.1411 -0.8843  0.2876
  901MOL0     C21565   5.115   8.982   2.132 -0.3863 -0.6547  0.0381
  901MOL0     C21566   5.569   9.215   2.823  0.1913  0.8633 -0.6829
  901MOL0     C21567   5.643   9.305   2.908 -0.2946  0.3120  0.6854
  901MOL0     H21568   6.078   9.304   3.127 -1.5490  1.0016 -2.4011
  901MOL0     H21569   6.246   9.401   3.282 -0.0489  0.7322  0.4952
  901MOL0     H21570   6.526   9.575   3.284 -2.5005 -1.5336  0.9518
  901MOL0     H21571   6.490   9.642   3.120 -2.4533 -0.8347 -0.7065
  901MOL0     H21572   6.632   9.792   3.222  1.1928  0.7891  0.8182
  901MOL0     H21573   6.462   9.862   3.223  1.1039 -0.4819 -1.9013
  901MOL0     H21574   6.619   9.895   3.418 -1.1164 -0.7157 -1.0518
  901MOL0     H21575   6.450   9.847   3.462 -1.6024 -1.5598 -1.4031
  901MOL0     H21576   6.500   9.634   3.523  1.6930 -0.8736  1.8478
  901MOL0     H21577   6.678   9.652   3.465 -0.0051  0.7978 -1.0625
  901MOL0     H21578   6.718   9.816   3.642 -1.7537  2.8210  0.8374
  901MOL0     H21579   6.552   9.832   3.668  0.5478  0.9811 -2.4976
  901MOL0     H21580   6.655   9.703   3.842 -0.1422  0.2550 -0.0454
  901MOL0     H21581   6.562   9.582   3.745  0.4020  0.2554  0.2526
  901MOL0     H21582   6.792   9.533   3.630  0.3873 -1.5879  0.8421
  901MOL0     H21583   6.861   9.653   3.734  0.6398 -0.5701  2.4600
  901MOL0     H21584   6.801   9.511   3.929  0.2652 -0.2204 -0.8479
  901MOL0     H21585   6.877   9.392   3.809 -1.0186 -2.5265  0.7934
  901MOL0     H21586   6.675   9.284   3.634 -1.1149 -0.6672 -0.6302
  901MOL0     H21587   6.484   9.122   3.598  1.6946 -2.2310  2.1967
  901MOL0     H21588   6.397   9.073   3.738  1.5824 -0.4642  1.1595
  901MOL0     H21589   6.324   9.328   3.609 -1.8264  1.0159  1.9999
  901MOL0     H21590   6.244   9.261   3.749  0.8881  0.7275  0.3718
  901MOL0     H21591   6.178   9.057   3.627  3.2107 -1.4637 -0.2858
  901MOL0     H21592   6.251   9.120   3.470 -0.7018  0.0773  0.0622
  901MOL0     H21593   6.108   9.319   3.492  2.4040  0.0196  0.6194
  901MOL0     H21594   6.018   9.248   3.629  0.2281  3.5485  0.1451
  901MOL0     H21595   5.820   9.299   3.569 -5.3136 -0.1879  1.2921
  901MOL0     H21596   5.619   9.389   3.607 -2.0331  1.0028 -0.4490
  901MOL0     H21597   5.550   9.454   3.463 -2.6355 -0.7414 -0.4563
  901MOL0     H21598   5.476   9.312   3.528 -0.0836  0.5715  1.0958
  901MOL0     H21599   5.331   9.375   3.011  0.3531  1.2752  0.1742
  901MOL0     H21600   5.110   9.452   2.931  0.8479  1.1606 -0.6748
  901MOL0     H21601   4.769   9.587   3.191 -1.3369 -0.4406 -2.5660
  901MOL0     H21602   4.905   9.697   3.168  3.0818 -0.9904  0.3741
  901MOL0     H21603   4.817   9.732   2.938  2.6234 -1.7018  1.1620
  901MOL0     H21604   4.706   9.609   2.966 -0.2944 -0.6054  0.7779
  901MOL0     H21605   4.724   9.883   3.108 -1.4135  0.9436  0.3128
  901MOL0     H21606   4.625   9.760   3.179 -2.0316  4.4687  0.4604
  901MOL0     H21607   4.584   9.878   2.908  0.8784 -1.2191 -0.0493
  901MOL0     H21608   4.501   9.731   2.957 -0.5706 -0.0717 -0.0587
  901MOL0     H21609   4.492   9.993   3.096  0.5336  0.3174  0.0636
  901MOL0     H21610   4.415   9.846   3.157  1.3140  0.0744  0.5981
  901MOL0     H21611   4.360   9.969   2.876  0.4836  0.3066 -0.6142
  901MOL0     H21612   4.285   9.820   2.941  1.7497 -0.4510  1.1937
  901MOL0     H21613   4.280  10.092   3.056  0.1698 -0.0877 -0.0731
  901MOL0     H21614   4.182   9.955   3.114  2.5593  2.7134  3.1801
  901MOL0     H21615   4.060   9.962   2.873 -1.3592  2.3701 -1.8864
  901MOL0     H21616   4.152  10.108   2.845  0.7058 -0.2178  0.5541
  901MOL0     H21617   4.970   9.492   3.326  0.9835 -1.8791  2.0542
  901MOL0     H21618   5.191   9.421   3.422 -0.8773 -2.8875 -0.7233
  901MOL0     H21619   5.653   9.089   3.148 -1.6427 -0.2406  0.8138
  901MOL0     H21620   5.907   9.079   3.207  1.8553 -1.6979  3.8202
  901MOL0     H21621   6.278   9.752   3.039  3.9763 -0.9554  0.5594
  901MOL0     H21622   6.086   9.652   2.899 -3.8352  0.3510  3.0208
  901MOL0     H21623   5.895   9.389   2.707  2.3054 -0.4252  4.2500
  901MOL0     H21624   5.767   9.278   2.546  1.6049  1.3998  0.6030
  901MOL0     H21625   5.604   9.162   2.408 -0.5281 -1.4985 -0.9168
  901MOL0     H21626   5.712   9.051   2.481 -0.4492 -2.6892  0.7566
  901MOL0     H21627   5.506   8.877   2.471  0.1159 -1.8863 -1.9720
  901MOL0     H21628   5.603   8.907   2.333  1.0700  0.5808 -0.8945
  901MOL0     H21629   5.463   9.051   2.231  2.2609 -0.5288  0.9365
  901MOL0     H21630   5.358   9.088   2.367  0.8582 -0.7673 -0.5386
  901MOL0     H21631   5.286   8.842   2.356  0.3160 -1.8323 -1.5241
  901MOL0     H21632   5.386   8.825   2.218  0.7344  0.2392  0.0955
  901MOL0     H21633   5.030   9.025   2.082  0.6093 -0.3819 -1.4855
  901MOL0     H21634   5.472   9.172   2.847  0.3694  0.4409 -0.7204
  901MOL0     H21635   5.613   9.320   3.011  1.6145 -0.3122  1.3682
  902MOL0     O21636   3.313   7.772   9.380 -0.3149 -0.0071 -0.5549
  902MOL0     C21637   3.248   7.817   9.477 -0.3336  0.2648  0.5145
  902MOL0     O21638   3.112   7.846   9.473  0.2658  0.4960 -0.5486
  902MOL0     C21639   3.033   7.807   9.365 -0.5036  0.0649  0.3596
  902MOL0     C21640   2.959   7.906   9.291 -1.3723 -0.3038 -0.0957
  902MOL0     C21641   2.878   7.873   9.185  0.6353  0.0854 -0.5795
  902MOL0     C21642   2.846   7.738   9.157  0.5841  0.0408 -0.0198
  902MOL0     O21643   2.759   7.707   9.059  0.4683 -0.2292  0.7901
  902MOL0     C21644   2.636   7.780   9.055 -0.3190 -0.0753  0.8968
  902MOL0     C21645   2.529   7.676   9.028  0.1830  0.6117 -0.7539
  902MOL0     C21646   2.395   7.741   9.013 -0.4661 -0.3560  0.8214
  902MOL0     C21647   2.293   7.629   8.995 -0.1856  0.4094 -0.2040
  902MOL0     C21648   2.163   7.685   8.931 -0.9198  0.3330 -0.5966
  902MOL0     C21649   2.088   7.760   9.043  0.3436  0.1760  1.0058
  902MOL0     C21650   1.940   7.763   9.010 -0.9979 -0.8875  0.2841
  902MOL0     C21651   1.850   7.816   9.119 -0.2352 -0.2924 -0.0243
  902MOL0     N21652   1.711   7.800   9.079  0.8477  0.5330  0.0492
  902MOL0     C21653   1.641   7.870   8.981 -0.1396  0.4681 -1.0610
  902MOL0     C21654   1.517   7.816   8.986 -0.5380 -0.1330 -0.2607
  902MOL0     C21655   1.393   7.849   8.915  0.0880  0.5890 -0.4855
  902MOL0     C21656   1.304   7.953   8.984  0.1906  0.3244  0.6370
  902MOL0     C21657   1.235   7.899   9.107  0.3059 -0.3096 -0.0564
  902MOL0     C21658   1.078   7.918   9.113  0.9675 -0.1093  0.0864
  902MOL0     O21659   1.014   7.833   9.210 -0.0803 -0.1490 -0.2307
  902MOL0     C21660   0.879   7.838   9.205  0.6540 -0.1051  0.5827
  902MOL0     C21661   0.818   7.711   9.219  0.4596  1.3559  0.7135
  902MOL0     C21662   0.676   7.693   9.215  0.1224  0.3262  0.2684
  902MOL0     C21663   0.624   7.545   9.229  0.1475 -0.7670 -0.3432
  902MOL0     C21664   0.592   7.802   9.196 -0.6262 -0.4656 -0.2597
  902MOL0     C21665   0.446   7.802   9.175  0.6185 -0.1035  0.4516
  902MOL0     O21666   0.377   7.918   9.215  0.3028  0.8445 -0.5500
  902MOL0     C21667   0.241   7.929   9.198 -0.1868  0.5025  0.3756
  902MOL0     C21668   0.198   8.053   9.230 -0.9190  0.3467 -0.0523
  902MOL0     C21669   0.065   8.095   9.225 -0.4507 -0.4094 -0.3212
  902MOL0     C21670  -0.030   8.006   9.172 -0.4593  0.2414 -0.3720
  902MOL0     O21671  -0.153   8.055   9.132  0.8643 -0.3780 -0.0770
  902MOL0     C21672  -0.268   7.981   9.186  0.4463 -0.0817  0.4762
  902MOL0     C21673  -0.324   8.053   9.319 -0.4234 -0.2473  1.2013
  902MOL0     C21674  -0.350   8.200   9.288  0.5058  0.5220 -0.1741
  902MOL0     C21675  -0.481   8.223   9.214  0.2696  0.3796 -0.2485
  902MOL0     C21676  -0.517   8.363   9.169  0.4261 -0.5849 -0.0471
  902MOL0     C21677  -0.639   8.365   9.077  0.0575  0.4751  0.4428
  902MOL0     C21678  -0.673   8.507   9.040  0.3274  0.2758 -0.0904
  902MOL0     C21679  -0.775   8.519   8.939  0.9836 -0.8388  1.0096
  902MOL0    Cl21680  -0.812   8.680   8.921 -0.0631  0.3921  0.4703
  902MOL0     C21681   0.013   7.875   9.137  0.0085 -0.4920 -0.6152
  902MOL0     C21682   0.146   7.831   9.158 -0.0872 -0.3335 -0.3915
  902MOL0     O21683   0.400   7.702   9.120 -0.1273 -0.4383 -0.2513
  902MOL0     C21684   0.654   7.928   9.199 -0.2971 -0.7783 -0.1690
  902MOL0     C21685   0.790   7.945   9.200  0.8848  0.4947 -0.2224
  902MOL0     N21686   1.511   7.721   9.089 -0.5129 -0.3568 -0.1706
  902MOL0     N21687   1.629   7.707   9.145  0.3107 -0.3223 -0.0895
  902MOL0     C21688   2.900   7.635   9.241  0.5579 -0.5030 -0.0684
  902MOL0     C21689   2.993   7.671   9.346 -0.2302 -0.8168 -0.6032
  902MOL0     C21690   3.324   7.831   9.599  0.2526  0.3283  0.0121
  902MOL0     C21691   3.458   7.811   9.596 -0.7158  0.3991  0.5410
  902MOL0     C21692   3.529   7.804   9.716 -0.2990 -0.2529  0.1800
  902MOL0     C21693   3.470   7.816   9.846 -0.2433  0.2742  0.9908
  902MOL0     O21694   3.559   7.829   9.947 -0.4813 -0.6112 -0.7673
  902MOL0     C21695   3.505   7.888  10.065  0.5613 -0.0232  0.0780
  902MOL0     C21696   3.621   7.890  10.164 -0.2930  0.5954  0.1762
  902MOL0     C21697   3.649   7.749  10.211  0.6974 -0.9801 -0.6120
  902MOL0     C21698   3.771   7.745  10.311  0.1499  0.2018  0.5828
  902MOL0     C21699   3.899   7.814  10.262  0.2743  0.7900 -0.5340
  902MOL0     C21700   3.999   7.868  10.228 -1.4186  0.5120 -0.4953
  902MOL0     C21701   3.332   7.824   9.844  0.1263 -0.3394  0.4014
  902MOL0     C21702   3.258   7.821   9.728  0.4824 -0.2166  1.1116
  902MOL0     H21703   2.984   8.007   9.320  1.5730 -1.0203  0.1432
  902MOL0     H21704   2.825   7.953   9.135  0.2321 -0.8651 -1.7051
  902MOL0     H21705   2.625   7.819   9.156  1.7037 -1.4461  1.7087
  902MOL0     H21706   2.636   7.864   8.984  0.8482 -1.4234 -0.8118
  902MOL0     H21707   2.558   7.615   8.941  2.0863 -0.2820  0.4303
  902MOL0     H21708   2.519   7.606   9.111 -0.0978  1.4891 -0.0454
  902MOL0     H21709   2.373   7.807   9.097 -0.1237  0.7131  0.0797
  902MOL0     H21710   2.398   7.803   8.923  0.2253  2.7380  2.8341
  902MOL0     H21711   2.329   7.544   8.937 -1.2257 -1.9356  2.3863
  902MOL0     H21712   2.274   7.593   9.097  3.0993  1.7888  1.0341
  902MOL0     H21713   2.192   7.750   8.848  2.9526 -0.5951 -0.1941
  902MOL0     H21714   2.100   7.610   8.883 -1.8963  1.9661 -1.9795
  902MOL0     H21715   2.099   7.716   9.142  1.4353 -0.4109  0.6357
  902MOL0     H21716   2.130   7.861   9.051 -2.1965  1.2713  1.6943
  902MOL0     H21717   1.929   7.830   8.924  1.9728  1.1312  1.3387
  902MOL0     H21718   1.901   7.663   8.988 -0.7272 -0.8844 -0.2167
  902MOL0     H21719   1.874   7.920   9.139 -1.0198 -0.2102  0.5350
  902MOL0     H21720   1.859   7.770   9.218  2.0166  0.4282  0.1522
  902MOL0     H21721   1.679   7.946   8.913 -1.7872  2.5827  0.2450
  902MOL0     H21722   1.418   7.877   8.813 -0.4559 -4.2646 -2.2455
  902MOL0     H21723   1.330   7.761   8.899  0.9410 -0.5293  1.8524
  902MOL0     H21724   1.219   7.965   8.917  0.6293 -0.2242 -0.0318
  902MOL0     H21725   1.359   8.046   8.999 -0.6920  1.2620 -1.5835
  902MOL0     H21726   1.274   7.947   9.197 -0.6930  0.1504  0.1451
  902MOL0     H21727   1.247   7.790   9.108 -0.7270 -0.4646 -1.2921
  902MOL0     H21728   1.039   7.891   9.014  0.3528  1.7228 -0.2050
  902MOL0     H21729   1.052   8.023   9.123 -0.6898 -0.5170  0.3581
  902MOL0     H21730   0.871   7.617   9.227 -2.4139 -0.3801  0.8121
  902MOL0     H21731   0.562   7.526   9.141 -0.4252  2.1754 -0.6542
  902MOL0     H21732   0.706   7.472   9.233  0.1943 -0.6724  1.8022
  902MOL0     H21733   0.569   7.521   9.321  2.3222  0.7127  1.4451
  902MOL0     H21734   0.272   8.122   9.269  0.8310 -3.0327  3.1460
  902MOL0     H21735   0.027   8.191   9.259  1.2891 -0.6616  2.7463
  902MOL0     H21736  -0.351   7.983   9.114  1.6046 -2.1862 -1.0257
  902MOL0     H21737  -0.248   7.879   9.221 -0.0394 -0.3227  0.0657
  902MOL0     H21738  -0.414   7.997   9.346 -0.3903 -1.5926 -1.2131
  902MOL0     H21739  -0.249   8.045   9.398 -1.1871  2.1119  2.2465
  902MOL0     H21740  -0.267   8.241   9.229  1.0537  2.3607  1.7506
  902MOL0     H21741  -0.362   8.256   9.381  0.5954 -1.1346  0.8829
  902MOL0     H21742  -0.486   8.154   9.128  0.7005  1.4657 -1.1746
  902MOL0     H21743  -0.563   8.184   9.274  0.2456  1.2145  0.2723
  902MOL0     H21744  -0.428   8.400   9.118  0.0820  0.2552 -0.0545
  902MOL0     H21745  -0.537   8.433   9.250  1.3438  1.2889 -1.3675
  902MOL0     H21746  -0.612   8.307   8.989  0.0297 -0.9405  1.3396
  902MOL0     H21747  -0.726   8.308   9.108 -0.0202 -0.6053 -1.6120
  902MOL0     H21748  -0.585   8.559   9.001 -1.0008  3.6693  1.0557
  902MOL0     H21749  -0.699   8.558   9.133  1.1328 -0.9396  0.8316
  902MOL0     H21750  -0.875   8.478   8.955  0.0005  1.0626 -0.0167
  902MOL0     H21751  -0.754   8.465   8.846  1.4272 -1.7814  1.6430
  902MOL0     H21752  -0.064   7.811   9.095 -0.7949  0.2894 -0.3457
  902MOL0     H21753   0.166   7.727   9.132  2.3973 -0.4281  1.4852
  902MOL0     H21754   0.600   8.022   9.199  0.0965 -0.5415  0.8745
  902MOL0     H21755   0.840   8.041   9.201 -0.0786  0.9998  0.1976
  902MOL0     H21756   2.877   7.530   9.228  1.6782 -0.6078 -1.5844
  902MOL0     H21757   3.042   7.596   9.406  1.0692 -0.3956 -1.0967
  902MOL0     H21758   3.506   7.795   9.500  0.4696 -1.6136  1.4055
  902MOL0     H21759   3.637   7.806   9.701 -0.2113  2.1753  0.7566
  902MOL0     H21760   3.474   7.989  10.039 -0.7109 -0.8011 -1.6606
  902MOL0     H21761   3.421   7.836  10.112 -0.3689  0.2699 -1.2155
  902MOL0     H21762   3.599   7.962  10.243  1.5995  1.9932 -0.4739
  902MOL0     H21763   3.713   7.923  10.113 -1.3436 -0.3130 -2.4826
  902MOL0     H21764   3.671   7.690  10.122  0.9862 -0.4616 -0.8855
  902MOL0     H21765   3.562   7.704  10.260  1.0203  0.5462  1.5005
  902MOL0     H21766   3.795   7.639  10.320 -1.0765 -0.2007 -0.5279
  902MOL0     H21767   3.745   7.783  10.410 -2.8775 -0.0601 -0.0087
  902MOL0     H21768   4.091   7.918  10.204 -1.0160 -0.1272 -0.3249
  902MOL0     H21769   3.289   7.836   9.943  1.8074  2.4577  0.8987
  902MOL0     H21770   3.152   7.843   9.739  0.8763  1.2337  2.3022
  903MOL0     O21771   3.031   7.967   8.294 -0.3471  0.4841 -0.0739
  903MOL0     C21772   3.097   7.864   8.281 -0.7936 -1.1481 -0.5031
  903MOL0     O21773   3.045   7.742   8.265 -0.0876 -0.5962  0.4469
  903MOL0     C21774   2.915   7.736   8.245  0.6137 -0.0210 -0.3868
  903MOL0     C21775   2.816   7.739   8.347 -0.5681 -0.0759 -0.0350
  903MOL0     C21776   2.682   7.740   8.318 -0.5842  0.6998  0.7029
  903MOL0     C21777   2.635   7.725   8.187  0.1100 -0.5568  0.4395
  903MOL0     O21778   2.507   7.729   8.137 -0.1836  0.2123  0.0051
  903MOL0     C21779   2.395   7.728   8.229 -0.8404 -0.5785  0.2344
  903MOL0     C21780   2.280   7.761   8.139  0.2308 -0.6097  0.1560
  903MOL0     C21781   2.151   7.781   8.216  0.5140  0.0860 -0.4113
  903MOL0     C21782   2.030   7.772   8.119  0.4838 -0.7874 -0.1728
  903MOL0     C21783   1.893   7.802   8.191  0.3112  0.5035 -0.0291
  903MOL0     C21784   1.773   7.824   8.103 -0.8882 -0.2559 -0.2774
  903MOL0     C21785   1.646   7.821   8.175  0.5467  0.6578  0.4583
  903MOL0     C21786   1.532   7.834   8.074  0.2691  0.4307 -0.9061
  903MOL0     N21787   1.401   7.858   8.148 -0.8935 -0.1067 -0.0786
  903MOL0     C21788   1.310   7.759   8.188  0.0327 -0.4487  0.2108
  903MOL0     C21789   1.197   7.840   8.224  0.4961  1.1419  0.5790
  903MOL0     C21790   1.074   7.768   8.273 -0.7723 -0.1010  0.1334
  903MOL0     C21791   1.103   7.696   8.411  0.2359 -0.7584 -0.0138
  903MOL0     C21792   1.122   7.789   8.538 -0.4481 -0.8258 -0.9868
  903MOL0     C21793   1.244   7.884   8.545 -0.2867 -0.1207 -0.0278
  903MOL0     O21794   1.364   7.811   8.517 -0.3608  1.1364  0.3310
  903MOL0     C21795   1.491   7.872   8.530  0.3373 -0.3797 -0.3711
  903MOL0     C21796   1.601   7.791   8.536 -0.0361  0.3559 -1.3039
  903MOL0     C21797   1.727   7.841   8.575 -0.0175  1.3492  0.1896
  903MOL0     C21798   1.841   7.743   8.591  0.3558 -0.1278 -0.2759
  903MOL0     C21799   1.743   7.978   8.604 -0.2891  0.6336 -1.0497
  903MOL0     C21800   1.874   8.024   8.661 -0.5725  0.0107 -0.4139
  903MOL0     O21801   1.993   7.973   8.622 -0.6327  0.3329  0.2813
  903MOL0     C21802   2.114   8.001   8.680 -0.1362 -0.1862 -0.3669
  903MOL0     C21803   2.223   7.974   8.592  0.2322 -1.0688 -0.0810
  903MOL0     C21804   2.354   8.015   8.629  0.1835 -0.1524  0.1392
  903MOL0     C21805   2.383   8.069   8.759 -0.8103 -0.2360  0.1653
  903MOL0     O21806   2.518   8.070   8.794  0.4354  0.9268  0.4133
  903MOL0     C21807   2.550   8.122   8.923 -0.9972  0.3732 -0.3894
  903MOL0     C21808   2.533   8.281   8.909 -0.1974  0.8710  0.0524
  903MOL0     C21809   2.572   8.336   9.035  0.1061  0.3542 -0.4792
  903MOL0     C21810   2.720   8.311   9.066 -0.9467 -0.2966  0.3649
  903MOL0     C21811   2.787   8.431   9.132 -0.1859  0.2882 -0.1952
  903MOL0     C21812   2.751   8.466   9.278  0.6061 -1.0869 -0.6200
  903MOL0     C21813   2.843   8.572   9.338 -0.0170  0.2717  0.2116
  903MOL0     C21814   2.827   8.576   9.489  0.4980  0.3985  0.4446
  903MOL0    Cl21815   2.649   8.581   9.542  0.3893  0.4290  0.0160
  903MOL0     C21816   2.274   8.086   8.841  0.4167 -0.0236 -0.6688
  903MOL0     C21817   2.144   8.060   8.806  1.4096  0.6172 -0.8665
  903MOL0     O21818   1.859   8.102   8.758 -0.5951 -1.0516 -0.1785
  903MOL0     C21819   1.628   8.059   8.596  0.4198  0.4013 -0.7444
  903MOL0     C21820   1.502   8.008   8.564  0.1556 -0.0311 -0.3611
  903MOL0     N21821   1.223   7.967   8.209 -0.2725 -0.3680  0.3015
  903MOL0     N21822   1.340   7.979   8.163  0.4217 -0.6424  0.1267
  903MOL0     C21823   2.728   7.723   8.090 -0.3662 -0.1435  0.2888
  903MOL0     C21824   2.867   7.726   8.113  0.7450 -0.2550 -1.1101
  903MOL0     C21825   3.242   7.886   8.299 -0.0003  0.1351 -0.3633
  903MOL0     C21826   3.325   7.786   8.362  0.6428 -0.1159  0.1622
  903MOL0     C21827   3.456   7.811   8.404 -0.7266  0.6176 -0.5250
  903MOL0     C21828   3.516   7.929   8.370  0.3672  0.4900  0.8075
  903MOL0     O21829   3.644   7.946   8.397 -0.2152 -0.5039  0.6897
  903MOL0     C21830   3.705   8.067   8.446  0.8300 -0.0731  0.0918
  903MOL0     C21831   3.645   8.089   8.582  0.0964  0.4114  0.4447
  903MOL0     C21832   3.694   8.226   8.634 -0.3323  0.0644  0.5806
  903MOL0     C21833   3.609   8.252   8.756 -1.1284 -0.6012  0.0909
  903MOL0     C21834   3.466   8.289   8.727 -0.0157  0.6720  0.0019
  903MOL0     C21835   3.361   8.327   8.728  0.4656 -0.9164 -0.0408
  903MOL0     C21836   3.445   8.020   8.296  0.1459  0.0132  0.0808
  903MOL0     C21837   3.312   8.006   8.262 -0.0760  0.5160 -0.8460
  903MOL0     H21838   2.853   7.741   8.449 -0.4339 -1.0478 -0.0482
  903MOL0     H21839   2.608   7.752   8.397 -0.0425  0.6227  1.2338
  903MOL0     H21840   2.382   7.634   8.284  2.4048 -0.3232  1.6730
  903MOL0     H21841   2.413   7.813   8.296  0.1688 -1.0537  0.5816
  903MOL0     H21842   2.309   7.844   8.074  0.7048  0.0250  1.1554
  903MOL0     H21843   2.264   7.676   8.072 -0.7793 -0.8815  0.7119
  903MOL0     H21844   2.142   7.702   8.291  0.2144 -0.8773 -1.4372
  903MOL0     H21845   2.147   7.878   8.266 -0.1095  0.2077 -0.6973
  903MOL0     H21846   2.052   7.848   8.043 -1.1244 -0.9730 -0.8455
  903MOL0     H21847   2.034   7.676   8.066  2.6379 -1.6951  1.4891
  903MOL0     H21848   1.866   7.722   8.261 -0.4900  1.1677  0.4467
  903MOL0     H21849   1.902   7.891   8.255  1.5037  0.2998  0.1159
  903MOL0     H21850   1.791   7.916   8.047  0.7111 -1.2175 -1.4197
  903MOL0     H21851   1.784   7.747   8.027 -0.1546 -0.4057 -0.0357
  903MOL0     H21852   1.638   7.720   8.218 -0.4202 -0.9695 -3.1636
  903MOL0     H21853   1.636   7.897   8.253  1.2724  0.1364  1.0836
  903MOL0     H21854   1.518   7.748   8.008 -0.3423 -0.9507  0.9363
  903MOL0     H21855   1.554   7.923   8.014  0.3181  0.0169 -1.5104
  903MOL0     H21856   1.324   7.652   8.184  3.4627 -0.0901 -0.2164
  903MOL0     H21857   0.987   7.832   8.293 -0.6353  0.4643 -0.9990
  903MOL0     H21858   1.042   7.686   8.209  1.0166 -0.6796 -0.0588
  903MOL0     H21859   1.185   7.625   8.402  1.3254  0.6103 -1.6214
  903MOL0     H21860   1.016   7.641   8.448 -1.2954  1.9107  0.5764
  903MOL0     H21861   1.115   7.733   8.632 -4.3440  3.3632  1.6905
  903MOL0     H21862   1.042   7.864   8.544 -1.2357 -1.6928 -0.4583
  903MOL0     H21863   1.250   7.910   8.651 -0.5920  0.5631 -0.1770
  903MOL0     H21864   1.232   7.973   8.484 -1.8644  2.1588  3.3045
  903MOL0     H21865   1.584   7.684   8.526  2.7819 -0.2685 -0.3419
  903MOL0     H21866   1.815   7.637   8.588 -0.3284  0.0104  0.5469
  903MOL0     H21867   1.917   7.763   8.514 -1.4938  0.2534 -2.0753
  903MOL0     H21868   1.872   7.759   8.695  1.8224  1.9296 -0.9565
  903MOL0     H21869   2.204   7.927   8.496  2.5346 -1.8335 -0.2388
  903MOL0     H21870   2.439   8.003   8.563 -0.4525  0.1226 -0.7493
  903MOL0     H21871   2.478   8.090   8.999  0.0204  0.4387  0.6302
  903MOL0     H21872   2.652   8.102   8.955 -1.1631  1.9739  1.2813
  903MOL0     H21873   2.599   8.318   8.829  1.3092 -1.8509 -0.1051
  903MOL0     H21874   2.426   8.298   8.897 -0.9096 -0.8329  3.1028
  903MOL0     H21875   2.497   8.310   9.111  0.5146 -1.3797 -0.6273
  903MOL0     H21876   2.559   8.445   9.026 -1.1053  0.1152 -2.0029
  903MOL0     H21877   2.754   8.218   9.114  1.7652  1.1963  1.5734
  903MOL0     H21878   2.777   8.310   8.973  0.2924  1.5798  1.0443
  903MOL0     H21879   2.754   8.519   9.076 -0.1985  1.0719  1.0055
  903MOL0     H21880   2.893   8.412   9.116  0.0653  1.7070 -0.2908
  903MOL0     H21881   2.650   8.508   9.288 -0.0673 -2.8664  0.6189
  903MOL0     H21882   2.756   8.379   9.345  2.6880 -1.3387 -1.0524
  903MOL0     H21883   2.811   8.657   9.276  0.1223 -1.1345 -1.9149
  903MOL0     H21884   2.945   8.551   9.306 -1.1198 -0.5469 -3.2679
  903MOL0     H21885   2.874   8.670   9.519  0.0790  1.5376 -2.2389
  903MOL0     H21886   2.883   8.489   9.526  1.1487  0.7297  0.2561
  903MOL0     H21887   2.295   8.126   8.940  3.9920 -1.5051 -0.6921
  903MOL0     H21888   2.070   8.063   8.886  0.7652 -0.4090 -1.3980
  903MOL0     H21889   1.630   8.166   8.615  4.2449  0.0844  1.5664
  903MOL0     H21890   1.421   8.079   8.559 -0.5700 -0.7226  0.9809
  903MOL0     H21891   2.689   7.717   7.990 -0.9264 -0.8438  0.5434
  903MOL0     H21892   2.945   7.721   8.037  1.3540  1.6662 -0.6730
  903MOL0     H21893   3.282   7.688   8.380  3.9114 -1.3973  1.6833
  903MOL0     H21894   3.509   7.745   8.473 -0.6336  2.1772  0.9528
  903MOL0     H21895   3.813   8.054   8.462  0.6427 -0.3595  1.2497
  903MOL0     H21896   3.694   8.152   8.379 -2.8108 -0.2889  0.2230
  903MOL0     H21897   3.660   8.003   8.648 -0.3665 -0.4709 -0.5778
  903MOL0     H21898   3.537   8.078   8.569  0.2750 -3.5862  1.2445
  903MOL0     H21899   3.662   8.298   8.558  1.4183 -0.8995 -1.1794
  903MOL0     H21900   3.801   8.227   8.659 -0.0016 -4.0557  0.0491
  903MOL0     H21901   3.641   8.335   8.819  1.2174 -1.2050 -0.1815
  903MOL0     H21902   3.625   8.174   8.831  2.4527  1.2241  1.4707
  903MOL0     H21903   3.259   8.359   8.719  1.2791  1.3251 -2.2928
  903MOL0     H21904   3.487   8.115   8.265 -0.2559  0.0013 -0.5152
  903MOL0     H21905   3.264   8.091   8.215 -1.5716  0.9737  1.3406
  904MOL0     O21906   8.620   2.144   7.306 -0.4911  0.8606  0.2519
  904MOL0     C21907   8.619   2.209   7.206  0.7608  0.1931 -0.1353
  904MOL0     O21908   8.514   2.285   7.167  0.4855  0.1409 -0.0126
  904MOL0     C21909   8.423   2.315   7.273 -0.6255 -0.0965  0.6540
  904MOL0     C21910   8.475   2.383   7.385 -0.0806 -0.0628  0.7781
  904MOL0     C21911   8.382   2.413   7.481  0.3414 -0.0279 -0.5613
  904MOL0     C21912   8.253   2.372   7.488 -0.1328  0.2870 -0.3071
  904MOL0     O21913   8.175   2.385   7.605 -0.3210  0.2524  0.2701
  904MOL0     C21914   8.044   2.313   7.617 -0.3610  0.2556  0.4540
  904MOL0     C21915   7.981   2.385   7.733 -0.1980  0.0064  0.3782
  904MOL0     C21916   7.835   2.347   7.774 -0.4088 -0.0231 -0.4587
  904MOL0     C21917   7.819   2.233   7.870 -0.2669  0.9318  0.3883
  904MOL0     C21918   7.675   2.214   7.912  0.1481 -0.3846 -0.6710
  904MOL0     C21919   7.651   2.091   8.002 -0.3787 -0.2842 -0.0472
  904MOL0     C21920   7.498   2.065   8.011 -0.6147  0.0321  0.7617
  904MOL0     C21921   7.471   1.928   8.081  0.2203 -0.5043 -0.1242
  904MOL0     N21922   7.328   1.885   8.089 -0.1200  0.0005  0.2227
  904MOL0     C21923   7.295   1.762   8.045 -0.4496  0.6681  0.3095
  904MOL0     C21924   7.169   1.744   8.082 -0.1712 -0.4975  0.1137
  904MOL0     C21925   7.096   1.606   8.071 -0.2776 -0.2232  0.6557
  904MOL0     C21926   7.058   1.593   7.916 -0.2894  0.4858 -0.0470
  904MOL0     C21927   7.018   1.439   7.888  0.7654 -0.3453  1.0450
  904MOL0     C21928   6.892   1.387   7.956  0.0049  0.1654 -0.2915
  904MOL0     O21929   6.792   1.476   7.935 -0.2045 -0.2920 -0.6743
  904MOL0     C21930   6.679   1.443   7.996 -0.1579 -0.2524 -0.0799
  904MOL0     C21931   6.640   1.319   8.030  0.0508  0.9377  0.0423
  904MOL0     C21932   6.513   1.289   8.074  0.5673 -0.4352 -0.0450
  904MOL0     C21933   6.474   1.144   8.095 -0.1940 -1.2581 -0.1098
  904MOL0     C21934   6.418   1.398   8.089 -0.5812 -0.3556 -0.9538
  904MOL0     C21935   6.281   1.380   8.146  0.6844  0.3764 -0.1446
  904MOL0     O21936   6.245   1.261   8.208  0.0040  0.1375  0.1432
  904MOL0     C21937   6.115   1.239   8.237 -0.1961  0.0198 -0.3391
  904MOL0     C21938   6.071   1.109   8.209  0.1434 -0.6772 -0.0158
  904MOL0     C21939   5.942   1.074   8.230  0.7260  0.4011  0.7950
  904MOL0     C21940   5.851   1.169   8.283  0.6090  0.7880 -0.2038
  904MOL0     O21941   5.715   1.141   8.317  0.0465  0.1280  0.7174
  904MOL0     C21942   5.683   1.003   8.345  0.2099  0.1432  0.0355
  904MOL0     C21943   5.558   1.000   8.425  1.4600  0.3839  0.7027
  904MOL0     C21944   5.444   1.091   8.361  0.0466  0.2012  0.4308
  904MOL0     C21945   5.318   1.112   8.452 -0.0251 -0.6819 -0.1739
  904MOL0     C21946   5.196   1.161   8.373 -0.7466 -0.0334 -0.5759
  904MOL0     C21947   5.088   1.184   8.479  0.3609 -0.2158  0.4708
  904MOL0     C21948   4.956   1.212   8.402  1.2364 -0.3905 -0.5483
  904MOL0     C21949   4.906   1.095   8.317  0.5490  0.0197 -0.7227
  904MOL0    Cl21950   4.747   1.129   8.256 -0.1608  0.5038  0.0610
  904MOL0     C21951   5.898   1.297   8.320  0.1123  0.0233 -0.0418
  904MOL0     C21952   6.034   1.332   8.301 -0.5153 -0.2854  0.9731
  904MOL0     O21953   6.206   1.473   8.114 -0.1175 -0.1831  0.3607
  904MOL0     C21954   6.460   1.532   8.067 -1.4150 -0.2055  0.1519
  904MOL0     C21955   6.588   1.551   8.015 -0.1177 -0.6668  1.0245
  904MOL0     N21956   7.130   1.855   8.156  0.0516  0.1586  0.6897
  904MOL0     N21957   7.234   1.940   8.162 -0.0785 -0.7599 -0.6616
  904MOL0     C21958   8.199   2.322   7.362  0.1445 -0.0608  0.0449
  904MOL0     C21959   8.286   2.292   7.259 -0.3483 -0.4640  0.1489
  904MOL0     C21960   8.727   2.212   7.113  0.0581  0.6296 -0.7117
  904MOL0     C21961   8.734   2.287   6.998 -0.1833 -0.6151 -0.9979
  904MOL0     C21962   8.839   2.268   6.911 -0.9756  0.2487 -0.5557
  904MOL0     C21963   8.938   2.176   6.933 -0.6075 -0.0458  0.6508
  904MOL0     O21964   9.041   2.180   6.839  0.5231 -0.3803  0.1752
  904MOL0     C21965   9.161   2.095   6.855  0.6647  0.5195 -0.0796
  904MOL0     C21966   9.206   2.083   6.711 -0.3034  0.4423  0.0015
  904MOL0     C21967   9.346   2.019   6.712  0.1141 -0.4262 -0.2201
  904MOL0     C21968   9.425   2.026   6.579  0.2271  0.1529  0.0546
  904MOL0     C21969   9.463   2.158   6.546  0.5623 -0.4464 -0.0731
  904MOL0     C21970   9.507   2.269   6.528  0.0699 -0.5325 -0.0154
  904MOL0     C21971   8.936   2.097   7.050 -0.2056 -0.6927 -0.4768
  904MOL0     C21972   8.836   2.126   7.138  0.7828 -0.1186 -1.2800
  904MOL0     H21973   8.575   2.423   7.385  1.4308 -3.4774  0.0422
  904MOL0     H21974   8.411   2.475   7.566 -0.5171  0.0950 -0.3527
  904MOL0     H21975   7.970   2.322   7.536 -1.3800 -1.3093  1.1685
  904MOL0     H21976   8.061   2.206   7.629  1.3508  0.2602 -1.3994
  904MOL0     H21977   8.053   2.385   7.815  1.0711 -0.5508 -0.7021
  904MOL0     H21978   7.980   2.487   7.693  0.1228 -0.6832 -1.4984
  904MOL0     H21979   7.803   2.434   7.832  2.4529  0.4121  0.6275
  904MOL0     H21980   7.774   2.338   7.683  1.0124  2.5552 -1.7798
  904MOL0     H21981   7.869   2.144   7.831 -0.2055  1.5245 -0.9621
  904MOL0     H21982   7.875   2.256   7.961  0.7757 -0.1221  0.0473
  904MOL0     H21983   7.652   2.301   7.973 -1.8065 -2.6072  2.0404
  904MOL0     H21984   7.619   2.215   7.818 -1.0372 -0.3334  0.0138
  904MOL0     H21985   7.697   2.007   7.949  0.5653  1.6546 -2.5023
  904MOL0     H21986   7.692   2.091   8.104 -1.0149 -0.5658  0.2137
  904MOL0     H21987   7.440   2.143   8.061 -0.4459  1.0126 -0.5421
  904MOL0     H21988   7.466   2.055   7.907  2.4425  0.5672 -0.3169
  904MOL0     H21989   7.506   1.947   8.183 -2.1374  0.3109  0.6016
  904MOL0     H21990   7.532   1.853   8.030 -0.3140 -0.9154 -0.1629
  904MOL0     H21991   7.365   1.691   8.003  0.4735  1.5292  0.3651
  904MOL0     H21992   7.155   1.521   8.106 -0.5147 -0.0142  1.5919
  904MOL0     H21993   7.001   1.614   8.125 -0.8971  0.9188 -0.5282
  904MOL0     H21994   7.142   1.628   7.854 -0.1582  0.2525  0.0015
  904MOL0     H21995   6.974   1.659   7.893 -0.8285  1.3376  3.7905
  904MOL0     H21996   7.097   1.370   7.920  1.8280  1.4063  2.3830
  904MOL0     H21997   7.001   1.422   7.782  0.9196 -1.0644  1.1318
  904MOL0     H21998   6.898   1.363   8.063 -2.3458 -0.2059 -0.1770
  904MOL0     H21999   6.862   1.298   7.899  0.2797 -1.9358  2.6197
  904MOL0     H22000   6.701   1.231   8.012 -0.7814  0.7196 -1.8816
  904MOL0     H22001   6.473   1.119   8.202  2.1720  1.6235  0.7340
  904MOL0     H22002   6.389   1.105   8.039 -1.3048 -0.3139  0.8472
  904MOL0     H22003   6.556   1.078   8.067 -0.2337 -1.1306 -0.5258
  904MOL0     H22004   6.132   1.025   8.177  2.1826  1.5757 -2.5218
  904MOL0     H22005   5.901   0.982   8.190  1.6031  0.5187 -0.4696
  904MOL0     H22006   5.664   0.947   8.254 -0.4079  2.1863 -1.1511
  904MOL0     H22007   5.764   0.954   8.400 -0.0440 -0.8048 -0.4098
  904MOL0     H22008   5.527   0.896   8.440  0.0000  0.6811 -0.0520
  904MOL0     H22009   5.580   1.036   8.526 -0.0984 -0.9654  1.5776
  904MOL0     H22010   5.416   1.068   8.258 -3.9363  1.8360  0.9663
  904MOL0     H22011   5.490   1.189   8.348  1.4620 -0.5993 -1.0624
  904MOL0     H22012   5.285   1.016   8.493 -0.9957 -0.2798  0.0077
  904MOL0     H22013   5.348   1.174   8.536 -1.6660  0.1708 -0.1710
  904MOL0     H22014   5.166   1.085   8.301 -0.9446 -0.9244  0.4112
  904MOL0     H22015   5.226   1.251   8.319  5.4240 -1.8370 -1.0158
  904MOL0     H22016   5.076   1.093   8.540  3.2205 -0.1969  1.2226
  904MOL0     H22017   5.114   1.266   8.547 -1.3202  0.6308  0.1360
  904MOL0     H22018   4.974   1.292   8.330  0.7226 -0.9002 -1.2550
  904MOL0     H22019   4.881   1.246   8.474  1.4109 -0.0275 -0.5339
  904MOL0     H22020   4.897   1.010   8.385  4.0726  0.5492  0.6152
  904MOL0     H22021   4.973   1.067   8.235 -0.9742 -3.3107 -0.9900
  904MOL0     H22022   5.838   1.364   8.381  3.2775  0.6616  2.6444
  904MOL0     H22023   6.081   1.427   8.322  2.3297 -1.3184 -0.2141
  904MOL0     H22024   6.387   1.611   8.071  0.4153  1.5513  0.6981
  904MOL0     H22025   6.622   1.651   7.991 -1.2851 -0.5646 -0.4089
  904MOL0     H22026   8.100   2.283   7.344  0.4058 -1.3439  1.1549
  904MOL0     H22027   8.260   2.259   7.159  1.9866 -0.4669 -0.5256
  904MOL0     H22028   8.651   2.355   6.979  2.9945  3.8404 -0.4176
  904MOL0     H22029   8.839   2.309   6.810 -1.6643 -0.1697 -0.7321
  904MOL0     H22030   9.225   2.161   6.915 -1.1578  0.6629  1.8176
  904MOL0     H22031   9.133   2.000   6.899  1.2966 -0.2675 -1.3203
  904MOL0     H22032   9.205   2.181   6.662 -1.1371  1.3862  1.7867
  904MOL0     H22033   9.140   2.024   6.648  1.0918  0.6453 -1.7404
  904MOL0     H22034   9.334   1.912   6.732  2.5366 -1.2600 -2.6084
  904MOL0     H22035   9.401   2.057   6.798 -1.0212  0.5114  0.1105
  904MOL0     H22036   9.380   1.976   6.493  2.2421  0.8533 -1.4888
  904MOL0     H22037   9.519   1.976   6.602 -1.0183 -3.2414 -1.6494
  904MOL0     H22038   9.555   2.365   6.516  2.7002 -1.4669  1.9541
  904MOL0     H22039   9.018   2.031   7.073  0.2972 -0.9000 -2.6554
  904MOL0     H22040   8.843   2.064   7.227  1.2446 -1.7587 -2.4152
  905MOL0     O22041   4.432   8.185   0.716  0.7999  0.4355  0.5868
  905MOL0     C22042   4.472   8.295   0.753 -0.1248 -0.1687  0.2706
  905MOL0     O22043   4.397   8.406   0.778  0.1430 -0.5160 -0.3693
  905MOL0     C22044   4.267   8.399   0.736 -0.8833 -0.1095 -0.4252
  905MOL0     C22045   4.228   8.358   0.604  0.1992  0.0551  0.6065
  905MOL0     C22046   4.090   8.354   0.575  0.0490  0.2117 -0.3283
  905MOL0     C22047   3.990   8.403   0.666  0.3084  0.4892 -0.5544
  905MOL0     O22048   3.859   8.401   0.627  0.4360 -0.9291 -0.6535
  905MOL0     C22049   3.802   8.274   0.651 -0.0233 -0.4699  0.4165
  905MOL0     C22050   3.664   8.270   0.576 -0.3415 -0.0472 -0.4508
  905MOL0     C22051   3.605   8.129   0.577 -0.1312 -0.0311  0.3165
  905MOL0     C22052   3.481   8.113   0.488 -0.6538  0.0376  0.0860
  905MOL0     C22053   3.379   8.214   0.532 -0.3718  0.3565  0.5437
  905MOL0     C22054   3.331   8.188   0.671  0.0227 -0.1064  0.2043
  905MOL0     C22055   3.212   8.266   0.707  0.6307  0.1981  0.5224
  905MOL0     C22056   3.166   8.234   0.842 -0.2282 -0.0749  0.2924
  905MOL0     N22057   3.249   8.284   0.950  0.0267 -0.7555 -0.5632
  905MOL0     C22058   3.331   8.214   1.030  0.1697 -0.0714  0.0277
  905MOL0     C22059   3.390   8.303   1.110 -0.5766 -0.5705  0.2452
  905MOL0     C22060   3.457   8.265   1.246  0.4222  0.5506  0.2396
  905MOL0     C22061   3.513   8.123   1.272 -0.0810 -0.1865  0.5227
  905MOL0     C22062   3.604   8.132   1.392  0.5963  0.3579  0.9751
  905MOL0     C22063   3.536   8.074   1.521 -0.2630 -0.0721  0.9566
  905MOL0     O22064   3.421   8.152   1.557 -0.0461 -0.4661 -0.0230
  905MOL0     C22065   3.298   8.095   1.541  0.1729  0.1428  0.2536
  905MOL0     C22066   3.263   7.966   1.567 -0.2404  0.2353  0.2406
  905MOL0     C22067   3.132   7.917   1.553  0.1516  0.4700 -0.5557
  905MOL0     C22068   3.099   7.772   1.582 -0.7475  0.7537 -0.5470
  905MOL0     C22069   3.029   8.005   1.515 -0.7020  0.3289 -0.2943
  905MOL0     C22070   2.885   7.964   1.493 -0.2153 -0.2364  0.1003
  905MOL0     O22071   2.847   7.846   1.425  0.1401 -0.1967 -1.0264
  905MOL0     C22072   2.721   7.807   1.418  0.8481 -0.5343  0.7153
  905MOL0     C22073   2.632   7.822   1.523  0.6210 -0.7254 -0.7545
  905MOL0     C22074   2.495   7.796   1.490  0.3710 -0.8377  0.1375
  905MOL0     C22075   2.447   7.756   1.362  0.2724  1.1374  0.5423
  905MOL0     O22076   2.321   7.719   1.319 -0.2394  0.0814  0.1342
  905MOL0     C22077   2.234   7.671   1.425 -0.2074 -0.0300  0.5656
  905MOL0     C22078   2.086   7.649   1.371 -0.3454 -1.0557  0.0239
  905MOL0     C22079   2.015   7.550   1.458  0.0222  0.2528  0.3740
  905MOL0     C22080   1.877   7.516   1.394 -0.5951 -0.5799 -0.1548
  905MOL0     C22081   1.829   7.384   1.447  0.0580  0.1945 -0.1955
  905MOL0     C22082   1.692   7.348   1.395  0.1046 -0.4470 -0.2494
  905MOL0     C22083   1.584   7.334   1.502 -0.0236 -0.4908  0.4944
  905MOL0     C22084   1.448   7.306   1.450 -0.0743  0.1248 -0.1403
  905MOL0    Cl22085   1.448   7.128   1.393  0.1300 -0.3830 -0.0813
  905MOL0     C22086   2.545   7.729   1.267  0.3109  0.7082  0.4229
  905MOL0     C22087   2.686   7.758   1.292  0.4027  0.0263  0.1485
  905MOL0     O22088   2.805   8.055   1.520  0.4229  0.5987  0.4974
  905MOL0     C22089   3.065   8.137   1.483  0.8899 -0.0268 -0.6103
  905MOL0     C22090   3.199   8.182   1.502 -0.2553  0.8635  0.1778
  905MOL0     N22091   3.353   8.435   1.069  0.1495 -0.4341 -0.5377
  905MOL0     N22092   3.254   8.420   0.980 -0.1948  1.0237  0.4050
  905MOL0     C22093   4.038   8.462   0.785  0.1349  0.0291 -0.2051
  905MOL0     C22094   4.172   8.460   0.817  0.3303  0.0638 -0.0453
  905MOL0     C22095   4.615   8.303   0.790  0.6463 -1.3642  1.0762
  905MOL0     C22096   4.657   8.428   0.843 -0.3035  0.4472 -0.0599
  905MOL0     C22097   4.787   8.449   0.877  0.1448  0.8237 -0.4169
  905MOL0     C22098   4.879   8.340   0.860 -0.3380  0.5160 -0.3295
  905MOL0     O22099   5.010   8.354   0.872 -0.8920 -0.3074 -0.6011
  905MOL0     C22100   5.069   8.482   0.861 -0.0692  1.2604  0.0506
  905MOL0     C22101   5.217   8.472   0.834 -0.5770 -0.0622 -0.3794
  905MOL0     C22102   5.278   8.609   0.805  0.9189 -0.1532 -0.6440
  905MOL0     C22103   5.432   8.609   0.769  0.3569  0.1709  0.0118
  905MOL0     C22104   5.478   8.744   0.734 -0.2503  0.6790  0.5526
  905MOL0     C22105   5.518   8.850   0.698 -0.6777  1.1252  0.4178
  905MOL0     C22106   4.833   8.222   0.818 -0.1271  0.2322  0.1839
  905MOL0     C22107   4.700   8.198   0.787  0.0906 -1.0282 -0.3725
  905MOL0     H22108   4.302   8.311   0.541  0.1970 -1.4142  1.6409
  905MOL0     H22109   4.063   8.318   0.476 -3.2447 -0.0411  0.5477
  905MOL0     H22110   3.861   8.194   0.604  0.8907  1.6121 -2.2845
  905MOL0     H22111   3.782   8.256   0.757 -0.5498  1.6298  0.7129
  905MOL0     H22112   3.598   8.338   0.630  0.8944 -0.2839  1.4764
  905MOL0     H22113   3.686   8.308   0.475 -2.2298  0.2520 -0.7776
  905MOL0     H22114   3.685   8.066   0.537 -0.0268 -1.3822  2.5195
  905MOL0     H22115   3.575   8.103   0.679 -1.7612 -1.5465 -0.5052
  905MOL0     H22116   3.505   8.113   0.381  2.1092  2.3504  0.5605
  905MOL0     H22117   3.435   8.015   0.499  0.7049 -0.6464 -0.1344
  905MOL0     H22118   3.410   8.317   0.514 -0.5023  0.3412  0.2199
  905MOL0     H22119   3.298   8.185   0.464 -0.1335  1.6731 -0.3222
  905MOL0     H22120   3.318   8.080   0.680  3.1819 -0.9309 -2.7297
  905MOL0     H22121   3.408   8.223   0.741 -0.4713  4.4674 -1.2092
  905MOL0     H22122   3.245   8.370   0.702 -1.1736  0.7563 -2.7572
  905MOL0     H22123   3.134   8.251   0.632  0.7944 -1.3524  0.6278
  905MOL0     H22124   3.162   8.126   0.854 -2.7464 -0.1048 -0.3269
  905MOL0     H22125   3.065   8.273   0.859 -0.6820 -0.7900 -0.6840
  905MOL0     H22126   3.358   8.109   1.029  2.0895  0.3946  0.2139
  905MOL0     H22127   3.533   8.342   1.264 -1.3673  2.1812  1.2559
  905MOL0     H22128   3.393   8.290   1.331  1.3033 -0.1993  1.1298
  905MOL0     H22129   3.574   8.103   1.183  0.6603  0.3281  0.9117
  905MOL0     H22130   3.440   8.043   1.291  0.8316 -1.1503  0.1082
  905MOL0     H22131   3.639   8.234   1.413  1.6206  0.0955  0.5708
  905MOL0     H22132   3.697   8.077   1.377  0.6588  0.4309  1.0882
  905MOL0     H22133   3.606   8.069   1.605 -0.0736 -0.0412  0.7993
  905MOL0     H22134   3.511   7.970   1.496  0.1422  0.2777 -1.0825
  905MOL0     H22135   3.337   7.893   1.597 -1.6062 -0.2039  2.8408
  905MOL0     H22136   3.172   7.718   1.643 -1.2163 -0.8532 -1.3327
  905MOL0     H22137   3.002   7.762   1.632 -0.1723  1.5309  0.7706
  905MOL0     H22138   3.079   7.716   1.490 -2.9011  1.4383 -0.5453
  905MOL0     H22139   2.652   7.852   1.625 -0.2000 -0.0851 -0.7639
  905MOL0     H22140   2.422   7.813   1.568 -1.2903  0.7424 -1.6568
  905MOL0     H22141   2.272   7.578   1.467  1.5399 -0.2228 -1.2565
  905MOL0     H22142   2.222   7.734   1.513  3.6427 -0.7051  1.7641
  905MOL0     H22143   2.039   7.748   1.372 -2.0881 -1.7559  3.8353
  905MOL0     H22144   2.097   7.603   1.273  1.3331  0.9624 -0.8290
  905MOL0     H22145   2.006   7.577   1.564  2.0906 -1.9540  1.1937
  905MOL0     H22146   2.074   7.460   1.440  3.9369  2.7199 -0.2360
  905MOL0     H22147   1.816   7.604   1.416  1.5115  0.6006  1.2775
  905MOL0     H22148   1.877   7.508   1.284 -6.0567 -3.5479 -0.3024
  905MOL0     H22149   1.842   7.383   1.556 -2.0447 -2.2003  0.1322
  905MOL0     H22150   1.897   7.309   1.408 -1.7618 -1.6120 -0.0472
  905MOL0     H22151   1.654   7.430   1.333 -3.1604 -1.0040  0.8061
  905MOL0     H22152   1.685   7.256   1.336  0.3666  0.7852 -2.3406
  905MOL0     H22153   1.580   7.423   1.565  1.4930 -1.6564  2.3609
  905MOL0     H22154   1.607   7.252   1.571  1.1150  0.1105  0.8548
  905MOL0     H22155   1.423   7.376   1.369  0.6647 -0.6729 -1.0915
  905MOL0     H22156   1.368   7.316   1.523 -2.2518 -1.8603 -2.1089
  905MOL0     H22157   2.510   7.698   1.169  2.2187  1.7791 -0.6429
  905MOL0     H22158   2.758   7.734   1.215  0.4492  1.2035 -0.1833
  905MOL0     H22159   2.995   8.210   1.443 -3.1830 -2.5166  1.2744
  905MOL0     H22160   3.226   8.286   1.491  1.6622  0.4335  0.4064
  905MOL0     H22161   3.964   8.513   0.845  1.6742  2.8032 -0.5200
  905MOL0     H22162   4.202   8.516   0.906 -1.3853 -3.9906  3.4181
  905MOL0     H22163   4.586   8.508   0.863 -0.6308  0.5837 -1.6056
  905MOL0     H22164   4.807   8.546   0.923  0.9318  0.2585  0.4687
  905MOL0     H22165   5.025   8.530   0.773  1.3811  1.9365 -0.3367
  905MOL0     H22166   5.062   8.550   0.946  2.7054  2.0731 -0.2566
  905MOL0     H22167   5.239   8.409   0.747  1.8662  1.3859 -0.8940
  905MOL0     H22168   5.273   8.428   0.917  1.4573  1.2781 -0.9624
  905MOL0     H22169   5.270   8.667   0.897 -3.4228 -0.0384 -0.8874
  905MOL0     H22170   5.211   8.655   0.732  0.4145  0.6496  0.3038
  905MOL0     H22171   5.430   8.549   0.677 -1.6330 -1.1785  0.8643
  905MOL0     H22172   5.494   8.561   0.845  0.7676  1.0033  0.2034
  905MOL0     H22173   5.566   8.938   0.660 -1.9350  0.8391 -1.9982
  905MOL0     H22174   4.899   8.136   0.806 -0.0205  0.5297 -1.4955
  905MOL0     H22175   4.662   8.102   0.754 -0.3971 -0.4066 -1.6458
  906MOL0     O22176   4.053   0.857   1.220 -0.4535  0.5548 -0.0512
  906MOL0     C22177   4.029   0.949   1.146 -0.2938  0.5707 -0.1800
  906MOL0     O22178   3.912   1.010   1.126  0.0427  0.3399 -0.1150
  906MOL0     C22179   3.812   0.968   1.216  1.4399 -1.0716 -0.4745
  906MOL0     C22180   3.692   0.904   1.177 -0.2380 -0.4899 -0.7223
  906MOL0     C22181   3.591   0.872   1.268 -0.4825 -1.0814  0.3551
  906MOL0     C22182   3.602   0.933   1.392  0.6452  0.5773 -0.8195
  906MOL0     O22183   3.505   0.903   1.488  0.4507  0.0965  0.7938
  906MOL0     C22184   3.366   0.910   1.449 -0.0179 -0.3231  0.5808
  906MOL0     C22185   3.276   0.923   1.576  1.0369  0.2752  0.7157
  906MOL0     C22186   3.128   0.922   1.536 -0.1747  0.0109  0.1362
  906MOL0     C22187   3.049   0.899   1.665  0.2009 -0.0204  0.9581
  906MOL0     C22188   2.901   0.923   1.668  0.0282  0.5521 -0.5147
  906MOL0     C22189   2.831   0.823   1.581 -0.4723 -0.6197  0.3957
  906MOL0     C22190   2.684   0.863   1.568  0.3257  0.6684  0.0790
  906MOL0     C22191   2.602   0.751   1.489 -0.7686  0.4042 -0.2119
  906MOL0     N22192   2.457   0.784   1.471 -0.2216  0.5769 -0.0493
  906MOL0     C22193   2.359   0.790   1.575 -0.3834 -1.4398  0.6095
  906MOL0     C22194   2.249   0.840   1.525 -0.4557 -0.6450 -0.0796
  906MOL0     C22195   2.139   0.891   1.609 -0.1334  0.5088  0.0375
  906MOL0     C22196   2.009   0.805   1.602  0.2277 -0.1436 -0.6276
  906MOL0     C22197   1.902   0.852   1.704 -0.4004  0.1888  0.7641
  906MOL0     C22198   1.835   0.978   1.654  0.7363  0.0738  0.6468
  906MOL0     O22199   1.728   1.008   1.740  0.4015  0.5391 -0.0715
  906MOL0     C22200   1.611   0.949   1.709 -0.6499 -0.0361 -0.4409
  906MOL0     C22201   1.554   0.853   1.791  0.4843  0.9138  0.5712
  906MOL0     C22202   1.425   0.792   1.757 -0.2520 -0.4479 -0.7800
  906MOL0     C22203   1.377   0.674   1.841 -0.8744 -0.1044 -0.6425
  906MOL0     C22204   1.355   0.838   1.646  0.3995  1.0765 -0.8106
  906MOL0     C22205   1.224   0.791   1.597 -0.0962  1.0978  0.7003
  906MOL0     O22206   1.192   0.837   1.468  0.2938 -0.7206 -0.0679
  906MOL0     C22207   1.073   0.827   1.398 -0.0275  0.8464 -0.3900
  906MOL0     C22208   1.058   0.850   1.260  0.3376  0.1412 -0.4390
  906MOL0     C22209   0.930   0.862   1.184 -0.4820  0.5705 -1.1292
  906MOL0     C22210   0.814   0.829   1.251 -0.6239  0.5092 -0.3933
  906MOL0     O22211   0.694   0.817   1.192  0.1475 -0.3922 -0.7811
  906MOL0     C22212   0.574   0.795   1.266 -0.1573  1.0230 -0.1285
  906MOL0     C22213   0.535   0.917   1.347 -0.1158 -0.2430  0.2223
  906MOL0     C22214   0.410   0.886   1.432 -0.1605 -0.0403 -0.5586
  906MOL0     C22215   0.283   0.866   1.345 -0.6489  0.4515 -0.4197
  906MOL0     C22216   0.170   0.815   1.436  0.4327  0.1786  0.3925
  906MOL0     C22217   0.041   0.804   1.344 -0.1020  0.3284  0.7095
  906MOL0     C22218  -0.083   0.740   1.416 -0.4264 -0.4965  0.0660
  906MOL0     C22219  -0.202   0.715   1.321 -1.2116  0.1299  0.0177
  906MOL0    Cl22220  -0.278   0.872   1.286 -0.1109  0.5674 -0.4513
  906MOL0     C22221   0.831   0.802   1.396 -0.1810 -0.4621 -0.7913
  906MOL0     C22222   0.953   0.808   1.465 -0.3347 -0.1657  0.5919
  906MOL0     O22223   1.145   0.734   1.671 -0.5319 -0.0716  0.0970
  906MOL0     C22224   1.412   0.935   1.573  0.0683 -0.5291 -0.1870
  906MOL0     C22225   1.535   0.997   1.599 -0.0942 -0.9674 -0.4114
  906MOL0     N22226   2.269   0.866   1.392  0.4200 -0.7367  0.2156
  906MOL0     N22227   2.394   0.830   1.354  0.3384 -0.1061  0.5260
  906MOL0     C22228   3.716   0.996   1.439 -0.4516  0.2107 -0.2712
  906MOL0     C22229   3.823   1.013   1.348  0.2279  0.1683  0.6415
  906MOL0     C22230   4.135   0.989   1.050  0.1378  0.3823  0.6584
  906MOL0     C22231   4.105   1.076   0.942  0.6674 -0.4309  0.0303
  906MOL0     C22232   4.192   1.095   0.835 -0.4667  0.4666  0.3318
  906MOL0     C22233   4.324   1.040   0.838  0.2158 -0.9353  0.7960
  906MOL0     O22234   4.421   1.081   0.743 -0.1944  0.5370 -0.1760
  906MOL0     C22235   4.553   1.036   0.756  0.3401 -0.1283  0.2363
  906MOL0     C22236   4.643   1.089   0.636  0.3573 -0.1941 -0.0559
  906MOL0     C22237   4.562   1.109   0.510 -0.3384  0.0488 -0.3183
  906MOL0     C22238   4.667   1.155   0.405  0.3998 -0.1142  0.4368
  906MOL0     C22239   4.607   1.149   0.271 -0.4116  0.6132 -0.1088
  906MOL0     C22240   4.571   1.152   0.152  1.3628 -0.4682 -0.8459
  906MOL0     C22241   4.361   0.962   0.958 -0.3385  0.4275 -0.0595
  906MOL0     C22242   4.263   0.925   1.049 -0.3576  0.4075 -0.7806
  906MOL0     H22243   3.670   0.885   1.073  0.8825  1.7437 -1.4238
  906MOL0     H22244   3.500   0.817   1.245 -0.8194 -0.4139  0.0754
  906MOL0     H22245   3.352   1.000   1.389  1.6191 -0.3885  0.0608
  906MOL0     H22246   3.327   0.816   1.408 -3.0071  0.4524  1.4218
  906MOL0     H22247   3.301   0.836   1.637  0.6564  0.1200  0.6518
  906MOL0     H22248   3.310   1.015   1.625 -0.3937  0.9117  0.5693
  906MOL0     H22249   3.097   1.016   1.488  2.3300  2.0363  2.1559
  906MOL0     H22250   3.113   0.841   1.465  2.6568  1.6280 -2.5399
  906MOL0     H22251   3.058   0.794   1.696 -0.1956 -0.1951  0.4903
  906MOL0     H22252   3.089   0.957   1.748  1.9648  2.2219 -1.3185
  906MOL0     H22253   2.862   0.913   1.770  2.9660 -0.9868  0.5960
  906MOL0     H22254   2.884   1.027   1.638 -0.1568  1.9368  3.7090
  906MOL0     H22255   2.883   0.822   1.484 -3.0659 -0.0949 -1.0954
  906MOL0     H22256   2.836   0.727   1.633 -0.0851 -0.9267 -0.1925
  906MOL0     H22257   2.644   0.881   1.668  0.3096  2.2267 -0.1852
  906MOL0     H22258   2.668   0.955   1.510 -2.9229 -1.6260 -3.1039
  906MOL0     H22259   2.605   0.657   1.546 -0.2225 -0.0642 -0.9951
  906MOL0     H22260   2.639   0.732   1.388 -0.1587  0.3238  0.0224
  906MOL0     H22261   2.371   0.774   1.682 -3.5115  0.9042  1.4510
  906MOL0     H22262   2.177   0.878   1.711  2.7136 -0.1859 -1.0294
  906MOL0     H22263   2.128   0.993   1.573 -0.1338  0.3788 -0.3325
  906MOL0     H22264   2.039   0.701   1.618  0.2027 -0.2284 -1.0899
  906MOL0     H22265   1.950   0.809   1.509 -1.2351  0.2901  0.2849
  906MOL0     H22266   1.926   0.855   1.811 -1.2722  2.4182  0.9427
  906MOL0     H22267   1.820   0.781   1.690  0.0145  0.2088 -2.4465
  906MOL0     H22268   1.794   0.976   1.553 -0.0049  4.6702  0.6517
  906MOL0     H22269   1.906   1.061   1.650  0.6145  0.1377 -0.8481
  906MOL0     H22270   1.611   0.815   1.874  0.9542  0.0676 -0.1287
  906MOL0     H22271   1.390   0.578   1.788 -1.5395  0.6456 -2.2420
  906MOL0     H22272   1.438   0.678   1.932 -1.3458 -3.4326 -0.0423
  906MOL0     H22273   1.274   0.690   1.874 -0.4107 -1.0164  1.3505
  906MOL0     H22274   1.151   0.850   1.205 -0.1891  0.0386 -1.3538
  906MOL0     H22275   0.916   0.888   1.079  0.4907 -1.8868 -1.9515
  906MOL0     H22276   0.492   0.777   1.197  0.9010 -0.7209 -0.9836
  906MOL0     H22277   0.575   0.701   1.322  0.2709 -0.8575 -3.0735
  906MOL0     H22278   0.624   0.958   1.398  0.2312 -1.9402  1.0397
  906MOL0     H22279   0.522   0.990   1.267  1.8736 -1.0920 -0.9429
  906MOL0     H22280   0.383   0.969   1.497 -5.3101 -0.9807 -1.0520
  906MOL0     H22281   0.422   0.788   1.478 -1.6568 -0.5772 -1.2499
  906MOL0     H22282   0.249   0.954   1.289 -2.3264  2.6044  3.5894
  906MOL0     H22283   0.298   0.777   1.282  2.2054 -0.3265  1.1510
  906MOL0     H22284   0.149   0.892   1.511  1.5765  0.2777  0.6364
  906MOL0     H22285   0.195   0.721   1.485 -1.3286  0.1204  1.2479
  906MOL0     H22286   0.022   0.888   1.278 -2.3671 -1.7392 -1.4781
  906MOL0     H22287   0.076   0.723   1.279  0.4662 -0.2538  1.7030
  906MOL0     H22288  -0.119   0.824   1.477 -0.1596 -0.0954 -0.3335
  906MOL0     H22289  -0.067   0.646   1.470 -1.7179  0.4282  2.1974
  906MOL0     H22290  -0.277   0.653   1.371 -0.7537 -0.2111  0.2885
  906MOL0     H22291  -0.158   0.671   1.231 -2.6631 -0.2362 -0.5441
  906MOL0     H22292   0.755   0.773   1.468  0.8905 -2.0297 -0.2176
  906MOL0     H22293   0.951   0.797   1.573 -0.1580 -0.3290  0.5782
  906MOL0     H22294   1.364   0.965   1.480  0.3464 -0.4337 -0.3001
  906MOL0     H22295   1.563   1.074   1.528  1.6533 -0.6566  0.5561
  906MOL0     H22296   3.715   1.026   1.543  0.8615  3.7740 -1.1351
  906MOL0     H22297   3.911   1.066   1.385 -1.2058  1.0905  2.9495
  906MOL0     H22298   4.009   1.123   0.924  2.0179  1.8694 -1.5611
  906MOL0     H22299   4.152   1.155   0.754 -0.2246 -2.6803 -2.3126
  906MOL0     H22300   4.600   1.065   0.851 -0.1037 -1.0398  0.7444
  906MOL0     H22301   4.549   0.927   0.760 -3.3092 -0.0899  2.3343
  906MOL0     H22302   4.719   1.012   0.617  1.2112  0.7053 -0.3954
  906MOL0     H22303   4.698   1.181   0.660  0.1464  0.3411 -1.5634
  906MOL0     H22304   4.487   1.186   0.527 -0.8641  0.1894 -2.8924
  906MOL0     H22305   4.511   1.016   0.482 -2.8181  1.1440  0.3150
  906MOL0     H22306   4.756   1.092   0.410  0.9993  0.5420 -1.3111
  906MOL0     H22307   4.696   1.260   0.411 -2.5330  0.6936  2.3719
  906MOL0     H22308   4.532   1.149   0.053  1.4596 -0.0838 -0.8957
  906MOL0     H22309   4.461   0.921   0.966  0.3501  2.1879  0.9638
  906MOL0     H22310   4.285   0.844   1.118 -1.9394  0.0418 -0.6777
  907MOL0     O22311   9.869  11.258   5.567 -0.4061 -0.1221  0.3110
  907MOL0     C22312   9.818  11.303   5.467 -0.0118 -0.2064  0.3034
  907MOL0     O22313   9.682  11.292   5.448  0.0547 -0.9578 -0.0369
  907MOL0     C22314   9.616  11.197   5.517  0.6147 -0.3144  0.1634
  907MOL0     C22315   9.606  11.062   5.471 -0.3582  0.1653  0.4524
  907MOL0     C22316   9.523  10.974   5.535 -1.1932 -0.0021 -0.1972
  907MOL0     C22317   9.443  11.019   5.644 -0.1637 -0.9108  0.4944
  907MOL0     O22318   9.348  10.941   5.694  0.3000  0.6774 -0.2006
  907MOL0     C22319   9.218  10.972   5.658 -0.3198  0.7320 -0.6678
  907MOL0     C22320   9.133  10.864   5.724 -0.3217  0.0598  0.1599
  907MOL0     C22321   8.991  10.903   5.718 -0.3753  0.2255 -0.3194
  907MOL0     C22322   8.905  10.782   5.749  0.3058 -0.0259  0.2769
  907MOL0     C22323   8.763  10.817   5.772  0.0859  0.6303 -0.1866
  907MOL0     C22324   8.660  10.707   5.805  0.4937  0.8308  0.0508
  907MOL0     C22325   8.670  10.653   5.946  0.3346 -0.0947 -1.0552
  907MOL0     C22326   8.694  10.761   6.049  0.6586  0.3908 -1.1196
  907MOL0     N22327   8.678  10.712   6.184 -0.0903  1.0789 -0.6205
  907MOL0     C22328   8.555  10.714   6.255 -0.3370  0.6866 -0.4161
  907MOL0     C22329   8.582  10.682   6.383 -0.0637 -0.4456  0.1351
  907MOL0     C22330   8.507  10.702   6.515  0.0661 -0.1097 -0.3982
  907MOL0     C22331   8.538  10.586   6.607  0.7529 -0.3926  0.1644
  907MOL0     C22332   8.455  10.567   6.731  0.8651  0.1706  0.2645
  907MOL0     C22333   8.446  10.405   6.759 -0.9576  0.3417  0.8242
  907MOL0     O22334   8.409  10.377   6.889  0.3793  0.2383  0.0416
  907MOL0     C22335   8.268  10.408   6.920  0.0314 -0.1365  0.4351
  907MOL0     C22336   8.228  10.369   7.045 -0.3889 -0.0461  0.0658
  907MOL0     C22337   8.097  10.378   7.097  0.6180  0.2292  0.9873
  907MOL0     C22338   8.064  10.313   7.231 -0.8631 -0.0594  0.2410
  907MOL0     C22339   8.006  10.436   7.013 -0.0714  0.3770 -0.2698
  907MOL0     C22340   7.865  10.466   7.049  0.4940 -0.1988 -1.0010
  907MOL0     O22341   7.773  10.451   6.951  0.4347  0.7526 -0.3653
  907MOL0     C22342   7.636  10.455   6.983 -0.3555  1.1005 -0.1546
  907MOL0     C22343   7.565  10.393   7.084 -0.2742  0.1293 -0.3807
  907MOL0     C22344   7.432  10.415   7.098  0.1969 -0.3753 -0.3701
  907MOL0     C22345   7.360  10.499   7.007 -0.3402  0.4827 -0.1710
  907MOL0     O22346   7.227  10.510   7.025 -0.3111 -0.2423  0.4081
  907MOL0     C22347   7.174  10.628   6.969  0.5489 -0.1775 -0.4763
  907MOL0     C22348   7.038  10.650   7.036  0.4562  0.1725 -0.2817
  907MOL0     C22349   6.957  10.774   6.986  0.0577  0.0230 -1.2999
  907MOL0     C22350   6.817  10.777   7.044  0.1586  0.2058  0.4850
  907MOL0     C22351   6.747  10.901   7.008  0.2868 -1.2177 -0.0958
  907MOL0     C22352   6.610  10.921   7.081  0.1865 -0.4429  0.3892
  907MOL0     C22353   6.523  11.049   7.036 -0.6639  1.0968  0.2902
  907MOL0     C22354   6.379  11.052   7.111 -0.0126 -0.0100  0.5881
  907MOL0    Cl22355   6.272  10.929   7.047 -0.2504  0.2957 -0.3757
  907MOL0     C22356   7.428  10.558   6.907 -0.1741  0.4672 -0.1776
  907MOL0     C22357   7.566  10.537   6.891 -0.4255  0.4151  0.4814
  907MOL0     O22358   7.836  10.484   7.169  0.1452  0.2800  0.3273
  907MOL0     C22359   8.041  10.476   6.884  0.3275  0.2694 -0.0129
  907MOL0     C22360   8.170  10.464   6.832 -0.7505 -0.7412 -0.6056
  907MOL0     N22361   8.722  10.684   6.392  0.5622 -0.5102 -0.7622
  907MOL0     N22362   8.778  10.693   6.273  0.4476  0.1678 -0.0342
  907MOL0     C22363   9.441  11.153   5.676 -0.3624 -0.5724 -0.7116
  907MOL0     C22364   9.534  11.247   5.621 -0.0806  0.6905  0.0578
  907MOL0     C22365   9.893  11.391   5.378 -0.7588  0.2653  0.1013
  907MOL0     C22366  10.033  11.410   5.399 -0.4120  0.0138 -0.0924
  907MOL0     C22367  10.113  11.491   5.319 -0.1883 -1.5191  0.4448
  907MOL0     C22368  10.039  11.549   5.211  0.3068  0.5234 -0.1489
  907MOL0     O22369  10.100  11.632   5.117 -0.1290 -0.1998  0.0503
  907MOL0     C22370  10.239  11.613   5.079 -0.3307  0.1614 -0.3074
  907MOL0     C22371  10.316  11.725   5.138 -0.1174 -0.0855  0.1425
  907MOL0     C22372  10.466  11.737   5.125 -1.4170  0.4823 -1.1558
  907MOL0     C22373  10.529  11.611   5.190  0.1815  0.9514  0.4475
  907MOL0     C22374  10.668  11.617   5.182 -0.4232  0.5309 -0.1178
  907MOL0     C22375  10.787  11.619   5.196  0.5939 -0.0066 -0.4874
  907MOL0     C22376   9.897  11.535   5.188 -0.1705  0.6945 -0.0291
  907MOL0     C22377   9.828  11.453   5.267 -1.3058  0.2120 -1.1747
  907MOL0     H22378   9.666  11.037   5.384  0.7969  0.6572  1.0800
  907MOL0     H22379   9.523  10.871   5.499  0.7895  0.0463 -0.4578
  907MOL0     H22380   9.180  11.073   5.681 -0.7447  0.8123 -1.6948
  907MOL0     H22381   9.217  10.964   5.549 -2.4779  4.1774 -1.0734
  907MOL0     H22382   9.152  10.774   5.666 -0.0610  0.3786 -0.2518
  907MOL0     H22383   9.162  10.843   5.828 -0.3821 -1.7013 -0.1580
  907MOL0     H22384   8.964  10.987   5.782  3.1439  0.7761  0.6481
  907MOL0     H22385   8.952  10.922   5.617  0.4457 -2.6445 -1.2944
  907MOL0     H22386   8.911  10.703   5.673 -0.5753 -0.1562  0.3279
  907MOL0     H22387   8.933  10.741   5.846  0.8305  0.1270  0.1961
  907MOL0     H22388   8.762  10.898   5.845  0.1055  0.5122 -0.0529
  907MOL0     H22389   8.728  10.868   5.682 -1.0833  1.9982  0.9946
  907MOL0     H22390   8.559  10.750   5.801 -0.4562 -1.3657 -1.4701
  907MOL0     H22391   8.673  10.630   5.728  1.6817 -0.3258  1.3700
  907MOL0     H22392   8.577  10.599   5.963 -2.6212  4.3366 -1.4652
  907MOL0     H22393   8.745  10.573   5.946 -1.1091 -1.5113  0.3239
  907MOL0     H22394   8.637  10.852   6.027 -2.3167 -1.1883 -0.4023
  907MOL0     H22395   8.799  10.791   6.041  0.5271  0.6516 -1.9241
  907MOL0     H22396   8.457  10.754   6.229  0.0618  2.7721  0.9920
  907MOL0     H22397   8.528  10.799   6.562  0.3385 -0.0273 -0.6892
  907MOL0     H22398   8.399  10.702   6.497 -1.1730 -0.8864  5.0935
  907MOL0     H22399   8.639  10.615   6.636  0.7787 -0.8587  0.5551
  907MOL0     H22400   8.528  10.496   6.545  1.0195 -0.9551  0.9218
  907MOL0     H22401   8.353  10.606   6.722 -1.2054 -4.4841  0.7386
  907MOL0     H22402   8.499  10.623   6.814 -3.8215  1.0475  2.4842
  907MOL0     H22403   8.540  10.354   6.740  0.4151  3.8890 -3.9615
  907MOL0     H22404   8.385  10.364   6.678  1.2766  0.7113 -1.1553
  907MOL0     H22405   8.297  10.312   7.106 -0.0819 -2.9196 -2.7381
  907MOL0     H22406   7.960  10.279   7.233 -0.2123 -2.1721  1.8321
  907MOL0     H22407   8.123  10.222   7.241 -2.4353 -1.1581 -0.0953
  907MOL0     H22408   8.085  10.392   7.304 -0.0346 -0.5242  0.5217
  907MOL0     H22409   7.621  10.334   7.156 -0.0677  2.4932  1.5485
  907MOL0     H22410   7.378  10.366   7.179  0.8079  1.4881  1.2362
  907MOL0     H22411   7.236  10.716   6.987 -1.3172  1.1388 -0.2205
  907MOL0     H22412   7.143  10.596   6.869 -1.6268 -0.6919  0.3027
  907MOL0     H22413   6.972  10.562   7.028 -2.7141  1.9852  2.9921
  907MOL0     H22414   7.060  10.658   7.143  2.1765  1.6637 -0.7106
  907MOL0     H22415   6.952  10.762   6.878  1.1706 -1.8272 -1.1956
  907MOL0     H22416   7.012  10.866   7.011 -1.8969  0.3970  2.2889
  907MOL0     H22417   6.751  10.700   7.002 -1.4779  2.6579 -1.6781
  907MOL0     H22418   6.827  10.763   7.152  2.5823 -0.4280  0.2412
  907MOL0     H22419   6.720  10.906   6.902 -0.7065 -0.1460  0.1825
  907MOL0     H22420   6.811  10.986   7.035  0.5780 -1.6981  0.7788
  907MOL0     H22421   6.554  10.831   7.055 -0.3512 -0.0823  0.2810
  907MOL0     H22422   6.643  10.932   7.185 -0.4399  4.1957  0.3192
  907MOL0     H22423   6.506  11.044   6.928  1.9020  0.0922 -0.1574
  907MOL0     H22424   6.583  11.138   7.055  0.1630 -0.0500  3.6387
  907MOL0     H22425   6.340  11.154   7.096 -0.4698 -0.0708  1.2689
  907MOL0     H22426   6.390  11.032   7.218  2.1818 -2.8380 -0.0522
  907MOL0     H22427   7.376  10.615   6.831 -0.1287  1.6607  0.6556
  907MOL0     H22428   7.635  10.593   6.829  0.5569  1.6959  2.6260
  907MOL0     H22429   7.966  10.514   6.817 -1.1758 -2.0127  0.2507
  907MOL0     H22430   8.195  10.492   6.731 -2.3193  0.1971 -0.7630
  907MOL0     H22431   9.371  11.187   5.752 -0.6037  1.0838 -1.6090
  907MOL0     H22432   9.540  11.354   5.638  0.9268  0.4366  1.4526
  907MOL0     H22433  10.086  11.372   5.486 -0.2690 -2.2750 -1.1074
  907MOL0     H22434  10.215  11.517   5.346 -1.0092 -1.3653  3.7999
  907MOL0     H22435  10.274  11.517   5.120 -0.7202 -0.3527 -1.1539
  907MOL0     H22436  10.253  11.605   4.971 -1.6095  0.9814 -0.5476
  907MOL0     H22437  10.282  11.740   5.241 -1.8925 -1.1972 -0.2401
  907MOL0     H22438  10.287  11.814   5.083 -3.0860 -0.6221  0.6634
  907MOL0     H22439  10.508  11.820   5.182 -0.9639 -0.0362 -0.7267
  907MOL0     H22440  10.498  11.766   5.024 -3.0844  1.8108 -1.3601
  907MOL0     H22441  10.495  11.519   5.140  2.8943  1.1983 -2.1358
  907MOL0     H22442  10.502  11.612   5.296 -0.7902  2.4045  0.2108
  907MOL0     H22443  10.893  11.617   5.210  0.3785  0.9115  1.5279
  907MOL0     H22444   9.843  11.579   5.105 -2.7066 -1.1726  0.5220
  907MOL0     H22445   9.721  11.433   5.257 -1.6301 -0.2351  2.1101
  908MOL0     O22446   5.318   3.221   0.445  0.3407  0.0243  0.0035
  908MOL0     C22447   5.341   3.116   0.502 -0.6623 -0.1394 -0.1497
  908MOL0     O22448   5.247   3.025   0.540  0.4875  0.2840 -0.2143
  908MOL0     C22449   5.117   3.056   0.503  0.1252  0.2315  0.4104
  908MOL0     C22450   5.032   3.120   0.596 -0.4076 -0.0841 -0.2669
  908MOL0     C22451   4.900   3.148   0.552  0.1232 -0.5677 -0.4041
  908MOL0     C22452   4.856   3.124   0.419  0.5993 -0.2417 -0.5864
  908MOL0     O22453   4.727   3.152   0.377  0.2423  0.0170  0.3291
  908MOL0     C22454   4.625   3.090   0.456 -1.0397  0.1728 -0.3523
  908MOL0     C22455   4.502   3.066   0.375 -0.5365  0.2650  0.1781
  908MOL0     C22456   4.384   3.018   0.453 -0.0362  0.1083 -0.8100
  908MOL0     C22457   4.259   2.995   0.364 -0.4361  0.5537  0.3767
  908MOL0     C22458   4.130   3.023   0.440  0.4852  0.4275 -0.5461
  908MOL0     C22459   4.007   2.999   0.363  0.3158  0.0282  0.0610
  908MOL0     C22460   3.878   3.056   0.448  0.4223  0.5022  0.4644
  908MOL0     C22461   3.861   3.195   0.388 -0.7393 -0.6244 -0.5919
  908MOL0     N22462   3.794   3.208   0.264  0.7536  0.2642  0.5151
  908MOL0     C22463   3.855   3.238   0.141  0.2106 -0.6220 -0.2822
  908MOL0     C22464   3.757   3.231   0.053 -0.5962  0.1327  0.6049
  908MOL0     C22465   3.778   3.270  -0.093  0.5344 -0.2025  0.8001
  908MOL0     C22466   3.656   3.336  -0.164 -0.7453  0.1721 -0.2273
  908MOL0     C22467   3.599   3.460  -0.109  0.1981 -0.3475 -0.3226
  908MOL0     C22468   3.495   3.535  -0.198  1.2211 -0.7716 -0.5031
  908MOL0     O22469   3.470   3.677  -0.150 -0.5128  0.4781 -0.1554
  908MOL0     C22470   3.362   3.749  -0.190 -0.2449 -0.0689  0.3240
  908MOL0     C22471   3.357   3.887  -0.164 -0.6463  0.0908 -0.0352
  908MOL0     C22472   3.260   3.974  -0.212 -0.1244 -0.4016 -1.1414
  908MOL0     C22473   3.267   4.124  -0.176 -0.7341 -0.0038 -0.1634
  908MOL0     C22474   3.148   3.920  -0.282  0.5245 -0.9593 -0.3566
  908MOL0     C22475   3.038   4.010  -0.344 -0.3405 -0.5743  0.1850
  908MOL0     O22476   2.937   3.944  -0.403  0.1126  0.4957  0.7979
  908MOL0     C22477   2.827   4.021  -0.439 -0.8517  0.3113 -0.5166
  908MOL0     C22478   2.716   4.024  -0.355 -0.3931 -0.5020 -0.9811
  908MOL0     C22479   2.601   4.097  -0.379  0.0290  0.0674 -0.1653
  908MOL0     C22480   2.607   4.184  -0.492 -0.3980  0.7413  0.3119
  908MOL0     O22481   2.507   4.275  -0.504 -0.1755  0.7174  0.2732
  908MOL0     C22482   2.532   4.409  -0.549 -0.4909  0.5441 -0.8549
  908MOL0     C22483   2.418   4.496  -0.529 -0.0381 -0.1225 -0.2978
  908MOL0     C22484   2.437   4.636  -0.597  0.7209  0.7508 -0.1794
  908MOL0     C22485   2.307   4.722  -0.600  0.4483 -0.1437  0.3820
  908MOL0     C22486   2.326   4.858  -0.667 -1.2482 -0.1545  0.5220
  908MOL0     C22487   2.203   4.940  -0.685 -0.5214 -0.4002 -0.0876
  908MOL0     C22488   2.235   5.068  -0.749 -0.1121  0.2155 -0.9911
  908MOL0     C22489   2.110   5.149  -0.766 -0.1138 -0.1553 -0.6906
  908MOL0    Cl22490   2.007   5.179  -0.614 -0.2817 -0.1483  0.0434
  908MOL0     C22491   2.712   4.177  -0.591  0.1691  1.2956  0.1305
  908MOL0     C22492   2.822   4.100  -0.556 -0.0129  0.8077  0.2181
  908MOL0     O22493   3.044   4.127  -0.330  0.3204 -0.0546  0.6102
  908MOL0     C22494   3.151   3.785  -0.319 -0.8069 -0.3036  0.5217
  908MOL0     C22495   3.259   3.702  -0.274 -0.0164  1.0098 -0.3994
  908MOL0     N22496   3.644   3.176   0.104  0.2283 -0.5035 -0.5213
  908MOL0     N22497   3.665   3.167   0.235 -0.2812  0.1966 -0.3297
  908MOL0     C22498   4.939   3.051   0.331 -0.0484 -0.0898 -0.3766
  908MOL0     C22499   5.069   3.015   0.381  0.3034 -0.6468 -0.3928
  908MOL0     C22500   5.488   3.087   0.535  0.4750 -0.7953 -0.1620
  908MOL0     C22501   5.529   2.957   0.536  0.0318 -0.0086 -0.1710
  908MOL0     C22502   5.662   2.921   0.565 -0.3714 -0.2853 -0.4396
  908MOL0     C22503   5.750   3.014   0.609  0.0482 -0.7375  0.3641
  908MOL0     O22504   5.875   2.963   0.622  0.0952 -0.3412  0.2667
  908MOL0     C22505   5.984   3.059   0.633  0.5390 -0.7434 -0.4480
  908MOL0     C22506   6.119   3.005   0.637 -0.4530 -0.2956  0.2310
  908MOL0     C22507   6.236   3.109   0.674  0.0926  0.0264 -0.5057
  908MOL0     C22508   6.221   3.189   0.813 -0.0648 -0.0842 -0.3834
  908MOL0     C22509   6.346   3.260   0.846  0.1893 -0.7346  0.7724
  908MOL0     C22510   6.454   3.312   0.868 -0.4993  0.3740 -0.4530
  908MOL0     C22511   5.705   3.146   0.617  0.3898  0.6090  0.0764
  908MOL0     C22512   5.581   3.188   0.567 -0.5257 -0.3190  0.0269
  908MOL0     H22513   5.052   3.149   0.699  0.9242  2.0370 -1.0635
  908MOL0     H22514   4.829   3.189   0.624 -0.3142  2.7935 -2.5129
  908MOL0     H22515   4.659   2.989   0.478  2.1034  1.2532  0.2667
  908MOL0     H22516   4.619   3.138   0.554 -0.6596  3.4106 -1.7810
  908MOL0     H22517   4.475   3.168   0.348 -0.6647  0.0908 -0.3505
  908MOL0     H22518   4.534   2.998   0.296 -0.0094  1.8967 -1.0802
  908MOL0     H22519   4.415   2.931   0.512  1.7807  3.0014  2.9479
  908MOL0     H22520   4.360   3.101   0.520 -2.8986 -1.5207  0.3593
  908MOL0     H22521   4.264   3.060   0.276  1.1153  0.9073  0.7036
  908MOL0     H22522   4.256   2.890   0.335 -0.5893  0.2471  1.4601
  908MOL0     H22523   4.119   2.971   0.536 -0.3200  1.8861  0.1877
  908MOL0     H22524   4.130   3.127   0.475  0.5238 -0.4525  2.3076
  908MOL0     H22525   4.013   3.027   0.258  0.9019 -0.4673 -0.0453
  908MOL0     H22526   4.003   2.892   0.345  0.9582  0.2767 -1.7567
  908MOL0     H22527   3.789   2.994   0.434  0.2969  0.7790 -0.0184
  908MOL0     H22528   3.894   3.062   0.556 -2.7017  1.0148  0.9723
  908MOL0     H22529   3.954   3.252   0.374 -1.3718  1.3022  2.2209
  908MOL0     H22530   3.810   3.259   0.460  1.5289  3.2704 -2.0873
  908MOL0     H22531   3.957   3.273   0.130  0.4415 -0.4963  1.7647
  908MOL0     H22532   3.860   3.342  -0.093 -0.1251  0.6883  3.6303
  908MOL0     H22533   3.813   3.178  -0.140  2.3811  1.9017 -2.3637
  908MOL0     H22534   3.576   3.262  -0.167  0.2160 -0.8714 -1.2699
  908MOL0     H22535   3.689   3.354  -0.267 -4.0760  1.7262 -1.1644
  908MOL0     H22536   3.679   3.532  -0.091 -0.9243  0.4795  1.7932
  908MOL0     H22537   3.559   3.434  -0.010  2.3237 -1.2703  0.3446
  908MOL0     H22538   3.398   3.484  -0.195  1.7092 -1.6670  1.3313
  908MOL0     H22539   3.523   3.523  -0.303  1.0361 -2.8426 -0.3459
  908MOL0     H22540   3.443   3.916  -0.105 -0.6920 -0.9422  0.5772
  908MOL0     H22541   3.179   4.156  -0.119 -1.2815  0.3814 -1.2118
  908MOL0     H22542   3.363   4.139  -0.124 -0.2254 -1.5595 -0.5967
  908MOL0     H22543   3.275   4.186  -0.266 -1.0002  1.2389  0.6395
  908MOL0     H22544   2.726   3.961  -0.268  0.3244 -1.7200 -1.9120
  908MOL0     H22545   2.513   4.087  -0.316 -0.1632  2.5847  0.0381
  908MOL0     H22546   2.620   4.449  -0.497  0.1783 -0.5773 -1.0815
  908MOL0     H22547   2.556   4.407  -0.656  1.0762 -1.8004 -0.5457
  908MOL0     H22548   2.331   4.445  -0.571 -1.8104 -1.2885  4.2302
  908MOL0     H22549   2.388   4.510  -0.425 -2.0908  3.0829 -1.1768
  908MOL0     H22550   2.472   4.617  -0.699  3.0214 -0.4369  0.7543
  908MOL0     H22551   2.520   4.686  -0.547  1.1425 -2.4113  2.5891
  908MOL0     H22552   2.227   4.669  -0.651  1.0807 -0.9932  0.2435
  908MOL0     H22553   2.269   4.738  -0.498  2.2773  1.7017  0.8407
  908MOL0     H22554   2.379   4.845  -0.762 -1.3415  1.7564  0.1568
  908MOL0     H22555   2.406   4.912  -0.615 -0.2833 -0.7692 -0.2751
  908MOL0     H22556   2.128   4.885  -0.743 -1.7675  0.5970  0.5348
  908MOL0     H22557   2.158   4.961  -0.588  0.1512 -0.5984  0.2692
  908MOL0     H22558   2.279   5.049  -0.847 -1.1071  0.4709 -1.5042
  908MOL0     H22559   2.308   5.119  -0.685  0.5759  1.5513 -2.7418
  908MOL0     H22560   2.058   5.103  -0.850 -0.2263 -1.5638  0.1297
  908MOL0     H22561   2.150   5.250  -0.784 -0.0060  0.5382  2.7741
  908MOL0     H22562   2.726   4.225  -0.687  3.2610  1.8884  0.7697
  908MOL0     H22563   2.915   4.107  -0.611 -0.2512 -2.2193 -0.7839
  908MOL0     H22564   3.081   3.744  -0.391 -1.8141 -3.8189  3.1876
  908MOL0     H22565   3.257   3.596  -0.298 -0.3992  0.4138  1.9847
  908MOL0     H22566   4.895   3.039   0.232 -2.7842  3.3987  0.2152
  908MOL0     H22567   5.130   2.956   0.314  0.8861  0.4637 -0.8756
  908MOL0     H22568   5.454   2.880   0.526  1.7170 -1.8179  0.3997
  908MOL0     H22569   5.697   2.819   0.553  0.4702  0.1427 -2.0016
  908MOL0     H22570   5.962   3.143   0.567 -2.0229 -2.2663 -1.6772
  908MOL0     H22571   5.978   3.095   0.736  2.0569 -1.2860 -0.1349
  908MOL0     H22572   6.133   2.971   0.534 -0.7526 -1.8626  0.6766
  908MOL0     H22573   6.119   2.916   0.701 -0.5761 -0.4873 -0.0332
  908MOL0     H22574   6.248   3.169   0.583  2.5334  0.6715  0.1602
  908MOL0     H22575   6.324   3.046   0.692 -2.2791 -2.7033  2.7185
  908MOL0     H22576   6.188   3.124   0.895 -0.2139 -0.9827 -1.1302
  908MOL0     H22577   6.144   3.265   0.798 -0.7671 -1.0465 -2.1050
  908MOL0     H22578   6.540   3.362   0.907  0.0673 -1.5625  0.9042
  908MOL0     H22579   5.783   3.219   0.641 -0.2765  1.3688 -0.0309
  908MOL0     H22580   5.555   3.293   0.560 -0.3420 -0.1213  1.8080
  909MOL0     O22581   7.220   8.121   8.273 -0.6897  0.3487 -0.4781
  909MOL0     C22582   7.312   8.129   8.191 -0.8419 -0.3068  0.2931
  909MOL0     O22583   7.301   8.117   8.062 -0.2715 -0.0236  0.0305
  909MOL0     C22584   7.179   8.102   8.012  0.0476 -1.5440  0.0185
  909MOL0     C22585   7.122   7.981   7.974  0.3557  0.1865  0.5583
  909MOL0     C22586   7.004   7.968   7.906 -0.4192  1.0109  0.3305
  909MOL0     C22587   6.923   8.084   7.890  0.7592  0.5315 -0.3430
  909MOL0     O22588   6.808   8.063   7.828 -0.3798  0.0911  0.5903
  909MOL0     C22589   6.717   8.177   7.811 -0.1089 -0.7554 -0.4823
  909MOL0     C22590   6.585   8.118   7.773 -0.3935 -0.5680  0.4332
  909MOL0     C22591   6.485   8.226   7.748 -0.0274  1.0439  0.2798
  909MOL0     C22592   6.354   8.164   7.705  0.5953 -0.0432  0.2597
  909MOL0     C22593   6.244   8.173   7.814 -0.6358  0.0223 -0.2328
  909MOL0     C22594   6.104   8.125   7.754 -0.5449 -0.2215  0.0191
  909MOL0     C22595   6.013   8.061   7.856  0.0838 -0.5667 -0.1990
  909MOL0     C22596   5.878   8.047   7.779  0.0734  0.4520  0.0765
  909MOL0     N22597   5.767   7.997   7.855  0.0863  0.6573 -0.5855
  909MOL0     C22598   5.754   7.867   7.878 -0.0291  0.7615 -0.7454
  909MOL0     C22599   5.633   7.850   7.938  1.1799 -0.5613  0.4734
  909MOL0     C22600   5.572   7.721   7.979 -0.0195 -0.1661  0.1111
  909MOL0     C22601   5.543   7.634   7.861  0.1294  0.2539 -0.0711
  909MOL0     C22602   5.444   7.696   7.756  0.7114 -0.7757 -0.2038
  909MOL0     C22603   5.293   7.687   7.779  1.4032  0.3148  0.4788
  909MOL0     O22604   5.251   7.762   7.892 -0.6543 -0.3898  0.0411
  909MOL0     C22605   5.119   7.752   7.926 -0.0798 -0.3662  0.4277
  909MOL0     C22606   5.017   7.678   7.865  0.5012  0.1957  0.7137
  909MOL0     C22607   4.885   7.672   7.906 -0.3447 -0.3378 -0.9511
  909MOL0     C22608   4.780   7.586   7.834 -0.5407 -0.2179 -0.1460
  909MOL0     C22609   4.852   7.755   8.023 -0.6594 -0.0030 -0.2232
  909MOL0     C22610   4.719   7.766   8.088  0.4124  1.0646 -1.7432
  909MOL0     O22611   4.671   7.887   8.121 -0.9700  0.4665 -0.4869
  909MOL0     C22612   4.566   7.904   8.202  0.2615  0.8243  0.5938
  909MOL0     C22613   4.583   7.895   8.339  0.2342  0.3183 -0.6929
  909MOL0     C22614   4.472   7.916   8.427 -0.2560  0.8490 -0.4991
  909MOL0     C22615   4.344   7.936   8.372  0.5435 -1.2350 -0.0718
  909MOL0     O22616   4.242   7.971   8.460 -0.1960  0.0627  0.2781
  909MOL0     C22617   4.155   8.081   8.423 -0.1192 -0.2624 -0.2082
  909MOL0     C22618   4.235   8.209   8.383  1.0496  0.7036  0.2775
  909MOL0     C22619   4.139   8.332   8.391 -1.4019 -0.1798 -0.7330
  909MOL0     C22620   4.041   8.333   8.278  0.9993  0.2947  0.5400
  909MOL0     C22621   3.975   8.470   8.284  1.0692  0.2416 -0.0332
  909MOL0     C22622   3.854   8.499   8.382  0.5850  0.2569 -0.7143
  909MOL0     C22623   3.787   8.631   8.349  0.3135 -0.4936 -0.5011
  909MOL0     C22624   3.687   8.671   8.456  0.1200  0.4609 -0.5156
  909MOL0    Cl22625   3.556   8.536   8.461 -0.0944  0.0433  1.0355
  909MOL0     C22626   4.330   7.949   8.229  0.5933  0.0610  0.7843
  909MOL0     C22627   4.439   7.929   8.143  0.8813  0.1547 -0.0103
  909MOL0     O22628   4.658   7.659   8.119 -0.6619  0.1686  0.4427
  909MOL0     C22629   4.950   7.837   8.082 -0.0175  0.9081 -0.6065
  909MOL0     C22630   5.079   7.835   8.033  0.0565  0.4136 -0.8348
  909MOL0     N22631   5.577   7.979   7.944 -0.0932  0.3203  0.0287
  909MOL0     N22632   5.658   8.062   7.897  0.0199 -0.4275  0.2495
  909MOL0     C22633   6.977   8.209   7.933 -0.0729 -0.2823 -0.3064
  909MOL0     C22634   7.104   8.223   7.987  0.2425  0.0163 -0.9490
  909MOL0     C22635   7.450   8.136   8.244 -0.0656  0.1551 -0.1109
  909MOL0     C22636   7.570   8.156   8.167  0.3434  1.0995  0.5462
  909MOL0     C22637   7.701   8.176   8.233 -0.4289  0.2653 -1.2864
  909MOL0     C22638   7.711   8.157   8.375 -0.1726 -0.2737 -0.8959
  909MOL0     O22639   7.828   8.162   8.447  0.0555  0.6410  0.3587
  909MOL0     C22640   7.937   8.237   8.400 -0.6637  0.2299 -0.3075
  909MOL0     C22641   8.066   8.197   8.474 -0.4028  0.0838  0.5027
  909MOL0     C22642   8.023   8.219   8.621  0.0695 -0.6487  1.4270
  909MOL0     C22643   8.152   8.209   8.708  0.3041 -0.0428 -0.1731
  909MOL0     C22644   8.116   8.235   8.844  0.1353  0.3744 -0.3886
  909MOL0     C22645   8.076   8.279   8.950  0.2324  0.0361 -0.1490
  909MOL0     C22646   7.595   8.139   8.448 -0.1264  0.2776 -0.2376
  909MOL0     C22647   7.473   8.119   8.386  0.3207 -0.5753  0.1734
  909MOL0     H22648   7.169   7.886   7.998  1.1228  0.1603 -0.9186
  909MOL0     H22649   6.975   7.869   7.873  2.4769 -0.6703  2.3603
  909MOL0     H22650   6.703   8.243   7.897  1.4136  1.5249 -1.8797
  909MOL0     H22651   6.752   8.242   7.730 -0.0450  1.7390  1.4427
  909MOL0     H22652   6.591   8.073   7.673 -1.8508  0.7307 -0.2760
  909MOL0     H22653   6.548   8.052   7.853  0.3981 -0.6010  0.7839
  909MOL0     H22654   6.470   8.291   7.836  0.4899 -1.4380  2.3234
  909MOL0     H22655   6.535   8.271   7.662  2.7258  0.3972  1.4146
  909MOL0     H22656   6.318   8.208   7.611 -0.7571 -0.4853  0.5449
  909MOL0     H22657   6.373   8.061   7.672  1.4921  0.6479 -1.5257
  909MOL0     H22658   6.281   8.117   7.900 -1.0586  1.7553  1.1359
  909MOL0     H22659   6.226   8.273   7.853 -1.1092 -0.5382  1.0306
  909MOL0     H22660   6.053   8.215   7.717 -0.0868 -0.0210 -0.1318
  909MOL0     H22661   6.127   8.056   7.672  1.8617 -0.2506  0.6338
  909MOL0     H22662   6.049   7.966   7.898  0.1862  0.3545  1.9150
  909MOL0     H22663   5.992   8.132   7.936 -0.3576  1.1841 -1.7908
  909MOL0     H22664   5.882   7.991   7.685 -0.5263  1.8985 -0.8570
  909MOL0     H22665   5.843   8.148   7.756  0.7375  0.5121 -0.7345
  909MOL0     H22666   5.811   7.780   7.847 -3.0275 -1.6198 -0.0008
  909MOL0     H22667   5.642   7.670   8.045  0.5883  1.1635  0.5408
  909MOL0     H22668   5.476   7.748   8.024  0.5442  0.8831  0.7338
  909MOL0     H22669   5.504   7.536   7.888 -5.3964  2.2714  0.6657
  909MOL0     H22670   5.633   7.634   7.798  1.0473  2.7173  1.1308
  909MOL0     H22671   5.460   7.665   7.653 -0.5781  2.7444 -1.6323
  909MOL0     H22672   5.463   7.803   7.743 -1.7415  0.2542  3.1886
  909MOL0     H22673   5.271   7.580   7.784 -0.6457  0.6792  0.1460
  909MOL0     H22674   5.250   7.732   7.690  0.5286  1.4372  1.4338
  909MOL0     H22675   5.048   7.611   7.785  2.2074 -2.7329  3.5625
  909MOL0     H22676   4.746   7.503   7.897 -1.4268  1.6777  2.0248
  909MOL0     H22677   4.694   7.646   7.802 -3.4815 -3.9928 -0.0535
  909MOL0     H22678   4.823   7.553   7.739  0.8691 -2.5698  1.2007
  909MOL0     H22679   4.679   7.887   8.390 -0.0859  0.3618 -0.0744
  909MOL0     H22680   4.495   7.934   8.531 -1.7483 -3.5443  0.8131
  909MOL0     H22681   4.093   8.046   8.340 -1.4881  2.7197 -0.5434
  909MOL0     H22682   4.096   8.120   8.506 -2.9927 -0.4495 -2.0338
  909MOL0     H22683   4.314   8.222   8.458  2.3737 -1.9606 -0.5401
  909MOL0     H22684   4.290   8.199   8.289  0.0952 -1.3027 -0.1103
  909MOL0     H22685   4.205   8.420   8.393  0.4516 -1.4936 -1.4685
  909MOL0     H22686   4.093   8.329   8.491 -0.2620 -0.7357 -0.2048
  909MOL0     H22687   4.100   8.333   8.186  3.4593 -1.5760  1.9851
  909MOL0     H22688   3.975   8.246   8.272 -0.2208  1.2982 -2.0813
  909MOL0     H22689   3.938   8.484   8.183  1.0397  0.6077  0.0268
  909MOL0     H22690   4.051   8.547   8.303  0.4773  1.3710 -1.9788
  909MOL0     H22691   3.779   8.420   8.370 -2.9026  3.5012 -2.1423
  909MOL0     H22692   3.888   8.500   8.486 -3.3215 -1.0054  0.7215
  909MOL0     H22693   3.739   8.628   8.250  0.3207  0.5196 -0.5413
  909MOL0     H22694   3.860   8.712   8.352 -0.6037  0.3817 -1.2943
  909MOL0     H22695   3.636   8.766   8.437  0.1896  1.5764  3.7944
  909MOL0     H22696   3.737   8.696   8.550 -1.5023 -0.7656  0.7498
  909MOL0     H22697   4.231   7.966   8.188  0.6906  1.4728  1.0655
  909MOL0     H22698   4.419   7.931   8.036  0.5139 -4.6968 -0.2470
  909MOL0     H22699   4.925   7.907   8.160 -1.4833  1.6105 -1.6574
  909MOL0     H22700   5.163   7.891   8.072  2.7479 -4.2184  0.8304
  909MOL0     H22701   6.915   8.298   7.922  1.2211  0.3295 -4.5197
  909MOL0     H22702   7.143   8.317   8.024  1.4950 -1.6869  2.4597
  909MOL0     H22703   7.561   8.167   8.059  0.3228  0.7128  0.5082
  909MOL0     H22704   7.785   8.198   8.168  2.8191 -3.7596  1.0080
  909MOL0     H22705   7.965   8.217   8.296 -6.5141 -1.3352 -1.9855
  909MOL0     H22706   7.917   8.343   8.416  0.6859  0.4585 -0.0294
  909MOL0     H22707   8.145   8.268   8.448  0.9254 -1.1933  0.9168
  909MOL0     H22708   8.098   8.096   8.449 -0.5492 -0.7998  3.5701
  909MOL0     H22709   7.951   8.141   8.647  0.2221 -1.1652  0.3840
  909MOL0     H22710   7.967   8.313   8.621  0.3821 -0.3088 -2.2955
  909MOL0     H22711   8.232   8.276   8.676  0.2617 -0.7854 -1.9389
  909MOL0     H22712   8.172   8.102   8.698 -0.1071 -0.0058 -1.4695
  909MOL0     H22713   8.046   8.318   9.045 -0.3921 -1.1398  0.1550
  909MOL0     H22714   7.610   8.134   8.556  0.6805  1.5592 -0.2660
  909MOL0     H22715   7.390   8.093   8.451  0.6206  4.2440  2.9846
  910MOL0     O22716   3.320   1.331   4.211  0.3464 -0.0564 -0.1115
  910MOL0     C22717   3.374   1.241   4.273  0.3844  0.1568 -0.2307
  910MOL0     O22718   3.321   1.121   4.299 -0.4698 -0.2432  0.4187
  910MOL0     C22719   3.187   1.105   4.265  0.1966  0.1943 -0.3536
  910MOL0     C22720   3.083   1.169   4.330 -0.4497 -0.9787 -0.0059
  910MOL0     C22721   2.950   1.136   4.318 -0.2744 -0.3960 -0.2963
  910MOL0     C22722   2.920   1.026   4.242  0.6872  0.6706  0.4325
  910MOL0     O22723   2.786   1.002   4.223  0.4028  0.5914 -0.0234
  910MOL0     C22724   2.731   1.062   4.107  0.0041 -0.0138 -0.6425
  910MOL0     C22725   2.584   1.005   4.091 -1.0926 -0.0570 -0.1321
  910MOL0     C22726   2.495   1.060   4.198  0.0508  0.3119 -0.0411
  910MOL0     C22727   2.357   1.000   4.187 -0.1624 -0.0874  0.4808
  910MOL0     C22728   2.269   1.046   4.304 -0.8282 -0.5379 -0.5238
  910MOL0     C22729   2.122   1.012   4.295 -0.1585 -0.2698 -0.5660
  910MOL0     C22730   2.065   1.046   4.424  0.2762 -0.4197  0.4705
  910MOL0     C22731   1.911   1.020   4.436 -0.2223 -0.4755 -0.0431
  910MOL0     N22732   1.830   1.040   4.313  0.1120 -0.2987 -0.4812
  910MOL0     C22733   1.808   1.151   4.232  0.3163  0.1413  0.8523
  910MOL0     C22734   1.766   1.110   4.103  0.2073  0.2499 -1.3988
  910MOL0     C22735   1.722   1.197   3.987  0.4082  0.1949 -0.2171
  910MOL0     C22736   1.680   1.106   3.876 -0.5116  0.0130 -0.5333
  910MOL0     C22737   1.530   1.066   3.890  0.7799 -0.0884  0.0314
  910MOL0     C22738   1.489   0.981   3.770 -0.4504  0.4256 -0.2396
  910MOL0     O22739   1.434   1.061   3.664 -0.1567 -0.2362 -1.0420
  910MOL0     C22740   1.303   1.095   3.662 -0.1110 -0.1992 -1.0074
  910MOL0     C22741   1.208   1.021   3.724 -0.5502 -0.7226  0.3122
  910MOL0     C22742   1.077   1.053   3.697  0.4769 -0.1230 -0.3037
  910MOL0     C22743   0.970   0.946   3.746 -0.0791 -1.6490  0.3669
  910MOL0     C22744   1.044   1.159   3.612  0.1924 -0.3825  0.1775
  910MOL0     C22745   0.904   1.206   3.585  0.1991  0.1861 -0.0158
  910MOL0     O22746   0.806   1.118   3.612  1.0948  0.3823  0.0934
  910MOL0     C22747   0.670   1.147   3.602 -0.9445 -0.1756  0.1313
  910MOL0     C22748   0.607   1.256   3.545  0.4046 -0.0518 -0.3869
  910MOL0     C22749   0.470   1.268   3.555 -0.2484  0.5269  0.8419
  910MOL0     C22750   0.390   1.180   3.618  0.0226  0.3987 -1.0514
  910MOL0     O22751   0.262   1.215   3.626  0.3916 -0.1409  0.5110
  910MOL0     C22752   0.169   1.115   3.641 -0.1982 -0.9397  0.6913
  910MOL0     C22753   0.047   1.185   3.689 -0.9675  0.5239 -0.1774
  910MOL0     C22754  -0.068   1.086   3.674  0.6901 -0.5696  0.9299
  910MOL0     C22755  -0.203   1.161   3.653 -0.3644 -0.2524  0.2001
  910MOL0     C22756  -0.301   1.063   3.587 -0.4187 -0.0846 -0.0703
  910MOL0     C22757  -0.434   1.133   3.538 -0.1882 -0.2832 -0.2677
  910MOL0     C22758  -0.549   1.039   3.497  0.9462  0.4494 -0.1844
  910MOL0     C22759  -0.620   0.990   3.620  0.0639 -0.7341 -0.3157
  910MOL0    Cl22760  -0.711   1.117   3.704  0.3444 -0.3493 -0.2861
  910MOL0     C22761   0.453   1.062   3.682 -0.0296 -0.7796  0.3867
  910MOL0     C22762   0.593   1.049   3.672  0.0559 -0.7892  0.1827
  910MOL0     O22763   0.889   1.316   3.537  0.6233 -0.4981 -0.2782
  910MOL0     C22764   1.147   1.243   3.561  0.3422  0.2793 -0.2358
  910MOL0     C22765   1.281   1.212   3.584 -0.1112 -0.0079 -0.8562
  910MOL0     N22766   1.757   0.970   4.114 -1.1496 -0.0283  0.5228
  910MOL0     N22767   1.787   0.936   4.229 -0.0497 -0.1147 -1.3332
  910MOL0     C22768   3.021   0.952   4.176  0.2222 -0.4135  0.4600
  910MOL0     C22769   3.151   0.997   4.182 -0.3668  0.9929  0.2049
  910MOL0     C22770   3.505   1.275   4.336  0.0459  0.4613 -0.3351
  910MOL0     C22771   3.551   1.222   4.461  0.3688 -0.5369 -0.1981
  910MOL0     C22772   3.670   1.263   4.520 -0.0925  0.2908  0.5782
  910MOL0     C22773   3.762   1.346   4.455  0.1921 -0.4220 -0.7410
  910MOL0     O22774   3.876   1.392   4.514  0.0984  0.5901  1.0265
  910MOL0     C22775   3.964   1.299   4.577 -0.4690 -0.1384 -0.2814
  910MOL0     C22776   4.047   1.383   4.667  0.4737  0.2087 -0.1045
  910MOL0     C22777   4.160   1.454   4.585 -0.7026  0.1285  0.0111
  910MOL0     C22778   4.241   1.552   4.671  0.6746  0.4865 -0.0836
  910MOL0     C22779   4.156   1.666   4.712  0.1447  0.1777 -0.1224
  910MOL0     C22780   4.082   1.757   4.754 -0.8390  0.7052  0.3371
  910MOL0     C22781   3.717   1.404   4.334 -0.0152  0.1791 -0.4064
  910MOL0     C22782   3.597   1.368   4.273  1.1153 -0.2159 -0.5522
  910MOL0     H22783   3.100   1.260   4.388  0.1429 -1.2394  0.2386
  910MOL0     H22784   2.862   1.187   4.357 -0.2415 -0.3951 -0.2215
  910MOL0     H22785   2.724   1.171   4.107  0.8158  0.0529  0.6755
  910MOL0     H22786   2.794   1.036   4.021 -0.1582 -2.4028 -0.1164
  910MOL0     H22787   2.550   1.018   3.988 -0.5852  1.2860 -0.1553
  910MOL0     H22788   2.585   0.897   4.102  1.8060  0.0827  1.9267
  910MOL0     H22789   2.541   1.029   4.293 -0.3872 -1.0960 -0.2629
  910MOL0     H22790   2.495   1.169   4.189  0.0624  0.3408  0.2756
  910MOL0     H22791   2.310   1.040   4.096  0.0968  1.6485  1.0744
  910MOL0     H22792   2.367   0.891   4.177 -1.1930 -0.1594  0.0998
  910MOL0     H22793   2.311   0.996   4.392  0.5651  0.3602 -0.6536
  910MOL0     H22794   2.279   1.152   4.328  0.2362 -0.9717  1.1729
  910MOL0     H22795   2.082   1.062   4.206 -1.0762 -2.7642 -1.6639
  910MOL0     H22796   2.122   0.904   4.276  1.4321  0.1166 -3.2193
  910MOL0     H22797   2.125   0.990   4.496 -1.0530 -1.4845  0.7999
  910MOL0     H22798   2.082   1.152   4.445 -1.2271 -0.7150  3.9470
  910MOL0     H22799   1.868   1.075   4.520  2.9339  2.5619 -0.1982
  910MOL0     H22800   1.907   0.912   4.455  0.5516 -0.5313 -0.1621
  910MOL0     H22801   1.813   1.256   4.258 -0.6414 -0.2622  2.8474
  910MOL0     H22802   1.632   1.252   4.016 -1.9128 -3.0476 -0.7656
  910MOL0     H22803   1.805   1.259   3.950  0.7801 -0.5522 -0.6613
  910MOL0     H22804   1.742   1.016   3.875  1.2112  1.1578  0.0467
  910MOL0     H22805   1.697   1.161   3.782 -0.4371  0.2727 -0.3685
  910MOL0     H22806   1.461   1.150   3.880 -0.3795 -1.1949 -1.8786
  910MOL0     H22807   1.517   1.005   3.980 -0.4494 -0.8860 -0.6619
  910MOL0     H22808   1.424   0.897   3.795 -0.6727  0.2604 -1.3191
  910MOL0     H22809   1.580   0.932   3.733 -1.7665 -0.3690 -2.6403
  910MOL0     H22810   1.225   0.937   3.790 -0.3767 -1.7650 -1.0200
  910MOL0     H22811   1.025   0.876   3.809  0.1110 -0.9264  1.0064
  910MOL0     H22812   0.882   0.981   3.801  0.8021  0.2507  0.6460
  910MOL0     H22813   0.940   0.895   3.653 -0.1191  1.7038 -1.6268
  910MOL0     H22814   0.657   1.325   3.478 -0.0642 -0.1138 -0.8095
  910MOL0     H22815   0.426   1.350   3.500 -1.7483 -1.4554 -1.1058
  910MOL0     H22816   0.152   1.081   3.539 -1.8157  3.8988 -0.9250
  910MOL0     H22817   0.195   1.042   3.718  0.1225 -0.4200  1.0874
  910MOL0     H22818   0.063   1.232   3.787 -0.7798 -1.3796  0.7575
  910MOL0     H22819   0.033   1.262   3.614  0.8362  0.6546 -0.4326
  910MOL0     H22820  -0.073   1.026   3.766  1.2711  0.1130  1.4214
  910MOL0     H22821  -0.046   1.015   3.594  0.1375 -1.6432  1.7104
  910MOL0     H22822  -0.242   1.201   3.746  0.1483 -2.4116  1.4256
  910MOL0     H22823  -0.176   1.246   3.590  1.6625 -0.1504  1.1365
  910MOL0     H22824  -0.319   0.973   3.646 -0.1968 -1.6632 -2.2684
  910MOL0     H22825  -0.251   1.029   3.495  1.0461  1.3983  0.1330
  910MOL0     H22826  -0.465   1.199   3.619  2.0795 -0.9277  1.2168
  910MOL0     H22827  -0.413   1.204   3.456  0.8072 -0.1710  0.0711
  910MOL0     H22828  -0.490   0.962   3.447  0.1260  0.5538 -1.3361
  910MOL0     H22829  -0.615   1.076   3.418 -0.3028  1.4943  1.2865
  910MOL0     H22830  -0.549   0.954   3.695  2.4080  3.7683  0.0004
  910MOL0     H22831  -0.686   0.906   3.601 -0.9811  0.0217 -0.1424
  910MOL0     H22832   0.393   0.988   3.735  0.0388 -1.5126 -0.5311
  910MOL0     H22833   0.646   0.968   3.719  1.1632  0.1037  0.5224
  910MOL0     H22834   1.122   1.325   3.496  0.5711 -2.2664 -3.7932
  910MOL0     H22835   1.365   1.270   3.547 -0.3045 -0.0151 -1.3169
  910MOL0     H22836   2.998   0.871   4.107  0.6744  0.0981 -0.3114
  910MOL0     H22837   3.228   0.941   4.132  0.1472 -0.2068  2.2504
  910MOL0     H22838   3.480   1.156   4.510  0.1921  0.2462  0.6420
  910MOL0     H22839   3.695   1.224   4.618 -2.4118  0.6627  1.3632
  910MOL0     H22840   3.917   1.221   4.637 -1.0563  0.0200 -0.5172
  910MOL0     H22841   4.024   1.254   4.498 -1.1378  0.7157 -1.3123
  910MOL0     H22842   4.091   1.327   4.751 -0.2365  1.7146  1.3353
  910MOL0     H22843   3.977   1.453   4.712  0.4900  0.4751 -0.4973
  910MOL0     H22844   4.114   1.518   4.509 -2.2389 -0.1452  0.6849
  910MOL0     H22845   4.229   1.378   4.546  0.6532  0.7527  1.0980
  910MOL0     H22846   4.326   1.584   4.611  1.5389 -3.8510 -1.5505
  910MOL0     H22847   4.283   1.498   4.756  2.5045  3.1965  0.8443
  910MOL0     H22848   4.029   1.847   4.778 -0.0155  1.2377  0.2371
  910MOL0     H22849   3.778   1.487   4.301 -0.5882  1.6129  1.9614
  910MOL0     H22850   3.553   1.425   4.192  0.2597 -1.6641 -1.1337
  911MOL0     O22851   9.470   5.654   8.983 -0.3377  0.6216 -0.1119
  911MOL0     C22852   9.524   5.545   8.958 -0.6366 -0.2181 -0.5536
  911MOL0     O22853   9.635   5.499   9.017  0.0999 -0.7523 -0.5723
  911MOL0     C22854   9.709   5.583   9.103 -0.0753 -0.3886 -0.9623
  911MOL0     C22855   9.729   5.720   9.076 -0.7263  0.1904  0.0350
  911MOL0     C22856   9.815   5.784   9.163  0.2370  0.1592  0.8397
  911MOL0     C22857   9.862   5.735   9.279  0.3215  0.0654  0.3635
  911MOL0     O22858   9.939   5.800   9.363 -0.3760 -0.1451  1.1114
  911MOL0     C22859  10.017   5.910   9.319  0.5830 -0.5371 -0.1855
  911MOL0     C22860  10.127   5.928   9.415  0.1129  0.4922 -0.5784
  911MOL0     C22861  10.193   6.068   9.391  0.1892 -1.1452  0.7583
  911MOL0     C22862  10.320   6.091   9.471  0.0477 -0.0138 -0.0705
  911MOL0     C22863  10.391   6.219   9.439  0.4469 -0.4529  0.3061
  911MOL0     C22864  10.529   6.239   9.516  0.0384 -0.2884  0.3613
  911MOL0     C22865  10.518   6.214   9.667 -0.7074 -0.9160 -0.5325
  911MOL0     C22866  10.651   6.203   9.741  0.0791  0.3456 -0.5192
  911MOL0     N22867  10.636   6.171   9.890  0.0594 -1.0949  0.7070
  911MOL0     C22868  10.726   6.204   9.988 -0.0285 -0.0692  0.3683
  911MOL0     C22869  10.677   6.137  10.097  0.2277  0.5254  0.4935
  911MOL0     C22870  10.753   6.119  10.227  0.1542  0.3066 -0.3579
  911MOL0     C22871  10.777   6.258  10.285 -0.1459  0.4746  0.2184
  911MOL0     C22872  10.865   6.243  10.412  0.0668  0.0477  0.0654
  911MOL0     C22873  10.944   6.367  10.447  0.0477  0.0419  0.3756
  911MOL0     O22874  11.033   6.404  10.340  0.0723 -0.5323  0.3500
  911MOL0     C22875  10.995   6.489  10.237  0.9185  0.1971 -0.2007
  911MOL0     C22876  11.081   6.496  10.129 -0.4101 -1.2005  0.9982
  911MOL0     C22877  11.054   6.576  10.013  0.3664 -0.8632 -0.3518
  911MOL0     C22878  11.162   6.577   9.903  0.6970  0.4172  0.5325
  911MOL0     C22879  10.938   6.666  10.017 -0.3400  0.1983 -0.5202
  911MOL0     C22880  10.879   6.734   9.897  0.7784  0.4343  0.1629
  911MOL0     O22881  10.778   6.836   9.916  0.2422  0.4455  0.1796
  911MOL0     C22882  10.682   6.877   9.823 -0.4895  0.6581 -0.6076
  911MOL0     C22883  10.712   6.921   9.700 -0.3374 -0.4273  0.5932
  911MOL0     C22884  10.606   6.972   9.620 -0.9229  0.1821 -0.2929
  911MOL0     C22885  10.472   6.977   9.674  0.4121 -0.9601  0.4750
  911MOL0     O22886  10.365   7.006   9.598  0.8755 -0.9791  0.2213
  911MOL0     C22887  10.368   7.083   9.479 -0.4213  0.3216  0.4955
  911MOL0     C22888  10.231   7.150   9.448 -1.1574 -0.6898  0.5907
  911MOL0     C22889  10.123   7.046   9.430  0.0775  0.1815  0.2975
  911MOL0     C22890   9.981   7.111   9.443 -0.3407 -0.1175 -0.3836
  911MOL0     C22891   9.870   7.010   9.401  0.1198 -0.5481  0.1731
  911MOL0     C22892   9.732   7.094   9.396 -0.2345 -0.8247  0.4130
  911MOL0     C22893   9.708   7.147   9.251 -0.1185  1.0923  0.1052
  911MOL0     C22894   9.630   7.275   9.269  0.3098 -0.0518 -0.0917
  911MOL0    Cl22895   9.470   7.249   9.357  0.0978  0.1401  0.3648
  911MOL0     C22896  10.448   6.932   9.805 -0.3434  0.2601 -0.3901
  911MOL0     C22897  10.554   6.889   9.883 -0.0289 -0.0149  0.6178
  911MOL0     O22898  10.909   6.690   9.785  0.3116  0.4542 -0.3765
  911MOL0     C22899  10.860   6.666  10.138 -0.6284  0.4537 -0.0731
  911MOL0     C22900  10.880   6.569  10.237  0.1863  0.0423  0.4607
  911MOL0     N22901  10.556   6.083  10.065  0.4626 -0.2670  0.4213
  911MOL0     N22902  10.541   6.102   9.942 -0.1009 -0.0157 -0.7538
  911MOL0     C22903   9.835   5.605   9.315  0.2425 -0.2164  0.1641
  911MOL0     C22904   9.754   5.524   9.225 -0.6255  0.0492 -0.2149
  911MOL0     C22905   9.456   5.451   8.870  0.6267 -0.4046  0.7329
  911MOL0     C22906   9.503   5.323   8.853 -0.3982 -0.0209  0.1570
  911MOL0     C22907   9.440   5.238   8.765  1.3067 -0.2740 -0.4301
  911MOL0     C22908   9.327   5.279   8.687 -0.5737 -0.7311  0.8538
  911MOL0     O22909   9.252   5.186   8.620  0.7847 -0.5161  0.8689
  911MOL0     C22910   9.139   5.245   8.554  0.4761  0.7420  0.4175
  911MOL0     C22911   9.047   5.131   8.500 -0.2595 -0.2811  0.1281
  911MOL0     C22912   9.025   5.004   8.586 -0.8785 -0.2861  0.1902
  911MOL0     C22913   8.899   4.929   8.550  0.3302 -0.1628  0.0292
  911MOL0     C22914   8.899   4.799   8.618 -0.1758 -0.4286 -0.5276
  911MOL0     C22915   8.897   4.698   8.685  0.0934 -0.6066 -0.0173
  911MOL0     C22916   9.289   5.419   8.702  0.1804  0.1083  0.5295
  911MOL0     C22917   9.351   5.497   8.789 -0.3758 -0.8492 -0.4251
  911MOL0     H22918   9.701   5.766   8.982  2.1361  1.5742 -0.2642
  911MOL0     H22919   9.825   5.891   9.145 -1.3015  0.1089 -0.5701
  911MOL0     H22920  10.055   5.885   9.219 -1.7680 -0.1238 -1.2642
  911MOL0     H22921   9.959   6.003   9.321  4.0725  1.8130  1.4124
  911MOL0     H22922  10.096   5.926   9.520  3.3751 -0.3624  0.4966
  911MOL0     H22923  10.196   5.845   9.399 -1.3910 -0.9105 -0.1359
  911MOL0     H22924  10.224   6.065   9.286  1.6232 -0.7564  1.1582
  911MOL0     H22925  10.124   6.153   9.401 -0.4935 -0.9143 -3.6863
  911MOL0     H22926  10.282   6.078   9.572 -3.2219  1.5611 -0.9476
  911MOL0     H22927  10.402   6.021   9.454  2.0548  2.2519 -0.2136
  911MOL0     H22928  10.399   6.211   9.331 -4.5250 -3.7031 -0.1270
  911MOL0     H22929  10.325   6.306   9.440  2.3965  1.2229 -2.0239
  911MOL0     H22930  10.599   6.163   9.480 -1.3322 -1.0032 -0.9092
  911MOL0     H22931  10.561   6.342   9.497  0.0870 -0.8297 -2.9852
  911MOL0     H22932  10.465   6.297   9.715  1.2620  0.2658 -0.2989
  911MOL0     H22933  10.462   6.122   9.688  1.8852 -2.6164 -0.6166
  911MOL0     H22934  10.710   6.295   9.736  0.0431  0.4702  1.1139
  911MOL0     H22935  10.704   6.117   9.699  1.5556 -0.2908  2.4011
  911MOL0     H22936  10.826   6.244   9.978  0.8724 -1.1346  3.7636
  911MOL0     H22937  10.696   6.059  10.299  2.9821 -2.5148 -0.2192
  911MOL0     H22938  10.842   6.057  10.208  0.3552  0.9908 -1.7554
  911MOL0     H22939  10.679   6.298  10.310 -0.2653  1.9416 -2.2177
  911MOL0     H22940  10.830   6.318  10.209 -1.4214 -0.4788 -1.4967
  911MOL0     H22941  10.937   6.164  10.391 -0.6768 -0.6498  0.0702
  911MOL0     H22942  10.804   6.216  10.499  2.0620  0.3414  1.6235
  911MOL0     H22943  10.998   6.340  10.539 -1.9805  0.2664  1.7078
  911MOL0     H22944  10.874   6.444  10.481  0.3149  0.3115  0.3213
  911MOL0     H22945  11.171   6.435  10.119  0.6567  0.5545 -1.0244
  911MOL0     H22946  11.251   6.519   9.931  2.2295  2.3118 -0.2472
  911MOL0     H22947  11.122   6.543   9.807 -0.8310 -1.1099  1.6599
  911MOL0     H22948  11.199   6.680   9.899 -1.4528  1.4114  3.0470
  911MOL0     H22949  10.812   6.935   9.660 -1.6163 -0.5405 -3.0286
  911MOL0     H22950  10.616   7.002   9.516 -2.1234  0.0708 -0.4552
  911MOL0     H22951  10.446   7.157   9.500 -1.1347  1.4119 -0.6118
  911MOL0     H22952  10.400   7.035   9.387 -0.1046  0.9699  0.2591
  911MOL0     H22953  10.203   7.218   9.529 -0.1207  1.3412 -0.6714
  911MOL0     H22954  10.229   7.220   9.364 -1.4998  1.0629  2.0064
  911MOL0     H22955  10.143   6.980   9.515 -1.1647  1.0436  1.2989
  911MOL0     H22956  10.139   6.992   9.336 -1.6198  1.4424 -0.7793
  911MOL0     H22957   9.957   7.148   9.542 -2.0704  0.9861 -1.1765
  911MOL0     H22958   9.989   7.194   9.372 -0.7530 -0.5380 -0.9372
  911MOL0     H22959   9.873   6.933   9.479  2.7590  1.1779  1.9297
  911MOL0     H22960   9.892   6.968   9.302  0.0906  0.4641 -0.2659
  911MOL0     H22961   9.649   7.025   9.416  0.5189 -2.6019 -2.0694
  911MOL0     H22962   9.727   7.177   9.467  0.8606 -1.0455  0.7735
  911MOL0     H22963   9.647   7.068   9.206 -1.1049  2.8331 -1.7621
  911MOL0     H22964   9.798   7.160   9.189 -0.8567  1.7204 -0.8489
  911MOL0     H22965   9.598   7.306   9.169 -0.6019  1.2039  0.5615
  911MOL0     H22966   9.695   7.347   9.320  1.5113 -2.7287  2.4512
  911MOL0     H22967  10.349   6.920   9.848  0.2766  0.1430  1.0714
  911MOL0     H22968  10.539   6.858   9.986  2.3955  0.3226  1.1427
  911MOL0     H22969  10.776   6.734  10.147 -2.1636 -1.0192 -2.3382
  911MOL0     H22970  10.807   6.571  10.317 -1.1608  1.5726 -0.7237
  911MOL0     H22971   9.873   5.561   9.407 -0.5029 -0.0179  0.5771
  911MOL0     H22972   9.730   5.420   9.244 -3.0450  0.1272 -2.3424
  911MOL0     H22973   9.585   5.287   8.915 -1.4488  0.2251  1.7272
  911MOL0     H22974   9.461   5.132   8.755 -0.5936 -0.9907  2.0737
  911MOL0     H22975   9.073   5.302   8.620  1.3277  2.8381 -0.4489
  911MOL0     H22976   9.159   5.309   8.468 -0.6503  0.2717 -0.2147
  911MOL0     H22977   9.073   5.099   8.398 -0.1097 -1.3585  0.4898
  911MOL0     H22978   8.947   5.171   8.484 -0.0576  0.2880  0.2720
  911MOL0     H22979   9.043   5.025   8.692  5.2933  0.7962 -0.6767
  911MOL0     H22980   9.114   4.947   8.558 -0.5143  0.3495  0.0468
  911MOL0     H22981   8.873   4.918   8.444  0.5859 -1.8098  0.1016
  911MOL0     H22982   8.816   4.979   8.599  1.0721  2.5039 -1.2408
  911MOL0     H22983   8.875   4.615   8.750 -0.0029  0.7767  1.7935
  911MOL0     H22984   9.214   5.472   8.644  1.1675  1.8242  0.7448
  911MOL0     H22985   9.319   5.598   8.813  0.4458 -0.3993 -1.1647
  912MOL0     O22986   1.389   4.649   5.356  0.1246  0.1518  0.1600
  912MOL0     C22987   1.468   4.560   5.377  0.1147  0.1557 -0.2429
  912MOL0     O22988   1.438   4.446   5.442  0.4531 -0.2755 -0.1835
  912MOL0     C22989   1.316   4.441   5.504 -0.3960 -0.0250  0.1154
  912MOL0     C22990   1.311   4.415   5.643  0.3475  0.0080 -0.0486
  912MOL0     C22991   1.193   4.420   5.714  0.1756  0.1133  0.6504
  912MOL0     C22992   1.071   4.450   5.655  0.1164 -0.8959 -0.3880
  912MOL0     O22993   0.941   4.441   5.708 -0.1976  0.2392  0.1817
  912MOL0     C22994   0.919   4.439   5.854  0.2560 -0.0499 -0.2363
  912MOL0     C22995   0.769   4.434   5.888 -0.3953  0.4970  1.5604
  912MOL0     C22996   0.722   4.296   5.884  0.5563 -0.1589  0.0049
  912MOL0     C22997   0.566   4.309   5.902 -0.1806  0.4914  0.1947
  912MOL0     C22998   0.491   4.173   5.920 -0.5119  1.6319 -0.0805
  912MOL0     C22999   0.340   4.190   5.915 -0.2454 -0.0111 -0.4520
  912MOL0     C23000   0.275   4.062   5.969 -1.1420 -0.0119  0.3326
  912MOL0     C23001   0.232   3.979   5.849 -0.8153 -1.1025 -0.5336
  912MOL0     N23002   0.159   3.860   5.889  0.7167  0.5446 -0.2647
  912MOL0     C23003   0.064   3.802   5.819 -0.1143  0.1717 -0.7579
  912MOL0     C23004   0.034   3.683   5.876  0.2805 -1.1910  0.1048
  912MOL0     C23005  -0.086   3.601   5.849  0.3398 -0.4694  0.3796
  912MOL0     C23006  -0.207   3.641   5.936 -0.2594 -0.2401 -0.5489
  912MOL0     C23007  -0.207   3.602   6.083  0.7259  0.4124 -0.0629
  912MOL0     C23008  -0.287   3.715   6.156 -0.4021  0.9408 -0.7482
  912MOL0     O23009  -0.425   3.691   6.125  0.4840  0.0234  0.2802
  912MOL0     C23010  -0.511   3.804   6.114  0.3655 -0.5512 -0.5836
  912MOL0     C23011  -0.497   3.917   6.194 -0.3893  0.0897 -0.6004
  912MOL0     C23012  -0.591   4.029   6.177 -0.5818 -0.7896  0.2454
  912MOL0     C23013  -0.592   4.148   6.268 -0.0203 -0.8052 -0.1322
  912MOL0     C23014  -0.699   4.016   6.086 -0.6907  0.2158 -0.1604
  912MOL0     C23015  -0.809   4.122   6.075  0.0789  1.3829  0.7357
  912MOL0     O23016  -0.926   4.062   6.054  0.0223  0.2819  0.4501
  912MOL0     C23017  -1.049   4.131   6.035  0.1658 -0.5209  0.7858
  912MOL0     C23018  -1.067   4.271   6.053  0.2546  0.0707 -0.0951
  912MOL0     C23019  -1.194   4.330   6.061 -0.3610 -0.0637 -0.6552
  912MOL0     C23020  -1.305   4.251   6.042  0.1413  0.1956  0.4993
  912MOL0     O23021  -1.422   4.325   6.056  0.1322 -0.2925  0.0826
  912MOL0     C23022  -1.503   4.304   5.943  0.2470  0.0425 -0.1337
  912MOL0     C23023  -1.612   4.418   5.926  0.2970 -0.0357 -0.2506
  912MOL0     C23024  -1.730   4.399   6.027  0.0318  0.1928  0.0246
  912MOL0     C23025  -1.825   4.511   6.008 -0.2651  0.7604  0.6015
  912MOL0     C23026  -1.964   4.492   6.073 -0.5995 -0.3395 -0.4761
  912MOL0     C23027  -2.051   4.622   6.043  0.4019  0.6052 -0.2490
  912MOL0     C23028  -2.191   4.602   6.104 -0.0381  0.7553 -0.6733
  912MOL0     C23029  -2.283   4.724   6.072 -0.6717 -0.7725  0.2807
  912MOL0    Cl23030  -2.454   4.690   6.104 -0.4165  0.0086  0.3037
  912MOL0     C23031  -1.293   4.113   6.010  0.3988  0.6861  0.6951
  912MOL0     C23032  -1.163   4.051   6.006 -0.3112  0.7882  0.0957
  912MOL0     O23033  -0.782   4.245   6.075 -0.4232  0.5275 -0.8415
  912MOL0     C23034  -0.706   3.901   6.012 -0.0944 -0.1768  0.6842
  912MOL0     C23035  -0.607   3.802   6.012 -0.6683 -0.3620 -0.3589
  912MOL0     N23036   0.096   3.676   5.997  0.5185  0.6741 -0.3864
  912MOL0     N23037   0.165   3.790   6.005 -0.1595  0.6199 -0.1148
  912MOL0     C23038   1.075   4.484   5.523  0.3598  0.0419 -0.3190
  912MOL0     C23039   1.189   4.476   5.442 -0.1789 -0.2225 -1.0912
  912MOL0     C23040   1.607   4.590   5.324 -0.4678 -0.0308 -0.4975
  912MOL0     C23041   1.714   4.493   5.320 -0.3198 -0.0530  0.1470
  912MOL0     C23042   1.835   4.538   5.257  0.3994  0.2618 -1.1028
  912MOL0     C23043   1.855   4.659   5.206 -0.4317 -0.1223  0.2772
  912MOL0     O23044   1.984   4.684   5.148 -0.1731  0.5205  0.1499
  912MOL0     C23045   2.013   4.807   5.090 -0.1490  0.4109 -0.7409
  912MOL0     C23046   2.153   4.787   5.044 -0.2018  0.2649  0.4406
  912MOL0     C23047   2.170   4.714   4.914  0.3006  0.1464  0.1017
  912MOL0     C23048   2.315   4.708   4.873 -0.6270  0.2506 -0.3116
  912MOL0     C23049   2.325   4.648   4.745  0.3402 -0.6443  0.7537
  912MOL0     C23050   2.331   4.599   4.635 -0.1718  0.2773 -0.9906
  912MOL0     C23051   1.743   4.750   5.205 -0.4027  0.1876 -0.3283
  912MOL0     C23052   1.626   4.723   5.273  0.4859 -0.0485 -0.4760
  912MOL0     H23053   1.404   4.373   5.680  1.2524  0.6216 -1.5247
  912MOL0     H23054   1.189   4.380   5.815 -2.2402  1.3465  1.1212
  912MOL0     H23055   0.973   4.353   5.896  0.6826  1.4094  2.3854
  912MOL0     H23056   0.965   4.525   5.902 -0.0442 -0.6681  1.2157
  912MOL0     H23057   0.758   4.476   5.989  1.2030 -0.7832  2.2988
  912MOL0     H23058   0.714   4.487   5.809  0.0235  0.1146  1.0123
  912MOL0     H23059   0.753   4.244   5.793  1.1610 -1.2850  0.8329
  912MOL0     H23060   0.766   4.249   5.972 -1.9585  1.4822  2.2901
  912MOL0     H23061   0.544   4.371   5.990  4.3775  0.2336  1.8213
  912MOL0     H23062   0.513   4.361   5.821 -2.8973 -0.6290  1.1286
  912MOL0     H23063   0.513   4.117   5.828 -1.7340  3.0807 -1.2995
  912MOL0     H23064   0.528   4.118   6.007 -1.5689  0.3515 -0.4090
  912MOL0     H23065   0.309   4.279   5.971  0.3444 -0.1989  0.1833
  912MOL0     H23066   0.305   4.216   5.814  3.3484  2.7951 -1.1729
  912MOL0     H23067   0.350   4.004   6.025  1.8386 -0.5500 -3.7224
  912MOL0     H23068   0.190   4.076   6.035 -1.2865 -0.1395  0.1768
  912MOL0     H23069   0.310   3.942   5.782 -0.4898 -0.8800 -0.2836
  912MOL0     H23070   0.181   4.039   5.774 -0.7644 -1.2071 -0.6513
  912MOL0     H23071   0.027   3.846   5.728  0.9796  1.7234 -0.4805
  912MOL0     H23072  -0.114   3.595   5.743 -0.4949  0.9597  0.4998
  912MOL0     H23073  -0.052   3.501   5.877  0.0236 -0.9731 -0.9601
  912MOL0     H23074  -0.285   3.581   5.888 -0.4211  1.7046 -2.8860
  912MOL0     H23075  -0.232   3.746   5.919 -0.9818 -0.1933  0.6730
  912MOL0     H23076  -0.102   3.596   6.114  0.3987 -3.3417  0.8556
  912MOL0     H23077  -0.249   3.502   6.100  1.8985 -0.1126 -0.1372
  912MOL0     H23078  -0.252   3.811   6.118  0.8109  1.6413  1.8799
  912MOL0     H23079  -0.270   3.715   6.264 -1.0001  0.0673 -0.6372
  912MOL0     H23080  -0.429   3.936   6.277  0.2897 -0.1990 -1.0816
  912MOL0     H23081  -0.685   4.136   6.324 -0.2904 -1.6224 -0.7182
  912MOL0     H23082  -0.510   4.142   6.340  1.2737  1.8407 -1.2778
  912MOL0     H23083  -0.583   4.242   6.214  0.4051 -0.2763  0.8380
  912MOL0     H23084  -0.987   4.342   6.072 -0.0532  0.8120 -1.4399
  912MOL0     H23085  -1.191   4.437   6.081  1.8499 -0.6647  3.3489
  912MOL0     H23086  -1.444   4.308   5.852 -0.6525  4.0396 -0.7187
  912MOL0     H23087  -1.557   4.208   5.937 -1.2248  0.9270 -1.7694
  912MOL0     H23088  -1.575   4.522   5.926 -3.1280  1.3112  0.1146
  912MOL0     H23089  -1.662   4.407   5.829 -2.0063  0.1180  0.8472
  912MOL0     H23090  -1.689   4.397   6.128 -0.9971 -0.5611  0.4421
  912MOL0     H23091  -1.785   4.305   6.023 -0.0082  0.1614  1.0530
  912MOL0     H23092  -1.766   4.595   6.046  1.6486  0.1755 -0.9345
  912MOL0     H23093  -1.828   4.528   5.900  1.5758  0.8823  0.5290
  912MOL0     H23094  -1.969   4.467   6.180 -1.9732  0.0095 -0.4338
  912MOL0     H23095  -2.005   4.404   6.023  1.2040 -1.4720 -0.0335
  912MOL0     H23096  -2.003   4.705   6.096 -0.6277 -0.3991  2.4182
  912MOL0     H23097  -2.058   4.642   5.935  1.3407  0.6795 -0.3053
  912MOL0     H23098  -2.174   4.601   6.212  2.0942  2.1159 -0.9418
  912MOL0     H23099  -2.244   4.512   6.072 -0.2546  1.2428 -1.7268
  912MOL0     H23100  -2.264   4.758   5.970  0.9812 -1.6747  0.2448
  912MOL0     H23101  -2.244   4.808   6.130 -2.1644  0.7485 -0.8163
  912MOL0     H23102  -1.387   4.059   6.005 -0.1391  1.5030  1.6423
  912MOL0     H23103  -1.153   3.944   5.992 -3.2606  0.6465 -1.6613
  912MOL0     H23104  -0.782   3.894   5.935 -1.4394  2.5484  1.6576
  912MOL0     H23105  -0.625   3.708   5.960 -1.1041 -0.7331  0.4410
  912MOL0     H23106   0.980   4.511   5.479 -0.8550  0.0128  2.0860
  912MOL0     H23107   1.188   4.491   5.335 -3.5477  0.8010 -1.0287
  912MOL0     H23108   1.699   4.388   5.347 -1.3152  0.8960  3.8075
  912MOL0     H23109   1.908   4.460   5.239  0.5245  0.4207 -1.2861
  912MOL0     H23110   1.945   4.832   5.008  0.6352  0.6624 -1.3170
  912MOL0     H23111   2.007   4.879   5.172 -0.0793 -2.4629  1.9657
  912MOL0     H23112   2.218   4.739   5.118  1.2317 -0.6452 -1.3300
  912MOL0     H23113   2.187   4.888   5.019  3.5441 -0.6082  1.3876
  912MOL0     H23114   2.120   4.766   4.832  2.8457  0.6301 -1.2626
  912MOL0     H23115   2.130   4.613   4.918 -1.0843  0.5492 -2.1540
  912MOL0     H23116   2.383   4.654   4.940 -0.4520  1.5380  0.5851
  912MOL0     H23117   2.349   4.812   4.862  1.0835  0.0325  2.0120
  912MOL0     H23118   2.315   4.552   4.541  1.1654  0.5077 -1.3462
  912MOL0     H23119   1.749   4.844   5.150 -0.5771 -1.5971 -3.6594
  912MOL0     H23120   1.550   4.800   5.280 -0.6328 -1.1352 -0.4297
  913MOL0     O23121   1.100  10.518  11.231 -0.2752 -0.2675 -0.0161
  913MOL0     C23122   1.120  10.626  11.276 -0.6965 -0.4301 -0.3000
  913MOL0     O23123   1.234  10.704  11.254 -0.1198 -0.4653 -0.3335
  913MOL0     C23124   1.354  10.670  11.187  0.8542  0.6286 -0.0069
  913MOL0     C23125   1.440  10.767  11.140  0.1925  0.1348  0.3456
  913MOL0     C23126   1.545  10.733  11.059 -0.0647  0.6908 -0.0346
  913MOL0     C23127   1.573  10.594  11.023  0.0108 -0.4601  0.2632
  913MOL0     O23128   1.682  10.570  10.945  0.2530  0.0172 -0.0745
  913MOL0     C23129   1.690  10.442  10.873 -0.0322  0.2241 -0.5400
  913MOL0     C23130   1.608  10.439  10.752  0.4570 -0.1340  0.4809
  913MOL0     C23131   1.611  10.308  10.679 -0.6572  0.4144 -0.1341
  913MOL0     C23132   1.544  10.330  10.553  0.0998  0.3787  0.1501
  913MOL0     C23133   1.531  10.200  10.468  0.0565 -0.3096  1.0895
  913MOL0     C23134   1.545  10.229  10.316 -0.5030  0.2891 -1.0450
  913MOL0     C23135   1.444  10.331  10.264  0.2319 -0.4053  0.1717
  913MOL0     C23136   1.457  10.364  10.113  0.0797  0.4782  0.9825
  913MOL0     N23137   1.442  10.240  10.031  0.2254  0.3538 -0.1883
  913MOL0     C23138   1.327  10.183   9.989  0.4636  0.6002  0.2551
  913MOL0     C23139   1.359  10.095   9.889  0.1443 -0.2133  0.5103
  913MOL0     C23140   1.258  10.018   9.804  0.1429 -0.0186  0.5226
  913MOL0     C23141   1.167  10.102   9.728  0.0774 -0.4552 -0.8583
  913MOL0     C23142   1.047  10.133   9.810 -0.1491 -0.3781 -0.0179
  913MOL0     C23143   0.922  10.137   9.714 -0.7836  0.6211  0.5892
  913MOL0     O23144   0.811  10.185   9.793  0.3661 -0.9850  0.7542
  913MOL0     C23145   0.696  10.193   9.715  0.3843 -0.4284 -0.0438
  913MOL0     C23146   0.612  10.082   9.687  0.2554 -0.8230 -0.9733
  913MOL0     C23147   0.491  10.093   9.611  0.2005  0.0659  0.2468
  913MOL0     C23148   0.407   9.965   9.599  0.1550  1.1636 -0.4024
  913MOL0     C23149   0.453  10.219   9.559  0.3649  0.4051  0.5852
  913MOL0     C23150   0.339  10.232   9.469 -0.0350  0.9645 -0.3929
  913MOL0     O23151   0.278  10.351   9.484  0.0250  0.8602 -0.1950
  913MOL0     C23152   0.158  10.374   9.417 -0.6991  0.0323  0.4303
  913MOL0     C23153   0.057  10.452   9.475 -0.4072  0.6615  0.4236
  913MOL0     C23154  -0.061  10.477   9.404  0.4590  0.6872  0.0451
  913MOL0     C23155  -0.063  10.453   9.265  0.7010  0.2625 -0.2426
  913MOL0     O23156  -0.182  10.473   9.194  0.2900 -0.1767  0.0049
  913MOL0     C23157  -0.179  10.477   9.050 -0.2896 -0.2941 -0.4563
  913MOL0     C23158  -0.316  10.495   8.982  0.0566 -0.7227 -0.6498
  913MOL0     C23159  -0.323  10.568   8.851 -0.3219  0.8597  0.0842
  913MOL0     C23160  -0.470  10.565   8.791  0.0753 -0.0320 -0.3299
  913MOL0     C23161  -0.539  10.429   8.769 -0.5100 -0.4680  0.7936
  913MOL0     C23162  -0.471  10.350   8.660 -0.5768 -0.9330  0.0227
  913MOL0     C23163  -0.546  10.214   8.641 -0.6470 -0.1298  0.5622
  913MOL0     C23164  -0.447  10.110   8.576  0.0587  0.7394 -0.1705
  913MOL0    Cl23165  -0.356  10.019   8.717 -0.2199 -0.0123  0.4583
  913MOL0     C23166   0.036  10.380   9.206  0.5952 -0.6612  0.0346
  913MOL0     C23167   0.148  10.347   9.278  0.4224 -0.3484  0.4130
  913MOL0     O23168   0.317  10.145   9.386 -0.2843  0.3275  0.6508
  913MOL0     C23169   0.531  10.333   9.595  0.4619  0.1487 -0.4842
  913MOL0     C23170   0.644  10.321   9.673 -0.6653  0.0937 -0.2906
  913MOL0     N23171   1.495  10.097   9.875 -1.3820  1.8894 -0.4780
  913MOL0     N23172   1.543  10.181   9.962 -0.1549  0.2151  0.1895
  913MOL0     C23173   1.499  10.495  11.089 -0.2253  1.1284 -0.1328
  913MOL0     C23174   1.390  10.535  11.170 -0.5781 -0.0161 -0.7553
  913MOL0     C23175   1.011  10.697  11.339 -0.0974 -0.1403  0.4059
  913MOL0     C23176   0.881  10.655  11.325  0.8448  0.5578 -0.0953
  913MOL0     C23177   0.782  10.724  11.381 -0.3175  0.3115 -0.5418
  913MOL0     C23178   0.809  10.824  11.476 -0.1656 -0.3668  0.6407
  913MOL0     O23179   0.705  10.894  11.531  0.5143  0.0284  0.4483
  913MOL0     C23180   0.711  10.973  11.649  0.7207  0.2512 -0.2110
  913MOL0     C23181   0.574  11.037  11.665 -0.1246 -0.1310 -0.4296
  913MOL0     C23182   0.555  11.119  11.800 -0.6542  0.1732 -0.0976
  913MOL0     C23183   0.417  11.201  11.809 -1.1026  0.0309  0.6447
  913MOL0     C23184   0.295  11.116  11.794 -0.9599  0.1685  0.0723
  913MOL0     C23185   0.196  11.049  11.794 -0.2162  0.0287  0.1713
  913MOL0     C23186   0.944  10.855  11.504 -0.3626 -0.0830 -0.1286
  913MOL0     C23187   1.047  10.789  11.434  0.9032 -0.3192  0.1460
  913MOL0     H23188   1.427  10.874  11.155 -0.2053 -0.3618  5.4721
  913MOL0     H23189   1.611  10.808  11.015 -1.9796  0.9490 -2.6739
  913MOL0     H23190   1.787  10.430  10.826 -0.2274  0.8379 -1.1145
  913MOL0     H23191   1.666  10.360  10.941 -1.0440  1.1477  0.2794
  913MOL0     H23192   1.508  10.464  10.790  0.8962 -0.5427  1.9810
  913MOL0     H23193   1.644  10.513  10.680  1.2918 -0.1961  0.8292
  913MOL0     H23194   1.711  10.264  10.683  0.2080  2.3979  2.2080
  913MOL0     H23195   1.550  10.235  10.734 -0.6044 -0.2362 -0.9163
  913MOL0     H23196   1.454  10.393  10.551 -0.0946  0.1026  0.1120
  913MOL0     H23197   1.617  10.391  10.499 -1.7335  2.0039 -0.6326
  913MOL0     H23198   1.612  10.135  10.503 -0.2039 -1.2729 -0.0382
  913MOL0     H23199   1.438  10.156  10.506 -0.1480  0.1991  1.1813
  913MOL0     H23200   1.645  10.265  10.290  0.0779 -1.5219 -1.4398
  913MOL0     H23201   1.522  10.134  10.267 -2.4587  1.8138 -3.2990
  913MOL0     H23202   1.343  10.297  10.288  0.2152  0.5063  1.4971
  913MOL0     H23203   1.459  10.427  10.315 -0.2929 -0.5966  0.6898
  913MOL0     H23204   1.559  10.399  10.091  0.5972 -1.0868  0.7039
  913MOL0     H23205   1.378  10.436  10.089  0.1075  2.3432  5.5757
  913MOL0     H23206   1.233  10.212  10.034  1.5363  2.3171  1.4859
  913MOL0     H23207   1.313   9.948   9.741 -0.6769 -0.7085  0.5590
  913MOL0     H23208   1.200   9.948   9.865 -3.0200 -0.2324 -2.4807
  913MOL0     H23209   1.143  10.049   9.636  0.7367  2.7459 -3.0204
  913MOL0     H23210   1.220  10.190   9.692 -1.3620 -0.7022 -3.8490
  913MOL0     H23211   1.055  10.229   9.861  0.2532  1.7143 -3.6917
  913MOL0     H23212   1.026  10.050   9.879 -0.6503  0.2159  0.5610
  913MOL0     H23213   0.910  10.035   9.679  1.7526  0.9951 -1.6962
  913MOL0     H23214   0.959  10.200   9.632  0.9843 -0.0969  0.7773
  913MOL0     H23215   0.647   9.990   9.732  0.4154  0.6317  2.0858
  913MOL0     H23216   0.300   9.986   9.587 -0.1499  1.2996  1.9577
  913MOL0     H23217   0.440   9.919   9.506  1.6568 -1.5506  1.3312
  913MOL0     H23218   0.422   9.897   9.684 -0.0675  0.4937 -0.8970
  913MOL0     H23219   0.068  10.481   9.579 -0.4842  1.6035  0.1810
  913MOL0     H23220  -0.143  10.510   9.467  1.3421  2.7119  0.2047
  913MOL0     H23221  -0.113  10.561   9.030 -1.3815  0.8735  0.6479
  913MOL0     H23222  -0.133  10.387   9.009  0.3271 -0.1166 -0.1590
  913MOL0     H23223  -0.355  10.396   8.955  0.1189 -0.3676 -2.0879
  913MOL0     H23224  -0.382  10.552   9.048 -0.8259 -2.1962 -0.2172
  913MOL0     H23225  -0.256  10.529   8.774 -2.1554 -1.1804 -0.5734
  913MOL0     H23226  -0.298  10.674   8.861  1.4083  0.5146 -0.2370
  913MOL0     H23227  -0.537  10.626   8.853  0.1684 -1.7380  1.5464
  913MOL0     H23228  -0.469  10.619   8.696 -1.8043 -0.5514 -0.6917
  913MOL0     H23229  -0.646  10.435   8.745 -0.5380 -1.7512  0.5566
  913MOL0     H23230  -0.539  10.376   8.864  0.8235  1.7211  2.1104
  913MOL0     H23231  -0.479  10.421   8.578  2.6572  1.7507  1.7617
  913MOL0     H23232  -0.363  10.339   8.675 -0.4381  1.3016  1.0116
  913MOL0     H23233  -0.628  10.224   8.569 -0.0180  4.0502  0.1498
  913MOL0     H23234  -0.591  10.185   8.736  0.1639  1.8092  1.5951
  913MOL0     H23235  -0.380  10.153   8.501 -0.7105 -0.9432 -1.9207
  913MOL0     H23236  -0.508  10.038   8.520 -0.3247  0.0045  1.1394
  913MOL0     H23237   0.041  10.374   9.098 -0.7570  0.5839 -0.1282
  913MOL0     H23238   0.228  10.305   9.218 -0.4078  1.3826 -2.1036
  913MOL0     H23239   0.513  10.436   9.567  1.0798  0.4369  0.1538
  913MOL0     H23240   0.695  10.410   9.707  0.1176 -1.1153  1.9326
  913MOL0     H23241   1.520  10.389  11.080 -1.2767  0.8117  0.9289
  913MOL0     H23242   1.320  10.468  11.220 -2.3817  1.5746 -1.0416
  913MOL0     H23243   0.871  10.563  11.267  0.9688 -0.0332  0.7977
  913MOL0     H23244   0.677  10.706  11.359 -0.4078 -1.1358  0.8552
  913MOL0     H23245   0.733  10.911  11.736  3.2221  0.6841 -0.4832
  913MOL0     H23246   0.784  11.054  11.644  1.5662  0.0065  4.0632
  913MOL0     H23247   0.507  10.950  11.668 -1.2703  0.7061 -1.0480
  913MOL0     H23248   0.564  11.089  11.569 -0.8785  1.5095  0.5037
  913MOL0     H23249   0.639  11.189  11.791  0.4331 -0.9193  1.1068
  913MOL0     H23250   0.557  11.048  11.883 -1.8852 -0.6563 -0.7295
  913MOL0     H23251   0.427  11.282  11.736 -2.3865 -0.3481  0.0216
  913MOL0     H23252   0.396  11.253  11.903 -1.8925  0.5871  0.1740
  913MOL0     H23253   0.112  10.983  11.788  0.4470 -1.0242  1.8016
  913MOL0     H23254   0.992  10.923  11.573 -0.1090 -0.0324 -0.3537
  913MOL0     H23255   1.151  10.814  11.450  1.0624  1.1568 -2.5327
  914MOL0     O23256  11.246   8.468   6.522 -0.8068 -0.2817  0.0403
  914MOL0     C23257  11.207   8.355   6.532  0.6564  0.1685 -0.6220
  914MOL0     O23258  11.159   8.282   6.426 -0.3404  0.8585 -0.0255
  914MOL0     C23259  11.142   8.345   6.305  0.1773 -0.5680  1.5821
  914MOL0     C23260  11.237   8.317   6.203 -0.2345 -0.3332  0.6109
  914MOL0     C23261  11.227   8.390   6.081 -0.3263  0.4425 -0.6641
  914MOL0     C23262  11.124   8.479   6.062 -0.0383 -0.2774 -0.0858
  914MOL0     O23263  11.107   8.548   5.945  0.0820 -0.4527 -0.3546
  914MOL0     C23264  11.157   8.482   5.827 -0.0023 -0.2740  0.4013
  914MOL0     C23265  11.095   8.554   5.706  0.8506 -0.1825 -0.6071
  914MOL0     C23266  11.152   8.693   5.696  0.9872  0.3994  0.0334
  914MOL0     C23267  11.288   8.696   5.627 -0.2188 -0.1132 -0.7393
  914MOL0     C23268  11.324   8.840   5.588  0.1224 -0.2042 -0.2726
  914MOL0     C23269  11.469   8.845   5.520  0.5718  0.0859 -0.3411
  914MOL0     C23270  11.514   8.970   5.438  0.3758 -0.7104  1.0324
  914MOL0     C23271  11.433   8.964   5.303 -0.5462 -0.6124  0.2293
  914MOL0     N23272  11.465   9.081   5.220  0.2794  0.2966 -0.2446
  914MOL0     C23273  11.591   9.128   5.187 -0.4603  0.4128  0.2022
  914MOL0     C23274  11.560   9.239   5.117 -0.3387 -1.0350 -0.2620
  914MOL0     C23275  11.671   9.324   5.047  0.6233 -0.1523  0.0177
  914MOL0     C23276  11.614   9.455   5.002  0.6243 -1.2654 -0.2821
  914MOL0     C23277  11.645   9.562   5.112 -0.1367  0.0251  0.1519
  914MOL0     C23278  11.607   9.710   5.060 -0.3620  1.2315  0.9475
  914MOL0     O23279  11.660   9.746   4.924 -0.6583 -0.2745 -1.0735
  914MOL0     C23280  11.797   9.750   4.907 -0.5514  0.5267  1.1192
  914MOL0     C23281  11.893   9.762   5.010  0.4924  0.3362 -0.8454
  914MOL0     C23282  12.033   9.768   4.979 -0.2192  0.2140 -0.4688
  914MOL0     C23283  12.135   9.777   5.092  0.9737  0.5234  0.4224
  914MOL0     C23284  12.075   9.787   4.849 -0.4695 -0.8410  0.2812
  914MOL0     C23285  12.215   9.818   4.812  0.8465 -0.1842 -0.3091
  914MOL0     O23286  12.259   9.941   4.842 -0.4684  0.0874  0.0699
  914MOL0     C23287  12.388   9.965   4.799  0.1083  0.2988  0.3533
  914MOL0     C23288  12.413   9.961   4.658  0.3676 -0.3996 -0.1693
  914MOL0     C23289  12.533   9.997   4.617 -0.3888 -0.7749  0.2444
  914MOL0     C23290  12.635  10.048   4.702  0.0198 -0.0349 -0.2408
  914MOL0     O23291  12.756  10.076   4.641 -0.8364  1.0247 -0.0734
  914MOL0     C23292  12.823  10.191   4.693 -0.2778  0.0231  0.0376
  914MOL0     C23293  12.911  10.251   4.579 -0.1237  0.2449 -0.0976
  914MOL0     C23294  12.953  10.399   4.607 -0.1219  0.4646  0.6779
  914MOL0     C23295  13.004  10.433   4.739 -0.8013 -0.0514 -0.0879
  914MOL0     C23296  13.031  10.583   4.747 -1.0768 -0.3855 -0.2147
  914MOL0     C23297  13.077  10.631   4.886  0.0380 -0.4950 -0.2412
  914MOL0     C23298  13.220  10.604   4.927  0.4717 -0.4328  0.1206
  914MOL0     C23299  13.223  10.619   5.080 -0.3070  1.1335  0.6370
  914MOL0    Cl23300  13.392  10.575   5.135 -0.1682 -0.4550  0.3310
  914MOL0     C23301  12.609  10.040   4.846  0.1093 -0.2959  0.7006
  914MOL0     C23302  12.493   9.991   4.894  0.7543  0.6355 -0.1390
  914MOL0     O23303  12.278   9.726   4.752  0.3330 -0.5887  0.4452
  914MOL0     C23304  11.978   9.788   4.751 -0.7699  0.7067  0.3074
  914MOL0     C23305  11.840   9.766   4.775 -0.4147  1.2485  0.2726
  914MOL0     N23306  11.422   9.263   5.123  0.2686 -0.1194  0.7475
  914MOL0     N23307  11.366   9.170   5.188 -0.5404  1.2703 -0.8372
  914MOL0     C23308  11.039   8.513   6.169 -0.0522  0.1734 -0.6861
  914MOL0     C23309  11.039   8.440   6.283  0.4705  0.5564  0.2389
  914MOL0     C23310  11.215   8.281   6.653  0.1518  0.2767 -0.3676
  914MOL0     C23311  11.242   8.348   6.776  0.3109  0.4341 -0.8888
  914MOL0     C23312  11.233   8.278   6.891  0.0864  0.6571 -0.2259
  914MOL0     C23313  11.222   8.137   6.898  0.3776 -0.6046 -0.0549
  914MOL0     O23314  11.207   8.060   7.003  0.9567 -0.2658 -0.7522
  914MOL0     C23315  11.174   8.113   7.131  0.1315  0.4031  0.1817
  914MOL0     C23316  11.040   8.191   7.148 -0.2818 -1.0035  0.5091
  914MOL0     C23317  10.908   8.145   7.088  0.0911  0.5264  0.2057
  914MOL0     C23318  10.888   7.997   7.098  0.3536  0.0766  0.7688
  914MOL0     C23319  10.862   7.967   7.239 -0.4795 -0.3373  0.1097
  914MOL0     C23320  10.858   7.926   7.352 -0.3899  0.1325  0.6406
  914MOL0     C23321  11.213   8.075   6.777  0.3596  0.2483  0.0834
  914MOL0     C23322  11.200   8.141   6.652 -0.6377 -0.0920 -0.5739
  914MOL0     H23323  11.326   8.258   6.221  0.0316  0.0514  0.5459
  914MOL0     H23324  11.308   8.387   6.009  1.6535 -2.6551  1.4590
  914MOL0     H23325  11.265   8.502   5.830 -0.2994  1.4473  1.2419
  914MOL0     H23326  11.127   8.377   5.833 -4.4142  0.8350  0.8072
  914MOL0     H23327  11.111   8.494   5.616 -1.1795 -0.1988 -1.0031
  914MOL0     H23328  10.988   8.553   5.729  1.2967 -1.0274  1.7308
  914MOL0     H23329  11.085   8.752   5.634  1.5713 -0.8507 -1.8984
  914MOL0     H23330  11.175   8.741   5.791  2.5374  0.4743 -0.3458
  914MOL0     H23331  11.367   8.657   5.693  0.7686  2.0916 -0.5139
  914MOL0     H23332  11.289   8.646   5.529  0.5191 -1.7468  0.0665
  914MOL0     H23333  11.249   8.870   5.514  0.3777  0.1327 -0.3965
  914MOL0     H23334  11.328   8.911   5.671 -0.4724 -0.9389  0.4006
  914MOL0     H23335  11.542   8.822   5.597  1.8871 -0.4004 -1.6763
  914MOL0     H23336  11.481   8.762   5.449  0.5664 -0.1474 -0.0717
  914MOL0     H23337  11.480   9.052   5.501 -0.6903 -0.1147 -0.2623
  914MOL0     H23338  11.620   8.957   5.416  0.2947 -0.2756  0.3505
  914MOL0     H23339  11.327   8.972   5.326 -0.5540 -0.1187  0.0159
  914MOL0     H23340  11.457   8.867   5.257 -0.3016 -0.6716  0.4740
  914MOL0     H23341  11.689   9.083   5.195 -0.0387  1.3526  0.4677
  914MOL0     H23342  11.752   9.353   5.114  0.7826 -2.0804  0.7217
  914MOL0     H23343  11.709   9.271   4.959 -0.9043 -0.8364 -0.2625
  914MOL0     H23344  11.504   9.455   4.995  0.6587 -1.2989 -0.9550
  914MOL0     H23345  11.650   9.487   4.903  0.5247  2.6222  0.7695
  914MOL0     H23346  11.751   9.561   5.137  0.1125  2.0302 -0.6462
  914MOL0     H23347  11.584   9.536   5.199 -0.8610  0.6004 -0.1709
  914MOL0     H23348  11.645   9.783   5.131  2.3861  0.2948  0.5791
  914MOL0     H23349  11.499   9.702   5.048 -0.0528 -0.9625 -1.3759
  914MOL0     H23350  11.863   9.751   5.113  1.9820 -0.0252 -0.4327
  914MOL0     H23351  12.179   9.877   5.098 -1.9915  1.8289  3.1260
  914MOL0     H23352  12.090   9.748   5.188 -2.1489  0.2215 -1.0163
  914MOL0     H23353  12.220   9.711   5.074  2.0511  2.1092 -0.5954
  914MOL0     H23354  12.331   9.941   4.590 -1.3153 -2.4984  2.2771
  914MOL0     H23355  12.564   9.999   4.513  0.5142  0.1503  0.5088
  914MOL0     H23356  12.751  10.270   4.716 -1.0122 -0.1865 -1.4644
  914MOL0     H23357  12.886  10.151   4.773  2.2822 -0.4992 -2.1043
  914MOL0     H23358  12.994  10.180   4.571 -2.0817 -1.9183 -3.2762
  914MOL0     H23359  12.857  10.250   4.484  0.1824  0.4209 -0.2765
  914MOL0     H23360  12.875  10.471   4.580  0.5936  1.4987  1.3007
  914MOL0     H23361  13.026  10.424   4.529  1.0359  2.8423  2.4057
  914MOL0     H23362  12.938  10.417   4.824  1.3354  3.0587  2.4012
  914MOL0     H23363  13.100  10.382   4.753  0.8942  1.8956 -3.3823
  914MOL0     H23364  12.945  10.640   4.710 -1.1318 -0.1000  0.3513
  914MOL0     H23365  13.111  10.613   4.677 -1.2852  1.3440  0.2487
  914MOL0     H23366  13.058  10.739   4.883 -1.5793 -0.7617 -1.1155
  914MOL0     H23367  13.006  10.594   4.961  0.6363 -0.0827  0.5354
  914MOL0     H23368  13.285  10.679   4.883  0.4602  0.4656  1.5618
  914MOL0     H23369  13.246  10.505   4.888  0.9139 -0.7047  1.0769
  914MOL0     H23370  13.157  10.539   5.117 -2.2891  2.0892 -0.7177
  914MOL0     H23371  13.204  10.719   5.118 -0.0002  0.8110  1.6817
  914MOL0     H23372  12.688  10.083   4.906 -1.5385  5.1487 -0.3977
  914MOL0     H23373  12.476   9.998   5.001 -2.0080 -0.3453 -0.4242
  914MOL0     H23374  12.010   9.824   4.653  1.4508 -0.3430  0.5820
  914MOL0     H23375  11.762   9.777   4.701 -0.5677 -2.7037 -0.3639
  914MOL0     H23376  10.963   8.591   6.173  0.7953  0.9612  1.2302
  914MOL0     H23377  10.960   8.456   6.355 -1.9892  1.5610 -2.5044
  914MOL0     H23378  11.258   8.456   6.782  0.7385  0.3444 -0.3059
  914MOL0     H23379  11.250   8.333   6.983  2.6145  0.2226 -0.3693
  914MOL0     H23380  11.168   8.017   7.185 -0.7985  1.2896  1.7437
  914MOL0     H23381  11.260   8.168   7.171  1.0042  0.3945 -1.5851
  914MOL0     H23382  11.054   8.286   7.096 -0.6821 -1.3347 -0.2295
  914MOL0     H23383  11.011   8.219   7.250 -2.0159  3.7795 -1.0120
  914MOL0     H23384  10.904   8.177   6.983 -1.0389  0.6314  0.2723
  914MOL0     H23385  10.821   8.200   7.126 -1.4228 -0.1541 -2.0869
  914MOL0     H23386  10.981   7.948   7.067  0.0656 -1.3285  2.0185
  914MOL0     H23387  10.810   7.963   7.030  1.8817  1.2002 -1.6805
  914MOL0     H23388  10.860   7.866   7.441  1.3998  0.1540  0.6545
  914MOL0     H23389  11.215   7.966   6.777 -0.3220  0.2052 -1.3863
  914MOL0     H23390  11.193   8.075   6.566  3.0195 -0.1375 -1.0262
  915MOL0     O23391   7.168   1.598   6.086  0.1713  0.2385  0.4094
  915MOL0     C23392   7.054   1.631   6.108  0.0266  0.1864  0.3400
  915MOL0     O23393   7.006   1.740   6.177  0.1729  0.3012  0.3336
  915MOL0     C23394   7.091   1.841   6.217 -0.1292 -0.8817  0.1292
  915MOL0     C23395   7.037   1.939   6.302 -0.2645 -0.6707 -0.6200
  915MOL0     C23396   7.113   2.052   6.349  0.4468  0.1312 -0.2451
  915MOL0     C23397   7.244   2.068   6.311 -0.7052  0.3867  0.0009
  915MOL0     O23398   7.333   2.166   6.349 -0.6224 -0.2482  0.5054
  915MOL0     C23399   7.291   2.290   6.299 -1.5379 -0.3103  0.5750
  915MOL0     C23400   7.385   2.323   6.180 -0.1661 -0.2582  1.0021
  915MOL0     C23401   7.539   2.316   6.201  0.2348  0.1332 -0.0828
  915MOL0     C23402   7.621   2.333   6.076  0.8486 -0.3363  0.2992
  915MOL0     C23403   7.762   2.366   6.116 -0.0052  0.2345  0.2038
  915MOL0     C23404   7.842   2.437   6.001 -0.0137 -0.1680 -1.0586
  915MOL0     C23405   7.822   2.581   6.011 -0.1043 -0.5752  0.1472
  915MOL0     C23406   7.948   2.646   5.952 -0.0085 -0.0705  1.0128
  915MOL0     N23407   7.953   2.782   5.993  0.4303 -1.0227 -1.0980
  915MOL0     C23408   8.046   2.822   6.078 -0.0629 -0.5509 -0.5343
  915MOL0     C23409   8.023   2.952   6.091  0.3029 -0.0789 -0.1207
  915MOL0     C23410   8.109   3.045   6.168  0.4081 -0.0116 -0.2400
  915MOL0     C23411   8.112   3.002   6.316  0.2593  0.1687 -0.0436
  915MOL0     C23412   7.980   3.030   6.396  0.4754  0.0504  0.2365
  915MOL0     C23413   7.987   2.948   6.525 -0.2249  0.4712  0.1141
  915MOL0     O23414   7.956   2.812   6.485 -0.1370 -0.0132 -0.4205
  915MOL0     C23415   7.821   2.776   6.475  0.5608 -0.3133  0.1011
  915MOL0     C23416   7.755   2.775   6.358 -0.0283 -0.3833 -0.7018
  915MOL0     C23417   7.622   2.732   6.341  1.0845 -0.2185  0.7354
  915MOL0     C23418   7.555   2.736   6.203 -0.3776  0.4069  0.3723
  915MOL0     C23419   7.551   2.687   6.460 -0.4609  0.1948  0.2875
  915MOL0     C23420   7.409   2.646   6.454  0.5422 -0.0204  0.0160
  915MOL0     O23421   7.361   2.605   6.569 -0.2190 -0.0627 -0.3760
  915MOL0     C23422   7.230   2.589   6.584  1.2411 -0.7074 -0.2484
  915MOL0     C23423   7.140   2.698   6.589  0.1152  0.9243  0.9665
  915MOL0     C23424   7.011   2.674   6.587 -0.6321  0.0224 -0.1128
  915MOL0     C23425   6.947   2.546   6.596 -0.4277  0.2306  0.2906
  915MOL0     O23426   6.814   2.515   6.582  0.3182  0.5795 -0.2377
  915MOL0     C23427   6.725   2.625   6.594 -0.1095  0.0972 -0.2829
  915MOL0     C23428   6.584   2.579   6.644 -0.2053 -0.0549 -0.1587
  915MOL0     C23429   6.497   2.543   6.519  0.4164  0.6797  0.9789
  915MOL0     C23430   6.363   2.486   6.561 -0.2266  0.4262 -0.1794
  915MOL0     C23431   6.298   2.417   6.437  0.7723 -0.4400 -0.0064
  915MOL0     C23432   6.154   2.380   6.485  0.7045  0.0826 -0.2333
  915MOL0     C23433   6.067   2.307   6.376 -0.7067 -0.1470  1.4300
  915MOL0     C23434   5.926   2.279   6.429 -0.3047 -0.1432 -0.0343
  915MOL0    Cl23435   5.841   2.162   6.328  0.3433 -0.3264  0.4463
  915MOL0     C23436   7.039   2.436   6.606  0.6009 -0.1154  0.1401
  915MOL0     C23437   7.178   2.462   6.600  0.4295 -0.3839  0.3360
  915MOL0     O23438   7.341   2.660   6.352  0.2592 -0.0040 -0.5745
  915MOL0     C23439   7.621   2.687   6.584  0.4411 -0.0714  0.8065
  915MOL0     C23440   7.749   2.738   6.593 -0.4214 -0.3659  0.6408
  915MOL0     N23441   7.915   2.994   6.019  0.6531 -0.2661 -0.4259
  915MOL0     N23442   7.867   2.892   5.962  0.3966  0.3924  0.0123
  915MOL0     C23443   7.294   1.977   6.217 -0.8936 -0.3845 -0.7544
  915MOL0     C23444   7.230   1.860   6.182 -0.7231  0.4947 -0.4047
  915MOL0     C23445   6.947   1.548   6.050 -0.0751 -0.8892 -0.4429
  915MOL0     C23446   6.974   1.425   5.981  0.2134 -1.0741  0.5244
  915MOL0     C23447   6.883   1.341   5.927  0.7908  0.0819  0.2052
  915MOL0     C23448   6.744   1.369   5.949 -0.1924 -0.2111  0.7900
  915MOL0     O23449   6.649   1.277   5.903  0.0691 -0.5299  0.1349
  915MOL0     C23450   6.684   1.164   5.823 -0.5360  0.3479 -0.1668
  915MOL0     C23451   6.564   1.086   5.775 -0.4000 -0.4484 -0.4741
  915MOL0     C23452   6.496   1.164   5.665  0.3039  0.1840  0.8308
  915MOL0     C23453   6.361   1.212   5.704 -1.0115 -0.3723 -0.2135
  915MOL0     C23454   6.270   1.105   5.712  1.0152 -0.4417 -0.0102
  915MOL0     C23455   6.192   1.003   5.702 -0.0470 -0.2527 -0.0270
  915MOL0     C23456   6.705   1.475   6.036 -0.0096  0.1890  0.1231
  915MOL0     C23457   6.806   1.566   6.086 -0.4329  0.1188 -0.5313
  915MOL0     H23458   6.931   1.925   6.322 -1.5149  1.6945 -4.4163
  915MOL0     H23459   7.066   2.117   6.421  0.2608 -1.8218  1.5010
  915MOL0     H23460   7.188   2.277   6.264 -0.8376 -4.5604 -0.4005
  915MOL0     H23461   7.301   2.371   6.372 -1.2858 -1.1884  1.5231
  915MOL0     H23462   7.365   2.254   6.098  1.3404 -0.5481  0.8405
  915MOL0     H23463   7.357   2.418   6.134  0.3627 -0.1473  0.9059
  915MOL0     H23464   7.567   2.396   6.270 -1.2329 -0.7310  1.5815
  915MOL0     H23465   7.568   2.218   6.238  1.3578  0.1555 -0.8465
  915MOL0     H23466   7.627   2.240   6.018  0.5494 -1.6415  2.2827
  915MOL0     H23467   7.577   2.414   6.017 -3.0183 -1.1668  1.7346
  915MOL0     H23468   7.785   2.416   6.210  2.0670 -2.6096  1.3624
  915MOL0     H23469   7.803   2.267   6.140  0.3150  0.8464  2.4288
  915MOL0     H23470   7.948   2.413   6.014  0.0836 -0.9684 -3.0562
  915MOL0     H23471   7.807   2.397   5.906 -0.1192  0.2224 -1.1865
  915MOL0     H23472   7.729   2.609   5.961 -1.2037 -0.1127  2.3190
  915MOL0     H23473   7.818   2.616   6.114  0.7351  3.3996 -0.9816
  915MOL0     H23474   7.944   2.639   5.843  0.0446 -0.0163  1.0070
  915MOL0     H23475   8.033   2.587   5.988  0.2345 -1.2520 -1.2846
  915MOL0     H23476   8.121   2.752   6.112 -0.3107 -0.8112 -0.5219
  915MOL0     H23477   8.207   3.052   6.120  0.2323 -1.1773 -0.8223
  915MOL0     H23478   8.068   3.146   6.164 -1.8510 -0.9064 -2.7191
  915MOL0     H23479   8.202   3.045   6.360  1.7749 -3.7361  1.1419
  915MOL0     H23480   8.135   2.895   6.320 -0.3055  0.0621  1.0256
  915MOL0     H23481   7.890   3.008   6.339 -0.6789  2.6442  0.9055
  915MOL0     H23482   7.979   3.139   6.404 -3.0312  0.2180 -0.8453
  915MOL0     H23483   7.930   2.998   6.605  1.0863  0.7084  0.9274
  915MOL0     H23484   8.087   2.962   6.567 -0.2572  2.1590 -0.3012
  915MOL0     H23485   7.806   2.796   6.264  0.5279  1.2325 -0.0774
  915MOL0     H23486   7.620   2.767   6.121 -1.0248 -0.3016 -0.4338
  915MOL0     H23487   7.516   2.639   6.170  1.1944  0.9889 -3.8538
  915MOL0     H23488   7.474   2.809   6.207  2.1049  3.3036  1.3886
  915MOL0     H23489   7.188   2.795   6.596  0.4828  0.6463  3.6752
  915MOL0     H23490   6.951   2.764   6.585  0.0642  0.4777 -1.1325
  915MOL0     H23491   6.747   2.700   6.670 -0.3911  0.9435 -1.0218
  915MOL0     H23492   6.724   2.676   6.498  1.4505 -1.1885 -1.0144
  915MOL0     H23493   6.598   2.495   6.713  1.7063  0.3698  0.0114
  915MOL0     H23494   6.537   2.656   6.705  2.1852  2.5195 -1.3743
  915MOL0     H23495   6.546   2.475   6.448 -1.0801  1.5185 -0.9484
  915MOL0     H23496   6.485   2.636   6.462  0.1144  0.1073  0.0825
  915MOL0     H23497   6.370   2.418   6.646 -0.9255  1.6361  0.8672
  915MOL0     H23498   6.309   2.565   6.613  2.4127  1.1078  1.7303
  915MOL0     H23499   6.355   2.332   6.398 -0.9623 -0.7209 -2.1662
  915MOL0     H23500   6.287   2.488   6.355 -4.7908 -1.5899 -0.6612
  915MOL0     H23501   6.156   2.308   6.567  2.2732 -1.4372 -1.5410
  915MOL0     H23502   6.097   2.465   6.525 -0.3115 -1.8341  2.6956
  915MOL0     H23503   6.117   2.221   6.330  0.1457  1.2710 -0.4499
  915MOL0     H23504   6.067   2.369   6.285 -0.5904  1.7456  2.6655
  915MOL0     H23505   5.869   2.371   6.444  2.6619  1.4384  2.7551
  915MOL0     H23506   5.932   2.227   6.525  1.4399 -1.9270 -1.0102
  915MOL0     H23507   6.996   2.337   6.608  0.9250 -0.2875 -1.0184
  915MOL0     H23508   7.249   2.380   6.597  1.1950  0.3050 -0.9445
  915MOL0     H23509   7.570   2.658   6.676 -1.6313 -2.9993 -1.0793
  915MOL0     H23510   7.801   2.748   6.687  0.1680 -0.6865  0.3584
  915MOL0     H23511   7.388   2.014   6.177 -1.8988  2.1915 -0.9267
  915MOL0     H23512   7.287   1.793   6.119 -0.6842  0.4087 -0.2786
  915MOL0     H23513   7.077   1.400   5.955  0.1906  0.1115 -0.7785
  915MOL0     H23514   6.926   1.250   5.887 -2.6471 -2.0627  0.9470
  915MOL0     H23515   6.739   1.204   5.738 -1.8899  1.2863 -0.6226
  915MOL0     H23516   6.744   1.094   5.883  0.6793 -0.2460 -2.0170
  915MOL0     H23517   6.496   1.060   5.857 -2.1975  1.3516 -1.2985
  915MOL0     H23518   6.600   0.995   5.726  2.3760  0.2169  0.1547
  915MOL0     H23519   6.486   1.090   5.585  1.4444  1.5345 -0.6399
  915MOL0     H23520   6.560   1.243   5.625 -0.1041  0.9621  1.6784
  915MOL0     H23521   6.313   1.272   5.626 -1.0892  1.9728  1.5013
  915MOL0     H23522   6.371   1.260   5.802 -0.9756 -1.7030  0.4588
  915MOL0     H23523   6.141   0.909   5.707  1.3645 -1.0358  0.3751
  915MOL0     H23524   6.604   1.486   6.073 -0.2904 -1.5093 -0.0906
  915MOL0     H23525   6.775   1.652   6.144  0.0014 -1.0497  1.5131
  916MOL0     O23526   3.330   9.669   3.888 -0.1140 -0.3654 -0.1195
  916MOL0     C23527   3.315   9.554   3.935  0.1723 -1.0014  0.2466
  916MOL0     O23528   3.196   9.491   3.948  0.1311  0.4076  0.0721
  916MOL0     C23529   3.078   9.569   3.950 -0.2399  0.1799  0.9192
  916MOL0     C23530   2.974   9.540   3.860  0.0385  0.3581 -0.0692
  916MOL0     C23531   2.863   9.630   3.847  0.1231 -0.4652  0.2043
  916MOL0     C23532   2.855   9.743   3.932 -1.0536  0.0854  0.6641
  916MOL0     O23533   2.761   9.842   3.923 -0.0016 -0.3449 -0.4621
  916MOL0     C23534   2.627   9.823   3.876 -0.0219 -0.0528  0.8189
  916MOL0     C23535   2.547   9.934   3.913 -0.3573 -0.7959  0.0084
  916MOL0     C23536   2.424   9.935   3.835  0.2438  0.0635 -0.6090
  916MOL0     C23537   2.329  10.041   3.907 -0.3288  0.3040  0.3010
  916MOL0     C23538   2.203  10.060   3.827 -0.4103 -0.3087  0.7479
  916MOL0     C23539   2.110  10.171   3.872 -0.8933 -0.2626 -0.3182
  916MOL0     C23540   1.993  10.209   3.790  0.4404  0.8478 -0.7951
  916MOL0     C23541   1.947  10.348   3.831  0.9850  0.2753  0.3591
  916MOL0     N23542   2.032  10.465   3.796  0.5037  0.1502  0.2797
  916MOL0     C23543   2.089  10.537   3.904 -0.2663 -0.4752 -0.3367
  916MOL0     C23544   2.146  10.639   3.838  0.1639  0.1388 -0.6202
  916MOL0     C23545   2.239  10.745   3.883 -0.3992  0.8769 -0.4493
  916MOL0     C23546   2.386  10.706   3.857  0.6948 -0.3626 -0.1134
  916MOL0     C23547   2.470  10.809   3.903 -0.3958 -0.0401  0.1441
  916MOL0     C23548   2.624  10.808   3.874  0.8299  0.0858 -0.2160
  916MOL0     O23549   2.679  10.708   3.949  0.0396  0.1776 -0.0019
  916MOL0     C23550   2.811  10.691   3.934 -1.0188  0.3787 -0.3081
  916MOL0     C23551   2.875  10.586   3.996  0.0721  0.6306  0.7772
  916MOL0     C23552   3.003  10.550   3.986 -0.1986 -0.4891  0.9082
  916MOL0     C23553   3.040  10.407   4.022  0.6842  0.1055  0.4787
  916MOL0     C23554   3.089  10.637   3.908  0.9467 -0.3361 -0.0989
  916MOL0     C23555   3.244  10.622   3.898  0.0112 -0.0648  0.3213
  916MOL0     O23556   3.308  10.523   3.967 -0.5278  0.9126  0.3080
  916MOL0     C23557   3.443  10.516   3.987 -0.9489  0.0429 -0.6027
  916MOL0     C23558   3.548  10.539   3.893 -0.6434  0.0187 -0.3202
  916MOL0     C23559   3.686  10.545   3.939  0.6622 -0.5219  0.7178
  916MOL0     C23560   3.716  10.508   4.067 -0.6541  0.2692  0.4156
  916MOL0     O23561   3.850  10.509   4.098 -0.2578 -0.2547 -0.2469
  916MOL0     C23562   3.907  10.378   4.100 -0.6172  0.0381 -0.4340
  916MOL0     C23563   4.006  10.378   4.212 -0.1762  1.4024 -0.2041
  916MOL0     C23564   3.977  10.259   4.308  0.0903 -0.3769 -0.5119
  916MOL0     C23565   4.014  10.302   4.455  1.1177 -0.0790  0.1787
  916MOL0     C23566   4.037  10.172   4.530 -0.0555  0.3427  1.2366
  916MOL0     C23567   4.107  10.214   4.660  0.8617 -0.3867 -0.1641
  916MOL0     C23568   4.118  10.103   4.767 -0.0468  0.3544 -0.0474
  916MOL0     C23569   4.237  10.117   4.869  0.6358 -0.0508 -0.4981
  916MOL0    Cl23570   4.376  10.079   4.776 -0.3881  0.0844 -0.5647
  916MOL0     C23571   3.618  10.472   4.153 -0.2528 -0.8468 -1.0046
  916MOL0     C23572   3.487  10.478   4.117  1.2660 -0.0171 -0.3028
  916MOL0     O23573   3.300  10.719   3.854 -0.2143  0.0425 -0.4394
  916MOL0     C23574   3.027  10.747   3.842 -1.2344 -0.9534  0.2726
  916MOL0     C23575   2.891  10.778   3.860 -0.3980  0.0639 -1.0760
  916MOL0     N23576   2.122  10.630   3.705  0.2060 -0.0191  0.1944
  916MOL0     N23577   2.055  10.518   3.680 -0.1118 -0.2448 -0.0884
  916MOL0     C23578   2.964   9.772   4.019  1.2617  1.1969  0.6105
  916MOL0     C23579   3.068   9.676   4.041  0.4465 -0.2639  0.6655
  916MOL0     C23580   3.443   9.473   3.960 -0.0155 -1.4238 -0.0026
  916MOL0     C23581   3.577   9.532   3.964 -0.0861 -0.3153  0.0794
  916MOL0     C23582   3.690   9.461   3.998 -0.1784 -0.3120  0.0769
  916MOL0     C23583   3.674   9.326   4.039 -0.5760 -1.3069  0.5332
  916MOL0     O23584   3.769   9.248   4.097 -0.2397  0.3599  0.0088
  916MOL0     C23585   3.911   9.279   4.081  1.1132 -0.9102 -1.0108
  916MOL0     C23586   3.942   9.263   3.940  0.1842  0.2621 -0.0609
  916MOL0     C23587   4.093   9.276   3.905  0.5015 -0.2949  0.4949
  916MOL0     C23588   4.165   9.159   3.969 -0.0193  0.1675  0.0541
  916MOL0     C23589   4.304   9.150   3.918  1.0051 -0.1720 -0.0650
  916MOL0     C23590   4.418   9.126   3.880  0.4157  0.3717  0.1941
  916MOL0     C23591   3.542   9.269   4.030 -0.4023  0.2494  0.2110
  916MOL0     C23592   3.433   9.336   3.986 -0.1536 -1.0160 -1.1226
  916MOL0     H23593   2.957   9.453   3.797 -1.1240  0.4441  0.1027
  916MOL0     H23594   2.780   9.620   3.778  0.2581  0.1146 -0.0529
  916MOL0     H23595   2.615   9.805   3.769 -1.4799  2.4645  0.4711
  916MOL0     H23596   2.595   9.733   3.929  0.7439 -2.5603 -2.6283
  916MOL0     H23597   2.528   9.928   4.021  2.9871  0.8330  0.8335
  916MOL0     H23598   2.596  10.031   3.914 -2.5050  0.3535 -0.2377
  916MOL0     H23599   2.427   9.952   3.727 -4.6869  3.3917 -0.5691
  916MOL0     H23600   2.369   9.841   3.842 -1.1648  0.8718 -0.3925
  916MOL0     H23601   2.309  10.020   4.012  3.6135  0.4515  1.2332
  916MOL0     H23602   2.381  10.137   3.903  2.2065 -1.0000 -0.0129
  916MOL0     H23603   2.229  10.085   3.724  0.6038  1.2610  1.3544
  916MOL0     H23604   2.144   9.968   3.835 -0.0598 -0.8449 -1.8486
  916MOL0     H23605   2.088  10.150   3.978  2.6722 -0.8856  0.4295
  916MOL0     H23606   2.179  10.255   3.878 -2.0819  0.6506  1.7196
  916MOL0     H23607   2.014  10.221   3.684  0.9593 -0.2179 -0.8254
  916MOL0     H23608   1.920  10.128   3.799  0.3501  1.0891  0.9882
  916MOL0     H23609   1.921  10.348   3.938 -4.8439 -0.5148 -0.6970
  916MOL0     H23610   1.848  10.354   3.784  0.4031 -2.9096  0.9479
  916MOL0     H23611   2.079  10.522   4.011 -3.8116 -1.1786 -0.6332
  916MOL0     H23612   2.198  10.843   3.855 -3.1164  0.8895  2.9056
  916MOL0     H23613   2.243  10.741   3.992  2.5510  2.0778 -0.4056
  916MOL0     H23614   2.394  10.678   3.752 -3.0652 -2.0064 -0.1379
  916MOL0     H23615   2.406  10.612   3.909  1.2340 -0.2305 -0.0766
  916MOL0     H23616   2.453  10.839   4.007 -0.8248  2.1154 -0.4915
  916MOL0     H23617   2.450  10.900   3.845  0.0050 -1.0230 -1.5971
  916MOL0     H23618   2.669  10.904   3.898 -0.8192  1.6092 -2.6772
  916MOL0     H23619   2.623  10.782   3.767  0.1676 -2.0524  0.2415
  916MOL0     H23620   2.814  10.515   4.052 -1.4213  0.2761 -1.1768
  916MOL0     H23621   3.089  10.404   4.119  2.6946 -2.2753 -0.4956
  916MOL0     H23622   2.958  10.338   4.003  1.5074 -1.5529  2.5976
  916MOL0     H23623   3.107  10.369   3.944 -1.0545  1.0917 -1.6043
  916MOL0     H23624   3.526  10.572   3.792 -0.6006 -0.7935 -0.6008
  916MOL0     H23625   3.764  10.583   3.874 -0.1039  1.4361  0.8846
  916MOL0     H23626   3.825  10.307   4.112  0.5022 -1.0209  1.3934
  916MOL0     H23627   3.961  10.354   4.007 -0.2337 -2.2983  0.3074
  916MOL0     H23628   4.104  10.378   4.163 -1.2561 -2.1677 -2.7697
  916MOL0     H23629   3.982  10.473   4.261  0.1814  1.4013 -0.0246
  916MOL0     H23630   4.031  10.176   4.261  2.2757  1.5759 -1.7074
  916MOL0     H23631   3.871  10.236   4.317  0.3212 -1.9285 -1.4874
  916MOL0     H23632   4.096  10.374   4.450  1.2124  0.1120  3.0116
  916MOL0     H23633   3.931  10.361   4.495 -1.0999 -3.0815  0.3694
  916MOL0     H23634   4.084  10.090   4.475  0.0850  0.4602  1.1803
  916MOL0     H23635   3.940  10.131   4.559  0.4841 -3.4460 -1.5382
  916MOL0     H23636   4.209  10.245   4.634  0.0966 -1.0332 -4.9113
  916MOL0     H23637   4.060  10.305   4.698  2.0594  0.6218 -1.0170
  916MOL0     H23638   4.129  10.008   4.714  1.5914  1.4439 -1.7875
  916MOL0     H23639   4.024  10.098   4.822 -0.3660  0.4353 -0.5746
  916MOL0     H23640   4.223  10.047   4.951  1.1762 -0.0123 -0.3704
  916MOL0     H23641   4.245  10.220   4.906  1.7274 -1.1594  2.6293
  916MOL0     H23642   3.642  10.458   4.258  0.4523 -1.2847 -1.2152
  916MOL0     H23643   3.413  10.451   4.192  1.3878  2.0340  0.6477
  916MOL0     H23644   3.082  10.815   3.778 -2.5617  0.4576  0.5861
  916MOL0     H23645   2.856  10.864   3.803 -4.2235  0.5161  1.5650
  916MOL0     H23646   2.956   9.861   4.080 -2.3555  1.0169  0.5838
  916MOL0     H23647   3.150   9.695   4.109  1.5191  1.1366 -0.9596
  916MOL0     H23648   3.597   9.638   3.963 -0.8471 -0.0427  3.3153
  916MOL0     H23649   3.782   9.519   3.993 -0.8913  0.7154 -3.8341
  916MOL0     H23650   3.923   9.379   4.125 -1.5669 -1.2493  0.7197
  916MOL0     H23651   3.972   9.218   4.149 -2.4843 -0.8301  2.6971
  916MOL0     H23652   3.884   9.334   3.881  0.5641  1.2596  0.7244
  916MOL0     H23653   3.911   9.161   3.920  2.2205 -0.4207  0.0364
  916MOL0     H23654   4.133   9.370   3.944  0.2180  0.3555 -0.7295
  916MOL0     H23655   4.098   9.273   3.796 -2.5331 -2.2030  0.2888
  916MOL0     H23656   4.120   9.063   3.944  1.3987 -0.2640 -0.9525
  916MOL0     H23657   4.182   9.177   4.076  0.8246 -2.0714  0.3482
  916MOL0     H23658   4.517   9.113   3.839  0.2345 -0.6796  0.0529
  916MOL0     H23659   3.524   9.165   4.057 -1.3829  0.8886  2.1927
  916MOL0     H23660   3.338   9.285   3.996  0.6152 -2.4244 -0.8085
  917MOL0     O23661   2.216   8.049  11.294  0.5204 -0.0278 -0.1229
  917MOL0     C23662   2.235   7.931  11.299 -0.2427 -0.6693 -0.2519
  917MOL0     O23663   2.144   7.833  11.274 -0.4672 -0.3771 -0.9826
  917MOL0     C23664   2.023   7.869  11.240  0.4981 -0.9439  0.2198
  917MOL0     C23665   1.929   7.916  11.332 -0.1880 -0.6272  1.1503
  917MOL0     C23666   1.801   7.941  11.281 -0.2755 -1.0206 -0.3366
  917MOL0     C23667   1.755   7.911  11.158 -0.9381  0.7165  0.3763
  917MOL0     O23668   1.625   7.925  11.117  0.5209  0.8145  1.2389
  917MOL0     C23669   1.542   8.021  11.194 -0.5654  0.9903  0.5164
  917MOL0     C23670   1.411   8.060  11.134 -0.2279  0.2705  0.5508
  917MOL0     C23671   1.430   8.105  10.990 -0.2646 -0.3890 -0.4286
  917MOL0     C23672   1.308   8.166  10.906 -1.0380 -0.1545  0.5188
  917MOL0     C23673   1.172   8.112  10.958 -0.6107 -0.3058 -0.0557
  917MOL0     C23674   1.075   8.126  10.849 -0.5299  0.4552 -0.2463
  917MOL0     C23675   0.938   8.067  10.881  0.9264 -0.3683  0.4835
  917MOL0     C23676   0.874   8.154  10.996 -0.2737  0.5282 -0.2820
  917MOL0     N23677   0.726   8.154  11.008 -0.0692  0.9260 -0.2332
  917MOL0     C23678   0.640   8.187  10.902 -0.1152  0.1621  0.9548
  917MOL0     C23679   0.514   8.179  10.960  0.2188  0.1630  0.2773
  917MOL0     C23680   0.374   8.185  10.895 -0.9102  0.1318 -0.2371
  917MOL0     C23681   0.286   8.281  10.976 -0.6042 -0.2052  0.7551
  917MOL0     C23682   0.132   8.254  10.953 -0.1631 -0.4619 -0.4640
  917MOL0     C23683   0.051   8.369  11.020  0.0776  0.0376  0.0864
  917MOL0     O23684  -0.084   8.336  11.041  0.1096  0.1045 -0.1916
  917MOL0     C23685  -0.164   8.442  11.073  0.2484  0.1452 -0.1868
  917MOL0     C23686  -0.134   8.535  11.172  0.1062  0.0388 -0.8710
  917MOL0     C23687  -0.230   8.626  11.217 -0.3585  0.7627 -0.3985
  917MOL0     C23688  -0.184   8.718  11.329 -0.2311  0.5480  0.2965
  917MOL0     C23689  -0.359   8.630  11.166 -0.2758 -0.1851 -0.1477
  917MOL0     C23690  -0.464   8.722  11.222  0.2207 -0.6231  0.2717
  917MOL0     O23691  -0.556   8.750  11.118  0.4558  0.1826 -0.6727
  917MOL0     C23692  -0.679   8.793  11.138  0.3575  0.1617 -0.0167
  917MOL0     C23693  -0.769   8.769  11.036 -0.6198 -0.3287 -0.1466
  917MOL0     C23694  -0.905   8.804  11.048 -0.6342 -0.1217  0.0664
  917MOL0     C23695  -0.945   8.881  11.160  0.5002  0.4635  0.3756
  917MOL0     O23696  -1.087   8.890  11.171  0.6462  0.8906 -0.0480
  917MOL0     C23697  -1.145   8.974  11.268 -0.1412  0.5771 -0.7203
  917MOL0     C23698  -1.301   8.969  11.232  0.2117  0.2515 -0.3566
  917MOL0     C23699  -1.374   9.071  11.326  1.1339 -0.1062 -0.6572
  917MOL0     C23700  -1.517   9.034  11.323 -0.3427 -0.0290 -0.4640
  917MOL0     C23701  -1.595   9.124  11.416 -0.1943  0.5571 -0.0547
  917MOL0     C23702  -1.751   9.103  11.412  0.4718  0.1408 -0.3132
  917MOL0     C23703  -1.814   9.168  11.535 -0.5458  0.3485 -0.2333
  917MOL0     C23704  -1.964   9.175  11.502 -0.2150 -0.2265  1.3343
  917MOL0    Cl23705  -2.062   9.258  11.621  0.2984  0.2824  0.0216
  917MOL0     C23706  -0.856   8.915  11.261  0.4247  0.3136 -0.1055
  917MOL0     C23707  -0.723   8.872  11.253 -0.4318 -0.4831 -0.3293
  917MOL0     O23708  -0.478   8.743  11.346 -0.0672  0.0372  0.1614
  917MOL0     C23709  -0.386   8.543  11.057 -0.5719  0.6558 -0.6109
  917MOL0     C23710  -0.293   8.445  11.016 -0.5667 -0.4841 -1.1053
  917MOL0     N23711   0.533   8.137  11.095  0.3167  0.1086 -0.2911
  917MOL0     N23712   0.657   8.132  11.120 -0.0734 -0.3808 -0.2132
  917MOL0     C23713   1.846   7.846  11.068  0.2607 -0.8604 -0.3799
  917MOL0     C23714   1.980   7.821  11.117  0.4933 -0.3389 -0.2754
  917MOL0     C23715   2.366   7.880  11.333  0.3996  0.1757  0.0484
  917MOL0     C23716   2.481   7.958  11.322  0.0007 -0.3229  0.3642
  917MOL0     C23717   2.610   7.901  11.338  0.0661 -0.3597 -0.4154
  917MOL0     C23718   2.634   7.768  11.370  0.1951  0.7338 -0.3181
  917MOL0     O23719   2.754   7.722  11.423  0.3186 -0.1109 -0.8822
  917MOL0     C23720   2.790   7.593  11.377  0.7163 -0.2681 -0.8457
  917MOL0     C23721   2.943   7.600  11.377 -0.9448 -0.6166  0.7513
  917MOL0     C23722   3.018   7.614  11.511 -0.1913  0.3304 -0.5259
  917MOL0     C23723   3.168   7.614  11.497 -0.2545 -0.2997 -0.3063
  917MOL0     C23724   3.218   7.621  11.630 -0.0845  1.1020 -0.3391
  917MOL0     C23725   3.265   7.627  11.739 -0.5140 -0.3507  0.4141
  917MOL0     C23726   2.523   7.686  11.378  0.7926  0.3069  0.7052
  917MOL0     C23727   2.388   7.737  11.368 -0.3142 -0.6275  0.0993
  917MOL0     H23728   1.961   7.945  11.431 -0.3571  0.1808  0.9745
  917MOL0     H23729   1.724   7.986  11.344 -1.1352 -0.2248 -1.8789
  917MOL0     H23730   1.520   7.983  11.294  1.5044 -0.4146  0.4977
  917MOL0     H23731   1.600   8.112  11.208  0.3479  0.9320 -2.2051
  917MOL0     H23732   1.342   7.975  11.137  0.6456 -0.5026 -0.4307
  917MOL0     H23733   1.378   8.133  11.208 -1.9350 -0.2484  0.3603
  917MOL0     H23734   1.509   8.180  10.992 -1.6942  1.1926 -0.9926
  917MOL0     H23735   1.471   8.023  10.930  1.0611  0.0955 -0.2079
  917MOL0     H23736   1.302   8.274  10.923  0.7302  0.1057 -0.2298
  917MOL0     H23737   1.329   8.149  10.800 -2.3590 -0.6267  0.3161
  917MOL0     H23738   1.192   8.008  10.985 -0.3749 -0.3870 -0.5222
  917MOL0     H23739   1.138   8.167  11.046 -2.5887 -0.8199 -0.4658
  917MOL0     H23740   1.075   8.230  10.818 -1.1284  1.1460  1.8877
  917MOL0     H23741   1.104   8.071  10.759 -1.6282  0.1102 -0.4064
  917MOL0     H23742   0.868   8.075  10.797 -0.1638  3.5487  1.5180
  917MOL0     H23743   0.950   7.966  10.920 -1.9111 -0.5913  0.9738
  917MOL0     H23744   0.911   8.255  10.977  1.4598  0.6761  3.1652
  917MOL0     H23745   0.918   8.125  11.092 -1.5960  0.9704  0.4964
  917MOL0     H23746   0.673   8.218  10.804  3.7542 -0.2193  1.9872
  917MOL0     H23747   0.368   8.210  10.789 -1.0451  0.3342 -0.1830
  917MOL0     H23748   0.322   8.089  10.896 -0.7528  0.0304 -1.2224
  917MOL0     H23749   0.306   8.384  10.943 -0.6094 -0.3987  0.1245
  917MOL0     H23750   0.303   8.268  11.083  0.9117 -1.4915  0.3943
  917MOL0     H23751   0.113   8.161  11.008  0.5765 -0.7506 -0.6838
  917MOL0     H23752   0.109   8.244  10.846 -1.2454  1.4088 -0.4440
  917MOL0     H23753   0.062   8.457  10.956 -0.3512 -0.0564 -0.1173
  917MOL0     H23754   0.089   8.389  11.121  0.3008 -0.4138  0.0916
  917MOL0     H23755  -0.042   8.519  11.227 -0.7107 -0.7239  0.3537
  917MOL0     H23756  -0.076   8.731  11.327 -0.2735  1.1065  1.3071
  917MOL0     H23757  -0.226   8.819  11.334  3.9625  2.5778 -0.6894
  917MOL0     H23758  -0.196   8.670  11.426  1.0906 -1.2062 -0.3582
  917MOL0     H23759  -0.740   8.711  10.948  0.3961  0.0579 -0.0776
  917MOL0     H23760  -0.966   8.778  10.962 -1.1344  0.8556  0.1051
  917MOL0     H23761  -1.130   8.941  11.371 -0.3315  4.2321  0.6348
  917MOL0     H23762  -1.101   9.073  11.252  1.8483 -0.3723 -1.6035
  917MOL0     H23763  -1.311   9.002  11.129 -1.3320  1.1127  0.0335
  917MOL0     H23764  -1.340   8.867  11.244  0.6852  0.3745  3.8428
  917MOL0     H23765  -1.367   9.175  11.293 -1.7466  0.5473  0.4679
  917MOL0     H23766  -1.330   9.068  11.426  1.9940  1.2326 -0.9715
  917MOL0     H23767  -1.552   9.041  11.219 -1.4441  1.0960 -0.0510
  917MOL0     H23768  -1.520   8.932  11.361  2.1615  0.3778  1.0216
  917MOL0     H23769  -1.564   9.228  11.404 -1.3912  0.9051 -0.2104
  917MOL0     H23770  -1.563   9.086  11.513 -2.0118  0.5427  0.5839
  917MOL0     H23771  -1.796   9.144  11.321 -0.5802  0.1957  0.2058
  917MOL0     H23772  -1.773   8.996  11.409  1.1377  0.0104 -3.1744
  917MOL0     H23773  -1.772   9.267  11.549 -0.4508  0.1672  0.8126
  917MOL0     H23774  -1.790   9.119  11.630  0.1917  3.5030  1.3129
  917MOL0     H23775  -2.008   9.076  11.496 -2.2445  0.6962 -3.4689
  917MOL0     H23776  -1.974   9.226  11.406 -1.4172  0.6644  1.9034
  917MOL0     H23777  -0.882   8.968  11.352  2.2439 -3.2334  2.7260
  917MOL0     H23778  -0.660   8.893  11.339 -1.0172  0.0779 -0.0369
  917MOL0     H23779  -0.488   8.531  11.021 -0.5612  0.7528 -0.6762
  917MOL0     H23780  -0.316   8.366  10.944  3.0006 -0.2067 -2.7252
  917MOL0     H23781   1.807   7.811  10.973  1.0099 -1.1603 -0.5851
  917MOL0     H23782   2.056   7.764  11.064  1.3722  0.1990  0.3572
  917MOL0     H23783   2.486   8.062  11.290  0.4696 -0.5384 -0.2935
  917MOL0     H23784   2.703   7.956  11.339  1.3164 -2.3734  1.1656
  917MOL0     H23785   2.742   7.533  11.454  0.9419 -0.2289 -0.6713
  917MOL0     H23786   2.753   7.563  11.278  2.8172  0.2556 -1.8560
  917MOL0     H23787   2.977   7.680  11.310  0.6582 -3.8183 -2.6228
  917MOL0     H23788   2.978   7.505  11.335  1.7578  0.9033 -0.7517
  917MOL0     H23789   2.994   7.527  11.572  1.4368  0.1226 -0.1347
  917MOL0     H23790   2.992   7.707  11.563 -0.5366  0.3115 -0.6594
  917MOL0     H23791   3.201   7.702  11.441  2.6508  0.4752  2.3237
  917MOL0     H23792   3.205   7.525  11.445  2.2523 -0.3815  1.4355
  917MOL0     H23793   3.325   7.644  11.827 -0.1876 -2.3943  0.6377
  917MOL0     H23794   2.535   7.580  11.397  3.0629  0.1373 -1.2039
  917MOL0     H23795   2.315   7.658  11.379  3.4297 -4.3438  0.9440
  918MOL0     O23796   1.495   8.835   8.379  0.8255 -0.1933  0.5908
  918MOL0     C23797   1.494   8.748   8.470 -0.4594 -0.3003  0.4952
  918MOL0     O23798   1.395   8.737   8.566 -0.3152 -0.2239 -0.4796
  918MOL0     C23799   1.269   8.788   8.547 -0.0902  0.2594 -0.5042
  918MOL0     C23800   1.225   8.867   8.440  0.1888  0.5273  0.3506
  918MOL0     C23801   1.088   8.907   8.440  0.7019  0.4818  0.0065
  918MOL0     C23802   0.998   8.878   8.549  0.2486 -0.3071 -0.6482
  918MOL0     O23803   0.873   8.935   8.549  0.3628  0.4611 -0.2431
  918MOL0     C23804   0.790   8.925   8.667 -0.3945  0.2495  0.5974
  918MOL0     C23805   0.650   9.003   8.647 -0.7178 -0.1819  0.5677
  918MOL0     C23806   0.577   8.934   8.536 -0.5600 -0.5567 -0.1454
  918MOL0     C23807   0.432   8.991   8.521  0.3273  0.1615  0.1647
  918MOL0     C23808   0.364   8.945   8.401  0.9664 -0.5028 -0.4363
  918MOL0     C23809   0.223   9.004   8.399  0.0358  1.1324 -0.0262
  918MOL0     C23810   0.145   8.932   8.287  0.1673 -0.2901  0.0767
  918MOL0     C23811   0.025   9.014   8.242 -0.3390 -0.4588 -0.7813
  918MOL0     N23812  -0.075   8.945   8.170 -0.2481 -0.3203 -0.1754
  918MOL0     C23813  -0.205   8.921   8.213 -0.0004  0.0595 -0.2513
  918MOL0     C23814  -0.251   8.827   8.122  1.2457 -0.6013 -0.0089
  918MOL0     C23815  -0.387   8.764   8.110 -0.8561 -0.2097  0.3872
  918MOL0     C23816  -0.485   8.865   8.170 -1.4261 -0.1095  0.2012
  918MOL0     C23817  -0.637   8.825   8.174 -0.9886  0.8747  0.2268
  918MOL0     C23818  -0.706   8.809   8.034  0.0482  0.5251  0.1576
  918MOL0     O23819  -0.845   8.797   8.056  0.7245 -0.1371 -0.2698
  918MOL0     C23820  -0.938   8.766   7.951 -1.1336 -0.0749  0.0492
  918MOL0     C23821  -0.911   8.746   7.815 -0.4745  0.6736  0.1617
  918MOL0     C23822  -1.002   8.684   7.731  0.4158 -0.1524 -0.1078
  918MOL0     C23823  -0.956   8.666   7.586  0.1631  0.0460 -0.1101
  918MOL0     C23824  -1.136   8.657   7.784  0.7944 -0.1051  0.2755
  918MOL0     C23825  -1.244   8.580   7.701  0.8008 -0.6024  0.6425
  918MOL0     O23826  -1.378   8.592   7.740  0.1886  0.1105  0.3114
  918MOL0     C23827  -1.473   8.546   7.654  0.1161  0.0645  0.2616
  918MOL0     C23828  -1.547   8.436   7.697  0.4892 -0.8449 -0.5700
  918MOL0     C23829  -1.642   8.372   7.617 -0.2422 -0.0509 -0.3702
  918MOL0     C23830  -1.669   8.422   7.491 -0.0345  0.6799 -0.3547
  918MOL0     O23831  -1.766   8.352   7.424 -0.1443 -0.1352  0.6189
  918MOL0     C23832  -1.802   8.392   7.294  0.2953 -0.1567  1.2372
  918MOL0     C23833  -1.937   8.323   7.259 -1.0433  0.8847  0.9266
  918MOL0     C23834  -2.049   8.379   7.350  0.4861 -0.4136 -0.2170
  918MOL0     C23835  -2.151   8.269   7.398 -0.8540 -0.2116  0.3394
  918MOL0     C23836  -2.256   8.322   7.500 -0.1220 -0.2652  0.6419
  918MOL0     C23837  -2.209   8.289   7.643  1.0271  0.3538  0.8373
  918MOL0     C23838  -2.301   8.334   7.757  0.2299 -0.6916 -0.1096
  918MOL0     C23839  -2.343   8.486   7.744 -0.7328  0.3865 -0.5426
  918MOL0    Cl23840  -2.497   8.499   7.653 -0.2464  0.3400  0.1496
  918MOL0     C23841  -1.593   8.529   7.442 -0.7389  0.6217  0.1525
  918MOL0     C23842  -1.497   8.589   7.527  0.1989 -0.4524  0.1467
  918MOL0     O23843  -1.210   8.488   7.633 -0.0682 -0.0204 -0.1048
  918MOL0     C23844  -1.163   8.687   7.916 -0.3545 -0.3662 -0.6637
  918MOL0     C23845  -1.066   8.736   7.998 -0.5580 -0.2241 -0.2058
  918MOL0     N23846  -0.155   8.802   8.029 -0.0705 -0.4290 -0.1309
  918MOL0     N23847  -0.050   8.864   8.062 -0.6743 -0.3743  0.0690
  918MOL0     C23848   1.049   8.797   8.653 -0.0877 -0.3706  0.1830
  918MOL0     C23849   1.178   8.746   8.647  0.0544 -1.1202  0.1776
  918MOL0     C23850   1.604   8.646   8.474 -0.3196 -0.0803 -0.0835
  918MOL0     C23851   1.616   8.552   8.577 -0.4386  0.4101 -0.3356
  918MOL0     C23852   1.724   8.465   8.582 -0.3381  0.7711  0.4555
  918MOL0     C23853   1.823   8.458   8.476  0.7002 -0.2300 -0.0615
  918MOL0     O23854   1.905   8.353   8.491  0.0322 -0.0744 -0.4813
  918MOL0     C23855   2.039   8.384   8.440 -0.0813  0.4634  1.5579
  918MOL0     C23856   2.133   8.359   8.551 -0.2044 -0.6436  0.1803
  918MOL0     C23857   2.112   8.458   8.666 -1.3205  1.1049  0.0336
  918MOL0     C23858   2.153   8.605   8.620  0.4235  0.5478 -0.4084
  918MOL0     C23859   2.301   8.634   8.625 -0.1391 -0.8395  0.9508
  918MOL0     C23860   2.420   8.667   8.628  0.4963 -0.2730 -0.2714
  918MOL0     C23861   1.812   8.557   8.371  0.0774  0.5452  0.6324
  918MOL0     C23862   1.707   8.647   8.374 -0.4020  0.1994  0.5323
  918MOL0     H23863   1.287   8.906   8.360  0.2333  0.4828  0.3632
  918MOL0     H23864   1.055   8.965   8.354  1.2502  1.2340  0.2852
  918MOL0     H23865   0.767   8.821   8.692  2.5144 -1.0059 -1.3416
  918MOL0     H23866   0.851   8.974   8.743  2.2220  0.8480 -1.7318
  918MOL0     H23867   0.587   8.995   8.736 -1.6410 -4.7889 -0.2431
  918MOL0     H23868   0.664   9.110   8.632 -0.5892 -0.3227 -0.3939
  918MOL0     H23869   0.635   8.951   8.445  1.5813  0.4836  1.3153
  918MOL0     H23870   0.589   8.828   8.560  2.0924 -0.1421  0.6657
  918MOL0     H23871   0.381   8.945   8.607  2.2665 -0.7037  0.9100
  918MOL0     H23872   0.430   9.101   8.522  1.7904  0.2555 -1.7916
  918MOL0     H23873   0.413   8.974   8.307 -1.2608 -0.8546 -1.7807
  918MOL0     H23874   0.358   8.836   8.406 -0.0359 -0.4288  0.2201
  918MOL0     H23875   0.164   8.990   8.489 -0.5561  0.5190 -0.5008
  918MOL0     H23876   0.232   9.113   8.392 -0.6137  1.6752  4.5636
  918MOL0     H23877   0.204   8.930   8.195 -0.8192 -1.2489 -0.5547
  918MOL0     H23878   0.127   8.828   8.317  0.4087 -0.3016  0.1809
  918MOL0     H23879   0.056   9.101   8.183 -0.6128 -0.0291 -0.3043
  918MOL0     H23880  -0.029   9.052   8.329 -1.4247  0.0966 -1.6711
  918MOL0     H23881  -0.247   8.941   8.311  0.6282 -1.0452  0.2620
  918MOL0     H23882  -0.398   8.735   8.006 -1.3538  0.3121  0.2879
  918MOL0     H23883  -0.382   8.679   8.179  3.7807  0.0349  0.6813
  918MOL0     H23884  -0.486   8.963   8.122 -1.9633  0.8813  2.1201
  918MOL0     H23885  -0.451   8.881   8.273  0.8910  1.7375 -0.7382
  918MOL0     H23886  -0.674   8.904   8.241  0.2992 -0.3341  2.5055
  918MOL0     H23887  -0.642   8.729   8.227 -1.8753 -0.1614 -1.6305
  918MOL0     H23888  -0.675   8.714   7.990  2.6089  0.9212  0.9703
  918MOL0     H23889  -0.701   8.891   7.962 -1.1152  0.1178 -0.4092
  918MOL0     H23890  -0.814   8.782   7.783  0.6910 -0.4999  2.2044
  918MOL0     H23891  -0.874   8.735   7.569  0.4564 -1.0080 -3.7209
  918MOL0     H23892  -0.926   8.563   7.565 -2.3695 -0.4363 -1.8258
  918MOL0     H23893  -1.037   8.683   7.514 -0.7747  0.8835  1.0900
  918MOL0     H23894  -1.543   8.405   7.801  0.9319  2.3722  0.4901
  918MOL0     H23895  -1.689   8.286   7.664 -0.9212 -0.6055 -1.9984
  918MOL0     H23896  -1.805   8.500   7.276  0.2409 -0.4221 -0.6537
  918MOL0     H23897  -1.733   8.360   7.215 -1.0630  1.4022 -0.6836
  918MOL0     H23898  -1.955   8.337   7.152 -0.4438 -1.0521  0.5401
  918MOL0     H23899  -1.932   8.216   7.280 -1.2053  0.6924  0.0179
  918MOL0     H23900  -2.092   8.463   7.294  0.4805 -0.2381  0.0515
  918MOL0     H23901  -2.006   8.423   7.440 -0.5421  1.3526 -0.5426
  918MOL0     H23902  -2.217   8.222   7.324 -0.0426 -3.6825  1.6139
  918MOL0     H23903  -2.085   8.197   7.447 -2.7210 -1.0717  1.7632
  918MOL0     H23904  -2.349   8.274   7.467 -0.1869  1.0078 -1.2655
  918MOL0     H23905  -2.271   8.431   7.497 -2.8570 -0.5588  0.7796
  918MOL0     H23906  -2.192   8.181   7.656 -1.6738 -0.1880  0.5109
  918MOL0     H23907  -2.112   8.333   7.665  0.9450  0.1040  1.7499
  918MOL0     H23908  -2.237   8.320   7.844  1.0934 -0.1836 -0.6441
  918MOL0     H23909  -2.393   8.277   7.773 -1.1226  0.6842 -2.3291
  918MOL0     H23910  -2.269   8.550   7.694 -0.4791 -0.0304 -0.7078
  918MOL0     H23911  -2.363   8.539   7.837 -0.1376  1.3398 -0.9467
  918MOL0     H23912  -1.604   8.550   7.336 -4.4470  0.6973  0.4428
  918MOL0     H23913  -1.439   8.677   7.501 -1.8296  1.6626  2.2200
  918MOL0     H23914  -1.257   8.670   7.967  0.5929 -0.7656  1.0253
  918MOL0     H23915  -1.084   8.752   8.104 -1.7707  0.4533 -0.4894
  918MOL0     H23916   0.989   8.760   8.736 -0.2944 -1.6249 -0.4971
  918MOL0     H23917   1.227   8.689   8.725  0.6350  1.7524  2.0456
  918MOL0     H23918   1.555   8.563   8.666 -0.4824  0.3919 -0.3639
  918MOL0     H23919   1.732   8.391   8.660 -2.2705 -0.9452 -0.8453
  918MOL0     H23920   2.053   8.322   8.350  0.1369  1.4483  0.8964
  918MOL0     H23921   2.043   8.487   8.402 -1.9837 -0.1087 -0.4615
  918MOL0     H23922   2.233   8.383   8.513 -0.2191 -1.0569 -0.1221
  918MOL0     H23923   2.120   8.256   8.585 -1.1491 -1.2359 -1.8152
  918MOL0     H23924   2.171   8.422   8.751  0.2462 -0.7361 -1.7333
  918MOL0     H23925   2.011   8.456   8.707 -0.7857 -2.4133  1.4668
  918MOL0     H23926   2.113   8.677   8.693 -0.0189 -0.3865  0.2946
  918MOL0     H23927   2.118   8.635   8.521 -1.2851 -1.7833 -0.5937
  918MOL0     H23928   2.512   8.720   8.644 -0.3705  1.0642  0.5197
  918MOL0     H23929   1.875   8.566   8.283 -0.4456  0.9632  0.2969
  918MOL0     H23930   1.691   8.707   8.285  1.4223 -0.6473 -0.4335
  919MOL0     O23931   3.904   4.994  10.522  0.3924  0.5376 -0.7687
  919MOL0     C23932   4.004   4.984  10.593 -0.1974  0.3378 -0.1337
  919MOL0     O23933   4.001   4.992  10.729 -0.2062 -0.2397 -0.4358
  919MOL0     C23934   3.883   5.029  10.785  1.2569 -0.2402 -1.1608
  919MOL0     C23935   3.873   5.154  10.854  0.3535 -0.0222 -0.1443
  919MOL0     C23936   3.747   5.192  10.906 -0.3117  0.3479  0.4197
  919MOL0     C23937   3.645   5.099  10.923 -0.1443 -0.0169  0.1072
  919MOL0     O23938   3.525   5.121  10.992 -0.0794 -0.0808  0.6218
  919MOL0     C23939   3.517   5.203  11.108 -0.4130 -0.7943  0.4078
  919MOL0     C23940   3.380   5.165  11.160  0.3972 -0.2422 -0.7161
  919MOL0     C23941   3.330   5.246  11.281 -0.2276  0.4772 -0.6645
  919MOL0     C23942   3.179   5.238  11.289  0.3546  0.0069 -0.2856
  919MOL0     C23943   3.110   5.325  11.396 -0.1318 -0.7241 -0.5048
  919MOL0     C23944   3.115   5.471  11.349 -0.1507  0.2438  0.2062
  919MOL0     C23945   3.015   5.560  11.419 -0.0460  0.5080  0.0136
  919MOL0     C23946   3.022   5.703  11.370  0.0769 -0.2970  0.0953
  919MOL0     N23947   2.950   5.804  11.449  0.6982  0.3454  0.2488
  919MOL0     C23948   2.818   5.794  11.484 -0.0452 -0.2777  0.6287
  919MOL0     C23949   2.790   5.919  11.535  0.4426  0.0280  0.1163
  919MOL0     C23950   2.652   5.952  11.587  0.1361 -0.7498 -1.4354
  919MOL0     C23951   2.627   5.886  11.718  0.2918 -0.1654 -0.2364
  919MOL0     C23952   2.509   5.965  11.788 -0.0717  0.1449  0.8278
  919MOL0     C23953   2.451   5.879  11.903 -0.6065 -0.2711  0.1205
  919MOL0     O23954   2.546   5.883  12.007  0.3414 -0.4962 -0.0858
  919MOL0     C23955   2.509   5.826  12.130 -0.3685  0.4090 -0.5939
  919MOL0     C23956   2.392   5.756  12.155  0.5156  0.4453  0.5568
  919MOL0     C23957   2.365   5.695  12.277  0.2859  0.2501  0.0397
  919MOL0     C23958   2.236   5.622  12.287  0.3748 -0.4049  0.1125
  919MOL0     C23959   2.454   5.712  12.390 -0.6819 -0.1963  0.2902
  919MOL0     C23960   2.441   5.637  12.520 -0.3792  1.3593  0.3478
  919MOL0     O23961   2.561   5.613  12.587  0.3934 -0.0521 -0.0062
  919MOL0     C23962   2.549   5.575  12.721 -0.6347 -0.7429 -0.0151
  919MOL0     C23963   2.675   5.529  12.767  0.0920  0.1870 -0.2610
  919MOL0     C23964   2.690   5.490  12.902  0.3044 -0.8501 -0.3635
  919MOL0     C23965   2.579   5.482  12.980  0.0468  0.2477  0.4630
  919MOL0     O23966   2.598   5.423  13.106 -0.9552 -0.3615 -0.0271
  919MOL0     C23967   2.527   5.480  13.220 -0.4369  0.0619  0.4615
  919MOL0     C23968   2.631   5.555  13.304 -0.1694  0.1978  0.6252
  919MOL0     C23969   2.708   5.662  13.225 -0.4646  0.5619 -0.5800
  919MOL0     C23970   2.799   5.748  13.313  0.5244  0.4012 -0.1914
  919MOL0     C23971   2.906   5.828  13.227 -0.1865 -0.2733 -0.3388
  919MOL0     C23972   2.853   5.887  13.093 -0.0783  0.4863 -0.2255
  919MOL0     C23973   2.746   5.993  13.136 -0.3635 -0.7399 -0.4076
  919MOL0     C23974   2.794   6.122  13.192 -0.2666  0.1803 -0.0996
  919MOL0    Cl23975   2.963   6.147  13.132  0.4410  0.1739  0.3722
  919MOL0     C23976   2.450   5.523  12.940 -0.0050 -0.4723  0.3822
  919MOL0     C23977   2.433   5.572  12.805  0.3490  0.0717 -0.1472
  919MOL0     O23978   2.335   5.588  12.544 -0.0428  0.7010 -0.1737
  919MOL0     C23979   2.574   5.789  12.367  0.2330 -0.4001  0.4953
  919MOL0     C23980   2.594   5.845  12.238 -0.3934  1.1672  0.4569
  919MOL0     N23981   2.902   6.000  11.544 -0.6212 -0.2853 -0.6632
  919MOL0     N23982   2.991   5.927  11.481 -0.0704 -0.1646  0.1749
  919MOL0     C23983   3.648   4.981  10.856 -0.6621  0.6067  0.3011
  919MOL0     C23984   3.768   4.948  10.785  0.6406 -0.7082 -0.2561
  919MOL0     C23985   4.138   4.984  10.519 -0.1323 -0.2894 -0.8315
  919MOL0     C23986   4.128   5.008  10.384 -0.4519 -0.0463  0.5195
  919MOL0     C23987   4.257   5.004  10.313 -0.3398 -0.8136  0.4533
  919MOL0     C23988   4.375   4.969  10.373  0.2405  0.1110 -0.0173
  919MOL0     O23989   4.496   4.949  10.302  0.4633 -0.5170  0.0144
  919MOL0     C23990   4.496   4.967  10.154  0.4861  0.2753 -0.0148
  919MOL0     C23991   4.637   4.933  10.108  0.0200  0.2362  0.1532
  919MOL0     C23992   4.655   4.784  10.080  0.0818  0.2750 -0.4319
  919MOL0     C23993   4.655   4.685  10.203 -0.5034 -0.6112  0.0156
  919MOL0     C23994   4.753   4.701  10.314  0.1748 -0.1421  0.0712
  919MOL0     C23995   4.845   4.718  10.394 -0.3688  0.2857  0.3836
  919MOL0     C23996   4.374   4.950  10.513 -0.7222 -0.2109  0.1890
  919MOL0     C23997   4.256   4.955  10.587 -0.2993 -0.2817  0.6000
  919MOL0     H23998   3.960   5.219  10.852 -1.1040  2.3571  3.2363
  919MOL0     H23999   3.733   5.293  10.943 -1.4191  0.3670  0.0206
  919MOL0     H24000   3.588   5.179  11.187 -0.0883  2.1055  1.1152
  919MOL0     H24001   3.519   5.311  11.091 -1.7637 -1.0680 -1.9358
  919MOL0     H24002   3.312   5.194  11.080 -0.8828 -0.7067  0.1680
  919MOL0     H24003   3.382   5.058  11.185  2.8605 -0.0384  0.3412
  919MOL0     H24004   3.361   5.198  11.375  0.0640 -1.7843 -1.8388
  919MOL0     H24005   3.375   5.346  11.279 -1.4673  1.0462 -0.7711
  919MOL0     H24006   3.141   5.272  11.192  0.7985 -0.3796 -0.6046
  919MOL0     H24007   3.154   5.131  11.292  1.2391 -0.2024  0.0482
  919MOL0     H24008   3.007   5.297  11.420  0.4178 -1.2075  1.4484
  919MOL0     H24009   3.176   5.318  11.482  2.0737  0.5389 -1.9827
  919MOL0     H24010   3.215   5.512  11.371 -0.7817  1.1539  1.5144
  919MOL0     H24011   3.098   5.475  11.241  2.3663 -1.2066 -0.3210
  919MOL0     H24012   2.915   5.523  11.394  0.7083 -1.7061  0.0553
  919MOL0     H24013   3.020   5.559  11.528 -1.3578  2.7825  0.1651
  919MOL0     H24014   2.995   5.694  11.264 -1.3279  2.2220  0.1678
  919MOL0     H24015   3.122   5.742  11.386 -0.5177  0.4616  2.2849
  919MOL0     H24016   2.764   5.705  11.454  0.9820 -0.2914 -1.2907
  919MOL0     H24017   2.643   6.061  11.586  1.8753 -0.5553  0.1694
  919MOL0     H24018   2.581   5.916  11.511 -1.1013 -2.6322  0.4640
  919MOL0     H24019   2.713   5.897  11.785 -0.7489  1.0820  0.9576
  919MOL0     H24020   2.592   5.783  11.702 -1.5747  0.3375  0.3922
  919MOL0     H24021   2.439   5.982  11.705 -0.0904  0.8675  0.9885
  919MOL0     H24022   2.554   6.059  11.820  1.9418 -0.0866 -1.1026
  919MOL0     H24023   2.437   5.778  11.865 -0.0567 -0.2035 -0.2734
  919MOL0     H24024   2.351   5.914  11.931  0.1471  0.2303  2.3102
  919MOL0     H24025   2.320   5.735  12.077 -1.0962 -0.2224  2.1413
  919MOL0     H24026   2.176   5.671  12.364  0.5880 -1.4527  0.9762
  919MOL0     H24027   2.178   5.620  12.195 -1.1401 -1.9138  1.0297
  919MOL0     H24028   2.249   5.517  12.317 -2.4097 -0.3289  1.9483
  919MOL0     H24029   2.764   5.514  12.707  0.6380 -0.2553  0.6304
  919MOL0     H24030   2.790   5.468  12.937  1.5144  1.3686 -2.1781
  919MOL0     H24031   2.450   5.550  13.187  0.1084 -0.3419 -1.8068
  919MOL0     H24032   2.487   5.399  13.281  0.3881  0.6333  1.8155
  919MOL0     H24033   2.585   5.609  13.388  0.4720 -1.2397  1.9475
  919MOL0     H24034   2.702   5.478  13.333  0.0282 -0.9379 -2.5287
  919MOL0     H24035   2.640   5.729  13.172 -0.9448 -0.2780 -1.0394
  919MOL0     H24036   2.774   5.606  13.158  0.2097 -0.4818  0.9018
  919MOL0     H24037   2.746   5.821  13.375  0.0622 -0.7611  0.8389
  919MOL0     H24038   2.866   5.695  13.382 -1.9840  1.1561  3.0569
  919MOL0     H24039   2.987   5.762  13.198  0.6582 -0.2411  1.7870
  919MOL0     H24040   2.938   5.905  13.298  0.8539 -1.8194  0.9385
  919MOL0     H24041   2.936   5.922  13.031  1.1967 -0.8959  0.6305
  919MOL0     H24042   2.790   5.819  13.035 -1.3316  0.8001  0.7270
  919MOL0     H24043   2.690   5.945  13.217  2.9121 -2.5833  0.9714
  919MOL0     H24044   2.673   6.016  13.058  1.9656  1.7228 -2.0631
  919MOL0     H24045   2.796   6.114  13.301 -0.3188  1.6730  0.0379
  919MOL0     H24046   2.724   6.200  13.161  2.2374  3.4093  1.7614
  919MOL0     H24047   2.361   5.501  12.998 -0.9155 -0.1168 -0.8350
  919MOL0     H24048   2.330   5.598  12.783  0.2154 -1.4896 -1.5545
  919MOL0     H24049   2.652   5.802  12.440 -0.7372  3.0893  1.0586
  919MOL0     H24050   2.688   5.893  12.215 -0.1654  0.3935 -0.3173
  919MOL0     H24051   3.571   4.905  10.862  2.7445 -3.3923 -1.0923
  919MOL0     H24052   3.781   4.852  10.736 -1.4253 -0.1625 -1.9961
  919MOL0     H24053   4.046   5.026  10.315  0.1458 -1.6513 -0.6839
  919MOL0     H24054   4.253   5.028  10.207  2.4273  2.7158  0.9561
  919MOL0     H24055   4.425   4.893  10.118  1.0343  0.0266 -0.6027
  919MOL0     H24056   4.477   5.070  10.123  0.0148  0.0814 -0.3768
  919MOL0     H24057   4.719   4.960  10.176  0.3689 -0.5926  0.0719
  919MOL0     H24058   4.653   4.987  10.014  1.3564  2.4340  1.5307
  919MOL0     H24059   4.752   4.769  10.031 -0.7208 -1.3487 -1.6103
  919MOL0     H24060   4.581   4.751  10.007  1.4053  0.5568 -1.9698
  919MOL0     H24061   4.663   4.584  10.162  0.7279 -0.4331 -0.2171
  919MOL0     H24062   4.554   4.687  10.247 -0.0744 -0.6127  1.0243
  919MOL0     H24063   4.933   4.721  10.455  0.2645 -0.8357 -0.4192
  919MOL0     H24064   4.465   4.915  10.560 -0.8345 -0.7610  0.0025
  919MOL0     H24065   4.262   4.933  10.693  0.8608  0.5220  0.7231
  920MOL0     O24066  11.348  10.754   9.609  0.4904  0.4505 -0.4773
  920MOL0     C24067  11.382  10.810   9.716 -0.1001 -0.5944  0.4414
  920MOL0     O24068  11.302  10.905   9.771 -0.0097 -0.9066 -0.3471
  920MOL0     C24069  11.176  10.920   9.724 -0.4433  0.0762 -0.3813
  920MOL0     C24070  11.068  10.855   9.786 -0.0117 -0.0554 -0.4597
  920MOL0     C24071  10.936  10.868   9.749 -0.4474  0.4572 -0.3906
  920MOL0     C24072  10.907  10.969   9.651  0.1706  0.4047  0.3095
  920MOL0     O24073  10.784  11.010   9.616  0.5701 -0.0293  0.5747
  920MOL0     C24074  10.665  10.959   9.681 -0.0172 -0.3092  0.5997
  920MOL0     C24075  10.624  10.822   9.654  0.1857  0.0124  0.5441
  920MOL0     C24076  10.530  10.775   9.761  0.0044  0.7806 -0.1561
  920MOL0     C24077  10.384  10.829   9.745 -0.0914  0.5484 -0.8588
  920MOL0     C24078  10.296  10.770   9.858  0.0134 -0.1255 -0.0316
  920MOL0     C24079  10.155  10.834   9.854  0.9373 -0.1800  0.3132
  920MOL0     C24080  10.065  10.789   9.736  0.9451  0.4437  0.0868
  920MOL0     C24081   9.912  10.785   9.771 -0.3422  0.3942  0.4000
  920MOL0     N24082   9.856  10.922   9.762  0.5244  0.7107  0.0681
  920MOL0     C24083   9.823  10.982   9.645  0.7611 -0.5029 -0.6427
  920MOL0     C24084   9.734  11.077   9.683 -0.1113 -0.6615 -0.9535
  920MOL0     C24085   9.647  11.158   9.595 -0.2520 -0.3313  0.0723
  920MOL0     C24086   9.529  11.228   9.662 -0.1612 -0.5539 -0.3435
  920MOL0     C24087   9.439  11.294   9.560 -0.3071  0.6262  0.1125
  920MOL0     C24088   9.304  11.320   9.617  0.1810  0.4732 -0.5151
  920MOL0     O24089   9.222  11.210   9.645 -0.2542  0.4733 -0.4200
  920MOL0     C24090   9.087  11.240   9.669 -0.4354  0.8162  1.1231
  920MOL0     C24091   9.023  11.354   9.641  0.6479 -0.1481 -0.2226
  920MOL0     C24092   8.889  11.364   9.679  0.3757  0.3997  1.0431
  920MOL0     C24093   8.806  11.479   9.620  0.0476  0.7425  0.5752
  920MOL0     C24094   8.830  11.275   9.777 -0.3821 -0.8716  0.4734
  920MOL0     C24095   8.694  11.284   9.841 -0.3224 -0.7123  0.1780
  920MOL0     O24096   8.668  11.181   9.923  0.3664 -0.6440  0.7950
  920MOL0     C24097   8.551  11.182   9.994 -0.2074  0.3489  0.3546
  920MOL0     C24098   8.541  11.261  10.102  0.5157 -0.0602  0.5631
  920MOL0     C24099   8.429  11.262  10.176  0.2364  0.5257 -0.5199
  920MOL0     C24100   8.313  11.191  10.127  0.2236  0.2483 -0.0568
  920MOL0     O24101   8.189  11.195  10.183 -0.0464  0.0598  0.1261
  920MOL0     C24102   8.173  11.271  10.305  0.4665 -0.1451 -0.6582
  920MOL0     C24103   8.031  11.258  10.347  1.2196  0.4334  0.1425
  920MOL0     C24104   7.992  11.122  10.406 -0.9916  0.1872 -0.5294
  920MOL0     C24105   7.958  11.014  10.302  0.0392 -0.5978 -0.0278
  920MOL0     C24106   7.821  11.039  10.226 -0.6208  0.4191 -0.3484
  920MOL0     C24107   7.719  11.002  10.328  0.1396  0.1983 -0.0030
  920MOL0     C24108   7.580  10.999  10.252  1.1610  0.3360  0.7751
  920MOL0     C24109   7.473  10.947  10.343 -1.0201  0.0475 -0.4716
  920MOL0    Cl24110   7.334  10.911  10.245 -0.2601 -0.1545 -0.5087
  920MOL0     C24111   8.323  11.115  10.016 -0.2692 -0.3507  0.0278
  920MOL0     C24112   8.451  11.108   9.947  0.0250 -0.3419  1.1881
  920MOL0     O24113   8.625  11.383   9.815  1.1374  0.2041  0.1986
  920MOL0     C24114   8.911  11.166   9.805 -0.9151 -0.2959  0.8817
  920MOL0     C24115   9.025  11.135   9.736  0.0156 -0.5188 -1.1123
  920MOL0     N24116   9.724  11.081   9.826 -0.1865  0.4867  0.3652
  920MOL0     N24117   9.800  10.987   9.864 -0.3099 -0.2174 -0.1723
  920MOL0     C24118  11.008  11.040   9.589  0.2833 -0.8072 -0.1328
  920MOL0     C24119  11.141  11.013   9.630 -0.1332  0.4829 -0.0282
  920MOL0     C24120  11.505  10.774   9.774 -0.2537 -0.0230  0.2538
  920MOL0     C24121  11.517  10.801   9.913 -0.5932 -0.0553 -0.4204
  920MOL0     C24122  11.641  10.757   9.977 -0.1113  0.0847  0.1787
  920MOL0     C24123  11.749  10.709   9.916  0.0988  0.1730 -0.0737
  920MOL0     O24124  11.865  10.702   9.988  0.3729 -0.2263 -0.2895
  920MOL0     C24125  11.946  10.584   9.963 -0.4488  0.7153 -0.1478
  920MOL0     C24126  12.029  10.556  10.085  0.4628  0.3739 -1.3792
  920MOL0     C24127  12.112  10.425  10.069 -0.5313  0.5843  0.0197
  920MOL0     C24128  12.247  10.428   9.989 -0.0735 -0.3246  0.8436
  920MOL0     C24129  12.345  10.530  10.029 -0.2811  0.9313  0.1737
  920MOL0     C24130  12.434  10.602  10.064  0.6398  0.1026 -0.4330
  920MOL0     C24131  11.738  10.692   9.777 -0.7303 -0.4320 -0.4967
  920MOL0     C24132  11.611  10.710   9.715  0.3472  0.3365  0.5318
  920MOL0     H24133  11.088  10.791   9.871 -2.4639 -2.5704 -1.6300
  920MOL0     H24134  10.856  10.810   9.794 -0.5585 -0.7822 -2.1044
  920MOL0     H24135  10.669  10.977   9.789 -1.9429 -0.1250  0.6868
  920MOL0     H24136  10.577  11.018   9.653  0.6977  1.1840  1.3552
  920MOL0     H24137  10.572  10.814   9.558 -0.1419  1.2904  0.5953
  920MOL0     H24138  10.710  10.754   9.651 -0.0696 -0.3442  1.1576
  920MOL0     H24139  10.536  10.666   9.758  2.2420  0.8666 -0.9980
  920MOL0     H24140  10.568  10.801   9.860 -0.8040  3.0751 -0.3804
  920MOL0     H24141  10.383  10.938   9.747 -1.2995  0.5508  1.0341
  920MOL0     H24142  10.346  10.786   9.652 -1.9049 -1.2386  0.6279
  920MOL0     H24143  10.271  10.664   9.845 -2.3681  0.6087 -2.3344
  920MOL0     H24144  10.344  10.803   9.951  0.7015 -2.3053  0.4454
  920MOL0     H24145  10.100  10.820   9.948 -1.1763  1.0958 -0.6505
  920MOL0     H24146  10.163  10.942   9.843 -3.4813  0.3890  0.9355
  920MOL0     H24147  10.075  10.863   9.656 -1.3148 -2.4198 -3.0740
  920MOL0     H24148  10.096  10.690   9.702 -1.8250 -0.4103 -0.1986
  920MOL0     H24149   9.890  10.735   9.865  0.1985  0.2477  0.4538
  920MOL0     H24150   9.865  10.738   9.683  0.1856  1.4421 -0.4627
  920MOL0     H24151   9.842  10.937   9.548  3.6903 -0.2713 -0.2706
  920MOL0     H24152   9.719  11.233   9.560 -1.1371  0.1930 -0.6539
  920MOL0     H24153   9.616  11.102   9.506  0.6130  1.4444 -1.4100
  920MOL0     H24154   9.560  11.296   9.741  1.4773 -0.0114 -1.4091
  920MOL0     H24155   9.476  11.143   9.707 -2.3179  1.2011  0.6304
  920MOL0     H24156   9.418  11.229   9.474  0.3015 -0.1546  0.5437
  920MOL0     H24157   9.486  11.386   9.524 -4.8241  3.1193 -0.2031
  920MOL0     H24158   9.265  11.394   9.546  0.6192  1.7652  0.5465
  920MOL0     H24159   9.322  11.374   9.711  0.4414  1.8868 -1.3400
  920MOL0     H24160   9.067  11.442   9.594  0.2581  0.3806  0.3790
  920MOL0     H24161   8.747  11.540   9.688 -2.9418 -1.0393 -0.2141
  920MOL0     H24162   8.873  11.552   9.574  3.7162  0.8325  5.3549
  920MOL0     H24163   8.729  11.435   9.556 -1.3171  3.2176  0.4082
  920MOL0     H24164   8.638  11.307  10.122  1.1507 -2.1490  2.5958
  920MOL0     H24165   8.425  11.313  10.272  0.8383 -1.8091  0.8169
  920MOL0     H24166   8.225  11.219  10.386 -0.0977  2.3251  1.3907
  920MOL0     H24167   8.201  11.376  10.293  1.6759 -0.7381 -4.5604
  920MOL0     H24168   7.998  11.338  10.413 -0.4875  0.4291 -0.6363
  920MOL0     H24169   7.959  11.286  10.270  0.7362 -0.2386  0.3399
  920MOL0     H24170   7.905  11.139  10.469  1.1403  0.6559  2.4697
  920MOL0     H24171   8.076  11.085  10.465  4.0846  1.2870 -6.0518
  920MOL0     H24172   8.040  11.017  10.229  0.6569 -1.9149  0.5747
  920MOL0     H24173   7.949  10.919  10.355 -3.3799 -0.8476 -0.7899
  920MOL0     H24174   7.818  10.971  10.140 -2.4761 -2.3612  1.7504
  920MOL0     H24175   7.810  11.143  10.195  1.7529  0.2638 -2.0755
  920MOL0     H24176   7.744  10.903  10.367  0.6744  1.0170  1.8177
  920MOL0     H24177   7.713  11.065  10.417  2.7277 -0.3154  0.6125
  920MOL0     H24178   7.584  10.928  10.168 -1.1156  0.7169  0.2766
  920MOL0     H24179   7.542  11.094  10.213 -0.9711 -0.4897  0.6936
  920MOL0     H24180   7.447  11.015  10.425  3.2629 -0.7644  1.8750
  920MOL0     H24181   7.505  10.859  10.399  2.9236  1.2295 -0.6039
  920MOL0     H24182   8.236  11.061   9.981  0.3678 -1.3512 -0.0587
  920MOL0     H24183   8.455  11.059   9.850 -1.1937  3.3868 -0.9538
  920MOL0     H24184   8.877  11.086   9.870 -2.6352 -0.0883  0.2741
  920MOL0     H24185   9.086  11.045   9.747  0.4615 -0.0344  0.6600
  920MOL0     H24186  10.981  11.117   9.519 -0.8155 -0.0302  1.0924
  920MOL0     H24187  11.214  11.072   9.576  4.0326 -1.3066  3.0864
  920MOL0     H24188  11.434  10.842   9.969 -0.2406 -2.0825  1.7347
  920MOL0     H24189  11.659  10.782  10.081  1.6012 -0.2395 -0.0045
  920MOL0     H24190  11.883  10.495   9.951  0.3640  0.1159 -0.0160
  920MOL0     H24191  12.005  10.609   9.874 -1.0011 -2.3797 -1.5003
  920MOL0     H24192  11.956  10.542  10.165  0.9036 -0.2798 -1.0769
  920MOL0     H24193  12.092  10.641  10.112  0.2748 -0.1164  0.7573
  920MOL0     H24194  12.039  10.350  10.037 -0.8688  1.1862 -0.6359
  920MOL0     H24195  12.135  10.386  10.169 -4.5104 -1.0611  0.5084
  920MOL0     H24196  12.223  10.454   9.886 -1.4493  1.3107  1.5262
  920MOL0     H24197  12.300  10.332  10.000 -0.2405 -0.5970 -0.5445
  920MOL0     H24198  12.495  10.679  10.108  0.1299 -1.5172  3.5862
  920MOL0     H24199  11.823  10.659   9.718 -0.0265 -0.4930  0.5138
  920MOL0     H24200  11.599  10.677   9.613 -2.3385 -3.2001  1.7878
  921MOL0     O24201   2.204   7.887   0.285  0.2589  0.5373 -0.0411
  921MOL0     C24202   2.237   7.863   0.400 -0.0057  0.1080  0.2988
  921MOL0     O24203   2.153   7.854   0.502 -1.0619  1.0809 -0.8612
  921MOL0     C24204   2.016   7.860   0.496 -0.0257  0.0357 -0.0615
  921MOL0     C24205   1.957   7.863   0.620 -0.3476 -0.0213  1.0130
  921MOL0     C24206   1.812   7.861   0.630 -1.1419 -0.1042 -0.2561
  921MOL0     C24207   1.732   7.874   0.522  0.0557  0.2818  0.3029
  921MOL0     O24208   1.601   7.879   0.520  0.7426  0.1167  0.7139
  921MOL0     C24209   1.521   7.829   0.633 -0.0360  0.2731  0.4346
  921MOL0     C24210   1.372   7.846   0.613  0.1301 -0.5682  0.5328
  921MOL0     C24211   1.299   7.778   0.726  0.2367  0.0986  0.0033
  921MOL0     C24212   1.269   7.627   0.723 -0.6960 -0.5379  0.2758
  921MOL0     C24213   1.197   7.575   0.598  0.5963  0.6880  0.3506
  921MOL0     C24214   1.064   7.645   0.575  0.0272 -0.6109 -0.9355
  921MOL0     C24215   0.980   7.582   0.464 -0.2960 -0.8506 -0.5298
  921MOL0     C24216   0.844   7.656   0.442 -0.3995 -0.1503 -0.1103
  921MOL0     N24217   0.782   7.613   0.319  0.2532  0.0116 -0.6176
  921MOL0     C24218   0.837   7.545   0.210  0.3450 -0.4238  0.0103
  921MOL0     C24219   0.738   7.503   0.143  0.6228 -0.1065 -0.5292
  921MOL0     C24220   0.724   7.417   0.022  0.1848  0.6184 -0.5391
  921MOL0     C24221   0.664   7.490  -0.093  0.2266 -0.3490  0.3600
  921MOL0     C24222   0.650   7.405  -0.221 -0.0686 -0.2464 -0.4225
  921MOL0     C24223   0.544   7.292  -0.223 -0.2719 -0.5239  0.1507
  921MOL0     O24224   0.424   7.345  -0.288 -0.1625  0.1897 -1.1388
  921MOL0     C24225   0.307   7.299  -0.238  0.8502  0.7196 -0.7998
  921MOL0     C24226   0.196   7.376  -0.274 -0.1772 -0.0275  0.2213
  921MOL0     C24227   0.061   7.350  -0.249  0.3607 -0.2502  0.5621
  921MOL0     C24228  -0.045   7.449  -0.279 -0.5165  0.7426  0.0912
  921MOL0     C24229   0.030   7.240  -0.174  0.2299  0.0804  0.0526
  921MOL0     C24230  -0.109   7.188  -0.152  0.1263 -0.4328 -0.3740
  921MOL0     O24231  -0.122   7.062  -0.103 -1.3304 -0.0302 -0.3442
  921MOL0     C24232  -0.248   7.010  -0.092 -0.7192 -0.6284  0.2406
  921MOL0     C24233  -0.337   7.019  -0.201  0.7397 -0.1352 -0.2878
  921MOL0     C24234  -0.466   6.955  -0.189 -0.1016 -0.1499  0.0153
  921MOL0     C24235  -0.495   6.875  -0.080 -0.8521 -0.2854 -0.9729
  921MOL0     O24236  -0.627   6.829  -0.068 -0.2618  0.0244  0.0545
  921MOL0     C24237  -0.739   6.916  -0.099 -0.5546  0.2013  0.7029
  921MOL0     C24238  -0.770   7.019   0.007 -0.0782 -0.8360 -0.2923
  921MOL0     C24239  -0.918   7.025   0.044 -0.2915 -0.1780  0.3013
  921MOL0     C24240  -0.967   7.135   0.136 -1.1620 -0.2162  0.0912
  921MOL0     C24241  -1.121   7.149   0.140 -0.0768  0.2010  0.6386
  921MOL0     C24242  -1.159   7.262   0.238 -0.6619  0.2425 -0.4209
  921MOL0     C24243  -1.302   7.243   0.282  0.3408 -0.2490  0.4005
  921MOL0     C24244  -1.350   7.389   0.325 -0.0849  0.7518  1.3569
  921MOL0    Cl24245  -1.491   7.370   0.428 -0.1319  0.1236  0.1982
  921MOL0     C24246  -0.406   6.867   0.030 -0.1217  0.2669  0.9701
  921MOL0     C24247  -0.283   6.933   0.022 -0.1464  0.5826  0.8051
  921MOL0     O24248  -0.200   7.263  -0.156  0.4903 -0.7559  0.2753
  921MOL0     C24249   0.137   7.160  -0.133 -0.3894  0.3714  0.0304
  921MOL0     C24250   0.271   7.181  -0.172  0.5661 -0.4461  0.1825
  921MOL0     N24251   0.619   7.550   0.200 -0.1328 -0.2975  0.2185
  921MOL0     N24252   0.649   7.611   0.314  0.1168 -0.6546  0.2636
  921MOL0     C24253   1.794   7.875   0.400 -0.3762 -0.9452  0.5538
  921MOL0     C24254   1.934   7.859   0.386 -0.4165 -1.0144 -0.3683
  921MOL0     C24255   2.375   7.839   0.433 -0.0935  0.3620  0.0937
  921MOL0     C24256   2.422   7.812   0.560 -0.0034 -0.4050  0.9147
  921MOL0     C24257   2.553   7.789   0.584  0.1798 -0.6166  0.3162
  921MOL0     C24258   2.655   7.800   0.487 -0.3381 -0.2566 -0.7357
  921MOL0     O24259   2.786   7.793   0.503 -0.0326 -0.5828 -0.1273
  921MOL0     C24260   2.843   7.736   0.618 -0.1032  0.4693 -0.3785
  921MOL0     C24261   2.994   7.779   0.622  0.3352  0.2695  0.6410
  921MOL0     C24262   3.016   7.917   0.670 -1.0689 -0.8438  0.2118
  921MOL0     C24263   2.936   8.026   0.603  0.6784  0.1419  0.9125
  921MOL0     C24264   2.981   8.049   0.461  0.4468 -0.0063  0.7128
  921MOL0     C24265   3.026   8.052   0.350  0.0134 -0.8130  0.1521
  921MOL0     C24266   2.615   7.841   0.357 -0.2229  0.1532 -0.8669
  921MOL0     C24267   2.480   7.854   0.334 -0.8128 -0.6681  0.0270
  921MOL0     H24268   2.010   7.854   0.715 -1.8980 -0.1222  1.8942
  921MOL0     H24269   1.776   7.841   0.730 -0.3539 -1.8058 -0.2617
  921MOL0     H24270   1.541   7.727   0.667  3.3450  0.1226 -1.5298
  921MOL0     H24271   1.547   7.896   0.715  0.8647  0.0560  0.3347
  921MOL0     H24272   1.353   7.951   0.592 -0.4900 -1.1759 -2.2801
  921MOL0     H24273   1.338   7.799   0.520 -1.4258 -1.7566  1.6236
  921MOL0     H24274   1.343   7.793   0.826 -3.1585  0.9684  1.5125
  921MOL0     H24275   1.200   7.823   0.733 -0.1461 -0.7302  0.0429
  921MOL0     H24276   1.366   7.576   0.733  0.2180  1.3853  1.8918
  921MOL0     H24277   1.222   7.597   0.817  0.0138  1.0795  1.1794
  921MOL0     H24278   1.262   7.580   0.510 -0.5394 -1.1980 -0.6785
  921MOL0     H24279   1.183   7.467   0.609  2.9393  0.5600  2.9940
  921MOL0     H24280   1.005   7.646   0.667  1.8849  0.7499  0.3005
  921MOL0     H24281   1.074   7.751   0.551  1.2749 -0.5187 -0.0785
  921MOL0     H24282   1.034   7.589   0.369  0.6196 -0.6772 -0.0141
  921MOL0     H24283   0.967   7.479   0.500 -0.5133 -0.1925  1.4154
  921MOL0     H24284   0.859   7.764   0.436  3.4417 -0.5738 -1.1699
  921MOL0     H24285   0.779   7.631   0.526  0.8481 -1.3910  0.5409
  921MOL0     H24286   0.940   7.524   0.183 -1.2040 -4.0515 -4.4955
  921MOL0     H24287   0.821   7.372  -0.004  0.0412  0.2761 -0.4865
  921MOL0     H24288   0.663   7.333   0.055  0.9245 -0.0847 -0.9184
  921MOL0     H24289   0.726   7.573  -0.128 -2.5529  1.1615 -1.4200
  921MOL0     H24290   0.565   7.531  -0.069 -0.7333 -1.5842 -1.2248
  921MOL0     H24291   0.753   7.368  -0.233  0.9605  1.8547  1.1877
  921MOL0     H24292   0.631   7.464  -0.311  1.8907 -0.3945 -0.9795
  921MOL0     H24293   0.515   7.242  -0.130 -1.2511 -2.0234 -0.9050
  921MOL0     H24294   0.575   7.215  -0.295 -2.5910  0.0765 -1.6437
  921MOL0     H24295   0.223   7.464  -0.332  2.0456 -1.0376 -0.3694
  921MOL0     H24296  -0.015   7.524  -0.353  0.5160  0.6922  0.4396
  921MOL0     H24297  -0.124   7.392  -0.329  0.6283 -0.7992 -0.0373
  921MOL0     H24298  -0.079   7.486  -0.182 -0.7058  0.1907  0.2369
  921MOL0     H24299  -0.311   7.079  -0.288  1.0286  0.4448  0.1856
  921MOL0     H24300  -0.531   6.969  -0.275 -0.8651  2.8859  0.9553
  921MOL0     H24301  -0.725   6.962  -0.197 -2.6713  0.0958  0.2824
  921MOL0     H24302  -0.828   6.851  -0.099 -0.6061  0.2654  0.2004
  921MOL0     H24303  -0.709   6.999   0.096 -1.2618 -2.5324  0.1745
  921MOL0     H24304  -0.745   7.118  -0.033 -1.1676  0.1805  1.3949
  921MOL0     H24305  -0.917   6.931   0.100 -0.8428 -0.2583  0.1810
  921MOL0     H24306  -0.980   7.017  -0.046  2.7695 -0.2014 -1.9416
  921MOL0     H24307  -0.940   7.123   0.241 -3.1434 -1.5034  0.5087
  921MOL0     H24308  -0.921   7.226   0.095 -0.2875 -1.6191 -2.2004
  921MOL0     H24309  -1.174   7.056   0.161 -0.5620  0.0603 -1.0275
  921MOL0     H24310  -1.174   7.166   0.045  1.5820 -1.3399 -0.6155
  921MOL0     H24311  -1.096   7.266   0.327 -0.3361  0.7342 -0.6686
  921MOL0     H24312  -1.140   7.359   0.190 -1.6738  1.3774  1.3921
  921MOL0     H24313  -1.319   7.179   0.368 -2.9394 -1.4223 -0.9475
  921MOL0     H24314  -1.374   7.203   0.210 -0.4346 -2.4117  2.2671
  921MOL0     H24315  -1.376   7.449   0.237  1.0643  1.4432  1.4718
  921MOL0     H24316  -1.268   7.442   0.374  0.7087 -0.7534  1.7542
  921MOL0     H24317  -0.438   6.810   0.117 -1.5892  0.5699  0.6462
  921MOL0     H24318  -0.219   6.925   0.109  1.4503  2.0197 -0.1618
  921MOL0     H24319   0.124   7.056  -0.102  2.3452 -0.1003 -0.1978
  921MOL0     H24320   0.336   7.095  -0.164  0.5663 -0.4289  0.3674
  921MOL0     H24321   1.734   7.871   0.309  1.2857 -0.1228 -0.6234
  921MOL0     H24322   1.963   7.868   0.281 -1.0986  2.5456 -0.3887
  921MOL0     H24323   2.351   7.809   0.641 -0.2298  0.0179  0.7367
  921MOL0     H24324   2.576   7.782   0.690 -0.1141  1.6580  0.5745
  921MOL0     H24325   2.792   7.775   0.706 -1.2164 -0.2770 -0.6637
  921MOL0     H24326   2.837   7.627   0.623  1.7196  0.3983  3.2917
  921MOL0     H24327   3.040   7.754   0.526 -0.4161 -2.9333  0.9984
  921MOL0     H24328   3.049   7.714   0.691  2.3932  1.8408  0.5672
  921MOL0     H24329   3.121   7.946   0.666 -0.5277 -2.4107  1.7924
  921MOL0     H24330   2.989   7.919   0.776  1.2049  0.7656  0.8374
  921MOL0     H24331   2.949   8.115   0.664 -1.4326  0.2850  1.2542
  921MOL0     H24332   2.827   8.018   0.610  0.3971  0.6982 -1.8198
  921MOL0     H24333   3.061   8.019   0.255  0.0352 -0.1500 -0.0789
  921MOL0     H24334   2.696   7.868   0.290  1.2280 -1.7694  0.0036
  921MOL0     H24335   2.455   7.898   0.238 -2.2383  4.3247  2.3319
  922MOL0     O24336  10.677   3.222   3.726 -0.2351 -0.0099  0.4574
  922MOL0     C24337  10.762   3.175   3.650  0.1722 -0.0733  0.3839
  922MOL0     O24338  10.788   3.039   3.632 -1.2006  0.3933 -0.0349
  922MOL0     C24339  10.693   2.954   3.681 -0.1974 -0.1304  0.2323
  922MOL0     C24340  10.607   2.878   3.604 -0.5286  0.5665  0.1322
  922MOL0     C24341  10.503   2.806   3.664  0.0295  0.5710 -0.2719
  922MOL0     C24342  10.484   2.804   3.810 -1.1165  0.0054  0.0877
  922MOL0     O24343  10.372   2.747   3.870 -0.3330 -0.1356 -0.0619
  922MOL0     C24344  10.325   2.798   3.996  0.5566  0.1300 -0.0773
  922MOL0     C24345  10.204   2.721   4.047 -0.2094 -0.2148  0.6717
  922MOL0     C24346  10.086   2.747   3.955  0.2197  0.0687  0.5518
  922MOL0     C24347   9.953   2.663   3.999  0.4075  0.3028 -0.0827
  922MOL0     C24348   9.852   2.658   3.887  0.3409 -0.5339 -1.0392
  922MOL0     C24349   9.785   2.798   3.857  0.1640  0.1106 -0.0341
  922MOL0     C24350   9.688   2.788   3.730  0.2203  0.6680 -0.0395
  922MOL0     C24351   9.570   2.695   3.751  0.6952  0.4558 -0.2856
  922MOL0     N24352   9.449   2.747   3.704  0.5073 -0.1400 -0.0940
  922MOL0     C24353   9.423   2.773   3.568  0.0886 -0.4532 -0.9818
  922MOL0     C24354   9.299   2.820   3.563 -0.1323 -0.7378  0.0766
  922MOL0     C24355   9.217   2.864   3.440  0.3149 -0.7162  0.0247
  922MOL0     C24356   9.259   2.778   3.317  0.2919  0.5091 -1.3294
  922MOL0     C24357   9.188   2.799   3.191  0.2918 -0.2218  0.2774
  922MOL0     C24358   9.038   2.766   3.187  0.0742 -0.2787 -0.3388
  922MOL0     O24359   9.003   2.623   3.198  0.7807 -0.8323 -0.0940
  922MOL0     C24360   8.876   2.591   3.221  0.7722  0.0816 -0.8507
  922MOL0     C24361   8.843   2.461   3.241  0.2806 -0.5689 -0.4078
  922MOL0     C24362   8.718   2.407   3.256 -0.1215  0.3398  0.2884
  922MOL0     C24363   8.691   2.256   3.250 -0.1291 -0.0760 -0.2566
  922MOL0     C24364   8.600   2.493   3.266  0.5094 -0.0044 -0.8678
  922MOL0     C24365   8.459   2.461   3.292  0.0207  0.2874  0.1716
  922MOL0     O24366   8.361   2.539   3.243 -0.7429 -0.1045  0.1457
  922MOL0     C24367   8.225   2.507   3.235 -0.1739 -0.2372 -0.1472
  922MOL0     C24368   8.174   2.381   3.204  0.0389 -0.4399  0.0412
  922MOL0     C24369   8.036   2.368   3.192  0.6254 -0.3571 -1.1100
  922MOL0     C24370   7.952   2.480   3.220 -0.3661 -0.2753  0.3590
  922MOL0     O24371   7.818   2.497   3.224 -0.2151  0.1612 -0.0615
  922MOL0     C24372   7.743   2.367   3.227 -0.2105  0.5208  0.1560
  922MOL0     C24373   7.709   2.326   3.083  0.4277 -0.7978 -0.1350
  922MOL0     C24374   7.611   2.213   3.070 -0.0111  0.5445  0.1872
  922MOL0     C24375   7.465   2.257   3.095  1.0690 -0.2348  0.4442
  922MOL0     C24376   7.405   2.343   2.988 -0.3853 -0.0801  0.2104
  922MOL0     C24377   7.259   2.302   2.967 -0.0065  0.2616  1.2464
  922MOL0     C24378   7.155   2.348   3.068 -0.2134  0.0694  0.4789
  922MOL0     C24379   7.007   2.335   3.033 -0.6970  0.2743 -0.7765
  922MOL0    Cl24380   6.973   2.162   3.013 -0.0100 -0.4498 -0.5142
  922MOL0     C24381   8.005   2.605   3.254  0.1993  0.5055 -0.4133
  922MOL0     C24382   8.142   2.615   3.261  0.8399 -0.4416  0.0739
  922MOL0     O24383   8.441   2.366   3.369  0.3758  0.0970 -0.9464
  922MOL0     C24384   8.638   2.628   3.257  0.1224  0.5146 -0.2022
  922MOL0     C24385   8.767   2.677   3.242 -0.2615  0.1145  0.4838
  922MOL0     N24386   9.249   2.813   3.689  0.4261 -0.2828 -0.0306
  922MOL0     N24387   9.331   2.764   3.773 -0.2835 -0.1387  0.7431
  922MOL0     C24388  10.584   2.875   3.887  0.1152  0.0917 -0.6764
  922MOL0     C24389  10.682   2.950   3.823 -0.3830 -1.0106  0.8130
  922MOL0     C24390  10.843   3.268   3.573  0.2836  0.5765 -0.2778
  922MOL0     C24391  10.811   3.403   3.579  0.4021  0.0614  0.9310
  922MOL0     C24392  10.894   3.487   3.507 -0.0698 -0.3243  0.0650
  922MOL0     C24393  10.993   3.454   3.419 -0.6638 -0.3710 -0.2678
  922MOL0     O24394  11.066   3.547   3.353  0.2129  0.0572 -0.2672
  922MOL0     C24395  11.082   3.528   3.212 -0.1138  0.2692  0.2403
  922MOL0     C24396  10.953   3.514   3.132 -0.9181  0.2076  0.1253
  922MOL0     C24397  10.877   3.650   3.131 -0.6979 -0.0623  0.3972
  922MOL0     C24398  10.938   3.756   3.033 -0.9291  0.0620 -0.6107
  922MOL0     C24399  10.875   3.889   3.060  0.0277 -0.0062  0.7029
  922MOL0     C24400  10.823   3.994   3.085 -0.3203 -0.2484 -0.3384
  922MOL0     C24401  11.016   3.313   3.398  0.2793 -0.5851  0.1644
  922MOL0     C24402  10.926   3.218   3.472  0.2605 -0.6531 -0.4321
  922MOL0     H24403  10.615   2.896   3.497 -1.4970  0.4317  0.0271
  922MOL0     H24404  10.430   2.754   3.604 -0.9640 -0.0183  1.3704
  922MOL0     H24405  10.398   2.799   4.077 -0.1100 -0.2347  0.5360
  922MOL0     H24406  10.292   2.902   3.985 -1.1860 -0.2454  1.3473
  922MOL0     H24407  10.227   2.615   4.037 -1.3152 -0.4083 -0.0433
  922MOL0     H24408  10.181   2.760   4.146 -0.0091 -0.8815  0.9815
  922MOL0     H24409  10.071   2.856   3.953 -3.4916 -0.3442  0.5922
  922MOL0     H24410  10.105   2.716   3.852 -2.4413  1.4471 -0.4558
  922MOL0     H24411   9.975   2.561   4.034  0.2536  0.7215  1.2987
  922MOL0     H24412   9.912   2.715   4.086  2.0651 -0.0176  0.9498
  922MOL0     H24413   9.879   2.609   3.793  0.7758  0.5835 -1.5202
  922MOL0     H24414   9.772   2.593   3.922  0.3028 -1.8332 -3.3173
  922MOL0     H24415   9.730   2.827   3.947  0.2792 -0.3063  0.1725
  922MOL0     H24416   9.862   2.875   3.848  1.4472 -0.7987  2.3558
  922MOL0     H24417   9.658   2.893   3.735 -0.2822  0.4744  2.5273
  922MOL0     H24418   9.753   2.769   3.644 -0.3757  2.8937 -1.0493
  922MOL0     H24419   9.561   2.676   3.859  1.6143 -2.9896 -0.6835
  922MOL0     H24420   9.595   2.601   3.701  1.4011 -0.0574  0.9703
  922MOL0     H24421   9.494   2.763   3.487 -0.3339  0.6403 -1.5056
  922MOL0     H24422   9.109   2.848   3.456 -0.4319  0.8933 -2.7398
  922MOL0     H24423   9.231   2.971   3.425 -0.2048 -0.6925 -0.3263
  922MOL0     H24424   9.231   2.677   3.348 -1.8943  1.4090 -0.1517
  922MOL0     H24425   9.367   2.789   3.300  0.8119 -0.7897  0.7180
  922MOL0     H24426   9.239   2.754   3.105  1.1513  1.7829 -0.3144
  922MOL0     H24427   9.207   2.904   3.166  0.0142 -0.1018  0.5702
  922MOL0     H24428   8.997   2.802   3.092 -0.9770  0.3954  0.3471
  922MOL0     H24429   8.981   2.814   3.267  1.4099  0.5727  0.1272
  922MOL0     H24430   8.921   2.385   3.247 -0.6825 -1.6510 -1.2012
  922MOL0     H24431   8.607   2.234   3.184 -1.1452  1.2389  0.5455
  922MOL0     H24432   8.779   2.204   3.212  0.9956  1.8604 -0.4461
  922MOL0     H24433   8.665   2.210   3.346  1.6365 -2.1109 -0.6721
  922MOL0     H24434   8.246   2.302   3.185 -1.2288 -2.2150  2.1555
  922MOL0     H24435   7.980   2.278   3.166 -2.2973  1.0646 -0.2166
  922MOL0     H24436   7.794   2.290   3.284  1.8005  1.1745 -0.6719
  922MOL0     H24437   7.649   2.377   3.283 -1.1470 -1.2102 -1.0352
  922MOL0     H24438   7.673   2.417   3.034  1.3392 -1.2332 -1.7029
  922MOL0     H24439   7.800   2.292   3.031  0.6225 -0.2049 -0.1988
  922MOL0     H24440   7.648   2.127   3.126 -3.3784 -0.9025  0.4557
  922MOL0     H24441   7.613   2.182   2.965 -0.6136  0.1676  0.2832
  922MOL0     H24442   7.405   2.166   3.100 -0.8487  0.9567  0.1930
  922MOL0     H24443   7.459   2.311   3.191  2.8893 -1.4981  1.3307
  922MOL0     H24444   7.466   2.333   2.899  2.6298 -1.3843  2.2615
  922MOL0     H24445   7.408   2.447   3.023  0.0110 -0.5111  1.5401
  922MOL0     H24446   7.233   2.352   2.874  0.4191 -0.9779  0.4403
  922MOL0     H24447   7.259   2.193   2.955  2.1492  0.1213  2.1810
  922MOL0     H24448   7.164   2.456   3.082  2.2207  0.0707 -0.6597
  922MOL0     H24449   7.172   2.294   3.162 -0.4127 -0.6499  0.1151
  922MOL0     H24450   6.980   2.390   2.943  0.0461 -1.1661 -1.9231
  922MOL0     H24451   6.942   2.379   3.109 -0.3867 -0.0141 -0.3328
  922MOL0     H24452   7.949   2.690   3.294  1.9771  1.7428 -0.4385
  922MOL0     H24453   8.182   2.711   3.293 -0.7351  1.1054 -2.2392
  922MOL0     H24454   8.560   2.701   3.278  0.1951  0.9726 -1.4193
  922MOL0     H24455   8.787   2.783   3.255  2.4105  0.0238 -2.0788
  922MOL0     H24456  10.580   2.875   3.995  1.8538 -0.7562 -0.5846
  922MOL0     H24457  10.757   3.003   3.881  0.6713 -1.2381 -0.2987
  922MOL0     H24458  10.721   3.444   3.624  0.3828  2.2306 -0.8894
  922MOL0     H24459  10.875   3.594   3.502  2.5924  0.3204  1.7237
  922MOL0     H24460  11.131   3.615   3.167 -2.6392  1.2787 -0.7466
  922MOL0     H24461  11.146   3.440   3.204  1.5209  1.2960  1.3880
  922MOL0     H24462  10.889   3.439   3.179  2.9861 -1.9527  2.6023
  922MOL0     H24463  10.978   3.481   3.030  1.6225 -1.0898  1.0782
  922MOL0     H24464  10.880   3.686   3.235 -0.7659 -2.2792  1.2177
  922MOL0     H24465  10.773   3.637   3.099 -0.6282  1.8790 -0.7715
  922MOL0     H24466  10.924   3.722   2.931 -1.0858  1.6039 -1.1274
  922MOL0     H24467  11.045   3.776   3.043 -1.3277  1.7600  0.8796
  922MOL0     H24468  10.795   4.091   3.120 -0.0527 -0.7652  1.3829
  922MOL0     H24469  11.094   3.286   3.327  0.6802  3.8110 -1.3998
  922MOL0     H24470  10.912   3.116   3.440  1.7127  0.0585 -3.6898
  923MOL0     O24471   5.871   7.960  11.336 -0.5573 -0.3088 -0.5470
  923MOL0     C24472   5.939   8.060  11.354  0.7847 -0.5691 -0.0448
  923MOL0     O24473   5.889   8.189  11.369  0.5555 -0.2981  0.1657
  923MOL0     C24474   5.751   8.197  11.351  0.0958 -0.1744  0.0548
  923MOL0     C24475   5.660   8.125  11.439 -0.2937  0.5288  0.6155
  923MOL0     C24476   5.521   8.134  11.435  0.4612 -0.2361 -0.4791
  923MOL0     C24477   5.472   8.215  11.329  1.7222 -0.6376  0.1783
  923MOL0     O24478   5.335   8.228  11.297 -0.0450  0.5462  0.3078
  923MOL0     C24479   5.242   8.124  11.322  0.1931  0.1540 -0.0741
  923MOL0     C24480   5.106   8.162  11.271  0.0822  0.0808 -0.3025
  923MOL0     C24481   5.079   8.163  11.124 -0.4342 -0.8440 -0.2003
  923MOL0     C24482   4.936   8.161  11.084  0.2797  0.3861 -0.0234
  923MOL0     C24483   4.904   8.211  10.937  0.4632 -0.4751 -0.1156
  923MOL0     C24484   4.755   8.243  10.903 -0.1236  0.6273  0.1822
  923MOL0     C24485   4.661   8.124  10.932  0.2871 -0.6893 -0.8354
  923MOL0     C24486   4.525   8.157  10.881  0.4760 -0.0505  0.1587
  923MOL0     N24487   4.431   8.039  10.903 -0.1196  0.8202 -0.5725
  923MOL0     C24488   4.391   7.994  11.026 -0.2279  1.4606 -0.0635
  923MOL0     C24489   4.298   7.897  10.999 -0.5345 -0.0500  0.3288
  923MOL0     C24490   4.223   7.845  11.116  0.6787  0.3165 -0.4179
  923MOL0     C24491   4.107   7.937  11.158 -0.8156  0.4593  0.3384
  923MOL0     C24492   4.078   7.955  11.307 -0.4962 -0.2832 -0.2809
  923MOL0     C24493   4.065   7.824  11.383 -0.1692 -0.3789  0.5109
  923MOL0     O24494   3.976   7.735  11.322 -0.5904 -0.6732  0.0787
  923MOL0     C24495   3.851   7.784  11.295 -0.6921 -0.8644 -0.0144
  923MOL0     C24496   3.778   7.855  11.394 -0.9077 -0.5734  0.4770
  923MOL0     C24497   3.643   7.890  11.375  0.8044  0.4094  0.1638
  923MOL0     C24498   3.578   7.976  11.482  0.0233  0.3658 -0.2400
  923MOL0     C24499   3.583   7.868  11.251  0.2643 -0.8981 -0.4901
  923MOL0     C24500   3.446   7.915  11.219 -0.5210 -0.0878  0.0427
  923MOL0     O24501   3.358   7.904  11.318  0.3573 -0.0619 -0.5639
  923MOL0     C24502   3.242   7.972  11.316  1.2384  0.3901 -0.3886
  923MOL0     C24503   3.141   7.914  11.238 -0.2130  0.6133 -0.6743
  923MOL0     C24504   3.030   7.987  11.214  0.4548 -0.0879  0.1455
  923MOL0     C24505   3.024   8.120  11.258  0.6105  0.9018  0.3707
  923MOL0     O24506   2.922   8.201  11.214 -0.1956 -0.0567 -0.4149
  923MOL0     C24507   2.870   8.202  11.080  0.2540 -0.7049 -0.2921
  923MOL0     C24508   2.738   8.124  11.091  0.0604  0.7381 -0.5243
  923MOL0     C24509   2.658   8.112  10.969  0.2348  0.5049 -0.0883
  923MOL0     C24510   2.634   8.242  10.884  0.2208  0.0952 -0.1084
  923MOL0     C24511   2.565   8.355  10.970 -0.5224 -0.4904  0.3915
  923MOL0     C24512   2.543   8.485  10.896  0.4583 -0.3221 -0.4462
  923MOL0     C24513   2.675   8.572  10.890  0.0321  0.1735  0.0073
  923MOL0     C24514   2.636   8.703  10.831  0.1587 -0.3515 -0.4586
  923MOL0    Cl24515   2.566   8.685  10.663  0.0553 -0.0075 -0.4724
  923MOL0     C24516   3.116   8.167  11.353  0.0927 -0.0254 -0.0834
  923MOL0     C24517   3.227   8.096  11.386  0.2835  0.1462  0.6498
  923MOL0     O24518   3.424   7.957  11.107 -0.0697 -0.8521  0.3430
  923MOL0     C24519   3.649   7.799  11.152  0.3339  0.2270 -0.0970
  923MOL0     C24520   3.783   7.754  11.179  0.6631 -0.0154 -0.7043
  923MOL0     N24521   4.294   7.871  10.866 -0.5666 -0.1314  0.2323
  923MOL0     N24522   4.372   7.964  10.803  0.6908  0.1909  0.1746
  923MOL0     C24523   5.560   8.296  11.250 -0.0712  0.7235  0.0353
  923MOL0     C24524   5.703   8.285  11.258  0.7741 -0.6291 -0.7251
  923MOL0     C24525   6.076   8.027  11.335 -0.2930 -0.2640 -0.5143
  923MOL0     C24526   6.171   8.122  11.332  0.0150 -0.2693 -0.5255
  923MOL0     C24527   6.306   8.088  11.322  0.0930 -0.0714  0.6302
  923MOL0     C24528   6.353   7.961  11.341 -0.0573 -0.9396  0.6721
  923MOL0     O24529   6.488   7.955  11.353 -0.1436  0.0006  0.0506
  923MOL0     C24530   6.544   7.835  11.415  0.3052 -0.6091  0.7644
  923MOL0     C24531   6.694   7.862  11.417 -0.1667 -0.3288 -0.4311
  923MOL0     C24532   6.753   7.876  11.280 -0.3432  0.0031 -0.0745
  923MOL0     C24533   6.787   7.743  11.231 -0.3645 -0.3881  0.4040
  923MOL0     C24534   6.869   7.771  11.115 -0.6007 -0.3084  0.3614
  923MOL0     C24535   6.944   7.778  11.023 -0.0004 -0.8495 -0.0450
  923MOL0     C24536   6.261   7.859  11.335  0.0225 -0.0224  0.7087
  923MOL0     C24537   6.127   7.888  11.327 -0.1317 -0.1296 -0.7426
  923MOL0     H24538   5.704   8.058  11.512  0.7085 -0.0023 -0.4409
  923MOL0     H24539   5.462   8.071  11.501 -0.8393  1.5812  0.1822
  923MOL0     H24540   5.267   8.031  11.269 -2.0141 -0.5675  0.0559
  923MOL0     H24541   5.241   8.104  11.430  1.3355 -0.3257 -0.1347
  923MOL0     H24542   5.040   8.085  11.312 -0.7595  1.4378  0.9428
  923MOL0     H24543   5.080   8.256  11.320  1.6250  0.3892 -0.0197
  923MOL0     H24544   5.131   8.248  11.079  0.6343 -1.1221  0.4733
  923MOL0     H24545   5.125   8.073  11.082 -2.8529 -1.4390 -1.8026
  923MOL0     H24546   4.897   8.060  11.102  0.4637  0.5282  1.2567
  923MOL0     H24547   4.880   8.215  11.161 -0.3646 -2.8958  2.0390
  923MOL0     H24548   4.943   8.310  10.912 -0.7559 -0.6781 -3.2548
  923MOL0     H24549   4.936   8.133  10.868 -1.8426 -1.6798  0.0957
  923MOL0     H24550   4.716   8.324  10.966  0.6184  0.3519  1.0172
  923MOL0     H24551   4.745   8.267  10.796 -2.0435  0.0683  0.1941
  923MOL0     H24552   4.695   8.033  10.882 -1.9830 -0.9756 -1.9771
  923MOL0     H24553   4.661   8.112  11.041  2.1542  1.3410 -0.5426
  923MOL0     H24554   4.529   8.182  10.774  1.9588 -0.3592  0.1343
  923MOL0     H24555   4.476   8.238  10.936  0.1543 -0.3368  0.3019
  923MOL0     H24556   4.415   8.028  11.127 -0.0341 -2.5786  1.4161
  923MOL0     H24557   4.179   7.747  11.091 -1.6842  0.6101  2.1479
  923MOL0     H24558   4.289   7.836  11.203 -3.5244  1.7091  3.3093
  923MOL0     H24559   4.016   7.905  11.106 -2.4982  4.8882  0.1052
  923MOL0     H24560   4.134   8.033  11.112  1.5002 -0.5032 -0.4391
  923MOL0     H24561   3.988   8.016  11.316  0.9386  1.8466  0.2605
  923MOL0     H24562   4.155   8.007  11.364 -1.9989 -0.0539  1.6283
  923MOL0     H24563   4.019   7.858  11.476 -3.6627 -2.4961 -0.2416
  923MOL0     H24564   4.162   7.775  11.395 -0.0809 -0.3668 -0.1329
  923MOL0     H24565   3.818   7.881  11.492  2.5575  2.1177 -1.4157
  923MOL0     H24566   3.506   8.047  11.439 -0.4927  0.2300  0.3867
  923MOL0     H24567   3.520   7.909  11.547 -0.4942 -0.7963 -1.8363
  923MOL0     H24568   3.649   8.036  11.539  0.3042 -1.6707  1.6953
  923MOL0     H24569   3.146   7.812  11.202 -2.5938  0.1225  0.1990
  923MOL0     H24570   2.958   7.947  11.143 -2.2067  1.4240  1.8286
  923MOL0     H24571   2.855   8.306  11.053  1.4974 -0.2066  0.8163
  923MOL0     H24572   2.942   8.161  11.008 -1.4434 -0.8000 -2.0310
  923MOL0     H24573   2.753   8.020  11.120 -0.0308 -0.3302 -3.9335
  923MOL0     H24574   2.684   8.180  11.169 -2.1686 -0.9619 -0.7491
  923MOL0     H24575   2.557   8.088  11.003  0.4598 -0.0480  0.2111
  923MOL0     H24576   2.710   8.038  10.907  1.9084  0.4030  1.3507
  923MOL0     H24577   2.735   8.276  10.860  0.6835  1.0313  2.6842
  923MOL0     H24578   2.571   8.222  10.797  0.9721 -3.3181  0.0153
  923MOL0     H24579   2.634   8.384  11.050  1.0362  1.9447 -1.6817
  923MOL0     H24580   2.477   8.324  11.026  0.9762 -0.1439  3.1316
  923MOL0     H24581   2.499   8.464  10.798  1.1556 -2.3158 -0.3821
  923MOL0     H24582   2.478   8.538  10.965  1.4972 -0.3579  0.5949
  923MOL0     H24583   2.758   8.519  10.841  0.0935 -0.3334  0.6427
  923MOL0     H24584   2.716   8.597  10.988 -0.4585  0.6294  0.1015
  923MOL0     H24585   2.734   8.749  10.816  1.0082 -1.6775  0.8113
  923MOL0     H24586   2.565   8.756  10.895  0.3895 -0.5204 -0.0635
  923MOL0     H24587   3.087   8.260  11.400 -2.5009 -0.7897  0.0318
  923MOL0     H24588   3.301   8.125  11.460 -0.3197  0.2927  1.2046
  923MOL0     H24589   3.589   7.765  11.068  0.6706  1.9867 -1.0978
  923MOL0     H24590   3.822   7.688  11.103  1.2749 -0.3678 -0.0984
  923MOL0     H24591   5.518   8.357  11.171  3.4550  1.7536 -1.2063
  923MOL0     H24592   5.770   8.347  11.200  1.6629  1.7190  2.5296
  923MOL0     H24593   6.142   8.226  11.319 -2.9152 -0.8337  0.8906
  923MOL0     H24594   6.382   8.163  11.303 -0.6500 -0.0504 -2.8812
  923MOL0     H24595   6.496   7.820  11.512 -1.8224  0.2367 -0.0809
  923MOL0     H24596   6.515   7.741  11.366 -1.7662  0.0154  0.6951
  923MOL0     H24597   6.739   7.785  11.480  1.2719  1.0621  0.3145
  923MOL0     H24598   6.708   7.955  11.473  0.7311 -1.3912  1.1803
  923MOL0     H24599   6.844   7.936  11.283 -0.4750  0.2423 -0.7484
  923MOL0     H24600   6.690   7.931  11.209  1.5645  2.2929 -0.1172
  923MOL0     H24601   6.698   7.696  11.188 -2.4326  0.9900  2.8913
  923MOL0     H24602   6.834   7.674  11.301 -0.6700 -0.4025  0.5963
  923MOL0     H24603   7.007   7.792  10.937 -0.3999 -1.9826 -0.5447
  923MOL0     H24604   6.295   7.756  11.341 -0.4368 -0.2248 -0.0386
  923MOL0     H24605   6.056   7.806  11.328 -1.3132  0.8593  0.4965
  924MOL0     O24606   1.182   0.712   3.944 -0.4421 -0.1223 -0.1579
  924MOL0     C24607   1.231   0.610   3.905 -0.0290  0.2020 -0.2428
  924MOL0     O24608   1.160   0.518   3.835 -0.4952 -0.6678 -0.7806
  924MOL0     C24609   1.027   0.535   3.813  0.0390 -0.4510 -0.4442
  924MOL0     C24610   0.988   0.601   3.696  0.1521  0.8174 -0.3417
  924MOL0     C24611   0.856   0.617   3.667 -0.1754  0.4231  0.4751
  924MOL0     C24612   0.754   0.550   3.739 -0.3583 -0.6281  0.7481
  924MOL0     O24613   0.622   0.553   3.715 -0.0819  0.9997  0.4368
  924MOL0     C24614   0.581   0.655   3.616 -1.2756 -0.0091 -0.6243
  924MOL0     C24615   0.420   0.652   3.590  0.3188  0.2212 -0.5469
  924MOL0     C24616   0.400   0.697   3.448 -0.0056 -1.0772  0.2681
  924MOL0     C24617   0.248   0.682   3.411 -0.3233  0.0892  0.1558
  924MOL0     C24618   0.156   0.794   3.462  0.3286 -0.4905 -0.2617
  924MOL0     C24619   0.006   0.750   3.452 -0.6161  0.2849 -0.2823
  924MOL0     C24620  -0.033   0.693   3.314 -0.0387 -0.2587 -0.0458
  924MOL0     C24621  -0.170   0.643   3.309 -0.2273 -1.3223 -0.3479
  924MOL0     N24622  -0.207   0.558   3.193 -0.0714 -0.7780  0.1468
  924MOL0     C24623  -0.124   0.464   3.137  0.6725 -0.0043  0.2493
  924MOL0     C24624  -0.203   0.416   3.031 -0.5532  0.2699  0.1814
  924MOL0     C24625  -0.154   0.311   2.931 -0.3725 -0.3483  0.0535
  924MOL0     C24626  -0.210   0.166   2.961 -0.5021 -0.1322  0.7856
  924MOL0     C24627  -0.165   0.073   2.850 -0.2678  0.1650  0.3256
  924MOL0     C24628  -0.228  -0.065   2.869  0.2515 -0.2236  0.4218
  924MOL0     O24629  -0.183  -0.120   2.990  0.4152  0.1608  0.2021
  924MOL0     C24630  -0.077  -0.200   2.999 -0.1686 -0.4251 -0.0713
  924MOL0     C24631  -0.013  -0.254   2.889  0.0693  0.0639 -0.3046
  924MOL0     C24632   0.107  -0.332   2.897 -0.1330  0.2428  0.1663
  924MOL0     C24633   0.173  -0.379   2.767 -0.6492  0.1876 -0.1173
  924MOL0     C24634   0.151  -0.373   3.027 -0.1196 -0.2074 -0.0817
  924MOL0     C24635   0.257  -0.471   3.057 -0.9166  0.4809  0.9252
  924MOL0     O24636   0.288  -0.587   2.978 -0.8246 -0.1800 -0.2867
  924MOL0     C24637   0.392  -0.664   3.009 -0.9114 -0.3075 -0.4395
  924MOL0     C24638   0.370  -0.777   3.078 -0.0150  1.0687 -0.3017
  924MOL0     C24639   0.483  -0.858   3.113 -0.6560  0.9560  0.4054
  924MOL0     C24640   0.615  -0.825   3.071 -0.1526  0.5734 -0.2223
  924MOL0     O24641   0.727  -0.901   3.092 -0.1042  0.1616  0.3602
  924MOL0     C24642   0.717  -1.038   3.059 -0.5058  0.2803 -0.1312
  924MOL0     C24643   0.857  -1.101   3.036 -0.1720  0.0754  0.0280
  924MOL0     C24644   0.921  -1.060   2.902 -0.7311  0.0402  0.3658
  924MOL0     C24645   0.992  -0.917   2.911  1.1140  1.0214 -0.4044
  924MOL0     C24646   1.078  -0.902   2.784  0.3451 -0.9906 -0.6327
  924MOL0     C24647   1.147  -0.769   2.787 -1.0457 -0.9165 -0.1152
  924MOL0     C24648   1.265  -0.764   2.687  0.2495  0.0048 -0.3123
  924MOL0     C24649   1.344  -0.639   2.724 -0.6642  0.3083 -0.1172
  924MOL0    Cl24650   1.478  -0.625   2.612  0.3515 -0.0582  0.0131
  924MOL0     C24651   0.634  -0.707   3.004  1.4509 -0.2495 -0.5186
  924MOL0     C24652   0.525  -0.624   2.975 -0.5500 -0.0847 -0.3254
  924MOL0     O24653   0.308  -0.454   3.177  0.4904 -0.0932  0.3798
  924MOL0     C24654   0.079  -0.315   3.133  0.1121  0.4692 -0.1021
  924MOL0     C24655  -0.028  -0.229   3.124  0.0803  0.4795 -1.1042
  924MOL0     N24656  -0.329   0.475   3.044 -0.4067  0.5344  1.0369
  924MOL0     N24657  -0.331   0.562   3.132  0.0417 -0.7093 -0.1486
  924MOL0     C24658   0.793   0.476   3.850  0.4751  0.0979  0.2853
  924MOL0     C24659   0.929   0.463   3.885  0.2402  0.1356  0.8780
  924MOL0     C24660   1.368   0.576   3.943 -0.3193  0.6517 -0.1808
  924MOL0     C24661   1.445   0.672   4.015  0.3065  0.5283  0.5989
  924MOL0     C24662   1.577   0.648   4.047 -0.1447  0.1879  0.0637
  924MOL0     C24663   1.639   0.530   4.011  0.2568  0.2245 -0.6834
  924MOL0     O24664   1.766   0.488   4.033  0.6441  0.3683  0.3720
  924MOL0     C24665   1.841   0.565   4.123 -1.2487  0.3649 -0.8265
  924MOL0     C24666   1.971   0.483   4.116  1.4330 -0.1389 -0.3339
  924MOL0     C24667   2.071   0.544   4.212  0.2920 -0.4691  0.0168
  924MOL0     C24668   2.152   0.651   4.135 -0.5373  0.2516 -0.4736
  924MOL0     C24669   2.246   0.598   4.040 -0.5118  0.5889 -1.1940
  924MOL0     C24670   2.315   0.538   3.961  0.1139  0.4972  0.0026
  924MOL0     C24671   1.562   0.442   3.939  0.1930 -0.1208 -0.2324
  924MOL0     C24672   1.430   0.456   3.915  0.9430  1.1323 -0.6473
  924MOL0     H24673   1.057   0.654   3.631 -2.2601  5.0860  0.2437
  924MOL0     H24674   0.828   0.662   3.572 -2.0924 -2.2447 -0.3361
  924MOL0     H24675   0.608   0.754   3.654 -1.5076 -0.7313  1.5416
  924MOL0     H24676   0.632   0.634   3.521 -0.4432 -1.7780  0.1570
  924MOL0     H24677   0.377   0.553   3.608 -1.6810  1.2204  0.4624
  924MOL0     H24678   0.369   0.716   3.662  2.3290  0.7802  0.4595
  924MOL0     H24679   0.434   0.800   3.438 -1.6111 -0.4630  0.6731
  924MOL0     H24680   0.463   0.645   3.376  0.5666  2.2723 -1.8581
  924MOL0     H24681   0.246   0.686   3.302 -1.9541  3.7976  0.1449
  924MOL0     H24682   0.213   0.585   3.446  0.1593  1.1279  4.0806
  924MOL0     H24683   0.173   0.819   3.567 -1.9832  2.0238 -0.3717
  924MOL0     H24684   0.171   0.890   3.412  0.1255  0.8008  1.9923
  924MOL0     H24685  -0.007   0.670   3.525 -1.1507 -3.0467 -3.6616
  924MOL0     H24686  -0.060   0.835   3.474  0.5498  1.1196  0.0785
  924MOL0     H24687  -0.030   0.782   3.250 -1.2486 -0.1030  0.0967
  924MOL0     H24688   0.040   0.614   3.294  0.7525 -0.0517  1.8705
  924MOL0     H24689  -0.236   0.730   3.307  2.3059  0.8489  1.7117
  924MOL0     H24690  -0.179   0.584   3.401 -0.1059 -0.5256  0.1795
  924MOL0     H24691  -0.022   0.432   3.157  0.5253 -0.2358  0.6195
  924MOL0     H24692  -0.181   0.347   2.832 -0.4287 -0.0671  0.1712
  924MOL0     H24693  -0.045   0.312   2.931 -0.3444 -0.0142 -2.0337
  924MOL0     H24694  -0.319   0.170   2.970 -0.5837  0.4358 -0.1960
  924MOL0     H24695  -0.182   0.123   3.057  0.7377 -3.7132 -0.9927
  924MOL0     H24696  -0.056   0.072   2.839 -0.0427 -0.3696  2.2081
  924MOL0     H24697  -0.213   0.118   2.762 -2.3341 -0.3279  1.1384
  924MOL0     H24698  -0.218  -0.129   2.781 -1.5926 -1.3742  0.9896
  924MOL0     H24699  -0.336  -0.062   2.880  0.3819 -0.7224  2.0869
  924MOL0     H24700  -0.038  -0.240   2.784  0.0223 -2.8550 -0.7581
  924MOL0     H24701   0.106  -0.431   2.698 -1.3226  0.4047  0.3623
  924MOL0     H24702   0.196  -0.285   2.717 -1.4236  0.8300  0.7030
  924MOL0     H24703   0.268  -0.433   2.782 -1.8871 -1.6633  1.7387
  924MOL0     H24704   0.272  -0.805   3.117  1.4688  0.1428  3.1151
  924MOL0     H24705   0.477  -0.954   3.163 -0.1411  1.2810  1.1080
  924MOL0     H24706   0.683  -1.089   3.149  1.8686 -0.3281  0.5093
  924MOL0     H24707   0.647  -1.059   2.977  0.2501 -3.7263  0.0586
  924MOL0     H24708   0.922  -1.066   3.117  1.6396  1.4621 -1.8932
  924MOL0     H24709   0.850  -1.210   3.035  0.3914  0.0204  0.7623
  924MOL0     H24710   0.847  -1.054   2.822  0.5903 -0.2379 -0.9048
  924MOL0     H24711   0.993  -1.137   2.874  0.8874  2.8083 -4.2144
  924MOL0     H24712   0.917  -0.838   2.909 -0.8347 -0.6259 -4.4501
  924MOL0     H24713   1.037  -0.914   3.010 -1.8911  0.3421  1.1018
  924MOL0     H24714   1.004  -0.908   2.704  0.2540 -3.5011 -0.4516
  924MOL0     H24715   1.159  -0.972   2.760  0.5255 -0.6688 -0.9732
  924MOL0     H24716   1.074  -0.689   2.771 -1.6756 -1.8419 -2.3013
  924MOL0     H24717   1.188  -0.761   2.888  1.2961 -0.5031 -1.0405
  924MOL0     H24718   1.223  -0.760   2.586  0.5327  0.7899 -0.4111
  924MOL0     H24719   1.336  -0.847   2.695 -0.3202 -0.5343 -0.7786
  924MOL0     H24720   1.372  -0.643   2.829 -0.4985  0.6588 -0.1469
  924MOL0     H24721   1.282  -0.549   2.710  0.4864  1.0669 -0.5574
  924MOL0     H24722   0.728  -0.684   2.955  1.7754  2.2504  1.0902
  924MOL0     H24723   0.522  -0.530   2.921 -0.7519 -0.6850 -1.3822
  924MOL0     H24724   0.093  -0.352   3.234 -0.3976 -0.3603 -0.3279
  924MOL0     H24725  -0.072  -0.197   3.218  2.0516 -0.9069  0.3726
  924MOL0     H24726   0.714   0.435   3.911 -1.2721  1.8688 -0.6886
  924MOL0     H24727   0.961   0.408   3.973 -1.6426 -0.6582  1.1187
  924MOL0     H24728   1.407   0.766   4.053 -1.5933  0.5128 -1.1016
  924MOL0     H24729   1.632   0.730   4.094 -0.3376  0.3022  0.0896
  924MOL0     H24730   1.835   0.670   4.092 -0.6338  1.2943  1.9306
  924MOL0     H24731   1.802   0.566   4.225  2.0160 -0.4020  0.5609
  924MOL0     H24732   2.002   0.475   4.012  0.6850  0.4420 -0.6172
  924MOL0     H24733   1.942   0.381   4.145 -0.0173  0.8431  2.0840
  924MOL0     H24734   2.136   0.458   4.231 -1.4198 -1.8579 -0.0342
  924MOL0     H24735   2.025   0.593   4.298  0.9836  0.0812  0.0797
  924MOL0     H24736   2.206   0.718   4.201 -1.3375 -0.5788  1.0667
  924MOL0     H24737   2.086   0.713   4.073 -0.0323  0.2077 -1.0743
  924MOL0     H24738   2.365   0.501   3.874  0.2156  1.2416 -0.2590
  924MOL0     H24739   1.603   0.353   3.892 -0.1896  0.7603 -2.3596
  924MOL0     H24740   1.374   0.378   3.864  0.8030 -0.1313  1.3443
  925MOL0     O24741   3.832   8.950   3.481  0.0368  0.1081 -0.3234
  925MOL0     C24742   3.893   9.051   3.519 -0.2024  0.1640 -0.1228
  925MOL0     O24743   3.836   9.175   3.542  0.2711  0.2030 -0.3845
  925MOL0     C24744   3.698   9.203   3.530 -0.7259  0.5384  1.2021
  925MOL0     C24745   3.625   9.178   3.406  0.1457  0.4174 -0.1106
  925MOL0     C24746   3.486   9.216   3.394  0.0557  0.2289 -0.1561
  925MOL0     C24747   3.418   9.270   3.501 -0.0569  0.4212  0.3642
  925MOL0     O24748   3.285   9.284   3.505 -0.1736  0.4315  0.0705
  925MOL0     C24749   3.210   9.332   3.395 -1.0770 -0.0835 -0.3888
  925MOL0     C24750   3.131   9.221   3.338  1.0481  0.3452 -0.4983
  925MOL0     C24751   3.010   9.172   3.432 -0.3010 -0.2961  0.4968
  925MOL0     C24752   2.908   9.278   3.483 -0.4325  0.8578 -0.1352
  925MOL0     C24753   2.783   9.200   3.542 -0.8147 -0.1873  0.8227
  925MOL0     C24754   2.675   9.297   3.579 -0.5346 -0.2781  0.0089
  925MOL0     C24755   2.544   9.224   3.604 -0.3757  0.1550  0.2296
  925MOL0     C24756   2.449   9.307   3.688 -1.1169  0.6837  0.0501
  925MOL0     N24757   2.416   9.439   3.632 -0.5782  0.7143  0.3688
  925MOL0     C24758   2.346   9.466   3.523 -0.4827  0.6723 -0.2318
  925MOL0     C24759   2.345   9.601   3.499 -0.6183 -0.2496 -0.0402
  925MOL0     C24760   2.249   9.678   3.406 -0.2529  0.4491 -0.3642
  925MOL0     C24761   2.105   9.650   3.439 -0.0193  0.3684  0.4459
  925MOL0     C24762   2.064   9.672   3.581  0.2965  0.1866  0.2539
  925MOL0     C24763   2.071   9.813   3.618 -0.2495 -0.2209  0.4809
  925MOL0     O24764   2.007   9.887   3.514  0.2427 -0.0462 -0.3135
  925MOL0     C24765   1.880   9.937   3.523 -0.0434  1.1369 -0.1634
  925MOL0     C24766   1.855  10.057   3.456 -0.2130 -0.1077 -0.7135
  925MOL0     C24767   1.735  10.120   3.459 -0.4256 -1.0796  0.1078
  925MOL0     C24768   1.697  10.244   3.383  0.4516 -0.7168 -0.2761
  925MOL0     C24769   1.638  10.064   3.545 -0.8118  0.2673  0.0345
  925MOL0     C24770   1.519  10.130   3.599  0.0738 -0.1946 -0.2031
  925MOL0     O24771   1.546  10.242   3.680  0.3738  0.2743  0.2110
  925MOL0     C24772   1.447  10.310   3.750  0.9021  0.0860  0.5535
  925MOL0     C24773   1.342  10.250   3.818 -0.1683 -0.4195 -0.4064
  925MOL0     C24774   1.249  10.321   3.888  0.7206 -1.0154  0.1146
  925MOL0     C24775   1.251  10.462   3.881  0.4926  0.6534  0.8877
  925MOL0     O24776   1.141  10.531   3.930 -0.4572 -0.3353  0.0591
  925MOL0     C24777   1.146  10.674   3.952  0.2790 -0.1365  0.2573
  925MOL0     C24778   1.032  10.725   4.034  0.8420 -0.4922 -0.5609
  925MOL0     C24779   0.899  10.694   3.973 -0.1032  0.6159  0.1820
  925MOL0     C24780   0.799  10.808   3.991  0.1698 -0.2344 -0.0378
  925MOL0     C24781   0.672  10.770   3.915  0.6741  0.0537  0.3447
  925MOL0     C24782   0.578  10.891   3.918  1.4977 -0.0296  0.3052
  925MOL0     C24783   0.483  10.883   4.032 -0.9390  0.2420 -0.4716
  925MOL0     C24784   0.377  10.992   4.040 -0.6467  0.2029  0.4524
  925MOL0    Cl24785   0.255  10.949   3.919 -0.0098  0.2005 -0.2567
  925MOL0     C24786   1.355  10.524   3.810 -0.1667  0.0368 -1.1146
  925MOL0     C24787   1.451  10.446   3.748 -0.1782 -0.6806  0.4901
  925MOL0     O24788   1.412  10.084   3.559 -0.3556  0.0979  0.3458
  925MOL0     C24789   1.665   9.947   3.616  0.6109 -0.0445  0.5196
  925MOL0     C24790   1.781   9.877   3.603 -1.2205 -0.4535  0.4360
  925MOL0     N24791   2.427   9.647   3.592  0.5973  0.4527 -0.2481
  925MOL0     N24792   2.467   9.560   3.675 -0.2024  0.8589 -0.4554
  925MOL0     C24793   3.488   9.292   3.618  0.1912  0.2417 -0.3577
  925MOL0     C24794   3.632   9.268   3.633 -0.2136  0.3341  1.1618
  925MOL0     C24795   4.033   9.030   3.537  0.2739 -0.2330 -0.8384
  925MOL0     C24796   4.128   9.136   3.544 -0.0438 -0.1039  0.6621
  925MOL0     C24797   4.268   9.107   3.542 -0.5545 -0.2318  0.1576
  925MOL0     C24798   4.313   8.971   3.551 -1.2608  0.1740  0.4957
  925MOL0     O24799   4.449   8.952   3.560  0.0953 -0.2240  0.1175
  925MOL0     C24800   4.506   8.818   3.588 -0.9354  0.6297 -0.3455
  925MOL0     C24801   4.641   8.830   3.658 -0.3533 -0.1451 -0.2580
  925MOL0     C24802   4.738   8.927   3.571 -0.1336  0.4117 -0.3936
  925MOL0     C24803   4.882   8.872   3.560  0.0067  0.3158 -0.8959
  925MOL0     C24804   4.879   8.749   3.479 -0.8769  0.1432 -0.6257
  925MOL0     C24805   4.878   8.644   3.420  0.0122  0.2152  0.2626
  925MOL0     C24806   4.219   8.869   3.547  0.0363 -0.4148  0.4526
  925MOL0     C24807   4.087   8.898   3.546 -0.0068 -1.0277  0.2438
  925MOL0     H24808   3.669   9.116   3.329  0.0641 -0.8698  0.8262
  925MOL0     H24809   3.434   9.187   3.303  0.1994  0.0339 -0.1771
  925MOL0     H24810   3.140   9.410   3.427  1.0766  3.0335 -2.6924
  925MOL0     H24811   3.277   9.377   3.321  0.2488 -1.4230 -0.0653
  925MOL0     H24812   3.092   9.254   3.241  2.1923 -0.7951 -1.3877
  925MOL0     H24813   3.200   9.137   3.322 -0.1133 -0.5854 -0.7765
  925MOL0     H24814   2.952   9.095   3.382 -1.4049 -0.5465  2.0963
  925MOL0     H24815   3.048   9.126   3.524 -1.9834 -0.8670  0.9295
  925MOL0     H24816   2.945   9.356   3.550  0.0611  0.0955  0.5024
  925MOL0     H24817   2.872   9.333   3.396  0.3418  0.3519 -0.8026
  925MOL0     H24818   2.753   9.130   3.463 -0.1453  0.1325  0.2789
  925MOL0     H24819   2.808   9.132   3.623  2.4374  0.1286  0.2078
  925MOL0     H24820   2.692   9.346   3.676 -3.9494 -0.1750  0.6501
  925MOL0     H24821   2.661   9.368   3.497 -1.5148  1.0299  1.2411
  925MOL0     H24822   2.489   9.199   3.513 -0.3072  0.6466  0.0502
  925MOL0     H24823   2.562   9.134   3.662  0.8473 -0.3404 -0.8770
  925MOL0     H24824   2.487   9.322   3.790  0.2259 -1.2185 -0.1305
  925MOL0     H24825   2.356   9.248   3.694  1.2268 -3.5758 -1.4061
  925MOL0     H24826   2.284   9.398   3.466 -0.6774  1.1240 -0.5660
  925MOL0     H24827   2.264   9.785   3.425  0.2534  0.1337  1.1791
  925MOL0     H24828   2.281   9.651   3.305 -0.5795 -0.7095 -0.1652
  925MOL0     H24829   2.094   9.542   3.427 -0.1554  0.2480  1.5946
  925MOL0     H24830   2.043   9.702   3.365  0.6390  0.5723  0.0351
  925MOL0     H24831   2.123   9.616   3.654 -0.8603 -2.8156 -0.9591
  925MOL0     H24832   1.961   9.640   3.599  0.0980 -0.3403 -1.6785
  925MOL0     H24833   2.179   9.830   3.617 -0.2999  0.1659  0.9866
  925MOL0     H24834   2.024   9.847   3.711 -2.7953 -0.4193 -0.6500
  925MOL0     H24835   1.943  10.085   3.399  0.1888  2.1640  0.8923
  925MOL0     H24836   1.591  10.241   3.354 -0.1200  0.6984  1.4470
  925MOL0     H24837   1.714  10.326   3.453 -1.9384 -0.6829  0.3717
  925MOL0     H24838   1.760  10.253   3.295 -2.0224 -1.9489 -2.3199
  925MOL0     H24839   1.348  10.142   3.816  0.3335 -0.5882  3.5251
  925MOL0     H24840   1.180  10.273   3.956 -1.8441  1.9786 -0.1630
  925MOL0     H24841   1.237  10.708   4.001 -1.4010  0.9934  2.7937
  925MOL0     H24842   1.144  10.729   3.857  2.7811 -0.1591  0.1385
  925MOL0     H24843   1.055  10.672   4.128 -0.1049  0.6866  0.3686
  925MOL0     H24844   1.044  10.831   4.057  0.7320 -1.1156  3.0673
  925MOL0     H24845   0.853  10.604   4.015 -1.4040  0.5679 -1.2552
  925MOL0     H24846   0.908  10.678   3.866 -0.0586  0.3248  0.2299
  925MOL0     H24847   0.779  10.808   4.099  1.2746  2.2109  0.2377
  925MOL0     H24848   0.839  10.907   3.970 -2.1780  0.6136 -0.7464
  925MOL0     H24849   0.628  10.680   3.961  0.6126 -0.1859 -0.1721
  925MOL0     H24850   0.698  10.735   3.815 -0.8806 -1.3424  0.3852
  925MOL0     H24851   0.635  10.984   3.919 -0.8906  1.5141  0.0052
  925MOL0     H24852   0.513  10.890   3.830  1.5205  0.7298  0.2715
  925MOL0     H24853   0.547  10.890   4.120 -1.9243  0.2538  0.2690
  925MOL0     H24854   0.430  10.787   4.037 -1.4228  0.5343  0.1383
  925MOL0     H24855   0.426  11.088   4.020  1.1923 -0.1015  3.0677
  925MOL0     H24856   0.325  11.005   4.136  0.7573 -0.3797  1.3179
  925MOL0     H24857   1.366  10.632   3.816  1.9668 -0.2047  2.8807
  925MOL0     H24858   1.538  10.491   3.701 -0.5735 -0.2633  0.1458
  925MOL0     H24859   1.588   9.922   3.688  0.5762  0.3963  0.6365
  925MOL0     H24860   1.814   9.792   3.662 -0.7734 -1.0538 -0.6569
  925MOL0     H24861   3.432   9.330   3.703  1.5002 -0.6229  0.9369
  925MOL0     H24862   3.668   9.312   3.725  0.6382  0.5210  0.7523
  925MOL0     H24863   4.094   9.236   3.519  2.2195  0.3480 -0.8973
  925MOL0     H24864   4.355   9.169   3.524  1.7866 -2.8177  1.7320
  925MOL0     H24865   4.432   8.766   3.650 -0.5554 -0.0688 -0.4784
  925MOL0     H24866   4.527   8.777   3.489  1.1550  2.2413 -0.6452
  925MOL0     H24867   4.683   8.731   3.678 -0.4908  0.4433  3.6527
  925MOL0     H24868   4.633   8.857   3.763 -2.4226  1.1798 -0.6857
  925MOL0     H24869   4.736   9.022   3.624 -1.5621  2.0673 -3.1874
  925MOL0     H24870   4.707   8.950   3.469 -1.4873  0.5161  0.0232
  925MOL0     H24871   4.909   8.847   3.663 -0.3435 -0.1552 -0.9198
  925MOL0     H24872   4.940   8.951   3.510 -0.7451 -0.3097 -2.8265
  925MOL0     H24873   4.861   8.551   3.371 -1.7143  1.5730 -1.9334
  925MOL0     H24874   4.252   8.766   3.549  0.5303 -0.2533  0.8024
  925MOL0     H24875   4.020   8.813   3.537 -1.3822 -0.2306  2.1820
  926MOL0     O24876  10.390   7.138   3.045 -0.9466 -0.0429 -0.8066
  926MOL0     C24877  10.350   7.216   3.135 -0.2916 -0.2599 -0.5905
  926MOL0     O24878  10.345   7.192   3.271 -0.1792 -0.7508 -0.5181
  926MOL0     C24879  10.395   7.076   3.318 -0.2923  0.5070 -0.3582
  926MOL0     C24880  10.327   7.009   3.415  0.4951  0.7933 -0.5745
  926MOL0     C24881  10.358   6.882   3.464 -0.0249 -0.4832 -0.0036
  926MOL0     C24882  10.480   6.826   3.424 -0.4843 -0.3286 -0.3799
  926MOL0     O24883  10.523   6.702   3.457 -0.2614 -0.2283  0.8295
  926MOL0     C24884  10.441   6.613   3.535  0.5720 -0.4259 -0.0205
  926MOL0     C24885  10.481   6.463   3.528  0.6731 -0.4197  0.0977
  926MOL0     C24886  10.631   6.434   3.574  0.1568  1.1350 -0.5702
  926MOL0     C24887  10.657   6.286   3.557  0.2334 -1.1036 -0.5813
  926MOL0     C24888  10.786   6.248   3.618 -0.2494  0.1247 -0.4781
  926MOL0     C24889  10.911   6.304   3.548  0.5253 -0.2519 -0.2376
  926MOL0     C24890  11.035   6.250   3.603  0.0692 -0.0419  0.8218
  926MOL0     C24891  11.058   6.271   3.752  0.3413  0.2949 -0.4908
  926MOL0     N24892  11.186   6.221   3.799 -0.8528  0.6461 -0.8013
  926MOL0     C24893  11.304   6.293   3.820  0.0852  0.7523 -0.0162
  926MOL0     C24894  11.403   6.203   3.838  0.0737  0.6253 -0.4213
  926MOL0     C24895  11.548   6.239   3.855  1.0961  0.4979 -0.3078
  926MOL0     C24896  11.605   6.313   3.726  0.0868  0.1321  0.2257
  926MOL0     C24897  11.748   6.352   3.747  0.2025 -0.0461 -0.6048
  926MOL0     C24898  11.841   6.278   3.654 -0.8332  0.2336 -0.2755
  926MOL0     O24899  11.975   6.330   3.678 -0.1763  0.1359  0.0544
  926MOL0     C24900  12.078   6.242   3.637  0.2722 -0.4529 -0.2171
  926MOL0     C24901  12.055   6.132   3.557 -0.6726  1.1521 -0.1811
  926MOL0     C24902  12.151   6.037   3.531  0.3337 -0.1095  0.8626
  926MOL0     C24903  12.103   5.912   3.462 -0.7472  0.2654 -0.0619
  926MOL0     C24904  12.283   6.062   3.573 -0.4116 -0.0486  0.9310
  926MOL0     C24905  12.393   5.962   3.553 -0.2402  0.5483  0.4567
  926MOL0     O24906  12.519   6.008   3.543 -0.4032  0.3955  0.0712
  926MOL0     C24907  12.616   5.947   3.471 -0.3106 -0.5062  0.5880
  926MOL0     C24908  12.606   5.876   3.352  0.4927  0.0356  0.6319
  926MOL0     C24909  12.728   5.829   3.298  0.5246 -0.3445  0.5860
  926MOL0     C24910  12.855   5.864   3.343 -0.5352  0.7871 -1.1512
  926MOL0     O24911  12.968   5.825   3.275 -0.6023 -0.5217  0.1487
  926MOL0     C24912  13.091   5.867   3.331 -0.1244  0.0087  0.0207
  926MOL0     C24913  13.212   5.829   3.232  0.3396 -0.0913 -0.4978
  926MOL0     C24914  13.333   5.926   3.238 -0.0984  0.3028 -0.4624
  926MOL0     C24915  13.459   5.853   3.192  0.2583  0.3804  0.7700
  926MOL0     C24916  13.583   5.937   3.209 -0.2165 -0.0881  0.2829
  926MOL0     C24917  13.700   5.914   3.115  0.7196 -0.4140 -0.3780
  926MOL0     C24918  13.825   5.980   3.168  0.1291 -0.2177 -0.5490
  926MOL0     C24919  13.934   5.954   3.072  0.4209 -0.4097 -0.2123
  926MOL0    Cl24920  13.910   6.082   2.940  0.3939  0.8010 -0.0764
  926MOL0     C24921  12.857   5.943   3.464  0.0268  0.0014 -0.0443
  926MOL0     C24922  12.741   5.993   3.514  0.2548 -0.4963 -0.4915
  926MOL0     O24923  12.362   5.839   3.534 -0.6746 -0.6226  0.4007
  926MOL0     C24924  12.310   6.180   3.632 -0.3880 -0.3700 -0.5720
  926MOL0     C24925  12.211   6.271   3.676  0.3185  1.2933 -0.6330
  926MOL0     N24926  11.349   6.071   3.829  0.5649 -0.6893  0.7082
  926MOL0     N24927  11.221   6.088   3.806  0.6940 -0.3774 -0.0382
  926MOL0     C24928  10.558   6.898   3.334 -0.5557  1.2534  0.0901
  926MOL0     C24929  10.519   7.021   3.280  0.3444 -0.3772  1.1270
  926MOL0     C24930  10.302   7.352   3.096  0.1461  0.3557  0.3056
  926MOL0     C24931  10.302   7.447   3.201 -0.1014 -0.4422  0.5829
  926MOL0     C24932  10.277   7.573   3.176  0.3459 -0.9604 -0.5018
  926MOL0     C24933  10.259   7.623   3.045 -0.1094  0.6049 -0.2600
  926MOL0     O24934  10.240   7.753   3.013 -0.1388 -0.3232  0.0367
  926MOL0     C24935  10.275   7.858   3.113  0.5348  0.2508 -0.3889
  926MOL0     C24936  10.246   8.003   3.051 -0.5064  1.6112  0.0403
  926MOL0     C24937  10.113   8.020   2.965 -0.9147  0.6368  0.4209
  926MOL0     C24938   9.991   8.006   3.062 -0.1874  0.2581 -0.0284
  926MOL0     C24939   9.865   8.071   3.004 -0.5984  0.5405 -0.0226
  926MOL0     C24940   9.762   8.110   2.966  0.3106  0.0905 -0.6487
  926MOL0     C24941  10.245   7.529   2.943 -0.4932 -0.0328  0.3270
  926MOL0     C24942  10.276   7.393   2.961  0.1212 -0.0933 -0.0741
  926MOL0     H24943  10.236   7.057   3.450  0.2784 -0.9564  1.4361
  926MOL0     H24944  10.301   6.843   3.547 -0.2070  3.8020  2.1744
  926MOL0     H24945  10.455   6.653   3.635 -1.5767  1.0554 -0.2587
  926MOL0     H24946  10.335   6.622   3.509  0.3998 -0.6969  0.5619
  926MOL0     H24947  10.409   6.397   3.578  3.0768  0.5537  5.5768
  926MOL0     H24948  10.469   6.449   3.420 -3.8159 -0.5311  0.4551
  926MOL0     H24949  10.701   6.494   3.516 -0.2494 -0.2564 -2.5900
  926MOL0     H24950  10.646   6.467   3.677 -0.3415  0.7569 -0.3737
  926MOL0     H24951  10.574   6.237   3.609  1.3946 -2.3413  0.1720
  926MOL0     H24952  10.651   6.251   3.454  0.6692 -2.8136 -0.0472
  926MOL0     H24953  10.791   6.266   3.726  0.5565 -0.5514 -0.3950
  926MOL0     H24954  10.791   6.139   3.606  1.5111  0.0508  0.6363
  926MOL0     H24955  10.921   6.273   3.443 -1.6392 -2.0602  0.0019
  926MOL0     H24956  10.917   6.412   3.560 -0.1499 -0.1383 -0.8007
  926MOL0     H24957  11.037   6.143   3.580 -1.8723  0.2763 -1.1417
  926MOL0     H24958  11.127   6.295   3.562 -0.5422 -0.5673 -1.2158
  926MOL0     H24959  10.974   6.235   3.812  0.8611 -0.5212 -0.2368
  926MOL0     H24960  11.056   6.379   3.773 -1.4048 -0.2243  2.4364
  926MOL0     H24961  11.327   6.398   3.811  0.1576  0.7288 -0.1134
  926MOL0     H24962  11.551   6.311   3.938 -1.5540 -0.6551  0.8724
  926MOL0     H24963  11.605   6.149   3.881  2.3297  1.6475  1.1900
  926MOL0     H24964  11.541   6.400   3.706  1.4007  0.7593 -1.5052
  926MOL0     H24965  11.594   6.243   3.643 -0.1773 -0.9339  1.1454
  926MOL0     H24966  11.780   6.332   3.850  1.9123  2.0414 -0.6549
  926MOL0     H24967  11.745   6.460   3.730  0.4881  0.6491  2.9516
  926MOL0     H24968  11.812   6.284   3.549 -0.3392 -0.0714 -0.4314
  926MOL0     H24969  11.829   6.173   3.682 -1.8435  0.5842  0.7088
  926MOL0     H24970  11.956   6.114   3.517  0.0454 -2.5500 -0.6181
  926MOL0     H24971  12.174   5.881   3.384 -2.5531 -1.1775 -1.2057
  926MOL0     H24972  12.078   5.838   3.537 -1.2705  2.9434  2.6052
  926MOL0     H24973  12.017   5.932   3.397 -0.3729 -5.2446 -2.8424
  926MOL0     H24974  12.517   5.850   3.296  0.6423 -0.8123  0.7711
  926MOL0     H24975  12.724   5.773   3.205  1.6464 -0.8078  0.7904
  926MOL0     H24976  13.097   5.974   3.354 -2.4656 -0.1777  1.7989
  926MOL0     H24977  13.113   5.815   3.424  4.2970  0.5451 -0.5255
  926MOL0     H24978  13.256   5.741   3.280  2.4680  1.4483  0.5313
  926MOL0     H24979  13.171   5.801   3.135 -2.3840 -2.4202  1.1369
  926MOL0     H24980  13.348   5.958   3.341 -0.6952 -2.4761  0.5828
  926MOL0     H24981  13.313   6.014   3.175  1.1069 -0.9663 -2.7824
  926MOL0     H24982  13.463   5.753   3.236  0.3430  0.5592  1.1752
  926MOL0     H24983  13.454   5.841   3.084 -2.3266  0.4774  0.8229
  926MOL0     H24984  13.621   5.918   3.310 -1.4484 -5.8356  0.0242
  926MOL0     H24985  13.550   6.038   3.182 -3.1239 -2.3014 -6.8764
  926MOL0     H24986  13.724   5.807   3.109 -0.9684 -0.8530  0.2827
  926MOL0     H24987  13.674   5.957   3.018  0.7059  1.6870  0.5124
  926MOL0     H24988  13.847   5.927   3.261 -1.0673  2.5758  1.4693
  926MOL0     H24989  13.809   6.084   3.200  0.9157 -0.6465  1.3573
  926MOL0     H24990  13.921   5.851   3.038 -0.5675 -1.1480  2.1872
  926MOL0     H24991  14.031   5.963   3.121  0.0712  0.0967  0.4183
  926MOL0     H24992  12.943   5.980   3.520  0.6825  0.1866 -1.1367
  926MOL0     H24993  12.730   6.062   3.597 -1.5625 -1.6596  0.2822
  926MOL0     H24994  12.414   6.205   3.648 -0.1620 -0.6824 -1.5083
  926MOL0     H24995  12.234   6.362   3.729  0.8528  1.4792 -1.1660
  926MOL0     H24996  10.652   6.849   3.309 -3.3169 -3.8653 -1.7846
  926MOL0     H24997  10.579   7.074   3.207  1.1366 -3.0222 -0.2649
  926MOL0     H24998  10.336   7.414   3.299  2.1611 -2.6441 -0.8267
  926MOL0     H24999  10.283   7.634   3.266  0.2660 -1.1124 -0.3934
  926MOL0     H25000  10.201   7.843   3.192 -1.3100  1.2128 -1.8802
  926MOL0     H25001  10.378   7.853   3.152  1.1654  1.2238 -1.8457
  926MOL0     H25002  10.339   8.019   2.997 -1.8067  3.6225 -1.7874
  926MOL0     H25003  10.242   8.074   3.134 -0.5078  1.4475  0.1808
  926MOL0     H25004  10.115   7.960   2.874  0.6179  2.4322 -0.8084
  926MOL0     H25005  10.106   8.122   2.927  1.0562  0.8194  0.4848
  926MOL0     H25006  10.009   8.038   3.165  4.5004 -3.5992  0.7071
  926MOL0     H25007   9.981   7.897   3.066  1.9063  0.0535  0.8006
  926MOL0     H25008   9.665   8.136   2.929  0.9462  1.7408 -1.2292
  926MOL0     H25009  10.243   7.576   2.845 -0.6553  0.9187  0.7801
  926MOL0     H25010  10.268   7.322   2.880 -1.0552 -2.3293  1.8866
  927MOL0     O25011   8.106   0.388   4.756 -0.4742  0.4301  0.4498
  927MOL0     C25012   8.136   0.266   4.728  0.0539  0.3311 -0.6173
  927MOL0     O25013   8.068   0.180   4.651 -0.7334  0.5182  0.3185
  927MOL0     C25014   7.949   0.222   4.608 -1.1326  0.1798 -0.0077
  927MOL0     C25015   7.843   0.241   4.702 -0.0120  0.7614 -0.6620
  927MOL0     C25016   7.726   0.304   4.671  0.5395  0.0392 -0.2922
  927MOL0     C25017   7.697   0.346   4.542 -0.2281 -0.5401  0.4128
  927MOL0     O25018   7.580   0.411   4.511  0.0689 -0.4817 -0.0254
  927MOL0     C25019   7.543   0.418   4.365  0.5024 -0.1623 -0.4755
  927MOL0     C25020   7.399   0.452   4.345  0.1206  0.3442  0.7375
  927MOL0     C25021   7.303   0.343   4.383 -0.5111  0.2836  0.0379
  927MOL0     C25022   7.160   0.399   4.355  0.0562 -0.1349  0.4964
  927MOL0     C25023   7.060   0.301   4.414  1.0571 -0.3669 -1.0058
  927MOL0     C25024   6.918   0.338   4.372  0.7006  0.1641  0.9687
  927MOL0     C25025   6.814   0.252   4.431  0.2199  0.3328 -0.6829
  927MOL0     C25026   6.676   0.268   4.363 -0.1453  0.1564 -0.8331
  927MOL0     N25027   6.593   0.381   4.400  0.3337  0.3592 -0.6833
  927MOL0     C25028   6.506   0.382   4.502 -0.1330 -0.0330  0.5767
  927MOL0     C25029   6.441   0.501   4.491  0.8480 -0.3864  0.5872
  927MOL0     C25030   6.323   0.541   4.573 -0.0089 -0.8927 -0.7633
  927MOL0     C25031   6.335   0.487   4.718  0.9321 -0.1883 -0.6106
  927MOL0     C25032   6.229   0.541   4.822  0.5032  0.0976  0.6408
  927MOL0     C25033   6.094   0.461   4.812 -0.1045  0.3627 -1.2311
  927MOL0     O25034   6.010   0.509   4.713 -0.2817 -0.1344 -0.5066
  927MOL0     C25035   5.887   0.452   4.707 -0.2473  0.4680  0.0828
  927MOL0     C25036   5.835   0.353   4.794 -0.4344  0.8789  0.6201
  927MOL0     C25037   5.695   0.321   4.790 -0.1202 -0.1664  0.0913
  927MOL0     C25038   5.648   0.207   4.877 -0.0330  0.5586  0.2787
  927MOL0     C25039   5.608   0.387   4.703  0.1487  0.1388  0.7228
  927MOL0     C25040   5.467   0.356   4.692  0.7803 -0.7769 -0.2113
  927MOL0     O25041   5.394   0.388   4.807  0.3911 -0.3705  0.3441
  927MOL0     C25042   5.271   0.331   4.817  1.0739  0.6722  0.6882
  927MOL0     C25043   5.161   0.401   4.842  0.3159 -1.1781 -0.7804
  927MOL0     C25044   5.026   0.340   4.857  0.1844  0.4319  0.3917
  927MOL0     C25045   5.020   0.199   4.861 -0.6833 -0.7057  0.0642
  927MOL0     O25046   4.906   0.133   4.874  0.1879  0.2432  0.1140
  927MOL0     C25047   4.783   0.213   4.887 -0.0092  0.0431 -0.2556
  927MOL0     C25048   4.766   0.252   5.032  0.0576  0.9228 -0.8468
  927MOL0     C25049   4.619   0.267   5.073  0.4413  0.0163 -0.4220
  927MOL0     C25050   4.591   0.319   5.216  0.0395  0.5673  0.1882
  927MOL0     C25051   4.443   0.332   5.244  0.5923 -0.6730  0.0280
  927MOL0     C25052   4.424   0.409   5.371  0.0707  0.0929  0.7762
  927MOL0     C25053   4.278   0.441   5.393 -0.0980  0.1649  0.6428
  927MOL0     C25054   4.247   0.495   5.535 -0.2388  0.5762 -0.4448
  927MOL0    Cl25055   4.317   0.655   5.543 -0.4972 -0.3966 -0.3572
  927MOL0     C25056   5.140   0.129   4.826 -0.5888 -0.8230 -0.1564
  927MOL0     C25057   5.261   0.188   4.816 -0.0230 -0.7410 -0.2211
  927MOL0     O25058   5.423   0.303   4.595  0.3456 -0.2836  0.5353
  927MOL0     C25059   5.661   0.492   4.629  1.1144 -0.6255  0.1068
  927MOL0     C25060   5.793   0.523   4.629  0.2927  0.3516 -0.4910
  927MOL0     N25061   6.504   0.572   4.393  0.0902  0.4169 -0.3102
  927MOL0     N25062   6.591   0.498   4.344  0.0599  0.3426  0.1677
  927MOL0     C25063   7.805   0.325   4.443  0.2785 -0.0626  0.1422
  927MOL0     C25064   7.927   0.258   4.477  0.3974  0.8145  0.2001
  927MOL0     C25065   8.252   0.208   4.798  0.0893 -0.2185  0.0805
  927MOL0     C25066   8.292   0.070   4.792  0.5342 -0.2606 -0.1325
  927MOL0     C25067   8.406   0.019   4.847  0.3691  0.5701 -0.6189
  927MOL0     C25068   8.492   0.113   4.914  0.7011  0.4640 -0.6444
  927MOL0     O25069   8.612   0.083   4.969  0.3059 -0.2264  0.3168
  927MOL0     C25070   8.667  -0.050   4.937  0.2428 -0.1216 -0.1237
  927MOL0     C25071   8.819  -0.062   4.956  0.8004 -0.8110 -0.3920
  927MOL0     C25072   8.908   0.043   4.876  0.8023 -0.0926 -0.0818
  927MOL0     C25073   8.874   0.083   4.729  0.4601 -0.2851  0.6082
  927MOL0     C25074   8.868  -0.036   4.639  0.1644  1.1273  0.2960
  927MOL0     C25075   8.877  -0.130   4.566  0.3999  0.1802  0.1336
  927MOL0     C25076   8.461   0.246   4.933  1.0169  0.2362 -0.4993
  927MOL0     C25077   8.335   0.300   4.873 -0.7942  0.6191 -0.8705
  927MOL0     H25078   7.860   0.202   4.801 -0.2783  2.0732 -0.0697
  927MOL0     H25079   7.659   0.330   4.752  1.3268 -0.2271  0.4622
  927MOL0     H25080   7.608   0.496   4.325  0.3452  1.0894  1.5801
  927MOL0     H25081   7.558   0.325   4.309 -3.0227  0.8560 -3.5258
  927MOL0     H25082   7.366   0.537   4.407 -3.1258 -0.6799  0.5677
  927MOL0     H25083   7.387   0.484   4.241 -3.0679  0.1999  0.9541
  927MOL0     H25084   7.331   0.247   4.339  2.1228  0.0236  2.0356
  927MOL0     H25085   7.320   0.327   4.490 -0.4747 -1.0127 -0.1393
  927MOL0     H25086   7.148   0.490   4.413 -0.8706 -0.4436  0.7972
  927MOL0     H25087   7.143   0.421   4.249  1.3424 -1.4577 -0.0339
  927MOL0     H25088   7.092   0.200   4.386  2.3583 -0.2646  0.0167
  927MOL0     H25089   7.073   0.301   4.522  1.5063 -3.2553 -0.9683
  927MOL0     H25090   6.893   0.444   4.386 -4.0052  0.1306 -3.6988
  927MOL0     H25091   6.922   0.328   4.263 -1.8979  0.3528  0.8062
  927MOL0     H25092   6.849   0.148   4.427 -0.0455  0.2680 -1.6967
  927MOL0     H25093   6.801   0.255   4.540 -1.0147 -0.2504 -0.7929
  927MOL0     H25094   6.620   0.176   4.382 -1.3330  1.2920  1.6532
  927MOL0     H25095   6.692   0.282   4.255 -0.8975  0.6973 -0.8837
  927MOL0     H25096   6.488   0.296   4.566  3.7127 -1.7505 -0.4058
  927MOL0     H25097   6.327   0.650   4.575  2.7038 -0.9338  0.5117
  927MOL0     H25098   6.237   0.492   4.526 -1.4632  0.7446  0.0740
  927MOL0     H25099   6.435   0.511   4.757  0.8883  0.4923 -0.9058
  927MOL0     H25100   6.334   0.378   4.715 -1.4976 -0.2303 -0.3003
  927MOL0     H25101   6.217   0.649   4.809 -1.8882 -0.0719  0.9530
  927MOL0     H25102   6.258   0.524   4.926 -0.4021  0.5015  0.9736
  927MOL0     H25103   6.039   0.467   4.907  1.7947  0.6382 -0.0919
  927MOL0     H25104   6.112   0.354   4.794 -0.1814  0.0856  0.1915
  927MOL0     H25105   5.912   0.300   4.850 -1.1763  1.2247  1.9966
  927MOL0     H25106   5.550   0.165   4.851 -1.3250  3.2845  0.3207
  927MOL0     H25107   5.726   0.131   4.876  0.3204  0.8270  2.7850
  927MOL0     H25108   5.632   0.253   4.975  1.7428  1.3237  0.2484
  927MOL0     H25109   5.158   0.508   4.856 -0.8326 -1.3844  0.9709
  927MOL0     H25110   4.938   0.403   4.871 -0.4763 -0.8204  2.1735
  927MOL0     H25111   4.776   0.295   4.816 -1.1326  1.1094  1.0250
  927MOL0     H25112   4.699   0.146   4.862  0.1522  0.6100 -2.4889
  927MOL0     H25113   4.819   0.180   5.096 -0.0006  2.9632  1.6598
  927MOL0     H25114   4.813   0.351   5.040  0.4312  0.7646 -1.0344
  927MOL0     H25115   4.585   0.164   5.062  0.0483  0.1832 -0.7900
  927MOL0     H25116   4.558   0.322   5.001 -2.1295 -2.4278 -0.2875
  927MOL0     H25117   4.632   0.245   5.286  0.0897 -1.3785 -1.7847
  927MOL0     H25118   4.637   0.416   5.239 -0.4999  0.8615  0.0501
  927MOL0     H25119   4.399   0.232   5.254  0.0703 -0.3561  0.9805
  927MOL0     H25120   4.397   0.386   5.161  0.5967  0.8066  0.9528
  927MOL0     H25121   4.463   0.349   5.454  1.9323  1.5053  0.9888
  927MOL0     H25122   4.480   0.502   5.356  0.8442 -0.5708 -0.6836
  927MOL0     H25123   4.227   0.345   5.385 -1.7614  1.1568 -1.5640
  927MOL0     H25124   4.217   0.499   5.324 -0.9669  1.4589  2.4171
  927MOL0     H25125   4.290   0.436   5.616 -0.5442  2.4093  1.1309
  927MOL0     H25126   4.139   0.487   5.551  0.3637 -0.5952  4.3476
  927MOL0     H25127   5.135   0.021   4.829  0.0887 -0.8631 -0.2679
  927MOL0     H25128   5.347   0.127   4.790 -0.2988 -0.1094 -2.9931
  927MOL0     H25129   5.602   0.555   4.563 -2.0715 -0.7316  2.6259
  927MOL0     H25130   5.828   0.611   4.575  2.0390 -0.9522 -1.5779
  927MOL0     H25131   7.796   0.354   4.339 -1.1741 -1.5526 -0.1840
  927MOL0     H25132   7.998   0.248   4.395 -1.4383  0.2282 -1.3800
  927MOL0     H25133   8.231  -0.015   4.762  1.9718 -0.8836 -1.3926
  927MOL0     H25134   8.424  -0.086   4.825  0.1711  0.6918 -1.3846
  927MOL0     H25135   8.617  -0.122   5.002 -2.9099  0.8221 -1.3062
  927MOL0     H25136   8.644  -0.078   4.834  0.0334 -0.3836 -0.0064
  927MOL0     H25137   8.845  -0.167   4.934 -1.1011 -1.3851 -0.0373
  927MOL0     H25138   8.848  -0.046   5.060  0.0330 -1.5761 -0.0508
  927MOL0     H25139   9.012   0.009   4.872 -0.1727 -3.6550  0.8674
  927MOL0     H25140   8.908   0.137   4.931 -0.6210  2.0654 -3.4157
  927MOL0     H25141   8.954   0.153   4.702 -0.3778  1.1353  1.6511
  927MOL0     H25142   8.772   0.124   4.721 -0.3402 -2.4112 -1.1114
  927MOL0     H25143   8.865  -0.205   4.491  2.7924  1.4558 -1.6682
  927MOL0     H25144   8.535   0.310   4.980  0.4279  0.8843 -0.4444
  927MOL0     H25145   8.303   0.402   4.892 -2.5808 -0.1721  0.7472
  928MOL0     O25146   0.607   0.186   3.586 -0.3508 -0.1555 -0.2475
  928MOL0     C25147   0.652   0.265   3.499 -0.0241  0.3129  0.7638
  928MOL0     O25148   0.581   0.337   3.409  0.4293 -0.3474  0.4527
  928MOL0     C25149   0.438   0.330   3.401  0.7106 -0.6071 -0.1060
  928MOL0     C25150   0.343   0.275   3.491  0.0093 -0.1586  0.3523
  928MOL0     C25151   0.209   0.238   3.450 -0.3143 -0.4217 -0.1343
  928MOL0     C25152   0.172   0.260   3.322  0.6274 -0.2311  0.3586
  928MOL0     O25153   0.051   0.207   3.272  0.5802 -0.1860 -0.4728
  928MOL0     C25154  -0.064   0.204   3.354 -0.1615  1.2103 -0.1910
  928MOL0     C25155  -0.096   0.055   3.391  0.0187  0.5277  0.4505
  928MOL0     C25156  -0.126   0.053   3.544  0.5988 -0.3666 -0.2073
  928MOL0     C25157  -0.155  -0.086   3.603 -0.9619  0.1382  0.1364
  928MOL0     C25158  -0.139  -0.095   3.751  0.5891  0.3714 -0.7112
  928MOL0     C25159  -0.259  -0.047   3.826  0.5216 -0.2378 -0.3609
  928MOL0     C25160  -0.258  -0.096   3.975 -0.3973  0.7572  0.0417
  928MOL0     C25161  -0.362  -0.026   4.063 -0.2386 -0.9838 -0.0491
  928MOL0     N25162  -0.347   0.125   4.053 -0.0361  0.0196  0.1614
  928MOL0     C25163  -0.454   0.201   3.996  0.5623  0.0501 -0.1101
  928MOL0     C25164  -0.421   0.331   4.023 -0.2055  1.0526  0.4378
  928MOL0     C25165  -0.498   0.461   4.008 -0.7347  0.0412 -0.0672
  928MOL0     C25166  -0.543   0.490   3.863 -0.2361 -0.1028 -0.6370
  928MOL0     C25167  -0.690   0.553   3.862 -1.0574  0.1644 -0.0172
  928MOL0     C25168  -0.678   0.703   3.872  1.6372  0.7937 -0.3470
  928MOL0     O25169  -0.805   0.759   3.819  0.1347  0.1584  0.2641
  928MOL0     C25170  -0.900   0.800   3.912 -0.0763 -0.0485 -0.7013
  928MOL0     C25171  -0.894   0.794   4.054 -0.8171 -0.2389  0.3230
  928MOL0     C25172  -1.007   0.816   4.129 -0.2933 -0.4033 -0.2704
  928MOL0     C25173  -0.980   0.818   4.279  0.2135 -0.8313 -0.3907
  928MOL0     C25174  -1.134   0.854   4.074  0.7258  0.1409 -0.6804
  928MOL0     C25175  -1.249   0.904   4.140 -0.2815  0.4651 -0.2164
  928MOL0     O25176  -1.357   0.957   4.069  0.3136  0.5084  0.4898
  928MOL0     C25177  -1.465   1.006   4.139  0.6875 -0.6109  0.1783
  928MOL0     C25178  -1.489   1.145   4.140 -0.1072 -0.8207  0.5369
  928MOL0     C25179  -1.591   1.204   4.213 -0.7616 -0.8447 -0.2638
  928MOL0     C25180  -1.679   1.125   4.289  0.8965  0.3482 -0.0678
  928MOL0     O25181  -1.786   1.186   4.342 -0.6218 -0.2431  0.4393
  928MOL0     C25182  -1.871   1.116   4.432 -0.4278  0.2664 -1.2020
  928MOL0     C25183  -1.998   1.191   4.489  0.1142  0.5311  0.0025
  928MOL0     C25184  -2.065   1.291   4.406  0.5908 -0.2714  0.0635
  928MOL0     C25185  -2.216   1.299   4.424  0.1379 -0.2899 -1.2012
  928MOL0     C25186  -2.299   1.410   4.360  0.2915  0.0007  0.0902
  928MOL0     C25187  -2.332   1.377   4.212 -0.3519 -0.5851 -0.0068
  928MOL0     C25188  -2.393   1.498   4.147  0.0917 -0.5296 -0.5046
  928MOL0     C25189  -2.530   1.536   4.208  0.2698 -0.3456 -0.4316
  928MOL0    Cl25190  -2.527   1.720   4.233 -0.0643  0.2699  0.3458
  928MOL0     C25191  -1.652   0.989   4.294  0.0887 -0.5187  0.0686
  928MOL0     C25192  -1.537   0.933   4.231  0.5044 -0.6366  0.2245
  928MOL0     O25193  -1.250   0.896   4.264 -0.1986 -0.0095  0.8036
  928MOL0     C25194  -1.142   0.847   3.934  0.7233 -0.8462 -0.4108
  928MOL0     C25195  -1.029   0.826   3.859  0.1309 -0.5068 -0.0764
  928MOL0     N25196  -0.295   0.325   4.083  0.5612 -0.3929  0.2111
  928MOL0     N25197  -0.257   0.211   4.102  0.0894  0.6899 -0.3371
  928MOL0     C25198   0.264   0.318   3.233 -0.4937 -0.0188 -0.1020
  928MOL0     C25199   0.390   0.349   3.272  0.9401  0.2245 -0.1962
  928MOL0     C25200   0.803   0.264   3.470  0.3505 -0.3050  0.3114
  928MOL0     C25201   0.888   0.250   3.579 -0.2859 -0.5844 -0.7645
  928MOL0     C25202   1.023   0.261   3.559  0.4310 -0.8353 -0.4030
  928MOL0     C25203   1.080   0.283   3.435 -1.0944  0.2164  0.4718
  928MOL0     O25204   1.212   0.295   3.408 -0.1050 -0.6090 -0.7735
  928MOL0     C25205   1.304   0.273   3.521  0.4211 -0.1183  0.4289
  928MOL0     C25206   1.446   0.299   3.477 -0.5286 -0.3614 -0.0157
  928MOL0     C25207   1.543   0.281   3.597  0.2918 -0.6648  0.6871
  928MOL0     C25208   1.571   0.131   3.606 -0.2725  0.4041 -0.2848
  928MOL0     C25209   1.685   0.116   3.704 -0.1258 -0.2900  0.5962
  928MOL0     C25210   1.773   0.125   3.785 -0.4244  0.4527 -0.0150
  928MOL0     C25211   0.989   0.294   3.326  0.4493 -0.6883 -0.4443
  928MOL0     C25212   0.851   0.289   3.342  0.3209  0.5267 -0.2932
  928MOL0     H25213   0.368   0.260   3.596 -0.0381 -0.3343  0.3382
  928MOL0     H25214   0.141   0.201   3.527 -1.8073  2.8289  0.2763
  928MOL0     H25215  -0.034   0.252   3.448 -2.6080 -0.8201  1.7874
  928MOL0     H25216  -0.147   0.255   3.305 -0.5445  1.5205  0.7496
  928MOL0     H25217  -0.177   0.012   3.331  1.6496 -0.6438 -1.0004
  928MOL0     H25218  -0.014  -0.014   3.376  0.1818  0.5578  1.1786
  928MOL0     H25219  -0.036   0.097   3.588 -1.5595  2.9040  1.3577
  928MOL0     H25220  -0.198   0.130   3.574  1.9212  1.1966 -0.8705
  928MOL0     H25221  -0.249  -0.125   3.563 -2.3484  2.5944  0.7697
  928MOL0     H25222  -0.078  -0.156   3.568 -1.6634 -0.9561  0.7098
  928MOL0     H25223  -0.128  -0.202   3.772  2.2724  1.1324  3.1737
  928MOL0     H25224  -0.054  -0.038   3.789 -1.4184  2.9576  0.2510
  928MOL0     H25225  -0.261   0.062   3.827 -1.2655 -0.2414 -0.9650
  928MOL0     H25226  -0.353  -0.077   3.780 -1.4228 -0.0217  3.1805
  928MOL0     H25227  -0.273  -0.204   3.973 -2.7743  1.0206  0.5874
  928MOL0     H25228  -0.161  -0.088   4.025 -0.6667 -0.3887  0.7775
  928MOL0     H25229  -0.343  -0.046   4.169 -1.7875 -0.7081  0.3005
  928MOL0     H25230  -0.466  -0.043   4.035 -0.7525  2.3923 -0.6651
  928MOL0     H25231  -0.537   0.164   3.938  3.0096 -4.9178 -1.0023
  928MOL0     H25232  -0.578   0.470   4.082 -1.3642  1.5343 -0.8817
  928MOL0     H25233  -0.436   0.547   4.035  0.6488 -1.5325  2.1681
  928MOL0     H25234  -0.560   0.391   3.819  0.6789 -0.8706  0.6549
  928MOL0     H25235  -0.467   0.550   3.813  1.3308 -0.3971  1.2900
  928MOL0     H25236  -0.752   0.511   3.942  0.8551  0.7928  1.8957
  928MOL0     H25237  -0.748   0.539   3.770 -2.9779  0.9661  1.0235
  928MOL0     H25238  -0.591   0.743   3.819  0.0397  2.1862 -2.0805
  928MOL0     H25239  -0.679   0.747   3.973  1.2923  0.9266 -0.4089
  928MOL0     H25240  -0.801   0.781   4.108  1.7366  1.5877 -3.2861
  928MOL0     H25241  -0.999   0.919   4.316  2.8140  0.6624 -2.7677
  928MOL0     H25242  -1.061   0.756   4.319  0.9820 -1.5773  0.0256
  928MOL0     H25243  -0.884   0.782   4.317  0.0529 -0.2596  0.5685
  928MOL0     H25244  -1.421   1.213   4.090  1.8152 -3.0317 -0.0214
  928MOL0     H25245  -1.596   1.313   4.210  0.5925 -0.7791 -0.9197
  928MOL0     H25246  -1.914   1.031   4.376 -1.9994 -1.8298  2.7604
  928MOL0     H25247  -1.814   1.070   4.513 -0.4753 -0.4012 -1.5345
  928MOL0     H25248  -2.072   1.119   4.526 -1.9390  1.3002 -2.3292
  928MOL0     H25249  -1.961   1.249   4.574  0.3437  1.1809 -0.5381
  928MOL0     H25250  -2.040   1.270   4.302  0.5107 -4.0087  0.6564
  928MOL0     H25251  -2.017   1.388   4.425  0.1384 -0.4625  2.4580
  928MOL0     H25252  -2.253   1.196   4.426  1.6518 -0.9041 -2.3462
  928MOL0     H25253  -2.220   1.333   4.528 -0.3466 -1.1679 -0.9216
  928MOL0     H25254  -2.252   1.508   4.371  1.3438 -0.4899  0.1381
  928MOL0     H25255  -2.393   1.420   4.414 -0.8023 -1.0511 -1.5402
  928MOL0     H25256  -2.240   1.346   4.161 -0.7819  1.3812 -2.1981
  928MOL0     H25257  -2.396   1.288   4.202 -2.1651  0.6672 -0.1490
  928MOL0     H25258  -2.407   1.473   4.041  0.9112  1.2030 -1.0543
  928MOL0     H25259  -2.329   1.586   4.152 -2.0857  1.2028 -1.2841
  928MOL0     H25260  -2.556   1.471   4.292 -2.6528  1.8373  0.5204
  928MOL0     H25261  -2.608   1.515   4.133 -0.3354 -1.5268  0.4967
  928MOL0     H25262  -1.706   0.921   4.358 -2.1932  1.8852  0.8894
  928MOL0     H25263  -1.527   0.825   4.223 -2.9638 -1.1070  0.5844
  928MOL0     H25264  -1.241   0.853   3.889  0.2185  0.2901  0.7942
  928MOL0     H25265  -1.018   0.820   3.752  0.2025 -0.3913 -0.0767
  928MOL0     H25266   0.234   0.339   3.131  0.8512 -0.9681 -0.7268
  928MOL0     H25267   0.463   0.402   3.212  1.8164 -0.5345  0.1614
  928MOL0     H25268   0.859   0.243   3.684  0.2885  1.2838 -0.4362
  928MOL0     H25269   1.086   0.250   3.646  0.1101 -1.4531 -0.2385
  928MOL0     H25270   1.278   0.347   3.597 -2.6787 -3.0522  2.5157
  928MOL0     H25271   1.287   0.174   3.562 -0.0735 -0.7549 -1.2118
  928MOL0     H25272   1.458   0.401   3.438  1.9309 -0.5188  0.1416
  928MOL0     H25273   1.483   0.222   3.408  1.2454 -1.4174  1.9679
  928MOL0     H25274   1.501   0.322   3.689 -2.7648 -2.0414  0.0338
  928MOL0     H25275   1.636   0.332   3.567  0.1999 -2.1263 -2.6096
  928MOL0     H25276   1.594   0.092   3.507 -0.5959 -0.9954  0.1711
  928MOL0     H25277   1.483   0.077   3.644  1.7808 -1.6798  1.8949
  928MOL0     H25278   1.855   0.147   3.850  1.7977  1.0127 -2.8488
  928MOL0     H25279   1.026   0.301   3.224 -1.1825 -0.2608 -1.0437
  928MOL0     H25280   0.787   0.292   3.255  2.1573 -1.6504 -1.8410
  929MOL0     O25281   5.123   8.436   5.068 -0.8779  0.1074 -0.0415
  929MOL0     C25282   5.235   8.378   5.066 -0.4556  0.1402 -0.4835
  929MOL0     O25283   5.267   8.262   5.120 -0.8514 -0.2249 -0.4078
  929MOL0     C25284   5.172   8.194   5.182  0.3850 -0.3194  1.0407
  929MOL0     C25285   5.081   8.105   5.122 -0.2962 -0.0042 -0.0103
  929MOL0     C25286   4.979   8.040   5.201  0.2980 -0.3617  0.2972
  929MOL0     C25287   4.979   8.056   5.344 -0.1036 -0.0693  0.2764
  929MOL0     O25288   4.886   7.984   5.423  0.1947  0.1560 -0.0067
  929MOL0     C25289   4.865   8.017   5.562 -0.0249  0.5675 -1.2193
  929MOL0     C25290   4.771   7.917   5.628  0.3189  0.6492  0.4182
  929MOL0     C25291   4.744   7.922   5.782 -0.2871  0.3540  0.8295
  929MOL0     C25292   4.662   8.037   5.827 -0.2745  0.5200  0.4908
  929MOL0     C25293   4.521   7.989   5.859 -0.0687  0.8784 -0.1521
  929MOL0     C25294   4.438   7.911   5.754 -0.8389 -0.1355 -0.1863
  929MOL0     C25295   4.291   7.895   5.807 -0.0561  0.6336 -0.7766
  929MOL0     C25296   4.201   7.808   5.719 -0.2320 -0.2082 -0.4674
  929MOL0     N25297   4.086   7.765   5.792 -0.1712  0.2628 -0.2691
  929MOL0     C25298   4.096   7.641   5.855 -0.3440  0.1797 -1.4780
  929MOL0     C25299   3.968   7.617   5.892  0.0452  0.1220  0.0144
  929MOL0     C25300   3.922   7.516   5.992 -1.2717 -0.0209  1.7569
  929MOL0     C25301   3.800   7.442   5.957 -0.5554 -0.1820 -0.3034
  929MOL0     C25302   3.748   7.347   6.068 -0.3558 -0.3776  0.3567
  929MOL0     C25303   3.635   7.253   6.025  0.8745 -0.7288 -0.7136
  929MOL0     O25304   3.517   7.325   6.007 -1.0575  0.6164  0.3750
  929MOL0     C25305   3.397   7.265   5.990  0.0416 -0.5755  0.1920
  929MOL0     C25306   3.371   7.128   5.996 -0.6260  0.2571 -0.1409
  929MOL0     C25307   3.242   7.086   5.986 -0.4064  0.3335 -0.6603
  929MOL0     C25308   3.222   6.946   6.005  0.8682 -0.0191 -0.4779
  929MOL0     C25309   3.134   7.178   5.979 -0.2194 -0.8735 -0.3118
  929MOL0     C25310   2.985   7.136   5.972 -0.5988 -0.3490 -0.7537
  929MOL0     O25311   2.897   7.248   5.955 -0.6471 -0.4221 -0.0519
  929MOL0     C25312   2.771   7.204   5.956 -0.0824  0.2414  1.1256
  929MOL0     C25313   2.689   7.207   6.080 -0.9721  0.5544 -0.2358
  929MOL0     C25314   2.554   7.211   6.073  0.6567  0.1375  0.1845
  929MOL0     C25315   2.486   7.223   5.955  0.1569  0.1882  0.1128
  929MOL0     O25316   2.346   7.240   5.938 -0.9494 -0.9442  0.1061
  929MOL0     C25317   2.272   7.330   6.026  0.1017 -0.2033  0.6335
  929MOL0     C25318   2.191   7.247   6.125  0.1456  0.1854 -0.6960
  929MOL0     C25319   2.087   7.166   6.052  0.0832 -0.6208 -0.0801
  929MOL0     C25320   1.944   7.200   6.110 -0.3986  0.0751 -0.8206
  929MOL0     C25321   1.896   7.331   6.075 -0.2208  0.8066  0.2988
  929MOL0     C25322   1.739   7.329   6.080  0.3309  0.2364 -0.0925
  929MOL0     C25323   1.676   7.466   6.078  0.8884 -0.2562 -0.6130
  929MOL0     C25324   1.563   7.480   5.977 -0.3311 -0.2459 -0.1840
  929MOL0    Cl25325   1.434   7.345   5.973 -0.2572 -0.3617 -0.2209
  929MOL0     C25326   2.559   7.211   5.833  0.2879 -0.0477  0.4999
  929MOL0     C25327   2.696   7.205   5.831 -0.5285 -0.6969 -0.0727
  929MOL0     O25328   2.955   7.022   5.999  1.1622  0.1601 -0.1346
  929MOL0     C25329   3.165   7.313   5.970  0.3236  0.8222  0.2091
  929MOL0     C25330   3.292   7.357   5.980  0.3578 -0.3622 -0.0540
  929MOL0     N25331   3.884   7.711   5.844 -0.4282 -0.1878 -0.0969
  929MOL0     N25332   3.958   7.799   5.778  0.7032 -0.4471  0.3018
  929MOL0     C25333   5.085   8.137   5.407 -0.3331  0.1405  0.1814
  929MOL0     C25334   5.168   8.212   5.322 -1.2925  0.3913  0.0448
  929MOL0     C25335   5.346   8.457   5.009  0.3676 -0.6562  0.8571
  929MOL0     C25336   5.469   8.404   5.021 -0.8172 -0.8398  0.5807
  929MOL0     C25337   5.580   8.478   4.960  0.2831 -0.6799  0.0935
  929MOL0     C25338   5.560   8.600   4.889 -0.2789  0.5001 -0.4202
  929MOL0     O25339   5.674   8.649   4.826  0.2997 -0.1783  0.2170
  929MOL0     C25340   5.674   8.768   4.753  1.0147  0.1533 -0.0600
  929MOL0     C25341   5.623   8.753   4.613 -0.2050 -0.4064 -0.1635
  929MOL0     C25342   5.700   8.652   4.520  0.1051  0.8511  0.3160
  929MOL0     C25343   5.857   8.647   4.528 -0.4991 -0.0346  0.3032
  929MOL0     C25344   5.912   8.538   4.444 -0.2841  0.8704  0.6103
  929MOL0     C25345   5.950   8.453   4.369  0.4795  0.1616  0.4975
  929MOL0     C25346   5.429   8.643   4.870 -0.2778 -1.0327 -0.3700
  929MOL0     C25347   5.321   8.581   4.932  0.2748  0.4325  0.0948
  929MOL0     H25348   5.091   8.110   5.014 -0.6344  0.2059 -0.0326
  929MOL0     H25349   4.906   7.983   5.146 -1.4011  0.5363  1.5349
  929MOL0     H25350   4.963   7.993   5.604 -0.7967  0.2578  0.5204
  929MOL0     H25351   4.838   8.120   5.587 -0.2706 -0.1545  1.9739
  929MOL0     H25352   4.674   7.918   5.577 -0.1726 -1.8320  1.1574
  929MOL0     H25353   4.817   7.818   5.622  0.8921  0.8906  0.7156
  929MOL0     H25354   4.698   7.826   5.804  0.0336 -0.2863 -1.1202
  929MOL0     H25355   4.840   7.933   5.835  1.0938  2.1278 -1.7889
  929MOL0     H25356   4.720   8.083   5.907 -1.6337  3.5198 -0.1212
  929MOL0     H25357   4.659   8.115   5.751 -0.8248  1.3605  1.3561
  929MOL0     H25358   4.529   7.925   5.948  2.5614 -0.3960 -1.2044
  929MOL0     H25359   4.466   8.077   5.892 -1.4110 -0.2966  0.8994
  929MOL0     H25360   4.440   7.978   5.668  0.2452 -0.2646 -0.2714
  929MOL0     H25361   4.482   7.815   5.723  0.9008  0.5849 -0.0175
  929MOL0     H25362   4.294   7.840   5.902 -1.9652  1.5935 -0.0883
  929MOL0     H25363   4.248   7.995   5.821  0.1185  0.5539  0.3939
  929MOL0     H25364   4.261   7.721   5.688 -0.1174 -0.0180 -0.7937
  929MOL0     H25365   4.171   7.867   5.632  2.3286  0.8413 -0.7508
  929MOL0     H25366   4.180   7.578   5.882 -0.1237  1.6517  1.7984
  929MOL0     H25367   4.000   7.440   6.002 -1.7819 -1.1025 -1.2637
  929MOL0     H25368   3.916   7.560   6.092 -1.1648  4.4957 -0.0103
  929MOL0     H25369   3.815   7.395   5.859  1.5327  0.1775 -0.1987
  929MOL0     H25370   3.716   7.512   5.949 -1.6267 -1.4027 -0.1732
  929MOL0     H25371   3.708   7.419   6.140 -0.3422 -0.1606  0.1473
  929MOL0     H25372   3.825   7.284   6.115 -0.1810  0.6646  1.5182
  929MOL0     H25373   3.627   7.175   6.102  0.2274  0.8127  0.8306
  929MOL0     H25374   3.655   7.202   5.930 -1.6863 -2.9646 -0.1827
  929MOL0     H25375   3.457   7.063   6.010  0.4204  1.8922  1.4859
  929MOL0     H25376   3.198   6.897   5.910  0.3619 -1.6861  0.4619
  929MOL0     H25377   3.308   6.888   6.041 -1.1716 -1.1764  3.0628
  929MOL0     H25378   3.156   6.923   6.090  2.1136 -0.7331  0.3295
  929MOL0     H25379   2.739   7.192   6.175 -2.1372  1.1546  0.4876
  929MOL0     H25380   2.499   7.215   6.167  0.2991 -2.3862  0.1327
  929MOL0     H25381   2.344   7.404   6.064 -1.1791  1.0136  0.7593
  929MOL0     H25382   2.205   7.398   5.973  2.1102  1.6104  0.2840
  929MOL0     H25383   2.258   7.188   6.188 -0.9874  3.6778  4.4257
  929MOL0     H25384   2.147   7.305   6.206  0.8931 -2.0635  1.4501
  929MOL0     H25385   2.096   7.058   6.071  2.4799 -0.4128  0.2885
  929MOL0     H25386   2.084   7.178   5.944 -1.0982 -0.3470 -0.0265
  929MOL0     H25387   1.877   7.121   6.074  0.4329 -1.7036  1.2768
  929MOL0     H25388   1.940   7.182   6.218  2.8087  1.1962 -0.4074
  929MOL0     H25389   1.937   7.364   5.979 -0.1580 -0.5703 -0.1658
  929MOL0     H25390   1.940   7.403   6.145  1.1378  1.0841 -0.7941
  929MOL0     H25391   1.690   7.263   6.008 -3.3358  2.6715 -0.1019
  929MOL0     H25392   1.724   7.288   6.180  3.3347 -2.7067 -0.6849
  929MOL0     H25393   1.753   7.539   6.051 -2.5066  3.0481 -2.2778
  929MOL0     H25394   1.634   7.494   6.175  2.2768  2.4961 -0.7080
  929MOL0     H25395   1.614   7.481   5.880 -0.3105  1.6913 -0.1922
  929MOL0     H25396   1.521   7.580   5.989  1.1879  0.3179  0.6560
  929MOL0     H25397   2.494   7.213   5.746  3.2188 -0.6419 -1.8735
  929MOL0     H25398   2.739   7.208   5.732  1.9038  2.4079  0.8969
  929MOL0     H25399   3.094   7.391   5.942  0.0388 -0.5614 -3.4059
  929MOL0     H25400   3.321   7.462   5.981 -2.7437  0.6253 -0.8807
  929MOL0     H25401   5.102   8.144   5.514  0.5968 -1.9050  0.2077
  929MOL0     H25402   5.232   8.285   5.369 -2.0872  2.0533 -1.3092
  929MOL0     H25403   5.486   8.309   5.070  2.1447  0.4290  2.2914
  929MOL0     H25404   5.678   8.433   4.965  0.1302 -0.9242  1.7620
  929MOL0     H25405   5.623   8.855   4.797 -3.1626 -1.9929 -0.1441
  929MOL0     H25406   5.779   8.798   4.759  0.7305  1.7073 -1.8898
  929MOL0     H25407   5.638   8.848   4.561  1.1382 -0.4527  0.0847
  929MOL0     H25408   5.521   8.716   4.606  0.6751 -2.8349 -1.2293
  929MOL0     H25409   5.664   8.670   4.419  0.6964  0.8696  0.1056
  929MOL0     H25410   5.667   8.560   4.568 -2.1490  1.8459  0.7963
  929MOL0     H25411   5.889   8.624   4.630  0.0427 -0.3271  0.0718
  929MOL0     H25412   5.905   8.738   4.490  3.4656 -1.8567  0.4282
  929MOL0     H25413   5.990   8.374   4.309  1.4910  0.1604  1.1367
  929MOL0     H25414   5.395   8.727   4.810 -2.8675 -0.3277  1.8968
  929MOL0     H25415   5.219   8.614   4.921 -0.7550 -2.3357  0.5049
  930MOL0     O25416   8.747   0.730   9.406 -0.1328  0.6066 -0.0730
  930MOL0     C25417   8.810   0.687   9.313 -0.1872  0.4071  1.0012
  930MOL0     O25418   8.789   0.567   9.243 -0.9831 -0.2022  0.5784
  930MOL0     C25419   8.691   0.483   9.273  0.2821 -0.0809  0.4243
  930MOL0     C25420   8.678   0.416   9.396 -0.5005 -0.9454  0.0445
  930MOL0     C25421   8.581   0.324   9.417 -0.3157  0.3117  0.1430
  930MOL0     C25422   8.494   0.288   9.316  0.7716  0.1072  0.4195
  930MOL0     O25423   8.393   0.197   9.337  0.1674  0.5878 -0.4312
  930MOL0     C25424   8.406   0.105   9.449  0.9209  0.6652 -0.4465
  930MOL0     C25425   8.274   0.019   9.461  0.0623  0.0110  0.3577
  930MOL0     C25426   8.148   0.087   9.506  0.0183 -0.7130 -0.0081
  930MOL0     C25427   8.060  -0.002   9.594 -0.7541  0.5360  0.4129
  930MOL0     C25428   8.117  -0.014   9.733  0.2962  0.3652  0.1427
  930MOL0     C25429   8.054  -0.135   9.798  0.2557  0.3084 -0.8384
  930MOL0     C25430   7.900  -0.119   9.797  0.0211 -0.4034 -0.2719
  930MOL0     C25431   7.843  -0.235   9.881  0.1083  1.2505  0.2617
  930MOL0     N25432   7.698  -0.236   9.878  0.3827 -0.3266 -0.3173
  930MOL0     C25433   7.600  -0.235   9.776  0.5153  1.7673 -0.7575
  930MOL0     C25434   7.480  -0.229   9.840 -0.7292  0.2026 -1.1838
  930MOL0     C25435   7.344  -0.240   9.791 -0.1971  0.0014 -1.1060
  930MOL0     C25436   7.275  -0.365   9.852  0.0140  0.9768  1.0770
  930MOL0     C25437   7.320  -0.500   9.797  0.6461  0.6054 -0.0256
  930MOL0     C25438   7.450  -0.551   9.866 -0.1414  0.9663  0.4580
  930MOL0     O25439   7.491  -0.684   9.813 -0.6605  0.4108  0.3354
  930MOL0     C25440   7.622  -0.707   9.833  0.2809 -0.7894  1.1476
  930MOL0     C25441   7.668  -0.715   9.958 -0.5365  0.0831  0.1677
  930MOL0     C25442   7.805  -0.738   9.986 -0.6050  0.7939 -0.1405
  930MOL0     C25443   7.842  -0.737  10.138 -0.0335  0.5905  0.0829
  930MOL0     C25444   7.898  -0.759   9.876 -0.5563 -0.9146 -0.1975
  930MOL0     C25445   8.049  -0.773   9.899 -0.0210  0.2054  0.0219
  930MOL0     O25446   8.125  -0.777   9.786 -0.4400  0.3962  0.1230
  930MOL0     C25447   8.264  -0.752   9.801  0.6848 -0.3309  0.6517
  930MOL0     C25448   8.313  -0.649   9.875  0.3211  0.2518  0.5396
  930MOL0     C25449   8.444  -0.607   9.876 -0.0091 -0.3482 -0.4645
  930MOL0     C25450   8.533  -0.681   9.796  0.0295 -0.6009 -0.2927
  930MOL0     O25451   8.668  -0.665   9.785 -0.2493 -0.9890  0.4304
  930MOL0     C25452   8.728  -0.561   9.874 -0.1870  0.7864  0.2618
  930MOL0     C25453   8.871  -0.598   9.902 -0.3475  0.0295 -0.1139
  930MOL0     C25454   8.964  -0.623   9.789 -0.4713 -0.3328  0.7731
  930MOL0     C25455   9.076  -0.734   9.834  0.4182 -0.8400 -0.4149
  930MOL0     C25456   9.198  -0.755   9.744 -0.0878 -0.4286  0.4497
  930MOL0     C25457   9.296  -0.636   9.725 -0.1193  0.1900 -0.4350
  930MOL0     C25458   9.389  -0.656   9.607  0.4735  0.3808 -0.1475
  930MOL0     C25459   9.499  -0.552   9.592  0.2147 -0.1675  0.4647
  930MOL0    Cl25460   9.554  -0.540   9.424  0.3448  0.0419  0.5002
  930MOL0     C25461   8.486  -0.780   9.712  0.4159  0.5825  0.1974
  930MOL0     C25462   8.353  -0.820   9.721 -0.1301 -0.1619  0.5948
  930MOL0     O25463   8.097  -0.785  10.012  0.0701  0.4309 -0.2180
  930MOL0     C25464   7.839  -0.744   9.745 -0.5795  0.5093 -0.5963
  930MOL0     C25465   7.711  -0.722   9.724  0.2808 -0.2668 -1.1165
  930MOL0     N25466   7.505  -0.195   9.973 -0.0550 -0.7439  0.4447
  930MOL0     N25467   7.633  -0.181   9.988  0.4956  0.2670  0.1006
  930MOL0     C25468   8.502   0.355   9.196  0.3721 -0.4544 -0.3364
  930MOL0     C25469   8.604   0.445   9.169  0.5220  0.5524 -0.3987
  930MOL0     C25470   8.925   0.759   9.272 -0.7427  0.4898 -0.5448
  930MOL0     C25471   9.012   0.705   9.174  1.4630 -0.3069  0.1776
  930MOL0     C25472   9.127   0.764   9.138  0.3254  1.0391  0.3411
  930MOL0     C25473   9.164   0.879   9.192 -0.2069 -0.8516  0.1786
  930MOL0     O25474   9.283   0.937   9.154  0.3941  0.2420  0.2230
  930MOL0     C25475   9.342   0.887   9.036  1.2657  0.8625 -0.1296
  930MOL0     C25476   9.450   0.986   8.991 -0.2907  0.5538 -0.2429
  930MOL0     C25477   9.570   0.960   9.076 -0.0171 -0.1928  0.2518
  930MOL0     C25478   9.693   1.035   9.030  0.4486 -0.3859 -0.2535
  930MOL0     C25479   9.797   1.013   9.140 -0.5269  0.6344 -0.0854
  930MOL0     C25480   9.873   0.994   9.229  0.8642 -0.5296 -0.2048
  930MOL0     C25481   9.091   0.946   9.282  0.0903 -0.3888  0.1860
  930MOL0     C25482   8.965   0.886   9.328 -0.5809  0.3126 -0.0999
  930MOL0     H25483   8.733   0.444   9.485 -0.8938  3.4688 -0.8839
  930MOL0     H25484   8.584   0.278   9.515  1.7060 -0.6748 -0.3353
  930MOL0     H25485   8.486   0.038   9.415 -0.1665  0.4263 -2.7164
  930MOL0     H25486   8.425   0.157   9.543 -1.3873  0.0374  0.4190
  930MOL0     H25487   8.251  -0.031   9.366  0.8050 -1.2979  0.8470
  930MOL0     H25488   8.287  -0.056   9.539 -1.3032 -1.9724 -1.2234
  930MOL0     H25489   8.174   0.170   9.572  2.1721 -0.7208 -0.7889
  930MOL0     H25490   8.087   0.106   9.418 -1.6786  0.9505  1.4296
  930MOL0     H25491   7.956   0.032   9.592 -0.4422  1.6624  1.8143
  930MOL0     H25492   8.050  -0.100   9.547 -3.1925  1.8316 -2.0690
  930MOL0     H25493   8.225  -0.024   9.747  0.2291  0.3248  0.6780
  930MOL0     H25494   8.099   0.078   9.788  2.3318  1.2343 -0.5461
  930MOL0     H25495   8.091  -0.221   9.741  2.5493 -0.6914  1.9626
  930MOL0     H25496   8.094  -0.142   9.899  0.8182  0.6988 -1.0310
  930MOL0     H25497   7.875  -0.029   9.854 -0.3214 -0.6030 -0.0994
  930MOL0     H25498   7.850  -0.112   9.700 -3.1951  0.7043  1.3210
  930MOL0     H25499   7.879  -0.219   9.984 -0.0208  1.8010  0.2224
  930MOL0     H25500   7.865  -0.335   9.842  0.1210  1.3164  0.1030
  930MOL0     H25501   7.621  -0.249   9.670  1.2983 -2.3536 -0.2569
  930MOL0     H25502   7.291  -0.146   9.810 -0.9910 -0.4091 -1.2389
  930MOL0     H25503   7.357  -0.241   9.682  0.7822 -1.0898 -0.9977
  930MOL0     H25504   7.171  -0.350   9.822 -0.0352  0.4941  1.0054
  930MOL0     H25505   7.278  -0.366   9.962 -2.0500 -2.7404  1.2598
  930MOL0     H25506   7.333  -0.498   9.689  1.1485  0.2147  0.0275
  930MOL0     H25507   7.239  -0.572   9.810  2.4137 -1.5491 -0.4682
  930MOL0     H25508   7.438  -0.561   9.974  1.0914  1.8601  0.6908
  930MOL0     H25509   7.536  -0.486   9.850  1.1553 -0.7426  0.1042
  930MOL0     H25510   7.601  -0.706  10.043 -0.6943  1.9439 -0.0999
  930MOL0     H25511   7.876  -0.835  10.175 -2.4753 -0.1936  0.4887
  930MOL0     H25512   7.927  -0.670  10.148  1.0206 -0.8372  1.3059
  930MOL0     H25513   7.767  -0.694  10.205  0.2914 -0.0902  0.9100
  930MOL0     H25514   8.259  -0.587   9.946  2.5653  0.8890  1.7927
  930MOL0     H25515   8.478  -0.526   9.939  0.3728  0.3833 -1.5926
  930MOL0     H25516   8.715  -0.458   9.837 -0.8107  1.0919  1.2768
  930MOL0     H25517   8.676  -0.563   9.970 -1.1100 -0.3950 -0.2352
  930MOL0     H25518   8.912  -0.530   9.977 -1.4790 -0.3915  0.9327
  930MOL0     H25519   8.858  -0.695   9.951  0.5717 -0.7102 -1.3101
  930MOL0     H25520   9.011  -0.527   9.767 -2.3955  1.0681  2.4471
  930MOL0     H25521   8.903  -0.660   9.706 -0.7542  2.2060 -0.2212
  930MOL0     H25522   9.108  -0.692   9.930 -1.9291  3.6024 -1.2880
  930MOL0     H25523   9.029  -0.832   9.849  1.1109 -1.3179 -1.2901
  930MOL0     H25524   9.175  -0.783   9.641  0.9162 -1.6334  0.5300
  930MOL0     H25525   9.253  -0.838   9.788 -3.0397 -3.1987 -0.6610
  930MOL0     H25526   9.248  -0.539   9.709  1.7617  1.5782  1.6199
  930MOL0     H25527   9.353  -0.638   9.819 -1.3967  0.5508  0.3756
  930MOL0     H25528   9.330  -0.648   9.515  1.3009  0.4026 -0.6883
  930MOL0     H25529   9.437  -0.754   9.620 -1.1929 -0.4572 -0.0823
  930MOL0     H25530   9.582  -0.563   9.663  0.3346 -0.2602  0.3107
  930MOL0     H25531   9.439  -0.463   9.611 -1.0743 -0.8495 -0.2423
  930MOL0     H25532   8.542  -0.834   9.636 -0.2695  0.4329 -0.2089
  930MOL0     H25533   8.313  -0.886   9.645  3.1380 -0.1397 -1.2958
  930MOL0     H25534   7.899  -0.754   9.655  0.2343  2.6736 -0.3389
  930MOL0     H25535   7.673  -0.714   9.623  2.0577  0.1269 -1.7794
  930MOL0     H25536   8.444   0.331   9.107 -0.8369  3.7101 -0.9154
  930MOL0     H25537   8.626   0.487   9.072  2.4549 -1.1578 -0.7744
  930MOL0     H25538   8.990   0.616   9.117  0.6692  1.2069 -2.0146
  930MOL0     H25539   9.187   0.713   9.064 -0.4152  1.6781 -0.7402
  930MOL0     H25540   9.386   0.792   9.069 -1.6773 -0.0240  1.6113
  930MOL0     H25541   9.268   0.877   8.956  0.7261  2.1607  0.1897
  930MOL0     H25542   9.409   1.087   9.003  0.2421  0.8875 -1.0871
  930MOL0     H25543   9.469   0.973   8.884 -2.4778  1.9298 -0.8757
  930MOL0     H25544   9.596   0.854   9.069 -1.4369 -0.5785  0.4518
  930MOL0     H25545   9.550   0.982   9.181  0.2380 -0.1895  0.3020
  930MOL0     H25546   9.669   1.142   9.027 -2.4032 -0.8961  0.7054
  930MOL0     H25547   9.729   0.998   8.934 -3.2640  0.0652 -1.9867
  930MOL0     H25548   9.924   0.990   9.323  2.6529  0.2782 -1.1012
  930MOL0     H25549   9.133   1.036   9.325  0.2270 -0.4987  0.2861
  930MOL0     H25550   8.912   0.926   9.413 -0.2031  1.7708 -0.5195
  931MOL0     O25551   0.587   4.243   5.565  0.4481 -0.3422 -0.0916
  931MOL0     C25552   0.593   4.256   5.446 -0.1159 -0.5866 -0.1373
  931MOL0     O25553   0.504   4.307   5.374 -0.0054 -0.6759  0.6065
  931MOL0     C25554   0.410   4.380   5.434  0.2602 -0.0785  0.4589
  931MOL0     C25555   0.401   4.520   5.397  0.2834  0.0798 -1.0498
  931MOL0     C25556   0.295   4.597   5.444 -0.1703 -0.6971 -0.4580
  931MOL0     C25557   0.194   4.546   5.521 -0.0663 -0.4343  0.7602
  931MOL0     O25558   0.090   4.627   5.547  0.6378  0.2866  0.2260
  931MOL0     C25559  -0.046   4.559   5.571  0.1537 -0.3503  0.7613
  931MOL0     C25560  -0.158   4.656   5.568  0.7119 -0.1172 -0.1425
  931MOL0     C25561  -0.293   4.588   5.607  0.1718  0.2761 -0.2772
  931MOL0     C25562  -0.292   4.518   5.743  0.0788 -0.3210  0.0849
  931MOL0     C25563  -0.430   4.464   5.801 -1.0686 -0.5453  0.7628
  931MOL0     C25564  -0.500   4.372   5.706  0.5774  0.8873  1.1164
  931MOL0     C25565  -0.622   4.301   5.777  0.3624  0.2303 -1.0378
  931MOL0     C25566  -0.688   4.198   5.686  0.2737  0.5843 -1.5195
  931MOL0     N25567  -0.762   4.252   5.582  0.0020 -0.5620 -0.2062
  931MOL0     C25568  -0.831   4.367   5.586  0.1125 -0.3042  0.6072
  931MOL0     C25569  -0.889   4.368   5.464 -0.4186 -0.6330  0.0993
  931MOL0     C25570  -0.975   4.478   5.399  0.0530  0.3694 -0.0938
  931MOL0     C25571  -0.927   4.531   5.256 -0.1769  0.1766  0.4118
  931MOL0     C25572  -1.018   4.637   5.190 -0.2725  0.1486  0.2793
  931MOL0     C25573  -1.020   4.756   5.265  0.2008  0.3167 -0.7667
  931MOL0     O25574  -1.045   4.877   5.189 -0.2054 -0.2103  0.7684
  931MOL0     C25575  -1.168   4.937   5.193 -0.7391 -0.3336 -0.1776
  931MOL0     C25576  -1.284   4.872   5.242  0.3791  0.6579  0.2593
  931MOL0     C25577  -1.405   4.939   5.232 -0.5321 -0.3352 -0.1610
  931MOL0     C25578  -1.520   4.855   5.252  0.2241  0.1290  0.0453
  931MOL0     C25579  -1.413   5.075   5.182  0.4753  0.0622  0.3777
  931MOL0     C25580  -1.532   5.160   5.173  0.2666  1.1879  0.6061
  931MOL0     O25581  -1.535   5.264   5.080 -0.3612  0.3711  0.0655
  931MOL0     C25582  -1.633   5.357   5.115  0.8217  0.4367 -0.4176
  931MOL0     C25583  -1.619   5.447   5.224  0.4300 -0.2989 -0.7421
  931MOL0     C25584  -1.724   5.541   5.254 -0.4785  0.1724  0.6260
  931MOL0     C25585  -1.847   5.530   5.184  0.7840  0.6609 -1.1217
  931MOL0     O25586  -1.954   5.606   5.218 -0.2898 -1.1673 -0.6293
  931MOL0     C25587  -1.924   5.743   5.233  0.3420  0.1501 -0.5246
  931MOL0     C25588  -2.060   5.804   5.264 -0.1911  0.0949 -0.7332
  931MOL0     C25589  -2.149   5.807   5.136 -0.0283  0.3179 -0.1195
  931MOL0     C25590  -2.259   5.922   5.143  0.6359  0.8249 -0.3017
  931MOL0     C25591  -2.345   5.928   5.016 -0.7547  0.6142  0.2638
  931MOL0     C25592  -2.455   5.816   5.007  0.3705  0.4071 -0.5923
  931MOL0     C25593  -2.570   5.818   5.108 -0.1099 -0.3112  0.2514
  931MOL0     C25594  -2.695   5.740   5.062  0.6306 -0.5193 -0.0679
  931MOL0    Cl25595  -2.688   5.570   5.119 -0.1035  0.3267 -0.5005
  931MOL0     C25596  -1.858   5.438   5.078  0.4019 -0.8917 -0.4169
  931MOL0     C25597  -1.752   5.359   5.040 -0.8241 -0.3631  1.3526
  931MOL0     O25598  -1.627   5.125   5.241  0.4785  0.5675 -0.2290
  931MOL0     C25599  -1.293   5.141   5.151  0.9214  0.6073 -0.0566
  931MOL0     C25600  -1.174   5.065   5.140 -0.1050  1.2542  0.1423
  931MOL0     N25601  -0.839   4.266   5.383  0.4926 -0.0895 -0.1647
  931MOL0     N25602  -0.764   4.192   5.460 -0.6178 -0.0948 -0.8692
  931MOL0     C25603   0.204   4.409   5.561  1.1450  0.8537  0.2274
  931MOL0     C25604   0.304   4.326   5.511 -0.6298 -0.4399 -0.6212
  931MOL0     C25605   0.720   4.227   5.377 -0.6443  0.2257 -0.1091
  931MOL0     C25606   0.839   4.199   5.452 -0.7749  0.1033 -0.3890
  931MOL0     C25607   0.954   4.164   5.381 -0.1797 -0.1091  0.0541
  931MOL0     C25608   0.960   4.169   5.232  0.9848  0.3227 -0.4509
  931MOL0     O25609   1.071   4.137   5.157  0.2414  0.2444  0.0845
  931MOL0     C25610   1.192   4.097   5.227 -0.7349  0.1871  1.2601
  931MOL0     C25611   1.260   4.014   5.109  0.2132 -0.9245 -0.1855
  931MOL0     C25612   1.372   3.920   5.151 -0.8280  0.7570 -0.0604
  931MOL0     C25613   1.379   3.795   5.061 -1.1189 -0.0642  1.0432
  931MOL0     C25614   1.460   3.826   4.938  0.2726  0.1870 -0.0035
  931MOL0     C25615   1.523   3.855   4.838 -0.1837 -0.7056 -0.3123
  931MOL0     C25616   0.841   4.203   5.165  0.0642  0.4986 -0.2648
  931MOL0     C25617   0.721   4.221   5.236 -0.4689  0.8778 -0.1653
  931MOL0     H25618   0.467   4.568   5.326  0.6935 -0.5172 -1.0761
  931MOL0     H25619   0.287   4.701   5.415 -2.0499 -0.5690  0.3349
  931MOL0     H25620  -0.066   4.477   5.502  2.7904 -1.6352  1.3947
  931MOL0     H25621  -0.049   4.515   5.671 -2.0084 -0.7941  0.5353
  931MOL0     H25622  -0.136   4.744   5.631 -2.2623  1.8940 -1.6762
  931MOL0     H25623  -0.157   4.702   5.469 -0.4797  1.2982  0.4532
  931MOL0     H25624  -0.376   4.660   5.607  0.3313  0.7661  4.1693
  931MOL0     H25625  -0.322   4.514   5.532 -1.3155  0.6087 -0.0717
  931MOL0     H25626  -0.222   4.434   5.746 -0.3006 -0.7242 -1.4866
  931MOL0     H25627  -0.249   4.594   5.809 -2.2854 -0.4059  1.8899
  931MOL0     H25628  -0.397   4.412   5.892 -2.4753  0.9882  2.2344
  931MOL0     H25629  -0.488   4.546   5.844 -3.8812 -2.8491  1.6350
  931MOL0     H25630  -0.524   4.421   5.611 -2.5876 -1.7512  0.3451
  931MOL0     H25631  -0.442   4.285   5.674 -1.1898 -0.1340  0.5508
  931MOL0     H25632  -0.588   4.256   5.870 -1.0345 -0.9057 -1.0405
  931MOL0     H25633  -0.699   4.371   5.810 -1.5575 -2.2724  0.0467
  931MOL0     H25634  -0.750   4.127   5.741 -1.2241  0.8254 -2.8272
  931MOL0     H25635  -0.611   4.134   5.643  0.9719 -1.2324  2.1094
  931MOL0     H25636  -0.851   4.443   5.661 -2.3972 -1.3071  1.0426
  931MOL0     H25637  -1.075   4.439   5.381  0.7832 -1.0939 -1.1481
  931MOL0     H25638  -0.988   4.555   5.476 -0.1378 -2.4308  2.8832
  931MOL0     H25639  -0.939   4.447   5.187 -1.6893  0.2926  0.5015
  931MOL0     H25640  -0.822   4.562   5.251  1.0713 -3.2940  2.1039
  931MOL0     H25641  -1.116   4.595   5.165 -0.2747  0.3204 -0.0115
  931MOL0     H25642  -0.972   4.668   5.096 -2.9242  2.0600 -0.5128
  931MOL0     H25643  -0.922   4.776   5.309 -0.9865  2.7833  0.9748
  931MOL0     H25644  -1.093   4.748   5.346  1.0067  2.7536  0.2756
  931MOL0     H25645  -1.290   4.773   5.286  0.0743  1.4114  1.9900
  931MOL0     H25646  -1.589   4.896   5.327 -1.4947 -2.8859  0.2761
  931MOL0     H25647  -1.570   4.837   5.156 -1.1013  1.4539  0.4500
  931MOL0     H25648  -1.499   4.756   5.293  2.5780  0.6470  0.2738
  931MOL0     H25649  -1.529   5.465   5.282  0.8934  0.8766 -1.7565
  931MOL0     H25650  -1.720   5.612   5.335  0.5239 -1.4440  2.0568
  931MOL0     H25651  -1.853   5.759   5.314  0.8499  0.7629 -1.0899
  931MOL0     H25652  -1.879   5.787   5.144 -0.1709  1.0403 -0.3498
  931MOL0     H25653  -2.114   5.746   5.340 -1.2769  0.2945 -1.3273
  931MOL0     H25654  -2.043   5.908   5.294 -0.4439  0.3138 -1.3392
  931MOL0     H25655  -2.209   5.716   5.123 -2.3036  1.3595  2.2567
  931MOL0     H25656  -2.087   5.836   5.051 -0.8516  2.3053 -0.0860
  931MOL0     H25657  -2.326   5.903   5.227  0.1307 -1.5294 -1.1484
  931MOL0     H25658  -2.198   6.012   5.157  1.0870  0.2534  1.6605
  931MOL0     H25659  -2.277   5.915   4.931  0.4894  2.5266  0.8998
  931MOL0     H25660  -2.394   6.024   5.000 -0.3164  0.6692 -0.8617
  931MOL0     H25661  -2.502   5.822   4.908 -0.8300 -1.0311 -0.1454
  931MOL0     H25662  -2.417   5.713   5.002  0.6835  0.3727  1.6278
  931MOL0     H25663  -2.604   5.922   5.119 -2.2260 -0.9688  0.4551
  931MOL0     H25664  -2.539   5.781   5.206  2.2405 -0.0241 -0.3371
  931MOL0     H25665  -2.695   5.736   4.953  3.4678  2.2816 -0.3247
  931MOL0     H25666  -2.791   5.784   5.092 -1.0732 -2.0367 -2.8994
  931MOL0     H25667  -1.952   5.429   5.025 -0.7153  2.9934  0.6312
  931MOL0     H25668  -1.766   5.288   4.959 -3.2374  0.5555  0.8911
  931MOL0     H25669  -1.301   5.245   5.122  0.3155  0.4716 -0.3996
  931MOL0     H25670  -1.086   5.108   5.095 -0.2954 -1.0186 -2.6672
  931MOL0     H25671   0.129   4.362   5.624  0.1764  1.7470 -0.2224
  931MOL0     H25672   0.295   4.219   5.528 -0.2938 -0.2758  0.6617
  931MOL0     H25673   0.837   4.199   5.561  0.6444  1.8035 -0.3146
  931MOL0     H25674   1.042   4.131   5.437 -0.2460 -0.7453 -0.2042
  931MOL0     H25675   1.234   4.188   5.271 -0.7913 -0.4843  2.7681
  931MOL0     H25676   1.178   4.023   5.307  1.7397 -4.6526 -2.2441
  931MOL0     H25677   1.308   4.073   5.030 -0.7970 -1.8010 -1.4918
  931MOL0     H25678   1.178   3.955   5.066 -0.6381  0.5252 -0.6595
  931MOL0     H25679   1.362   3.886   5.255  1.0748  1.8652  0.5264
  931MOL0     H25680   1.467   3.974   5.156  1.9044 -3.6618  2.2353
  931MOL0     H25681   1.278   3.769   5.028 -0.9293 -0.6109  0.8976
  931MOL0     H25682   1.418   3.708   5.113 -1.4769 -0.7161  0.2385
  931MOL0     H25683   1.584   3.890   4.757 -1.0542 -1.0776 -1.1439
  931MOL0     H25684   0.852   4.203   5.057  3.9822  1.1372  0.0017
  931MOL0     H25685   0.621   4.226   5.193 -1.4821  1.6378  2.1226
  932MOL0     O25686   9.738  10.359   5.055  0.3868  0.0149  0.2690
  932MOL0     C25687   9.808  10.407   5.141 -0.1361  0.7345 -0.6452
  932MOL0     O25688   9.802  10.359   5.272 -0.3719 -0.2653 -0.4007
  932MOL0     C25689   9.754  10.232   5.290 -0.3267 -0.5357 -1.1898
  932MOL0     C25690   9.617  10.208   5.268  0.4085  0.5692  0.2649
  932MOL0     C25691   9.568  10.072   5.289 -0.1844 -0.0394  0.6302
  932MOL0     C25692   9.653   9.972   5.340  0.5836 -0.8767  0.4152
  932MOL0     O25693   9.613   9.843   5.364  0.1414  0.2838 -0.2923
  932MOL0     C25694   9.607   9.809   5.508 -0.1275  0.5792  0.2154
  932MOL0     C25695   9.634   9.658   5.524  0.5941  0.8610  0.4935
  932MOL0     C25696   9.515   9.576   5.478  0.0742 -0.1651 -0.4891
  932MOL0     C25697   9.551   9.430   5.493  0.7330  0.5618  0.0735
  932MOL0     C25698   9.439   9.330   5.462  0.4062 -0.8620  0.7678
  932MOL0     C25699   9.380   9.352   5.324 -0.0572  0.6773 -1.0352
  932MOL0     C25700   9.280   9.238   5.289 -0.4243 -0.8072 -0.1217
  932MOL0     C25701   9.143   9.275   5.338 -0.2451  0.1113  0.9076
  932MOL0     N25702   9.038   9.184   5.291 -0.0639 -0.2660  0.0817
  932MOL0     C25703   9.014   9.159   5.157  0.4118 -0.7530 -0.7832
  932MOL0     C25704   8.912   9.063   5.166 -0.6519 -0.1405  0.1334
  932MOL0     C25705   8.865   8.982   5.040 -0.7570 -0.4494  0.2206
  932MOL0     C25706   8.721   9.020   5.000  0.1081 -0.6939  0.0524
  932MOL0     C25707   8.694   9.173   5.012  0.5094  0.8130  0.5169
  932MOL0     C25708   8.553   9.211   4.943 -0.9846  0.5749  0.2806
  932MOL0     O25709   8.448   9.124   4.993  0.2300 -0.6031  0.2689
  932MOL0     C25710   8.324   9.151   4.944 -0.6026  0.2851 -0.6129
  932MOL0     C25711   8.243   9.254   5.001  1.2178 -0.8393 -0.0941
  932MOL0     C25712   8.110   9.288   4.970 -0.2439 -0.7909  0.3184
  932MOL0     C25713   8.048   9.412   5.028 -0.2263  0.3840 -0.1393
  932MOL0     C25714   8.051   9.201   4.870 -0.6116 -0.9817  0.5601
  932MOL0     C25715   7.907   9.212   4.834 -0.7280 -0.2772 -0.2074
  932MOL0     O25716   7.839   9.090   4.817 -0.4303 -0.9018  0.4805
  932MOL0     C25717   7.709   9.079   4.779  0.0231 -0.5879  0.8240
  932MOL0     C25718   7.599   9.102   4.864 -0.1643 -0.0866 -0.7827
  932MOL0     C25719   7.466   9.085   4.813 -0.0385  0.2191 -0.7503
  932MOL0     C25720   7.440   9.057   4.675 -0.3755  0.2386  0.2236
  932MOL0     O25721   7.328   9.058   4.607 -0.7928  0.5700  0.3199
  932MOL0     C25722   7.220   8.996   4.681  0.5403  0.0710 -0.5261
  932MOL0     C25723   7.090   9.013   4.610  0.4832  0.1515  1.2953
  932MOL0     C25724   7.045   9.154   4.592  0.0555 -0.4402  0.1408
  932MOL0     C25725   6.906   9.156   4.527 -0.7398  0.8705 -0.9173
  932MOL0     C25726   6.927   9.194   4.384  0.3432 -0.0659 -0.3951
  932MOL0     C25727   6.800   9.182   4.300  0.3134  0.5456  0.0984
  932MOL0     C25728   6.795   9.046   4.231  0.0667 -0.5182 -0.8170
  932MOL0     C25729   6.655   8.997   4.208 -0.7639  0.6477 -0.1051
  932MOL0    Cl25730   6.561   8.982   4.361 -0.0912  0.2369  0.2403
  932MOL0     C25731   7.555   9.044   4.600  0.4105  0.0058  0.6372
  932MOL0     C25732   7.684   9.054   4.645  0.5444  0.5388 -0.5179
  932MOL0     O25733   7.867   9.322   4.804 -0.0950 -0.1383 -0.4144
  932MOL0     C25734   8.128   9.107   4.811 -1.0228 -0.3562  0.1403
  932MOL0     C25735   8.261   9.075   4.848  0.6115  0.2111  0.3063
  932MOL0     N25736   8.893   9.024   5.298 -0.1401  0.2639  0.3369
  932MOL0     N25737   8.961   9.099   5.375  0.5441  0.0084  0.2398
  932MOL0     C25738   9.787  10.004   5.369  0.1591 -0.3378  0.1359
  932MOL0     C25739   9.838  10.133   5.343 -0.3562  0.0463  0.6304
  932MOL0     C25740   9.906  10.517   5.107  0.2096 -0.4783 -0.0312
  932MOL0     C25741   9.922  10.561   4.980 -0.8006  0.4437  0.2119
  932MOL0     C25742  10.013  10.669   4.943  0.3543  0.0629 -0.3959
  932MOL0     C25743  10.078  10.750   5.039  0.6525 -0.4762 -1.6959
  932MOL0     O25744  10.149  10.871   5.019  0.1403  0.7084  0.4750
  932MOL0     C25745  10.185  10.913   4.879  0.1660 -0.1844 -1.1616
  932MOL0     C25746  10.326  10.955   4.884 -0.9810  0.5950 -0.3449
  932MOL0     C25747  10.405  10.981   4.749 -0.3384 -0.3821  1.0728
  932MOL0     C25748  10.436  10.859   4.659  0.1821 -0.4331 -0.8310
  932MOL0     C25749  10.320  10.802   4.587  0.5751 -0.2663  0.3188
  932MOL0     C25750  10.216  10.766   4.540  0.4450 -0.8725  0.2487
  932MOL0     C25751  10.049  10.704   5.171 -0.1541  0.7165 -0.0226
  932MOL0     C25752   9.966  10.588   5.208 -0.5881 -0.8402 -0.9491
  932MOL0     H25753   9.549  10.288   5.243  0.4647  0.3936 -0.4753
  932MOL0     H25754   9.468  10.039   5.266  0.7791 -3.2564  0.5944
  932MOL0     H25755   9.683   9.864   5.564 -0.6291  0.5828  0.9016
  932MOL0     H25756   9.511   9.832   5.554  0.2240  0.5745  0.9615
  932MOL0     H25757   9.722   9.616   5.474 -1.1967 -2.9700  0.2368
  932MOL0     H25758   9.638   9.630   5.630  1.6500  0.4506  0.3604
  932MOL0     H25759   9.425   9.589   5.539 -0.5135  1.5222 -1.6400
  932MOL0     H25760   9.488   9.599   5.374 -3.1007 -0.5763  0.1239
  932MOL0     H25761   9.625   9.414   5.414  0.3328  1.3161 -0.4655
  932MOL0     H25762   9.589   9.403   5.592  1.5430 -2.3543 -0.9032
  932MOL0     H25763   9.490   9.233   5.457  1.3959 -0.4135  1.6349
  932MOL0     H25764   9.357   9.336   5.535  0.2599 -5.4213  1.2544
  932MOL0     H25765   9.325   9.447   5.328 -1.0939  0.0896  1.8773
  932MOL0     H25766   9.464   9.356   5.254  1.8734 -0.1605  1.1040
  932MOL0     H25767   9.278   9.239   5.180  1.4106 -0.8618 -0.1873
  932MOL0     H25768   9.314   9.146   5.338  0.8399 -0.0611  0.4466
  932MOL0     H25769   9.129   9.379   5.308  1.8700  0.1669 -0.0519
  932MOL0     H25770   9.157   9.274   5.446  3.9200 -0.8943  0.5312
  932MOL0     H25771   9.054   9.199   5.064 -0.9695  1.4682 -0.5184
  932MOL0     H25772   8.933   9.010   4.959 -2.1285 -1.2616 -1.2755
  932MOL0     H25773   8.873   8.874   5.057 -2.2056 -0.6666 -0.2680
  932MOL0     H25774   8.667   8.959   5.074  1.6830 -1.8504  0.3121
  932MOL0     H25775   8.692   8.981   4.902 -1.0234 -1.5433  0.6942
  932MOL0     H25776   8.776   9.222   4.959  0.1928  0.4703 -0.3171
  932MOL0     H25777   8.696   9.201   5.118  1.2252 -0.6923  0.9271
  932MOL0     H25778   8.565   9.190   4.837 -1.2618  2.4442 -0.1597
  932MOL0     H25779   8.527   9.317   4.955 -1.9241  0.2228  1.6119
  932MOL0     H25780   8.292   9.316   5.075  2.8794  0.2743 -2.0554
  932MOL0     H25781   8.117   9.469   5.091  2.1053 -0.4853 -1.7757
  932MOL0     H25782   8.018   9.476   4.945 -0.2786 -1.3850 -1.5235
  932MOL0     H25783   7.951   9.380   5.068  0.0066 -0.6274 -0.3629
  932MOL0     H25784   7.614   9.114   4.971  2.7736  2.3764 -1.3284
  932MOL0     H25785   7.378   9.103   4.874  0.0615 -0.1769 -0.4856
  932MOL0     H25786   7.231   8.888   4.687  2.1354  0.0827 -2.3104
  932MOL0     H25787   7.204   9.050   4.775 -1.6395  0.8318 -1.2507
  932MOL0     H25788   7.081   8.963   4.513 -1.0625  0.4457  1.2579
  932MOL0     H25789   7.028   8.967   4.688  0.0394 -0.5319  0.5597
  932MOL0     H25790   7.116   9.200   4.524 -0.2791 -0.7217 -0.4152
  932MOL0     H25791   7.025   9.201   4.689 -2.4392 -1.2918  0.1258
  932MOL0     H25792   6.866   9.055   4.535  1.3789  0.0941  1.2794
  932MOL0     H25793   6.842   9.226   4.581  1.1565  0.9131  1.4621
  932MOL0     H25794   7.012   9.144   4.336 -0.7883 -0.2656 -2.2821
  932MOL0     H25795   6.956   9.300   4.383  0.3870  0.0931  3.3059
  932MOL0     H25796   6.713   9.213   4.358  0.9201  2.4549  0.0519
  932MOL0     H25797   6.822   9.250   4.217  1.8984 -1.3138 -1.0999
  932MOL0     H25798   6.842   8.980   4.305  0.1251  2.1634  1.7362
  932MOL0     H25799   6.859   9.042   4.143 -2.2816 -1.5441 -2.6017
  932MOL0     H25800   6.655   8.908   4.143  1.9372  3.2856 -4.2007
  932MOL0     H25801   6.612   9.072   4.141  2.0848 -0.2978 -3.2726
  932MOL0     H25802   7.535   9.028   4.494  1.0778 -0.7871  0.6136
  932MOL0     H25803   7.762   9.040   4.572  0.6220 -0.7596 -0.2137
  932MOL0     H25804   8.091   9.043   4.731 -1.9438 -0.3312  0.5393
  932MOL0     H25805   8.321   8.995   4.805 -1.1717 -0.9200 -0.1720
  932MOL0     H25806   9.852   9.927   5.410  1.1095  0.8434  0.9098
  932MOL0     H25807   9.939  10.173   5.350 -0.4090  1.3427 -3.3597
  932MOL0     H25808   9.887  10.504   4.894  0.8598 -2.0558  1.1064
  932MOL0     H25809  10.032  10.694   4.839  1.6365  4.6924  0.7347
  932MOL0     H25810  10.168  10.835   4.804  1.0733 -2.6074  1.0084
  932MOL0     H25811  10.124  10.998   4.848  1.4582  0.4957 -1.8808
  932MOL0     H25812  10.391  10.879   4.929 -0.1625  2.7764  2.4442
  932MOL0     H25813  10.324  11.047   4.943 -1.6017  1.3058 -1.4258
  932MOL0     H25814  10.499  11.027   4.781 -1.2415  0.2657  2.9391
  932MOL0     H25815  10.344  11.046   4.686 -1.3856 -2.8056 -0.5390
  932MOL0     H25816  10.488  10.777   4.710  0.9315  0.7586  0.3629
  932MOL0     H25817  10.508  10.884   4.580  2.8500 -3.7051  0.3133
  932MOL0     H25818  10.132  10.730   4.483  1.9236  0.7097 -3.1995
  932MOL0     H25819  10.075  10.774   5.250  0.9708 -0.0622  0.3264
  932MOL0     H25820   9.956  10.564   5.314 -0.1973  2.2749 -0.0863
  933MOL0     O25821   7.419   4.508   4.815  0.3466 -0.8872 -0.1986
  933MOL0     C25822   7.493   4.412   4.792 -0.5563 -0.0877  0.2028
  933MOL0     O25823   7.453   4.276   4.803  0.2434 -0.0570  0.3990
  933MOL0     C25824   7.317   4.255   4.827  0.0419  0.2502 -0.1640
  933MOL0     C25825   7.238   4.198   4.727  1.0069  0.0066 -0.4912
  933MOL0     C25826   7.094   4.178   4.745  1.1015 -0.2320 -0.4180
  933MOL0     C25827   7.025   4.205   4.868 -0.7598 -0.5095  0.2080
  933MOL0     O25828   6.891   4.183   4.873 -0.0222  0.6369 -0.1159
  933MOL0     C25829   6.807   4.275   4.940 -0.2360  0.2608  0.5438
  933MOL0     C25830   6.657   4.268   4.904 -0.6375 -0.2796 -0.3968
  933MOL0     C25831   6.593   4.158   4.982 -0.2936  0.7024 -0.1810
  933MOL0     C25832   6.450   4.142   4.925  0.4383  0.2040  0.3706
  933MOL0     C25833   6.360   4.056   5.004  0.2962 -0.3566  0.6567
  933MOL0     C25834   6.398   3.904   4.981 -0.2927 -0.2467  0.1417
  933MOL0     C25835   6.283   3.818   5.029 -0.0389  0.1759  0.6602
  933MOL0     C25836   6.280   3.846   5.187  0.1079 -0.9107  0.4014
  933MOL0     N25837   6.187   3.752   5.245  0.2873 -0.2672  0.1067
  933MOL0     C25838   6.040   3.749   5.238 -0.2836  0.3851  0.3497
  933MOL0     C25839   6.003   3.653   5.326  0.0535  0.2257  0.6063
  933MOL0     C25840   5.858   3.630   5.348  0.0404 -0.8244  0.9509
  933MOL0     C25841   5.815   3.491   5.387  0.1986  0.2075 -0.3084
  933MOL0     C25842   5.705   3.442   5.292 -0.3077 -0.2336 -0.0281
  933MOL0     C25843   5.575   3.512   5.271 -0.2085  0.0513 -0.4619
  933MOL0     O25844   5.504   3.505   5.397 -0.5507  0.0450  0.5375
  933MOL0     C25845   5.368   3.501   5.404 -0.4127  0.2676 -0.0346
  933MOL0     C25846   5.304   3.455   5.524  0.1270  0.5771  0.2748
  933MOL0     C25847   5.168   3.462   5.541 -0.1293  0.0261  0.1752
  933MOL0     C25848   5.112   3.404   5.664 -0.1110  0.0268 -0.8817
  933MOL0     C25849   5.082   3.506   5.435 -0.1455 -0.4096  0.4088
  933MOL0     C25850   4.934   3.516   5.444 -0.7348  0.3773  0.1140
  933MOL0     O25851   4.868   3.457   5.335 -0.4287 -0.0407 -0.3291
  933MOL0     C25852   4.727   3.475   5.338  0.0037 -0.3608  0.1051
  933MOL0     C25853   4.651   3.397   5.424 -0.8741 -0.3195  0.2207
  933MOL0     C25854   4.513   3.419   5.424 -0.2616  1.1320  0.0215
  933MOL0     C25855   4.452   3.509   5.341  0.5121 -0.3110 -0.3680
  933MOL0     O25856   4.322   3.527   5.333 -0.4577  0.1084 -0.0445
  933MOL0     C25857   4.238   3.476   5.443  0.0117 -0.4884  0.2289
  933MOL0     C25858   4.123   3.582   5.446 -0.4601  0.4076 -0.5446
  933MOL0     C25859   4.047   3.591   5.577 -0.1355  0.5486  0.6274
  933MOL0     C25860   3.941   3.705   5.580 -0.1256  0.9114  0.0080
  933MOL0     C25861   3.808   3.658   5.523  0.4041 -0.4611  0.7346
  933MOL0     C25862   3.715   3.758   5.483  0.1752  0.0805 -0.8119
  933MOL0     C25863   3.574   3.691   5.459 -0.1544  0.9149  0.2524
  933MOL0     C25864   3.464   3.787   5.420 -0.1105  0.1823  0.5424
  933MOL0    Cl25865   3.301   3.714   5.439 -0.3247  0.2227 -0.3259
  933MOL0     C25866   4.520   3.593   5.255  0.1875 -0.0818  0.1267
  933MOL0     C25867   4.666   3.572   5.254  1.3646  0.2827 -0.3220
  933MOL0     O25868   4.883   3.587   5.530  0.3422 -0.1730 -0.1690
  933MOL0     C25869   5.148   3.550   5.318  0.8581 -0.3095  0.0078
  933MOL0     C25870   5.288   3.547   5.303 -0.8514  0.0287  0.2122
  933MOL0     N25871   6.113   3.603   5.391  0.8696 -0.3956  0.0756
  933MOL0     N25872   6.226   3.666   5.340  0.1638 -0.5253 -0.7158
  933MOL0     C25873   7.111   4.260   4.970  0.9197  0.3504  0.5220
  933MOL0     C25874   7.247   4.289   4.948 -0.7734  0.2964 -0.2978
  933MOL0     C25875   7.636   4.445   4.783  0.2870 -0.1578 -0.1625
  933MOL0     C25876   7.731   4.342   4.762  0.2188 -0.3666  0.0578
  933MOL0     C25877   7.867   4.366   4.766 -0.0639 -0.4503  0.8557
  933MOL0     C25878   7.914   4.493   4.781  0.1877 -1.1392 -0.0581
  933MOL0     O25879   8.052   4.511   4.790  0.4354  0.1984 -0.5630
  933MOL0     C25880   8.105   4.644   4.791 -0.5998  0.1410  0.2980
  933MOL0     C25881   8.254   4.642   4.777 -0.4838  0.8235 -0.2567
  933MOL0     C25882   8.290   4.601   4.630 -0.6024  0.6168  0.2457
  933MOL0     C25883   8.437   4.562   4.612 -0.0834 -0.3306 -0.0103
  933MOL0     C25884   8.534   4.662   4.664  0.1829  0.0255  0.1723
  933MOL0     C25885   8.607   4.745   4.712 -1.1886 -0.4898 -1.0701
  933MOL0     C25886   7.820   4.597   4.802  0.3642 -0.6074 -0.4324
  933MOL0     C25887   7.686   4.580   4.803  0.3245 -0.1300  1.0307
  933MOL0     H25888   7.283   4.150   4.641  0.4509 -1.0886 -0.1858
  933MOL0     H25889   7.031   4.127   4.673 -2.5270  0.4263  2.0298
  933MOL0     H25890   6.815   4.254   5.047 -0.6735  0.8704  0.7066
  933MOL0     H25891   6.835   4.380   4.922 -0.9378  0.5867  1.2531
  933MOL0     H25892   6.618   4.365   4.938  1.3413  0.7912 -0.9886
  933MOL0     H25893   6.641   4.245   4.798 -0.6168 -2.0482 -0.0482
  933MOL0     H25894   6.657   4.069   4.977  3.0650  2.8728  1.0690
  933MOL0     H25895   6.591   4.205   5.080 -0.4779 -0.5552  0.4389
  933MOL0     H25896   6.419   4.246   4.906  1.5577  0.6497  0.8811
  933MOL0     H25897   6.456   4.094   4.827  0.1422 -0.0020  0.4522
  933MOL0     H25898   6.358   4.093   5.107 -1.2098  5.2202 -1.0313
  933MOL0     H25899   6.255   4.071   4.977  0.5287  2.3632  0.9798
  933MOL0     H25900   6.423   3.890   4.875 -0.2936  2.3680 -0.2788
  933MOL0     H25901   6.490   3.878   5.035 -1.2187 -1.6212  1.1064
  933MOL0     H25902   6.194   3.851   4.975  0.3603 -1.9602 -1.4589
  933MOL0     H25903   6.306   3.715   5.000 -2.6117 -0.1645 -0.4193
  933MOL0     H25904   6.242   3.943   5.221  1.2082 -0.3726  0.1600
  933MOL0     H25905   6.378   3.825   5.233 -0.9886 -5.2887  1.1412
  933MOL0     H25906   5.972   3.799   5.170 -1.0428  0.2886  1.0134
  933MOL0     H25907   5.832   3.698   5.429  0.3506  1.6773 -0.9196
  933MOL0     H25908   5.806   3.671   5.260  1.9585 -1.2980 -0.4819
  933MOL0     H25909   5.778   3.494   5.490 -1.2091 -0.8704 -0.7516
  933MOL0     H25910   5.897   3.418   5.392 -2.4403 -3.0441 -0.8820
  933MOL0     H25911   5.696   3.339   5.328  0.5037  0.6178  2.8027
  933MOL0     H25912   5.757   3.444   5.196  2.8912  3.8817  1.5046
  933MOL0     H25913   5.518   3.461   5.192 -0.6060  2.3035 -1.7133
  933MOL0     H25914   5.589   3.612   5.230  1.1627  0.0724  0.0186
  933MOL0     H25915   5.367   3.417   5.603  1.4618 -0.2635 -1.1470
  933MOL0     H25916   5.069   3.305   5.644 -0.6510 -0.3201  1.7119
  933MOL0     H25917   5.191   3.393   5.738 -1.3407 -0.6261  0.3828
  933MOL0     H25918   5.034   3.467   5.708  1.0297 -1.4907  3.7787
  933MOL0     H25919   4.698   3.313   5.473 -0.4775 -1.1817 -1.5460
  933MOL0     H25920   4.454   3.353   5.486  0.7957  0.6313  0.5191
  933MOL0     H25921   4.210   3.374   5.414  1.1905 -0.5623 -0.6989
  933MOL0     H25922   4.290   3.485   5.539 -0.3782  2.1312  0.2583
  933MOL0     H25923   4.157   3.683   5.423  1.9671 -0.3433 -0.4702
  933MOL0     H25924   4.060   3.554   5.361 -1.9045  1.7252  0.0385
  933MOL0     H25925   4.118   3.602   5.660  1.3237 -2.4678 -0.0595
  933MOL0     H25926   3.992   3.496   5.587 -2.7434  2.0250  1.1463
  933MOL0     H25927   3.944   3.740   5.683  1.0914 -0.4471  0.4663
  933MOL0     H25928   3.965   3.782   5.506  1.2644 -1.7281 -2.4674
  933MOL0     H25929   3.776   3.614   5.617  4.3231  1.6580  3.3615
  933MOL0     H25930   3.820   3.584   5.443 -1.5196 -1.6250  1.4537
  933MOL0     H25931   3.692   3.817   5.572 -5.8275  0.0146 -1.8887
  933MOL0     H25932   3.750   3.826   5.405  2.8446  0.6563  0.7792
  933MOL0     H25933   3.544   3.633   5.546  3.2337  1.8437  2.2463
  933MOL0     H25934   3.578   3.622   5.375 -0.6865  0.5698  0.5089
  933MOL0     H25935   3.467   3.806   5.313 -4.3970 -1.5587 -0.0989
  933MOL0     H25936   3.467   3.879   5.479 -1.1052 -0.9096  2.4018
  933MOL0     H25937   4.477   3.665   5.185  2.2666  0.8031 -0.3125
  933MOL0     H25938   4.736   3.638   5.203  1.8460  1.9664  2.3432
  933MOL0     H25939   5.086   3.584   5.237 -0.0297 -1.6189  0.1062
  933MOL0     H25940   5.343   3.574   5.213 -1.6231  0.1444 -0.2378
  933MOL0     H25941   7.054   4.284   5.059  0.0792  0.9662 -0.1655
  933MOL0     H25942   7.308   4.332   5.026 -0.9954 -2.7618  1.7247
  933MOL0     H25943   7.692   4.243   4.740  3.0109 -1.7034  0.6951
  933MOL0     H25944   7.942   4.289   4.750  1.0068  0.8082 -0.5987
  933MOL0     H25945   8.059   4.721   4.729  2.8934  2.4401  0.2383
  933MOL0     H25946   8.095   4.678   4.895  0.9204 -0.6153  0.7230
  933MOL0     H25947   8.300   4.569   4.844 -1.3398 -0.0577 -0.5962
  933MOL0     H25948   8.288   4.741   4.809 -2.4369  1.5374 -0.2297
  933MOL0     H25949   8.253   4.675   4.558 -1.0812 -2.2692 -2.7019
  933MOL0     H25950   8.222   4.517   4.613  0.2343 -0.4120  1.7406
  933MOL0     H25951   8.453   4.548   4.505 -2.7805 -1.3462 -0.3635
  933MOL0     H25952   8.444   4.460   4.652 -1.8491 -1.4760 -2.3650
  933MOL0     H25953   8.679   4.815   4.751  0.6203 -2.7152 -0.2154
  933MOL0     H25954   7.851   4.700   4.811  0.7584 -0.6913 -0.7804
  933MOL0     H25955   7.612   4.658   4.814 -1.0267 -0.6163 -2.9728
  934MOL0     O25956   9.741   2.199   4.800  0.3664  0.3351  0.2904
  934MOL0     C25957   9.711   2.090   4.849  0.3703 -0.4764  0.1004
  934MOL0     O25958   9.582   2.050   4.884 -0.1654 -0.3217 -0.4202
  934MOL0     C25959   9.477   2.118   4.824  0.7483 -0.1290 -0.1008
  934MOL0     C25960   9.472   2.183   4.698 -0.3034 -0.2100 -0.9899
  934MOL0     C25961   9.345   2.234   4.654 -0.8382 -0.4241  0.5232
  934MOL0     C25962   9.231   2.246   4.727 -0.8124  0.7514  0.3996
  934MOL0     O25963   9.116   2.295   4.672 -0.5063  0.6228 -0.1175
  934MOL0     C25964   9.019   2.351   4.755  1.0744  0.2910 -0.1737
  934MOL0     C25965   8.905   2.251   4.789  0.1702 -0.2913  0.0201
  934MOL0     C25966   8.780   2.306   4.845  0.2264 -0.2170 -0.0809
  934MOL0     C25967   8.649   2.223   4.814 -0.0949  1.0953 -0.9509
  934MOL0     C25968   8.534   2.285   4.883  0.2194 -0.2949 -0.5131
  934MOL0     C25969   8.417   2.187   4.892  0.4580 -0.2800 -0.5860
  934MOL0     C25970   8.450   2.070   4.988  0.7354 -0.0057 -0.4220
  934MOL0     C25971   8.328   1.997   5.038 -0.1060 -0.2477 -0.1682
  934MOL0     N25972   8.248   1.922   4.937 -0.5897 -0.2999  0.5277
  934MOL0     C25973   8.312   1.834   4.853 -0.6105 -0.1822 -0.6209
  934MOL0     C25974   8.215   1.782   4.770  0.4701  0.3114 -0.4843
  934MOL0     C25975   8.231   1.686   4.659  0.0843  0.4162  0.6874
  934MOL0     C25976   8.225   1.535   4.705  0.3519 -0.4107  0.6199
  934MOL0     C25977   8.115   1.510   4.807  1.0907  0.2184  0.2767
  934MOL0     C25978   8.101   1.361   4.822 -0.4893 -0.2043 -0.9829
  934MOL0     O25979   8.009   1.292   4.738  0.8744  0.8826 -0.1161
  934MOL0     C25980   7.878   1.335   4.735  0.0922 -0.1799 -0.4993
  934MOL0     C25981   7.820   1.357   4.611  0.0417 -0.1945 -0.1224
  934MOL0     C25982   7.690   1.375   4.607 -0.4852  0.8671  0.2696
  934MOL0     C25983   7.648   1.406   4.465  0.5034  0.5806 -0.2032
  934MOL0     C25984   7.608   1.379   4.726  0.3332 -0.7637 -0.0967
  934MOL0     C25985   7.461   1.404   4.735 -0.2759 -0.1194 -0.1409
  934MOL0     O25986   7.388   1.377   4.844 -0.3088  0.2629 -0.8946
  934MOL0     C25987   7.256   1.398   4.843  0.1614  0.1048  0.2205
  934MOL0     C25988   7.194   1.494   4.931  0.4675 -0.4875  0.3348
  934MOL0     C25989   7.054   1.498   4.949  0.0608  0.2892  0.1085
  934MOL0     C25990   6.979   1.415   4.867  0.1730  0.7327 -0.0608
  934MOL0     O25991   6.838   1.409   4.869 -0.1485  0.5478  0.8088
  934MOL0     C25992   6.768   1.518   4.924 -0.1378 -0.6066 -0.5225
  934MOL0     C25993   6.621   1.490   4.906  0.6687 -0.9402  0.1504
  934MOL0     C25994   6.568   1.382   4.996  0.6805  0.4378 -0.4036
  934MOL0     C25995   6.418   1.360   4.992 -0.3158 -0.2154  0.2201
  934MOL0     C25996   6.396   1.251   5.099  0.8136 -0.0484  0.1625
  934MOL0     C25997   6.253   1.182   5.074 -0.2938 -1.0744  0.2852
  934MOL0     C25998   6.136   1.257   5.122 -0.4906  0.2826 -0.8691
  934MOL0     C25999   6.030   1.153   5.163  0.3653  0.9752 -0.4211
  934MOL0    Cl26000   5.869   1.204   5.100  0.5704  0.0279 -0.4278
  934MOL0     C26001   7.037   1.321   4.779  0.4733 -0.0747 -0.3969
  934MOL0     C26002   7.174   1.310   4.768  0.3851 -1.0375 -0.5332
  934MOL0     O26003   7.427   1.475   4.645 -0.0708 -0.4101 -0.1102
  934MOL0     C26004   7.673   1.368   4.849  0.2468  0.4323 -0.5155
  934MOL0     C26005   7.809   1.346   4.852  0.1209  0.1117 -0.3389
  934MOL0     N26006   8.098   1.848   4.806 -1.0295 -0.3066 -0.2340
  934MOL0     N26007   8.119   1.939   4.895 -0.2903 -0.2626 -0.5693
  934MOL0     C26008   9.245   2.189   4.858  0.7428  0.7467 -0.9057
  934MOL0     C26009   9.358   2.112   4.896 -0.3468  0.1747 -0.5677
  934MOL0     C26010   9.827   2.001   4.879  0.5099 -0.0347  0.3722
  934MOL0     C26011   9.823   1.911   4.984  0.0954  0.6118  0.0813
  934MOL0     C26012   9.926   1.817   5.005 -0.4642  0.1077  0.1001
  934MOL0     C26013  10.041   1.828   4.928  1.0250  0.7408 -0.0232
  934MOL0     O26014  10.135   1.733   4.957  0.2843 -0.4302  0.0221
  934MOL0     C26015  10.268   1.773   5.006  0.0284 -0.6061  0.5736
  934MOL0     C26016  10.266   1.804   5.157 -0.5185 -0.4687 -0.7520
  934MOL0     C26017  10.291   1.682   5.250 -0.0923 -0.1847 -0.1060
  934MOL0     C26018  10.258   1.712   5.402  0.4705  0.9294 -0.7914
  934MOL0     C26019  10.337   1.823   5.448 -0.0565  0.9015  0.5980
  934MOL0     C26020  10.409   1.918   5.465  0.6444 -0.2170  0.1593
  934MOL0     C26021  10.046   1.923   4.822 -0.2025 -0.2929  0.3440
  934MOL0     C26022   9.939   2.010   4.794  0.1783  0.2892 -0.3875
  934MOL0     H26023   9.560   2.174   4.636  0.1809  2.0905 -0.7568
  934MOL0     H26024   9.334   2.282   4.557  1.3814 -1.1631 -0.1486
  934MOL0     H26025   9.063   2.386   4.849  0.6078 -1.0422  0.5644
  934MOL0     H26026   8.975   2.441   4.709  2.7954  0.6141 -1.2943
  934MOL0     H26027   8.881   2.198   4.697  0.6216 -0.2897 -0.1016
  934MOL0     H26028   8.946   2.174   4.855  1.7126  1.9623  1.8586
  934MOL0     H26029   8.798   2.324   4.952 -0.7573  0.9317 -0.0942
  934MOL0     H26030   8.765   2.398   4.787  1.4331 -1.0681 -1.8388
  934MOL0     H26031   8.623   2.222   4.708 -3.6712 -2.4844 -0.2838
  934MOL0     H26032   8.660   2.117   4.838  1.5926  1.4109 -0.1717
  934MOL0     H26033   8.551   2.316   4.987 -4.0752 -0.4608  0.4208
  934MOL0     H26034   8.503   2.374   4.829 -0.7478 -0.8897 -0.9544
  934MOL0     H26035   8.339   2.247   4.939  0.9335 -0.4216  0.4165
  934MOL0     H26036   8.401   2.146   4.792 -1.4882 -1.2469  0.0819
  934MOL0     H26037   8.515   1.997   4.941  1.8559  0.9015 -0.3142
  934MOL0     H26038   8.500   2.111   5.076  0.4270  0.8064 -0.6092
  934MOL0     H26039   8.260   2.066   5.088  1.1537  0.6298  0.3906
  934MOL0     H26040   8.368   1.921   5.106 -1.1998 -0.0210  0.7405
  934MOL0     H26041   8.418   1.825   4.836 -0.4737  0.5997 -0.2571
  934MOL0     H26042   8.150   1.695   4.586  1.4798 -0.3666 -1.0629
  934MOL0     H26043   8.328   1.705   4.611  0.5368  1.0533  1.8249
  934MOL0     H26044   8.321   1.505   4.748 -0.2310  1.9347  3.8540
  934MOL0     H26045   8.203   1.474   4.617 -0.2314  0.9608 -0.2260
  934MOL0     H26046   8.023   1.558   4.772 -0.5184 -1.3455  2.1090
  934MOL0     H26047   8.138   1.560   4.901  0.9424  4.3190 -1.6709
  934MOL0     H26048   8.055   1.361   4.921  0.2558 -2.2261 -0.6069
  934MOL0     H26049   8.198   1.313   4.837 -0.2279  0.7019  0.4498
  934MOL0     H26050   7.868   1.361   4.513 -0.8099 -2.1388 -0.6738
  934MOL0     H26051   7.540   1.413   4.448 -0.8354 -3.1884  4.4402
  934MOL0     H26052   7.671   1.508   4.434  0.7313 -0.1813 -2.7849
  934MOL0     H26053   7.700   1.331   4.405 -1.7455 -2.7096  1.6645
  934MOL0     H26054   7.256   1.554   4.997  1.0154 -2.1405  1.3759
  934MOL0     H26055   7.008   1.554   5.029  0.4196  0.0665  0.4715
  934MOL0     H26056   6.785   1.542   5.030  0.0539 -1.3523 -0.3780
  934MOL0     H26057   6.798   1.604   4.864  1.1778  0.1541  1.1503
  934MOL0     H26058   6.562   1.581   4.916  0.7841 -0.6173 -1.8771
  934MOL0     H26059   6.598   1.450   4.807 -3.0084 -0.5542  0.7323
  934MOL0     H26060   6.597   1.403   5.099  1.2553  1.3764 -0.7469
  934MOL0     H26061   6.614   1.291   4.958 -1.2890 -1.0251  0.5294
  934MOL0     H26062   6.362   1.452   5.012  0.6944  0.1992  1.2552
  934MOL0     H26063   6.385   1.316   4.898  0.1638  0.5539 -0.3207
  934MOL0     H26064   6.391   1.299   5.197  1.9664 -0.4337  0.4222
  934MOL0     H26065   6.474   1.174   5.097  4.2610  3.1420  0.4191
  934MOL0     H26066   6.250   1.164   4.966  0.5396  0.5252 -0.0350
  934MOL0     H26067   6.257   1.083   5.119 -2.3455 -0.5513  1.7738
  934MOL0     H26068   6.091   1.313   5.039  3.2276 -0.2295 -3.4926
  934MOL0     H26069   6.159   1.331   5.199  4.0172 -0.5190 -1.1860
  934MOL0     H26070   6.036   1.133   5.270  0.1990  2.7079 -0.0509
  934MOL0     H26071   6.046   1.061   5.106 -2.6716  0.2058 -0.2061
  934MOL0     H26072   6.969   1.254   4.728 -3.7129  2.1593  1.7075
  934MOL0     H26073   7.217   1.229   4.711  1.4887 -2.6101  2.3441
  934MOL0     H26074   7.619   1.376   4.943  0.9033  1.8780 -0.2348
  934MOL0     H26075   7.855   1.312   4.945 -1.1642  1.6791  0.9359
  934MOL0     H26076   9.162   2.202   4.928  1.1005 -0.0932 -0.3180
  934MOL0     H26077   9.355   2.072   4.996 -1.3181 -0.9851 -1.0348
  934MOL0     H26078   9.734   1.901   5.046 -2.4541  1.0673 -3.2659
  934MOL0     H26079   9.939   1.759   5.095  2.0847  1.5053  0.7279
  934MOL0     H26080  10.339   1.692   4.993 -0.5754 -1.3490  1.8028
  934MOL0     H26081  10.295   1.867   4.956 -0.1053 -1.7179 -1.7039
  934MOL0     H26082  10.181   1.860   5.196 -2.2676 -3.1999 -0.3701
  934MOL0     H26083  10.343   1.879   5.174  0.0636 -0.3307 -3.4955
  934MOL0     H26084  10.393   1.644   5.244 -0.1524 -0.8296  2.1993
  934MOL0     H26085  10.217   1.608   5.217 -2.5596  1.9737  0.2703
  934MOL0     H26086  10.291   1.624   5.459  0.9074  1.9197  0.5602
  934MOL0     H26087  10.151   1.734   5.408  0.0486 -1.2402  1.3425
  934MOL0     H26088  10.450   2.016   5.478  0.1174  0.5026 -2.8077
  934MOL0     H26089  10.137   1.941   4.766  0.1610 -0.4791  0.8662
  934MOL0     H26090   9.948   2.075   4.707 -1.8324 -0.7579 -1.4434
  935MOL0     O26091   7.527   0.787   8.090  0.7111 -0.4682 -0.8599
  935MOL0     C26092   7.586   0.755   8.196  0.0989  0.2047  0.5545
  935MOL0     O26093   7.529   0.734   8.317  0.5038 -0.4229  0.5962
  935MOL0     C26094   7.391   0.720   8.318 -1.2461  1.0157 -0.2216
  935MOL0     C26095   7.304   0.826   8.296  0.1123 -0.0248 -0.4519
  935MOL0     C26096   7.167   0.803   8.309  0.3140  0.2272 -0.0995
  935MOL0     C26097   7.117   0.683   8.348 -0.1849 -0.6011 -0.6454
  935MOL0     O26098   6.988   0.653   8.356 -0.1477 -0.3729  0.5741
  935MOL0     C26099   6.892   0.739   8.425 -0.1131  0.4565  0.2234
  935MOL0     C26100   6.781   0.634   8.447 -0.2578  0.5070  0.1801
  935MOL0     C26101   6.639   0.691   8.453 -1.1112  0.4044  0.5690
  935MOL0     C26102   6.533   0.595   8.427 -0.5160 -0.3279 -0.1128
  935MOL0     C26103   6.390   0.659   8.452  0.5175 -0.2786 -0.1038
  935MOL0     C26104   6.274   0.565   8.428  0.2395  0.9003 -0.0356
  935MOL0     C26105   6.139   0.620   8.452 -0.6723 -0.4920  0.6024
  935MOL0     C26106   6.096   0.661   8.596 -0.9256  0.5841 -0.2516
  935MOL0     N26107   5.953   0.681   8.613  0.0014 -0.2972  0.5250
  935MOL0     C26108   5.895   0.664   8.734 -0.3269 -0.3210 -0.4355
  935MOL0     C26109   5.761   0.695   8.717 -0.2818  0.4148  0.2548
  935MOL0     C26110   5.658   0.704   8.821  0.2646  0.9045  0.5717
  935MOL0     C26111   5.601   0.839   8.823 -0.4454  0.0046 -0.3022
  935MOL0     C26112   5.485   0.855   8.930 -0.8396 -0.0748 -0.2361
  935MOL0     C26113   5.374   0.745   8.924 -0.5938 -0.2421  0.6922
  935MOL0     O26114   5.277   0.766   9.018  0.2390 -0.5827 -0.0798
  935MOL0     C26115   5.176   0.851   9.007  0.0719 -0.1700 -0.1182
  935MOL0     C26116   5.082   0.860   9.106  0.3403 -0.9371 -0.2795
  935MOL0     C26117   4.966   0.946   9.099 -0.2529  0.8492  0.2578
  935MOL0     C26118   4.861   0.907   9.192 -0.2454 -0.0506  0.0559
  935MOL0     C26119   4.949   1.041   8.997 -0.4554  0.1125 -0.2245
  935MOL0     C26120   4.850   1.140   8.980 -0.5030  0.3833  0.0835
  935MOL0     O26121   4.867   1.218   8.869 -0.0637  0.2517  1.0920
  935MOL0     C26122   4.772   1.292   8.805 -0.6078 -0.3329 -0.1460
  935MOL0     C26123   4.819   1.384   8.707  0.4756  0.3059 -0.0450
  935MOL0     C26124   4.728   1.470   8.634  0.8962 -1.0370  0.1016
  935MOL0     C26125   4.598   1.460   8.662 -0.2787 -0.5027  0.1569
  935MOL0     O26126   4.502   1.528   8.598  0.1532 -0.0377 -0.3004
  935MOL0     C26127   4.501   1.552   8.455 -0.4521 -0.1301 -0.2102
  935MOL0     C26128   4.382   1.637   8.424  1.5139  0.4367 -0.6002
  935MOL0     C26129   4.392   1.779   8.481  0.2643 -0.0642  0.8478
  935MOL0     C26130   4.278   1.851   8.410 -0.6146  0.1706 -1.0980
  935MOL0     C26131   4.288   2.002   8.399  0.3356 -0.4556  0.2243
  935MOL0     C26132   4.170   2.068   8.337  0.6419 -0.4943 -0.0680
  935MOL0     C26133   4.147   2.205   8.378 -0.0779  1.3373 -0.6646
  935MOL0     C26134   4.035   2.282   8.308  0.0250 -0.3158  0.6520
  935MOL0    Cl26135   3.854   2.225   8.343 -0.4316 -0.2396  0.2330
  935MOL0     C26136   4.544   1.368   8.757  0.7497 -0.0433  0.5473
  935MOL0     C26137   4.635   1.295   8.838 -0.1057  0.2156 -0.8610
  935MOL0     O26138   4.749   1.142   9.058 -0.3093  0.1425 -0.6555
  935MOL0     C26139   5.051   1.029   8.897  0.2494  0.2800 -0.3712
  935MOL0     C26140   5.165   0.947   8.908 -0.1166  0.8236 -0.3003
  935MOL0     N26141   5.745   0.725   8.577  0.2600 -0.2633  0.0191
  935MOL0     N26142   5.858   0.708   8.519  0.2966 -0.8382 -0.9489
  935MOL0     C26143   7.210   0.583   8.383 -0.6815 -0.0803 -0.3436
  935MOL0     C26144   7.349   0.594   8.360 -0.2568 -0.6536 -0.1674
  935MOL0     C26145   7.741   0.749   8.195 -0.1249  0.4690 -0.2544
  935MOL0     C26146   7.808   0.783   8.080 -0.6722 -0.3441 -0.9984
  935MOL0     C26147   7.952   0.772   8.076 -0.6926  0.5343 -0.8756
  935MOL0     C26148   8.013   0.713   8.198 -0.1087 -0.5571  0.2701
  935MOL0     O26149   8.149   0.683   8.207  0.2878 -0.3452  0.7717
  935MOL0     C26150   8.198   0.607   8.102  0.3705 -0.5351  0.0718
  935MOL0     C26151   8.290   0.481   8.143  0.4495 -0.6911 -0.3726
  935MOL0     C26152   8.274   0.429   8.290 -0.2343  0.0846 -0.4186
  935MOL0     C26153   8.130   0.378   8.320 -0.5524  0.5113  0.1846
  935MOL0     C26154   8.130   0.237   8.269  0.5199 -1.0701  0.2574
  935MOL0     C26155   8.133   0.128   8.215 -0.7768 -0.1347 -0.4098
  935MOL0     C26156   7.937   0.691   8.318  0.4230 -0.8886 -0.1634
  935MOL0     C26157   7.804   0.698   8.313  1.2923 -0.0819  0.0864
  935MOL0     H26158   7.340   0.919   8.254  1.1884  0.1269  0.7357
  935MOL0     H26159   7.106   0.885   8.273 -2.3188 -2.8866 -3.5045
  935MOL0     H26160   6.924   0.781   8.522 -0.9151  1.3822  0.1050
  935MOL0     H26161   6.856   0.819   8.360 -0.7692  0.1588  0.2185
  935MOL0     H26162   6.782   0.565   8.362 -3.4438  0.3228  0.1894
  935MOL0     H26163   6.798   0.580   8.540 -0.5790  0.1171  0.0128
  935MOL0     H26164   6.622   0.743   8.548 -2.6474  1.0384 -0.0134
  935MOL0     H26165   6.629   0.755   8.365 -0.4459 -1.2491 -0.7785
  935MOL0     H26166   6.533   0.569   8.320 -0.8733  1.2714 -0.5325
  935MOL0     H26167   6.565   0.501   8.472  2.8319 -0.7603 -2.9890
  935MOL0     H26168   6.396   0.687   8.558  2.1305 -1.3603  0.1341
  935MOL0     H26169   6.369   0.745   8.388  1.1718 -1.2794 -1.7239
  935MOL0     H26170   6.275   0.545   8.320  1.1290  2.7456 -0.3988
  935MOL0     H26171   6.308   0.477   8.485  5.2617  2.6657  0.2037
  935MOL0     H26172   6.139   0.709   8.388 -2.8546 -0.9037 -0.0522
  935MOL0     H26173   6.065   0.552   8.410  0.4001 -1.9076  0.9492
  935MOL0     H26174   6.151   0.748   8.634 -0.0960  0.5488 -1.3259
  935MOL0     H26175   6.118   0.580   8.666 -3.1860  0.7682  0.7519
  935MOL0     H26176   5.936   0.643   8.832 -3.4786 -3.7628  0.3900
  935MOL0     H26177   5.584   0.624   8.807  0.0493  1.0302  0.9871
  935MOL0     H26178   5.693   0.678   8.921 -1.7655 -0.3425  1.0182
  935MOL0     H26179   5.567   0.860   8.721  0.7642 -0.9674 -0.9250
  935MOL0     H26180   5.680   0.909   8.850  0.1429 -0.9848  0.5718
  935MOL0     H26181   5.430   0.948   8.912 -2.8031 -0.6721  2.1599
  935MOL0     H26182   5.531   0.853   9.029 -3.1095  0.0828  0.8717
  935MOL0     H26183   5.418   0.646   8.933 -0.1115 -0.0802  0.1607
  935MOL0     H26184   5.334   0.751   8.822 -0.6212 -2.7019  0.5059
  935MOL0     H26185   5.091   0.800   9.196 -2.3444  0.4960  1.0790
  935MOL0     H26186   4.877   0.953   9.290 -2.4306  0.1029  0.3897
  935MOL0     H26187   4.760   0.920   9.153 -0.8435  1.2591  1.8951
  935MOL0     H26188   4.868   0.798   9.209  1.7489  0.0548  0.2569
  935MOL0     H26189   4.923   1.380   8.678  0.4725  1.0975 -0.1936
  935MOL0     H26190   4.758   1.544   8.560 -1.1591  1.5991  1.6833
  935MOL0     H26191   4.593   1.602   8.427 -2.1161  1.9729 -2.3390
  935MOL0     H26192   4.496   1.457   8.401  0.4522  0.5255 -1.4882
  935MOL0     H26193   4.364   1.643   8.317  1.0052 -0.0764 -0.5504
  935MOL0     H26194   4.297   1.586   8.471  3.1414 -0.6665  1.3242
  935MOL0     H26195   4.487   1.822   8.447 -0.8738  1.2841 -0.8004
  935MOL0     H26196   4.393   1.777   8.590  4.7442  1.9963  1.0810
  935MOL0     H26197   4.262   1.817   8.308 -0.7031 -0.0292 -1.0170
  935MOL0     H26198   4.195   1.828   8.478  0.4815 -0.0532  0.2191
  935MOL0     H26199   4.376   2.030   8.340  0.3035 -2.3939 -0.8570
  935MOL0     H26200   4.296   2.045   8.499  0.1826 -1.5763  0.7327
  935MOL0     H26201   4.197   2.071   8.231  1.3961  0.6602  0.1287
  935MOL0     H26202   4.079   2.011   8.352 -2.7429  4.2044 -0.5214
  935MOL0     H26203   4.242   2.258   8.365  1.4197 -0.4070  2.1077
  935MOL0     H26204   4.105   2.200   8.479 -1.6276  0.0837 -1.3352
  935MOL0     H26205   4.065   2.279   8.203  3.5061  0.3603  1.5246
  935MOL0     H26206   4.055   2.385   8.340  1.3704  0.4518 -2.3020
  935MOL0     H26207   4.437   1.362   8.773  0.4090  0.7599 -1.1466
  935MOL0     H26208   4.591   1.229   8.912 -0.9775 -0.8368 -2.2498
  935MOL0     H26209   5.037   1.079   8.802 -0.4169 -0.2285 -0.5535
  935MOL0     H26210   5.240   0.950   8.829  2.3729 -2.8527  1.6648
  935MOL0     H26211   7.166   0.485   8.401 -1.6144  0.4310  0.2008
  935MOL0     H26212   7.420   0.515   8.385  1.4949  1.2023  1.0483
  935MOL0     H26213   7.755   0.819   7.993  0.9228  1.5839 -1.2564
  935MOL0     H26214   8.016   0.783   7.989  1.1214 -1.6554  0.0872
  935MOL0     H26215   8.122   0.563   8.037  2.5266  0.9428 -3.7656
  935MOL0     H26216   8.261   0.676   8.045  2.6915 -0.3546  2.6553
  935MOL0     H26217   8.390   0.524   8.138 -0.6945  2.7008  1.8990
  935MOL0     H26218   8.265   0.394   8.082 -1.5453 -0.7911  0.5004
  935MOL0     H26219   8.295   0.511   8.359  0.5939 -1.3485  1.0814
  935MOL0     H26220   8.343   0.348   8.312 -1.7168 -1.0587  0.2100
  935MOL0     H26221   8.065   0.442   8.260  0.8196 -0.9368 -3.0871
  935MOL0     H26222   8.105   0.389   8.426 -1.1991  0.0680  0.0909
  935MOL0     H26223   8.139   0.036   8.160  0.0844 -0.5377  0.3408
  935MOL0     H26224   7.980   0.668   8.415 -0.4657  2.4823  1.1698
  935MOL0     H26225   7.743   0.665   8.396  0.6335 -2.4006 -1.2091
  936MOL0     O26226   1.800   6.947   4.246  0.7880  0.1079 -0.4403
  936MOL0     C26227   1.765   6.840   4.292  0.8129 -0.5033  0.0559
  936MOL0     O26228   1.844   6.734   4.296  0.1875  0.2040 -0.8832
  936MOL0     C26229   1.980   6.738   4.276  0.9180  0.6533  0.7015
  936MOL0     C26230   2.041   6.631   4.214 -0.6373  0.1303 -0.9945
  936MOL0     C26231   2.182   6.634   4.193  0.6058 -0.8920 -0.0652
  936MOL0     C26232   2.256   6.744   4.238  0.1225 -0.3303  0.3415
  936MOL0     O26233   2.393   6.744   4.221  0.7450 -0.8102 -0.2516
  936MOL0     C26234   2.475   6.701   4.335  0.2372 -0.2135  0.2537
  936MOL0     C26235   2.585   6.609   4.278 -0.6259 -1.0726  0.8967
  936MOL0     C26236   2.698   6.696   4.205 -0.8271 -1.1536  0.2984
  936MOL0     C26237   2.773   6.615   4.105 -0.3620 -0.6405  0.4234
  936MOL0     C26238   2.922   6.661   4.080 -1.1083 -0.2198  0.3741
  936MOL0     C26239   2.989   6.554   3.997  0.5070  0.8230  0.2245
  936MOL0     C26240   2.939   6.560   3.856 -0.0635 -0.2041 -0.2941
  936MOL0     C26241   3.031   6.480   3.763 -0.0833 -0.0100 -0.2264
  936MOL0     N26242   2.985   6.497   3.620 -0.1284  1.0123  0.5204
  936MOL0     C26243   2.936   6.616   3.564 -0.3967  0.0949 -0.0564
  936MOL0     C26244   2.897   6.587   3.439  0.4521  0.4132  1.1485
  936MOL0     C26245   2.826   6.679   3.343  0.4542  0.2432 -0.0513
  936MOL0     C26246   2.823   6.835   3.388 -1.3016  0.2481  0.6673
  936MOL0     C26247   2.767   6.920   3.273  0.2567  0.1531  0.3430
  936MOL0     C26248   2.766   7.070   3.308 -0.3110 -0.2401  1.1824
  936MOL0     O26249   2.713   7.091   3.441  0.2773  0.3225 -0.5274
  936MOL0     C26250   2.577   7.092   3.468 -0.3210 -0.6462 -0.2374
  936MOL0     C26251   2.482   7.080   3.369 -0.0768  0.1534  0.5697
  936MOL0     C26252   2.345   7.096   3.395  0.3333  0.3059  0.3532
  936MOL0     C26253   2.254   7.061   3.281  0.5781  0.3805  0.4625
  936MOL0     C26254   2.303   7.143   3.521  0.4096  0.4018  0.0468
  936MOL0     C26255   2.170   7.186   3.557 -0.3856  0.1361 -0.7523
  936MOL0     O26256   2.142   7.219   3.691  0.2152 -0.1587 -0.8559
  936MOL0     C26257   2.028   7.290   3.724  0.4927  0.6174  1.7256
  936MOL0     C26258   1.913   7.218   3.748  0.8622 -0.0733  0.7471
  936MOL0     C26259   1.786   7.284   3.757 -0.8307  0.9307  0.9925
  936MOL0     C26260   1.787   7.424   3.757  0.2236 -1.2895 -0.9954
  936MOL0     O26261   1.678   7.510   3.761 -0.0108 -0.5109 -0.2013
  936MOL0     C26262   1.562   7.452   3.829 -0.7087  0.5063  0.2547
  936MOL0     C26263   1.447   7.556   3.851 -0.0277  0.6173 -0.4034
  936MOL0     C26264   1.489   7.660   3.957 -1.1755  0.6124  0.7827
  936MOL0     C26265   1.484   7.630   4.102 -0.2539  0.4292 -0.7359
  936MOL0     C26266   1.543   7.731   4.207 -0.2794 -0.2908  0.0621
  936MOL0     C26267   1.461   7.855   4.230  0.3166  0.7429  0.6537
  936MOL0     C26268   1.512   7.945   4.343  0.7330  0.0991 -0.7873
  936MOL0     C26269   1.459   8.084   4.340 -0.2574  0.2264  0.2824
  936MOL0    Cl26270   1.291   8.067   4.401  0.3789 -0.4971 -0.4480
  936MOL0     C26271   1.909   7.490   3.731 -0.7678  0.2359  0.2114
  936MOL0     C26272   2.034   7.431   3.721  0.5389  1.0344  0.2450
  936MOL0     O26273   2.091   7.209   3.463 -0.6183  0.2475  0.3349
  936MOL0     C26274   2.393   7.133   3.631 -0.6322 -0.8705 -0.1521
  936MOL0     C26275   2.535   7.105   3.604 -0.4894  0.0714  0.3838
  936MOL0     N26276   2.926   6.448   3.422  0.1066  0.0380  0.2774
  936MOL0     N26277   2.964   6.397   3.530  1.2299 -0.5298  0.4771
  936MOL0     C26278   2.199   6.847   4.301  0.2190 -0.1741 -1.1413
  936MOL0     C26279   2.063   6.832   4.334 -0.1500  0.2042  0.2499
  936MOL0     C26280   1.628   6.813   4.334 -0.1898 -0.3331 -0.5404
  936MOL0     C26281   1.528   6.897   4.279 -0.3867  0.9258 -0.1772
  936MOL0     C26282   1.399   6.869   4.290  0.0421  0.3933 -1.4915
  936MOL0     C26283   1.357   6.764   4.375 -0.4137 -0.2258  0.6502
  936MOL0     O26284   1.228   6.745   4.400  0.0290  0.0225 -0.1636
  936MOL0     C26285   1.170   6.840   4.495  0.1446  0.2633 -0.1970
  936MOL0     C26286   1.049   6.778   4.553 -0.1238  0.0944 -0.3518
  936MOL0     C26287   1.084   6.650   4.634  0.2276 -0.1004  0.2760
  936MOL0     C26288   0.959   6.603   4.701 -0.0196 -0.0447 -0.1885
  936MOL0     C26289   0.981   6.510   4.806 -0.0703  0.6499 -0.0289
  936MOL0     C26290   1.026   6.422   4.883 -0.3054 -0.4124  0.2454
  936MOL0     C26291   1.460   6.691   4.445  0.2405 -1.0744  0.1413
  936MOL0     C26292   1.596   6.719   4.431 -0.3355 -0.9096 -0.0248
  936MOL0     H26293   1.989   6.541   4.182 -0.9536 -0.6803  1.5894
  936MOL0     H26294   2.222   6.552   4.134  0.9502  0.3729 -1.6609
  936MOL0     H26295   2.527   6.782   4.386 -0.7073 -0.0204  0.9418
  936MOL0     H26296   2.413   6.653   4.412 -0.0952  0.0287  0.1385
  936MOL0     H26297   2.632   6.567   4.368  1.1451  1.0578  1.0582
  936MOL0     H26298   2.538   6.532   4.216  1.4194  0.2656 -2.6063
  936MOL0     H26299   2.658   6.779   4.146  0.8395 -0.4149  0.1545
  936MOL0     H26300   2.768   6.742   4.275  0.8589 -0.3215 -1.8261
  936MOL0     H26301   2.771   6.514   4.147  0.0670  0.0986  2.2966
  936MOL0     H26302   2.719   6.622   4.010 -0.2614  1.2747  0.4754
  936MOL0     H26303   2.929   6.755   4.024  0.3737 -0.9756 -0.7605
  936MOL0     H26304   2.970   6.676   4.177 -0.1673 -3.7090  0.5692
  936MOL0     H26305   3.098   6.561   4.003  0.7063 -1.9574  0.8122
  936MOL0     H26306   2.969   6.455   4.037  1.9029 -1.9365 -5.0057
  936MOL0     H26307   2.833   6.532   3.858 -0.0694 -0.1598  2.2331
  936MOL0     H26308   2.947   6.667   3.836 -2.3523  0.2852  1.0746
  936MOL0     H26309   3.037   6.373   3.788 -0.6505  0.2158  0.9386
  936MOL0     H26310   3.134   6.514   3.778 -0.4716  1.6733 -1.1220
  936MOL0     H26311   2.944   6.714   3.609  0.4028 -1.0936  2.5435
  936MOL0     H26312   2.880   6.673   3.248 -0.0762  0.2248 -0.3534
  936MOL0     H26313   2.724   6.642   3.334 -0.7305  2.8174  1.6494
  936MOL0     H26314   2.923   6.877   3.404 -1.5217  1.1856 -0.3108
  936MOL0     H26315   2.756   6.847   3.474 -4.5228  0.0373 -1.6414
  936MOL0     H26316   2.666   6.883   3.253  0.5742 -0.4703 -0.1479
  936MOL0     H26317   2.823   6.888   3.184 -0.7126 -2.8236  0.6899
  936MOL0     H26318   2.715   7.131   3.233 -0.0238 -1.5529 -0.1431
  936MOL0     H26319   2.872   7.096   3.312 -1.0099  3.1780  0.2732
  936MOL0     H26320   2.518   7.057   3.269  1.0212  0.7263  0.8212
  936MOL0     H26321   2.308   7.000   3.209  0.0777  0.6599 -0.1594
  936MOL0     H26322   2.163   7.009   3.312  0.2600 -0.9444 -2.3966
  936MOL0     H26323   2.221   7.150   3.227 -0.2779 -1.5274 -2.3878
  936MOL0     H26324   1.917   7.109   3.751  0.7778 -0.2876 -2.5458
  936MOL0     H26325   1.691   7.236   3.777 -1.5148  2.5143  1.7521
  936MOL0     H26326   1.520   7.377   3.761 -0.1064  0.1674  0.2470
  936MOL0     H26327   1.589   7.413   3.928  1.4767  3.4446  0.9357
  936MOL0     H26328   1.425   7.608   3.757 -0.4251  2.0529  0.4433
  936MOL0     H26329   1.357   7.505   3.885  0.1776  0.2061 -0.4725
  936MOL0     H26330   1.427   7.749   3.943  1.4926  2.8884  2.4747
  936MOL0     H26331   1.589   7.695   3.927 -0.1380 -0.8752  2.3322
  936MOL0     H26332   1.380   7.611   4.129  0.5053  1.9509  4.4022
  936MOL0     H26333   1.534   7.535   4.122  0.3357  0.6708 -1.0118
  936MOL0     H26334   1.643   7.760   4.173  0.4434  0.9130  2.9275
  936MOL0     H26335   1.554   7.689   4.307  1.2107 -0.6022 -0.2099
  936MOL0     H26336   1.467   7.914   4.139  1.7854  0.3238  0.4486
  936MOL0     H26337   1.359   7.819   4.244  0.2032  1.2996  1.2996
  936MOL0     H26338   1.621   7.954   4.328  1.1232 -1.4200  0.8987
  936MOL0     H26339   1.496   7.888   4.434 -1.1518  0.4911 -0.8299
  936MOL0     H26340   1.469   8.134   4.244  6.1413 -0.7888 -0.0027
  936MOL0     H26341   1.512   8.152   4.407  3.3002 -0.0722 -1.9919
  936MOL0     H26342   1.903   7.598   3.721 -0.6791  0.1831 -0.4505
  936MOL0     H26343   2.132   7.478   3.715  1.8857 -1.7013 -1.1566
  936MOL0     H26344   2.369   7.165   3.732  0.8115  1.0129 -0.3533
  936MOL0     H26345   2.615   7.103   3.677 -1.2022 -1.3317  1.1666
  936MOL0     H26346   2.265   6.925   4.339  3.1572 -2.9245 -0.1190
  936MOL0     H26347   2.024   6.894   4.415  0.3155 -1.5686  1.9179
  936MOL0     H26348   1.553   6.984   4.219  2.6152 -0.4326 -1.0871
  936MOL0     H26349   1.317   6.929   4.253 -1.4177 -1.1084 -0.8268
  936MOL0     H26350   1.241   6.871   4.572 -0.2771  2.1772 -0.5311
  936MOL0     H26351   1.150   6.935   4.444 -0.0407 -0.2810 -1.1670
  936MOL0     H26352   0.996   6.744   4.464 -3.6372  0.0990  1.5744
  936MOL0     H26353   0.992   6.851   4.611 -0.6395  0.2596 -1.0552
  936MOL0     H26354   1.149   6.676   4.719  0.1702 -1.2006  0.6765
  936MOL0     H26355   1.124   6.571   4.571 -1.1662  0.0400 -0.8296
  936MOL0     H26356   0.893   6.563   4.623  1.2097 -1.1947 -0.6818
  936MOL0     H26357   0.923   6.696   4.745 -1.4719  0.6433 -2.5934
  936MOL0     H26358   1.073   6.350   4.946  1.2831  0.1913 -0.1889
  936MOL0     H26359   1.436   6.619   4.522 -0.5661  1.2647  2.1943
  936MOL0     H26360   1.663   6.659   4.493 -1.8371 -1.4036  1.2009
  937MOL0     O26361   1.021   7.965   2.197 -0.2114  0.1081  0.9111
  937MOL0     C26362   1.051   7.937   2.075  0.0057  0.3670 -0.7896
  937MOL0     O26363   0.973   7.953   1.963  0.5538 -0.4414 -0.3598
  937MOL0     C26364   0.838   7.996   1.980 -0.7394 -0.5472  0.3158
  937MOL0     C26365   0.736   7.904   2.018 -0.5282 -0.2852 -0.3612
  937MOL0     C26366   0.610   7.960   2.016 -0.9355  0.2382 -0.5809
  937MOL0     C26367   0.576   8.094   1.975  0.4022 -0.0139  0.4980
  937MOL0     O26368   0.450   8.144   1.975 -0.5268 -0.7815 -0.0498
  937MOL0     C26369   0.334   8.058   1.996  0.1919  0.3336 -0.1607
  937MOL0     C26370   0.210   8.140   1.959 -0.2021  0.0092  0.1244
  937MOL0     C26371   0.149   8.225   2.084 -0.2214 -0.3196 -0.1181
  937MOL0     C26372   0.049   8.328   2.036 -0.6375  0.3663  0.5745
  937MOL0     C26373   0.003   8.408   2.160 -0.3704 -0.3831  0.1392
  937MOL0     C26374  -0.114   8.504   2.136 -0.1184  0.0870 -0.3308
  937MOL0     C26375  -0.190   8.557   2.256 -0.3286 -0.3200  0.3297
  937MOL0     C26376  -0.292   8.671   2.225  0.3333  0.3273  0.5589
  937MOL0     N26377  -0.339   8.721   2.352  0.1885  0.0365  0.7956
  937MOL0     C26378  -0.472   8.713   2.397  0.1505 -1.0002  0.0612
  937MOL0     C26379  -0.479   8.800   2.506 -0.6465  0.1466  0.0808
  937MOL0     C26380  -0.594   8.820   2.602  0.5747  0.0986 -0.3517
  937MOL0     C26381  -0.671   8.946   2.570  0.3952 -0.9733 -0.4486
  937MOL0     C26382  -0.801   8.971   2.660  0.2706 -0.0038  0.1036
  937MOL0     C26383  -0.894   9.075   2.609  0.7706 -0.5964 -0.4154
  937MOL0     O26384  -1.032   9.029   2.640  0.1794  0.0796 -0.2731
  937MOL0     C26385  -1.141   9.109   2.614  1.5283  0.3615 -0.3354
  937MOL0     C26386  -1.274   9.051   2.634 -0.2373  0.2845 -0.4681
  937MOL0     C26387  -1.396   9.118   2.607  0.2699 -0.5843 -0.8837
  937MOL0     C26388  -1.527   9.029   2.605 -1.1749  0.2638  0.0172
  937MOL0     C26389  -1.386   9.249   2.557  0.0209  0.5354 -0.4624
  937MOL0     C26390  -1.509   9.332   2.530 -0.5975  0.0869  0.4751
  937MOL0     O26391  -1.497   9.433   2.430  0.3777 -0.0197 -0.2422
  937MOL0     C26392  -1.600   9.522   2.410 -0.8803  0.2102  0.1085
  937MOL0     C26393  -1.580   9.651   2.448 -0.3931  0.3829 -0.1842
  937MOL0     C26394  -1.686   9.741   2.431  0.1069  0.2476  0.1065
  937MOL0     C26395  -1.802   9.703   2.370  0.3175 -0.9372 -0.1262
  937MOL0     O26396  -1.887   9.799   2.333  0.3611  0.1196  0.4564
  937MOL0     C26397  -2.011   9.814   2.394  0.7850 -0.5053 -0.4914
  937MOL0     C26398  -2.109   9.762   2.289  0.5529 -1.4416 -0.7295
  937MOL0     C26399  -2.258   9.799   2.328 -0.3234 -0.3512 -0.8453
  937MOL0     C26400  -2.338   9.817   2.204  0.4118 -0.8946 -0.2407
  937MOL0     C26401  -2.488   9.817   2.243 -0.0952 -0.0247 -0.5296
  937MOL0     C26402  -2.575   9.828   2.119  0.6335 -0.1486  0.1581
  937MOL0     C26403  -2.718   9.881   2.138  0.3600  0.3128 -0.4225
  937MOL0     C26404  -2.789   9.802   2.255 -0.5998  0.0279  1.2217
  937MOL0    Cl26405  -2.970   9.823   2.249  0.1084  0.0786 -0.0783
  937MOL0     C26406  -1.820   9.573   2.326  0.1218 -0.5180 -1.2243
  937MOL0     C26407  -1.718   9.478   2.347  0.6914  0.1437 -0.0525
  937MOL0     O26408  -1.603   9.327   2.609 -0.1571  0.0010 -0.1550
  937MOL0     C26409  -1.255   9.306   2.539  0.2611 -0.0421 -0.0239
  937MOL0     C26410  -1.134   9.241   2.565 -0.0531  0.5824 -0.3105
  937MOL0     N26411  -0.355   8.855   2.520 -0.0790 -0.4909  0.0071
  937MOL0     N26412  -0.274   8.820   2.423  0.0013  0.4147 -0.7844
  937MOL0     C26413   0.680   8.174   1.934 -0.7842  0.0539 -0.2567
  937MOL0     C26414   0.808   8.122   1.932 -0.0055  0.3990 -0.1550
  937MOL0     C26415   1.182   7.881   2.057 -0.7717  1.2443 -0.6876
  937MOL0     C26416   1.255   7.844   2.172  0.0231 -0.6226 -0.2396
  937MOL0     C26417   1.384   7.784   2.154  0.3230 -1.1159  0.1219
  937MOL0     C26418   1.441   7.759   2.026  0.2912 -0.3773  0.3095
  937MOL0     O26419   1.565   7.712   2.013 -0.5523 -0.2621  0.0387
  937MOL0     C26420   1.608   7.624   1.902  0.2325  0.4514 -0.2761
  937MOL0     C26421   1.719   7.695   1.825 -0.6326 -0.2592  0.0541
  937MOL0     C26422   1.862   7.701   1.895  0.0437  0.0049  0.8072
  937MOL0     C26423   1.856   7.794   2.019  0.6839  0.9085 -0.1379
  937MOL0     C26424   1.986   7.812   2.081 -0.5516 -0.0154 -0.7131
  937MOL0     C26425   2.098   7.829   2.127  0.3413  0.0762  0.1546
  937MOL0     C26426   1.362   7.802   1.912 -0.7622  0.0224  0.9465
  937MOL0     C26427   1.233   7.850   1.928 -0.1578  0.0475 -0.1066
  937MOL0     H26428   0.762   7.803   2.046  0.3811  0.3011  1.0560
  937MOL0     H26429   0.526   7.911   2.065 -0.0565  0.6603  1.4654
  937MOL0     H26430   0.343   7.971   1.930 -2.3665  1.0418 -1.5959
  937MOL0     H26431   0.336   8.027   2.101 -0.6249 -1.8638 -0.7305
  937MOL0     H26432   0.238   8.202   1.873  2.0725  0.4398  1.1029
  937MOL0     H26433   0.131   8.075   1.919 -0.5349 -1.3379  2.7512
  937MOL0     H26434   0.110   8.148   2.152  3.5821 -2.5080 -0.1325
  937MOL0     H26435   0.221   8.281   2.144 -1.0991  0.4150  0.2825
  937MOL0     H26436   0.095   8.398   1.964  1.2038  2.3073  3.4084
  937MOL0     H26437  -0.039   8.289   1.984 -0.0482 -2.8265  1.7502
  937MOL0     H26438  -0.020   8.330   2.234 -0.2754 -1.6502 -1.1153
  937MOL0     H26439   0.091   8.453   2.207 -1.2113 -1.4473  2.9673
  937MOL0     H26440  -0.076   8.589   2.079  1.4793  0.7461  1.6093
  937MOL0     H26441  -0.197   8.456   2.083 -0.4820  0.8574 -0.4647
  937MOL0     H26442  -0.229   8.474   2.316 -4.0465  0.4747 -0.7105
  937MOL0     H26443  -0.114   8.609   2.314 -0.2895 -0.6759  0.5990
  937MOL0     H26444  -0.381   8.630   2.176  0.7379  0.8930 -0.7123
  937MOL0     H26445  -0.243   8.744   2.160 -1.8369  2.2431  0.9781
  937MOL0     H26446  -0.556   8.664   2.350 -2.0279  2.4530  0.0228
  937MOL0     H26447  -0.656   8.730   2.590  1.0694 -0.0410 -2.1799
  937MOL0     H26448  -0.554   8.812   2.704 -0.1639 -1.5392 -0.1485
  937MOL0     H26449  -0.696   8.938   2.464 -3.0382 -1.7788  0.2874
  937MOL0     H26450  -0.609   9.029   2.604  1.0121 -2.6989  3.0858
  937MOL0     H26451  -0.771   8.989   2.763  1.1054  0.9705 -0.2876
  937MOL0     H26452  -0.849   8.873   2.656  1.0628 -0.4801  1.5967
  937MOL0     H26453  -0.889   9.098   2.502 -1.1612  0.5362 -0.3147
  937MOL0     H26454  -0.878   9.171   2.660  0.2743  1.0184 -3.0800
  937MOL0     H26455  -1.265   8.948   2.665  1.5588 -0.1287 -2.1683
  937MOL0     H26456  -1.568   9.020   2.504  1.0720 -1.2584 -0.8505
  937MOL0     H26457  -1.517   8.929   2.647  1.1574  0.6226  0.4686
  937MOL0     H26458  -1.611   9.071   2.660 -0.8232 -1.4411  1.9771
  937MOL0     H26459  -1.491   9.681   2.502 -0.9310 -3.2440  3.1577
  937MOL0     H26460  -1.681   9.845   2.462  0.0004 -0.4434  2.7060
  937MOL0     H26461  -2.015   9.768   2.494 -1.8911  0.7350  0.0556
  937MOL0     H26462  -2.028   9.918   2.422  0.3105 -1.4373  3.3119
  937MOL0     H26463  -2.087   9.813   2.195 -0.3645  0.9264  0.2428
  937MOL0     H26464  -2.105   9.655   2.271 -2.0508 -1.9730  1.1864
  937MOL0     H26465  -2.254   9.892   2.386 -0.0911 -1.1096  0.3999
  937MOL0     H26466  -2.297   9.719   2.391  1.3347  0.2874  1.1072
  937MOL0     H26467  -2.318   9.915   2.159 -1.1678  0.2080  1.3433
  937MOL0     H26468  -2.316   9.739   2.131  2.3878 -0.0991 -0.5694
  937MOL0     H26469  -2.519   9.899   2.308 -0.7139 -1.1808  0.6948
  937MOL0     H26470  -2.518   9.729   2.300 -1.0727 -0.6200 -1.8942
  937MOL0     H26471  -2.522   9.898   2.054  1.8802  1.0116  2.3200
  937MOL0     H26472  -2.582   9.726   2.080 -0.9313 -1.1203  2.7133
  937MOL0     H26473  -2.779   9.858   2.050  0.3166 -3.0467  0.3817
  937MOL0     H26474  -2.720   9.984   2.176 -1.8645  1.5854 -3.5763
  937MOL0     H26475  -2.742   9.837   2.347  3.5900 -0.4819 -0.4756
  937MOL0     H26476  -2.762   9.696   2.261  1.7211  0.5051  0.3126
  937MOL0     H26477  -1.911   9.538   2.280  1.1493 -0.3988 -3.4513
  937MOL0     H26478  -1.742   9.374   2.328 -0.6679  0.7679 -2.0350
  937MOL0     H26479  -1.245   9.407   2.501  4.4230 -0.4353 -0.4328
  937MOL0     H26480  -1.036   9.286   2.552  0.1630  0.6970  1.4978
  937MOL0     H26481   0.675   8.278   1.903  0.4064  0.0864 -0.3879
  937MOL0     H26482   0.893   8.181   1.900 -0.6265  0.1333 -2.5047
  937MOL0     H26483   1.213   7.869   2.269 -2.3873  0.4511 -1.4758
  937MOL0     H26484   1.458   7.763   2.230  1.6607  2.3271 -0.0554
  937MOL0     H26485   1.642   7.527   1.940 -4.9564 -0.1998  3.6858
  937MOL0     H26486   1.528   7.609   1.829  1.0997 -1.5639 -0.8958
  937MOL0     H26487   1.684   7.796   1.802 -0.0608  0.5888  2.5841
  937MOL0     H26488   1.734   7.638   1.733 -2.3857 -2.7905  1.2173
  937MOL0     H26489   1.935   7.749   1.829 -0.5048  2.4154  1.8292
  937MOL0     H26490   1.892   7.600   1.923 -2.3346 -0.4957  1.7521
  937MOL0     H26491   1.794   7.742   2.093 -0.1655  0.2932 -1.2542
  937MOL0     H26492   1.825   7.897   1.996  1.4562  1.4141  1.0060
  937MOL0     H26493   2.200   7.829   2.159 -0.1592 -2.1628  2.0840
  937MOL0     H26494   1.402   7.802   1.811 -2.3853  1.5335  0.2597
  937MOL0     H26495   1.169   7.868   1.842 -1.3748  1.8772  1.1042
  938MOL0     O26496   0.579   3.190   1.743  0.0427  0.1185 -0.2960
  938MOL0     C26497   0.608   3.308   1.740 -1.1468 -0.5597 -0.1948
  938MOL0     O26498   0.526   3.418   1.749  0.2286 -0.7808  0.6874
  938MOL0     C26499   0.392   3.413   1.767  0.0312 -0.9723 -0.0150
  938MOL0     C26500   0.320   3.315   1.838 -1.3211  0.2713  0.1934
  938MOL0     C26501   0.183   3.318   1.853 -0.1649  0.1566  0.4340
  938MOL0     C26502   0.113   3.430   1.801  0.1228 -1.0404  0.1194
  938MOL0     O26503  -0.011   3.444   1.802  0.4277 -0.0508 -0.0247
  938MOL0     C26504  -0.090   3.349   1.871  0.0631  0.6966  0.0930
  938MOL0     C26505  -0.249   3.343   1.863  0.2393  0.6547  0.0621
  938MOL0     C26506  -0.288   3.314   1.718 -0.2781  0.4544  0.6407
  938MOL0     C26507  -0.440   3.313   1.703 -0.2255  1.3116 -0.7711
  938MOL0     C26508  -0.477   3.228   1.580  0.8047  0.3122 -0.1234
  938MOL0     C26509  -0.463   3.072   1.609  0.2061 -0.4994 -0.4037
  938MOL0     C26510  -0.549   2.986   1.514  0.0203 -0.2835 -0.5432
  938MOL0     C26511  -0.701   3.013   1.526 -0.9392 -0.6550 -0.1982
  938MOL0     N26512  -0.789   2.911   1.482  0.0303 -0.0754 -0.0331
  938MOL0     C26513  -0.800   2.785   1.535 -0.0255  1.1471  0.2821
  938MOL0     C26514  -0.889   2.724   1.447  0.5630 -0.0719  0.0789
  938MOL0     C26515  -0.949   2.586   1.458 -0.0688 -0.0597 -0.3150
  938MOL0     C26516  -0.884   2.512   1.575 -0.5944  0.3075  0.2809
  938MOL0     C26517  -0.970   2.395   1.597  0.3109 -0.2246 -0.5535
  938MOL0     C26518  -0.909   2.303   1.702  0.8156  0.2331 -0.0965
  938MOL0     O26519  -0.890   2.376   1.825 -0.1258 -0.6433 -0.6611
  938MOL0     C26520  -0.817   2.307   1.924 -0.6059 -0.1674 -0.2376
  938MOL0     C26521  -0.788   2.382   2.038  0.2985  0.0520  0.2289
  938MOL0     C26522  -0.714   2.321   2.146  0.1590 -0.9994 -0.7743
  938MOL0     C26523  -0.690   2.405   2.272 -0.4097 -0.5820 -0.5743
  938MOL0     C26524  -0.663   2.188   2.132  0.0836 -0.6548  0.0365
  938MOL0     C26525  -0.565   2.123   2.229  0.1233 -0.3609  0.3078
  938MOL0     O26526  -0.537   1.988   2.217 -0.1656 -0.3411  0.0318
  938MOL0     C26527  -0.441   1.936   2.306 -0.6294 -0.3601  0.0106
  938MOL0     C26528  -0.317   1.889   2.249  0.1628  0.1361 -1.3842
  938MOL0     C26529  -0.208   1.850   2.333  0.5501  0.5857 -0.8411
  938MOL0     C26530  -0.230   1.830   2.474  0.2894 -0.6689  0.9211
  938MOL0     O26531  -0.136   1.801   2.565 -0.2836 -0.1723 -1.2143
  938MOL0     C26532  -0.034   1.721   2.510 -0.4289  0.0632 -0.4162
  938MOL0     C26533   0.045   1.653   2.620  0.2356 -0.5758 -0.3561
  938MOL0     C26534   0.093   1.731   2.748  0.9047  0.4633  0.4986
  938MOL0     C26535   0.171   1.636   2.845 -0.0418  0.0510 -0.0143
  938MOL0     C26536   0.200   1.718   2.968 -0.1733  0.7715 -0.1973
  938MOL0     C26537   0.311   1.647   3.049 -0.4270  0.7448  0.8302
  938MOL0     C26538   0.355   1.739   3.164  0.4278  0.2984  0.5306
  938MOL0     C26539   0.343   1.674   3.299 -0.1787 -0.4265 -0.4327
  938MOL0    Cl26540   0.429   1.515   3.294  0.0188  0.1521 -0.6753
  938MOL0     C26541  -0.359   1.863   2.524 -0.9662 -1.0248  0.7832
  938MOL0     C26542  -0.458   1.923   2.438 -0.2784  0.2157 -0.0263
  938MOL0     O26543  -0.500   2.204   2.293 -0.2416 -0.5198  0.0871
  938MOL0     C26544  -0.704   2.115   2.020 -0.8849 -0.9852 -0.2217
  938MOL0     C26545  -0.783   2.176   1.921 -0.0187 -0.4340  0.7342
  938MOL0     N26546  -0.921   2.808   1.347 -0.7105 -0.0953  0.1703
  938MOL0     N26547  -0.861   2.923   1.369  1.0681  0.2771  0.2471
  938MOL0     C26548   0.185   3.541   1.741  0.0083  0.7348  0.8766
  938MOL0     C26549   0.321   3.527   1.728  0.7228  0.3260 -0.2394
  938MOL0     C26550   0.751   3.348   1.727  0.3306  0.4446  0.2840
  938MOL0     C26551   0.789   3.480   1.761 -0.4079 -0.1591 -0.4010
  938MOL0     C26552   0.924   3.517   1.736 -0.9307 -0.2976 -0.8987
  938MOL0     C26553   1.026   3.424   1.700 -0.2771 -1.4589  0.1801
  938MOL0     O26554   1.151   3.479   1.675  0.5509  0.7447 -0.5874
  938MOL0     C26555   1.265   3.393   1.658  0.0191  0.5768 -0.0892
  938MOL0     C26556   1.326   3.357   1.793  0.8968 -0.6223 -0.6786
  938MOL0     C26557   1.356   3.212   1.801 -0.7025 -0.2798  0.4004
  938MOL0     C26558   1.473   3.173   1.705  0.6404 -0.4529 -0.4081
  938MOL0     C26559   1.540   3.046   1.725 -0.1223 -0.2730  0.1915
  938MOL0     C26560   1.594   2.934   1.742 -0.7421 -0.7189  0.2063
  938MOL0     C26561   0.985   3.295   1.683 -0.1369 -0.3977 -0.0406
  938MOL0     C26562   0.852   3.249   1.696  0.2767 -0.7191 -0.5245
  938MOL0     H26563   0.365   3.229   1.886 -0.3350  2.2194  3.0079
  938MOL0     H26564   0.137   3.224   1.878 -0.3168 -0.2206 -1.1357
  938MOL0     H26565  -0.062   3.245   1.852 -1.6168  0.1933  0.2404
  938MOL0     H26566  -0.077   3.364   1.979  0.8248  1.9167 -0.1516
  938MOL0     H26567  -0.288   3.259   1.921  2.6413 -0.5634  0.0139
  938MOL0     H26568  -0.291   3.436   1.903 -1.1876 -0.4548  1.2599
  938MOL0     H26569  -0.244   3.386   1.649 -0.3388  0.4478  0.5947
  938MOL0     H26570  -0.246   3.220   1.682  1.0099  1.6972 -1.3040
  938MOL0     H26571  -0.485   3.280   1.797  1.9771  1.7780  0.5173
  938MOL0     H26572  -0.467   3.419   1.695 -1.1171  1.1471 -0.1464
  938MOL0     H26573  -0.585   3.243   1.572  0.9726  0.2516 -4.1826
  938MOL0     H26574  -0.427   3.261   1.488  0.4656  1.2821  0.0244
  938MOL0     H26575  -0.357   3.044   1.605  0.4770  0.5129 -0.5059
  938MOL0     H26576  -0.497   3.054   1.711  3.5289  0.7050  1.0493
  938MOL0     H26577  -0.517   3.003   1.411  3.4443 -0.4264  0.3601
  938MOL0     H26578  -0.518   2.883   1.534  0.3321  0.0321  0.6616
  938MOL0     H26579  -0.712   3.112   1.480 -0.4854 -0.2553  0.5276
  938MOL0     H26580  -0.723   3.013   1.634 -2.5881 -1.6412 -0.5063
  938MOL0     H26581  -0.752   2.748   1.624 -2.1474 -0.0929  0.9843
  938MOL0     H26582  -1.054   2.602   1.485  0.5342 -0.4809  2.6397
  938MOL0     H26583  -0.942   2.531   1.364 -1.5292  0.9010 -1.0392
  938MOL0     H26584  -0.873   2.577   1.662 -1.3049  2.5868 -1.2526
  938MOL0     H26585  -0.781   2.489   1.545 -1.2059  0.5759 -2.2591
  938MOL0     H26586  -0.985   2.331   1.509  0.3042  0.5496 -1.1211
  938MOL0     H26587  -1.066   2.427   1.638 -0.1782 -1.1415 -0.9405
  938MOL0     H26588  -0.814   2.272   1.658  0.0213  1.0248 -2.5112
  938MOL0     H26589  -0.970   2.215   1.726  0.1344  0.9723  0.9685
  938MOL0     H26590  -0.836   2.480   2.043  0.0994 -0.0663  0.8136
  938MOL0     H26591  -0.720   2.347   2.360  0.1363  2.1173  1.5401
  938MOL0     H26592  -0.589   2.446   2.276 -1.5177  2.4851 -1.5384
  938MOL0     H26593  -0.744   2.499   2.284  2.7875  1.0404  3.6259
  938MOL0     H26594  -0.296   1.902   2.143  0.1830 -1.5398 -1.6055
  938MOL0     H26595  -0.115   1.816   2.290 -0.0823 -0.2622 -1.5887
  938MOL0     H26596  -0.072   1.639   2.448  1.9775 -1.5052  0.0486
  938MOL0     H26597   0.029   1.782   2.444  1.3752  0.0615  1.2011
  938MOL0     H26598  -0.022   1.575   2.658 -1.1377  1.2881  1.2947
  938MOL0     H26599   0.132   1.612   2.568  1.2659  0.8304  0.1976
  938MOL0     H26600   0.012   1.791   2.790 -1.3058 -1.6896 -0.4025
  938MOL0     H26601   0.169   1.797   2.706 -0.2508 -0.3513 -3.2662
  938MOL0     H26602   0.108   1.549   2.866  0.8522 -1.2449 -2.3091
  938MOL0     H26603   0.262   1.602   2.794 -0.8625  0.9449 -2.2266
  938MOL0     H26604   0.114   1.733   3.033 -0.5801  1.3616 -0.8550
  938MOL0     H26605   0.232   1.815   2.928 -4.6427  1.4990 -2.6557
  938MOL0     H26606   0.277   1.551   3.088 -1.2776 -0.0671 -1.7236
  938MOL0     H26607   0.400   1.627   2.988 -0.8510  1.3789 -0.0023
  938MOL0     H26608   0.288   1.825   3.170 -0.6865 -0.6127  1.8360
  938MOL0     H26609   0.457   1.774   3.147  0.7789 -1.4286 -1.3711
  938MOL0     H26610   0.242   1.653   3.336  0.1907 -0.0932  0.8339
  938MOL0     H26611   0.387   1.741   3.374  0.1738 -0.1141 -0.9095
  938MOL0     H26612  -0.386   1.848   2.628  1.3352 -1.3696  1.3702
  938MOL0     H26613  -0.555   1.945   2.482 -1.1756  0.2073 -1.9166
  938MOL0     H26614  -0.668   2.014   1.999  1.2556  0.0890 -2.1341
  938MOL0     H26615  -0.812   2.117   1.834  4.6762 -0.2579 -1.2402
  938MOL0     H26616   0.133   3.619   1.686 -0.6808 -1.3165 -1.6081
  938MOL0     H26617   0.365   3.611   1.674  2.6850 -0.2381  0.3950
  938MOL0     H26618   0.729   3.558   1.807  2.0545  1.3607  0.4523
  938MOL0     H26619   0.960   3.619   1.743  0.3556 -0.7752 -0.3274
  938MOL0     H26620   1.246   3.306   1.594  3.2586 -1.1355  1.0250
  938MOL0     H26621   1.340   3.450   1.603 -1.1596  0.6467 -1.6572
  938MOL0     H26622   1.252   3.386   1.868  0.3267  1.7179 -2.0302
  938MOL0     H26623   1.409   3.429   1.801  0.3417 -0.0532  0.1705
  938MOL0     H26624   1.269   3.153   1.771 -0.7179  0.6755 -1.5793
  938MOL0     H26625   1.398   3.186   1.899  2.9192  0.3425 -0.8660
  938MOL0     H26626   1.550   3.249   1.713 -0.4296  0.6831 -0.6206
  938MOL0     H26627   1.425   3.178   1.607 -0.1827  0.6185  0.0336
  938MOL0     H26628   1.642   2.838   1.751  0.0110 -0.2510  1.4480
  938MOL0     H26629   1.064   3.228   1.650  0.1449 -0.3397  0.4989
  938MOL0     H26630   0.824   3.146   1.677  0.9185 -0.6060 -2.2033
  939MOL0     O26631   9.819   3.001   8.756  0.2679  0.4765 -0.0799
  939MOL0     C26632   9.863   2.884   8.754  0.5780 -0.0760  0.7008
  939MOL0     O26633   9.802   2.771   8.808 -0.1795 -0.1281 -0.4621
  939MOL0     C26634   9.685   2.809   8.877  0.2651 -0.2309  0.4637
  939MOL0     C26635   9.701   2.880   8.994 -0.6311 -0.7090  0.4954
  939MOL0     C26636   9.590   2.937   9.060 -0.4650 -0.5696  0.4803
  939MOL0     C26637   9.458   2.904   9.023 -0.2186  0.4840  0.5043
  939MOL0     O26638   9.357   2.951   9.094 -0.2450 -0.8307 -0.0940
  939MOL0     C26639   9.225   2.952   9.038 -0.1693 -0.6923  0.4614
  939MOL0     C26640   9.145   3.033   9.137 -0.6484  0.6737 -0.5209
  939MOL0     C26641   9.007   3.085   9.089  0.3735 -0.2577  0.0563
  939MOL0     C26642   8.898   2.974   9.097  0.1614  0.8595  0.4022
  939MOL0     C26643   8.746   3.031   9.116 -0.5376 -0.0679 -0.4702
  939MOL0     C26644   8.649   2.921   9.151  0.3181  0.3842 -0.4874
  939MOL0     C26645   8.511   2.971   9.154 -0.0478 -0.5414  0.3060
  939MOL0     C26646   8.420   2.856   9.208  0.3147 -0.6558  0.6031
  939MOL0     N26647   8.282   2.894   9.195  0.0765  0.8032 -0.5372
  939MOL0     C26648   8.210   2.996   9.254  0.0232  0.1601 -0.0188
  939MOL0     C26649   8.078   2.979   9.212  0.1577 -0.1381  0.4437
  939MOL0     C26650   7.959   3.066   9.241  0.7325  0.9349  0.2287
  939MOL0     C26651   7.884   3.003   9.366 -0.6728 -0.5863  0.1266
  939MOL0     C26652   7.860   2.852   9.360 -0.6473 -1.1354 -0.0625
  939MOL0     C26653   7.769   2.795   9.469 -0.4894  0.0727 -0.2359
  939MOL0     O26654   7.699   2.680   9.413  0.3094  0.4931 -0.0516
  939MOL0     C26655   7.643   2.588   9.498  0.5126  0.1526  0.3357
  939MOL0     C26656   7.543   2.628   9.590  0.9859 -0.0085 -0.4623
  939MOL0     C26657   7.479   2.520   9.665 -0.5961  0.2273 -0.1640
  939MOL0     C26658   7.367   2.553   9.766  1.1734 -0.1142  0.3808
  939MOL0     C26659   7.528   2.389   9.652  1.0095 -0.6731  0.4550
  939MOL0     C26660   7.485   2.274   9.725  1.0709  0.2683  0.5438
  939MOL0     O26661   7.496   2.151   9.674 -0.0370 -0.2800  0.5953
  939MOL0     C26662   7.441   2.051   9.751  0.3388 -0.0098 -0.1086
  939MOL0     C26663   7.512   1.939   9.801 -0.3641 -0.5634  0.1874
  939MOL0     C26664   7.451   1.829   9.859 -0.0572 -0.0259 -0.3414
  939MOL0     C26665   7.308   1.826   9.873 -0.6795 -0.3435  0.4968
  939MOL0     O26666   7.246   1.729   9.947  0.5198  0.0913 -0.9946
  939MOL0     C26667   7.328   1.616  10.005  0.3576  0.2075  0.4383
  939MOL0     C26668   7.243   1.526  10.107  0.4405 -1.0114  0.0916
  939MOL0     C26669   7.321   1.413  10.167 -0.2665  0.7421  0.3212
  939MOL0     C26670   7.253   1.354  10.295  0.2718 -0.6850  0.2380
  939MOL0     C26671   7.343   1.243  10.364  0.0057  0.4349  0.0326
  939MOL0     C26672   7.276   1.179  10.484 -0.2020 -0.5210 -0.2102
  939MOL0     C26673   7.257   1.294  10.596 -0.9735 -0.2775 -0.2724
  939MOL0     C26674   7.202   1.235  10.722 -0.0532  0.1858  0.5489
  939MOL0    Cl26675   7.322   1.137  10.818  0.1906  0.2501  0.2155
  939MOL0     C26676   7.236   1.928   9.813  0.1811 -0.3374  0.0720
  939MOL0     C26677   7.303   2.039   9.763  0.2366  0.3784  0.4829
  939MOL0     O26678   7.435   2.296   9.835 -0.8024 -0.0736 -1.0885
  939MOL0     C26679   7.625   2.359   9.557 -0.6905  0.4293 -0.3298
  939MOL0     C26680   7.681   2.457   9.479  0.2303  0.2373  0.1176
  939MOL0     N26681   8.079   2.865   9.131 -0.6240 -0.0679 -0.1837
  939MOL0     N26682   8.200   2.822   9.124 -0.0893  0.2424 -0.3972
  939MOL0     C26683   9.444   2.844   8.895  0.0941  0.3095 -0.0271
  939MOL0     C26684   9.557   2.799   8.821  0.2228 -0.8768 -0.6789
  939MOL0     C26685   9.996   2.865   8.705  0.7801  0.9724  0.3115
  939MOL0     C26686  10.063   2.740   8.693 -0.1419  0.3130 -0.2582
  939MOL0     C26687  10.196   2.719   8.653  0.4144 -0.8736  0.0718
  939MOL0     C26688  10.267   2.834   8.615  0.1780  0.0106 -0.0555
  939MOL0     O26689  10.398   2.834   8.580 -0.2431 -0.5196 -0.2641
  939MOL0     C26690  10.435   2.894   8.456  1.3038  0.0381 -0.3472
  939MOL0     C26691  10.539   2.814   8.379 -0.4362  0.1495  0.3948
  939MOL0     C26692  10.479   2.681   8.337 -0.2115 -0.2825  0.1576
  939MOL0     C26693  10.584   2.584   8.293 -0.1242  0.9305 -0.3076
  939MOL0     C26694  10.686   2.626   8.204 -0.5896 -0.9984  0.2947
  939MOL0     C26695  10.768   2.670   8.127 -0.0033  0.1151  0.6204
  939MOL0     C26696  10.193   2.957   8.619  0.5106 -0.2819 -0.2882
  939MOL0     C26697  10.062   2.971   8.654  0.5282  0.3272 -0.6948
  939MOL0     H26698   9.802   2.896   9.029 -0.6487 -2.0029  1.1876
  939MOL0     H26699   9.615   2.977   9.158 -2.3822 -1.6054  1.4447
  939MOL0     H26700   9.225   3.007   8.943  4.0657  0.8833  1.1443
  939MOL0     H26701   9.184   2.851   9.037  1.1245 -1.3231  3.1019
  939MOL0     H26702   9.134   2.986   9.235  0.0062  1.3886 -0.0890
  939MOL0     H26703   9.208   3.122   9.144 -1.0987  0.9173  0.7945
  939MOL0     H26704   8.984   3.173   9.149  2.4624 -0.8540  1.8909
  939MOL0     H26705   9.013   3.114   8.984  3.1406  2.9950  0.9532
  939MOL0     H26706   8.901   2.911   9.008  0.3757  2.7627 -0.9823
  939MOL0     H26707   8.923   2.901   9.174  5.5683 -0.8606 -2.4739
  939MOL0     H26708   8.737   3.107   9.193 -3.1141 -2.1706  1.5087
  939MOL0     H26709   8.727   3.072   9.016  1.5957 -0.6260 -1.1584
  939MOL0     H26710   8.668   2.834   9.089  3.5131 -1.4557  2.6877
  939MOL0     H26711   8.668   2.878   9.250 -2.1887  2.3660  0.9957
  939MOL0     H26712   8.499   3.066   9.208  0.2642  1.0338 -2.2106
  939MOL0     H26713   8.488   2.991   9.049  4.4626 -2.3283 -1.2690
  939MOL0     H26714   8.442   2.832   9.312  1.3636 -3.4144 -0.1725
  939MOL0     H26715   8.436   2.768   9.145  1.6400  0.8554 -1.3224
  939MOL0     H26716   8.240   3.091   9.299 -0.1605  0.1521  0.1209
  939MOL0     H26717   7.977   3.172   9.259  0.4006  1.3104 -1.4644
  939MOL0     H26718   7.887   3.069   9.159  1.0511  1.0334 -0.0498
  939MOL0     H26719   7.791   3.060   9.356 -0.5372  0.5478  3.8950
  939MOL0     H26720   7.937   3.030   9.458  2.2204 -3.4116 -0.5130
  939MOL0     H26721   7.957   2.803   9.371  0.1161  0.7916  2.8018
  939MOL0     H26722   7.808   2.837   9.264 -0.1733  1.9015 -0.9023
  939MOL0     H26723   7.691   2.862   9.505 -3.7806 -2.7628 -1.6183
  939MOL0     H26724   7.837   2.777   9.553  0.4243 -1.8027 -1.3011
  939MOL0     H26725   7.519   2.733   9.606 -0.3203 -0.4063  0.3597
  939MOL0     H26726   7.282   2.483   9.758 -0.6713  1.7435  2.3558
  939MOL0     H26727   7.403   2.569   9.868  1.8547  4.7130 -0.3798
  939MOL0     H26728   7.326   2.651   9.740  1.2863  0.3419  1.8643
  939MOL0     H26729   7.619   1.931   9.780 -0.7418  1.6810 -3.5592
  939MOL0     H26730   7.519   1.746   9.876  0.1770  0.9049  4.6348
  939MOL0     H26731   7.365   1.554   9.923  0.3010  1.6079 -0.6969
  939MOL0     H26732   7.416   1.662  10.050  0.2833  2.4278 -1.4911
  939MOL0     H26733   7.195   1.590  10.182 -2.7003 -2.8874 -0.1213
  939MOL0     H26734   7.153   1.479  10.065 -2.7103  3.0617  1.5534
  939MOL0     H26735   7.423   1.447  10.185  0.4905 -0.1677 -1.8620
  939MOL0     H26736   7.322   1.331  10.095 -1.0770  0.4952  0.5802
  939MOL0     H26737   7.249   1.434  10.370  1.1696  0.4120 -0.8448
  939MOL0     H26738   7.153   1.317  10.272 -0.2319  1.5549 -1.5229
  939MOL0     H26739   7.443   1.282  10.385  1.3719 -2.4741 -0.5998
  939MOL0     H26740   7.359   1.163  10.291  1.3049 -0.0924  0.8492
  939MOL0     H26741   7.178   1.148  10.444 -1.2056  1.8783  0.2548
  939MOL0     H26742   7.326   1.093  10.529  1.7166  1.2156  1.1095
  939MOL0     H26743   7.193   1.377  10.565 -0.8532  0.8019  2.1233
  939MOL0     H26744   7.353   1.343  10.615 -2.2189  2.6816 -0.9739
  939MOL0     H26745   7.123   1.166  10.689  1.1614 -1.5244  1.0866
  939MOL0     H26746   7.146   1.305  10.784 -1.4412 -2.2160  2.1645
  939MOL0     H26747   7.128   1.925   9.812  0.1789 -3.5034  1.1707
  939MOL0     H26748   7.241   2.117   9.721  0.9288  0.4280 -0.4836
  939MOL0     H26749   7.657   2.255   9.546  2.7192  1.3182 -0.1283
  939MOL0     H26750   7.757   2.430   9.406  0.6111 -1.1635  1.0049
  939MOL0     H26751   9.345   2.834   8.849  0.5215  5.4280 -2.8249
  939MOL0     H26752   9.550   2.766   8.718  0.6982  1.0764 -1.3852
  939MOL0     H26753  10.010   2.645   8.698 -0.5252  0.1464 -4.3338
  939MOL0     H26754  10.249   2.624   8.638 -0.8079 -1.8163  1.5110
  939MOL0     H26755  10.345   2.911   8.397 -0.7417  0.1964  2.6184
  939MOL0     H26756  10.487   2.987   8.484  0.2752  0.0560  1.6852
  939MOL0     H26757  10.625   2.813   8.446 -1.2729  2.4706  1.6275
  939MOL0     H26758  10.567   2.858   8.282  0.0470 -0.4869  0.2436
  939MOL0     H26759  10.412   2.709   8.254  0.4693 -0.3502 -0.4206
  939MOL0     H26760  10.424   2.630   8.416  3.3189  0.3204  3.2638
  939MOL0     H26761  10.539   2.497   8.244  0.0633  1.1443 -0.8679
  939MOL0     H26762  10.628   2.545   8.385 -2.8307  2.7041  1.9238
  939MOL0     H26763  10.837   2.717   8.060  0.2018  2.1948  2.2037
  939MOL0     H26764  10.244   3.044   8.579 -0.5342  1.4409  1.8649
  939MOL0     H26765  10.024   3.072   8.640  0.3825  0.7698  2.2333
  940MOL0     O26766   1.545   2.537   9.900  0.2511  0.3846 -0.0910
  940MOL0     C26767   1.568   2.477  10.002  0.1909  0.2229 -0.0595
  940MOL0     O26768   1.470   2.429  10.087 -0.0523 -0.6953  0.1572
  940MOL0     C26769   1.337   2.449  10.052  0.0119 -0.7419  0.1814
  940MOL0     C26770   1.267   2.539  10.127  0.5182 -0.9802  0.4288
  940MOL0     C26771   1.138   2.575  10.078 -0.2558  0.3568  0.0406
  940MOL0     C26772   1.076   2.520   9.966 -0.0816 -0.2654 -0.1806
  940MOL0     O26773   0.947   2.564   9.929 -0.1048  0.1472 -0.3211
  940MOL0     C26774   0.869   2.490   9.835  0.0369  0.4306  0.5520
  940MOL0     C26775   0.833   2.349   9.875  0.7771  0.1033 -0.7625
  940MOL0     C26776   0.801   2.254   9.759 -1.0374  0.1587 -0.1546
  940MOL0     C26777   0.721   2.305   9.628 -0.2091 -1.1842 -0.2780
  940MOL0     C26778   0.696   2.193   9.532 -0.3815  0.2318  0.1989
  940MOL0     C26779   0.611   2.232   9.409  0.5473  0.7066 -0.2990
  940MOL0     C26780   0.574   2.112   9.324  0.3040  0.0326 -0.1617
  940MOL0     C26781   0.429   2.070   9.367 -0.7020  0.0116  0.2447
  940MOL0     N26782   0.315   2.155   9.339  0.4202 -0.1442 -1.2284
  940MOL0     C26783   0.228   2.155   9.227 -0.3984  0.0711 -0.0781
  940MOL0     C26784   0.130   2.247   9.256 -1.1219  0.0259 -0.0254
  940MOL0     C26785   0.024   2.274   9.159  0.3270 -1.0481 -0.0870
  940MOL0     C26786   0.022   2.429   9.112  0.0886  0.6468  0.1776
  940MOL0     C26787  -0.086   2.447   9.014 -0.5533  0.1722 -0.3900
  940MOL0     C26788  -0.226   2.442   9.066 -0.7756 -1.3371  0.2225
  940MOL0     O26789  -0.311   2.434   8.943  0.1069 -0.7132  0.1903
  940MOL0     C26790  -0.440   2.485   8.951 -0.1500 -0.2570  0.2009
  940MOL0     C26791  -0.523   2.454   8.839  0.2800 -0.2388 -0.2410
  940MOL0     C26792  -0.659   2.487   8.833 -0.8446 -0.2543  0.5211
  940MOL0     C26793  -0.741   2.464   8.702 -0.6262  0.4523  0.4046
  940MOL0     C26794  -0.714   2.541   8.953  0.1093 -1.2833  0.3312
  940MOL0     C26795  -0.861   2.568   8.969 -0.4915 -0.8698  0.6091
  940MOL0     O26796  -0.910   2.675   9.034  0.0175 -0.4612 -0.5546
  940MOL0     C26797  -1.035   2.670   9.084  0.5992  0.5280  0.5409
  940MOL0     C26798  -1.077   2.597   9.195 -1.0018  0.8373  0.0570
  940MOL0     C26799  -1.207   2.602   9.234  0.1797  1.0593  1.1019
  940MOL0     C26800  -1.302   2.684   9.165  0.5258  0.3934  0.7441
  940MOL0     O26801  -1.427   2.702   9.211 -0.2820 -0.1492  0.5318
  940MOL0     C26802  -1.468   2.624   9.325 -0.1044  0.6134  0.2176
  940MOL0     C26803  -1.610   2.667   9.351 -0.1596 -0.4568  0.1229
  940MOL0     C26804  -1.645   2.639   9.497  0.4419 -0.1405  0.8033
  940MOL0     C26805  -1.657   2.487   9.511  0.0251  0.3976  0.1895
  940MOL0     C26806  -1.706   2.458   9.655  0.2849  0.2062 -0.0552
  940MOL0     C26807  -1.586   2.441   9.760 -0.1806  0.2013  0.4129
  940MOL0     C26808  -1.638   2.424   9.905 -0.3657 -0.2715  0.8371
  940MOL0     C26809  -1.519   2.426  10.003  0.1244 -0.0360  0.2244
  940MOL0    Cl26810  -1.411   2.287   9.965  0.7903  0.6298 -0.5116
  940MOL0     C26811  -1.253   2.750   9.056  1.0384  0.6011  0.5713
  940MOL0     C26812  -1.125   2.749   9.015  0.0155 -0.2746 -0.5534
  940MOL0     O26813  -0.928   2.480   8.931  0.0365 -0.0364  0.6306
  940MOL0     C26814  -0.636   2.579   9.064 -0.3710 -0.2879  0.6676
  940MOL0     C26815  -0.496   2.544   9.063  0.1908 -0.3033 -0.7871
  940MOL0     N26816   0.159   2.296   9.384  0.2229  0.3686 -0.2084
  940MOL0     N26817   0.269   2.244   9.434  0.2241  0.3105  0.3676
  940MOL0     C26818   1.149   2.423   9.903 -0.3536  0.6723 -0.1798
  940MOL0     C26819   1.273   2.387   9.942 -0.7138  0.5439 -0.7527
  940MOL0     C26820   1.704   2.417  10.029 -0.6228  0.1863 -0.2657
  940MOL0     C26821   1.779   2.366   9.917 -0.4747  0.1121  0.1889
  940MOL0     C26822   1.906   2.316   9.934 -0.9812  0.4088  0.5777
  940MOL0     C26823   1.954   2.306  10.070  0.6964  0.1677 -0.1346
  940MOL0     O26824   2.075   2.252  10.099 -0.4274 -0.4077  0.2039
  940MOL0     C26825   2.127   2.149  10.018  0.2089  0.6716 -0.8521
  940MOL0     C26826   2.265   2.181   9.975  0.4250  0.6451 -0.3905
  940MOL0     C26827   2.360   2.071   9.935  0.5298 -0.0964 -0.6391
  940MOL0     C26828   2.508   2.115   9.912 -0.1431 -0.5304  0.0290
  940MOL0     C26829   2.599   1.995   9.922  0.0397 -0.2996  0.0768
  940MOL0     C26830   2.679   1.906   9.922  0.6642  0.4170  1.1911
  940MOL0     C26831   1.879   2.343  10.180  0.2535 -0.4974 -0.0502
  940MOL0     C26832   1.754   2.401  10.161  0.4280  0.2500 -0.4368
  940MOL0     H26833   1.309   2.585  10.216  2.6023  0.2570 -1.0957
  940MOL0     H26834   1.088   2.651  10.137 -1.5309  3.1647 -4.1927
  940MOL0     H26835   0.775   2.546   9.838 -0.8087 -0.9513  2.7870
  940MOL0     H26836   0.926   2.492   9.742  1.5175  0.6709  1.4349
  940MOL0     H26837   0.899   2.308   9.952  0.6787  4.1841  1.8226
  940MOL0     H26838   0.734   2.344   9.922  1.7577 -2.8032  1.2329
  940MOL0     H26839   0.906   2.225   9.742 -1.5709 -1.7199 -0.5440
  940MOL0     H26840   0.751   2.162   9.793  2.1051 -1.7442 -0.2513
  940MOL0     H26841   0.622   2.328   9.668  0.4346  0.3911  0.4925
  940MOL0     H26842   0.762   2.400   9.592 -1.1917 -0.8832 -0.6433
  940MOL0     H26843   0.794   2.163   9.491 -0.9638 -1.1585 -0.2596
  940MOL0     H26844   0.648   2.106   9.578  1.1292 -1.7365 -1.6793
  940MOL0     H26845   0.526   2.290   9.446  0.9139  2.8330 -2.4862
  940MOL0     H26846   0.664   2.308   9.350  1.0704  1.4684  1.1152
  940MOL0     H26847   0.559   2.144   9.220 -3.3941  0.5565  0.3836
  940MOL0     H26848   0.646   2.030   9.323 -0.2585 -0.4893 -2.0450
  940MOL0     H26849   0.451   2.052   9.472  1.6173 -1.7321 -0.4458
  940MOL0     H26850   0.414   1.979   9.308  0.5342  0.8308 -1.4539
  940MOL0     H26851   0.221   2.100   9.133  2.2924 -0.1052 -0.2545
  940MOL0     H26852   0.047   2.203   9.079 -2.1797 -4.5460  2.0398
  940MOL0     H26853  -0.071   2.250   9.208  0.1534  1.1076  0.7507
  940MOL0     H26854   0.118   2.448   9.063 -0.5929 -0.5866 -1.7321
  940MOL0     H26855   0.009   2.490   9.202  2.0728 -0.2607  1.1552
  940MOL0     H26856  -0.075   2.373   8.935 -2.3530 -0.5481 -0.0013
  940MOL0     H26857  -0.071   2.543   8.963 -0.1576 -0.2246 -1.0340
  940MOL0     H26858  -0.247   2.538   9.115 -3.0561 -1.8733  0.3931
  940MOL0     H26859  -0.250   2.374   9.149  0.1781  0.7995  2.3643
  940MOL0     H26860  -0.482   2.402   8.753 -2.0639 -0.0237 -1.5727
  940MOL0     H26861  -0.810   2.548   8.686 -1.4507 -0.2097  0.4166
  940MOL0     H26862  -0.667   2.453   8.622 -0.8240  0.2147  0.2532
  940MOL0     H26863  -0.798   2.371   8.707 -0.0196  0.1208  1.2676
  940MOL0     H26864  -0.999   2.544   9.249  3.1207  1.2746 -4.6910
  940MOL0     H26865  -1.234   2.558   9.329  1.5157 -0.5113  0.8147
  940MOL0     H26866  -1.474   2.519   9.294  2.0441  0.2556  0.8776
  940MOL0     H26867  -1.398   2.635   9.407 -1.2537  0.1831  1.2972
  940MOL0     H26868  -1.613   2.775   9.336  0.4934 -0.0560  2.4661
  940MOL0     H26869  -1.690   2.641   9.282 -0.3835  2.6428 -0.9169
  940MOL0     H26870  -1.739   2.693   9.511  0.5478 -0.1918  1.7848
  940MOL0     H26871  -1.569   2.679   9.565 -0.2879 -0.9718  2.1448
  940MOL0     H26872  -1.731   2.452   9.439 -0.9955 -0.5978  1.6673
  940MOL0     H26873  -1.564   2.431   9.502 -0.3846 -0.4878  1.2355
  940MOL0     H26874  -1.770   2.370   9.660  0.3398  0.0863 -1.1644
  940MOL0     H26875  -1.763   2.545   9.688 -1.5413 -1.1782  0.5446
  940MOL0     H26876  -1.523   2.359   9.725  4.4175  3.0343  1.1554
  940MOL0     H26877  -1.521   2.529   9.762 -1.3337  1.0582  1.7091
  940MOL0     H26878  -1.689   2.327   9.908  1.0310 -1.0942 -0.5245
  940MOL0     H26879  -1.711   2.499   9.938 -0.1029 -0.6976  2.5016
  940MOL0     H26880  -1.562   2.422  10.103 -0.2415 -0.1198  0.0660
  940MOL0     H26881  -1.466   2.521   9.991 -1.7500  0.7942 -2.4894
  940MOL0     H26882  -1.331   2.801   9.001  0.0739 -0.5219  0.8615
  940MOL0     H26883  -1.083   2.800   8.929  1.2509 -1.2398 -0.5568
  940MOL0     H26884  -0.674   2.621   9.156  2.2125  3.4955  0.2234
  940MOL0     H26885  -0.442   2.580   9.150 -1.5579  1.0921 -0.2021
  940MOL0     H26886   1.119   2.369   9.813 -1.1329 -2.8158  1.9827
  940MOL0     H26887   1.328   2.313   9.885  0.8077  0.4841  0.7312
  940MOL0     H26888   1.737   2.373   9.817 -0.3725  2.3396  0.2415
  940MOL0     H26889   1.954   2.276   9.845  0.2664  2.8809  0.0543
  940MOL0     H26890   2.130   2.058  10.079  2.7615  1.2987  0.0571
  940MOL0     H26891   2.065   2.141   9.928  0.3530  3.1312 -1.2460
  940MOL0     H26892   2.313   2.212  10.069 -2.9634  1.2219  1.3379
  940MOL0     H26893   2.259   2.266   9.907  1.9172 -0.7132 -2.2981
  940MOL0     H26894   2.319   2.022   9.847 -0.9967  1.4559 -0.8404
  940MOL0     H26895   2.364   1.998  10.016 -2.3001  2.7709  2.3875
  940MOL0     H26896   2.545   2.183   9.989  1.3300 -0.7356 -0.4504
  940MOL0     H26897   2.514   2.159   9.812 -1.9398 -2.7690 -1.1652
  940MOL0     H26898   2.740   1.819   9.929 -1.5902 -1.2867  0.9631
  940MOL0     H26899   1.914   2.338  10.282  2.5693 -0.2045 -0.7777
  940MOL0     H26900   1.698   2.442  10.244  0.9933 -0.9459  0.5811
  941MOL0     O26901   1.236   5.005   4.567 -0.1436 -0.2362  0.6337
  941MOL0     C26902   1.247   5.112   4.626  0.5420 -1.1205  0.2917
  941MOL0     O26903   1.151   5.192   4.687 -0.0433 -0.0221  0.4736
  941MOL0     C26904   1.021   5.177   4.653 -0.0249 -0.2028 -0.2860
  941MOL0     C26905   0.936   5.161   4.758  0.0590 -0.0205  0.1501
  941MOL0     C26906   0.796   5.171   4.744  0.3970 -0.0275 -0.6779
  941MOL0     C26907   0.741   5.199   4.619 -0.6218  0.3148  0.2136
  941MOL0     O26908   0.608   5.201   4.620  0.4058  0.2608 -0.3985
  941MOL0     C26909   0.533   5.274   4.524 -0.7023  0.6519  0.6264
  941MOL0     C26910   0.381   5.255   4.541  0.0559 -0.1636  0.2725
  941MOL0     C26911   0.320   5.352   4.647 -0.0836  0.2654 -0.5844
  941MOL0     C26912   0.164   5.341   4.642 -0.5233 -0.1312 -0.3205
  941MOL0     C26913   0.098   5.404   4.767  0.0537 -0.0354 -0.4654
  941MOL0     C26914  -0.062   5.402   4.763 -0.3987  0.1428 -0.2389
  941MOL0     C26915  -0.120   5.477   4.883 -0.7074  0.6936  0.3562
  941MOL0     C26916  -0.055   5.618   4.900 -0.4193 -0.4094 -0.2138
  941MOL0     N26917  -0.130   5.695   4.992  0.0481  0.1101  0.0357
  941MOL0     C26918  -0.255   5.751   4.971 -0.0709  0.6372  0.0775
  941MOL0     C26919  -0.271   5.844   5.070  0.3772 -0.2239  0.0685
  941MOL0     C26920  -0.398   5.927   5.088  0.2234  0.5599 -0.1137
  941MOL0     C26921  -0.438   5.994   4.960  0.5283 -1.1876  0.2776
  941MOL0     C26922  -0.541   6.105   4.977 -0.1653  0.4567  0.3951
  941MOL0     C26923  -0.690   6.046   4.992 -0.8135 -0.8838  0.1241
  941MOL0     O26924  -0.749   6.028   4.859 -0.2701  0.2998 -0.3440
  941MOL0     C26925  -0.889   6.034   4.838  0.1150  0.9478  0.3702
  941MOL0     C26926  -0.980   6.068   4.932 -0.0598 -0.3128 -0.3690
  941MOL0     C26927  -1.121   6.084   4.905 -0.6755  0.2151  0.3269
  941MOL0     C26928  -1.202   6.136   5.022 -0.0838  0.2138 -0.0253
  941MOL0     C26929  -1.165   6.077   4.764 -0.2309 -0.0625 -0.7288
  941MOL0     C26930  -1.297   6.106   4.710  0.3437  0.0604  0.1384
  941MOL0     O26931  -1.326   6.064   4.578 -0.0856 -0.6344 -0.5801
  941MOL0     C26932  -1.444   6.090   4.510 -1.2487  0.0845 -0.3649
  941MOL0     C26933  -1.563   6.032   4.552 -0.0782  0.1320  0.4411
  941MOL0     C26934  -1.679   6.081   4.486 -0.2215 -0.4051 -0.0227
  941MOL0     C26935  -1.671   6.167   4.380 -0.0041 -0.0105 -0.0148
  941MOL0     O26936  -1.785   6.195   4.316  0.4756 -0.0591 -1.1432
  941MOL0     C26937  -1.810   6.105   4.208  0.1112 -0.2044  0.4588
  941MOL0     C26938  -1.953   6.048   4.211  0.0836  0.8193 -0.1464
  941MOL0     C26939  -2.013   6.012   4.069 -0.0589 -0.6411 -0.0687
  941MOL0     C26940  -2.169   5.987   4.062 -0.5562  0.0778 -0.5373
  941MOL0     C26941  -2.232   6.124   4.066 -0.7165 -0.7618 -0.1986
  941MOL0     C26942  -2.385   6.111   4.063  0.1587 -0.6981 -0.7147
  941MOL0     C26943  -2.457   6.248   4.079  0.2060  0.6445  0.5278
  941MOL0     C26944  -2.508   6.295   3.944  0.2980  0.1698  0.1409
  941MOL0    Cl26945  -2.403   6.338   3.813  0.1192 -0.1982  0.0525
  941MOL0     C26946  -1.551   6.215   4.325 -0.6661 -0.3530  0.0905
  941MOL0     C26947  -1.434   6.176   4.399 -0.4937 -0.7259 -0.5184
  941MOL0     O26948  -1.382   6.151   4.779  0.2707  0.3696  0.9169
  941MOL0     C26949  -1.071   6.038   4.670  0.1012 -0.1349  0.7020
  941MOL0     C26950  -0.938   6.016   4.709 -1.3322  0.2758 -0.7970
  941MOL0     N26951  -0.158   5.845   5.148  0.9319  0.2851  0.5176
  941MOL0     N26952  -0.074   5.763   5.102  0.2534  0.1103 -0.2492
  941MOL0     C26953   0.824   5.225   4.513 -0.3715  0.4136 -0.9301
  941MOL0     C26954   0.963   5.211   4.528 -0.5694 -0.2900 -0.4031
  941MOL0     C26955   1.377   5.187   4.627 -0.6373  0.4190  0.5554
  941MOL0     C26956   1.491   5.130   4.560  0.0070  0.7035 -1.0661
  941MOL0     C26957   1.612   5.209   4.544  0.5211 -0.0265  0.3293
  941MOL0     C26958   1.619   5.334   4.612 -0.2225  0.1065  0.0683
  941MOL0     O26959   1.717   5.430   4.615  0.0984 -0.4245 -0.0787
  941MOL0     C26960   1.843   5.389   4.576 -0.9589  0.1317 -0.7131
  941MOL0     C26961   1.938   5.499   4.608  0.4823 -0.6234 -0.3257
  941MOL0     C26962   1.947   5.495   4.765  0.5317  0.8034 -0.5352
  941MOL0     C26963   2.050   5.596   4.815 -0.3334 -0.3445 -0.1703
  941MOL0     C26964   2.080   5.575   4.958 -0.4316 -0.7364 -0.1984
  941MOL0     C26965   2.089   5.558   5.078  0.0457 -0.2616  0.6912
  941MOL0     C26966   1.502   5.387   4.676 -0.3085  0.9934 -0.0367
  941MOL0     C26967   1.385   5.313   4.682 -0.0529 -0.4339 -0.9430
  941MOL0     H26968   0.976   5.140   4.857  1.8633 -0.7091 -0.6887
  941MOL0     H26969   0.720   5.178   4.821  0.2256  0.2645 -0.8720
  941MOL0     H26970   0.561   5.380   4.521 -3.0793  1.3323  0.5457
  941MOL0     H26971   0.551   5.233   4.424 -2.5961  2.8220 -0.6982
  941MOL0     H26972   0.335   5.279   4.445 -0.3356 -1.0974  0.2175
  941MOL0     H26973   0.357   5.153   4.574 -0.2463  0.8892  3.6226
  941MOL0     H26974   0.350   5.332   4.750 -0.5004 -5.0806 -1.2099
  941MOL0     H26975   0.340   5.457   4.625  0.5495 -0.0373 -1.5191
  941MOL0     H26976   0.121   5.401   4.561 -0.7057  0.4573  0.2045
  941MOL0     H26977   0.135   5.236   4.648 -1.6935  0.2312  0.8771
  941MOL0     H26978   0.140   5.342   4.846  0.9800  2.5960  1.2105
  941MOL0     H26979   0.143   5.503   4.776  1.6241 -0.6735 -0.9671
  941MOL0     H26980  -0.099   5.452   4.673  1.1931 -0.3559 -1.2111
  941MOL0     H26981  -0.098   5.299   4.758 -2.6076  0.9175 -1.7702
  941MOL0     H26982  -0.228   5.477   4.871 -0.4792 -0.9326 -2.6089
  941MOL0     H26983  -0.100   5.416   4.972  2.6137  0.4013 -0.4478
  941MOL0     H26984  -0.068   5.657   4.799 -1.9349 -0.8086 -0.1985
  941MOL0     H26985   0.053   5.620   4.920  0.1757  3.3209 -2.8548
  941MOL0     H26986  -0.335   5.738   4.899 -1.6727 -1.2575  2.0621
  941MOL0     H26987  -0.480   5.868   5.131 -0.4992  0.8308 -1.0899
  941MOL0     H26988  -0.369   6.000   5.164  1.2428 -1.7117  1.8252
  941MOL0     H26989  -0.453   5.925   4.877  5.0049 -1.2631 -0.7654
  941MOL0     H26990  -0.355   6.060   4.934 -2.0363  3.1665  2.1738
  941MOL0     H26991  -0.539   6.163   4.884  1.4897  2.6589  1.6815
  941MOL0     H26992  -0.502   6.174   5.053  2.7536  1.4150 -1.7957
  941MOL0     H26993  -0.746   6.121   5.049  2.3785  3.5300 -1.9235
  941MOL0     H26994  -0.670   5.953   5.046  4.4750 -1.5471 -2.3615
  941MOL0     H26995  -0.942   6.069   5.034 -0.0401 -3.7830 -0.2175
  941MOL0     H26996  -1.165   6.108   5.121 -0.2496 -0.6617 -0.2036
  941MOL0     H26997  -1.184   6.243   5.035  4.7318 -0.4041  0.2330
  941MOL0     H26998  -1.307   6.107   5.021  0.3568 -1.8376 -2.8998
  941MOL0     H26999  -1.569   5.954   4.626  1.2291  0.8398  1.3503
  941MOL0     H27000  -1.777   6.051   4.523  0.2942 -1.5837  0.4153
  941MOL0     H27001  -1.803   6.167   4.118  0.2725 -2.2686 -1.0009
  941MOL0     H27002  -1.739   6.024   4.189 -0.4062 -0.1271 -2.1185
  941MOL0     H27003  -1.946   5.966   4.282  0.4934  3.8026  3.6041
  941MOL0     H27004  -2.019   6.124   4.256 -0.2247 -0.0879  0.9772
  941MOL0     H27005  -1.979   5.917   4.026 -1.6843 -0.9789 -0.6719
  941MOL0     H27006  -1.990   6.095   4.002  0.5416 -1.0579 -0.3875
  941MOL0     H27007  -2.192   5.922   3.976  0.6014 -1.8971  0.5688
  941MOL0     H27008  -2.197   5.922   4.145  1.2539 -0.0407  0.0026
  941MOL0     H27009  -2.201   6.183   3.979 -2.9528  1.6561  0.4873
  941MOL0     H27010  -2.198   6.177   4.155  0.3968  2.7600 -2.4866
  941MOL0     H27011  -2.407   6.042   3.981 -0.0342 -0.2812 -1.0189
  941MOL0     H27012  -2.422   6.066   4.155 -0.3524  1.7266  0.3596
  941MOL0     H27013  -2.399   6.329   4.125  1.3435 -0.0904  0.4166
  941MOL0     H27014  -2.542   6.211   4.137 -0.2185 -0.3589 -0.6948
  941MOL0     H27015  -2.559   6.390   3.964  1.2207  0.4805  1.0988
  941MOL0     H27016  -2.579   6.221   3.905  0.8657  0.3287 -1.2557
  941MOL0     H27017  -1.541   6.268   4.231  0.6039  1.5073  1.2149
  941MOL0     H27018  -1.339   6.222   4.373 -0.7979 -0.9711 -2.1437
  941MOL0     H27019  -1.092   6.042   4.563 -2.1756  1.4182  1.1418
  941MOL0     H27020  -0.868   5.990   4.630  1.8370  1.7870  1.3025
  941MOL0     H27021   0.783   5.244   4.414 -1.6925 -2.2116 -0.9898
  941MOL0     H27022   1.024   5.221   4.439  3.5106  0.9889  2.2308
  941MOL0     H27023   1.482   5.035   4.509  2.8855  0.8057 -1.9770
  941MOL0     H27024   1.697   5.170   4.490  0.9475  0.3237  0.7465
  941MOL0     H27025   1.865   5.290   4.618 -1.2416  0.4626  0.2134
  941MOL0     H27026   1.829   5.387   4.467 -2.6139  1.8121 -0.5859
  941MOL0     H27027   1.907   5.598   4.573 -0.6444 -1.0896 -0.6761
  941MOL0     H27028   2.037   5.486   4.561 -0.1250  0.3983 -1.9802
  941MOL0     H27029   1.974   5.392   4.791 -0.8070 -0.7506 -4.4085
  941MOL0     H27030   1.848   5.510   4.809  0.0383 -1.4964 -0.7384
  941MOL0     H27031   2.012   5.698   4.800 -0.5320 -0.2806  0.6905
  941MOL0     H27032   2.139   5.590   4.751 -2.1420  0.8418 -2.9763
  941MOL0     H27033   2.095   5.553   5.185 -2.4011 -3.2051  0.8410
  941MOL0     H27034   1.495   5.487   4.717  3.5871  2.1662 -1.7306
  941MOL0     H27035   1.294   5.348   4.730 -1.2274 -3.3546 -0.8829
  942MOL0     O27036   6.853   7.609   8.497 -0.6205  0.6865  0.2596
  942MOL0     C27037   6.827   7.675   8.595 -0.3539 -0.3404 -0.0630
  942MOL0     O27038   6.708   7.741   8.622 -0.1311  0.1428 -0.7078
  942MOL0     C27039   6.591   7.714   8.549  0.1017 -0.7517  0.1589
  942MOL0     C27040   6.479   7.670   8.622 -0.5626  0.0328 -0.3821
  942MOL0     C27041   6.354   7.676   8.568 -0.1706 -0.5092  1.1573
  942MOL0     C27042   6.336   7.712   8.437  0.8080 -0.1458 -0.0092
  942MOL0     O27043   6.211   7.696   8.370 -0.9356  0.1620  0.1694
  942MOL0     C27044   6.088   7.696   8.438 -0.2982  0.1821 -0.5994
  942MOL0     C27045   5.999   7.789   8.359  0.2804 -0.1075  0.2368
  942MOL0     C27046   5.866   7.790   8.428  0.3282 -0.5137  0.1481
  942MOL0     C27047   5.755   7.855   8.350 -0.3173  0.3393  0.0112
  942MOL0     C27048   5.637   7.895   8.432 -0.1298  0.0255 -0.1153
  942MOL0     C27049   5.528   7.957   8.343 -0.5330  0.2551  0.6715
  942MOL0     C27050   5.409   8.032   8.435 -0.4066 -0.8741  0.0747
  942MOL0     C27051   5.282   8.078   8.359 -0.5520  0.3810  0.4496
  942MOL0     N27052   5.311   8.183   8.255  0.3054 -0.2619 -0.5061
  942MOL0     C27053   5.383   8.172   8.142 -0.6712 -0.1257  0.5128
  942MOL0     C27054   5.361   8.290   8.075 -0.0693  0.5549 -0.2197
  942MOL0     C27055   5.394   8.311   7.933  0.3924  0.2003  0.5232
  942MOL0     C27056   5.271   8.264   7.857 -0.3748  0.2051 -0.3236
  942MOL0     C27057   5.278   8.115   7.835 -0.3058 -0.4469  0.2571
  942MOL0     C27058   5.153   8.062   7.768  0.9060 -0.3090 -1.0228
  942MOL0     O27059   5.038   8.080   7.849  0.1975 -0.1118 -0.2470
  942MOL0     C27060   4.921   8.038   7.792  0.0697  0.1980 -0.2677
  942MOL0     C27061   4.909   7.953   7.681  0.3532 -0.7502  0.3198
  942MOL0     C27062   4.785   7.894   7.645 -0.7163 -0.4013  0.1209
  942MOL0     C27063   4.793   7.791   7.533  0.1881  0.5637 -0.1416
  942MOL0     C27064   4.669   7.925   7.724 -0.1656  0.1651  0.7077
  942MOL0     C27065   4.534   7.869   7.680  1.0504  1.2836  0.0832
  942MOL0     O27066   4.432   7.883   7.782  0.0458  0.3776  0.6542
  942MOL0     C27067   4.320   7.808   7.761  1.0525 -0.3368 -0.1048
  942MOL0     C27068   4.297   7.714   7.858  0.3510  0.5954  0.4850
  942MOL0     C27069   4.181   7.644   7.857 -0.6122  0.3300  0.3567
  942MOL0     C27070   4.093   7.651   7.757 -1.0146 -0.2808  0.9550
  942MOL0     O27071   3.988   7.562   7.755 -0.0770  0.0136 -0.4438
  942MOL0     C27072   3.887   7.587   7.656  0.5303 -0.0155  0.1268
  942MOL0     C27073   3.766   7.507   7.683  1.4155 -0.1474 -0.0718
  942MOL0     C27074   3.650   7.563   7.603  0.7630 -0.3751 -0.4456
  942MOL0     C27075   3.529   7.464   7.642  0.6958 -0.2342 -0.2088
  942MOL0     C27076   3.410   7.537   7.601  0.0901  0.4567  0.6991
  942MOL0     C27077   3.278   7.455   7.606 -0.0752  0.3724 -0.0955
  942MOL0     C27078   3.149   7.530   7.557  0.4364  0.1453 -0.7165
  942MOL0     C27079   3.113   7.658   7.631 -0.6361  0.2630  0.3138
  942MOL0    Cl27080   3.071   7.609   7.809 -0.4460 -0.3007 -0.0214
  942MOL0     C27081   4.124   7.745   7.646  0.4456  0.4454 -0.5833
  942MOL0     C27082   4.236   7.828   7.654  0.2017  0.1658  0.2681
  942MOL0     O27083   4.514   7.816   7.569 -0.6090  0.4839 -0.1129
  942MOL0     C27084   4.684   8.009   7.827  0.7901 -0.9552 -0.2397
  942MOL0     C27085   4.802   8.064   7.859 -0.5297  0.0502  0.1494
  942MOL0     N27086   5.290   8.373   8.151 -0.4772 -0.0305 -0.3357
  942MOL0     N27087   5.268   8.310   8.265  0.4372 -0.2654  0.3554
  942MOL0     C27088   6.444   7.762   8.362  0.5676 -0.2195 -0.7315
  942MOL0     C27089   6.571   7.759   8.417 -0.6146  0.0231  0.5240
  942MOL0     C27090   6.931   7.682   8.696 -0.1438 -0.0950 -0.8556
  942MOL0     C27091   6.898   7.733   8.820  0.5979  0.9482 -0.4834
  942MOL0     C27092   7.000   7.750   8.919  0.5125  0.7150  0.0443
  942MOL0     C27093   7.135   7.709   8.888  0.5581  0.2290 -0.9097
  942MOL0     O27094   7.230   7.721   8.988 -0.3352 -0.7042  0.1671
  942MOL0     C27095   7.204   7.782   9.112  0.8370 -0.2282  0.6781
  942MOL0     C27096   7.309   7.759   9.218 -0.3351 -0.1124  0.2614
  942MOL0     C27097   7.264   7.819   9.360 -0.1769  0.8246  0.1861
  942MOL0     C27098   7.355   7.780   9.468 -0.4954  0.7379 -0.4200
  942MOL0     C27099   7.487   7.834   9.431  0.1649  0.2397 -0.0966
  942MOL0     C27100   7.599   7.862   9.402 -0.9450  0.5074  0.1817
  942MOL0     C27101   7.171   7.649   8.763  0.2653  0.4284 -0.2533
  942MOL0     C27102   7.061   7.637   8.673  1.3999  0.0288 -0.0402
  942MOL0     H27103   6.489   7.620   8.718  0.6113 -1.5289 -1.2525
  942MOL0     H27104   6.269   7.643   8.625 -1.4475 -0.3980 -0.5980
  942MOL0     H27105   6.051   7.593   8.435  0.6917 -0.1769 -0.8119
  942MOL0     H27106   6.088   7.735   8.540  0.2929 -1.7545  0.1760
  942MOL0     H27107   6.038   7.890   8.374 -1.0907  0.6587 -1.0715
  942MOL0     H27108   5.990   7.771   8.252 -1.7389 -1.1726  0.5201
  942MOL0     H27109   5.827   7.693   8.460  1.2058 -0.2076  2.3296
  942MOL0     H27110   5.868   7.852   8.518  0.3597 -1.0278  0.5060
  942MOL0     H27111   5.792   7.939   8.291 -1.6813  1.0257  0.0960
  942MOL0     H27112   5.726   7.784   8.271  0.8226 -0.7084  0.5007
  942MOL0     H27113   5.587   7.819   8.493 -3.6396  1.2857 -1.1847
  942MOL0     H27114   5.675   7.971   8.501  2.7179 -0.8274 -0.6055
  942MOL0     H27115   5.566   8.032   8.273 -1.4835 -0.1272 -0.2789
  942MOL0     H27116   5.498   7.873   8.280  1.9348  2.2837 -3.7165
  942MOL0     H27117   5.376   7.959   8.510  1.7872 -2.8621 -0.7454
  942MOL0     H27118   5.460   8.116   8.483  0.4524 -1.0418 -0.5106
  942MOL0     H27119   5.197   8.107   8.421 -1.7937 -0.3371 -0.8436
  942MOL0     H27120   5.254   7.991   8.299  0.7758  0.0329  0.2946
  942MOL0     H27121   5.452   8.093   8.115  1.4954  1.3705  1.3586
  942MOL0     H27122   5.408   8.418   7.916  3.6189 -0.3959 -1.5277
  942MOL0     H27123   5.487   8.265   7.898 -1.6406 -2.0246 -2.3341
  942MOL0     H27124   5.258   8.302   7.755 -0.0368 -1.0065 -0.8360
  942MOL0     H27125   5.171   8.276   7.901 -1.4341  1.9257 -2.9380
  942MOL0     H27126   5.299   8.055   7.924  3.5429  3.1872  2.1508
  942MOL0     H27127   5.368   8.091   7.777 -0.8452 -0.3431 -0.6327
  942MOL0     H27128   5.172   7.954   7.760 -0.2038 -1.1676  4.3882
  942MOL0     H27129   5.140   8.112   7.671  0.7086 -0.3721 -1.0302
  942MOL0     H27130   4.994   7.915   7.624  0.3411 -1.4149  0.7346
  942MOL0     H27131   4.717   7.801   7.455 -0.3461 -1.4405  0.0552
  942MOL0     H27132   4.883   7.803   7.471 -1.0790 -1.2064 -2.4643
  942MOL0     H27133   4.797   7.689   7.574 -0.9085 -0.7516 -3.0410
  942MOL0     H27134   4.364   7.698   7.942  1.0113  0.3277 -0.0874
  942MOL0     H27135   4.158   7.580   7.942  0.9022  0.4231  0.8727
  942MOL0     H27136   3.860   7.693   7.663 -0.4423 -0.3393  2.1413
  942MOL0     H27137   3.919   7.561   7.555 -0.8263  0.8179 -0.5536
  942MOL0     H27138   3.785   7.399   7.673  1.6931  0.0042 -1.4235
  942MOL0     H27139   3.733   7.531   7.784 -2.0595  1.8319 -1.5062
  942MOL0     H27140   3.663   7.567   7.494 -3.0919  0.0227 -1.0527
  942MOL0     H27141   3.627   7.665   7.633  1.0612  0.1673 -1.9768
  942MOL0     H27142   3.523   7.374   7.581 -4.0829 -0.0155 -0.4741
  942MOL0     H27143   3.524   7.454   7.750 -2.4034  1.6791 -0.0398
  942MOL0     H27144   3.422   7.563   7.495  0.4616 -2.6222 -0.1267
  942MOL0     H27145   3.398   7.626   7.663 -1.7257  1.0248 -0.3939
  942MOL0     H27146   3.290   7.366   7.544 -1.3289  0.0789  0.0603
  942MOL0     H27147   3.267   7.432   7.712  0.9396 -1.3340 -0.3308
  942MOL0     H27148   3.075   7.451   7.572  2.7048 -1.9826 -0.1266
  942MOL0     H27149   3.162   7.552   7.451 -0.5865 -1.1272 -1.1291
  942MOL0     H27150   3.033   7.713   7.580  0.4183 -2.1981 -4.6241
  942MOL0     H27151   3.197   7.728   7.638 -1.6319  1.5036  0.2300
  942MOL0     H27152   4.058   7.759   7.561 -0.2043 -1.2335 -0.3978
  942MOL0     H27153   4.262   7.907   7.584 -1.4874  0.0306 -0.5760
  942MOL0     H27154   4.604   8.027   7.899  0.7639  0.2154 -0.5545
  942MOL0     H27155   4.815   8.112   7.956 -2.0270 -2.2419  1.5893
  942MOL0     H27156   6.430   7.794   8.259 -2.8819  0.7508 -0.0881
  942MOL0     H27157   6.667   7.780   8.371 -0.6845 -1.7712 -0.5115
  942MOL0     H27158   6.799   7.772   8.841  1.6410  3.6531 -0.0680
  942MOL0     H27159   6.964   7.780   9.017 -2.3164 -0.4700 -0.5257
  942MOL0     H27160   7.209   7.890   9.103 -1.5160  0.0021  1.3609
  942MOL0     H27161   7.107   7.745   9.148  0.5292 -0.3582 -0.2795
  942MOL0     H27162   7.399   7.810   9.184 -1.8880  0.7825 -2.8967
  942MOL0     H27163   7.334   7.655   9.240 -0.8457  0.1925  2.5491
  942MOL0     H27164   7.166   7.772   9.374  0.4023 -1.0502 -1.6192
  942MOL0     H27165   7.250   7.927   9.364 -1.2885  0.7431 -0.9426
  942MOL0     H27166   7.367   7.672   9.478 -0.5960  0.8265  0.7791
  942MOL0     H27167   7.338   7.825   9.567  2.7069 -0.3650  0.7517
  942MOL0     H27168   7.697   7.879   9.362 -0.1759 -0.3567  1.6475
  942MOL0     H27169   7.272   7.618   8.738  1.1858  1.1044  2.3767
  942MOL0     H27170   7.086   7.588   8.580  3.0386 -3.4387  2.0449
  943MOL0     O27171   9.300  10.373   5.703 -0.8735 -0.1962  0.6859
  943MOL0     C27172   9.331  10.478   5.751 -0.2065 -0.2199  1.0554
  943MOL0     O27173   9.268  10.531   5.861  0.0278  0.2816  0.2885
  943MOL0     C27174   9.197  10.460   5.948  0.5596 -0.4769 -1.2587
  943MOL0     C27175   9.240  10.332   5.998 -0.4000 -0.8212 -0.0380
  943MOL0     C27176   9.163  10.258   6.091 -0.3652 -0.3550 -0.2549
  943MOL0     C27177   9.049  10.308   6.135  0.3511  0.2704  0.2881
  943MOL0     O27178   8.971  10.230   6.222  0.1024 -0.6933  0.0447
  943MOL0     C27179   8.859  10.282   6.297 -0.3943 -0.2721  0.5631
  943MOL0     C27180   8.783  10.185   6.384  1.3485  0.0368 -0.5960
  943MOL0     C27181   8.863  10.076   6.458  0.5840  0.6675  0.4754
  943MOL0     C27182   8.790  10.009   6.577  0.1200 -0.2342  0.1637
  943MOL0     C27183   8.639   9.975   6.559 -0.1567  0.2683  0.8392
  943MOL0     C27184   8.570   9.927   6.679 -0.1480 -0.5317  0.1217
  943MOL0     C27185   8.555  10.042   6.780  0.2641 -0.1506  1.3223
  943MOL0     C27186   8.501   9.988   6.916 -0.4941 -0.4576  0.2281
  943MOL0     N27187   8.359   9.960   6.911 -0.9824 -0.7083  0.4381
  943MOL0     C27188   8.263  10.049   6.888  1.0177 -0.3085 -0.8288
  943MOL0     C27189   8.153   9.987   6.885  0.4818  0.5934  0.5166
  943MOL0     C27190   8.011  10.026   6.849  0.6703 -0.4133 -0.9221
  943MOL0     C27191   7.931  10.058   6.975  0.1851 -0.2685  0.2038
  943MOL0     C27192   7.924   9.953   7.083  0.4894 -0.0779 -0.0842
  943MOL0     C27193   7.854   9.819   7.052  0.4181 -0.5870  0.0077
  943MOL0     O27194   7.758   9.814   6.947  0.8781  0.0923 -0.1207
  943MOL0     C27195   7.626   9.865   6.972 -0.3340 -0.4366  0.4942
  943MOL0     C27196   7.535   9.842   6.873  0.1198  0.3159 -0.2250
  943MOL0     C27197   7.404   9.901   6.880 -0.7242 -0.2806 -0.3577
  943MOL0     C27198   7.307   9.883   6.767  0.4965 -0.6145  0.2919
  943MOL0     C27199   7.372   9.983   6.993 -0.2275 -0.3171  0.5301
  943MOL0     C27200   7.245  10.048   7.004 -0.5592 -0.0984 -0.0288
  943MOL0     O27201   7.135   9.983   6.975 -0.1525  0.7181 -0.1681
  943MOL0     C27202   7.009  10.034   6.985 -0.0174 -0.2806  0.0683
  943MOL0     C27203   6.935  10.056   6.866 -0.1869  0.0617 -0.8254
  943MOL0     C27204   6.814  10.117   6.879 -0.5896 -0.2672  0.7899
  943MOL0     C27205   6.766  10.145   7.005 -0.0479  0.5057  0.6550
  943MOL0     O27206   6.647  10.214   7.021  0.0902  0.0422  0.7522
  943MOL0     C27207   6.647  10.339   6.959  0.4290 -0.0241 -0.6228
  943MOL0     C27208   6.506  10.397   6.979 -0.4038  0.9085  0.0494
  943MOL0     C27209   6.386  10.299   6.994  0.6157  0.1960 -0.3599
  943MOL0     C27210   6.259  10.371   7.005  0.8670  0.4351  0.1154
  943MOL0     C27211   6.133  10.278   6.985 -0.9743 -1.0586 -0.3089
  943MOL0     C27212   6.005  10.354   7.034 -0.4166  0.0574  0.1768
  943MOL0     C27213   5.890  10.260   7.063 -0.2131  0.9192 -0.3343
  943MOL0     C27214   5.758  10.334   7.080  0.0064 -0.7941 -0.5033
  943MOL0    Cl27215   5.622  10.217   7.081  0.0050 -0.4686 -0.1258
  943MOL0     C27216   6.829  10.111   7.123 -0.3880 -0.0639  0.0520
  943MOL0     C27217   6.955  10.061   7.107 -0.1130 -1.0870  0.8431
  943MOL0     O27218   7.249  10.161   7.054 -0.1233  0.4604  0.0514
  943MOL0     C27219   7.467   9.993   7.092 -0.2867  0.4437 -0.0113
  943MOL0     C27220   7.589   9.929   7.083 -0.1675 -1.3764 -0.4962
  943MOL0     N27221   8.183   9.850   6.916 -0.6234 -0.4445 -0.3815
  943MOL0     N27222   8.305   9.838   6.921 -0.0672 -0.8724  0.4122
  943MOL0     C27223   9.004  10.435   6.093  0.0083 -1.2191  0.1421
  943MOL0     C27224   9.079  10.519   6.004 -0.5226  0.7997  0.0911
  943MOL0     C27225   9.445  10.552   5.688  0.7717  0.3199 -0.2055
  943MOL0     C27226   9.520  10.638   5.766 -0.7676 -0.1457  0.0807
  943MOL0     C27227   9.632  10.706   5.720 -0.0661  0.1287 -0.2360
  943MOL0     C27228   9.673  10.667   5.592 -1.4026 -0.4089 -0.8328
  943MOL0     O27229   9.793  10.709   5.531  0.2734  0.6534 -0.4072
  943MOL0     C27230   9.855  10.828   5.569  0.6051 -0.0821 -0.3465
  943MOL0     C27231   9.965  10.796   5.669 -0.7488 -0.5014 -0.0451
  943MOL0     C27232  10.058  10.915   5.673 -0.3318  0.1053  0.1493
  943MOL0     C27233  10.166  10.888   5.782  0.5567  0.5907 -0.4608
  943MOL0     C27234  10.261  10.999   5.800  0.5234  0.0244  0.0602
  943MOL0     C27235  10.344  11.084   5.819 -0.7750 -0.8081 -0.8021
  943MOL0     C27236   9.604  10.575   5.507  0.1577  0.1972 -0.4354
  943MOL0     C27237   9.485  10.521   5.553  0.4475  0.4942 -0.4894
  943MOL0     H27238   9.330  10.293   5.953  0.1093 -0.4260  0.6200
  943MOL0     H27239   9.183  10.161   6.133  0.8864  0.4251  1.0294
  943MOL0     H27240   8.891  10.371   6.352  1.7084 -1.2658  1.0426
  943MOL0     H27241   8.780  10.321   6.232 -1.9024 -2.6747  0.8600
  943MOL0     H27242   8.711  10.236   6.449  0.2277  0.7218 -2.2950
  943MOL0     H27243   8.710  10.130   6.323  0.0130  0.9853  0.1037
  943MOL0     H27244   8.905  10.006   6.385 -3.2865  0.7100 -2.0509
  943MOL0     H27245   8.955  10.127   6.488  0.0099  1.6777  0.5405
  943MOL0     H27246   8.833   9.912   6.604 -2.0514 -0.8736  1.5364
  943MOL0     H27247   8.805  10.071   6.666 -1.4729  0.7641 -0.2375
  943MOL0     H27248   8.594  10.066   6.519  0.6405  0.6324  0.7394
  943MOL0     H27249   8.636   9.898   6.481  1.7013 -2.1626  2.9726
  943MOL0     H27250   8.471   9.893   6.648  0.9522 -2.3569 -1.6670
  943MOL0     H27251   8.630   9.844   6.717 -1.7518 -2.5880 -1.6445
  943MOL0     H27252   8.641  10.098   6.817  1.7825 -1.9603  0.6492
  943MOL0     H27253   8.481  10.104   6.728 -0.1008 -1.4025  0.3190
  943MOL0     H27254   8.529  10.059   6.995  0.8706 -0.3386 -0.3364
  943MOL0     H27255   8.559   9.896   6.928  0.4485 -0.1417 -1.5587
  943MOL0     H27256   8.260  10.156   6.868  0.0713 -0.0552  0.5366
  943MOL0     H27257   8.014  10.115   6.786 -1.8153  0.0195 -0.5319
  943MOL0     H27258   7.954   9.943   6.805  1.5963 -0.4265 -2.1164
  943MOL0     H27259   7.830  10.074   6.936  0.6366 -2.6932 -2.2370
  943MOL0     H27260   7.971  10.150   7.018 -1.4479  1.5853 -1.9534
  943MOL0     H27261   7.877   9.995   7.173  0.9937  1.0266 -0.3238
  943MOL0     H27262   8.026   9.934   7.116  0.3865  0.7133  0.7397
  943MOL0     H27263   7.800   9.795   7.144  0.5708  2.3046  0.9400
  943MOL0     H27264   7.927   9.737   7.044  4.2072  2.6233 -2.0859
  943MOL0     H27265   7.568   9.783   6.789  2.6372  2.2244 -0.6965
  943MOL0     H27266   7.223   9.820   6.800  0.3800 -0.1129  0.9832
  943MOL0     H27267   7.261   9.977   6.735  1.9693  0.0768  0.1521
  943MOL0     H27268   7.356   9.844   6.678  0.3852 -2.3682  0.9534
  943MOL0     H27269   6.994  10.051   6.775  2.7805 -0.7348  1.0115
  943MOL0     H27270   6.756  10.137   6.790 -0.7332  1.3202  1.2140
  943MOL0     H27271   6.719  10.410   7.001  1.7152 -0.8948 -1.3006
  943MOL0     H27272   6.672  10.343   6.853 -1.0286 -1.6472 -1.0861
  943MOL0     H27273   6.501  10.467   7.063 -2.0256  1.6455 -0.6023
  943MOL0     H27274   6.481  10.459   6.892  1.5978  0.4879 -0.8693
  943MOL0     H27275   6.389  10.237   7.084 -3.3591 -0.6005 -0.5736
  943MOL0     H27276   6.372  10.230   6.910 -0.6126  1.1851 -1.0092
  943MOL0     H27277   6.262  10.424   7.101  0.7830  1.6465 -0.5323
  943MOL0     H27278   6.254  10.440   6.920 -0.9329 -0.6592 -0.7361
  943MOL0     H27279   6.149  10.188   7.046 -1.2274 -0.5903  0.4610
  943MOL0     H27280   6.122  10.256   6.879  1.3650  1.6223 -1.2338
  943MOL0     H27281   6.018  10.420   7.121  0.9000 -0.8892  0.7124
  943MOL0     H27282   5.986  10.423   6.951  0.9429  0.6612  0.3440
  943MOL0     H27283   5.902  10.196   7.150  4.2428  2.2724  0.2853
  943MOL0     H27284   5.870  10.195   6.977 -3.5349 -0.6316  1.4211
  943MOL0     H27285   5.766  10.406   6.998  0.8865  0.8186  0.9387
  943MOL0     H27286   5.750  10.385   7.177  0.8752 -0.6499 -0.5042
  943MOL0     H27287   6.777  10.134   7.215 -3.3898  1.1600 -1.7952
  943MOL0     H27288   7.010  10.030   7.195  0.9504  4.1004  2.3412
  943MOL0     H27289   7.448  10.045   7.186 -2.3246  1.5365 -0.9677
  943MOL0     H27290   7.651   9.946   7.171 -0.9677  0.7901 -0.2856
  943MOL0     H27291   8.921  10.492   6.134  0.0919  3.7283 -5.2482
  943MOL0     H27292   9.047  10.617   5.970 -0.4625  1.2387  1.2723
  943MOL0     H27293   9.486  10.653   5.868 -2.1622  0.2676 -0.4094
  943MOL0     H27294   9.700  10.772   5.772  2.7236 -3.8890  1.6853
  943MOL0     H27295   9.895  10.870   5.476  0.9748 -1.8086 -1.0159
  943MOL0     H27296   9.780  10.898   5.608  1.8944  0.5569  1.0738
  943MOL0     H27297  10.013  10.710   5.621  0.7084  1.2164 -1.8796
  943MOL0     H27298   9.938  10.768   5.771 -0.2975  1.6254  0.7131
  943MOL0     H27299  10.002  11.004   5.703 -0.3120 -0.3778  1.6804
  943MOL0     H27300  10.098  10.942   5.575  0.7846 -0.0811  0.5344
  943MOL0     H27301  10.222  10.801   5.747  1.3346  0.8550  0.1155
  943MOL0     H27302  10.116  10.873   5.878  0.4146  3.1505 -0.0607
  943MOL0     H27303  10.415  11.162   5.835 -0.0772 -1.3145 -1.3370
  943MOL0     H27304   9.644  10.539   5.412 -2.0776 -2.2213 -0.5734
  943MOL0     H27305   9.426  10.453   5.492 -0.6145 -0.0256  1.0472
  944MOL0     O27306  10.858  10.896   1.232  0.0363 -0.2088  0.0703
  944MOL0     C27307  10.938  10.816   1.181 -0.2906  0.0156  0.1401
  944MOL0     O27308  10.919  10.681   1.160 -0.4931 -0.4853 -0.6112
  944MOL0     C27309  10.796  10.626   1.171  0.8902  0.3393 -1.0716
  944MOL0     C27310  10.763  10.532   1.080  0.2134 -1.3041 -0.2491
  944MOL0     C27311  10.634  10.473   1.081  0.1305 -0.1277 -0.3618
  944MOL0     C27312  10.545  10.505   1.190 -0.3344 -0.1180  0.1227
  944MOL0     O27313  10.432  10.434   1.193 -0.1788 -0.0122  0.3924
  944MOL0     C27314  10.411  10.342   1.304  0.4837 -0.0784  1.3718
  944MOL0     C27315  10.279  10.374   1.379 -0.1234  0.1006  0.1991
  944MOL0     C27316  10.154  10.340   1.300 -0.7421 -0.5720 -0.0231
  944MOL0     C27317  10.044  10.335   1.401  0.0552 -0.0697 -0.1000
  944MOL0     C27318   9.900  10.302   1.333 -0.8649 -0.5396  0.5344
  944MOL0     C27319   9.866  10.401   1.218  0.2139 -0.0918 -0.7462
  944MOL0     C27320   9.718  10.385   1.178  0.9745  0.7773 -1.2342
  944MOL0     C27321   9.697  10.452   1.046 -0.3275  0.7565 -0.3131
  944MOL0     N27322   9.555  10.463   1.008 -0.7089 -0.5392 -0.2750
  944MOL0     C27323   9.472  10.530   1.096 -0.4679  0.3110  0.1480
  944MOL0     C27324   9.346  10.506   1.048 -0.1479 -0.8902 -0.2341
  944MOL0     C27325   9.214  10.546   1.121 -0.1672  1.3006  0.4019
  944MOL0     C27326   9.096  10.474   1.056  0.9280 -0.5940  1.2264
  944MOL0     C27327   8.968  10.510   1.143 -0.6101  0.3588 -0.4317
  944MOL0     C27328   8.837  10.469   1.080 -0.7859  0.0057  0.0026
  944MOL0     O27329   8.726  10.532   1.152 -0.4422  0.1528  0.5976
  944MOL0     C27330   8.603  10.501   1.106  0.6922 -0.0706 -1.0587
  944MOL0     C27331   8.571  10.445   0.981  0.3062  0.3291  0.2048
  944MOL0     C27332   8.436  10.407   0.955  0.1696 -0.4902 -0.0441
  944MOL0     C27333   8.399  10.322   0.838  0.2812  0.2831 -0.0923
  944MOL0     C27334   8.337  10.443   1.048 -0.0645 -0.3444  0.2690
  944MOL0     C27335   8.188  10.441   1.024  0.2432  0.2792 -0.1129
  944MOL0     O27336   8.107  10.460   1.128 -0.4042 -0.4166 -0.2381
  944MOL0     C27337   7.969  10.479   1.107 -0.6010  0.8681  0.8411
  944MOL0     C27338   7.908  10.599   1.120  0.0236  0.1113  0.6739
  944MOL0     C27339   7.777  10.619   1.070  1.4050  0.7655 -0.5821
  944MOL0     C27340   7.709  10.506   1.015 -0.0738  0.2995  0.5993
  944MOL0     O27341   7.591  10.512   0.944  0.3600 -0.1682  0.6301
  944MOL0     C27342   7.567  10.631   0.864  0.0862  0.3768 -1.3051
  944MOL0     C27343   7.447  10.618   0.769 -0.2419  0.9087 -0.8895
  944MOL0     C27344   7.316  10.625   0.854 -1.0808  0.4008  0.3742
  944MOL0     C27345   7.205  10.627   0.750  0.2541  0.3090 -0.8289
  944MOL0     C27346   7.071  10.679   0.809 -1.4470 -0.8952  0.2840
  944MOL0     C27347   6.956  10.672   0.717  0.2920 -0.8090  0.2629
  944MOL0     C27348   6.814  10.654   0.793 -0.4222  0.0674 -0.2693
  944MOL0     C27349   6.711  10.649   0.687  0.3450  1.1280 -0.9013
  944MOL0    Cl27350   6.586  10.532   0.727 -0.1176 -0.0224 -0.3627
  944MOL0     C27351   7.760  10.377   1.019  0.9539 -0.0396 -1.3700
  944MOL0     C27352   7.884  10.371   1.072 -0.7366  0.4484 -0.2941
  944MOL0     O27353   8.152  10.408   0.910 -0.6329  0.1830  0.1470
  944MOL0     C27354   8.374  10.498   1.173 -0.3243  0.5639  0.2160
  944MOL0     C27355   8.501  10.514   1.204  0.3398 -0.8855  0.1675
  944MOL0     N27356   9.356  10.431   0.931  0.1156  0.2629  0.3557
  944MOL0     N27357   9.482  10.406   0.912  0.0505 -0.0038 -0.5165
  944MOL0     C27358  10.585  10.587   1.290  0.0785  0.7174 -0.3462
  944MOL0     C27359  10.709  10.646   1.281  0.2409 -0.4903 -0.8547
  944MOL0     C27360  11.062  10.880   1.135  0.6108  0.3234 -0.4842
  944MOL0     C27361  11.084  11.014   1.124 -0.0344 -0.1910  0.2845
  944MOL0     C27362  11.206  11.057   1.077  0.4788  1.0746  0.3206
  944MOL0     C27363  11.314  10.974   1.045 -0.6797 -0.1499 -0.3033
  944MOL0     O27364  11.428  11.037   1.005  0.4235  0.2350  0.0255
  944MOL0     C27365  11.539  10.959   0.943 -0.1028 -1.0083 -0.5948
  944MOL0     C27366  11.494  10.912   0.799 -0.3563  0.6546 -0.1253
  944MOL0     C27367  11.598  10.837   0.727  0.0349  0.6905 -0.2994
  944MOL0     C27368  11.548  10.720   0.644 -0.3393  0.3888 -0.3192
  944MOL0     C27369  11.631  10.705   0.520  0.0157 -0.8772  0.3637
  944MOL0     C27370  11.713  10.697   0.429  0.8137  1.4489  0.4936
  944MOL0     C27371  11.296  10.836   1.065  0.0688  0.0773 -0.2991
  944MOL0     C27372  11.171  10.796   1.109  0.8222 -0.4070 -0.4500
  944MOL0     H27373  10.829  10.533   0.994  0.8136 -0.3825  0.2062
  944MOL0     H27374  10.602  10.423   0.990  1.6668  0.5420 -1.2955
  944MOL0     H27375  10.402  10.242   1.260  2.6096  1.0826 -2.1350
  944MOL0     H27376  10.497  10.338   1.371  1.6131  0.9541  0.0642
  944MOL0     H27377  10.267  10.317   1.472 -2.7887 -1.3031 -0.8908
  944MOL0     H27378  10.300  10.476   1.411 -0.9731  1.4799 -3.1783
  944MOL0     H27379  10.130  10.410   1.219  0.6992 -0.8807 -0.7487
  944MOL0     H27380  10.172  10.244   1.251 -1.7886 -2.0723  2.3459
  944MOL0     H27381  10.059  10.269   1.487 -1.0826  0.8906  0.8590
  944MOL0     H27382  10.038  10.434   1.447 -0.0408 -1.2805  2.6888
  944MOL0     H27383   9.911  10.205   1.285 -1.8198  0.4736 -1.8584
  944MOL0     H27384   9.821  10.297   1.409  0.5769 -1.1951  2.0583
  944MOL0     H27385   9.891  10.502   1.252  0.5686 -0.5031  0.2499
  944MOL0     H27386   9.921  10.366   1.131  0.9417  0.3263 -0.4638
  944MOL0     H27387   9.686  10.280   1.179  2.3936  0.3180  0.7623
  944MOL0     H27388   9.660  10.443   1.250  0.1077 -0.2633 -1.0628
  944MOL0     H27389   9.741  10.385   0.971 -0.2459 -3.3100  3.0120
  944MOL0     H27390   9.748  10.549   1.043 -0.2578  0.7573  0.6440
  944MOL0     H27391   9.491  10.583   1.189 -4.1882 -1.1904  1.9616
  944MOL0     H27392   9.239  10.520   1.224  1.2712  1.2396  0.0568
  944MOL0     H27393   9.189  10.652   1.110  1.1036  1.5365 -0.4062
  944MOL0     H27394   9.103  10.366   1.038 -1.9309 -0.6463 -0.0306
  944MOL0     H27395   9.083  10.527   0.962  1.8028  0.0651  1.4658
  944MOL0     H27396   8.977  10.618   1.157 -0.5041  0.5090 -1.5529
  944MOL0     H27397   8.986  10.459   1.238  1.9507 -1.7189 -1.8666
  944MOL0     H27398   8.833  10.359   1.074 -0.2090  0.0508 -4.6497
  944MOL0     H27399   8.841  10.504   0.977  2.3861  3.2960  1.0229
  944MOL0     H27400   8.655  10.432   0.913  3.2149  1.5432  3.2990
  944MOL0     H27401   8.487  10.290   0.782 -0.1626  1.9809 -1.8591
  944MOL0     H27402   8.366  10.229   0.886 -0.4682  0.2816 -0.5954
  944MOL0     H27403   8.333  10.368   0.765  0.6959  0.8609 -0.1089
  944MOL0     H27404   7.964  10.683   1.160  2.1968 -0.3775 -1.1198
  944MOL0     H27405   7.735  10.718   1.078  4.2322  1.9293  1.7880
  944MOL0     H27406   7.564  10.727   0.916  1.2505 -0.4148  0.3072
  944MOL0     H27407   7.651  10.653   0.797  2.7372 -1.6823  1.0733
  944MOL0     H27408   7.447  10.707   0.707 -1.5340  2.2501  0.9123
  944MOL0     H27409   7.450  10.529   0.706  0.1631 -0.2313  0.6578
  944MOL0     H27410   7.300  10.716   0.913 -4.2295 -0.6354  1.3344
  944MOL0     H27411   7.312  10.548   0.932  4.6969  0.2503  0.9263
  944MOL0     H27412   7.234  10.701   0.675  1.0799 -0.2028 -1.0255
  944MOL0     H27413   7.205  10.529   0.701  2.0624 -1.6747  2.7192
  944MOL0     H27414   7.083  10.782   0.846 -2.4192 -1.1180  1.3109
  944MOL0     H27415   7.044  10.630   0.904 -2.6624  0.4991  0.7051
  944MOL0     H27416   6.941  10.760   0.653 -0.2179 -1.1967 -0.1633
  944MOL0     H27417   6.971  10.591   0.645  0.0943  1.2214 -2.2263
  944MOL0     H27418   6.784  10.735   0.860 -3.3567 -0.9757 -0.2022
  944MOL0     H27419   6.803  10.560   0.847 -1.4329 -0.3204 -1.1242
  944MOL0     H27420   6.754  10.612   0.594 -1.4702  0.7388 -1.6293
  944MOL0     H27421   6.667  10.748   0.672 -0.6292  0.8620  0.0729
  944MOL0     H27422   7.695  10.300   0.980  1.3824 -2.0873  1.6916
  944MOL0     H27423   7.921  10.270   1.058  0.0387  0.7589 -0.5608
  944MOL0     H27424   8.297  10.523   1.246 -0.2842 -2.1171  1.3069
  944MOL0     H27425   8.518  10.561   1.301  1.5861  0.8901 -0.8662
  944MOL0     H27426  10.519  10.594   1.376 -0.3872 -0.5415 -0.5766
  944MOL0     H27427  10.741  10.702   1.368 -0.9101 -1.9213  0.5342
  944MOL0     H27428  11.003  11.081   1.151 -0.5500 -1.3253  1.7236
  944MOL0     H27429  11.227  11.163   1.066  0.0757  1.4984  3.0293
  944MOL0     H27430  11.618  11.035   0.941  0.4985 -1.5441  1.0150
  944MOL0     H27431  11.570  10.874   1.005  0.8494 -0.0281  0.3269
  944MOL0     H27432  11.447  10.992   0.741 -4.0360 -0.2708  1.2963
  944MOL0     H27433  11.405  10.851   0.816 -0.3335  0.4949 -0.5417
  944MOL0     H27434  11.660  10.776   0.794 -0.1926 -1.9497 -2.3127
  944MOL0     H27435  11.667  10.911   0.685 -2.2469  2.4635 -1.0848
  944MOL0     H27436  11.452  10.755   0.604 -0.4385  2.2144  1.3848
  944MOL0     H27437  11.546  10.630   0.707 -0.9999  1.5375  1.3936
  944MOL0     H27438  11.757  10.682   0.333 -4.9330  1.3920 -2.5347
  944MOL0     H27439  11.379  10.768   1.051 -0.5929 -0.3798 -2.3867
  944MOL0     H27440  11.162  10.689   1.124 -0.0387 -0.5988 -2.0634
  945MOL0     O27441   3.209   4.676   7.498  0.6634  0.3875  0.2537
  945MOL0     C27442   3.125   4.602   7.543  0.5999 -0.0714  0.2230
  945MOL0     O27443   3.142   4.464   7.543  0.3907  0.5481  0.8844
  945MOL0     C27444   3.267   4.426   7.500 -1.1987  0.4761  0.3140
  945MOL0     C27445   3.353   4.361   7.594  0.1376  0.4013 -0.9393
  945MOL0     C27446   3.471   4.309   7.553 -0.1326  0.6899 -1.0221
  945MOL0     C27447   3.515   4.298   7.418 -0.0213 -0.7599 -0.5617
  945MOL0     O27448   3.639   4.237   7.397 -0.1138  0.2850  0.6931
  945MOL0     C27449   3.691   4.203   7.265 -0.2760 -0.4594 -0.8105
  945MOL0     C27450   3.824   4.122   7.286  0.1677  0.5405 -0.3680
  945MOL0     C27451   3.915   4.101   7.169 -0.5220 -0.1355  0.7681
  945MOL0     C27452   4.049   4.034   7.203 -0.6789  0.1904 -1.1445
  945MOL0     C27453   4.138   4.023   7.077 -1.1030  0.1386 -0.2077
  945MOL0     C27454   4.073   3.915   6.987  0.5432  0.1565  0.0179
  945MOL0     C27455   4.170   3.882   6.877 -0.0014 -0.6100  0.0153
  945MOL0     C27456   4.120   3.770   6.789 -0.1625  0.0932 -0.9006
  945MOL0     N27457   3.988   3.793   6.726 -0.2433  0.1099  0.2588
  945MOL0     C27458   3.883   3.708   6.733  0.4609 -0.0414 -0.3064
  945MOL0     C27459   3.785   3.761   6.658  0.2706  0.1940 -0.5970
  945MOL0     C27460   3.653   3.684   6.636 -0.0377 -0.0196  0.0711
  945MOL0     C27461   3.558   3.690   6.755 -0.1243 -0.1254 -0.2723
  945MOL0     C27462   3.435   3.612   6.726 -0.4508  0.0161  0.6395
  945MOL0     C27463   3.334   3.637   6.841 -0.8668  0.0175 -0.4536
  945MOL0     O27464   3.232   3.538   6.832 -0.0571 -0.4355  0.2742
  945MOL0     C27465   3.121   3.568   6.912  0.3085 -0.4167 -0.0843
  945MOL0     C27466   3.000   3.497   6.898 -0.4822 -1.0670  0.7331
  945MOL0     C27467   2.879   3.538   6.955  0.5003  0.6703 -0.0408
  945MOL0     C27468   2.754   3.444   6.954 -0.2950 -0.2858  0.5771
  945MOL0     C27469   2.883   3.650   7.036 -0.3392 -1.0404  0.5665
  945MOL0     C27470   2.769   3.693   7.113  0.1873  0.5258 -0.9150
  945MOL0     O27471   2.677   3.785   7.071 -0.0375  0.0065  0.6473
  945MOL0     C27472   2.552   3.803   7.123  0.3703 -0.0451 -0.1161
  945MOL0     C27473   2.486   3.724   7.220  0.3715 -0.4697  0.1058
  945MOL0     C27474   2.361   3.760   7.273 -0.0258  0.3699 -0.2880
  945MOL0     C27475   2.287   3.863   7.226 -0.2904 -0.3834  0.6129
  945MOL0     O27476   2.168   3.913   7.284 -0.7903 -0.6206  0.0627
  945MOL0     C27477   2.174   3.913   7.431  0.2203 -0.3952 -0.4342
  945MOL0     C27478   2.051   3.985   7.495  0.3045 -0.6567 -0.3491
  945MOL0     C27479   1.929   3.897   7.478  0.2422 -0.3369  0.3751
  945MOL0     C27480   1.800   3.971   7.513 -0.3267 -0.2340 -0.0332
  945MOL0     C27481   1.666   3.894   7.516  0.0723  0.0290  0.3979
  945MOL0     C27482   1.625   3.859   7.369 -0.1948 -0.0896  0.1065
  945MOL0     C27483   1.502   3.776   7.362 -0.0957  0.0094  0.4790
  945MOL0     C27484   1.517   3.645   7.280 -0.2375  0.6761 -0.0473
  945MOL0    Cl27485   1.547   3.683   7.111 -0.1995  0.3834  0.5508
  945MOL0     C27486   2.339   3.936   7.121 -0.0586 -0.2183  0.3758
  945MOL0     C27487   2.471   3.913   7.070 -0.3980 -0.5116  0.3757
  945MOL0     O27488   2.769   3.654   7.236  0.0214  0.1680  0.2229
  945MOL0     C27489   3.001   3.725   7.046 -0.4882 -0.7598 -0.3261
  945MOL0     C27490   3.116   3.681   6.993 -0.0487  0.3541 -0.1139
  945MOL0     N27491   3.830   3.876   6.615  0.3156 -0.3762 -0.0144
  945MOL0     N27492   3.957   3.893   6.646 -0.0475  0.2179  0.5622
  945MOL0     C27493   3.428   4.363   7.327 -0.5712  0.2810 -0.3812
  945MOL0     C27494   3.311   4.434   7.367 -0.9454 -0.6026 -0.3063
  945MOL0     C27495   2.998   4.655   7.584 -1.5482 -0.0748 -0.0387
  945MOL0     C27496   2.978   4.787   7.627  0.9189 -0.7859 -0.2203
  945MOL0     C27497   2.857   4.826   7.693 -0.5650  0.2253 -0.0568
  945MOL0     C27498   2.755   4.744   7.716 -0.2502 -0.4480 -0.0909
  945MOL0     O27499   2.632   4.782   7.762  0.1477  0.3536 -0.2538
  945MOL0     C27500   2.609   4.895   7.845  0.2836 -0.8558 -0.7259
  945MOL0     C27501   2.556   5.003   7.750  0.1320 -0.0624 -0.2993
  945MOL0     C27502   2.405   4.975   7.707  0.1681  1.0776  0.4248
  945MOL0     C27503   2.365   5.085   7.611  0.7126  0.9494  0.4130
  945MOL0     C27504   2.305   5.199   7.669  0.5318 -0.0044 -0.2959
  945MOL0     C27505   2.271   5.311   7.700  0.9473  0.1059  0.6573
  945MOL0     C27506   2.770   4.605   7.688  0.3656 -0.4106  0.2469
  945MOL0     C27507   2.887   4.568   7.616 -0.8703 -0.2151 -0.4318
  945MOL0     H27508   3.324   4.372   7.698 -1.7202  2.7314 -1.6232
  945MOL0     H27509   3.541   4.279   7.631 -2.5968  1.5778  1.6992
  945MOL0     H27510   3.624   4.132   7.216 -1.1051  0.5707 -1.2093
  945MOL0     H27511   3.710   4.291   7.204  0.0537 -0.1553 -0.2744
  945MOL0     H27512   3.880   4.172   7.366  2.2062 -2.4576  0.2779
  945MOL0     H27513   3.789   4.026   7.325  0.8507  0.4895  0.1372
  945MOL0     H27514   3.861   4.057   7.085 -1.3820  4.2711 -1.2837
  945MOL0     H27515   3.936   4.201   7.130  1.9015 -0.3339  1.3956
  945MOL0     H27516   4.109   4.079   7.283 -2.7572 -0.7172  1.0333
  945MOL0     H27517   4.018   3.937   7.243 -1.2145 -0.3640 -2.8395
  945MOL0     H27518   4.157   4.117   7.026  1.3258 -0.0624  0.2355
  945MOL0     H27519   4.235   3.990   7.113  0.2815  2.8399 -1.2253
  945MOL0     H27520   4.042   3.822   7.036 -0.7338  0.6455  0.1658
  945MOL0     H27521   3.978   3.948   6.945  0.0477 -1.1910  0.0158
  945MOL0     H27522   4.173   3.977   6.821 -1.2120 -0.6436 -0.1438
  945MOL0     H27523   4.266   3.865   6.926 -1.0115 -0.7336  2.0593
  945MOL0     H27524   4.115   3.677   6.847  0.8638  0.3043 -0.4406
  945MOL0     H27525   4.196   3.761   6.710  1.1205  0.1885  0.2846
  945MOL0     H27526   3.888   3.612   6.784 -1.5919  0.0215  0.0821
  945MOL0     H27527   3.595   3.735   6.558  0.4980  2.8596  1.4256
  945MOL0     H27528   3.685   3.582   6.612  2.5604  0.3202  1.8057
  945MOL0     H27529   3.538   3.794   6.781  1.5947  0.5043 -1.3583
  945MOL0     H27530   3.609   3.650   6.843  1.4890 -0.1383 -1.1877
  945MOL0     H27531   3.448   3.504   6.722 -0.1481  0.0846 -0.4238
  945MOL0     H27532   3.396   3.636   6.627  0.0611 -2.9136 -0.3373
  945MOL0     H27533   3.288   3.734   6.820  0.7720  0.9511  0.0819
  945MOL0     H27534   3.380   3.626   6.940  0.6295 -0.2943 -1.1492
  945MOL0     H27535   3.007   3.406   6.840  0.9490  2.0115 -4.5648
  945MOL0     H27536   2.781   3.350   6.906  0.1595 -1.4152  2.8949
  945MOL0     H27537   2.726   3.419   7.057 -2.3328  2.9033  0.9512
  945MOL0     H27538   2.670   3.496   6.907  1.8958  1.5783 -1.5750
  945MOL0     H27539   2.537   3.636   7.259  1.1275 -0.4988 -0.9273
  945MOL0     H27540   2.323   3.707   7.361  0.0154 -0.5576 -0.8095
  945MOL0     H27541   2.185   3.814   7.475 -0.6159  0.2304  1.2899
  945MOL0     H27542   2.266   3.964   7.461 -0.1354  0.4874 -0.8112
  945MOL0     H27543   2.071   4.016   7.597  0.8974 -1.1419 -0.3134
  945MOL0     H27544   2.031   4.074   7.434  0.6344  0.6105  1.3322
  945MOL0     H27545   1.947   3.812   7.544  0.8558  1.4027  2.5978
  945MOL0     H27546   1.926   3.868   7.373 -2.7743 -2.4483  0.9212
  945MOL0     H27547   1.812   4.002   7.617 -2.0980 -1.0690  0.4621
  945MOL0     H27548   1.796   4.062   7.453  2.6285  0.5822  0.8487
  945MOL0     H27549   1.589   3.961   7.555 -0.7037  0.9473 -2.5117
  945MOL0     H27550   1.674   3.810   7.586  0.5319  0.3308  0.7172
  945MOL0     H27551   1.610   3.956   7.321 -1.9125  1.6251  3.6624
  945MOL0     H27552   1.707   3.808   7.319 -0.5648 -2.0171  1.3346
  945MOL0     H27553   1.430   3.838   7.308  2.9705  0.4268 -3.5912
  945MOL0     H27554   1.468   3.740   7.460  2.6869  1.9330  2.2840
  945MOL0     H27555   1.429   3.582   7.293 -0.8531  1.4654 -0.2910
  945MOL0     H27556   1.603   3.590   7.320  0.3188  0.2418 -1.7364
  945MOL0     H27557   2.290   4.019   7.071  0.6885 -1.3388 -2.4268
  945MOL0     H27558   2.507   3.960   6.980 -0.3205 -1.8459 -0.3207
  945MOL0     H27559   2.992   3.818   7.103 -3.9244 -0.1707 -1.5831
  945MOL0     H27560   3.202   3.746   7.001  0.2523  0.0092 -0.4932
  945MOL0     H27561   3.453   4.356   7.222 -0.7791  0.9360 -0.4834
  945MOL0     H27562   3.250   4.486   7.294  1.1679 -0.2159 -1.8840
  945MOL0     H27563   3.059   4.854   7.604 -0.4099  0.6908 -0.7505
  945MOL0     H27564   2.849   4.930   7.722  0.4178  0.0511  0.9299
  945MOL0     H27565   2.531   4.877   7.920  0.5972  2.5952  0.5954
  945MOL0     H27566   2.699   4.930   7.896  0.7398  2.3666 -3.3709
  945MOL0     H27567   2.608   5.009   7.654 -0.3818  2.4297 -0.4872
  945MOL0     H27568   2.552   5.099   7.803 -2.5302 -0.2080 -0.1296
  945MOL0     H27569   2.332   4.957   7.787  1.1839  0.8571  1.3236
  945MOL0     H27570   2.415   4.880   7.654  1.5155  0.3478  1.9082
  945MOL0     H27571   2.290   5.042   7.544 -2.1006  1.1052  3.2431
  945MOL0     H27572   2.447   5.111   7.542 -1.3126  1.4842 -1.9378
  945MOL0     H27573   2.241   5.405   7.741  1.3043 -1.1515  4.1644
  945MOL0     H27574   2.690   4.536   7.712  2.7560 -3.1681  0.8190
  945MOL0     H27575   2.907   4.468   7.579  0.3363  0.0318 -0.4802
  946MOL0     O27576  10.405   5.569   0.485 -0.2785 -0.4834 -0.5495
  946MOL0     C27577  10.436   5.607   0.601  0.4030  0.1631  0.9056
  946MOL0     O27578  10.348   5.664   0.687  0.3819  0.1132  0.0079
  946MOL0     C27579  10.217   5.681   0.646  0.8474  0.4440 -0.1505
  946MOL0     C27580  10.131   5.568   0.629 -0.8568 -0.2001  0.4098
  946MOL0     C27581   9.997   5.600   0.612  0.1985 -0.1091  0.2778
  946MOL0     C27582   9.947   5.730   0.612 -0.6872  0.0684  0.4497
  946MOL0     O27583   9.821   5.779   0.604 -0.3375  0.2772 -0.3269
  946MOL0     C27584   9.728   5.680   0.574 -0.3363 -0.6577 -0.5937
  946MOL0     C27585   9.596   5.752   0.598 -0.3184  1.1434 -0.0439
  946MOL0     C27586   9.484   5.650   0.591  0.2134 -1.0761 -0.4043
  946MOL0     C27587   9.350   5.706   0.579 -0.0006 -1.0235 -0.5610
  946MOL0     C27588   9.288   5.727   0.710  1.1320 -0.4257  0.7633
  946MOL0     C27589   9.147   5.786   0.695 -0.2878 -0.8519 -0.1142
  946MOL0     C27590   9.089   5.781   0.836  0.7761  0.6052  1.2732
  946MOL0     C27591   8.950   5.845   0.855  0.3094 -0.7569 -1.0543
  946MOL0     N27592   8.850   5.781   0.768  0.3856 -0.3988  0.1992
  946MOL0     C27593   8.824   5.799   0.635 -0.5704  0.8175 -0.5685
  946MOL0     C27594   8.729   5.702   0.601  0.3169  0.5453 -0.2970
  946MOL0     C27595   8.664   5.686   0.464 -0.1697 -0.2720  0.0688
  946MOL0     C27596   8.513   5.672   0.462 -0.0457 -0.5434  0.4199
  946MOL0     C27597   8.439   5.644   0.335  0.3386  0.3253  0.6904
  946MOL0     C27598   8.301   5.582   0.380  0.0812 -0.2030 -0.1315
  946MOL0     O27599   8.213   5.549   0.275  0.5402 -0.0435  0.3680
  946MOL0     C27600   8.098   5.488   0.313 -0.3282 -1.1484 -0.0319
  946MOL0     C27601   8.022   5.542   0.415  0.0566  0.1113 -0.1718
  946MOL0     C27602   7.898   5.483   0.448  0.2482  0.2179  0.3082
  946MOL0     C27603   7.824   5.552   0.569  0.5184 -0.6917 -0.4771
  946MOL0     C27604   7.853   5.371   0.374  0.6084 -0.9400 -0.1297
  946MOL0     C27605   7.733   5.298   0.411 -0.4983 -0.1711  0.3011
  946MOL0     O27606   7.668   5.234   0.307  0.3854  0.1481  0.1226
  946MOL0     C27607   7.537   5.194   0.312  0.5933 -0.3794 -0.0915
  946MOL0     C27608   7.470   5.180   0.192  0.1647  0.8195 -0.3311
  946MOL0     C27609   7.337   5.143   0.180 -0.5877  0.2661  0.4765
  946MOL0     C27610   7.260   5.110   0.293  0.6281  0.0008 -0.4352
  946MOL0     O27611   7.135   5.050   0.294 -0.2490 -0.0715  0.0994
  946MOL0     C27612   7.103   4.976   0.177  0.0440 -0.3790  0.6289
  946MOL0     C27613   6.997   4.863   0.203 -0.6321  0.3114 -0.1974
  946MOL0     C27614   6.854   4.911   0.244 -0.0439 -1.2107 -0.5286
  946MOL0     C27615   6.770   4.799   0.283  1.0374  0.3759  0.3876
  946MOL0     C27616   6.626   4.840   0.319  0.4079  0.2007 -0.3174
  946MOL0     C27617   6.537   4.846   0.188 -0.2166  0.0378  0.2431
  946MOL0     C27618   6.388   4.883   0.214 -0.6235 -0.1510 -0.5752
  946MOL0     C27619   6.315   4.924   0.090 -0.8871  0.0525  0.0070
  946MOL0    Cl27620   6.138   4.907   0.109  0.3799 -0.4644 -0.1392
  946MOL0     C27621   7.331   5.124   0.417 -0.9334 -0.1465  0.0420
  946MOL0     C27622   7.461   5.174   0.427 -0.2470  0.2792 -0.2979
  946MOL0     O27623   7.702   5.292   0.529 -0.6266  0.4731 -0.3531
  946MOL0     C27624   7.930   5.326   0.267 -1.2259  0.7704  0.0280
  946MOL0     C27625   8.054   5.385   0.232 -0.0679 -0.1013 -0.3470
  946MOL0     N27626   8.706   5.632   0.709  0.1103  0.1811  0.9376
  946MOL0     N27627   8.777   5.673   0.807 -0.4426 -0.2698 -0.8781
  946MOL0     C27628  10.034   5.834   0.627  0.2365 -0.0318  0.9531
  946MOL0     C27629  10.170   5.813   0.646  0.0223  0.0815  0.2622
  946MOL0     C27630  10.570   5.567   0.663 -0.7121 -0.1056 -0.1316
  946MOL0     C27631  10.604   5.548   0.802  0.2769 -0.5189  0.2493
  946MOL0     C27632  10.734   5.502   0.836 -0.1566 -0.9463 -1.0823
  946MOL0     C27633  10.827   5.483   0.736 -0.2722  0.1384 -0.1782
  946MOL0     O27634  10.956   5.435   0.750 -0.0073  0.0251  1.0765
  946MOL0     C27635  11.007   5.402   0.882  0.1925  0.6472  0.0794
  946MOL0     C27636  11.153   5.348   0.879 -0.0878 -0.3589 -0.4954
  946MOL0     C27637  11.225   5.336   1.021  0.9257  0.1609  0.2291
  946MOL0     C27638  11.195   5.445   1.124  0.2093  0.0301 -0.4491
  946MOL0     C27639  11.065   5.417   1.191 -0.0546  0.2302 -0.6399
  946MOL0     C27640  10.963   5.363   1.238 -0.1521  0.2881  0.2896
  946MOL0     C27641  10.797   5.514   0.602  0.3341  0.4298  1.3319
  946MOL0     C27642  10.673   5.548   0.565  0.6075 -0.0518  0.2265
  946MOL0     H27643  10.171   5.468   0.641 -0.8198 -0.1852  0.4117
  946MOL0     H27644   9.922   5.521   0.606 -1.6066  1.3160  2.3396
  946MOL0     H27645   9.740   5.642   0.472  1.5736 -2.6384  0.2830
  946MOL0     H27646   9.728   5.596   0.644  0.8917  2.1073  3.0159
  946MOL0     H27647   9.588   5.807   0.692 -0.4227  1.4198 -0.2156
  946MOL0     H27648   9.583   5.814   0.510  0.7531  2.1893  0.5148
  946MOL0     H27649   9.493   5.589   0.500 -0.1301  0.0733 -1.2270
  946MOL0     H27650   9.484   5.578   0.673 -1.8894 -0.7325 -0.0651
  946MOL0     H27651   9.351   5.801   0.525  0.7578 -1.2197 -0.9001
  946MOL0     H27652   9.294   5.636   0.516  1.3602 -4.1824  1.4435
  946MOL0     H27653   9.291   5.631   0.761  0.1704  0.0686  1.7840
  946MOL0     H27654   9.353   5.803   0.754  0.7820  1.7090 -2.1146
  946MOL0     H27655   9.144   5.888   0.657  1.3594 -1.2991 -1.5714
  946MOL0     H27656   9.078   5.729   0.632 -1.3898  0.7423 -0.3976
  946MOL0     H27657   9.079   5.673   0.853  1.3068 -0.0356 -1.8864
  946MOL0     H27658   9.156   5.816   0.915  0.0222 -0.1716  2.2849
  946MOL0     H27659   8.962   5.950   0.830 -0.1187 -0.3474  0.3572
  946MOL0     H27660   8.911   5.824   0.955  1.3153 -3.8925 -1.2066
  946MOL0     H27661   8.853   5.872   0.561  2.7400  0.8514  0.6150
  946MOL0     H27662   8.699   5.770   0.403 -1.2831  0.9805  1.0780
  946MOL0     H27663   8.700   5.596   0.414 -0.8749 -0.0721 -0.8377
  946MOL0     H27664   8.479   5.767   0.504  2.2915  0.0154  1.1937
  946MOL0     H27665   8.485   5.598   0.538 -0.9051 -0.4407  0.2081
  946MOL0     H27666   8.490   5.575   0.267  1.4468  1.7381  0.0370
  946MOL0     H27667   8.427   5.742   0.288  0.7882  0.1053  0.1102
  946MOL0     H27668   8.255   5.661   0.439  0.6349  0.1944 -0.2230
  946MOL0     H27669   8.332   5.500   0.446  2.4561  0.5292 -0.2419
  946MOL0     H27670   8.065   5.629   0.464  2.2983 -1.1862  0.3378
  946MOL0     H27671   7.717   5.539   0.585  0.4063  2.5610  2.9113
  946MOL0     H27672   7.864   5.514   0.663 -3.1048 -1.2652  0.9937
  946MOL0     H27673   7.839   5.660   0.565  0.1982 -0.6886 -2.7351
  946MOL0     H27674   7.527   5.199   0.102  3.6890 -0.6412  1.4217
  946MOL0     H27675   7.301   5.145   0.077  2.2141 -0.0287 -0.5783
  946MOL0     H27676   7.069   5.042   0.096  1.1012 -2.6481 -1.8465
  946MOL0     H27677   7.189   4.928   0.129 -0.7961 -1.0361 -0.2879
  946MOL0     H27678   6.992   4.804   0.111  0.6455  0.7361 -0.5493
  946MOL0     H27679   7.026   4.792   0.281 -2.8340  0.1415  0.5544
  946MOL0     H27680   6.811   4.952   0.153 -2.4009 -1.8468  0.2349
  946MOL0     H27681   6.854   4.987   0.323  0.9221 -2.9317  1.2400
  946MOL0     H27682   6.767   4.744   0.189  5.4204  2.2156 -1.0881
  946MOL0     H27683   6.831   4.747   0.357  0.3217  0.8634  1.3416
  946MOL0     H27684   6.626   4.931   0.381  2.5456  1.2028 -1.6306
  946MOL0     H27685   6.587   4.759   0.380 -0.0866  0.8982  0.3121
  946MOL0     H27686   6.579   4.906   0.108 -0.5153 -0.5689 -0.3829
  946MOL0     H27687   6.536   4.741   0.158  0.8575 -0.9409  3.2782
  946MOL0     H27688   6.398   4.970   0.280  0.4077 -0.8543  0.2498
  946MOL0     H27689   6.328   4.810   0.269  0.0733  0.4902  1.1312
  946MOL0     H27690   6.351   4.857   0.010 -1.0718  0.0722 -0.0925
  946MOL0     H27691   6.344   5.026   0.061 -0.9954 -0.5451 -2.4247
  946MOL0     H27692   7.284   5.111   0.514  0.3031 -2.9646  0.3679
  946MOL0     H27693   7.491   5.196   0.529 -1.7909 -0.5561  0.3603
  946MOL0     H27694   7.916   5.236   0.208  0.3317 -0.0466  0.8382
  946MOL0     H27695   8.114   5.352   0.148  0.6132 -2.8030  1.1035
  946MOL0     H27696  10.004   5.939   0.630  0.9916  0.3324 -1.5940
  946MOL0     H27697  10.242   5.894   0.650  2.6490 -2.0070 -1.2177
  946MOL0     H27698  10.531   5.545   0.882  1.3405  0.7485  1.3180
  946MOL0     H27699  10.750   5.475   0.940  0.5876  0.3145 -0.8418
  946MOL0     H27700  11.005   5.496   0.937 -1.0468 -0.0703  1.3377
  946MOL0     H27701  10.937   5.338   0.938  0.9791  1.7941  2.5247
  946MOL0     H27702  11.216   5.423   0.830  0.1389  0.9928  1.6986
  946MOL0     H27703  11.169   5.252   0.829  1.8036  0.2941 -1.2371
  946MOL0     H27704  11.331   5.333   0.997  0.8300  1.3026 -0.4218
  946MOL0     H27705  11.203   5.246   1.079  2.5044 -0.9535 -0.8323
  946MOL0     H27706  11.192   5.540   1.069  2.0156  0.7266  0.5711
  946MOL0     H27707  11.273   5.453   1.200  0.9485  2.7362 -1.3783
  946MOL0     H27708  10.871   5.319   1.273 -0.9187  1.5161 -0.1379
  946MOL0     H27709  10.867   5.494   0.521  0.4814 -0.0781  1.5813
  946MOL0     H27710  10.653   5.558   0.459 -1.2497  0.0627  0.5678
  947MOL0     O27711   6.786   1.809   3.281 -0.1567  0.0839  0.4484
  947MOL0     C27712   6.870   1.765   3.359 -0.0150 -0.3377 -0.1247
  947MOL0     O27713   6.862   1.641   3.428 -0.5484 -0.2508  0.3484
  947MOL0     C27714   6.742   1.571   3.432 -0.3006 -0.6516  0.3135
  947MOL0     C27715   6.617   1.636   3.450 -0.0688 -0.4424  0.4785
  947MOL0     C27716   6.501   1.562   3.457 -0.1384 -0.3674 -0.4198
  947MOL0     C27717   6.500   1.421   3.449 -0.1537  0.0482 -0.7203
  947MOL0     O27718   6.393   1.342   3.476  0.4872 -0.0214  0.4821
  947MOL0     C27719   6.257   1.382   3.455  0.3813 -0.8113 -0.2805
  947MOL0     C27720   6.171   1.257   3.488 -0.0131 -0.2705 -0.0765
  947MOL0     C27721   6.031   1.266   3.440 -1.1757  1.1525 -0.4189
  947MOL0     C27722   5.936   1.175   3.507  0.5889 -0.5011  0.3135
  947MOL0     C27723   5.799   1.196   3.437 -0.3704 -0.0979 -0.0845
  947MOL0     C27724   5.686   1.097   3.489  0.3474 -1.5766  0.0829
  947MOL0     C27725   5.557   1.110   3.411  0.1872 -0.0794 -0.1358
  947MOL0     C27726   5.442   1.034   3.481  0.2050 -0.0030 -0.1042
  947MOL0     N27727   5.313   1.049   3.411  0.8764  1.1492 -0.7654
  947MOL0     C27728   5.265   0.961   3.314  0.1137  0.1639  0.1261
  947MOL0     C27729   5.133   1.004   3.304  0.8383  0.1592  0.1292
  947MOL0     C27730   5.032   0.948   3.217  0.7265 -0.2070  0.2632
  947MOL0     C27731   4.887   0.980   3.245  0.4347  0.1727  1.3862
  947MOL0     C27732   4.800   0.869   3.184 -0.2960  0.3041  0.4370
  947MOL0     C27733   4.652   0.903   3.181 -0.0282  0.2524 -0.3835
  947MOL0     O27734   4.621   0.982   3.067 -0.1174  0.3470 -0.1531
  947MOL0     C27735   4.493   0.970   3.015  0.0298  1.2462  0.0891
  947MOL0     C27736   4.383   0.987   3.101 -0.0765  0.2876 -1.0587
  947MOL0     C27737   4.251   0.995   3.060  0.0203 -0.0424 -1.1211
  947MOL0     C27738   4.136   1.007   3.156 -0.1520 -1.7735 -0.5678
  947MOL0     C27739   4.224   0.958   2.919 -0.9905 -0.1202  0.5778
  947MOL0     C27740   4.095   0.966   2.852  1.0660  0.5244  1.0502
  947MOL0     O27741   3.986   1.045   2.899 -0.3916 -0.1232  0.4258
  947MOL0     C27742   3.862   1.020   2.839  0.5694 -0.6461  0.1127
  947MOL0     C27743   3.785   0.922   2.895  0.1346 -0.3242  0.0310
  947MOL0     C27744   3.657   0.904   2.847  0.7113 -0.2843 -1.0835
  947MOL0     C27745   3.604   0.976   2.748 -0.2820 -0.8535  0.6442
  947MOL0     O27746   3.478   0.963   2.696  0.3754 -0.6558 -0.1205
  947MOL0     C27747   3.386   0.868   2.756  0.1686  0.3190  1.6364
  947MOL0     C27748   3.240   0.905   2.729  0.4660  0.6515 -1.1903
  947MOL0     C27749   3.197   0.934   2.583  0.4203 -0.5376 -0.2898
  947MOL0     C27750   3.047   0.951   2.566  0.0531  0.5251  0.6040
  947MOL0     C27751   2.971   0.818   2.575  0.3657  0.2303  0.7237
  947MOL0     C27752   2.823   0.826   2.543 -0.5785 -0.1655 -0.2292
  947MOL0     C27753   2.800   0.837   2.391  0.3648  0.6451  0.0249
  947MOL0     C27754   2.655   0.813   2.345  1.1284  0.5597 -0.1978
  947MOL0    Cl27755   2.553   0.938   2.415  0.4098  0.6579  0.2116
  947MOL0     C27756   3.685   1.075   2.685  0.3685 -0.4424 -0.3476
  947MOL0     C27757   3.813   1.094   2.731  0.8630  1.0035  0.0973
  947MOL0     O27758   4.088   0.898   2.753  0.5313 -0.0835  0.2858
  947MOL0     C27759   4.335   0.922   2.835 -0.4693 -0.7301  0.2215
  947MOL0     C27760   4.465   0.936   2.880  0.0395  1.0126 -0.6787
  947MOL0     N27761   5.111   1.116   3.384 -0.0952  0.1994  0.2328
  947MOL0     N27762   5.220   1.139   3.442  0.6982  0.0839  0.0163
  947MOL0     C27763   6.622   1.360   3.430 -1.0651 -0.4858  0.5650
  947MOL0     C27764   6.745   1.431   3.421  0.1360  0.1020 -0.3394
  947MOL0     C27765   7.001   1.834   3.359  0.2444  0.0119  0.2493
  947MOL0     C27766   7.110   1.774   3.424  0.0066 -0.1506  0.0280
  947MOL0     C27767   7.236   1.825   3.409  0.2389  1.0933 -0.2434
  947MOL0     C27768   7.256   1.952   3.356  0.1220 -0.0030 -0.0708
  947MOL0     O27769   7.377   2.015   3.371 -0.0133 -0.0088  0.4593
  947MOL0     C27770   7.502   1.950   3.412  0.0433 -0.5026  0.1917
  947MOL0     C27771   7.616   2.043   3.440  0.0370 -0.2595 -0.2864
  947MOL0     C27772   7.750   1.972   3.475 -0.5371 -0.7434  0.6803
  947MOL0     C27773   7.769   1.829   3.421  0.2622  0.4146  0.4428
  947MOL0     C27774   7.904   1.790   3.474 -0.1421  0.3063  0.4168
  947MOL0     C27775   8.007   1.764   3.522 -0.0848 -0.6251 -0.2759
  947MOL0     C27776   7.146   2.015   3.297 -0.6461 -0.6541  0.6926
  947MOL0     C27777   7.018   1.956   3.290 -0.1961 -0.9455 -0.2174
  947MOL0     H27778   6.623   1.744   3.454 -0.2504  0.0131 -4.6456
  947MOL0     H27779   6.410   1.618   3.477  0.4298  0.3740  0.1217
  947MOL0     H27780   6.237   1.460   3.530 -0.6063 -2.3028  1.0531
  947MOL0     H27781   6.236   1.423   3.356  0.2920  2.2325  0.8854
  947MOL0     H27782   6.225   1.172   3.444 -3.4229 -0.6690 -4.1122
  947MOL0     H27783   6.155   1.233   3.593  0.5683 -2.2006 -0.3793
  947MOL0     H27784   6.010   1.372   3.459  3.0346  2.1927 -0.7132
  947MOL0     H27785   6.027   1.258   3.331  0.3824 -0.5625 -0.3944
  947MOL0     H27786   5.968   1.072   3.493  1.7888 -0.2043  0.7823
  947MOL0     H27787   5.917   1.207   3.610 -0.5654  2.2222 -0.6475
  947MOL0     H27788   5.767   1.300   3.455 -1.3257 -0.6236  1.5006
  947MOL0     H27789   5.802   1.192   3.328 -0.4380  1.9908 -0.2104
  947MOL0     H27790   5.713   0.991   3.486  2.2938 -1.1957  1.7845
  947MOL0     H27791   5.664   1.128   3.591  0.9665  0.8288 -0.4639
  947MOL0     H27792   5.530   1.215   3.403  0.5845 -0.0585 -1.3220
  947MOL0     H27793   5.578   1.074   3.310  1.9733  1.3121 -0.3057
  947MOL0     H27794   5.439   1.082   3.579 -1.5083  1.8633 -1.0054
  947MOL0     H27795   5.458   0.926   3.485 -1.3057 -0.2521 -0.1947
  947MOL0     H27796   5.304   0.870   3.272 -1.0268 -0.6394  0.7463
  947MOL0     H27797   5.055   0.989   3.118 -4.3399  1.2324 -0.6420
  947MOL0     H27798   5.046   0.842   3.198  0.8100  0.1222 -1.7572
  947MOL0     H27799   4.867   1.075   3.194  2.2974 -0.5492 -0.8303
  947MOL0     H27800   4.873   0.998   3.352  2.1058 -0.0861  1.6688
  947MOL0     H27801   4.802   0.776   3.240 -2.3168 -2.3210 -3.4003
  947MOL0     H27802   4.829   0.852   3.080 -2.5260  0.2018 -0.2142
  947MOL0     H27803   4.629   0.952   3.277 -0.1024  1.8285 -1.1714
  947MOL0     H27804   4.592   0.812   3.181  1.2900 -0.6743 -1.7972
  947MOL0     H27805   4.403   1.009   3.205  1.1209  0.5561 -1.3354
  947MOL0     H27806   4.167   0.960   3.250 -2.6162 -0.1712  1.1673
  947MOL0     H27807   4.100   1.108   3.178  2.0077 -1.4533  2.0682
  947MOL0     H27808   4.051   0.947   3.122 -1.4954 -0.7192  0.7680
  947MOL0     H27809   3.828   0.857   2.971 -0.7223  2.1644  2.7896
  947MOL0     H27810   3.608   0.815   2.888  1.0179  0.1482  0.2769
  947MOL0     H27811   3.414   0.771   2.714  1.8299  1.0985  0.8400
  947MOL0     H27812   3.400   0.876   2.865 -0.2295 -1.5446  1.8652
  947MOL0     H27813   3.178   0.827   2.773  0.3419  0.7350 -1.2170
  947MOL0     H27814   3.226   0.997   2.787  3.1045  0.4780 -0.1378
  947MOL0     H27815   3.224   0.853   2.514 -1.7196 -0.1730 -1.6848
  947MOL0     H27816   3.251   1.026   2.559 -1.1318  0.5086  0.0791
  947MOL0     H27817   3.009   1.018   2.644 -2.6782  0.1072 -0.2743
  947MOL0     H27818   3.020   0.994   2.469 -0.3696 -1.0495 -0.0014
  947MOL0     H27819   2.996   0.769   2.669 -1.6670 -3.8545 -0.6388
  947MOL0     H27820   2.999   0.748   2.496 -2.1164 -0.4460  0.3676
  947MOL0     H27821   2.768   0.736   2.572 -2.1855  0.3799 -1.4468
  947MOL0     H27822   2.783   0.912   2.598 -1.5171  1.0625 -2.7087
  947MOL0     H27823   2.864   0.775   2.328 -0.6586  0.0501 -0.4633
  947MOL0     H27824   2.837   0.934   2.357  1.0826 -0.4809 -2.7178
  947MOL0     H27825   2.615   0.718   2.382 -0.5398  1.6783  0.9526
  947MOL0     H27826   2.639   0.813   2.237 -2.1298 -2.0702  0.1289
  947MOL0     H27827   3.641   1.135   2.606  0.6295  0.6864  0.3541
  947MOL0     H27828   3.870   1.177   2.691 -2.0576  3.3892  0.5382
  947MOL0     H27829   4.325   0.902   2.729 -2.1940  0.7451  0.0483
  947MOL0     H27830   4.550   0.900   2.822  2.2792  2.7521  1.3261
  947MOL0     H27831   6.622   1.251   3.427  1.4120 -0.5111 -1.7268
  947MOL0     H27832   6.847   1.395   3.435  0.2416  1.2830  2.9151
  947MOL0     H27833   7.109   1.688   3.490  3.1646 -0.6272 -0.3874
  947MOL0     H27834   7.319   1.775   3.459 -0.2095 -0.3003 -0.8502
  947MOL0     H27835   7.488   1.895   3.506 -0.1811  0.8345  0.9731
  947MOL0     H27836   7.524   1.886   3.326 -3.1711 -0.1661 -1.0201
  947MOL0     H27837   7.588   2.107   3.524  0.8006  2.2756 -1.8606
  947MOL0     H27838   7.640   2.106   3.354  1.0030  0.4544  0.4786
  947MOL0     H27839   7.761   1.978   3.584  1.3142 -0.6052  0.5083
  947MOL0     H27840   7.832   2.033   3.438 -0.8183  0.5230  2.0363
  947MOL0     H27841   7.770   1.815   3.313 -0.1107  0.6936  0.4032
  947MOL0     H27842   7.692   1.759   3.456 -0.0770  0.6836  0.2322
  947MOL0     H27843   8.098   1.744   3.574  0.9290 -0.7529 -2.0029
  947MOL0     H27844   7.178   2.111   3.260  3.6906 -2.0038  0.3228
  947MOL0     H27845   6.943   2.020   3.246 -0.5988 -0.4534  1.1238
  948MOL0     O27846  10.209   2.375   6.713 -0.2439  0.0583 -0.0918
  948MOL0     C27847  10.232   2.266   6.764 -1.2674 -0.0516  0.1418
  948MOL0     O27848  10.144   2.174   6.820 -0.2859 -0.0123 -0.2072
  948MOL0     C27849  10.003   2.194   6.820 -0.1164 -0.0179 -0.0073
  948MOL0     C27850   9.937   2.274   6.723 -0.0948 -0.8845  0.4147
  948MOL0     C27851   9.798   2.318   6.743  0.1550  0.6180  0.6865
  948MOL0     C27852   9.728   2.279   6.858 -0.1316 -0.3517  0.9725
  948MOL0     O27853   9.597   2.306   6.889 -0.2139 -0.0369 -0.9708
  948MOL0     C27854   9.564   2.436   6.860  0.6801 -0.8760  0.8913
  948MOL0     C27855   9.414   2.454   6.875  0.3737 -0.4326  0.6037
  948MOL0     C27856   9.371   2.486   7.016  0.6739  0.1320 -0.6690
  948MOL0     C27857   9.219   2.512   7.025 -0.0017  0.0639  0.0174
  948MOL0     C27858   9.189   2.543   7.174  0.1770  0.2780  0.2999
  948MOL0     C27859   9.055   2.618   7.179 -0.8580 -0.9062 -0.6568
  948MOL0     C27860   8.982   2.612   7.319 -0.7571  0.0023 -0.3741
  948MOL0     C27861   8.892   2.481   7.331  0.0590  0.0371  0.3045
  948MOL0     N27862   8.829   2.466   7.464 -0.7664 -0.1125  0.1985
  948MOL0     C27863   8.838   2.345   7.530  0.0243 -0.3581  0.1597
  948MOL0     C27864   8.746   2.363   7.633  0.3641 -0.5101  0.1478
  948MOL0     C27865   8.716   2.265   7.743  0.1097  0.0539  0.0515
  948MOL0     C27866   8.577   2.211   7.748  0.6162 -0.1103 -0.6651
  948MOL0     C27867   8.483   2.306   7.831  0.3435 -0.9796 -0.2572
  948MOL0     C27868   8.344   2.247   7.880 -0.3765 -0.4168  0.8006
  948MOL0     O27869   8.361   2.112   7.928 -0.7109 -0.3096 -0.0711
  948MOL0     C27870   8.252   2.053   7.990 -0.2977  1.6828  0.5547
  948MOL0     C27871   8.275   1.926   8.047 -0.6409 -0.2503  0.8038
  948MOL0     C27872   8.179   1.859   8.126  0.4659 -0.1908 -0.2862
  948MOL0     C27873   8.226   1.715   8.186  0.2600 -0.1310  0.0252
  948MOL0     C27874   8.050   1.916   8.146 -0.3392  0.2423  0.3893
  948MOL0     C27875   7.955   1.863   8.242 -0.2689 -0.6637  0.6848
  948MOL0     O27876   7.990   1.785   8.353  0.1411  0.6456 -0.5100
  948MOL0     C27877   7.895   1.776   8.458  1.4541  0.1809  0.4045
  948MOL0     C27878   7.799   1.872   8.494  0.2851  0.0439 -0.7764
  948MOL0     C27879   7.752   1.865   8.634 -0.4310  0.2946  0.0139
  948MOL0     C27880   7.779   1.755   8.719  0.3842  0.2457 -0.7830
  948MOL0     O27881   7.725   1.764   8.841  1.0721  0.4353  0.3278
  948MOL0     C27882   7.723   1.634   8.912  0.4275 -1.5123 -0.4976
  948MOL0     C27883   7.634   1.656   9.029 -0.1366 -0.6891 -0.3973
  948MOL0     C27884   7.615   1.533   9.117  0.0753  0.0563  0.0366
  948MOL0     C27885   7.473   1.488   9.140 -0.0831 -0.7666  0.8405
  948MOL0     C27886   7.455   1.356   9.216 -0.0677  0.1726 -0.1406
  948MOL0     C27887   7.497   1.374   9.363  0.1724 -0.7987 -0.1638
  948MOL0     C27888   7.486   1.246   9.436 -0.7885 -0.0435  0.3064
  948MOL0     C27889   7.514   1.273   9.585 -0.3830  0.6811 -0.1613
  948MOL0    Cl27890   7.392   1.378   9.656  0.0569 -0.3232  0.0674
  948MOL0     C27891   7.862   1.659   8.675  0.0920  0.3122  0.0608
  948MOL0     C27892   7.923   1.678   8.546 -0.2387 -0.0752 -0.3021
  948MOL0     O27893   7.840   1.894   8.202  0.6087  0.3668  0.0390
  948MOL0     C27894   8.026   2.043   8.079  0.8296  0.0616  0.1112
  948MOL0     C27895   8.127   2.104   8.011 -0.7554  0.5583 -0.2364
  948MOL0     N27896   8.684   2.491   7.624  0.7580  0.7425  0.2455
  948MOL0     N27897   8.743   2.554   7.524  0.0479  0.3799 -0.2167
  948MOL0     C27898   9.800   2.195   6.954  0.7539 -1.3636  0.7825
  948MOL0     C27899   9.928   2.161   6.934 -0.6636  0.3081  1.1706
  948MOL0     C27900  10.370   2.215   6.772  0.1660  0.1257  0.7827
  948MOL0     C27901  10.476   2.304   6.799 -0.0902  0.7354  1.3113
  948MOL0     C27902  10.612   2.252   6.785  0.5791  0.5655  0.4770
  948MOL0     C27903  10.639   2.118   6.760  0.2501 -0.3451  0.4467
  948MOL0     O27904  10.763   2.065   6.765 -0.1868  0.6298  0.7074
  948MOL0     C27905  10.869   2.132   6.828 -0.0347 -0.4856 -0.8540
  948MOL0     C27906  10.998   2.038   6.848 -0.1319  0.4930 -0.1431
  948MOL0     C27907  11.106   2.118   6.916 -0.0934  0.3352 -0.6738
  948MOL0     C27908  11.230   2.030   6.908 -0.7629  0.1588 -0.6188
  948MOL0     C27909  11.346   2.118   6.961 -0.4430  0.6679  0.4823
  948MOL0     C27910  11.429   2.189   7.020 -0.2325  0.4373 -0.3831
  948MOL0     C27911  10.528   2.043   6.723 -0.3942 -0.2300 -0.0910
  948MOL0     C27912  10.401   2.087   6.729 -0.5869  0.0438 -0.0266
  948MOL0     H27913   9.983   2.309   6.631 -2.8051 -0.7767 -1.0266
  948MOL0     H27914   9.757   2.374   6.660  2.1571 -0.3367 -1.0584
  948MOL0     H27915   9.615   2.514   6.918 -1.1789  1.8197 -0.8295
  948MOL0     H27916   9.586   2.451   6.754 -1.5775  1.0672  0.5990
  948MOL0     H27917   9.376   2.535   6.812  3.5176  2.1146  1.6627
  948MOL0     H27918   9.359   2.367   6.839 -2.0055  0.7833  1.0527
  948MOL0     H27919   9.411   2.405   7.077 -1.4590 -0.0496  0.5601
  948MOL0     H27920   9.413   2.581   7.050 -0.2037 -0.3545  1.9282
  948MOL0     H27921   9.196   2.585   6.947 -0.9222 -3.3283 -3.1615
  948MOL0     H27922   9.180   2.420   6.979  0.4469  1.7614 -4.2868
  948MOL0     H27923   9.191   2.448   7.228  4.0628  0.9872  1.7177
  948MOL0     H27924   9.266   2.597   7.229  1.3369 -0.4448 -0.5799
  948MOL0     H27925   9.074   2.723   7.154 -2.3081 -0.5232 -0.2663
  948MOL0     H27926   8.979   2.573   7.114 -2.9374  0.8910  0.3898
  948MOL0     H27927   9.060   2.615   7.396 -1.5003  1.9211  0.3545
  948MOL0     H27928   8.919   2.699   7.340 -1.6697 -0.5722 -0.6680
  948MOL0     H27929   8.957   2.394   7.320  0.9396  0.6220  0.7976
  948MOL0     H27930   8.812   2.486   7.256 -0.9677  0.5537  1.3806
  948MOL0     H27931   8.896   2.254   7.515  2.1241  1.3043 -2.8721
  948MOL0     H27932   8.793   2.187   7.736  1.1982  0.8920  1.9062
  948MOL0     H27933   8.721   2.314   7.841 -4.2075 -0.8154  0.9430
  948MOL0     H27934   8.566   2.110   7.789  0.6252  0.3433  0.4998
  948MOL0     H27935   8.551   2.211   7.642  0.7498  5.6931 -0.9852
  948MOL0     H27936   8.469   2.399   7.774 -2.4972 -1.2337 -0.1331
  948MOL0     H27937   8.532   2.350   7.918 -1.2483  1.5983 -0.5504
  948MOL0     H27938   8.276   2.243   7.794 -2.0710 -0.8764  2.1198
  948MOL0     H27939   8.300   2.311   7.956 -0.7470 -0.3930  0.5678
  948MOL0     H27940   8.368   1.873   8.028  0.4422  1.9742 -0.5005
  948MOL0     H27941   8.249   1.724   8.292 -3.5474 -3.0043  1.2958
  948MOL0     H27942   8.148   1.639   8.175  1.1777 -1.3053  1.2582
  948MOL0     H27943   8.309   1.661   8.139  0.8208 -1.4966  2.4248
  948MOL0     H27944   7.783   1.958   8.430 -0.2156  0.6407  0.1201
  948MOL0     H27945   7.683   1.941   8.669 -1.1581 -1.2488  2.1105
  948MOL0     H27946   7.687   1.547   8.857 -2.3474  0.7928 -2.5907
  948MOL0     H27947   7.822   1.616   8.957  1.1067  2.2581 -0.1502
  948MOL0     H27948   7.669   1.740   9.089 -0.5791 -1.1759  0.5662
  948MOL0     H27949   7.537   1.686   8.989 -0.2256  0.5042  0.6373
  948MOL0     H27950   7.652   1.554   9.218 -3.2760 -0.7937  1.5684
  948MOL0     H27951   7.677   1.446   9.092 -2.3310 -1.4914 -0.9869
  948MOL0     H27952   7.398   1.556   9.180  0.4934 -0.3137  1.1654
  948MOL0     H27953   7.428   1.465   9.043 -1.0225  1.4068  0.6920
  948MOL0     H27954   7.527   1.282   9.179 -1.2882 -2.1483  1.8522
  948MOL0     H27955   7.354   1.317   9.206  0.0160  0.4734 -3.2518
  948MOL0     H27956   7.603   1.402   9.361 -0.3863  1.5084  0.6305
  948MOL0     H27957   7.438   1.456   9.403  1.8365 -0.8539  2.6706
  948MOL0     H27958   7.567   1.181   9.402 -0.4291  1.3020 -1.5553
  948MOL0     H27959   7.390   1.197   9.419  0.2243 -1.0987 -3.1146
  948MOL0     H27960   7.614   1.316   9.599  0.7567 -1.7740 -0.2334
  948MOL0     H27961   7.534   1.179   9.638  2.7661  1.2544 -0.1605
  948MOL0     H27962   7.898   1.574   8.733 -0.8036  0.1684  0.4095
  948MOL0     H27963   8.009   1.613   8.530 -1.0747 -1.5253  0.7545
  948MOL0     H27964   7.926   2.083   8.087  1.8327  3.4096 -2.1087
  948MOL0     H27965   8.102   2.200   7.968  0.1044  1.0454  0.3201
  948MOL0     H27966   9.757   2.168   7.050 -0.3137 -0.4450  0.5781
  948MOL0     H27967   9.982   2.108   7.012 -1.8091 -0.6920  1.3219
  948MOL0     H27968  10.459   2.407   6.826  0.9533  0.6128  2.5357
  948MOL0     H27969  10.694   2.323   6.778  1.1681 -0.2574 -1.7426
  948MOL0     H27970  10.881   2.229   6.779 -2.6838  0.6300  0.4954
  948MOL0     H27971  10.837   2.157   6.929 -0.0947  1.5562 -1.3410
  948MOL0     H27972  11.037   1.996   6.755  1.5417 -1.2636  1.2783
  948MOL0     H27973  10.973   1.949   6.906 -1.3302 -0.4035 -1.9044
  948MOL0     H27974  11.094   2.135   7.023  0.0863  0.5656 -0.6898
  948MOL0     H27975  11.111   2.208   6.853 -0.6366 -1.1493 -2.9807
  948MOL0     H27976  11.248   2.007   6.803 -0.1071 -2.5867  0.0288
  948MOL0     H27977  11.219   1.937   6.965  3.2422 -0.9078 -1.3152
  948MOL0     H27978  11.487   2.251   7.086 -0.6593 -2.4521  3.0586
  948MOL0     H27979  10.546   1.942   6.688  4.7271  1.1661 -2.3941
  948MOL0     H27980  10.322   2.015   6.705 -0.1971 -0.8098  1.1770
  949MOL0     O27981   4.337   2.922  11.361 -0.0756  0.4652 -0.3772
  949MOL0     C27982   4.331   2.810  11.405 -0.2051  0.5402  0.4505
  949MOL0     O27983   4.216   2.733  11.403  0.0691  0.1612 -0.7589
  949MOL0     C27984   4.095   2.774  11.350 -0.8211 -0.7576 -0.0583
  949MOL0     C27985   4.078   2.833  11.221 -0.6166  0.3065  0.2229
  949MOL0     C27986   3.958   2.849  11.157 -0.4979 -0.6297 -0.1791
  949MOL0     C27987   3.845   2.840  11.245 -0.3991  0.4201  0.2828
  949MOL0     O27988   3.723   2.886  11.203 -0.5981 -0.6067 -0.0021
  949MOL0     C27989   3.697   2.887  11.057  0.0564  0.3499 -0.0738
  949MOL0     C27990   3.547   2.897  11.023 -0.5222  0.2128  0.0030
  949MOL0     C27991   3.480   3.022  11.073  0.4519 -0.7818 -0.4163
  949MOL0     C27992   3.326   3.026  11.040 -0.0484 -0.2969 -0.2158
  949MOL0     C27993   3.270   3.168  11.074 -0.0545 -0.3699  0.3754
  949MOL0     C27994   3.129   3.173  11.008 -0.0687  0.0520  0.4743
  949MOL0     C27995   3.078   3.319  11.024  0.4873  0.4267 -0.0075
  949MOL0     C27996   2.934   3.332  10.987 -0.0550  0.2031  0.5700
  949MOL0     N27997   2.884   3.459  11.043 -1.2784 -0.8835  0.1175
  949MOL0     C27998   2.805   3.455  11.156 -0.3093 -0.4212 -0.1118
  949MOL0     C27999   2.737   3.578  11.162  0.0694  0.8876  0.8139
  949MOL0     C28000   2.647   3.621  11.272  0.3712 -0.2199 -0.2845
  949MOL0     C28001   2.506   3.571  11.270 -0.4612  0.1627 -0.4819
  949MOL0     C28002   2.437   3.592  11.409 -0.2242 -0.2535  0.3847
  949MOL0     C28003   2.284   3.570  11.402  0.8575 -0.3093  0.7043
  949MOL0     O28004   2.224   3.546  11.532 -0.4745  0.1931 -0.2218
  949MOL0     C28005   2.091   3.532  11.549 -0.1717  0.0077  0.1145
  949MOL0     C28006   2.041   3.500  11.667  0.3301  0.2734 -0.2536
  949MOL0     C28007   1.900   3.468  11.693 -1.0792 -0.7843  0.7514
  949MOL0     C28008   1.863   3.449  11.834 -0.9262  0.6813 -0.2858
  949MOL0     C28009   1.811   3.482  11.589 -0.5618 -1.0594  0.3205
  949MOL0     C28010   1.672   3.452  11.603  1.4595  0.3916  1.0423
  949MOL0     O28011   1.601   3.508  11.715 -0.0660  0.5714  0.7728
  949MOL0     C28012   1.470   3.496  11.716 -0.3636  0.1209  0.5199
  949MOL0     C28013   1.421   3.402  11.803  0.3141 -0.7282 -0.2087
  949MOL0     C28014   1.279   3.389  11.807 -0.7909 -0.0062 -1.0298
  949MOL0     C28015   1.192   3.452  11.724 -0.8534  0.0795  0.6445
  949MOL0     O28016   1.057   3.440  11.735 -0.5886 -1.1390 -0.3133
  949MOL0     C28017   0.961   3.504  11.651 -0.2624  1.3986  0.5960
  949MOL0     C28018   0.842   3.410  11.636 -0.0331  0.4299  0.2208
  949MOL0     C28019   0.726   3.490  11.606 -0.2994 -0.7810 -0.4210
  949MOL0     C28020   0.597   3.412  11.581  0.0371 -0.2540 -0.4266
  949MOL0     C28021   0.486   3.502  11.519  0.2335 -0.3875 -0.1280
  949MOL0     C28022   0.382   3.416  11.455 -1.0499  0.3037  0.1197
  949MOL0     C28023   0.274   3.510  11.408 -0.3859  0.0316 -0.5653
  949MOL0     C28024   0.187   3.425  11.322  0.3694 -0.4533  0.2780
  949MOL0    Cl28025   0.068   3.535  11.264 -0.1908 -0.4115 -0.0011
  949MOL0     C28026   1.248   3.555  11.642 -0.4957 -0.1714 -0.9570
  949MOL0     C28027   1.386   3.578  11.642 -0.5152  0.1574 -0.1662
  949MOL0     O28028   1.623   3.387  11.511  0.2538 -0.1733  0.4802
  949MOL0     C28029   1.871   3.499  11.462 -0.0635 -0.2432  0.2770
  949MOL0     C28030   2.008   3.528  11.434  0.3785 -0.2551 -0.8004
  949MOL0     N28031   2.778   3.648  11.046  0.4754  0.9916 -0.0531
  949MOL0     N28032   2.864   3.577  10.984 -0.7713 -0.3696  0.2426
  949MOL0     C28033   3.857   2.820  11.378 -0.2191 -0.1092  0.0237
  949MOL0     C28034   3.984   2.780  11.430  0.3187  0.1959  0.4444
  949MOL0     C28035   4.451   2.749  11.463  0.5213  1.0041  0.0927
  949MOL0     C28036   4.573   2.811  11.471 -0.7463  0.5734 -0.4035
  949MOL0     C28037   4.671   2.749  11.549  0.4957  0.3158 -1.3253
  949MOL0     C28038   4.669   2.614  11.595 -0.4852  0.1925 -0.7445
  949MOL0     O28039   4.784   2.550  11.639 -0.1672 -1.0033 -0.1736
  949MOL0     C28040   4.791   2.421  11.693 -0.5168 -0.7930 -0.4810
  949MOL0     C28041   4.718   2.421  11.825  0.8059 -0.4324 -0.3548
  949MOL0     C28042   4.656   2.283  11.861  0.5916 -0.0680  1.0054
  949MOL0     C28043   4.627   2.271  12.007  0.3294 -0.1516  0.2767
  949MOL0     C28044   4.575   2.136  12.031  0.0282 -1.2711  0.4327
  949MOL0     C28045   4.523   2.028  12.020 -0.1333  0.1503  0.3455
  949MOL0     C28046   4.550   2.549  11.581 -0.6319  0.3310  0.0045
  949MOL0     C28047   4.444   2.616  11.521 -0.1882  1.1473 -0.3991
  949MOL0     H28048   4.171   2.855  11.169 -0.4747  1.6773  1.0196
  949MOL0     H28049   3.957   2.864  11.049  2.1592 -0.3102 -0.2214
  949MOL0     H28050   3.757   2.970  11.017  1.8821 -0.3757  1.0151
  949MOL0     H28051   3.746   2.798  11.016  0.1061  1.3300 -2.2924
  949MOL0     H28052   3.541   2.885  10.914 -1.4869 -0.8427  0.1472
  949MOL0     H28053   3.487   2.816  11.066 -2.3159  1.4599 -0.0267
  949MOL0     H28054   3.487   3.030  11.182 -0.0087  0.5776 -0.4683
  949MOL0     H28055   3.528   3.105  11.021 -0.3351  0.6430  1.0477
  949MOL0     H28056   3.314   3.011  10.932  0.9604 -1.8621 -0.1436
  949MOL0     H28057   3.264   2.955  11.095 -1.1115  1.1859  0.5528
  949MOL0     H28058   3.262   3.183  11.182 -0.4643 -1.7083  0.5527
  949MOL0     H28059   3.324   3.241  11.013 -2.8670  0.9768 -0.6705
  949MOL0     H28060   3.129   3.144  10.902 -1.4377  1.3030  0.0893
  949MOL0     H28061   3.076   3.107  11.077  0.1028  0.0538  0.6069
  949MOL0     H28062   3.095   3.361  11.123  0.7283  1.9612 -0.6783
  949MOL0     H28063   3.140   3.388  10.967  3.8925 -1.3134  1.2781
  949MOL0     H28064   2.881   3.241  11.018 -0.3712 -0.8092 -2.6223
  949MOL0     H28065   2.929   3.345  10.879  1.5834  1.8651  0.6363
  949MOL0     H28066   2.799   3.386  11.240  0.3162  2.2517  2.2690
  949MOL0     H28067   2.685   3.585  11.368 -3.6814 -1.4781  1.0453
  949MOL0     H28068   2.647   3.730  11.277  0.2507 -0.2041 -0.5800
  949MOL0     H28069   2.497   3.464  11.250  0.2064 -0.6474  2.8241
  949MOL0     H28070   2.445   3.633  11.204 -2.1113  2.5543  2.9704
  949MOL0     H28071   2.452   3.695  11.443 -2.2571  0.3026 -0.2660
  949MOL0     H28072   2.480   3.525  11.484 -1.3005 -1.5725 -0.1524
  949MOL0     H28073   2.265   3.486  11.334 -1.9614  0.7688  0.0366
  949MOL0     H28074   2.251   3.665  11.359  0.2943 -1.4265 -1.4493
  949MOL0     H28075   2.118   3.491  11.743  0.3553 -1.0707 -0.4159
  949MOL0     H28076   1.942   3.395  11.887 -1.3614 -1.7304 -1.9350
  949MOL0     H28077   1.828   3.534  11.893  1.2764  0.2584  1.7640
  949MOL0     H28078   1.778   3.380  11.836 -1.9829  1.8890 -1.4565
  949MOL0     H28079   1.486   3.339  11.863  1.0320  1.0498  0.9678
  949MOL0     H28080   1.248   3.323  11.887 -0.6636 -0.4657 -1.3561
  949MOL0     H28081   0.934   3.596  11.704  3.2108  2.5386  0.6298
  949MOL0     H28082   1.005   3.519  11.551 -2.1590 -1.8644 -0.8842
  949MOL0     H28083   0.869   3.341  11.556 -0.0901 -0.6769  1.1396
  949MOL0     H28084   0.815   3.359  11.729  0.2839 -0.1912 -0.0309
  949MOL0     H28085   0.746   3.555  11.520 -3.3780  1.3893  0.3152
  949MOL0     H28086   0.722   3.553  11.696  1.7726 -0.5939 -0.4068
  949MOL0     H28087   0.614   3.331  11.509 -0.1062 -0.8032  0.1526
  949MOL0     H28088   0.566   3.364  11.674 -0.2343  1.2098  0.2763
  949MOL0     H28089   0.520   3.570  11.440 -1.5738 -1.1224 -1.6232
  949MOL0     H28090   0.439   3.559  11.600  1.6061  1.1755 -0.3783
  949MOL0     H28091   0.417   3.360  11.368 -4.4214 -1.7418 -0.0801
  949MOL0     H28092   0.347   3.349  11.534 -0.0716  2.4371  2.5311
  949MOL0     H28093   0.316   3.593  11.350 -1.1766  0.7273 -0.1605
  949MOL0     H28094   0.215   3.547  11.493  0.0553 -0.8538  0.1463
  949MOL0     H28095   0.129   3.349  11.374 -3.6675  0.7636 -1.9601
  949MOL0     H28096   0.242   3.397  11.232 -2.1130  2.1509 -2.2936
  949MOL0     H28097   1.185   3.632  11.599 -1.3969 -0.0708  0.4623
  949MOL0     H28098   1.429   3.660  11.586 -2.8012  0.7518 -1.1353
  949MOL0     H28099   1.804   3.483  11.378  0.5998 -1.9523  0.0432
  949MOL0     H28100   2.033   3.536  11.328 -0.6325 -0.3838 -1.0563
  949MOL0     H28101   3.764   2.835  11.433 -0.2930  0.2157 -0.1875
  949MOL0     H28102   3.986   2.736  11.529  1.7113  0.2630  0.4630
  949MOL0     H28103   4.583   2.910  11.426 -1.9455  2.2786  2.7539
  949MOL0     H28104   4.765   2.802  11.560 -0.2916  1.3434  0.9784
  949MOL0     H28105   4.733   2.354  11.629  0.1554 -0.7583 -1.1403
  949MOL0     H28106   4.892   2.380  11.700  0.8856  1.9417 -2.6189
  949MOL0     H28107   4.626   2.481  11.816  1.6553  0.9880  0.1651
  949MOL0     H28108   4.783   2.455  11.905 -1.2778  0.6807  0.9667
  949MOL0     H28109   4.725   2.210  11.819 -1.2958 -0.6091 -1.4680
  949MOL0     H28110   4.563   2.253  11.810  1.1454  1.4443 -1.0413
  949MOL0     H28111   4.559   2.347  12.047  0.9612  0.8917 -0.5904
  949MOL0     H28112   4.718   2.284  12.066  0.3380  3.4563 -0.3347
  949MOL0     H28113   4.480   1.930  12.017 -1.8376  0.8681 -0.4211
  949MOL0     H28114   4.532   2.445  11.606  0.3785 -0.0326 -0.6844
  949MOL0     H28115   4.355   2.555  11.524 -0.7241  1.8556  2.8539
  950MOL0     O28116   9.668   9.625   8.302 -0.3885  1.1022 -0.0106
  950MOL0     C28117   9.694   9.518   8.356  0.0284  0.8545 -0.1229
  950MOL0     O28118   9.612   9.411   8.374 -0.1714  0.0155 -0.0451
  950MOL0     C28119   9.483   9.420   8.328  0.0387 -0.3895  0.2622
  950MOL0     C28120   9.440   9.325   8.233 -0.3396  0.3197  0.5174
  950MOL0     C28121   9.309   9.335   8.182 -0.1825 -0.0300 -0.2074
  950MOL0     C28122   9.216   9.439   8.225 -1.0652  0.0740 -0.2718
  950MOL0     O28123   9.089   9.433   8.183  0.2491 -0.4749  0.0699
  950MOL0     C28124   9.010   9.549   8.184 -0.1753  0.6299  0.1174
  950MOL0     C28125   8.868   9.519   8.122  0.0065 -0.1893  0.1639
  950MOL0     C28126   8.772   9.636   8.162 -0.5420  1.4552 -0.4053
  950MOL0     C28127   8.645   9.636   8.088 -0.1636 -0.6414 -0.3549
  950MOL0     C28128   8.545   9.740   8.140  0.0732  0.2924 -0.1758
  950MOL0     C28129   8.417   9.771   8.056 -0.4058  1.0638  0.8069
  950MOL0     C28130   8.296   9.672   8.071 -0.3360  0.6638  0.2568
  950MOL0     C28131   8.161   9.702   8.016 -0.9562 -0.1975  0.0216
  950MOL0     N28132   8.160   9.754   7.881 -0.1301 -0.0684 -0.3167
  950MOL0     C28133   8.077   9.855   7.843  0.0107 -0.3466  0.5628
  950MOL0     C28134   8.079   9.858   7.710  0.0204  1.4276  0.3640
  950MOL0     C28135   8.013   9.966   7.636  0.4895  0.1367  0.5749
  950MOL0     C28136   8.026  10.106   7.706  0.2689 -0.1979  0.5360
  950MOL0     C28137   7.966  10.210   7.606  0.0579  0.2178  0.1803
  950MOL0     C28138   7.817  10.221   7.605 -0.2167 -0.0554 -0.8424
  950MOL0     O28139   7.764  10.112   7.525 -0.2460 -0.6136  0.4391
  950MOL0     C28140   7.638  10.058   7.540  0.3521 -0.0230  0.3311
  950MOL0     C28141   7.609   9.948   7.462  0.0921  0.1152 -0.0144
  950MOL0     C28142   7.479   9.887   7.470  0.0560  0.1427  0.3790
  950MOL0     C28143   7.468   9.764   7.379 -0.9759  0.2204  0.0498
  950MOL0     C28144   7.369   9.950   7.533 -0.5624 -0.5877 -0.4446
  950MOL0     C28145   7.233   9.902   7.517  1.0476  0.2656  0.0666
  950MOL0     O28146   7.140  10.002   7.507  0.2996  0.2057 -0.3746
  950MOL0     C28147   7.004   9.981   7.498 -0.4987 -0.9506 -0.5874
  950MOL0     C28148   6.943   9.867   7.444 -0.2668  0.6637  0.2626
  950MOL0     C28149   6.804   9.867   7.430  0.3387 -0.1191 -0.1208
  950MOL0     C28150   6.720   9.980   7.456  0.8457  0.5856 -0.0591
  950MOL0     O28151   6.588   9.965   7.403 -0.6488 -0.6035 -0.1887
  950MOL0     C28152   6.487  10.036   7.471 -0.7524 -0.9077  0.5916
  950MOL0     C28153   6.370  10.018   7.391  0.3297 -0.1286 -0.2005
  950MOL0     C28154   6.247  10.100   7.455 -0.3376 -0.2455  0.2955
  950MOL0     C28155   6.129  10.086   7.362  0.3974  0.4952 -0.4171
  950MOL0     C28156   5.984  10.094   7.419  0.1268 -0.9667 -0.3005
  950MOL0     C28157   5.944  10.238   7.445 -0.0320  0.3861 -0.4783
  950MOL0     C28158   5.807  10.234   7.507  0.3457  0.2039 -0.3092
  950MOL0     C28159   5.759  10.371   7.555 -0.1597 -0.0293 -0.1124
  950MOL0    Cl28160   5.665  10.454   7.424 -0.0744 -0.0308  0.0279
  950MOL0     C28161   6.783  10.085   7.510 -0.1778  0.3934 -0.2453
  950MOL0     C28162   6.922  10.088   7.530  0.7952  0.3090  0.3909
  950MOL0     O28163   7.213   9.778   7.511 -0.2092 -0.5027 -0.1864
  950MOL0     C28164   7.403  10.056   7.605 -0.1018 -0.3219  0.8016
  950MOL0     C28165   7.529  10.110   7.611 -0.5761  0.0384  0.7200
  950MOL0     N28166   8.150   9.747   7.662 -0.5735 -0.1786 -0.1460
  950MOL0     N28167   8.211   9.690   7.771  0.5991 -0.4375 -0.2744
  950MOL0     C28168   9.263   9.527   8.323  0.2663  0.1624 -0.0997
  950MOL0     C28169   9.395   9.517   8.367  0.2169  0.3448  0.2233
  950MOL0     C28170   9.813   9.510   8.433 -0.7739 -0.3385  0.2365
  950MOL0     C28171   9.901   9.623   8.456  0.8637  0.3351  0.5942
  950MOL0     C28172   9.992   9.626   8.560  0.1125 -0.3782 -0.4269
  950MOL0     C28173  10.004   9.518   8.649  0.5198  0.7341  0.1251
  950MOL0     O28174  10.076   9.519   8.762 -0.0515  0.2616  0.3462
  950MOL0     C28175  10.188   9.613   8.782  0.2407  0.1711  0.4695
  950MOL0     C28176  10.143   9.734   8.856  0.3230 -0.4387  0.2482
  950MOL0     C28177  10.259   9.813   8.912 -0.1911 -0.1711  1.0744
  950MOL0     C28178  10.309   9.780   9.045  1.0249  0.2705 -0.3503
  950MOL0     C28179  10.389   9.656   9.060 -0.4886  0.2522 -0.0002
  950MOL0     C28180  10.455   9.553   9.075 -0.3288 -0.2539  0.0058
  950MOL0     C28181   9.939   9.402   8.614  1.0314  0.5018  0.3738
  950MOL0     C28182   9.849   9.393   8.509 -0.2451 -0.1860 -0.2727
  950MOL0     H28183   9.525   9.269   8.194 -0.5895 -0.1477  0.6360
  950MOL0     H28184   9.291   9.277   8.092  0.0734  0.4419 -0.5645
  950MOL0     H28185   8.995   9.581   8.287 -0.2606 -0.8208  0.5729
  950MOL0     H28186   9.056   9.627   8.123  0.0104  0.3853 -0.0606
  950MOL0     H28187   8.879   9.518   8.014 -0.1536  1.7769  0.0900
  950MOL0     H28188   8.832   9.419   8.148  0.5213 -0.5008 -0.3055
  950MOL0     H28189   8.746   9.625   8.267  0.7655  0.4469 -0.1572
  950MOL0     H28190   8.823   9.731   8.143  3.3403 -0.3557 -0.1384
  950MOL0     H28191   8.675   9.665   7.986  3.8750  1.4511  1.1881
  950MOL0     H28192   8.595   9.539   8.089 -0.7279 -0.3557  0.9058
  950MOL0     H28193   8.506   9.716   8.239 -1.9130  0.5138 -0.8621
  950MOL0     H28194   8.596   9.835   8.159  2.6819 -1.5939  3.6206
  950MOL0     H28195   8.377   9.868   8.087 -2.1856  1.2628 -1.7462
  950MOL0     H28196   8.438   9.786   7.950 -1.2036 -1.2706  0.2570
  950MOL0     H28197   8.327   9.589   8.006  1.4736  0.3232  1.4936
  950MOL0     H28198   8.281   9.637   8.173 -1.1607 -1.2649 -0.4725
  950MOL0     H28199   8.110   9.775   8.078  1.1556 -1.4897  3.5791
  950MOL0     H28200   8.105   9.608   8.016 -2.7098  0.8024  0.8388
  950MOL0     H28201   8.023   9.924   7.908 -2.7046 -1.4123 -0.4253
  950MOL0     H28202   8.070   9.979   7.543  2.0796 -1.6006  1.2345
  950MOL0     H28203   7.914   9.933   7.602  1.2911  1.6626 -3.9226
  950MOL0     H28204   8.132  10.128   7.721  0.1199 -0.2717  1.8797
  950MOL0     H28205   7.972  10.113   7.801 -0.7443  2.2369 -0.1651
  950MOL0     H28206   8.003  10.199   7.504  1.1329 -2.0885  0.7663
  950MOL0     H28207   8.001  10.305   7.646  0.4097 -1.1282  3.3828
  950MOL0     H28208   7.784  10.317   7.564  0.3608 -0.1357 -1.5239
  950MOL0     H28209   7.777  10.213   7.707 -2.1126 -2.9308 -1.6961
  950MOL0     H28210   7.693   9.907   7.408  1.0141  1.3644  0.4233
  950MOL0     H28211   7.399   9.777   7.295 -0.3612 -0.1782 -0.5275
  950MOL0     H28212   7.567   9.738   7.341  0.6401  1.7539  2.8840
  950MOL0     H28213   7.420   9.681   7.432 -3.0619  2.6417  2.2108
  950MOL0     H28214   6.996   9.774   7.430 -0.1957  0.9025 -1.1616
  950MOL0     H28215   6.751   9.787   7.379  0.2891 -0.8105  0.9736
  950MOL0     H28216   6.470  10.011   7.576  2.8018 -1.8402  1.0757
  950MOL0     H28217   6.516  10.141   7.460  0.5779 -1.2426  0.7283
  950MOL0     H28218   6.386  10.043   7.286  0.6763 -1.2488 -0.4279
  950MOL0     H28219   6.348   9.911   7.389 -2.6862  0.4031 -0.6547
  950MOL0     H28220   6.253  10.209   7.463 -1.3984 -0.1474 -0.0984
  950MOL0     H28221   6.224  10.057   7.553 -0.6078 -1.0804 -0.1250
  950MOL0     H28222   6.153  10.155   7.281 -0.2233  0.5929 -0.5236
  950MOL0     H28223   6.135   9.983   7.326 -0.5579 -0.2036  1.3428
  950MOL0     H28224   5.975  10.048   7.518 -0.1861  0.9006  0.5693
  950MOL0     H28225   5.928  10.044   7.339  1.3411 -2.0807 -0.4899
  950MOL0     H28226   6.014  10.274   7.521 -1.7751 -2.5883  2.8665
  950MOL0     H28227   5.945  10.302   7.357 -1.5182 -0.1681 -0.9331
  950MOL0     H28228   5.821  10.179   7.600  0.6164  2.0257  0.7521
  950MOL0     H28229   5.729  10.203   7.435  0.0803  1.9888 -0.8373
  950MOL0     H28230   5.837  10.446   7.569 -1.2746  2.0802 -3.8784
  950MOL0     H28231   5.697  10.352   7.643  1.1337  2.0727  1.3276
  950MOL0     H28232   6.732  10.180   7.526 -2.3940 -0.3436 -2.2842
  950MOL0     H28233   6.960  10.183   7.565  2.6103 -0.7145  1.3546
  950MOL0     H28234   7.332  10.110   7.666 -0.8019 -2.8384  2.3862
  950MOL0     H28235   7.556  10.204   7.659 -0.2202  2.1991 -3.2363
  950MOL0     H28236   9.208   9.605   8.374  3.0055  0.2329  3.1300
  950MOL0     H28237   9.438   9.586   8.439  2.9499 -2.3544  1.3998
  950MOL0     H28238   9.890   9.713   8.396  0.9703  1.6621  2.4725
  950MOL0     H28239  10.056   9.714   8.568 -0.2530 -0.1088 -0.4548
  950MOL0     H28240  10.264   9.567   8.845  1.7094  1.2488 -0.4345
  950MOL0     H28241  10.233   9.642   8.686 -2.1090  1.1822 -0.4056
  950MOL0     H28242  10.068   9.700   8.928 -1.5730 -4.1855 -3.1085
  950MOL0     H28243  10.084   9.788   8.781 -0.6374 -2.1839 -0.3122
  950MOL0     H28244  10.224   9.916   8.914  1.4121  0.4323  0.1424
  950MOL0     H28245  10.336   9.811   8.834 -2.4726  0.3709 -1.3627
  950MOL0     H28246  10.218   9.769   9.104 -1.0005 -0.5335 -3.4066
  950MOL0     H28247  10.364   9.861   9.094 -1.2383  0.7321  1.6164
  950MOL0     H28248  10.520   9.467   9.075 -0.7660 -0.6085 -1.4369
  950MOL0     H28249   9.961   9.315   8.674  4.9421 -0.1628 -1.6931
  950MOL0     H28250   9.784   9.307   8.500  1.1067 -1.3647  0.7197
  951MOL0     O28251  10.495   4.706   6.895 -0.7406 -0.1814  0.2477
  951MOL0     C28252  10.440   4.594   6.889 -0.0894  0.6684  0.0614
  951MOL0     O28253  10.337   4.565   6.813 -0.4653 -0.1569  0.0579
  951MOL0     C28254  10.274   4.670   6.754  0.7238 -0.9052 -0.0646
  951MOL0     C28255  10.131   4.683   6.762  0.3245 -0.2222  0.8693
  951MOL0     C28256  10.067   4.787   6.685 -0.3072  0.1289 -0.1780
  951MOL0     C28257  10.133   4.865   6.588 -0.7337  0.6701  0.6323
  951MOL0     O28258  10.057   4.944   6.504 -0.3182  0.4845 -0.2613
  951MOL0     C28259  10.131   5.032   6.411  0.3320 -0.2512 -0.3743
  951MOL0     C28260  10.051   5.107   6.304  0.3044  0.7467  0.5871
  951MOL0     C28261   9.926   5.177   6.361  0.3173 -0.3459 -0.2999
  951MOL0     C28262   9.841   5.223   6.247 -0.6453 -0.1038  0.0583
  951MOL0     C28263   9.714   5.291   6.297 -0.3351 -1.1198 -0.1932
  951MOL0     C28264   9.599   5.277   6.188 -0.2453 -0.5934 -0.0232
  951MOL0     C28265   9.463   5.335   6.235  0.7009 -0.1999  0.0934
  951MOL0     C28266   9.471   5.485   6.252  0.2879 -0.4595  0.5758
  951MOL0     N28267   9.337   5.539   6.291  0.1316 -0.1574  0.9126
  951MOL0     C28268   9.288   5.534   6.417  0.3938 -0.7846 -0.1318
  951MOL0     C28269   9.167   5.589   6.414  0.5481 -0.2663 -0.7839
  951MOL0     C28270   9.058   5.590   6.522 -0.1971  0.2524 -0.8152
  951MOL0     C28271   9.016   5.449   6.591 -0.6038  0.6062  0.1692
  951MOL0     C28272   8.967   5.348   6.499 -0.5475  0.4228  0.3398
  951MOL0     C28273   8.832   5.379   6.436 -0.4532  0.4343  0.7208
  951MOL0     O28274   8.747   5.415   6.543 -0.0690  0.4726  0.2034
  951MOL0     C28275   8.620   5.462   6.508 -0.2357 -0.4827  0.5222
  951MOL0     C28276   8.536   5.506   6.610 -0.0775  0.6200 -0.6952
  951MOL0     C28277   8.402   5.549   6.592  0.2275 -0.5266  0.6280
  951MOL0     C28278   8.324   5.579   6.730  0.3818  0.7853 -0.1394
  951MOL0     C28279   8.348   5.549   6.468 -0.8276  0.1299  0.8665
  951MOL0     C28280   8.202   5.571   6.428  0.7574 -0.3249  0.4325
  951MOL0     O28281   8.119   5.573   6.534  0.0269  0.2406 -0.1250
  951MOL0     C28282   7.990   5.615   6.518  0.1263 -0.5790 -0.2892
  951MOL0     C28283   7.884   5.595   6.425  0.1060 -0.1990 -0.4061
  951MOL0     C28284   7.767   5.663   6.429 -0.4667 -0.1424 -0.1702
  951MOL0     C28285   7.732   5.741   6.542 -0.3829 -0.1027 -0.9723
  951MOL0     O28286   7.610   5.803   6.575  0.2240  1.0581  0.0025
  951MOL0     C28287   7.496   5.737   6.508 -0.2266 -0.0108 -0.2173
  951MOL0     C28288   7.454   5.815   6.385 -0.0759 -0.0489  0.0619
  951MOL0     C28289   7.317   5.764   6.334  0.0359 -0.0927 -0.4026
  951MOL0     C28290   7.289   5.832   6.200 -0.6565  0.2206  0.2232
  951MOL0     C28291   7.141   5.816   6.154  0.3368 -0.2022 -0.1122
  951MOL0     C28292   7.093   5.917   6.053  0.5706  0.7566  1.1602
  951MOL0     C28293   6.938   5.935   6.052 -0.4336  0.3750  0.6778
  951MOL0     C28294   6.906   6.066   5.968 -0.0460  0.2466 -0.4006
  951MOL0    Cl28295   6.959   6.051   5.787 -0.0169  0.3741  0.0503
  951MOL0     C28296   7.826   5.742   6.645 -0.0393  0.4698 -0.9945
  951MOL0     C28297   7.958   5.695   6.628 -0.4776 -0.3184 -0.3098
  951MOL0     O28298   8.172   5.577   6.309  0.0239 -0.3613  0.7817
  951MOL0     C28299   8.429   5.504   6.358 -0.4302  0.3557  0.5460
  951MOL0     C28300   8.558   5.469   6.383  0.0575 -0.0673 -0.0092
  951MOL0     N28301   9.150   5.644   6.289 -0.2984  0.6871 -0.7218
  951MOL0     N28302   9.254   5.622   6.211  0.3370 -0.2201  0.4985
  951MOL0     C28303  10.276   4.853   6.583  0.2459  0.1128  0.4625
  951MOL0     C28304  10.345   4.758   6.667  0.7028  0.3956  0.5587
  951MOL0     C28305  10.515   4.484   6.943 -0.6099 -0.4153 -0.2801
  951MOL0     C28306  10.654   4.495   6.983 -1.5635  0.0338 -0.1640
  951MOL0     C28307  10.725   4.378   7.024  0.6360  0.3283  0.4995
  951MOL0     C28308  10.661   4.256   7.034 -1.1520 -0.1100  0.0721
  951MOL0     O28309  10.739   4.161   7.085  0.3288  0.3800 -0.1594
  951MOL0     C28310  10.745   4.043   7.007 -0.3509 -0.2648 -0.1285
  951MOL0     C28311  10.876   3.973   7.034  0.0599  0.5358 -0.3002
  951MOL0     C28312  10.862   3.900   7.171  0.6306  0.3293  0.9941
  951MOL0     C28313  10.967   3.786   7.209  0.2051 -0.3510 -0.4149
  951MOL0     C28314  11.009   3.766   7.348 -0.2875  0.1816  0.2699
  951MOL0     C28315  11.044   3.758   7.461  0.5696 -0.8262 -0.1351
  951MOL0     C28316  10.533   4.247   6.994 -0.3427  0.5581  0.0661
  951MOL0     C28317  10.459   4.353   6.952  0.0446  0.2771 -0.4137
  951MOL0     H28318  10.068   4.619   6.823 -0.2607 -2.7539 -2.1587
  951MOL0     H28319   9.960   4.804   6.698 -0.2602  0.0858  0.2934
  951MOL0     H28320  10.180   5.112   6.467  0.1511 -0.5424  0.2115
  951MOL0     H28321  10.220   4.987   6.365  0.3566 -0.1708 -0.4065
  951MOL0     H28322  10.126   5.171   6.256  1.5389  0.2373  1.7474
  951MOL0     H28323  10.019   5.040   6.225 -0.0155  1.3739  0.1784
  951MOL0     H28324   9.870   5.112   6.429 -0.6352 -0.7750 -1.4535
  951MOL0     H28325   9.942   5.273   6.410  1.4747 -0.7808  0.2192
  951MOL0     H28326   9.897   5.291   6.183 -1.8624  0.7671 -0.1176
  951MOL0     H28327   9.820   5.130   6.192 -0.4811 -1.8675  2.7766
  951MOL0     H28328   9.684   5.256   6.396 -2.5327  0.5202 -0.2002
  951MOL0     H28329   9.741   5.397   6.300 -1.1484 -0.9241  0.3515
  951MOL0     H28330   9.635   5.323   6.095 -2.3521  1.6909  0.1868
  951MOL0     H28331   9.585   5.169   6.174 -3.2553  0.0836 -4.6037
  951MOL0     H28332   9.386   5.305   6.163 -0.2827  0.7105  0.7391
  951MOL0     H28333   9.421   5.296   6.328  0.0869 -0.5646 -0.3244
  951MOL0     H28334   9.502   5.548   6.168  1.5050  1.1026  2.1112
  951MOL0     H28335   9.537   5.509   6.336  1.6269 -0.2377 -0.5087
  951MOL0     H28336   9.324   5.481   6.504  2.0628 -1.3757 -1.1508
  951MOL0     H28337   9.095   5.653   6.603 -0.3795  0.4736 -0.9010
  951MOL0     H28338   8.976   5.642   6.473  0.3949  1.7475 -0.2751
  951MOL0     H28339   8.935   5.461   6.664 -1.2841 -1.1057 -0.2560
  951MOL0     H28340   9.100   5.403   6.645  1.4316 -1.3411 -4.1877
  951MOL0     H28341   8.968   5.259   6.562  3.0295  1.7287  2.4703
  951MOL0     H28342   9.042   5.341   6.420 -0.2912  2.6609  0.3153
  951MOL0     H28343   8.799   5.285   6.390  1.0909 -0.3805  1.2175
  951MOL0     H28344   8.843   5.450   6.353  1.5627  0.9176  1.3630
  951MOL0     H28345   8.577   5.492   6.709  0.7608 -0.7943 -1.2103
  951MOL0     H28346   8.260   5.666   6.714 -3.5695 -0.7474  4.7989
  951MOL0     H28347   8.263   5.493   6.757 -1.2494  2.4166  1.6877
  951MOL0     H28348   8.396   5.602   6.809  0.7562 -1.1896  0.1413
  951MOL0     H28349   7.889   5.534   6.335 -1.3766  0.8385 -1.2472
  951MOL0     H28350   7.706   5.661   6.340  3.3351  0.4627 -3.0629
  951MOL0     H28351   7.506   5.629   6.497  0.8246 -0.2613  2.4196
  951MOL0     H28352   7.418   5.749   6.585 -0.4307 -0.3301 -0.3706
  951MOL0     H28353   7.446   5.920   6.414  0.3143 -0.2755  1.0191
  951MOL0     H28354   7.527   5.813   6.304  0.3840  1.7325  0.3920
  951MOL0     H28355   7.230   5.770   6.401  0.6953  1.3335  0.3588
  951MOL0     H28356   7.340   5.659   6.311 -1.2860 -0.6277  0.5419
  951MOL0     H28357   7.312   5.939   6.201 -1.4020  0.3907  1.6725
  951MOL0     H28358   7.363   5.789   6.132 -1.8706 -1.7468  0.0789
  951MOL0     H28359   7.074   5.814   6.240 -2.0921 -1.4126 -1.9346
  951MOL0     H28360   7.131   5.713   6.118 -5.4079 -0.5065  1.4643
  951MOL0     H28361   7.137   6.016   6.066 -1.4943  2.1663 -1.4434
  951MOL0     H28362   7.135   5.894   5.955 -1.7099 -1.0640  0.5356
  951MOL0     H28363   6.897   5.945   6.153 -1.1064  4.4896  0.1685
  951MOL0     H28364   6.890   5.846   6.009  1.4290 -1.8828  2.9487
  951MOL0     H28365   6.948   6.154   6.019  0.7023  0.9667 -2.1855
  951MOL0     H28366   6.799   6.083   5.959 -0.1918 -0.0433  0.6011
  951MOL0     H28367   7.807   5.798   6.737  0.2161 -0.6714 -0.2255
  951MOL0     H28368   8.028   5.723   6.706  1.3235 -0.8843 -1.6552
  951MOL0     H28369   8.389   5.494   6.257 -1.5993 -1.3966  1.1289
  951MOL0     H28370   8.598   5.421   6.295 -0.2428  1.5089 -1.0377
  951MOL0     H28371  10.336   4.928   6.532  0.2181 -0.0459  0.1962
  951MOL0     H28372  10.453   4.752   6.672  0.7449 -1.0185 -0.9609
  951MOL0     H28373  10.712   4.587   6.977 -1.0688 -0.2767 -0.1968
  951MOL0     H28374  10.826   4.386   7.063  0.3852  2.9866  0.8512
  951MOL0     H28375  10.669   3.967   7.028  1.4756 -2.7422 -1.9102
  951MOL0     H28376  10.740   4.078   6.903 -2.9666 -1.6721 -0.5726
  951MOL0     H28377  10.957   4.047   7.043  1.6818 -1.3729  2.2883
  951MOL0     H28378  10.895   3.907   6.950  2.9974  1.0140 -0.1363
  951MOL0     H28379  10.767   3.847   7.183  1.8337 -1.8826  1.3447
  951MOL0     H28380  10.879   3.976   7.247 -0.4210  0.8053  0.7711
  951MOL0     H28381  11.061   3.831   7.175  1.9052 -1.0690  2.9252
  951MOL0     H28382  10.948   3.688   7.163 -0.5677 -0.4310  0.0664
  951MOL0     H28383  11.084   3.753   7.561  1.4893 -0.0577 -0.4513
  951MOL0     H28384  10.487   4.149   6.987  4.1522 -1.7534 -0.3798
  951MOL0     H28385  10.360   4.342   6.909 -1.0892 -1.5023  2.3451
  952MOL0     O28386  10.022   7.257  11.170  0.0941 -0.0709  0.6525
  952MOL0     C28387  10.090   7.351  11.195  1.4671 -0.0626 -0.3156
  952MOL0     O28388  10.046   7.468  11.256 -0.0077 -0.1334  0.0168
  952MOL0     C28389   9.906   7.500  11.256 -0.6005 -0.0914  0.1980
  952MOL0     C28390   9.846   7.573  11.148 -0.2348  0.3447  0.4558
  952MOL0     C28391   9.707   7.584  11.142 -1.2951 -0.2651 -0.2226
  952MOL0     C28392   9.629   7.534  11.247  0.2294 -1.2432 -0.7764
  952MOL0     O28393   9.487   7.545  11.241 -0.1556  0.3222 -0.9577
  952MOL0     C28394   9.409   7.482  11.339  0.1284 -0.0982  0.5102
  952MOL0     C28395   9.256   7.501  11.294  0.2721 -0.1632  0.1316
  952MOL0     C28396   9.151   7.447  11.403  0.2527  0.4531  0.4565
  952MOL0     C28397   9.024   7.384  11.342  0.2789 -0.2064  0.5302
  952MOL0     C28398   8.952   7.283  11.423  0.8922  0.0594  0.3619
  952MOL0     C28399   8.896   7.345  11.547 -0.5385 -0.0554  1.0528
  952MOL0     C28400   8.825   7.238  11.634 -0.2714 -0.0954 -0.9846
  952MOL0     C28401   8.827   7.288  11.786  0.8094 -0.5717 -0.2668
  952MOL0     N28402   8.735   7.395  11.823  0.3228  1.2906  1.0347
  952MOL0     C28403   8.781   7.523  11.842 -0.1078 -0.3414 -1.0303
  952MOL0     C28404   8.674   7.588  11.896  0.7727  0.2544 -0.1968
  952MOL0     C28405   8.658   7.738  11.926  0.6470  0.9595 -0.9474
  952MOL0     C28406   8.691   7.764  12.076 -1.3227 -0.6434  0.4108
  952MOL0     C28407   8.665   7.907  12.122 -1.4213  0.2201  0.2106
  952MOL0     C28408   8.738   7.952  12.245  0.0421 -1.0798  0.6778
  952MOL0     O28409   8.698   8.086  12.275 -0.0809  0.4476  0.2593
  952MOL0     C28410   8.587   8.107  12.350  0.2018 -0.4858 -1.0203
  952MOL0     C28411   8.566   8.242  12.400 -0.8621  0.1882  0.1241
  952MOL0     C28412   8.455   8.286  12.474 -0.0666  0.2969 -0.0897
  952MOL0     C28413   8.460   8.428  12.543  0.0667  0.7281  0.2786
  952MOL0     C28414   8.349   8.187  12.494 -0.1545 -0.5289 -0.0702
  952MOL0     C28415   8.237   8.231  12.576  0.5522 -0.3025 -0.2830
  952MOL0     O28416   8.190   8.353  12.553 -0.1754 -1.1400 -0.0150
  952MOL0     C28417   8.072   8.396  12.606 -0.5727 -0.0888 -0.1702
  952MOL0     C28418   8.065   8.435  12.747 -0.2935  0.2262  0.0966
  952MOL0     C28419   7.943   8.470  12.809 -0.5409 -0.0886  0.2480
  952MOL0     C28420   7.828   8.471  12.731  0.4713  0.7176  0.3415
  952MOL0     O28421   7.698   8.491  12.782 -0.0082 -0.5198 -0.2979
  952MOL0     C28422   7.671   8.425  12.911  0.1948  0.0554 -0.4428
  952MOL0     C28423   7.518   8.412  12.924 -0.2239  0.0440 -0.2517
  952MOL0     C28424   7.438   8.523  13.003  0.2864 -0.2850  0.3513
  952MOL0     C28425   7.298   8.476  13.030  1.1566  0.1631  0.2313
  952MOL0     C28426   7.232   8.564  13.134 -0.0582 -0.0340 -0.0532
  952MOL0     C28427   7.193   8.709  13.084  0.0990 -0.0170  0.9214
  952MOL0     C28428   7.138   8.812  13.177 -0.2199  0.3593  0.4009
  952MOL0     C28429   7.255   8.836  13.282 -0.2742  0.6145  0.1618
  952MOL0    Cl28430   7.235   8.991  13.385 -0.1817  0.2411 -0.4888
  952MOL0     C28431   7.837   8.437  12.594 -0.5192  1.0147  1.4169
  952MOL0     C28432   7.955   8.403  12.537  0.5978 -0.4583  0.3185
  952MOL0     O28433   8.197   8.149  12.656 -0.0344  0.1246  0.0830
  952MOL0     C28434   8.364   8.060  12.440  0.1421 -0.0050 -0.3432
  952MOL0     C28435   8.477   8.020  12.375  0.6559 -0.3572  0.3321
  952MOL0     N28436   8.562   7.503  11.901  0.6797 -0.5478 -0.5748
  952MOL0     N28437   8.605   7.389  11.859  0.4411  0.6453 -0.3903
  952MOL0     C28438   9.691   7.456  11.349  0.1825  1.2776  0.6106
  952MOL0     C28439   9.829   7.437  11.355 -0.0050 -0.3113  0.1448
  952MOL0     C28440  10.233   7.328  11.170  0.6905  0.4411  0.1952
  952MOL0     C28441  10.273   7.225  11.080 -0.0705 -0.3248  0.1344
  952MOL0     C28442  10.406   7.210  11.053 -0.0944 -0.3595  0.4776
  952MOL0     C28443  10.505   7.293  11.108 -0.1656 -0.0226  0.0768
  952MOL0     O28444  10.636   7.267  11.072 -0.6437  0.0018  0.2183
  952MOL0     C28445  10.726   7.378  11.077  0.1393 -0.3231  0.0643
  952MOL0     C28446  10.862   7.349  11.008 -0.4349  0.0578 -1.0530
  952MOL0     C28447  10.916   7.470  10.927  0.1195 -0.1085  0.3991
  952MOL0     C28448  11.020   7.407  10.830 -0.6339 -0.7740 -0.0841
  952MOL0     C28449  11.099   7.508  10.758  0.7131  0.1395  0.0767
  952MOL0     C28450  11.163   7.595  10.703 -0.6689  0.0244  0.0047
  952MOL0     C28451  10.468   7.386  11.208 -0.5737  0.3637  0.4345
  952MOL0     C28452  10.329   7.404  11.238 -0.0356 -0.4999 -0.1495
  952MOL0     H28453   9.903   7.609  11.063  1.8403 -0.6512  1.3280
  952MOL0     H28454   9.657   7.644  11.067 -1.0881 -1.4243 -1.3107
  952MOL0     H28455   9.431   7.375  11.340  1.3109  0.1374  1.0205
  952MOL0     H28456   9.429   7.534  11.434  1.2668 -0.5010  0.4977
  952MOL0     H28457   9.226   7.605  11.283 -0.0690 -0.4736 -2.4984
  952MOL0     H28458   9.236   7.456  11.197  2.5575  1.7894 -1.3601
  952MOL0     H28459   9.199   7.365  11.458 -0.3944  1.5318  2.7338
  952MOL0     H28460   9.140   7.536  11.465 -1.8084  1.2296 -0.9066
  952MOL0     H28461   8.955   7.461  11.306  1.7816  0.4717 -1.0189
  952MOL0     H28462   9.055   7.328  11.253  0.0384 -0.1397  0.4031
  952MOL0     H28463   8.876   7.235  11.361  2.3463  0.7959 -2.1347
  952MOL0     H28464   9.010   7.199  11.463 -2.6588 -2.2584  1.0841
  952MOL0     H28465   8.981   7.397  11.591 -0.1975 -0.8931  1.3927
  952MOL0     H28466   8.832   7.432  11.526 -0.1056  0.4894  1.9424
  952MOL0     H28467   8.721   7.244  11.600 -1.2701  5.0680  1.8430
  952MOL0     H28468   8.865   7.137  11.629 -1.6899 -0.9344  2.0275
  952MOL0     H28469   8.928   7.313  11.820  1.0706 -2.3525  0.3740
  952MOL0     H28470   8.796   7.207  11.853 -2.6130  0.3065 -0.6035
  952MOL0     H28471   8.875   7.569  11.815 -0.7146  0.7876 -1.2857
  952MOL0     H28472   8.726   7.797  11.864 -2.2813  1.8600 -3.5770
  952MOL0     H28473   8.553   7.764  11.912 -0.3747 -2.0192  0.3985
  952MOL0     H28474   8.799   7.743  12.080 -1.0848  0.3753 -0.3241
  952MOL0     H28475   8.644   7.697  12.149 -1.2215 -0.1137  0.9655
  952MOL0     H28476   8.556   7.912  12.132 -1.6868 -4.0579  1.6131
  952MOL0     H28477   8.699   7.981  12.050  0.3193 -0.3795  0.3676
  952MOL0     H28478   8.846   7.956  12.230  0.1215 -0.7828  1.3039
  952MOL0     H28479   8.706   7.883  12.324 -0.7528  1.0951  2.3344
  952MOL0     H28480   8.641   8.319  12.382  1.1454 -1.9286 -1.0824
  952MOL0     H28481   8.465   8.406  12.650 -0.1221 -3.0240 -0.3414
  952MOL0     H28482   8.552   8.474  12.505  0.9051 -1.1170 -0.0768
  952MOL0     H28483   8.371   8.488  12.528 -2.6334 -2.8125  0.7573
  952MOL0     H28484   8.162   8.440  12.796  0.9832  0.9979 -2.3337
  952MOL0     H28485   7.944   8.502  12.913 -7.4619  1.8079  0.2296
  952MOL0     H28486   7.719   8.328  12.900  0.9672  0.3636  0.1453
  952MOL0     H28487   7.720   8.469  12.998  2.2810 -4.0134  0.6685
  952MOL0     H28488   7.473   8.398  12.825  0.1766 -2.7311 -0.1277
  952MOL0     H28489   7.502   8.317  12.975  1.6266 -1.6782 -2.6395
  952MOL0     H28490   7.423   8.619  12.954 -4.3956 -0.8395  0.3268
  952MOL0     H28491   7.487   8.528  13.101  1.5389 -2.7188 -0.0732
  952MOL0     H28492   7.243   8.467  12.937 -0.0377 -1.4844  1.0556
  952MOL0     H28493   7.296   8.378  13.079 -3.3069 -0.4172 -0.7001
  952MOL0     H28494   7.289   8.567  13.227  0.0802  1.8801 -0.1521
  952MOL0     H28495   7.140   8.520  13.173  0.4222  1.1207  2.5852
  952MOL0     H28496   7.290   8.746  13.049 -0.1050 -0.2797  0.0483
  952MOL0     H28497   7.131   8.710  12.994  0.0952 -2.4545  0.8224
  952MOL0     H28498   7.047   8.787  13.233  0.6029  0.7671  1.9968
  952MOL0     H28499   7.130   8.902  13.116  5.5560  0.4507 -0.7595
  952MOL0     H28500   7.357   8.832  13.241 -0.1514  1.3964  0.3821
  952MOL0     H28501   7.248   8.750  13.349  1.3114  1.5860  1.6648
  952MOL0     H28502   7.751   8.443  12.527  0.8715  1.0081 -0.4363
  952MOL0     H28503   7.956   8.376  12.432 -1.4657  1.9273 -0.4042
  952MOL0     H28504   8.277   7.997  12.452 -0.4169  0.8089 -0.0048
  952MOL0     H28505   8.494   7.917  12.344  0.4539 -0.5149  0.7410
  952MOL0     H28506   9.632   7.393  11.414  0.7784 -0.1624 -0.2012
  952MOL0     H28507   9.878   7.366  11.421  0.4227  0.0301  0.1974
  952MOL0     H28508  10.201   7.161  11.030  0.7269 -0.2971 -1.0820
  952MOL0     H28509  10.419   7.125  10.986  0.8383  0.1220  0.0406
  952MOL0     H28510  10.688   7.469  11.029  2.7645  0.0371 -1.5433
  952MOL0     H28511  10.736   7.398  11.184 -2.7601 -2.0835  0.7649
  952MOL0     H28512  10.859   7.253  10.956  0.9088 -0.5803 -0.0268
  952MOL0     H28513  10.937   7.333  11.086 -1.0362  0.5559 -0.3562
  952MOL0     H28514  10.955   7.549  10.991  0.8255  2.0399 -2.4727
  952MOL0     H28515  10.841   7.516  10.862  3.1501  3.4363 -0.9327
  952MOL0     H28516  10.977   7.334  10.760  2.2648 -1.2539 -1.5339
  952MOL0     H28517  11.103   7.361  10.884  0.1585 -1.1460 -1.5594
  952MOL0     H28518  11.211   7.682  10.662  1.1862  1.4232  4.5393
  952MOL0     H28519  10.547   7.443  11.256  0.0096  0.3520 -0.4804
  952MOL0     H28520  10.292   7.478  11.308 -2.9823 -0.8889 -1.1334
  953MOL0     O28521   7.426   7.149  10.243 -0.8306 -0.0053  0.4650
  953MOL0     C28522   7.414   7.060  10.156  0.9252  0.8980 -0.5369
  953MOL0     O28523   7.298   7.025  10.092 -0.1050  0.0480 -0.0074
  953MOL0     C28524   7.198   7.129  10.104  0.3252 -0.4079  0.8844
  953MOL0     C28525   7.215   7.258  10.048  0.0112 -0.5437 -0.5441
  953MOL0     C28526   7.122   7.369  10.054  0.1020  0.5883  0.8427
  953MOL0     C28527   7.001   7.341  10.119  0.4967  0.3417 -0.1818
  953MOL0     O28528   6.904   7.445  10.129 -0.5849  0.6425  0.0793
  953MOL0     C28529   6.772   7.398  10.094  0.1609 -0.7903 -1.0697
  953MOL0     C28530   6.684   7.520  10.086  0.8363 -0.5161  0.4270
  953MOL0     C28531   6.544   7.475  10.053  0.4983 -0.3692  0.2211
  953MOL0     C28532   6.442   7.588  10.058 -0.3565 -0.1915  0.0510
  953MOL0     C28533   6.297   7.544  10.026 -0.5120 -0.2394 -0.3916
  953MOL0     C28534   6.195   7.660  10.056  0.4593  0.5543 -0.1876
  953MOL0     C28535   6.054   7.602  10.047  0.0066  0.2850 -0.1202
  953MOL0     C28536   5.952   7.714  10.047  0.6016 -0.5615 -0.6427
  953MOL0     N28537   5.814   7.666  10.027 -0.2863  0.3630  0.1313
  953MOL0     C28538   5.703   7.674  10.107 -0.2146  0.5427  0.1009
  953MOL0     C28539   5.596   7.617  10.031 -0.4453 -1.0604 -0.8278
  953MOL0     C28540   5.458   7.591  10.078 -0.5102 -0.4121  0.9272
  953MOL0     C28541   5.369   7.716  10.098 -0.6344 -0.2481  1.1485
  953MOL0     C28542   5.339   7.778   9.965  0.0814 -0.3231 -0.0941
  953MOL0     C28543   5.190   7.773   9.932  0.0910  0.2580 -0.6315
  953MOL0     O28544   5.151   7.640   9.930 -0.5477  0.0618  0.2321
  953MOL0     C28545   5.019   7.614   9.921  0.2019  0.0158 -0.5166
  953MOL0     C28546   4.982   7.480   9.915  0.3734  0.3875 -0.2492
  953MOL0     C28547   4.853   7.443   9.882 -0.2837  0.1211  0.0708
  953MOL0     C28548   4.832   7.291   9.882  0.4945  0.2950  0.2851
  953MOL0     C28549   4.755   7.544   9.853  0.0961  0.9293 -0.3192
  953MOL0     C28550   4.616   7.506   9.803  0.1190  0.1623  0.1118
  953MOL0     O28551   4.557   7.606   9.743 -0.5233 -1.0709  0.0602
  953MOL0     C28552   4.431   7.581   9.693  0.6562 -0.2817  0.7327
  953MOL0     C28553   4.318   7.651   9.737 -0.2328  0.5221 -0.2913
  953MOL0     C28554   4.188   7.637   9.687 -0.1046  0.3895  0.2651
  953MOL0     C28555   4.172   7.542   9.582 -0.3583 -0.4643 -0.3909
  953MOL0     O28556   4.050   7.510   9.529 -0.7808 -0.4635 -0.0026
  953MOL0     C28557   3.936   7.532   9.618  0.3111  0.6216 -0.3485
  953MOL0     C28558   3.817   7.471   9.544 -0.1022 -0.1259  0.5407
  953MOL0     C28559   3.765   7.572   9.430 -0.5174 -0.4645  0.9782
  953MOL0     C28560   3.620   7.547   9.383  0.8280  0.6128 -0.2112
  953MOL0     C28561   3.618   7.425   9.297 -0.1836  0.0050 -0.0475
  953MOL0     C28562   3.488   7.363   9.261 -0.6850 -0.4091 -0.2703
  953MOL0     C28563   3.391   7.448   9.168 -0.8629  0.7995 -0.5169
  953MOL0     C28564   3.243   7.444   9.205 -1.1344  0.4126  0.4800
  953MOL0    Cl28565   3.181   7.283   9.192  0.0013  0.0374 -0.1936
  953MOL0     C28566   4.285   7.464   9.536 -0.8052  0.3088 -0.1763
  953MOL0     C28567   4.413   7.493   9.593  0.1909  0.0254  0.9727
  953MOL0     O28568   4.561   7.400   9.829  0.0968  0.0778 -0.2964
  953MOL0     C28569   4.787   7.682   9.859  0.1393 -0.3518  0.3578
  953MOL0     C28570   4.916   7.710   9.901  0.5947 -0.7382  0.2707
  953MOL0     N28571   5.656   7.561   9.921  0.3153 -0.1900 -0.3472
  953MOL0     N28572   5.775   7.603   9.911  0.3587 -0.4726 -0.1178
  953MOL0     C28573   6.977   7.211  10.174  0.4241 -0.4703  0.2541
  953MOL0     C28574   7.079   7.108  10.167  0.0914 -0.1419 -0.3280
  953MOL0     C28575   7.530   6.991  10.109  0.1567 -0.2043 -0.1065
  953MOL0     C28576   7.645   7.009  10.181  0.3922  0.0004  0.5322
  953MOL0     C28577   7.757   6.951  10.133 -0.2723  0.0726  0.7798
  953MOL0     C28578   7.762   6.861  10.028  0.3352  0.8342  0.2452
  953MOL0     O28579   7.877   6.794   9.984 -0.2035  1.0356  0.2364
  953MOL0     C28580   7.874   6.653   9.991 -0.3617  0.4821 -0.0538
  953MOL0     C28581   8.015   6.592   9.970  1.2796  0.0951  0.1101
  953MOL0     C28582   8.142   6.659  10.026  0.1939 -0.4213  0.1551
  953MOL0     C28583   8.175   6.805   9.971  0.6582 -0.3338  0.0274
  953MOL0     C28584   8.303   6.850  10.028 -0.1129  0.3256 -1.3112
  953MOL0     C28585   8.403   6.883  10.091 -0.6420  0.4919  0.1615
  953MOL0     C28586   7.643   6.839   9.960  0.3026 -0.3462 -0.8304
  953MOL0     C28587   7.522   6.901  10.008 -1.2154 -0.1202  0.0048
  953MOL0     H28588   7.315   7.276  10.009 -0.2450 -0.2111 -1.0623
  953MOL0     H28589   7.141   7.462  10.002 -1.6619  0.0785 -0.8347
  953MOL0     H28590   6.788   7.355   9.994  2.3178 -0.7052 -0.7986
  953MOL0     H28591   6.742   7.326  10.170 -0.2732  0.9338  0.4762
  953MOL0     H28592   6.678   7.567  10.184 -0.0776 -0.5004  0.3740
  953MOL0     H28593   6.722   7.591  10.012 -1.5207  0.3852  0.0187
  953MOL0     H28594   6.551   7.451   9.946  4.1952  1.3730 -0.0876
  953MOL0     H28595   6.514   7.388  10.111  0.3684  0.9806  2.2670
  953MOL0     H28596   6.442   7.630  10.159 -1.1942  1.9099 -0.7773
  953MOL0     H28597   6.467   7.669   9.989  0.3867 -0.1261  0.3844
  953MOL0     H28598   6.297   7.508   9.923  0.9850 -0.9838 -0.1602
  953MOL0     H28599   6.271   7.467  10.099  2.7439 -2.2333 -1.1450
  953MOL0     H28600   6.209   7.694  10.160  0.7602 -0.5640  0.1511
  953MOL0     H28601   6.203   7.749   9.993 -1.6752  2.0110  1.4133
  953MOL0     H28602   6.041   7.562   9.946  1.3010  2.3546 -1.1746
  953MOL0     H28603   6.045   7.531  10.130  2.3955  1.3221  1.1197
  953MOL0     H28604   5.978   7.789   9.972  0.4507  1.3032  1.0832
  953MOL0     H28605   5.958   7.762  10.146  2.1712 -1.8263 -0.0910
  953MOL0     H28606   5.696   7.701  10.212 -1.0862  0.6780  0.0175
  953MOL0     H28607   5.412   7.525  10.004 -0.6403  1.0958 -0.4043
  953MOL0     H28608   5.468   7.533  10.170 -1.7128  0.2712  1.5102
  953MOL0     H28609   5.405   7.789  10.171 -1.7968  1.3792  0.1540
  953MOL0     H28610   5.279   7.668  10.138 -2.0067  0.1333 -1.3041
  953MOL0     H28611   5.399   7.734   9.884 -0.5752 -2.0198  0.2965
  953MOL0     H28612   5.368   7.883   9.961 -2.3119  0.4141  0.2012
  953MOL0     H28613   5.172   7.823   9.836  0.8596 -1.3938 -1.6751
  953MOL0     H28614   5.139   7.817  10.018 -0.0613 -0.7152 -0.2169
  953MOL0     H28615   5.062   7.408   9.929  3.1923  3.3043 -0.1912
  953MOL0     H28616   4.793   7.256   9.786  0.1772 -1.7736  1.1202
  953MOL0     H28617   4.924   7.235   9.899 -0.3463 -0.7803  1.4641
  953MOL0     H28618   4.757   7.255   9.953 -0.2267  0.2779 -0.4744
  953MOL0     H28619   4.333   7.739   9.798 -2.2782  1.7498 -1.4268
  953MOL0     H28620   4.104   7.697   9.720 -0.3001  0.5718 -0.5592
  953MOL0     H28621   3.965   7.478   9.708  0.7232  1.8784  0.2995
  953MOL0     H28622   3.909   7.636   9.641 -0.3061  0.4723 -0.3821
  953MOL0     H28623   3.853   7.375   9.505  1.8835  0.0358  1.8491
  953MOL0     H28624   3.744   7.451   9.623  2.0135 -2.7923  1.9584
  953MOL0     H28625   3.832   7.573   9.344 -0.1859 -0.8181  1.2270
  953MOL0     H28626   3.758   7.676   9.465 -2.7521 -0.8449  1.8091
  953MOL0     H28627   3.562   7.528   9.475  0.1605  1.4852 -0.4405
  953MOL0     H28628   3.574   7.626   9.323 -2.8087 -2.6118 -2.1556
  953MOL0     H28629   3.679   7.351   9.349  1.3173  1.0061 -0.2997
  953MOL0     H28630   3.664   7.440   9.199 -2.5477  2.4533 -0.8918
  953MOL0     H28631   3.490   7.259   9.228 -0.6902 -0.2566 -0.7591
  953MOL0     H28632   3.440   7.352   9.359 -4.6488  1.7788 -1.7395
  953MOL0     H28633   3.413   7.409   9.068  1.1849 -2.6636  1.0578
  953MOL0     H28634   3.426   7.551   9.169  0.2719  0.4700 -2.2078
  953MOL0     H28635   3.187   7.503   9.131 -1.8272 -0.9171 -0.1046
  953MOL0     H28636   3.234   7.479   9.308 -2.4822 -0.5733  0.7199
  953MOL0     H28637   4.277   7.383   9.464 -0.2219 -0.7492  0.9210
  953MOL0     H28638   4.496   7.449   9.539  1.9837  3.9134  0.2346
  953MOL0     H28639   4.716   7.756   9.825  2.0251  2.0596  1.3768
  953MOL0     H28640   4.949   7.814   9.897  2.3209 -1.2724 -0.2476
  953MOL0     H28641   6.885   7.179  10.221 -0.3397  0.9200 -0.2401
  953MOL0     H28642   7.054   7.009  10.205 -0.4379  0.5398  1.1977
  953MOL0     H28643   7.654   7.082  10.261 -0.8386 -0.4401  1.0960
  953MOL0     H28644   7.853   6.990  10.165  1.6277 -1.4865 -2.4867
  953MOL0     H28645   7.833   6.622  10.088 -0.3120  2.6568  0.7336
  953MOL0     H28646   7.805   6.624   9.912 -0.0479  3.2852 -1.4762
  953MOL0     H28647   8.031   6.579   9.862 -0.9387 -1.2264 -0.1125
  953MOL0     H28648   8.003   6.489  10.005 -2.2633  0.0865 -0.8096
  953MOL0     H28649   8.225   6.597   9.991 -1.8116 -2.2735 -1.6381
  953MOL0     H28650   8.124   6.665  10.134 -0.0203 -0.3278  0.1139
  953MOL0     H28651   8.102   6.883   9.996  2.1375  0.4247  2.1855
  953MOL0     H28652   8.176   6.799   9.861  2.1760  1.9469 -0.1397
  953MOL0     H28653   8.491   6.913  10.143 -1.6435  0.4595  1.9486
  953MOL0     H28654   7.642   6.768   9.878  1.8174 -3.1299  1.3909
  953MOL0     H28655   7.433   6.880   9.950 -1.3876  2.1001 -0.6074
  954MOL0     O28656   5.045   4.857   8.169  0.1862  0.1928 -0.7700
  954MOL0     C28657   5.146   4.920   8.136 -0.6529  0.6392 -0.1221
  954MOL0     O28658   5.190   4.940   8.013 -0.4610  0.0284  0.4165
  954MOL0     C28659   5.142   4.863   7.908 -0.6649  0.1677  0.1073
  954MOL0     C28660   5.147   4.722   7.913 -0.0444  1.3970  0.0747
  954MOL0     C28661   5.106   4.641   7.807  0.5085  0.8005  0.6346
  954MOL0     C28662   5.075   4.698   7.683 -0.8246  0.2686 -0.6315
  954MOL0     O28663   5.040   4.615   7.581 -0.7570  0.0198  0.3574
  954MOL0     C28664   4.942   4.660   7.488  0.4708  0.3659  0.5148
  954MOL0     C28665   4.914   4.545   7.391  1.7133 -0.7613 -0.5375
  954MOL0     C28666   4.841   4.418   7.439  0.3613  1.0265 -0.2967
  954MOL0     C28667   4.740   4.440   7.554  0.9317 -0.2232  0.3893
  954MOL0     C28668   4.677   4.311   7.571  0.1406  0.3052 -0.1641
  954MOL0     C28669   4.564   4.313   7.678  0.7279 -0.0628 -0.5095
  954MOL0     C28670   4.502   4.176   7.699  0.4404 -0.1097 -0.3972
  954MOL0     C28671   4.353   4.175   7.679 -0.4943 -1.0560 -0.8996
  954MOL0     N28672   4.294   4.044   7.705  0.1671  0.1703 -0.5423
  954MOL0     C28673   4.156   4.035   7.722 -0.2063  0.4384  0.5929
  954MOL0     C28674   4.130   3.901   7.737  0.5221  1.0265  0.6189
  954MOL0     C28675   4.015   3.809   7.736 -0.5904 -0.2511  0.2449
  954MOL0     C28676   3.886   3.884   7.714  0.3285  0.8022 -0.6127
  954MOL0     C28677   3.760   3.806   7.750 -0.3661 -0.1684 -0.8515
  954MOL0     C28678   3.652   3.911   7.785  0.1198  0.1043  0.2322
  954MOL0     O28679   3.529   3.847   7.812  0.2746 -0.3605  0.2608
  954MOL0     C28680   3.412   3.914   7.828  0.9688 -0.1065  0.1950
  954MOL0     C28681   3.286   3.855   7.795 -0.0729 -0.1063  0.6319
  954MOL0     C28682   3.168   3.924   7.798  0.5046  0.2193  0.7758
  954MOL0     C28683   3.041   3.847   7.771 -0.2116  0.8444 -0.2013
  954MOL0     C28684   3.165   4.067   7.819 -0.6811 -0.2313 -0.1499
  954MOL0     C28685   3.048   4.160   7.836  0.1795  0.0015  0.6461
  954MOL0     O28686   2.931   4.124   7.780 -0.1879  0.2239 -0.3780
  954MOL0     C28687   2.812   4.180   7.806 -0.4350  0.0103  0.2622
  954MOL0     C28688   2.709   4.105   7.746 -0.4577  0.7025 -0.8122
  954MOL0     C28689   2.577   4.144   7.746  0.0047 -0.3614 -0.3344
  954MOL0     C28690   2.539   4.263   7.801  0.5246  0.7018 -0.1285
  954MOL0     O28691   2.405   4.305   7.790 -0.6187 -0.0457 -0.1778
  954MOL0     C28692   2.382   4.450   7.809  0.0391 -0.3841  0.1479
  954MOL0     C28693   2.233   4.491   7.765  0.0036 -0.1694 -0.5012
  954MOL0     C28694   2.193   4.626   7.815 -0.5021 -0.2648 -0.2086
  954MOL0     C28695   2.038   4.645   7.799  0.4814  0.5204 -0.0981
  954MOL0     C28696   1.999   4.794   7.819 -0.1972 -0.3530 -0.0191
  954MOL0     C28697   1.849   4.804   7.832 -0.5348 -0.2319  0.9709
  954MOL0     C28698   1.796   4.934   7.887  0.3588 -0.3510 -0.5991
  954MOL0     C28699   1.886   5.059   7.853 -0.7168 -1.6854 -0.5283
  954MOL0    Cl28700   1.883   5.105   7.680  0.0618  0.0372  0.4653
  954MOL0     C28701   2.641   4.346   7.859  0.0077  0.9288 -0.1856
  954MOL0     C28702   2.774   4.304   7.863 -0.7832  0.1595 -0.3150
  954MOL0     O28703   3.065   4.251   7.922  0.0243 -0.6275  0.7930
  954MOL0     C28704   3.291   4.133   7.834  0.1533  0.2426 -0.0334
  954MOL0     C28705   3.410   4.055   7.840  0.1368  0.5645 -0.1179
  954MOL0     N28706   4.251   3.832   7.730 -0.3588 -0.5223 -0.0306
  954MOL0     N28707   4.347   3.920   7.725 -0.4246 -0.2969  0.6195
  954MOL0     C28708   5.083   4.846   7.668  0.5633  0.0069 -0.3924
  954MOL0     C28709   5.114   4.927   7.783 -0.0035  0.4576  0.2522
  954MOL0     C28710   5.217   4.980   8.251 -0.8249  0.5182  0.1461
  954MOL0     C28711   5.186   4.937   8.384 -0.2414 -0.1706  0.2247
  954MOL0     C28712   5.249   5.000   8.492 -0.4355 -0.6958 -0.8853
  954MOL0     C28713   5.344   5.106   8.469  0.1134  0.1668  0.0274
  954MOL0     O28714   5.396   5.163   8.581 -0.6394  0.5185 -0.4144
  954MOL0     C28715   5.524   5.230   8.588 -0.7294 -0.1791 -0.2423
  954MOL0     C28716   5.645   5.132   8.582 -0.8029 -0.0033 -0.0176
  954MOL0     C28717   5.695   5.084   8.726  0.1126  0.7841  0.7993
  954MOL0     C28718   5.813   4.988   8.721  0.5010 -0.5295 -0.4165
  954MOL0     C28719   5.947   5.023   8.680 -0.5695  0.6071 -0.3944
  954MOL0     C28720   6.064   5.033   8.648 -0.2508  0.7661 -1.0088
  954MOL0     C28721   5.377   5.143   8.339  0.0320  1.4140 -0.2250
  954MOL0     C28722   5.318   5.074   8.229  0.3792  0.3168 -0.4162
  954MOL0     H28723   5.186   4.660   7.993 -0.2108 -3.1776 -3.0390
  954MOL0     H28724   5.098   4.534   7.827  3.5017 -0.2239 -2.5236
  954MOL0     H28725   4.848   4.680   7.541  1.8086  1.2504  2.6537
  954MOL0     H28726   4.979   4.749   7.436 -2.3050  0.7575 -0.9819
  954MOL0     H28727   4.842   4.583   7.318 -1.2061 -2.2975  1.3326
  954MOL0     H28728   5.010   4.522   7.346  1.8351 -3.7838  1.0502
  954MOL0     H28729   4.783   4.388   7.352  1.8498 -0.2666 -0.8977
  954MOL0     H28730   4.915   4.340   7.461  0.7010  0.7399 -2.3160
  954MOL0     H28731   4.779   4.472   7.651  0.0359  0.5255  0.5194
  954MOL0     H28732   4.668   4.514   7.518  0.2875 -1.3154 -0.6287
  954MOL0     H28733   4.630   4.282   7.477 -2.5994  2.3633  0.4631
  954MOL0     H28734   4.755   4.242   7.605 -0.2850 -0.3317 -0.4528
  954MOL0     H28735   4.604   4.354   7.771  0.2726 -3.5789  1.3660
  954MOL0     H28736   4.486   4.388   7.661  0.1458 -0.2747  1.0352
  954MOL0     H28737   4.554   4.110   7.629  0.3896 -1.0184  0.3944
  954MOL0     H28738   4.528   4.142   7.800 -0.6308  2.2156  0.7313
  954MOL0     H28739   4.315   4.204   7.581  1.5102 -0.1948 -1.4749
  954MOL0     H28740   4.315   4.249   7.750  1.3471 -0.3938 -0.5399
  954MOL0     H28741   4.081   4.112   7.724  1.9834  2.8262 -1.7274
  954MOL0     H28742   4.027   3.741   7.651  1.2757 -0.6287  0.7814
  954MOL0     H28743   4.011   3.740   7.821  2.5304  3.1626  3.5619
  954MOL0     H28744   3.880   3.916   7.609 -1.8903  0.2693 -0.6972
  954MOL0     H28745   3.890   3.969   7.782  0.1249 -1.5465  2.5740
  954MOL0     H28746   3.761   3.725   7.823  1.3019  0.6366  0.0976
  954MOL0     H28747   3.735   3.762   7.653  0.8531  0.1605 -1.3393
  954MOL0     H28748   3.653   3.971   7.694  4.4273 -0.1465 -0.0724
  954MOL0     H28749   3.688   3.978   7.863 -1.9542 -1.4833  2.7212
  954MOL0     H28750   3.296   3.750   7.769  0.3625 -0.3265  1.6488
  954MOL0     H28751   3.062   3.741   7.788  1.2952  1.0089 -0.8866
  954MOL0     H28752   2.971   3.880   7.849 -1.1897  1.4944 -1.3295
  954MOL0     H28753   3.005   3.859   7.669  2.5206 -0.2386 -1.3895
  954MOL0     H28754   2.724   4.006   7.705 -0.3173 -1.5748  4.0731
  954MOL0     H28755   2.494   4.081   7.717 -1.3108 -0.0274  2.4473
  954MOL0     H28756   2.380   4.493   7.910  2.4786 -1.5394  0.7679
  954MOL0     H28757   2.458   4.516   7.767  0.3597 -1.2457 -0.6746
  954MOL0     H28758   2.221   4.480   7.657  1.3068 -1.4729 -0.5571
  954MOL0     H28759   2.157   4.439   7.824  0.1943  0.0461 -0.0661
  954MOL0     H28760   2.254   4.697   7.758  0.7001 -1.6810 -0.7378
  954MOL0     H28761   2.213   4.644   7.921  2.2010 -0.0013 -0.6912
  954MOL0     H28762   2.008   4.624   7.696  1.8913 -0.9161 -0.2670
  954MOL0     H28763   1.990   4.573   7.866 -0.2448 -1.3969 -2.5356
  954MOL0     H28764   2.046   4.862   7.748  2.3072  2.4082  3.8774
  954MOL0     H28765   2.033   4.825   7.918  3.0745  1.5822 -1.6036
  954MOL0     H28766   1.798   4.794   7.736 -2.7423  0.8638  1.9562
  954MOL0     H28767   1.814   4.717   7.888  2.5081 -2.5525 -0.4134
  954MOL0     H28768   1.791   4.932   7.996  2.6319  1.0156 -0.3879
  954MOL0     H28769   1.692   4.955   7.862 -0.2076 -0.9038  1.2049
  954MOL0     H28770   1.990   5.041   7.882 -1.0815  0.5617  2.7232
  954MOL0     H28771   1.847   5.146   7.907 -1.4588 -2.0180 -0.5247
  954MOL0     H28772   2.611   4.441   7.902  0.0588 -0.2537  2.7002
  954MOL0     H28773   2.860   4.365   7.887  1.1183 -2.1866 -0.7582
  954MOL0     H28774   3.301   4.238   7.862  1.5130  0.3692 -0.8864
  954MOL0     H28775   3.509   4.095   7.856  0.7629 -0.3732 -1.4606
  954MOL0     H28776   5.056   4.897   7.576 -0.1537  0.4720  0.0699
  954MOL0     H28777   5.105   5.035   7.774  3.0115  0.6172 -2.5814
  954MOL0     H28778   5.115   4.856   8.394 -1.0748  0.1770 -2.2531
  954MOL0     H28779   5.234   4.960   8.591  0.3517  0.5686 -0.2307
  954MOL0     H28780   5.535   5.305   8.509 -2.1933  1.9866  1.4890
  954MOL0     H28781   5.519   5.274   8.688  1.4263  0.7842 -0.5043
  954MOL0     H28782   5.720   5.196   8.535 -1.6087  2.6228  2.0008
  954MOL0     H28783   5.629   5.040   8.525 -0.6071 -0.7761  1.1336
  954MOL0     H28784   5.617   5.023   8.772  0.1821  0.9761  1.1738
  954MOL0     H28785   5.725   5.164   8.794  0.1210 -2.0378  4.3769
  954MOL0     H28786   5.795   4.890   8.677 -0.1201  0.0222 -1.4493
  954MOL0     H28787   5.834   4.980   8.828  0.0087 -0.9840 -0.3518
  954MOL0     H28788   6.168   5.042   8.624 -0.2441 -0.4366 -1.5045
  954MOL0     H28789   5.455   5.217   8.322  0.6616  0.3047 -2.4231
  954MOL0     H28790   5.348   5.105   8.130  0.5737 -0.2633 -0.5451
  955MOL0     O28791  10.916   5.151   7.288  0.4748  0.0967  0.0515
  955MOL0     C28792  10.960   5.182   7.401 -0.3044  0.5757  0.5298
  955MOL0     O28793  10.911   5.274   7.480 -0.1290 -0.8905  0.2991
  955MOL0     C28794  10.806   5.360   7.442  0.7775  0.4417 -0.0476
  955MOL0     C28795  10.814   5.446   7.327  0.5813  1.1043 -0.5617
  955MOL0     C28796  10.700   5.528   7.290 -0.6889  0.1209  0.1726
  955MOL0     C28797  10.581   5.522   7.363 -0.0723  0.1122 -0.1678
  955MOL0     O28798  10.503   5.635   7.347  0.6678  1.4247  0.0258
  955MOL0     C28799  10.371   5.629   7.400  0.1012  0.3567 -0.2944
  955MOL0     C28800  10.301   5.763   7.388 -0.4373 -0.5260 -0.2211
  955MOL0     C28801  10.278   5.803   7.243  0.4158  0.2684 -0.1184
  955MOL0     C28802  10.397   5.850   7.157 -0.5957 -0.2051  0.0873
  955MOL0     C28803  10.495   5.955   7.219 -0.0087 -0.7241  0.8057
  955MOL0     C28804  10.587   6.017   7.113  0.3501 -0.5084 -0.2542
  955MOL0     C28805  10.508   6.073   6.986 -0.9296 -0.3161 -1.1654
  955MOL0     C28806  10.405   6.181   7.021  0.5651 -0.2945  0.2306
  955MOL0     N28807  10.374   6.278   6.913 -0.0077 -0.3053 -0.2412
  955MOL0     C28808  10.469   6.350   6.840  0.4582  0.3184 -0.9683
  955MOL0     C28809  10.396   6.435   6.764 -0.5983 -0.4913  0.0089
  955MOL0     C28810  10.455   6.541   6.665  0.5770 -0.2927  0.1262
  955MOL0     C28811  10.404   6.685   6.681 -0.2118 -0.7320  0.5782
  955MOL0     C28812  10.256   6.721   6.657 -0.0075  0.4805  0.3656
  955MOL0     C28813  10.210   6.702   6.516  0.0781  0.5583 -0.8037
  955MOL0     O28814  10.183   6.564   6.515  0.2576 -0.4484 -0.5106
  955MOL0     C28815  10.058   6.510   6.538  0.6568 -0.8252 -0.8862
  955MOL0     C28816  10.026   6.378   6.512  0.2682  0.3845  1.2658
  955MOL0     C28817   9.905   6.320   6.537 -0.5429 -0.0882  0.2161
  955MOL0     C28818   9.902   6.171   6.520 -0.8600  1.2271  0.4598
  955MOL0     C28819   9.797   6.392   6.592 -0.8383 -0.1514  0.3623
  955MOL0     C28820   9.661   6.334   6.606 -0.4651  0.6797 -0.5169
  955MOL0     O28821   9.578   6.400   6.693 -0.1225  0.2809 -0.7104
  955MOL0     C28822   9.462   6.347   6.741  0.7692 -0.3321  0.8048
  955MOL0     C28823   9.355   6.426   6.702 -0.2024  0.3999 -0.2424
  955MOL0     C28824   9.226   6.391   6.753  0.0162 -1.2258  0.5236
  955MOL0     C28825   9.210   6.292   6.846 -0.3524 -0.2540  0.4426
  955MOL0     O28826   9.082   6.250   6.878 -0.4997 -0.0919  0.4463
  955MOL0     C28827   9.077   6.164   6.994  0.2031 -0.2844 -0.5242
  955MOL0     C28828   8.943   6.202   7.061 -0.1964  0.1560  0.5674
  955MOL0     C28829   8.823   6.181   6.961  0.0594 -0.8954  0.8326
  955MOL0     C28830   8.705   6.267   6.997  0.3613  0.0718 -0.7943
  955MOL0     C28831   8.598   6.282   6.894 -0.0776 -0.9650 -0.4539
  955MOL0     C28832   8.477   6.366   6.940  0.5938 -0.2531 -0.8001
  955MOL0     C28833   8.362   6.357   6.846 -0.4233  0.5068  0.2307
  955MOL0     C28834   8.241   6.429   6.885  0.3269 -0.7674 -0.1295
  955MOL0    Cl28835   8.271   6.604   6.847 -0.0996  0.0126  0.4227
  955MOL0     C28836   9.317   6.215   6.870 -0.1839  0.2550 -0.2455
  955MOL0     C28837   9.449   6.242   6.830 -0.4475 -1.0664  0.7499
  955MOL0     O28838   9.621   6.247   6.526 -0.8074  0.1993 -0.3847
  955MOL0     C28839   9.832   6.521   6.633 -0.0751 -0.3207  0.8960
  955MOL0     C28840   9.956   6.581   6.608 -0.0291  0.1067  0.8971
  955MOL0     N28841  10.264   6.410   6.785 -0.2877 -0.2126 -0.4263
  955MOL0     N28842  10.250   6.316   6.866 -0.6402  0.1861 -0.1325
  955MOL0     C28843  10.569   5.435   7.472 -0.0479  0.2063 -0.2023
  955MOL0     C28844  10.683   5.353   7.508  0.1342 -0.6493 -0.6450
  955MOL0     C28845  11.090   5.118   7.432  0.4195  0.3996  0.6108
  955MOL0     C28846  11.146   5.003   7.376 -0.1536  0.2045  0.2349
  955MOL0     C28847  11.264   4.947   7.424 -0.0492 -0.5989  0.3404
  955MOL0     C28848  11.329   4.998   7.535  0.2640 -0.4394 -0.1306
  955MOL0     O28849  11.448   4.946   7.583 -0.2161 -0.4834 -0.4256
  955MOL0     C28850  11.522   4.852   7.503 -0.4908 -0.3668  0.3510
  955MOL0     C28851  11.656   4.835   7.565 -0.1420  0.9206 -0.0592
  955MOL0     C28852  11.738   4.973   7.560 -0.2591  0.0619 -0.4806
  955MOL0     C28853  11.885   4.941   7.588  0.0458 -0.2106  0.2339
  955MOL0     C28854  11.956   5.068   7.574 -0.7513 -0.6554 -0.5115
  955MOL0     C28855  12.033   5.169   7.564  0.8585  0.7675  0.2536
  955MOL0     C28856  11.266   5.107   7.594  0.3627  0.6363 -0.8287
  955MOL0     C28857  11.155   5.169   7.542  0.0147 -0.2166  0.3860
  955MOL0     H28858  10.904   5.442   7.266 -0.0718  1.3581 -1.5717
  955MOL0     H28859  10.712   5.607   7.216 -1.2435 -0.0788 -0.1351
  955MOL0     H28860  10.312   5.560   7.338  2.1632 -1.7407 -0.0536
  955MOL0     H28861  10.370   5.600   7.505  3.2758 -0.6618 -0.4340
  955MOL0     H28862  10.214   5.773   7.454  0.3181  0.9258  0.6113
  955MOL0     H28863  10.365   5.840   7.432 -1.8082  0.5066  0.0415
  955MOL0     H28864  10.229   5.724   7.185 -1.0093  1.4093 -0.5022
  955MOL0     H28865  10.202   5.882   7.241  0.0573 -0.0799 -0.3982
  955MOL0     H28866  10.451   5.763   7.118  0.9451  0.7321  0.0449
  955MOL0     H28867  10.344   5.902   7.077  0.0582 -0.1288 -0.3078
  955MOL0     H28868  10.431   6.037   7.251  0.7057 -0.3240  1.2224
  955MOL0     H28869  10.552   5.909   7.300 -0.1549 -3.0781 -0.3313
  955MOL0     H28870  10.645   6.100   7.153  0.1183 -0.4809  0.0320
  955MOL0     H28871  10.659   5.950   7.066  0.3138  1.1305 -2.8167
  955MOL0     H28872  10.589   6.118   6.930  3.3930 -2.1683  2.8881
  955MOL0     H28873  10.471   5.985   6.932 -1.3746 -0.1092 -1.2000
  955MOL0     H28874  10.450   6.244   7.099  2.1826  0.6586 -1.3961
  955MOL0     H28875  10.313   6.137   7.061 -0.5845 -1.2619 -3.1204
  955MOL0     H28876  10.576   6.335   6.845  0.0905 -2.6377  3.5086
  955MOL0     H28877  10.563   6.549   6.672  0.9369 -0.6410 -3.2812
  955MOL0     H28878  10.441   6.502   6.564  0.6173 -2.5620  0.9353
  955MOL0     H28879  10.465   6.742   6.611  0.4828 -3.8356 -1.5536
  955MOL0     H28880  10.434   6.718   6.781  2.4880 -0.6129 -0.2043
  955MOL0     H28881  10.238   6.827   6.677 -3.2172 -0.0261  0.6517
  955MOL0     H28882  10.199   6.667   6.734  2.8592 -0.8106  1.7461
  955MOL0     H28883  10.278   6.738   6.438 -1.3446  0.1979 -2.2547
  955MOL0     H28884  10.120   6.763   6.504 -0.3374  0.1661  0.2466
  955MOL0     H28885  10.110   6.321   6.475  0.5516 -0.7549  3.4580
  955MOL0     H28886  10.001   6.126   6.527 -2.1007 -2.0062 -0.9504
  955MOL0     H28887   9.849   6.114   6.597 -0.6814  1.9007  1.0870
  955MOL0     H28888   9.867   6.158   6.417  2.4839 -0.3841 -0.6152
  955MOL0     H28889   9.373   6.513   6.640  0.6484 -0.1988 -0.8571
  955MOL0     H28890   9.138   6.448   6.723 -0.7153 -3.0403 -0.9812
  955MOL0     H28891   9.080   6.056   6.977  0.8167 -0.0564 -2.0216
  955MOL0     H28892   9.153   6.197   7.065 -1.5067  2.6310  0.1129
  955MOL0     H28893   8.943   6.153   7.158 -0.9565  1.4684  1.2644
  955MOL0     H28894   8.944   6.311   7.073  4.4257  0.9591 -3.6989
  955MOL0     H28895   8.793   6.076   6.966 -4.6849  0.2355  0.7078
  955MOL0     H28896   8.855   6.208   6.860  1.1670 -3.4644  0.3976
  955MOL0     H28897   8.644   6.224   7.077 -1.9952  2.3140 -1.2515
  955MOL0     H28898   8.738   6.367   7.028 -1.1407  0.2712  0.2644
  955MOL0     H28899   8.570   6.178   6.874  0.5629 -1.2050 -0.1330
  955MOL0     H28900   8.643   6.322   6.802  0.3867 -0.9747 -0.2291
  955MOL0     H28901   8.454   6.351   7.046 -0.0751  2.9283 -0.3795
  955MOL0     H28902   8.494   6.474   6.936 -1.4189  0.1903  0.7631
  955MOL0     H28903   8.327   6.253   6.839 -1.3262  0.8721 -1.0866
  955MOL0     H28904   8.408   6.380   6.750 -0.7208 -3.5038 -1.0697
  955MOL0     H28905   8.211   6.416   6.989 -1.5307 -0.8372 -0.6457
  955MOL0     H28906   8.151   6.408   6.827  1.6601 -0.9950 -2.2337
  955MOL0     H28907   9.312   6.126   6.932 -1.1766 -1.1483 -2.2278
  955MOL0     H28908   9.532   6.181   6.863  1.1374  0.9535  0.7346
  955MOL0     H28909   9.756   6.582   6.681 -1.0799  1.3412 -2.4106
  955MOL0     H28910   9.971   6.686   6.631  1.4354 -0.0399  0.7158
  955MOL0     H28911  10.486   5.425   7.541  0.5809  1.2046  0.7422
  955MOL0     H28912  10.683   5.290   7.596 -0.7514  0.3784  0.1198
  955MOL0     H28913  11.084   4.965   7.296 -0.5389  1.6225 -0.1637
  955MOL0     H28914  11.299   4.854   7.379 -0.2151 -0.0145 -1.0451
  955MOL0     H28915  11.464   4.759   7.498 -1.3980  0.1878  0.2871
  955MOL0     H28916  11.532   4.885   7.399  0.5837 -2.1573 -0.1584
  955MOL0     H28917  11.707   4.765   7.498 -0.8364  0.8300 -0.5009
  955MOL0     H28918  11.653   4.783   7.661  0.6534 -1.0748 -1.0627
  955MOL0     H28919  11.689   5.027   7.642 -0.6394 -2.3587  1.0076
  955MOL0     H28920  11.724   5.019   7.462 -0.4797  2.1095  0.4682
  955MOL0     H28921  11.922   4.876   7.508 -0.9620 -3.9942  2.5767
  955MOL0     H28922  11.900   4.894   7.686 -1.0944 -0.6758  0.1960
  955MOL0     H28923  12.092   5.258   7.558  0.9879  0.7796  1.5183
  955MOL0     H28924  11.317   5.151   7.679 -0.4862 -1.3846  0.8052
  955MOL0     H28925  11.123   5.251   7.606  2.9773  0.8413  0.6674
  956MOL0     O28926   6.038   0.120   8.305  0.2299 -0.2839  0.0100
  956MOL0     C28927   6.074   0.126   8.186  0.7418 -0.0230 -0.2043
  956MOL0     O28928   6.011   0.091   8.077 -0.6817 -0.5001  0.0709
  956MOL0     C28929   5.894   0.021   8.093 -0.6865  0.5392  0.4055
  956MOL0     C28930   5.882  -0.118   8.087  0.0007 -0.8104 -0.4673
  956MOL0     C28931   5.759  -0.179   8.107 -0.1502  0.0025  0.2477
  956MOL0     C28932   5.648  -0.107   8.134  0.6753 -0.1255 -0.0380
  956MOL0     O28933   5.532  -0.177   8.148  0.0154 -0.0229 -0.2902
  956MOL0     C28934   5.487  -0.190   8.295 -0.6118  0.0279  0.8015
  956MOL0     C28935   5.404  -0.057   8.335 -0.5295  0.2327  0.3290
  956MOL0     C28936   5.290  -0.084   8.430  1.1533  0.1994 -0.8802
  956MOL0     C28937   5.240   0.047   8.488  0.6415 -0.2571 -0.4591
  956MOL0     C28938   5.140   0.005   8.596 -0.2230 -0.0660  0.3274
  956MOL0     C28939   5.060   0.117   8.650 -0.6049 -0.5516 -1.3014
  956MOL0     C28940   4.959   0.075   8.763  0.1234  0.4478  0.4756
  956MOL0     C28941   4.836   0.001   8.698 -0.0270  0.5799 -0.1973
  956MOL0     N28942   4.725  -0.010   8.797 -0.4447 -0.1498  0.6887
  956MOL0     C28943   4.629   0.083   8.829 -0.5179  0.1909 -0.2374
  956MOL0     C28944   4.552   0.022   8.920 -0.3752  0.0996 -0.4636
  956MOL0     C28945   4.424   0.073   8.983 -0.0663  0.6343 -0.4126
  956MOL0     C28946   4.323  -0.049   8.996 -0.3461  0.0793 -1.1469
  956MOL0     C28947   4.189  -0.002   9.057 -0.1002  0.8289 -0.0181
  956MOL0     C28948   4.104  -0.117   9.089 -0.5044  0.5498 -0.4367
  956MOL0     O28949   3.963  -0.086   9.112 -0.3528  0.1285 -0.1962
  956MOL0     C28950   3.886  -0.180   9.179  0.2894 -1.1610 -0.0023
  956MOL0     C28951   3.753  -0.138   9.184  0.0237  1.1964 -0.1510
  956MOL0     C28952   3.661  -0.215   9.253 -0.3347 -0.6066 -1.2074
  956MOL0     C28953   3.516  -0.155   9.265 -0.3339  0.0485  0.5082
  956MOL0     C28954   3.700  -0.343   9.314  0.2305 -0.4473 -0.3332
  956MOL0     C28955   3.599  -0.439   9.363  0.2966  0.7940 -0.0333
  956MOL0     O28956   3.627  -0.528   9.460 -0.2831  0.1690 -0.5639
  956MOL0     C28957   3.544  -0.625   9.496  0.3407 -0.6446 -0.5239
  956MOL0     C28958   3.597  -0.747   9.502  0.9173  0.3633  0.7522
  956MOL0     C28959   3.530  -0.857   9.546  0.6296  0.6326 -0.0878
  956MOL0     C28960   3.398  -0.841   9.587  0.2020  0.6013  0.0566
  956MOL0     O28961   3.314  -0.941   9.633 -0.1718  0.2013  0.3474
  956MOL0     C28962   3.338  -1.075   9.594  0.2362 -0.7158  0.0544
  956MOL0     C28963   3.236  -1.164   9.666 -0.2711 -0.5647  0.1767
  956MOL0     C28964   3.095  -1.131   9.623 -1.3054  0.7997  0.4152
  956MOL0     C28965   2.978  -1.194   9.692 -0.2293  0.4712 -0.5624
  956MOL0     C28966   2.843  -1.148   9.645  1.1616  0.5074  0.9231
  956MOL0     C28967   2.740  -1.204   9.745  0.2320  0.2139  0.3668
  956MOL0     C28968   2.601  -1.150   9.708 -1.2573 -0.2149 -0.1399
  956MOL0     C28969   2.478  -1.187   9.795 -0.2289  0.2269 -0.8387
  956MOL0    Cl28970   2.513  -1.134   9.963  0.4329 -0.5964  0.0516
  956MOL0     C28971   3.336  -0.719   9.582 -0.1400  0.1936  0.6110
  956MOL0     C28972   3.413  -0.609   9.529  0.4360 -0.9249  0.9216
  956MOL0     O28973   3.495  -0.428   9.306  0.0349  0.2990  0.1057
  956MOL0     C28974   3.837  -0.384   9.304 -0.2496 -0.6596 -0.2126
  956MOL0     C28975   3.929  -0.300   9.242  0.1238 -1.2189  0.2819
  956MOL0     N28976   4.608  -0.098   8.949 -0.1862  0.6506 -0.3864
  956MOL0     N28977   4.713  -0.119   8.881  0.5292  0.8089 -0.2284
  956MOL0     C28978   5.650   0.036   8.121  0.4653  1.1636 -0.2826
  956MOL0     C28979   5.777   0.093   8.106  0.5997 -0.7472  0.2437
  956MOL0     C28980   6.210   0.154   8.165 -0.0868 -1.2740  0.5077
  956MOL0     C28981   6.285   0.131   8.052  0.4441 -0.1666 -0.2604
  956MOL0     C28982   6.419   0.161   8.031  0.2882 -0.8800  0.1659
  956MOL0     C28983   6.485   0.210   8.141 -0.8942  0.4612 -0.6132
  956MOL0     O28984   6.622   0.203   8.129 -1.3871 -0.4546 -1.2369
  956MOL0     C28985   6.697   0.243   8.241  0.1272 -0.2622  0.3379
  956MOL0     C28986   6.843   0.213   8.201 -0.0592 -0.2793  0.6943
  956MOL0     C28987   6.943   0.270   8.300  0.8623 -0.1313 -0.1621
  956MOL0     C28988   7.081   0.206   8.287 -0.2970 -0.7165  0.3626
  956MOL0     C28989   7.137   0.227   8.151  0.0205 -0.0946 -0.8008
  956MOL0     C28990   7.170   0.276   8.044  0.3184  0.1524 -0.1530
  956MOL0     C28991   6.416   0.254   8.254  1.1187 -0.4047  0.0137
  956MOL0     C28992   6.284   0.222   8.263  0.5012 -0.3305 -0.4021
  956MOL0     H28993   5.974  -0.175   8.077  0.9889  0.7413 -0.5829
  956MOL0     H28994   5.754  -0.287   8.095 -1.8599  0.0799  0.0684
  956MOL0     H28995   5.418  -0.274   8.305  0.0199 -0.8004 -1.1484
  956MOL0     H28996   5.563  -0.218   8.369  1.0699  1.8859 -0.1372
  956MOL0     H28997   5.482   0.011   8.371 -0.3932 -0.4787  1.4032
  956MOL0     H28998   5.362  -0.021   8.240 -1.9595 -1.7275  0.1426
  956MOL0     H28999   5.211  -0.137   8.375 -0.4935 -0.1336  1.6434
  956MOL0     H29000   5.321  -0.157   8.505  1.6771 -0.2467 -1.5140
  956MOL0     H29001   5.328   0.093   8.532  3.2186 -0.4168 -4.8434
  956MOL0     H29002   5.195   0.114   8.415 -3.9066  0.7144  2.7649
  956MOL0     H29003   5.065  -0.061   8.550 -1.6306  2.1439 -0.7549
  956MOL0     H29004   5.189  -0.040   8.682  0.8965  2.2598  0.9884
  956MOL0     H29005   5.131   0.185   8.699 -0.2503 -2.3116  0.7577
  956MOL0     H29006   5.007   0.171   8.570  0.4287 -0.1607 -1.7473
  956MOL0     H29007   5.002   0.018   8.846  2.3744  3.1708  1.3292
  956MOL0     H29008   4.924   0.162   8.819 -0.8621 -0.9357  2.1264
  956MOL0     H29009   4.874  -0.095   8.660  1.4497  0.6985  0.8803
  956MOL0     H29010   4.798   0.045   8.606 -2.6053 -1.1536 -0.0787
  956MOL0     H29011   4.613   0.183   8.790 -1.4968 -0.4887 -1.6430
  956MOL0     H29012   4.443   0.119   9.081 -1.0398  0.8284 -0.3074
  956MOL0     H29013   4.380   0.151   8.920 -0.1458 -0.1758 -1.3831
  956MOL0     H29014   4.367  -0.141   9.036  1.5429  0.7944 -1.4578
  956MOL0     H29015   4.308  -0.085   8.893 -0.5347 -0.6593 -0.8673
  956MOL0     H29016   4.136   0.052   8.978  0.0183  2.5732  1.0559
  956MOL0     H29017   4.200   0.071   9.137  2.7299  0.6204 -0.1410
  956MOL0     H29018   4.145  -0.152   9.185 -2.1475 -0.1966  0.0205
  956MOL0     H29019   4.107  -0.197   9.014  2.3207 -1.8734  1.9582
  956MOL0     H29020   3.724  -0.049   9.130 -0.0719  2.0978  1.3309
  956MOL0     H29021   3.514  -0.046   9.255 -3.6700  0.0658  0.4208
  956MOL0     H29022   3.464  -0.203   9.181  0.3578  0.5048 -0.2042
  956MOL0     H29023   3.463  -0.169   9.359 -0.3975  2.1476  0.8265
  956MOL0     H29024   3.702  -0.749   9.473 -0.1600 -0.4253 -3.8553
  956MOL0     H29025   3.571  -0.957   9.544 -1.9322 -0.4943 -1.5458
  956MOL0     H29026   3.331  -1.082   9.485  1.0174 -0.9802  0.0114
  956MOL0     H29027   3.438  -1.104   9.627  0.2237  1.3116  2.1293
  956MOL0     H29028   3.250  -1.269   9.637 -1.6112 -0.4161 -1.1456
  956MOL0     H29029   3.251  -1.139   9.771 -3.7679 -0.3956  0.7445
  956MOL0     H29030   3.091  -1.154   9.516  2.2138  2.4196 -0.2008
  956MOL0     H29031   3.081  -1.023   9.615 -0.0002  0.9822  0.3496
  956MOL0     H29032   2.990  -1.303   9.692  0.3036  0.5127  0.4690
  956MOL0     H29033   2.986  -1.168   9.798 -3.0087 -1.1195  0.1364
  956MOL0     H29034   2.811  -1.180   9.546  0.3527 -2.1532  1.9667
  956MOL0     H29035   2.836  -1.039   9.648  0.7409  0.5510 -0.7145
  956MOL0     H29036   2.739  -1.314   9.750 -0.7430  0.2604  3.1842
  956MOL0     H29037   2.768  -1.165   9.844 -2.1061  4.4445 -0.4131
  956MOL0     H29038   2.574  -1.184   9.608 -1.1526  2.0596 -1.0048
  956MOL0     H29039   2.611  -1.041   9.706 -0.0457 -0.3052 -1.5352
  956MOL0     H29040   2.455  -1.294   9.795  0.8522 -0.0307 -1.6815
  956MOL0     H29041   2.388  -1.137   9.760 -0.8231 -1.1378 -1.3129
  956MOL0     H29042   3.231  -0.710   9.607 -0.8776  4.2340 -2.8517
  956MOL0     H29043   3.369  -0.510   9.533 -1.1412 -1.5532 -0.0075
  956MOL0     H29044   3.871  -0.473   9.357  1.6625 -0.9650 -1.8365
  956MOL0     H29045   4.031  -0.337   9.237  0.9112  0.8279  0.0167
  956MOL0     H29046   5.563   0.100   8.118  0.6253  1.4065  0.1923
  956MOL0     H29047   5.781   0.199   8.086 -3.3167 -0.9059 -2.6720
  956MOL0     H29048   6.245   0.078   7.965 -1.5717  1.7180 -0.5608
  956MOL0     H29049   6.461   0.132   7.936 -1.6291  1.9920 -1.7313
  956MOL0     H29050   6.683   0.350   8.259 -1.2683 -0.1577 -1.1382
  956MOL0     H29051   6.676   0.176   8.326 -0.7638 -0.2884  0.1105
  956MOL0     H29052   6.866   0.267   8.109 -2.0803  0.0672  0.3544
  956MOL0     H29053   6.849   0.105   8.187 -0.8170  0.0435 -3.3682
  956MOL0     H29054   6.902   0.250   8.400 -0.8770  0.9794 -0.6028
  956MOL0     H29055   6.953   0.377   8.282  1.7959  0.0199  1.0901
  956MOL0     H29056   7.089   0.099   8.306  1.7909 -0.3728  1.6965
  956MOL0     H29057   7.142   0.243   8.369  0.8152  3.8105 -2.1509
  956MOL0     H29058   7.189   0.320   7.948 -1.6287  0.5161 -0.4196
  956MOL0     H29059   6.469   0.284   8.344 -0.3693 -1.4568  1.2893
  956MOL0     H29060   6.232   0.257   8.352 -0.2885 -1.0250 -0.5776
  957MOL0     O29061   7.671   0.498   3.652 -0.1431 -0.0912 -0.6490
  957MOL0     C29062   7.685   0.541   3.540  0.2386 -0.1379 -1.1232
  957MOL0     O29063   7.579   0.587   3.459  0.0952  0.7663  1.1370
  957MOL0     C29064   7.449   0.578   3.500  0.3811 -0.0779 -0.3503
  957MOL0     C29065   7.373   0.691   3.480 -0.1332 -0.6626 -0.4116
  957MOL0     C29066   7.234   0.689   3.499  0.9230  0.2605  0.3477
  957MOL0     C29067   7.169   0.570   3.540  0.2260 -0.4229  0.9691
  957MOL0     O29068   7.033   0.580   3.527 -0.3586 -0.3636  0.5679
  957MOL0     C29069   6.958   0.477   3.593  0.3351 -0.3480 -0.2382
  957MOL0     C29070   6.811   0.511   3.581  0.0554 -0.3524  0.2186
  957MOL0     C29071   6.771   0.497   3.434  1.1209  0.9637  0.0653
  957MOL0     C29072   6.613   0.478   3.423  0.2113  0.2357 -0.7338
  957MOL0     C29073   6.590   0.407   3.283  0.0616 -0.0854 -0.0036
  957MOL0     C29074   6.442   0.361   3.262 -0.1337  0.0241 -0.5674
  957MOL0     C29075   6.330   0.456   3.307 -0.1856  0.0798 -0.4232
  957MOL0     C29076   6.200   0.378   3.288  0.2835 -0.3776 -0.4335
  957MOL0     N29077   6.081   0.450   3.321  0.0255 -0.4589  0.4128
  957MOL0     C29078   6.037   0.575   3.273 -0.1382  0.5398  0.0140
  957MOL0     C29079   5.912   0.579   3.321  0.2071  0.3123  0.0611
  957MOL0     C29080   5.819   0.703   3.324  0.2903  0.1219 -0.1766
  957MOL0     C29081   5.672   0.672   3.301 -0.3866  0.0551 -0.4095
  957MOL0     C29082   5.610   0.606   3.421  0.6584  0.3388  0.0487
  957MOL0     C29083   5.462   0.572   3.399 -0.2770 -0.0753 -0.1036
  957MOL0     O29084   5.376   0.665   3.471 -0.0375  0.2865  0.7688
  957MOL0     C29085   5.242   0.641   3.463  1.0705  0.5604  0.3825
  957MOL0     C29086   5.172   0.727   3.549  0.1064 -0.0534 -0.2885
  957MOL0     C29087   5.029   0.711   3.558 -1.0791 -0.6856  1.0989
  957MOL0     C29088   4.946   0.804   3.645 -0.5162  0.3224  0.1768
  957MOL0     C29089   4.971   0.606   3.468  0.8435 -0.5192 -0.6129
  957MOL0     C29090   4.821   0.593   3.449 -0.4959  0.5995 -0.3335
  957MOL0     O29091   4.751   0.696   3.502  0.3549 -0.2291 -0.1259
  957MOL0     C29092   4.617   0.692   3.547 -0.2757  0.2917  0.4651
  957MOL0     C29093   4.561   0.816   3.585 -0.4064 -0.6285 -0.4201
  957MOL0     C29094   4.431   0.817   3.619 -0.2582 -0.8774 -0.2786
  957MOL0     C29095   4.356   0.704   3.645 -0.4703  0.1796  0.6468
  957MOL0     O29096   4.227   0.717   3.686  0.0118 -0.5493 -0.5221
  957MOL0     C29097   4.132   0.609   3.645  0.6861  0.1101 -0.0271
  957MOL0     C29098   4.000   0.645   3.701  0.2684  0.0253  0.0082
  957MOL0     C29099   3.879   0.549   3.672  0.1039  0.3216 -0.0137
  957MOL0     C29100   3.757   0.609   3.606  0.6260 -0.0940 -0.3629
  957MOL0     C29101   3.643   0.506   3.607  0.9492  0.3799  0.2950
  957MOL0     C29102   3.526   0.554   3.519 -0.6135 -0.5277  0.7093
  957MOL0     C29103   3.407   0.460   3.513 -0.3077 -0.6474 -0.0951
  957MOL0     C29104   3.281   0.502   3.576  0.4387 -0.0693  0.9397
  957MOL0    Cl29105   3.314   0.563   3.738 -0.0908 -0.1328  0.4921
  957MOL0     C29106   4.418   0.580   3.610 -0.3190  0.8993 -0.2746
  957MOL0     C29107   4.544   0.581   3.553  0.1199  1.6048  0.1090
  957MOL0     O29108   4.776   0.506   3.375 -0.6489 -0.4468 -0.2446
  957MOL0     C29109   5.045   0.527   3.384 -1.2651 -0.3054 -0.5452
  957MOL0     C29110   5.178   0.543   3.395  0.2586  0.6752 -0.1053
  957MOL0     N29111   5.880   0.462   3.390  0.0326 -0.2258  0.5307
  957MOL0     N29112   5.979   0.383   3.390 -0.3850 -0.2001 -0.1992
  957MOL0     C29113   7.247   0.458   3.572 -0.5638 -0.3358  0.6681
  957MOL0     C29114   7.382   0.462   3.552 -0.2739 -0.3682  0.6365
  957MOL0     C29115   7.816   0.570   3.486  0.3288  0.4130  0.9033
  957MOL0     C29116   7.835   0.690   3.406 -0.6358 -0.6362 -1.5148
  957MOL0     C29117   7.962   0.729   3.362 -0.2007  0.2547 -0.5159
  957MOL0     C29118   8.073   0.643   3.390 -0.5052  0.2192 -0.1076
  957MOL0     O29119   8.187   0.671   3.319 -0.3875  0.3203 -0.5622
  957MOL0     C29120   8.289   0.575   3.325  0.6877  0.6793  0.4060
  957MOL0     C29121   8.395   0.596   3.223 -0.2243  0.0299 -0.0886
  957MOL0     C29122   8.513   0.502   3.247 -0.5064 -0.2157  0.1299
  957MOL0     C29123   8.628   0.529   3.142 -0.7338  0.1732  0.9815
  957MOL0     C29124   8.709   0.408   3.110 -0.6078  0.6272 -0.4137
  957MOL0     C29125   8.774   0.303   3.084 -0.3528 -0.4551 -0.0796
  957MOL0     C29126   8.056   0.536   3.479  0.2067  0.6365  0.4982
  957MOL0     C29127   7.933   0.501   3.528 -0.0300  0.3886 -0.0558
  957MOL0     H29128   7.412   0.790   3.456 -0.4547 -0.3949  0.1484
  957MOL0     H29129   7.175   0.777   3.474 -2.6560 -2.2224 -0.7834
  957MOL0     H29130   6.981   0.381   3.545  0.3585  0.3356 -1.6630
  957MOL0     H29131   6.982   0.484   3.699  0.2822  3.6569 -0.3103
  957MOL0     H29132   6.740   0.446   3.633  0.1810 -2.9051 -2.4934
  957MOL0     H29133   6.793   0.613   3.613 -2.2457  0.4024 -2.9586
  957MOL0     H29134   6.798   0.592   3.386 -2.2115  1.9499 -0.1627
  957MOL0     H29135   6.832   0.419   3.389  3.1520  1.1581  2.2798
  957MOL0     H29136   6.580   0.411   3.504  1.0654  0.2538 -0.3554
  957MOL0     H29137   6.561   0.574   3.425 -0.9233 -0.3659  1.1147
  957MOL0     H29138   6.615   0.464   3.193  3.2483 -3.1307 -1.2643
  957MOL0     H29139   6.635   0.308   3.274  1.8282  0.6101  0.8302
  957MOL0     H29140   6.418   0.334   3.158  0.0071  1.8081 -1.1035
  957MOL0     H29141   6.429   0.267   3.316 -2.7921  0.1415 -0.8671
  957MOL0     H29142   6.343   0.481   3.413  0.0384 -0.5444 -0.2951
  957MOL0     H29143   6.326   0.551   3.254 -1.9391 -0.1622 -0.7892
  957MOL0     H29144   6.195   0.290   3.352 -1.7022 -0.0896 -0.1252
  957MOL0     H29145   6.193   0.352   3.182  1.6946  0.2640 -0.7132
  957MOL0     H29146   6.098   0.655   3.232 -0.2811  0.6986  0.1104
  957MOL0     H29147   5.829   0.744   3.425 -4.7237  1.4465  0.0551
  957MOL0     H29148   5.846   0.785   3.256 -1.5510  0.0686 -1.0220
  957MOL0     H29149   5.653   0.615   3.210  2.2934 -0.3444 -0.8153
  957MOL0     H29150   5.613   0.764   3.299  0.4676  0.6107 -0.8728
  957MOL0     H29151   5.613   0.678   3.503  1.2008  0.1598  0.1907
  957MOL0     H29152   5.652   0.508   3.448  1.5141 -0.3649 -3.3518
  957MOL0     H29153   5.458   0.470   3.438  1.5010 -0.5168 -0.9543
  957MOL0     H29154   5.430   0.579   3.294 -2.3997  4.9386  0.5971
  957MOL0     H29155   5.222   0.814   3.591 -1.6600  1.2046 -0.6757
  957MOL0     H29156   4.883   0.871   3.586 -3.0266 -1.9247  0.1112
  957MOL0     H29157   4.874   0.747   3.704 -3.3796  2.7988 -0.6881
  957MOL0     H29158   5.004   0.859   3.719  2.4122 -2.2143 -0.0450
  957MOL0     H29159   4.634   0.896   3.584  2.0474 -2.7520 -1.1646
  957MOL0     H29160   4.376   0.907   3.643  0.2189 -0.6404 -0.0592
  957MOL0     H29161   4.138   0.611   3.536 -0.5094  1.5236 -0.1119
  957MOL0     H29162   4.161   0.520   3.702 -0.0177  0.3349  0.7200
  957MOL0     H29163   4.010   0.666   3.808 -1.0185  0.3111  0.0995
  957MOL0     H29164   3.971   0.743   3.661 -0.3946 -1.2668 -2.9169
  957MOL0     H29165   3.851   0.508   3.769 -1.6604  2.8192  0.6461
  957MOL0     H29166   3.922   0.476   3.603  1.9030 -1.1771  2.5719
  957MOL0     H29167   3.733   0.698   3.665 -1.4322 -1.7816  1.5444
  957MOL0     H29168   3.768   0.646   3.504  0.5348  0.4682 -0.1694
  957MOL0     H29169   3.600   0.485   3.705 -1.6032 -2.7973 -1.3109
  957MOL0     H29170   3.678   0.410   3.569 -2.0314 -0.4597 -0.6031
  957MOL0     H29171   3.494   0.649   3.564 -0.3716 -0.5482  0.9241
  957MOL0     H29172   3.565   0.567   3.417  0.6929  0.7601  1.3363
  957MOL0     H29173   3.449   0.367   3.551  2.8551  0.5041 -0.5232
  957MOL0     H29174   3.378   0.437   3.410 -0.3225  0.4690 -0.3528
  957MOL0     H29175   3.211   0.418   3.582 -0.3973  0.6914  2.2705
  957MOL0     H29176   3.230   0.570   3.507 -0.6920 -1.8903 -0.1011
  957MOL0     H29177   4.362   0.490   3.632  2.2230 -0.4929  0.9701
  957MOL0     H29178   4.585   0.485   3.522 -2.4716 -0.7388  3.2939
  957MOL0     H29179   5.008   0.454   3.312  2.7509 -2.9576 -0.2561
  957MOL0     H29180   5.235   0.471   3.337 -1.0445  0.6642 -1.4448
  957MOL0     H29181   7.196   0.363   3.573 -1.5845  0.2090  1.1830
  957MOL0     H29182   7.441   0.373   3.568  0.4764 -0.2727 -1.3111
  957MOL0     H29183   7.750   0.753   3.380  0.0190  1.3110  0.7166
  957MOL0     H29184   7.962   0.803   3.283  0.1531  0.6001 -0.1955
  957MOL0     H29185   8.326   0.573   3.429  0.7147 -0.6482  0.3859
  957MOL0     H29186   8.246   0.477   3.304  2.8054 -0.0824 -0.7259
  957MOL0     H29187   8.419   0.702   3.219 -0.1520  0.0221  0.1239
  957MOL0     H29188   8.366   0.581   3.119  0.0527 -0.3242 -0.1179
  957MOL0     H29189   8.484   0.397   3.238  1.1383 -0.8819  1.8156
  957MOL0     H29190   8.559   0.515   3.346 -0.3899  1.8275 -0.1515
  957MOL0     H29191   8.683   0.616   3.180  1.4836  0.1563 -1.9135
  957MOL0     H29192   8.586   0.555   3.045  0.7452  1.4883  0.6409
  957MOL0     H29193   8.830   0.214   3.064  0.2038 -0.1762  0.2178
  957MOL0     H29194   8.138   0.473   3.512  0.4163  0.9177  0.5191
  957MOL0     H29195   7.919   0.414   3.593 -1.6752  0.0466 -0.7993
  958MOL0     O29196   6.374   9.193   0.900  0.1607 -0.5237 -0.0092
  958MOL0     C29197   6.401   9.313   0.902 -0.5612 -0.0895 -0.2542
  958MOL0     O29198   6.313   9.420   0.871 -0.0587  0.3037 -1.6587
  958MOL0     C29199   6.194   9.383   0.827  0.1540  0.1962  0.2954
  958MOL0     C29200   6.069   9.410   0.890  0.0571  0.0531 -0.0049
  958MOL0     C29201   5.949   9.376   0.826  0.0430 -0.5210 -0.1167
  958MOL0     C29202   5.953   9.300   0.710 -0.0832  0.6140 -0.5655
  958MOL0     O29203   5.836   9.245   0.660  0.0189  0.0346  0.3707
  958MOL0     C29204   5.788   9.296   0.531 -0.2664 -0.9186 -0.7434
  958MOL0     C29205   5.642   9.309   0.525 -0.1545 -0.1568  0.1725
  958MOL0     C29206   5.596   9.365   0.393 -0.4220  0.1513  0.1222
  958MOL0     C29207   5.440   9.373   0.391 -0.0460  1.1048  0.2598
  958MOL0     C29208   5.386   9.400   0.249  0.0269  0.5583  0.1420
  958MOL0     C29209   5.234   9.427   0.238  0.4467  0.4839  0.2065
  958MOL0     C29210   5.145   9.345   0.331  0.1118 -0.3083  0.4139
  958MOL0     C29211   4.996   9.371   0.290  0.0997 -0.1668  0.9542
  958MOL0     N29212   4.902   9.355   0.402  0.5083 -0.3916 -0.0972
  958MOL0     C29213   4.788   9.282   0.396 -0.6379  1.4255 -0.1648
  958MOL0     C29214   4.718   9.297   0.514 -0.3862  0.1244 -0.7082
  958MOL0     C29215   4.603   9.229   0.577 -0.0335  0.5401  0.5398
  958MOL0     C29216   4.554   9.101   0.500 -0.8305 -0.1782  0.4971
  958MOL0     C29217   4.497   8.997   0.599 -0.4602 -0.1442 -0.1913
  958MOL0     C29218   4.494   8.860   0.529  0.3041 -0.0265 -0.1040
  958MOL0     O29219   4.406   8.865   0.412  0.0403 -0.2112  0.2182
  958MOL0     C29220   4.266   8.868   0.436  0.2198  0.5253  0.6128
  958MOL0     C29221   4.192   8.941   0.344 -0.0116 -0.5567 -0.7586
  958MOL0     C29222   4.053   8.956   0.366 -0.3611  0.1517 -0.0526
  958MOL0     C29223   3.987   9.050   0.276 -0.1231 -0.9862  0.8444
  958MOL0     C29224   3.987   8.885   0.476  0.3840 -0.2886 -0.2805
  958MOL0     C29225   3.845   8.872   0.492 -0.2506 -0.0876 -0.4952
  958MOL0     O29226   3.803   8.793   0.599  0.5200  0.2792 -0.3127
  958MOL0     C29227   3.671   8.762   0.626  0.3106  0.5747  0.2466
  958MOL0     C29228   3.648   8.643   0.701  0.8199  0.5904  0.6136
  958MOL0     C29229   3.514   8.598   0.733  0.5129 -0.4522 -0.0366
  958MOL0     C29230   3.405   8.679   0.689  0.8283  0.7035  0.2349
  958MOL0     O29231   3.280   8.633   0.725 -0.1860  0.1637 -0.0608
  958MOL0     C29232   3.155   8.694   0.679 -0.2867  0.2200  0.7860
  958MOL0     C29233   3.032   8.631   0.747  0.9206  1.3962  1.1988
  958MOL0     C29234   2.899   8.685   0.690 -0.2221 -0.3166  1.3368
  958MOL0     C29235   2.856   8.802   0.773  0.3020  0.0675  0.1679
  958MOL0     C29236   2.726   8.858   0.700  0.1213  0.3842 -0.1867
  958MOL0     C29237   2.620   8.898   0.799 -0.1273  0.0722  0.1586
  958MOL0     C29238   2.504   8.969   0.722 -0.4052  0.3800 -0.6131
  958MOL0     C29239   2.487   9.124   0.749  0.2059  0.2519  0.4443
  958MOL0    Cl29240   2.641   9.213   0.765  0.0662 -0.0958  0.1539
  958MOL0     C29241   3.422   8.806   0.629  0.0591  0.0483 -0.4774
  958MOL0     C29242   3.557   8.845   0.598 -0.2814  0.0258  0.1586
  958MOL0     O29243   3.776   8.921   0.405  0.5727  0.5583 -0.4024
  958MOL0     C29244   4.076   8.806   0.562  0.9981 -0.2899 -0.0838
  958MOL0     C29245   4.209   8.803   0.542  0.0681  0.3328 -0.1350
  958MOL0     N29246   4.783   9.400   0.576 -0.7250  0.0806 -0.6623
  958MOL0     N29247   4.890   9.435   0.513  0.1428 -0.6195 -0.5597
  958MOL0     C29248   6.070   9.279   0.637  0.9042  0.4723 -0.3654
  958MOL0     C29249   6.186   9.316   0.703 -0.7041 -0.3686  0.5077
  958MOL0     C29250   6.538   9.355   0.954  0.3591 -0.0657 -0.2011
  958MOL0     C29251   6.593   9.482   0.937  0.8537  0.5383 -0.1953
  958MOL0     C29252   6.718   9.522   0.986 -0.6260  0.5380 -0.8381
  958MOL0     C29253   6.779   9.433   1.075 -1.2835 -0.0496 -0.7578
  958MOL0     O29254   6.898   9.471   1.147  0.0054  0.3279  0.1190
  958MOL0     C29255   6.957   9.601   1.117 -0.3277 -0.3091 -0.0242
  958MOL0     C29256   7.088   9.639   1.194  0.2609  0.5646 -0.8142
  958MOL0     C29257   7.044   9.678   1.339  0.4345 -0.1222  0.2038
  958MOL0     C29258   7.152   9.667   1.446 -0.4181 -0.2635  0.3270
  958MOL0     C29259   7.278   9.733   1.406 -0.2633  1.0845  0.8600
  958MOL0     C29260   7.384   9.785   1.380  0.4513  0.1207 -0.2044
  958MOL0     C29261   6.720   9.313   1.104 -0.2541  0.0478  0.2748
  958MOL0     C29262   6.605   9.269   1.039 -0.2045  0.2894 -0.2415
  958MOL0     H29263   6.072   9.451   0.990  2.3982 -0.7244  0.3040
  958MOL0     H29264   5.856   9.398   0.877  0.5121 -0.8976  0.9150
  958MOL0     H29265   5.838   9.392   0.519 -0.7929 -0.2550  1.7199
  958MOL0     H29266   5.818   9.226   0.453  0.2326 -0.2553 -1.1547
  958MOL0     H29267   5.605   9.206   0.534 -2.7000  0.5855 -0.8460
  958MOL0     H29268   5.604   9.369   0.608  0.6760  0.3037  0.2258
  958MOL0     H29269   5.636   9.466   0.386 -0.8347  0.3008 -0.1304
  958MOL0     H29270   5.631   9.317   0.302  2.2838  2.1023  0.0114
  958MOL0     H29271   5.401   9.282   0.437  1.3454  1.7145  2.8592
  958MOL0     H29272   5.403   9.453   0.456 -3.8340 -0.4628  0.3218
  958MOL0     H29273   5.447   9.475   0.197  0.7546 -0.0718  0.0718
  958MOL0     H29274   5.401   9.309   0.191  1.8408  3.1473 -3.8469
  958MOL0     H29275   5.224   9.535   0.250  1.0374  0.5431  0.1969
  958MOL0     H29276   5.202   9.396   0.138  1.4462  1.4942 -0.4496
  958MOL0     H29277   5.165   9.239   0.316  0.3618 -0.1818 -0.1726
  958MOL0     H29278   5.166   9.362   0.437  2.2945 -0.9836  0.1303
  958MOL0     H29279   4.975   9.310   0.202  1.8609  1.4008 -0.6662
  958MOL0     H29280   4.990   9.475   0.256 -1.1906 -0.8276 -1.0202
  958MOL0     H29281   4.754   9.218   0.315  0.8380  0.8660 -0.3717
  958MOL0     H29282   4.631   9.195   0.677  0.1471 -1.8207 -0.2519
  958MOL0     H29283   4.530   9.310   0.572 -0.3879  0.1511 -1.3854
  958MOL0     H29284   4.642   9.050   0.460  0.0511 -1.0023  3.2868
  958MOL0     H29285   4.487   9.127   0.418 -0.3187  4.0195  1.2090
  958MOL0     H29286   4.407   9.041   0.642  0.1218 -0.4408  1.4036
  958MOL0     H29287   4.565   8.979   0.683 -1.9776 -1.2738  0.8506
  958MOL0     H29288   4.456   8.791   0.605 -1.0712  2.5811  1.7416
  958MOL0     H29289   4.588   8.825   0.485 -0.2679 -1.6747 -0.0853
  958MOL0     H29290   4.236   8.976   0.251 -2.0211  0.5743 -1.3450
  958MOL0     H29291   4.062   9.104   0.218 -0.3977 -1.6005 -0.0913
  958MOL0     H29292   3.919   9.001   0.206  1.4517 -2.4312  0.2714
  958MOL0     H29293   3.928   9.120   0.336 -0.0201 -0.2193  0.0635
  958MOL0     H29294   3.734   8.590   0.739  0.7038 -0.8483 -0.9874
  958MOL0     H29295   3.499   8.516   0.803  0.7265  0.5338  1.2075
  958MOL0     H29296   3.153   8.793   0.725  0.3016  0.1950  0.8717
  958MOL0     H29297   3.153   8.703   0.570  5.0934 -0.1609  0.3640
  958MOL0     H29298   3.026   8.524   0.725 -4.8170  1.5285  0.5557
  958MOL0     H29299   3.036   8.646   0.856 -0.5246 -1.2070  1.6836
  958MOL0     H29300   2.829   8.601   0.683  0.2256 -0.5338 -3.1987
  958MOL0     H29301   2.905   8.714   0.585  3.2615 -1.9427  0.9574
  958MOL0     H29302   2.831   8.773   0.875 -0.3519 -1.4184 -0.3879
  958MOL0     H29303   2.941   8.871   0.780 -0.1450  0.6037  0.3656
  958MOL0     H29304   2.696   8.787   0.623  0.7597  1.8938 -1.9037
  958MOL0     H29305   2.761   8.943   0.640 -1.1883 -0.4809 -2.2827
  958MOL0     H29306   2.581   8.810   0.851  2.3486 -2.5352 -2.0247
  958MOL0     H29307   2.667   8.968   0.869  2.3774 -1.7559  0.4583
  958MOL0     H29308   2.413   8.909   0.729  1.3696 -2.4824 -0.5370
  958MOL0     H29309   2.523   8.970   0.614 -0.3634 -0.6714 -0.6241
  958MOL0     H29310   2.441   9.128   0.848  1.1424 -0.9459  0.9604
  958MOL0     H29311   2.409   9.170   0.688 -0.5453  1.0736  1.9707
  958MOL0     H29312   3.334   8.866   0.609  3.2250  5.9320  0.9596
  958MOL0     H29313   3.562   8.936   0.539 -0.4520  0.6321  1.0565
  958MOL0     H29314   4.043   8.732   0.634 -0.4039 -2.3668 -2.7081
  958MOL0     H29315   4.272   8.750   0.612  1.1313  1.7756  0.0680
  958MOL0     H29316   6.076   9.234   0.539  1.9683  1.3996 -0.7377
  958MOL0     H29317   6.276   9.285   0.651 -1.9974  1.2173 -3.0775
  958MOL0     H29318   6.538   9.552   0.874 -2.2624 -1.7124 -0.2195
  958MOL0     H29319   6.756   9.622   0.966 -0.9858  1.1944  1.4876
  958MOL0     H29320   6.983   9.608   1.011  0.0026 -0.4564  0.0433
  958MOL0     H29321   6.882   9.677   1.141  0.9007  1.3947 -1.3153
  958MOL0     H29322   7.125   9.728   1.142 -1.9330  0.2852 -3.0876
  958MOL0     H29323   7.157   9.554   1.186 -1.8004 -1.0596 -2.3385
  958MOL0     H29324   6.960   9.616   1.373 -1.2612  1.5951 -0.6616
  958MOL0     H29325   6.999   9.777   1.333 -0.8855 -0.7485 -0.7280
  958MOL0     H29326   7.181   9.565   1.473 -3.2797 -1.3873 -0.4662
  958MOL0     H29327   7.125   9.723   1.536 -0.5933 -0.2130  0.2435
  958MOL0     H29328   7.475   9.831   1.348 -0.1050  1.2601 -0.1852
  958MOL0     H29329   6.761   9.245   1.178 -1.3171  0.0645  0.8942
  958MOL0     H29330   6.563   9.172   1.065 -3.9588  1.4651 -1.3210
  959MOL0     O29331   7.491   5.215   8.008  0.6838  0.1557  0.6638
  959MOL0     C29332   7.562   5.141   8.074 -0.4718  0.0466  1.0126
  959MOL0     O29333   7.519   5.028   8.132  0.1055 -0.1207  0.4573
  959MOL0     C29334   7.386   4.997   8.124  0.5348  0.1073 -0.2864
  959MOL0     C29335   7.276   5.076   8.167  0.5168 -0.1223  0.5180
  959MOL0     C29336   7.142   5.036   8.157 -0.4991 -0.7170  0.4234
  959MOL0     C29337   7.116   4.907   8.102 -0.6683  0.2696  0.0949
  959MOL0     O29338   6.987   4.869   8.090  0.2864  0.2379 -0.1313
  959MOL0     C29339   6.949   4.786   7.982  0.0341 -0.2614 -0.1610
  959MOL0     C29340   6.801   4.775   7.990  0.4302 -0.5117  0.7049
  959MOL0     C29341   6.760   4.657   7.907 -0.4923  0.2226  0.1662
  959MOL0     C29342   6.611   4.655   7.903 -0.4440  0.1155 -0.4668
  959MOL0     C29343   6.554   4.535   7.838  0.2353 -0.4823  0.3869
  959MOL0     C29344   6.617   4.520   7.699 -0.4245 -1.5510  0.5220
  959MOL0     C29345   6.546   4.425   7.604  0.3628 -0.2315 -0.0416
  959MOL0     C29346   6.400   4.475   7.576 -0.7446 -0.3395 -0.7349
  959MOL0     N29347   6.357   4.433   7.444 -0.2945 -0.8347 -0.6465
  959MOL0     C29348   6.369   4.511   7.332 -0.1893  0.0477 -0.1846
  959MOL0     C29349   6.318   4.441   7.232 -0.0874 -0.3932 -0.3078
  959MOL0     C29350   6.322   4.497   7.096 -0.4279  0.0239  1.1244
  959MOL0     C29351   6.218   4.608   7.089  0.5735  0.1678 -0.4612
  959MOL0     C29352   6.075   4.570   7.074  1.1644  0.7924 -0.1260
  959MOL0     C29353   6.010   4.467   7.168 -1.2804 -0.6125 -0.8101
  959MOL0     O29354   5.874   4.445   7.134  0.6018  0.5496 -0.2770
  959MOL0     C29355   5.800   4.359   7.210  0.9164  0.1107 -0.0797
  959MOL0     C29356   5.842   4.309   7.337  0.6754 -0.3212  1.1577
  959MOL0     C29357   5.753   4.246   7.427  0.7166  0.3989  1.1021
  959MOL0     C29358   5.811   4.210   7.562  0.2522  1.2424  0.6141
  959MOL0     C29359   5.616   4.221   7.384 -0.1751 -0.3287  0.2241
  959MOL0     C29360   5.512   4.176   7.477 -0.4874  0.2514  0.1584
  959MOL0     O29361   5.377   4.189   7.430  0.0056  0.1647 -0.3497
  959MOL0     C29362   5.284   4.157   7.526  0.0478 -0.3796 -0.5340
  959MOL0     C29363   5.175   4.075   7.482 -0.0722 -0.3429  0.2640
  959MOL0     C29364   5.065   4.055   7.559 -0.4280  0.6822 -0.0442
  959MOL0     C29365   5.070   4.093   7.692 -0.0344 -0.3903  0.9642
  959MOL0     O29366   4.960   4.072   7.768 -0.4482  0.4578  0.0760
  959MOL0     C29367   4.924   3.939   7.793 -0.0967 -0.6890 -0.1012
  959MOL0     C29368   4.773   3.915   7.778  0.8651  0.7528  0.1617
  959MOL0     C29369   4.727   3.821   7.894 -0.3411 -0.8304  0.8081
  959MOL0     C29370   4.582   3.792   7.892 -0.9242 -0.4163 -0.0012
  959MOL0     C29371   4.544   3.677   7.995  0.3886  0.5693 -0.5737
  959MOL0     C29372   4.391   3.670   7.998  0.1837  0.4045  0.5672
  959MOL0     C29373   4.337   3.557   8.081  0.8503 -0.4346 -0.4014
  959MOL0     C29374   4.365   3.418   8.056 -0.8480  0.3813 -0.0857
  959MOL0    Cl29375   4.300   3.360   7.911 -0.6542  0.0561 -0.1005
  959MOL0     C29376   5.168   4.171   7.741 -0.6288 -0.8680 -0.8947
  959MOL0     C29377   5.276   4.212   7.659  0.2531 -0.2097  0.5674
  959MOL0     O29378   5.542   4.135   7.587 -0.4606  0.2428 -0.2392
  959MOL0     C29379   5.583   4.266   7.252  0.0051 -0.2272  0.1563
  959MOL0     C29380   5.671   4.332   7.170  0.4293 -0.4223 -0.2097
  959MOL0     N29381   6.285   4.315   7.284 -0.3209 -0.3346 -0.8008
  959MOL0     N29382   6.315   4.305   7.409  0.3926  0.1744  0.9354
  959MOL0     C29383   7.230   4.835   8.055 -0.1016 -0.5747  0.1823
  959MOL0     C29384   7.366   4.875   8.068  0.5514  0.5187  0.8296
  959MOL0     C29385   7.698   5.177   8.090 -0.3836  1.2246 -0.4517
  959MOL0     C29386   7.748   5.292   8.018 -0.0378 -0.3011 -0.5197
  959MOL0     C29387   7.876   5.339   8.056  0.5581  0.6750 -0.0227
  959MOL0     C29388   7.958   5.273   8.143  0.5602  0.7532 -0.4738
  959MOL0     O29389   8.074   5.320   8.191  0.5904 -0.4017  0.1602
  959MOL0     C29390   8.169   5.350   8.090  0.5522  0.3587 -0.0055
  959MOL0     C29391   8.316   5.343   8.142 -0.1165 -0.8034  0.0830
  959MOL0     C29392   8.343   5.233   8.246 -0.1934 -0.2558 -0.1078
  959MOL0     C29393   8.498   5.218   8.267  0.0934  0.2448  0.5567
  959MOL0     C29394   8.519   5.248   8.406  0.1122  0.4558 -0.1836
  959MOL0     C29395   8.550   5.274   8.523 -0.2077 -0.2428 -0.2340
  959MOL0     C29396   7.903   5.167   8.213  0.3755 -0.3276 -0.1201
  959MOL0     C29397   7.779   5.112   8.181 -0.8234  0.8822  0.9246
  959MOL0     H29398   7.295   5.170   8.219  1.6822 -0.5747  0.9221
  959MOL0     H29399   7.063   5.096   8.202 -0.2918 -0.8216  0.9286
  959MOL0     H29400   6.991   4.819   7.887  1.4093  3.4006  1.5087
  959MOL0     H29401   6.997   4.689   8.001  2.4200  1.1076  1.4077
  959MOL0     H29402   6.754   4.766   8.088  2.0133  3.3440  1.9978
  959MOL0     H29403   6.766   4.865   7.938  1.5665  0.8617  2.2087
  959MOL0     H29404   6.799   4.665   7.805 -1.4562  2.0858 -0.0934
  959MOL0     H29405   6.807   4.567   7.949  0.9376 -0.1988 -2.1605
  959MOL0     H29406   6.580   4.659   8.007  3.0494  1.1477  0.6611
  959MOL0     H29407   6.580   4.747   7.852 -0.1488  0.2179 -0.4618
  959MOL0     H29408   6.582   4.448   7.898  0.6244 -1.8249 -1.6429
  959MOL0     H29409   6.445   4.543   7.834  0.2199 -0.9402 -0.3199
  959MOL0     H29410   6.620   4.614   7.642 -0.4745 -1.6507  0.3558
  959MOL0     H29411   6.720   4.490   7.721 -1.3805 -2.5075  4.5351
  959MOL0     H29412   6.599   4.405   7.511 -1.0456  0.4079 -1.0167
  959MOL0     H29413   6.533   4.324   7.644 -1.8043 -0.8426 -2.0422
  959MOL0     H29414   6.383   4.582   7.589 -1.0984  0.3667 -5.2785
  959MOL0     H29415   6.335   4.424   7.648 -1.1483 -0.4003 -1.1399
  959MOL0     H29416   6.428   4.603   7.329 -1.9966  1.2740 -0.0356
  959MOL0     H29417   6.417   4.551   7.083  0.6180 -2.2222 -1.5555
  959MOL0     H29418   6.317   4.421   7.018  1.0115  0.0978  0.9299
  959MOL0     H29419   6.240   4.663   6.997 -2.8596 -1.7599 -2.6558
  959MOL0     H29420   6.227   4.677   7.173  0.8672  0.0143 -0.3653
  959MOL0     H29421   6.070   4.515   6.980 -0.3270  0.3332  0.2027
  959MOL0     H29422   6.013   4.660   7.072  1.2040  0.8165 -0.5440
  959MOL0     H29423   6.025   4.496   7.273  1.7446 -1.1554 -1.0050
  959MOL0     H29424   6.050   4.365   7.160  1.7346  0.4678 -0.4233
  959MOL0     H29425   5.944   4.331   7.365  0.9431 -0.0772  0.0287
  959MOL0     H29426   5.908   4.259   7.565 -0.3763  2.5629  0.0911
  959MOL0     H29427   5.756   4.253   7.646 -0.3241  0.4927  0.6422
  959MOL0     H29428   5.814   4.100   7.564 -2.1438  1.1164  0.6464
  959MOL0     H29429   5.176   4.036   7.381  0.8435  0.8113 -0.2010
  959MOL0     H29430   4.982   3.998   7.521 -1.8536  1.6479  1.4837
  959MOL0     H29431   4.968   3.865   7.727  1.6342  0.4178 -0.2514
  959MOL0     H29432   4.963   3.914   7.892 -0.8432  2.3303  1.0981
  959MOL0     H29433   4.715   4.007   7.772  0.9718  0.7343 -1.7006
  959MOL0     H29434   4.750   3.865   7.683 -0.6172  0.6177  0.5690
  959MOL0     H29435   4.758   3.853   7.994 -0.9986  0.9667  0.4732
  959MOL0     H29436   4.769   3.720   7.891 -0.3451 -0.8037 -1.8708
  959MOL0     H29437   4.524   3.878   7.925 -1.6813 -2.0156  3.2947
  959MOL0     H29438   4.564   3.767   7.787  0.8112  1.7887 -0.8895
  959MOL0     H29439   4.591   3.708   8.088 -0.1208  1.0410 -0.4636
  959MOL0     H29440   4.581   3.582   7.957 -0.0271  0.2832 -0.2718
  959MOL0     H29441   4.354   3.763   8.044 -0.0173  0.4103  0.3952
  959MOL0     H29442   4.347   3.666   7.898 -0.0657  1.9423  0.5817
  959MOL0     H29443   4.227   3.559   8.073  0.9267 -0.0519 -1.6627
  959MOL0     H29444   4.370   3.587   8.180  0.2899 -1.7749  0.2210
  959MOL0     H29445   4.306   3.368   8.134 -1.0537  1.1142  0.2322
  959MOL0     H29446   4.471   3.391   8.066 -1.2724 -0.5354  2.9759
  959MOL0     H29447   5.150   4.222   7.835 -2.1633 -0.2556 -1.5024
  959MOL0     H29448   5.348   4.284   7.697  0.9871 -1.8376  2.4065
  959MOL0     H29449   5.485   4.235   7.215  0.7357 -4.8905  1.4478
  959MOL0     H29450   5.646   4.359   7.069  1.0132 -1.1188 -0.5530
  959MOL0     H29451   7.204   4.735   8.021 -2.4658  0.5809 -1.6618
  959MOL0     H29452   7.446   4.806   8.042 -1.8365 -2.0007 -0.3137
  959MOL0     H29453   7.687   5.341   7.943 -2.9051  1.9951  2.9837
  959MOL0     H29454   7.911   5.432   8.013 -0.2127  0.9139 -0.1485
  959MOL0     H29455   8.150   5.285   8.003 -3.6675  3.3049 -1.6439
  959MOL0     H29456   8.155   5.455   8.063  1.7077  1.4702  3.3080
  959MOL0     H29457   8.319   5.433   8.204 -1.0591 -0.5812 -0.1727
  959MOL0     H29458   8.390   5.348   8.061  0.1536 -1.2743  0.2952
  959MOL0     H29459   8.294   5.147   8.201 -0.3541  0.4706 -1.3758
  959MOL0     H29460   8.299   5.256   8.343 -1.7936  0.8182 -1.0390
  959MOL0     H29461   8.574   5.274   8.211  0.0373  0.4209  0.6560
  959MOL0     H29462   8.528   5.116   8.240 -2.6256 -0.0915 -1.5469
  959MOL0     H29463   8.580   5.296   8.623  1.3750  1.5006 -1.0455
  959MOL0     H29464   7.954   5.124   8.298  0.1337  1.1622  0.8054
  959MOL0     H29465   7.758   5.013   8.221 -0.3065  0.5524  0.3938
  960MOL0     O29466   7.476   2.003   1.651  0.1306  0.4501  0.3189
  960MOL0     C29467   7.491   2.013   1.528  1.0871 -1.3066  0.0835
  960MOL0     O29468   7.406   2.080   1.439 -0.5036 -0.0690 -0.2650
  960MOL0     C29469   7.295   2.137   1.484 -0.1060  0.5518  0.2018
  960MOL0     C29470   7.183   2.097   1.421  0.8390  0.0264  0.0889
  960MOL0     C29471   7.057   2.136   1.468 -0.1167 -0.3537 -0.2147
  960MOL0     C29472   7.041   2.225   1.573 -1.3361  0.1162 -0.0820
  960MOL0     O29473   6.914   2.251   1.611  0.5406 -0.3507  0.3146
  960MOL0     C29474   6.902   2.346   1.712  0.3545 -0.9643 -0.4021
  960MOL0     C29475   6.753   2.377   1.742 -0.2638  0.8977 -0.8630
  960MOL0     C29476   6.688   2.244   1.800  0.6784 -0.5048  0.0422
  960MOL0     C29477   6.648   2.147   1.685  0.2149  0.1633 -0.1752
  960MOL0     C29478   6.519   2.080   1.732  0.0778 -0.2768  0.8412
  960MOL0     C29479   6.461   1.984   1.624  0.8225 -0.5044 -0.0300
  960MOL0     C29480   6.356   1.888   1.692  0.4383 -0.6895 -0.7842
  960MOL0     C29481   6.215   1.954   1.720  0.4453 -0.6615 -0.2279
  960MOL0     N29482   6.218   2.029   1.848  1.0240 -0.0528  0.2495
  960MOL0     C29483   6.258   1.977   1.975 -1.5177  0.4188  0.1352
  960MOL0     C29484   6.249   2.085   2.061 -0.7543  0.7774  0.2866
  960MOL0     C29485   6.266   2.101   2.209  0.2134  0.7489  0.5642
  960MOL0     C29486   6.392   2.187   2.244 -0.6654 -0.3277  0.4286
  960MOL0     C29487   6.513   2.160   2.161 -0.6542  0.0838 -0.1815
  960MOL0     C29488   6.627   2.254   2.201 -0.1614  0.5270  0.1046
  960MOL0     O29489   6.652   2.227   2.341  0.0858 -0.0608 -1.0893
  960MOL0     C29490   6.780   2.221   2.373  0.3114  0.4957 -0.5096
  960MOL0     C29491   6.825   2.332   2.437  0.1357  0.6651  0.4196
  960MOL0     C29492   6.957   2.340   2.480 -0.9904 -0.8741  0.0229
  960MOL0     C29493   6.992   2.459   2.565 -0.4837 -0.6182  0.7563
  960MOL0     C29494   7.051   2.238   2.449 -0.7422 -0.4558  0.1733
  960MOL0     C29495   7.200   2.241   2.482  0.0744  0.7368  0.1075
  960MOL0     O29496   7.255   2.367   2.513 -0.0342  0.4716  0.8137
  960MOL0     C29497   7.382   2.386   2.560  0.3323 -0.3224  0.0031
  960MOL0     C29498   7.486   2.301   2.589  0.3110  0.2766 -0.2691
  960MOL0     C29499   7.616   2.348   2.630  0.5315  0.1699  0.2005
  960MOL0     C29500   7.644   2.491   2.644 -0.0058  0.3033 -0.7464
  960MOL0     O29501   7.767   2.541   2.689 -0.0885 -0.2796  0.2465
  960MOL0     C29502   7.869   2.445   2.722 -0.2426  0.2308  0.5337
  960MOL0     C29503   7.991   2.530   2.767 -0.7889  0.1304  0.1095
  960MOL0     C29504   8.127   2.470   2.776 -0.4095 -0.2202  0.4024
  960MOL0     C29505   8.238   2.576   2.814 -0.1160 -0.0404 -0.4846
  960MOL0     C29506   8.375   2.503   2.828 -0.2785 -0.0997  0.2412
  960MOL0     C29507   8.481   2.614   2.862 -0.1190  1.1107 -0.6286
  960MOL0     C29508   8.624   2.555   2.868 -0.0761  0.1904 -0.0537
  960MOL0     C29509   8.727   2.671   2.872  0.2612  0.9971  0.2240
  960MOL0    Cl29510   8.897   2.616   2.872 -0.0771  0.1802 -0.1292
  960MOL0     C29511   7.537   2.572   2.618 -0.2077 -0.1055  0.2406
  960MOL0     C29512   7.416   2.526   2.573  0.1288  0.7359 -0.7538
  960MOL0     O29513   7.258   2.132   2.499 -0.2066  0.2182  0.7149
  960MOL0     C29514   6.996   2.121   2.400  0.4895  0.7215  1.3494
  960MOL0     C29515   6.863   2.112   2.360 -0.3569 -0.5228  0.1875
  960MOL0     N29516   6.201   2.195   1.987 -1.0737 -0.3823  0.9772
  960MOL0     N29517   6.191   2.163   1.860 -0.0695  0.2480  0.1314
  960MOL0     C29518   7.156   2.268   1.641 -1.7669 -0.2771 -0.2671
  960MOL0     C29519   7.287   2.235   1.587 -1.1906  0.7345 -0.0973
  960MOL0     C29520   7.601   1.938   1.460  0.6893  0.0379 -0.1528
  960MOL0     C29521   7.623   1.975   1.326 -0.1157  0.2812  0.0385
  960MOL0     C29522   7.727   1.908   1.263  0.5533 -0.4882  0.8490
  960MOL0     C29523   7.816   1.823   1.337 -1.0434  0.7696  0.1730
  960MOL0     O29524   7.918   1.754   1.271 -0.7898 -0.0069  0.7168
  960MOL0     C29525   8.045   1.819   1.287 -0.3914  0.2812  0.3019
  960MOL0     C29526   8.073   1.946   1.204 -0.8227 -0.2248  0.1622
  960MOL0     C29527   8.078   1.916   1.054 -0.4239 -0.4855 -0.2217
  960MOL0     C29528   8.209   1.948   0.980  0.0291 -0.0410  0.1917
  960MOL0     C29529   8.306   1.841   1.012 -0.3965  1.1183 -0.0717
  960MOL0     C29530   8.384   1.747   1.048  0.1674 -0.4481  0.8056
  960MOL0     C29531   7.797   1.798   1.470 -0.0632 -0.3472 -0.0523
  960MOL0     C29532   7.684   1.852   1.530 -0.0980 -0.4921  0.1676
  960MOL0     H29533   7.183   2.021   1.344  1.5488 -0.5183  0.6093
  960MOL0     H29534   6.961   2.112   1.423 -0.5798  1.4351 -0.2496
  960MOL0     H29535   6.955   2.317   1.804 -1.7922  0.1973  1.3164
  960MOL0     H29536   6.943   2.442   1.682  1.0897 -0.9698  0.5425
  960MOL0     H29537   6.753   2.467   1.804 -0.0720  0.7335 -0.6258
  960MOL0     H29538   6.708   2.403   1.645  0.4676  2.2132 -0.8687
  960MOL0     H29539   6.753   2.192   1.870  0.9644 -2.8487 -1.8244
  960MOL0     H29540   6.597   2.276   1.851 -0.4758  1.3920 -2.9089
  960MOL0     H29541   6.624   2.206   1.597  0.7486  1.6109  0.6091
  960MOL0     H29542   6.728   2.073   1.673 -0.3660 -0.5038 -0.0061
  960MOL0     H29543   6.517   2.040   1.834 -0.1279  1.4325  1.5347
  960MOL0     H29544   6.441   2.156   1.743  0.0217  0.0158 -1.1220
  960MOL0     H29545   6.423   2.040   1.538 -2.4077 -0.4458  1.2627
  960MOL0     H29546   6.540   1.922   1.582  2.0943  0.7659  0.4014
  960MOL0     H29547   6.340   1.805   1.623 -0.0926 -1.8738  0.7019
  960MOL0     H29548   6.400   1.834   1.777 -0.4834 -1.6704 -0.9141
  960MOL0     H29549   6.135   1.881   1.733  0.8041 -0.7830  1.4416
  960MOL0     H29550   6.196   2.015   1.631  2.9613  0.4465 -0.1119
  960MOL0     H29551   6.287   1.878   2.008  2.9537  1.6687  0.4886
  960MOL0     H29552   6.182   2.156   2.251 -1.6723 -1.3222 -0.3383
  960MOL0     H29553   6.268   1.997   2.244  0.4958 -0.6665 -3.2113
  960MOL0     H29554   6.419   2.170   2.349  1.5707  3.0634  0.5672
  960MOL0     H29555   6.367   2.293   2.236 -1.7589 -0.7274 -2.6469
  960MOL0     H29556   6.492   2.184   2.056 -0.8759 -0.4405 -0.2566
  960MOL0     H29557   6.545   2.057   2.178  0.5935  0.5899  0.6936
  960MOL0     H29558   6.595   2.356   2.180 -2.8928 -0.1817  0.4153
  960MOL0     H29559   6.711   2.227   2.136 -0.4035 -0.9507  0.3718
  960MOL0     H29560   6.750   2.409   2.454 -0.8988 -0.1863 -0.0997
  960MOL0     H29561   7.064   2.425   2.640  0.7686 -0.1186 -0.1802
  960MOL0     H29562   7.048   2.528   2.500  3.1503 -3.4278  0.5988
  960MOL0     H29563   6.909   2.497   2.625 -0.0323  0.1237  0.9319
  960MOL0     H29564   7.482   2.193   2.593  4.4829 -0.0096  1.1574
  960MOL0     H29565   7.684   2.269   2.659  0.0195 -0.1504  0.5598
  960MOL0     H29566   7.827   2.393   2.809 -1.0816  0.4198  0.2555
  960MOL0     H29567   7.883   2.383   2.633 -1.1226 -2.0079  1.8565
  960MOL0     H29568   7.994   2.611   2.693 -0.7104 -1.0043 -1.1786
  960MOL0     H29569   7.958   2.568   2.864  0.0022  1.1558 -0.0154
  960MOL0     H29570   8.147   2.430   2.676 -2.4761  2.6616 -1.3108
  960MOL0     H29571   8.121   2.388   2.849  0.3876 -0.5908  0.0698
  960MOL0     H29572   8.238   2.657   2.740 -4.2623  0.0559 -0.6305
  960MOL0     H29573   8.219   2.624   2.910  2.7183  1.6126 -0.6650
  960MOL0     H29574   8.413   2.450   2.741  3.7181  1.2617  0.9510
  960MOL0     H29575   8.361   2.438   2.915 -0.2816 -0.5402 -0.0901
  960MOL0     H29576   8.471   2.691   2.785 -1.0242  1.1177 -0.5056
  960MOL0     H29577   8.452   2.667   2.953  1.3315  1.0437 -0.1004
  960MOL0     H29578   8.645   2.487   2.785 -1.8712 -2.2453  1.3820
  960MOL0     H29579   8.637   2.497   2.959  2.8540  0.4045 -0.2223
  960MOL0     H29580   8.708   2.734   2.959 -0.4367  1.2887 -0.1295
  960MOL0     H29581   8.704   2.731   2.784  2.5701  1.9800  0.2195
  960MOL0     H29582   7.551   2.679   2.625 -2.4591  0.2053  0.5013
  960MOL0     H29583   7.334   2.592   2.549  0.7687  2.2408  0.9614
  960MOL0     H29584   7.062   2.041   2.371 -0.9023  0.5689 -1.7593
  960MOL0     H29585   6.832   2.016   2.318 -2.4404 -0.0225  0.4682
  960MOL0     H29586   7.156   2.332   1.728 -1.4467  0.5027 -0.8258
  960MOL0     H29587   7.382   2.250   1.638 -1.4132 -0.3761  0.6848
  960MOL0     H29588   7.554   2.037   1.269  0.0429  0.5097  0.0906
  960MOL0     H29589   7.737   1.915   1.155  1.1528 -0.3247  0.9071
  960MOL0     H29590   8.058   1.844   1.393 -2.1055 -0.6768  0.7717
  960MOL0     H29591   8.125   1.749   1.259 -1.7248 -1.1769  0.0091
  960MOL0     H29592   8.173   1.986   1.223 -0.7435  0.7321 -1.9911
  960MOL0     H29593   8.002   2.027   1.224  0.4739  1.1061 -0.4362
  960MOL0     H29594   8.001   1.981   1.011 -1.0635 -1.3853 -0.4675
  960MOL0     H29595   8.061   1.809   1.036  0.0061 -1.3513  3.5776
  960MOL0     H29596   8.256   2.043   1.008 -0.9544  0.4392  0.2394
  960MOL0     H29597   8.195   1.946   0.872  0.5835 -1.0898  0.1282
  960MOL0     H29598   8.458   1.673   1.069 -0.1705 -0.6036  1.4692
  960MOL0     H29599   7.865   1.736   1.527 -0.1345  0.4399  0.9220
  960MOL0     H29600   7.679   1.840   1.638  1.5394  0.9919  0.4586
  961MOL0     O29601   1.334   0.723   3.597 -0.3267 -0.2677  0.4857
  961MOL0     C29602   1.407   0.720   3.499 -0.2341 -0.6193 -0.8097
  961MOL0     O29603   1.369   0.760   3.375  0.4309 -0.0281  0.0156
  961MOL0     C29604   1.232   0.772   3.354 -0.7078  0.6720  0.7590
  961MOL0     C29605   1.177   0.668   3.283 -0.0910  0.1481 -0.1551
  961MOL0     C29606   1.043   0.669   3.243  0.0563 -0.1263  0.1434
  961MOL0     C29607   0.954   0.776   3.280  0.5838 -0.2208  0.2506
  961MOL0     O29608   0.827   0.769   3.225 -0.0898  0.3176 -0.1314
  961MOL0     C29609   0.756   0.894   3.234  0.0516  0.5130  0.5024
  961MOL0     C29610   0.620   0.881   3.159 -0.9744 -0.1982 -0.9038
  961MOL0     C29611   0.541   1.007   3.189  0.1295 -0.2576 -0.9187
  961MOL0     C29612   0.397   0.999   3.155 -0.1027  0.2087 -0.7479
  961MOL0     C29613   0.335   1.125   3.192  0.7583  0.0467 -0.1098
  961MOL0     C29614   0.187   1.114   3.185  0.1423  1.3312  0.3791
  961MOL0     C29615   0.112   1.245   3.216 -0.7031  0.2074 -0.1211
  961MOL0     C29616  -0.038   1.232   3.233 -0.5585  0.7043 -0.3566
  961MOL0     N29617  -0.084   1.369   3.273 -0.4584 -0.8842  0.3141
  961MOL0     C29618  -0.126   1.469   3.191 -0.5137  0.2858  0.2023
  961MOL0     C29619  -0.135   1.581   3.273  0.0699 -0.8716  0.3388
  961MOL0     C29620  -0.176   1.719   3.227  0.6106 -0.2214 -0.1420
  961MOL0     C29621  -0.107   1.823   3.315  0.4046  0.7193 -0.2059
  961MOL0     C29622  -0.102   1.966   3.260  0.2657 -0.3380 -0.0197
  961MOL0     C29623  -0.238   2.039   3.280 -0.3405  0.4309 -1.6840
  961MOL0     O29624  -0.271   2.063   3.420  0.2728  0.5314  0.1926
  961MOL0     C29625  -0.405   2.051   3.458 -0.2608 -0.2496 -0.5273
  961MOL0     C29626  -0.508   2.069   3.370  0.6321 -0.3996  0.6386
  961MOL0     C29627  -0.639   2.072   3.412  0.0366  0.2826  1.1291
  961MOL0     C29628  -0.745   2.094   3.308  0.8764 -0.1636  0.9699
  961MOL0     C29629  -0.668   2.033   3.539 -0.3018 -0.4261  0.4378
  961MOL0     C29630  -0.799   2.031   3.590  0.6019 -0.0632 -0.1328
  961MOL0     O29631  -0.885   1.946   3.519 -0.6376  0.0105  0.2971
  961MOL0     C29632  -1.020   1.943   3.533 -1.4267 -0.5904 -1.0031
  961MOL0     C29633  -1.080   1.842   3.601 -0.6620  1.4685 -0.2340
  961MOL0     C29634  -1.222   1.837   3.621 -0.1763 -0.0091  0.2109
  961MOL0     C29635  -1.305   1.936   3.559 -0.7936  0.6042  0.1130
  961MOL0     O29636  -1.442   1.950   3.558 -0.3170 -0.2744 -0.1102
  961MOL0     C29637  -1.513   1.871   3.651  0.1506 -0.3729 -0.2515
  961MOL0     C29638  -1.660   1.884   3.611 -0.3928  0.7639 -0.0571
  961MOL0     C29639  -1.752   1.836   3.724 -0.0882 -0.6444  0.2102
  961MOL0     C29640  -1.896   1.870   3.703 -0.2218  0.6617 -0.5457
  961MOL0     C29641  -1.981   1.843   3.829 -0.1560 -0.0669  0.0345
  961MOL0     C29642  -2.118   1.914   3.810  0.5463  0.6388  0.1542
  961MOL0     C29643  -2.205   1.840   3.717 -0.9074 -0.0881  0.9168
  961MOL0     C29644  -2.352   1.873   3.755 -0.1195  0.6346  0.4105
  961MOL0    Cl29645  -2.383   1.791   3.911 -0.3554 -0.2208 -0.1980
  961MOL0     C29646  -1.241   2.039   3.487 -0.0309 -0.2186  0.1878
  961MOL0     C29647  -1.103   2.039   3.463  0.0078 -0.3666 -0.5612
  961MOL0     O29648  -0.827   2.099   3.687  0.5492 -0.1509 -0.2116
  961MOL0     C29649  -0.564   2.003   3.628  0.3545 -0.4911 -0.9014
  961MOL0     C29650  -0.432   2.015   3.589 -0.6502 -1.0876  0.2975
  961MOL0     N29651  -0.106   1.542   3.404 -0.6574 -0.4928 -0.1052
  961MOL0     N29652  -0.090   1.408   3.402 -0.2217 -0.4611  0.5904
  961MOL0     C29653   1.009   0.871   3.362 -0.3634 -0.4037  1.0605
  961MOL0     C29654   1.148   0.873   3.393 -0.5626  0.4330 -0.6014
  961MOL0     C29655   1.551   0.689   3.521 -0.3691  0.6092  0.3367
  961MOL0     C29656   1.639   0.665   3.403  0.4606 -1.3319 -0.8504
  961MOL0     C29657   1.781   0.649   3.424  1.0279 -0.0228  0.2818
  961MOL0     C29658   1.835   0.647   3.552 -0.5044  0.0768  0.4277
  961MOL0     O29659   1.967   0.644   3.566 -0.7111  0.1149  0.5852
  961MOL0     C29660   2.030   0.769   3.596 -0.0128 -0.1212 -0.5451
  961MOL0     C29661   2.103   0.752   3.727 -0.3015  0.8110 -0.3274
  961MOL0     C29662   2.175   0.871   3.775 -0.4891  0.0331 -0.1921
  961MOL0     C29663   2.068   0.972   3.822  0.6283  0.6039  0.0174
  961MOL0     C29664   2.126   1.109   3.843 -0.4451  0.3545 -0.0670
  961MOL0     C29665   2.165   1.217   3.879  0.2243 -0.7962 -0.0329
  961MOL0     C29666   1.751   0.652   3.665  0.1904 -0.4229  0.7856
  961MOL0     C29667   1.607   0.665   3.649 -0.7680  0.3653  0.4620
  961MOL0     H29668   1.231   0.576   3.262 -1.6192 -0.7254 -0.4348
  961MOL0     H29669   0.996   0.592   3.182 -1.7285  2.7687 -2.4575
  961MOL0     H29670   0.740   0.921   3.339 -1.7777 -1.3016  0.7467
  961MOL0     H29671   0.812   0.976   3.188  0.5114 -0.9341 -1.6183
  961MOL0     H29672   0.637   0.882   3.051  3.5393  1.2461 -0.4081
  961MOL0     H29673   0.573   0.789   3.193  0.7003 -1.0307 -0.7564
  961MOL0     H29674   0.556   1.036   3.293 -0.4239  3.2015 -1.6720
  961MOL0     H29675   0.591   1.087   3.133  4.7622 -2.6247 -0.7031
  961MOL0     H29676   0.386   0.966   3.051  1.2808  0.0132 -0.8593
  961MOL0     H29677   0.357   0.922   3.222  1.2965 -1.5184 -1.8320
  961MOL0     H29678   0.358   1.155   3.295 -2.7695 -0.4153  0.9574
  961MOL0     H29679   0.370   1.205   3.126  0.0684 -0.6777 -1.3812
  961MOL0     H29680   0.166   1.088   3.080  2.1227 -1.1176  0.5146
  961MOL0     H29681   0.152   1.031   3.246  2.3083 -0.9851 -1.3233
  961MOL0     H29682   0.147   1.280   3.313 -0.6439  3.0698 -1.0953
  961MOL0     H29683   0.139   1.315   3.137 -1.3025 -1.1627 -1.5889
  961MOL0     H29684  -0.055   1.158   3.311 -0.7552  0.4984 -0.5922
  961MOL0     H29685  -0.076   1.192   3.138 -1.6085  1.8313 -0.4408
  961MOL0     H29686  -0.146   1.458   3.085 -2.3752 -1.8178  0.7059
  961MOL0     H29687  -0.155   1.743   3.122  1.1608  0.7489  0.1774
  961MOL0     H29688  -0.283   1.724   3.250  0.8557  3.5572  0.7345
  961MOL0     H29689  -0.002   1.797   3.328  1.1509  3.6769  0.4188
  961MOL0     H29690  -0.159   1.822   3.412  0.5008 -1.9468 -0.1156
  961MOL0     H29691  -0.069   1.970   3.156 -2.1150 -1.0281 -0.8491
  961MOL0     H29692  -0.022   2.024   3.308 -1.1575  2.8475 -1.1842
  961MOL0     H29693  -0.313   1.979   3.228 -2.6259  0.5652  1.2422
  961MOL0     H29694  -0.237   2.141   3.240 -0.8902  0.2632 -2.1414
  961MOL0     H29695  -0.491   2.081   3.264  0.0523 -0.7612  0.4985
  961MOL0     H29696  -0.784   1.999   3.270  0.6396  0.4834 -0.4708
  961MOL0     H29697  -0.831   2.148   3.347  1.1945  0.9695  0.1319
  961MOL0     H29698  -0.714   2.149   3.219 -0.1906 -2.0447 -0.6587
  961MOL0     H29699  -1.017   1.772   3.656 -0.3571  1.2930 -0.7959
  961MOL0     H29700  -1.270   1.760   3.681  1.9042 -0.7027  1.0799
  961MOL0     H29701  -1.487   1.765   3.660 -1.6316 -0.6648  2.7573
  961MOL0     H29702  -1.505   1.918   3.750  0.1988 -1.8204  0.4596
  961MOL0     H29703  -1.676   1.985   3.573 -0.5476 -0.4399 -3.6322
  961MOL0     H29704  -1.670   1.812   3.529  1.9513  1.6663 -1.2367
  961MOL0     H29705  -1.723   1.887   3.816 -0.2995 -0.7224  0.3212
  961MOL0     H29706  -1.750   1.727   3.739 -0.0869 -0.3709  2.6157
  961MOL0     H29707  -1.911   1.975   3.675 -0.9816  1.2176  1.7282
  961MOL0     H29708  -1.941   1.811   3.623  0.9590 -0.9132 -0.0903
  961MOL0     H29709  -1.927   1.896   3.908 -1.3171 -0.2131  0.9716
  961MOL0     H29710  -2.002   1.738   3.850 -0.9124  0.0270 -0.2127
  961MOL0     H29711  -2.172   1.933   3.904  0.2495 -0.3951  0.2099
  961MOL0     H29712  -2.090   2.010   3.766  0.3944 -0.5360 -2.6660
  961MOL0     H29713  -2.198   1.732   3.703 -0.5599 -0.1117  1.2350
  961MOL0     H29714  -2.187   1.878   3.615  0.0498 -0.2435  1.0121
  961MOL0     H29715  -2.420   1.828   3.682 -0.8199 -0.3629  1.6199
  961MOL0     H29716  -2.368   1.981   3.761  4.4634  1.4990  0.5919
  961MOL0     H29717  -1.294   2.127   3.452 -0.2773  0.1784  1.5187
  961MOL0     H29718  -1.054   2.119   3.408  0.5007  0.7206  1.3761
  961MOL0     H29719  -0.585   1.971   3.730  0.5195  0.2965 -0.6121
  961MOL0     H29720  -0.356   1.983   3.660  0.3384  2.5435  1.0894
  961MOL0     H29721   0.953   0.959   3.393  0.3534  0.4204  0.0952
  961MOL0     H29722   1.195   0.953   3.449 -0.9565  1.5220 -1.7642
  961MOL0     H29723   1.588   0.672   3.307 -2.2382  1.2279  0.6068
  961MOL0     H29724   1.844   0.636   3.336  0.5522  3.2781 -0.6807
  961MOL0     H29725   2.098   0.789   3.513  2.1606 -0.0904  1.1347
  961MOL0     H29726   1.957   0.849   3.611  1.1779  1.1594 -1.3691
  961MOL0     H29727   2.169   0.666   3.718 -0.7494  0.4660 -0.3923
  961MOL0     H29728   2.031   0.713   3.800  1.2278 -2.3358 -0.3625
  961MOL0     H29729   2.224   0.928   3.695  0.3050  0.7992  0.8142
  961MOL0     H29730   2.247   0.853   3.856  1.3828  1.7488 -1.3524
  961MOL0     H29731   2.021   0.925   3.909 -0.5261 -0.4906 -1.1620
  961MOL0     H29732   1.986   0.992   3.753  0.5506  1.8302  0.4327
  961MOL0     H29733   2.194   1.319   3.893 -0.3926 -0.5027 -0.8129
  961MOL0     H29734   1.793   0.647   3.765 -0.1442  1.8918  1.1145
  961MOL0     H29735   1.541   0.669   3.735 -2.7729 -3.0197 -0.7181
  962MOL0     O29736   3.273   3.426   9.699  0.5480 -0.4815 -0.0003
  962MOL0     C29737   3.288   3.398   9.813 -0.4877 -0.6411 -0.1185
  962MOL0     O29738   3.190   3.388   9.911 -0.2838  0.1356  0.6714
  962MOL0     C29739   3.069   3.420   9.856 -0.0867 -0.0971  0.0825
  962MOL0     C29740   3.027   3.552   9.875  0.2667  0.1403 -0.1234
  962MOL0     C29741   2.892   3.583   9.854 -0.4617 -0.0696 -0.2312
  962MOL0     C29742   2.799   3.473   9.822  0.7998  0.2654  0.0935
  962MOL0     O29743   2.661   3.499   9.814 -0.1017  0.3743 -0.1596
  962MOL0     C29744   2.580   3.414   9.901 -0.0450 -0.5891 -0.5905
  962MOL0     C29745   2.439   3.470   9.879 -0.1609 -0.1924 -0.1349
  962MOL0     C29746   2.366   3.472  10.013  0.5091 -0.3326  0.4502
  962MOL0     C29747   2.231   3.536  10.016 -1.0406 -0.4403  0.8947
  962MOL0     C29748   2.174   3.540  10.158 -1.0332 -0.1298  0.4965
  962MOL0     C29749   2.026   3.558  10.148  1.3163  0.6356 -0.0146
  962MOL0     C29750   1.970   3.689  10.081 -0.5831 -0.1323  0.2941
  962MOL0     C29751   2.018   3.814  10.157 -0.0851 -0.2830 -0.7015
  962MOL0     N29752   1.982   3.949  10.096 -0.0208 -0.3315  1.0771
  962MOL0     C29753   1.980   4.078  10.161 -0.2253  1.0038  0.0817
  962MOL0     C29754   1.922   4.158  10.070  0.4977  0.0290  0.6688
  962MOL0     C29755   1.899   4.308  10.093 -0.4825  0.2190  0.1415
  962MOL0     C29756   1.752   4.340  10.090 -0.0040 -0.4007  0.4602
  962MOL0     C29757   1.709   4.485  10.117  1.1744 -0.0843  0.4093
  962MOL0     C29758   1.786   4.592  10.028  0.7469  1.0675  0.7013
  962MOL0     O29759   1.728   4.588   9.897  0.5108  0.3052 -0.3752
  962MOL0     C29760   1.742   4.689   9.808  0.2962 -0.5047  0.1600
  962MOL0     C29761   1.853   4.780   9.795 -0.2884  0.2679  0.4054
  962MOL0     C29762   1.854   4.878   9.699  0.1111 -0.6349 -0.1194
  962MOL0     C29763   1.975   4.974   9.698  0.9258  0.4135  0.0094
  962MOL0     C29764   1.743   4.891   9.620  0.1334 -0.3732  0.4848
  962MOL0     C29765   1.735   4.986   9.501  0.1305 -0.4648 -0.2433
  962MOL0     O29766   1.794   5.108   9.515 -0.2595  0.0507 -0.3092
  962MOL0     C29767   1.793   5.199   9.410 -0.5234  0.0335 -0.2041
  962MOL0     C29768   1.832   5.168   9.284  0.1060 -0.6766  0.2693
  962MOL0     C29769   1.817   5.262   9.178 -0.0970 -0.6085  0.5473
  962MOL0     C29770   1.755   5.387   9.202 -0.4914 -0.9337  0.3471
  962MOL0     O29771   1.744   5.483   9.105 -0.0807  0.4141 -0.2946
  962MOL0     C29772   1.634   5.464   9.009 -0.3250  0.3542 -0.1779
  962MOL0     C29773   1.589   5.601   8.946  0.1002  0.6898 -0.4729
  962MOL0     C29774   1.481   5.670   9.034  0.4203  0.7942  0.0248
  962MOL0     C29775   1.335   5.662   8.977  0.6184 -0.2578 -0.5447
  962MOL0     C29776   1.231   5.747   9.058 -0.1025 -0.1732 -0.4526
  962MOL0     C29777   1.092   5.739   8.989  0.8310  0.7013 -0.0534
  962MOL0     C29778   0.991   5.846   9.045  0.4444 -0.3536 -0.6181
  962MOL0     C29779   0.843   5.830   9.006  0.2328 -0.7981  0.7287
  962MOL0    Cl29780   0.787   5.670   9.060  0.1442 -0.2989 -0.3646
  962MOL0     C29781   1.721   5.421   9.330 -0.3436  0.4359 -0.0316
  962MOL0     C29782   1.731   5.327   9.435 -0.8961 -0.2541  0.3191
  962MOL0     O29783   1.675   4.955   9.401 -0.1921  0.2054  0.2380
  962MOL0     C29784   1.633   4.805   9.632  0.4930  0.7892  0.9307
  962MOL0     C29785   1.637   4.697   9.718  0.2880  0.0594  0.3354
  962MOL0     N29786   1.909   4.084   9.954  0.1777  0.3595 -0.1403
  962MOL0     N29787   1.950   3.963   9.972 -0.2718 -0.3924 -0.8543
  962MOL0     C29788   2.845   3.346   9.795 -0.1338 -0.1926  0.2548
  962MOL0     C29789   2.979   3.323   9.817 -0.6367  0.2242  0.1170
  962MOL0     C29790   3.428   3.381   9.852 -0.1571  0.5525 -0.4872
  962MOL0     C29791   3.462   3.353   9.986 -0.4087  0.1019  0.1050
  962MOL0     C29792   3.594   3.332  10.031 -0.1588  0.2355  0.0865
  962MOL0     C29793   3.693   3.347   9.929 -0.6155  1.3348 -1.5961
  962MOL0     O29794   3.830   3.321   9.966 -0.1792  0.9382  0.6005
  962MOL0     C29795   3.900   3.447   9.970  0.2470 -0.6053 -0.2769
  962MOL0     C29796   4.054   3.434  10.010  0.4534  0.1089  0.8476
  962MOL0     C29797   4.135   3.328   9.922 -0.4980  1.2499 -0.3125
  962MOL0     C29798   4.093   3.316   9.771 -0.4688  0.0816 -0.7718
  962MOL0     C29799   4.135   3.441   9.712 -0.6271 -0.1438  0.3590
  962MOL0     C29800   4.176   3.539   9.650 -0.4530 -1.0771 -0.2695
  962MOL0     C29801   3.661   3.373   9.799 -0.2122  0.2204 -0.3191
  962MOL0     C29802   3.534   3.399   9.761  0.2361 -0.4565  0.3336
  962MOL0     H29803   3.104   3.623   9.905  2.1262 -1.7265 -0.2266
  962MOL0     H29804   2.852   3.683   9.868 -1.0876 -0.5112  1.3304
  962MOL0     H29805   2.588   3.306   9.886 -1.4637 -0.9107  0.7016
  962MOL0     H29806   2.612   3.434  10.004  0.1765 -5.0888  0.4256
  962MOL0     H29807   2.430   3.568   9.831 -2.1090 -0.4167 -0.3084
  962MOL0     H29808   2.392   3.412   9.799  4.7255 -0.5618 -3.2065
  962MOL0     H29809   2.364   3.367  10.043 -1.3836  0.1038  2.0675
  962MOL0     H29810   2.417   3.527  10.092 -0.6273 -0.0749  1.0302
  962MOL0     H29811   2.249   3.633   9.968 -0.3585 -1.1633 -0.3372
  962MOL0     H29812   2.182   3.468   9.946  0.7906 -1.2385  0.3322
  962MOL0     H29813   2.201   3.449  10.213  0.9591 -0.1846 -0.5229
  962MOL0     H29814   2.221   3.620  10.215  1.9446  0.1268 -2.0486
  962MOL0     H29815   1.984   3.474  10.091  1.5728  0.2434  0.3706
  962MOL0     H29816   1.985   3.542  10.248 -0.5188 -0.9239 -0.9311
  962MOL0     H29817   2.005   3.684   9.977 -0.8078  1.6747  0.1100
  962MOL0     H29818   1.861   3.690  10.075 -0.5273  0.4273 -0.8933
  962MOL0     H29819   2.125   3.812  10.181 -0.5685 -1.7918  1.5796
  962MOL0     H29820   1.969   3.812  10.254 -0.8091  0.1837 -1.0506
  962MOL0     H29821   2.021   4.103  10.258 -0.1202  2.8308 -0.4055
  962MOL0     H29822   1.936   4.322  10.194 -2.2614  2.9822  0.5085
  962MOL0     H29823   1.951   4.369  10.019  1.0627 -2.4075 -1.0740
  962MOL0     H29824   1.701   4.269  10.156 -3.1528  0.9247 -0.3694
  962MOL0     H29825   1.719   4.323   9.987  1.3565 -1.1046  0.1055
  962MOL0     H29826   1.726   4.522  10.219 -2.5546 -0.2964  1.2479
  962MOL0     H29827   1.603   4.493  10.094  1.3372 -1.1183 -0.8095
  962MOL0     H29828   1.894   4.578  10.020  0.5490 -1.5467  1.6460
  962MOL0     H29829   1.781   4.694  10.068  2.5023  0.4720  2.5939
  962MOL0     H29830   1.940   4.767   9.858  0.1938  1.0860 -0.0774
  962MOL0     H29831   1.930   5.070   9.723 -0.4598  0.3440 -1.9991
  962MOL0     H29832   2.055   4.940   9.764  0.8172 -4.6239 -1.9869
  962MOL0     H29833   2.022   4.987   9.600  0.1003  2.5597 -0.1449
  962MOL0     H29834   1.870   5.068   9.269 -0.6825 -1.3906  2.6412
  962MOL0     H29835   1.844   5.236   9.076  0.8748 -1.9850  1.1202
  962MOL0     H29836   1.662   5.396   8.928  1.9445  2.7402 -1.5474
  962MOL0     H29837   1.548   5.422   9.062 -0.2667  1.0115  0.4530
  962MOL0     H29838   1.674   5.669   8.935 -1.2738  2.3838 -1.2146
  962MOL0     H29839   1.545   5.578   8.849  0.8829 -1.9802 -0.2488
  962MOL0     H29840   1.507   5.775   9.044 -0.5600  0.8960  2.3307
  962MOL0     H29841   1.480   5.624   9.134 -1.4759  0.9309  0.1200
  962MOL0     H29842   1.329   5.689   8.871 -0.8589 -2.9091 -1.2335
  962MOL0     H29843   1.296   5.560   8.970  1.2632 -0.4629 -1.2778
  962MOL0     H29844   1.253   5.854   9.069 -0.2633 -0.1659 -0.1984
  962MOL0     H29845   1.220   5.706   9.159 -1.0532  0.9452 -0.0799
  962MOL0     H29846   1.104   5.748   8.881 -0.9474  0.2794 -0.3125
  962MOL0     H29847   1.059   5.636   9.007 -0.4437  1.4064  2.0596
  962MOL0     H29848   1.029   5.943   9.010 -1.1775  0.6366  0.2276
  962MOL0     H29849   0.996   5.856   9.154 -2.9368  0.5966 -0.4322
  962MOL0     H29850   0.833   5.833   8.898 -2.0307 -1.9086  0.8433
  962MOL0     H29851   0.784   5.912   9.049  2.4173 -0.0412  2.4965
  962MOL0     H29852   1.693   5.524   9.350  0.4910  0.6387  0.1475
  962MOL0     H29853   1.698   5.362   9.532 -1.7534 -0.3823  0.0809
  962MOL0     H29854   1.553   4.813   9.559 -3.2209 -1.4846  4.3086
  962MOL0     H29855   1.553   4.629   9.726 -0.9940  1.7389  2.1939
  962MOL0     H29856   2.786   3.260   9.765  1.5959 -0.4164 -3.0102
  962MOL0     H29857   3.012   3.222   9.797 -2.6512 -0.2936 -0.8436
  962MOL0     H29858   3.384   3.339  10.060 -1.0076  1.3419 -0.2652
  962MOL0     H29859   3.620   3.302  10.132  2.7243  1.8258 -0.0792
  962MOL0     H29860   3.884   3.501   9.877 -2.6093 -1.2437 -0.2524
  962MOL0     H29861   3.856   3.510  10.048  3.2793 -1.4747  2.3472
  962MOL0     H29862   4.052   3.413  10.117  1.5760  1.6240  1.1868
  962MOL0     H29863   4.113   3.524   9.992  1.1248 -0.3032  0.9255
  962MOL0     H29864   4.125   3.231   9.971  2.4686  1.7150  1.5068
  962MOL0     H29865   4.243   3.343   9.934 -0.4333 -0.3785  1.6318
  962MOL0     H29866   3.985   3.301   9.769 -0.6796  1.4956 -0.7231
  962MOL0     H29867   4.147   3.229   9.732  1.3993  1.5521 -1.6419
  962MOL0     H29868   4.210   3.628   9.601 -4.6661  1.5845  1.1301
  962MOL0     H29869   3.736   3.396   9.724 -0.9490  0.5013 -0.9962
  962MOL0     H29870   3.518   3.437   9.661  3.2366  0.7755  0.2126
  963MOL0     O29871   6.243   2.906   1.163  0.8132  0.1449  0.1432
  963MOL0     C29872   6.253   3.027   1.171  0.5830  1.0898 -0.0131
  963MOL0     O29873   6.144   3.113   1.188  0.0502  0.8109  0.2932
  963MOL0     C29874   6.018   3.075   1.143 -0.8138 -0.1812 -0.1642
  963MOL0     C29875   5.915   3.132   1.216  0.1547  0.2750 -1.1734
  963MOL0     C29876   5.786   3.097   1.188  0.2449  0.9941 -0.7695
  963MOL0     C29877   5.751   2.993   1.094 -0.4450 -0.2830 -0.3050
  963MOL0     O29878   5.614   2.977   1.071 -0.0387  0.3586  0.0960
  963MOL0     C29879   5.585   2.916   0.946  0.1001 -0.1646  0.2496
  963MOL0     C29880   5.437   2.917   0.945  0.8296 -0.0264  0.5580
  963MOL0     C29881   5.379   3.057   0.981  0.8364  0.9800  0.7969
  963MOL0     C29882   5.405   3.169   0.874  1.0151  0.3657 -0.3068
  963MOL0     C29883   5.347   3.311   0.916  0.1864 -0.0549  0.6788
  963MOL0     C29884   5.386   3.403   0.803  0.2413  0.1006  0.2529
  963MOL0     C29885   5.371   3.558   0.840  0.7210  0.8910 -0.1641
  963MOL0     C29886   5.357   3.652   0.719  0.6762  0.3031  0.8046
  963MOL0     N29887   5.230   3.631   0.648 -0.9500  0.1754  0.1829
  963MOL0     C29888   5.214   3.545   0.544 -0.1607 -0.1563  0.0063
  963MOL0     C29889   5.085   3.562   0.501  0.4448 -0.0285  0.2213
  963MOL0     C29890   5.013   3.503   0.386  0.0945 -0.2734  0.1094
  963MOL0     C29891   5.038   3.588   0.267  0.0373  0.8339 -0.4560
  963MOL0     C29892   4.944   3.546   0.153 -1.0102 -0.2771 -0.3127
  963MOL0     C29893   5.001   3.610   0.028 -0.0461 -0.8311  0.0500
  963MOL0     O29894   4.985   3.748   0.026  0.0480 -0.7794  0.0295
  963MOL0     C29895   4.882   3.805  -0.047  0.3263 -0.7105  0.3101
  963MOL0     C29896   4.891   3.937  -0.095  0.2536 -0.9080 -0.5662
  963MOL0     C29897   4.806   3.999  -0.183  0.2571 -0.1931 -0.0554
  963MOL0     C29898   4.846   4.135  -0.234  0.2049 -0.5852  0.9272
  963MOL0     C29899   4.703   3.922  -0.241  0.3476 -0.1014  0.9524
  963MOL0     C29900   4.609   3.977  -0.347 -0.4792 -0.4831  0.7759
  963MOL0     O29901   4.550   3.889  -0.439  0.6220  0.1683 -0.6379
  963MOL0     C29902   4.456   3.937  -0.526 -0.1296 -1.1280  0.0171
  963MOL0     C29903   4.327   3.949  -0.481  0.3795 -0.9005 -0.5333
  963MOL0     C29904   4.235   4.006  -0.572 -0.1392  0.5626  0.5395
  963MOL0     C29905   4.266   4.021  -0.709  0.4929 -0.4445  0.1007
  963MOL0     O29906   4.182   4.049  -0.813 -0.2248 -0.0620  0.1320
  963MOL0     C29907   4.041   4.037  -0.798  0.0386  0.3650 -0.3886
  963MOL0     C29908   3.950   4.096  -0.912  0.0460 -0.1778 -0.0907
  963MOL0     C29909   3.807   4.063  -0.909  0.0376  0.0107  1.1545
  963MOL0     C29910   3.752   4.106  -1.040  0.2645 -0.2871  0.3749
  963MOL0     C29911   3.593   4.067  -1.049 -0.2354  0.1793  0.0613
  963MOL0     C29912   3.522   4.128  -1.167  0.4299 -0.8547 -0.3754
  963MOL0     C29913   3.585   4.069  -1.298 -0.0646 -0.1761  0.7404
  963MOL0     C29914   3.517   4.153  -1.411 -0.6124 -0.2430 -0.2723
  963MOL0    Cl29915   3.618   4.117  -1.553 -0.3448  0.2263 -0.0302
  963MOL0     C29916   4.395   4.018  -0.746 -0.7473  0.4445  0.4015
  963MOL0     C29917   4.490   3.968  -0.653 -0.7492  0.0097 -0.1924
  963MOL0     O29918   4.579   4.094  -0.337 -0.0160 -0.3875 -0.2638
  963MOL0     C29919   4.674   3.796  -0.187 -0.5963  0.5373  0.7946
  963MOL0     C29920   4.764   3.738  -0.082 -0.4544 -0.4441 -0.0796
  963MOL0     N29921   5.027   3.666   0.574 -0.5534 -0.4360 -0.6591
  963MOL0     N29922   5.118   3.710   0.653  0.4911  0.4599 -0.0975
  963MOL0     C29923   5.859   2.935   1.019  0.0409  0.5709 -0.8344
  963MOL0     C29924   5.994   2.980   1.037  0.0676  0.1849 -0.3185
  963MOL0     C29925   6.392   3.068   1.163  0.2251 -0.6343 -0.3843
  963MOL0     C29926   6.489   2.982   1.107 -0.1713 -1.2682  0.6181
  963MOL0     C29927   6.620   3.017   1.103  0.2107 -0.4927  0.4517
  963MOL0     C29928   6.656   3.149   1.134 -0.7173 -0.6495 -0.0278
  963MOL0     O29929   6.784   3.202   1.116 -0.5721 -0.4798  0.0891
  963MOL0     C29930   6.890   3.126   1.060 -1.0130  0.6574  0.9435
  963MOL0     C29931   6.907   3.119   0.899  0.3288  0.1472 -0.6254
  963MOL0     C29932   6.937   3.265   0.846  0.6913 -0.2044  0.2425
  963MOL0     C29933   6.890   3.288   0.704  0.7197  0.6021 -0.1698
  963MOL0     C29934   6.981   3.391   0.641 -0.2521 -0.6060  0.4588
  963MOL0     C29935   7.056   3.478   0.589  0.1738  0.0762 -0.3120
  963MOL0     C29936   6.554   3.238   1.184  0.0843  0.0299 -0.1032
  963MOL0     C29937   6.424   3.199   1.199 -0.6992  0.1256  0.4511
  963MOL0     H29938   5.939   3.210   1.287 -0.0768 -0.8415  0.1587
  963MOL0     H29939   5.708   3.149   1.243  1.9808 -0.0529  2.9720
  963MOL0     H29940   5.628   2.970   0.861 -0.2765 -1.6623 -0.9241
  963MOL0     H29941   5.620   2.814   0.933  0.9255  0.4440 -3.3389
  963MOL0     H29942   5.421   2.878   0.844 -0.8140  0.8563  0.4471
  963MOL0     H29943   5.405   2.846   1.022 -1.0173 -1.0282 -1.0393
  963MOL0     H29944   5.271   3.038   0.990  1.1302 -0.8391  0.9137
  963MOL0     H29945   5.409   3.091   1.081  0.0116 -0.5821  1.6231
  963MOL0     H29946   5.512   3.173   0.850  0.9736 -3.5184 -1.8740
  963MOL0     H29947   5.362   3.144   0.777  1.6445  0.8800 -0.7266
  963MOL0     H29948   5.239   3.305   0.929  0.1842 -0.0632  0.6559
  963MOL0     H29949   5.386   3.326   1.017  2.1487  2.0127 -0.2895
  963MOL0     H29950   5.484   3.389   0.758  1.4103 -2.8398  3.2200
  963MOL0     H29951   5.306   3.385   0.730 -0.0587  0.2247  0.5452
  963MOL0     H29952   5.277   3.579   0.892  0.0519 -0.2939 -0.8354
  963MOL0     H29953   5.456   3.595   0.898  2.4180 -0.5321 -1.6076
  963MOL0     H29954   5.434   3.644   0.642 -2.4324  1.4321 -2.7269
  963MOL0     H29955   5.345   3.756   0.748 -4.9735  0.7089 -1.7187
  963MOL0     H29956   5.285   3.474   0.500  0.7734  1.3629 -1.0321
  963MOL0     H29957   5.055   3.407   0.357 -0.8353 -1.0655  1.2569
  963MOL0     H29958   4.908   3.484   0.410 -0.6749  0.3936 -2.4203
  963MOL0     H29959   5.138   3.570   0.227 -0.1680 -0.2605 -0.4991
  963MOL0     H29960   5.006   3.692   0.283 -2.1143 -0.1694  2.6264
  963MOL0     H29961   4.844   3.585   0.179 -1.4642 -1.2438 -0.5887
  963MOL0     H29962   4.938   3.437   0.148  1.8114 -0.5684  0.9194
  963MOL0     H29963   4.955   3.566  -0.061  3.1821 -1.3304 -1.5206
  963MOL0     H29964   5.109   3.597   0.016  0.2943  1.9545 -0.4099
  963MOL0     H29965   4.982   3.979  -0.053 -0.6644 -0.4917  1.1027
  963MOL0     H29966   4.945   4.156  -0.193 -0.1919 -1.3183  2.3044
  963MOL0     H29967   4.863   4.125  -0.342 -1.2722 -1.8582  0.7738
  963MOL0     H29968   4.776   4.216  -0.214  2.1628  1.5145 -0.1721
  963MOL0     H29969   4.292   3.918  -0.383 -0.7853  2.3624  0.2141
  963MOL0     H29970   4.134   4.012  -0.531 -0.4509  1.5402 -0.3178
  963MOL0     H29971   4.034   3.928  -0.808 -1.1636  0.3680  0.2700
  963MOL0     H29972   3.998   4.064  -0.702  0.1156 -1.1774  0.1099
  963MOL0     H29973   3.972   4.202  -0.930 -0.9836  0.0538 -0.0357
  963MOL0     H29974   3.989   4.055  -1.005 -0.3865  4.3996 -2.5761
  963MOL0     H29975   3.748   4.104  -0.827 -4.8894 -2.1007 -0.9602
  963MOL0     H29976   3.797   3.954  -0.905  2.8345 -0.4739 -1.3553
  963MOL0     H29977   3.771   4.208  -1.074 -0.9533 -0.1391  0.0760
  963MOL0     H29978   3.802   4.039  -1.110  1.8915  1.9390 -0.6891
  963MOL0     H29979   3.541   4.090  -0.956 -0.6867 -2.9106  0.6785
  963MOL0     H29980   3.587   3.958  -1.058 -1.5681  0.3054 -1.0757
  963MOL0     H29981   3.413   4.119  -1.163  0.4244 -0.3766  1.4252
  963MOL0     H29982   3.547   4.234  -1.164 -0.1094 -0.7306  0.0189
  963MOL0     H29983   3.557   3.964  -1.309  0.3797 -0.1507 -0.8526
  963MOL0     H29984   3.694   4.077  -1.304 -0.2062  1.6385 -0.1924
  963MOL0     H29985   3.525   4.259  -1.385 -0.0693 -0.0433 -1.1818
  963MOL0     H29986   3.417   4.116  -1.433 -1.4359  0.9855  1.2676
  963MOL0     H29987   4.417   4.050  -0.847 -2.3443 -1.1712 -0.5366
  963MOL0     H29988   4.595   3.964  -0.680 -0.6502  1.6927 -0.1732
  963MOL0     H29989   4.575   3.754  -0.204 -2.0097  2.9117  2.6029
  963MOL0     H29990   4.737   3.642  -0.040 -0.4804 -0.3691  0.0794
  963MOL0     H29991   5.847   2.857   0.944 -0.2890 -0.2571  0.0633
  963MOL0     H29992   6.078   2.935   0.987  0.7323 -1.8022  2.3317
  963MOL0     H29993   6.470   2.879   1.079  0.7988 -1.3561  0.2561
  963MOL0     H29994   6.681   2.941   1.056 -0.0272 -0.9317  0.8349
  963MOL0     H29995   6.981   3.163   1.108  0.8522 -3.3523  0.9639
  963MOL0     H29996   6.885   3.022   1.095 -0.0509 -0.2067 -1.3288
  963MOL0     H29997   6.820   3.067   0.858  1.5964 -3.5263  0.8597
  963MOL0     H29998   6.989   3.057   0.861 -0.2969  0.9480 -3.4870
  963MOL0     H29999   7.045   3.279   0.858  0.7297  0.4249 -0.7701
  963MOL0     H30000   6.890   3.346   0.904  0.1222  2.6733 -3.8508
  963MOL0     H30001   6.782   3.300   0.715  0.8599 -0.4436  3.6436
  963MOL0     H30002   6.888   3.195   0.647 -3.3179 -1.7720  3.2781
  963MOL0     H30003   7.110   3.560   0.547 -1.2257  1.9480  1.3911
  963MOL0     H30004   6.585   3.341   1.200  3.6442 -0.8728 -0.2884
  963MOL0     H30005   6.349   3.264   1.244 -0.9211  0.8765 -0.9622
  964MOL0     O30006   9.282   5.050   2.483  0.2188 -0.4632  0.0425
  964MOL0     C30007   9.329   5.014   2.375  0.3887  0.6138  0.5754
  964MOL0     O30008   9.264   4.940   2.281  0.1931 -0.1596  0.1039
  964MOL0     C30009   9.145   4.880   2.310 -0.6157 -0.0829  0.4696
  964MOL0     C30010   9.027   4.925   2.268  0.8444 -0.5944  0.5271
  964MOL0     C30011   8.907   4.850   2.286  0.0737  1.1251  0.0682
  964MOL0     C30012   8.909   4.732   2.353  0.2093 -0.2364 -0.0050
  964MOL0     O30013   8.787   4.672   2.374 -0.1616 -0.0909 -0.1909
  964MOL0     C30014   8.787   4.532   2.386 -0.1904  0.1444 -0.3519
  964MOL0     C30015   8.644   4.487   2.348 -0.9844 -0.0271 -0.6348
  964MOL0     C30016   8.621   4.510   2.203  1.1861 -0.0682 -0.3990
  964MOL0     C30017   8.467   4.505   2.173 -0.3850  0.1566 -0.5970
  964MOL0     C30018   8.454   4.539   2.024 -0.2275  0.7819 -0.5407
  964MOL0     C30019   8.323   4.475   1.958 -0.5332  1.5045  0.2212
  964MOL0     C30020   8.195   4.528   2.004 -0.1105  0.2006  0.2504
  964MOL0     C30021   8.088   4.520   1.889  0.0427 -0.1748 -0.4701
  964MOL0     N30022   8.048   4.386   1.856 -0.0765 -0.4488  0.6922
  964MOL0     C30023   7.976   4.294   1.923 -0.2896 -0.5715  0.4689
  964MOL0     C30024   7.977   4.182   1.843 -0.1473  0.0789 -0.2387
  964MOL0     C30025   7.910   4.052   1.872  0.2154 -1.0420 -1.1496
  964MOL0     C30026   7.758   4.068   1.876 -0.1211  0.5288  0.0473
  964MOL0     C30027   7.686   3.961   1.950 -0.2259  0.1132 -0.3606
  964MOL0     C30028   7.719   3.818   1.884  0.2458 -0.6285  0.0338
  964MOL0     O30029   7.674   3.807   1.750 -0.0491 -0.6625  0.3071
  964MOL0     C30030   7.550   3.766   1.723  0.6534  0.3972  0.2123
  964MOL0     C30031   7.525   3.630   1.741  0.6582  1.0511  0.1891
  964MOL0     C30032   7.400   3.575   1.705  0.3328 -0.7683  0.3602
  964MOL0     C30033   7.370   3.435   1.740 -0.9003 -0.1478 -0.2230
  964MOL0     C30034   7.313   3.654   1.622 -0.3196 -0.3957 -0.2461
  964MOL0     C30035   7.178   3.604   1.580 -0.0869 -0.5681  0.1419
  964MOL0     O30036   7.117   3.679   1.480 -0.2957 -0.3444  0.3134
  964MOL0     C30037   6.982   3.651   1.449 -1.1636  0.4035 -0.1939
  964MOL0     C30038   6.891   3.756   1.477 -0.2030  0.3809 -0.2311
  964MOL0     C30039   6.756   3.743   1.441  0.1746 -0.6579  0.5051
  964MOL0     C30040   6.717   3.626   1.379  0.2542 -0.4778 -0.6017
  964MOL0     O30041   6.588   3.594   1.356 -0.8892 -0.0398  0.0064
  964MOL0     C30042   6.488   3.685   1.323  0.0257  0.1004 -0.4986
  964MOL0     C30043   6.368   3.595   1.272  0.1651  0.2065 -0.3754
  964MOL0     C30044   6.254   3.677   1.203 -1.0649 -0.4140 -0.4615
  964MOL0     C30045   6.156   3.598   1.124  0.3430  0.5594  0.2767
  964MOL0     C30046   6.038   3.692   1.077 -0.1514 -0.8027 -0.3296
  964MOL0     C30047   5.954   3.630   0.969  0.4433  1.1802 -0.2024
  964MOL0     C30048   5.890   3.506   1.027 -0.6311  0.1505 -0.2213
  964MOL0     C30049   5.775   3.449   0.935  0.1338  0.2479  0.7187
  964MOL0    Cl30050   5.837   3.417   0.769  0.3642  0.3650 -0.1964
  964MOL0     C30051   6.798   3.525   1.368 -0.2936  0.5391  0.2373
  964MOL0     C30052   6.930   3.534   1.404 -0.0105  0.5886 -0.5747
  964MOL0     O30053   7.131   3.513   1.639  0.4105  0.4052  0.7127
  964MOL0     C30054   7.341   3.793   1.603  0.1893 -0.1953  0.1111
  964MOL0     C30055   7.463   3.842   1.647  0.0796 -0.2051  0.3710
  964MOL0     N30056   8.035   4.209   1.722 -0.8340  0.8097 -0.5648
  964MOL0     N30057   8.074   4.329   1.732 -0.5743 -0.2471  0.2561
  964MOL0     C30058   9.037   4.680   2.385  0.2339  0.7086 -1.1084
  964MOL0     C30059   9.152   4.756   2.370  0.4675  0.3124 -0.3296
  964MOL0     C30060   9.464   5.048   2.340  0.2322 -0.2312 -0.2299
  964MOL0     C30061   9.533   5.008   2.224 -0.7481  0.9998 -0.8706
  964MOL0     C30062   9.667   5.027   2.207 -0.2492  0.2271 -0.1948
  964MOL0     C30063   9.741   5.104   2.290 -0.9778  0.8747 -0.4315
  964MOL0     O30064   9.870   5.134   2.260  0.1174  0.8141  0.0290
  964MOL0     C30065   9.948   5.202   2.355  0.8973 -0.7678 -0.6756
  964MOL0     C30066  10.081   5.195   2.294 -0.7495  0.0752 -0.3552
  964MOL0     C30067  10.103   5.259   2.157 -0.5961 -0.1997 -0.2334
  964MOL0     C30068  10.234   5.205   2.100 -0.2104 -0.8358 -0.9000
  964MOL0     C30069  10.345   5.254   2.183 -0.0977 -0.0461  0.2930
  964MOL0     C30070  10.444   5.295   2.233  0.5515  0.2719 -0.7872
  964MOL0     C30071   9.676   5.154   2.404 -1.1421 -1.2198 -0.6059
  964MOL0     C30072   9.544   5.118   2.431 -0.4098  0.0981  0.0642
  964MOL0     H30073   9.023   5.009   2.199 -1.5865  0.5969  1.9791
  964MOL0     H30074   8.805   4.878   2.261  0.1144  1.1071 -0.1231
  964MOL0     H30075   8.864   4.491   2.319  0.9651  4.7785 -2.2308
  964MOL0     H30076   8.802   4.505   2.491  1.9931 -1.6786 -1.0417
  964MOL0     H30077   8.628   4.385   2.383  3.0290  0.1807  2.6764
  964MOL0     H30078   8.565   4.538   2.403 -2.1295 -2.4750  0.1097
  964MOL0     H30079   8.656   4.609   2.173  3.0101 -0.9242 -1.2808
  964MOL0     H30080   8.662   4.434   2.135 -2.3388 -1.7733 -0.8440
  964MOL0     H30081   8.420   4.408   2.192 -1.6036  1.0667  1.4248
  964MOL0     H30082   8.414   4.583   2.228 -0.6021  0.6296 -1.4619
  964MOL0     H30083   8.444   4.647   2.011  3.1430  0.9454 -2.8795
  964MOL0     H30084   8.545   4.508   1.972 -0.1533  0.5326 -0.2681
  964MOL0     H30085   8.322   4.494   1.850 -3.2077 -2.1217 -0.5696
  964MOL0     H30086   8.333   4.367   1.968  3.5027  1.6502 -0.3017
  964MOL0     H30087   8.145   4.481   2.090 -2.0777  0.7876 -0.5367
  964MOL0     H30088   8.204   4.634   2.031  0.4114 -0.0605  1.1544
  964MOL0     H30089   8.123   4.564   1.796 -1.9638 -1.5831 -1.9818
  964MOL0     H30090   8.004   4.588   1.912  1.7089  1.1363  2.3267
  964MOL0     H30091   7.937   4.302   2.024  3.0008  0.2558  1.8021
  964MOL0     H30092   7.945   3.983   1.794  0.9323 -1.5779 -0.3822
  964MOL0     H30093   7.946   4.014   1.968  2.5559  1.9488 -0.6873
  964MOL0     H30094   7.712   4.078   1.778 -2.6479 -0.7248  1.0256
  964MOL0     H30095   7.737   4.155   1.939  0.6813  0.7351  0.0381
  964MOL0     H30096   7.577   3.968   1.947 -0.1513  1.1822 -1.0910
  964MOL0     H30097   7.714   3.973   2.055  1.8709  0.2046 -0.8781
  964MOL0     H30098   7.684   3.737   1.948 -0.2093 -0.6522 -0.2383
  964MOL0     H30099   7.825   3.802   1.865 -0.3104 -1.3702 -3.1430
  964MOL0     H30100   7.603   3.574   1.792 -0.0928 -1.8159 -1.5818
  964MOL0     H30101   7.329   3.374   1.659  1.0690 -1.8523 -0.0337
  964MOL0     H30102   7.461   3.382   1.769  1.6014  3.9905  0.3575
  964MOL0     H30103   7.302   3.449   1.824  0.7184  4.2819  0.6402
  964MOL0     H30104   6.934   3.853   1.502  1.8024 -0.7405  0.9219
  964MOL0     H30105   6.686   3.823   1.462 -1.7323 -1.5953 -1.8994
  964MOL0     H30106   6.466   3.739   1.416  0.3828  1.9784 -1.4632
  964MOL0     H30107   6.512   3.761   1.248 -0.2179  1.8395  1.0952
  964MOL0     H30108   6.407   3.515   1.208 -2.0009 -2.4652  1.4396
  964MOL0     H30109   6.321   3.538   1.353 -3.6028  2.2332 -0.9098
  964MOL0     H30110   6.305   3.747   1.136 -0.4740 -0.2192  0.1724
  964MOL0     H30111   6.192   3.722   1.281 -0.9956  1.3130 -1.3534
  964MOL0     H30112   6.207   3.558   1.035 -0.1072  0.1953  0.1780
  964MOL0     H30113   6.125   3.512   1.184 -0.4956  0.9358  0.3996
  964MOL0     H30114   6.094   3.784   1.055  0.2704 -0.3476  2.3648
  964MOL0     H30115   5.980   3.732   1.160  2.4534  4.3433 -0.6077
  964MOL0     H30116   5.876   3.697   0.933 -0.9064 -0.0502  0.3096
  964MOL0     H30117   6.018   3.597   0.887  1.3503  0.3761  0.7904
  964MOL0     H30118   5.845   3.537   1.122  1.2372  0.6467  0.5333
  964MOL0     H30119   5.964   3.428   1.043 -1.9559 -1.2002 -0.5105
  964MOL0     H30120   5.714   3.539   0.923  2.0500  1.5771  0.5010
  964MOL0     H30121   5.721   3.363   0.977 -1.7906  0.7090 -0.6669
  964MOL0     H30122   6.761   3.430   1.330  0.4106  1.1745 -2.2387
  964MOL0     H30123   6.984   3.439   1.395  0.5143  1.0214 -2.6817
  964MOL0     H30124   7.272   3.856   1.548  0.1759 -2.4633 -2.7180
  964MOL0     H30125   7.479   3.947   1.625 -1.2722 -0.1733 -0.6047
  964MOL0     H30126   9.047   4.583   2.433 -0.0792  0.7335 -0.9913
  964MOL0     H30127   9.251   4.729   2.404  0.1377  0.7273  1.0153
  964MOL0     H30128   9.480   4.957   2.144  2.4665 -0.9771 -1.9092
  964MOL0     H30129   9.714   4.986   2.118 -1.9331  0.2494 -1.1437
  964MOL0     H30130   9.918   5.303   2.384 -0.3696 -1.3043 -0.0644
  964MOL0     H30131   9.957   5.147   2.449  1.7802  1.3726  0.5821
  964MOL0     H30132  10.114   5.091   2.292  3.1637  1.1535  0.3224
  964MOL0     H30133  10.137   5.257   2.364 -0.4530 -0.3429 -0.2207
  964MOL0     H30134  10.112   5.364   2.186 -0.6913 -0.0443 -0.7452
  964MOL0     H30135  10.019   5.246   2.088 -0.0827 -1.0458 -0.7133
  964MOL0     H30136  10.241   5.234   1.994 -1.6078  0.2353 -0.7273
  964MOL0     H30137  10.237   5.096   2.104 -2.5898 -0.8956  1.8990
  964MOL0     H30138  10.536   5.316   2.285  0.0064  2.8182 -0.7413
  964MOL0     H30139   9.733   5.217   2.472 -0.9622  0.0725 -1.9071
  964MOL0     H30140   9.494   5.159   2.518 -0.6146  2.2489 -1.0163
  965MOL0     O30141  11.195  11.302   6.218  0.4091 -0.0347  0.4613
  965MOL0     C30142  11.287  11.251   6.154 -0.1763  0.3188  0.1130
  965MOL0     O30143  11.271  11.144   6.074 -0.0559  1.0789  0.8233
  965MOL0     C30144  11.157  11.098   6.025 -0.8316  0.2799 -0.0809
  965MOL0     C30145  11.034  11.166   6.012 -0.9161  0.0360 -0.0063
  965MOL0     C30146  10.936  11.089   5.947  0.9944  0.2499  0.4562
  965MOL0     C30147  10.962  10.962   5.886  0.3423 -0.1261 -0.4601
  965MOL0     O30148  10.863  10.917   5.794 -0.2546 -0.1128 -0.3348
  965MOL0     C30149  10.826  10.775   5.817  0.1336 -0.1799  0.1877
  965MOL0     C30150  10.682  10.749   5.806 -1.2975 -0.4893 -0.9966
  965MOL0     C30151  10.644  10.710   5.662 -0.1057 -0.0762  0.9865
  965MOL0     C30152  10.487  10.685   5.666 -0.7395 -1.2262  0.2781
  965MOL0     C30153  10.423  10.655   5.529 -0.1082 -0.6483 -0.1500
  965MOL0     C30154  10.442  10.779   5.443 -0.0445  0.9451 -0.3251
  965MOL0     C30155  10.381  10.782   5.307 -0.0309 -0.4710  0.1719
  965MOL0     C30156  10.430  10.915   5.230 -0.2476 -0.6328  0.6096
  965MOL0     N30157  10.398  11.045   5.293 -0.4476 -0.7172  0.2033
  965MOL0     C30158  10.454  11.110   5.400 -0.3438 -0.6054 -0.4732
  965MOL0     C30159  10.393  11.236   5.398 -0.3952 -0.6201 -0.0656
  965MOL0     C30160  10.402  11.342   5.509 -0.4384 -0.3394 -0.4406
  965MOL0     C30161  10.548  11.358   5.573  0.1860 -0.0986  0.0469
  965MOL0     C30162  10.658  11.379   5.477  0.5661 -0.1555 -0.3149
  965MOL0     C30163  10.798  11.350   5.537  0.0630 -0.2707  1.0308
  965MOL0     O30164  10.906  11.399   5.447  0.1857 -0.3827 -0.2277
  965MOL0     C30165  11.039  11.377   5.492  0.6007 -0.1304  0.4595
  965MOL0     C30166  11.141  11.438   5.414  0.7280 -0.0806  0.2501
  965MOL0     C30167  11.274  11.411   5.439  0.3252  0.7839 -0.0858
  965MOL0     C30168  11.382  11.451   5.329 -0.0051 -0.0499 -0.1072
  965MOL0     C30169  11.309  11.333   5.557  0.7986 -0.3993  0.9435
  965MOL0     C30170  11.456  11.300   5.580  0.5746 -1.3965 -0.2794
  965MOL0     O30171  11.497  11.309   5.709 -0.4380  0.3341 -0.4314
  965MOL0     C30172  11.634  11.292   5.747  0.0459  0.0732 -0.5090
  965MOL0     C30173  11.675  11.162   5.776 -0.4840  0.3806  0.2336
  965MOL0     C30174  11.813  11.135   5.800  0.3902 -0.1969  0.4578
  965MOL0     C30175  11.900  11.245   5.805  0.4059 -1.0881  0.3326
  965MOL0     O30176  12.031  11.209   5.824  0.1872 -0.4690  0.1847
  965MOL0     C30177  12.058  11.122   5.941  0.1821 -0.5617  0.2688
  965MOL0     C30178  12.196  11.161   6.001 -0.1593 -0.3205  0.1235
  965MOL0     C30179  12.236  11.074   6.119  0.5960 -0.2299 -1.7185
  965MOL0     C30180  12.377  11.112   6.178 -0.3747 -0.2190 -0.4037
  965MOL0     C30181  12.406  11.020   6.301 -0.5742 -0.6739 -0.4207
  965MOL0     C30182  12.444  10.869   6.271  0.3761  0.6719  0.1464
  965MOL0     C30183  12.563  10.855   6.184 -0.5756 -0.0002  0.7983
  965MOL0     C30184  12.659  10.749   6.229  0.1342 -0.2769  0.0895
  965MOL0    Cl30185  12.580  10.589   6.238 -0.6069 -0.0812 -0.1133
  965MOL0     C30186  11.855  11.375   5.782  0.4978  0.0914 -0.6214
  965MOL0     C30187  11.720  11.398   5.751  0.1459  0.2953 -0.0469
  965MOL0     O30188  11.519  11.248   5.494 -0.6304 -1.0099 -0.0416
  965MOL0     C30189  11.207  11.289   5.643 -0.3475  0.3285  0.3250
  965MOL0     C30190  11.074  11.307   5.610 -0.6810 -1.0156  0.3701
  965MOL0     N30191  10.314  11.245   5.287 -0.1628  0.1770 -0.2292
  965MOL0     N30192  10.323  11.131   5.220  0.1925  0.1247 -0.0527
  965MOL0     C30193  11.086  10.899   5.907  0.5006  0.2268 -0.2845
  965MOL0     C30194  11.182  10.971   5.977  0.3882  0.7158 -0.5061
  965MOL0     C30195  11.419  11.292   6.191 -0.4560 -1.1841  0.6221
  965MOL0     C30196  11.540  11.269   6.120  0.8637 -0.5735  0.6124
  965MOL0     C30197  11.662  11.319   6.148 -0.2397 -0.1736  0.4627
  965MOL0     C30198  11.692  11.382   6.269 -0.3485  0.0606 -0.7160
  965MOL0     O30199  11.816  11.410   6.320 -0.6218  0.1661 -0.6290
  965MOL0     C30200  11.936  11.375   6.243 -0.3059 -0.4445 -0.2530
  965MOL0     C30201  12.063  11.405   6.316  0.4398  0.0376 -0.6874
  965MOL0     C30202  12.073  11.310   6.437 -0.3363  0.8141  0.3445
  965MOL0     C30203  12.205  11.307   6.500  0.2653 -0.0117 -0.5445
  965MOL0     C30204  12.234  11.439   6.556 -0.3688 -0.3480  0.7037
  965MOL0     C30205  12.271  11.542   6.603 -0.5087  0.2827  0.0316
  965MOL0     C30206  11.579  11.410   6.353 -0.0585 -0.8395 -0.5373
  965MOL0     C30207  11.449  11.365   6.310  1.3467 -0.1644 -1.0661
  965MOL0     H30208  11.030  11.264   6.058  0.8134 -0.3576  1.0853
  965MOL0     H30209  10.843  11.130   5.909  0.4224  2.2964  3.6863
  965MOL0     H30210  10.876  10.710   5.744 -0.7760 -0.4507 -0.2027
  965MOL0     H30211  10.867  10.730   5.908  1.3804  0.3338 -0.0961
  965MOL0     H30212  10.648  10.680   5.884  5.7144 -2.6224  0.8165
  965MOL0     H30213  10.641  10.846   5.835 -0.0309  0.3614 -1.9840
  965MOL0     H30214  10.682  10.781   5.588  0.4983 -1.3955  0.0068
  965MOL0     H30215  10.688  10.615   5.632  1.1891  0.0393  2.4070
  965MOL0     H30216  10.470  10.603   5.736  1.1995 -2.1582 -0.2601
  965MOL0     H30217  10.444  10.776   5.709  0.9541 -0.7928  1.1388
  965MOL0     H30218  10.486  10.573   5.494  0.2675 -1.6523  2.6324
  965MOL0     H30219  10.318  10.625   5.528 -0.0007 -1.1090  1.0252
  965MOL0     H30220  10.404  10.856   5.511  0.4839 -0.1460  1.2550
  965MOL0     H30221  10.548  10.806   5.435  0.2098  0.1123  0.0923
  965MOL0     H30222  10.420  10.697   5.249  2.1233  0.4652  0.1673
  965MOL0     H30223  10.273  10.789   5.322  0.3737 -0.0170  3.4176
  965MOL0     H30224  10.389  10.909   5.129  2.0262  1.4784 -0.5576
  965MOL0     H30225  10.538  10.921   5.211 -0.6541  0.7131 -1.5857
  965MOL0     H30226  10.521  11.074   5.477 -1.5951  1.0464  1.4713
  965MOL0     H30227  10.360  11.433   5.464  1.7060  1.6837  1.3765
  965MOL0     H30228  10.336  11.315   5.592  0.7173 -0.7316  0.3833
  965MOL0     H30229  10.573  11.265   5.626  1.0056 -0.3481 -0.7583
  965MOL0     H30230  10.537  11.447   5.636 -2.7360 -0.5811  0.3605
  965MOL0     H30231  10.644  11.486   5.457 -1.1998 -0.2572  0.1980
  965MOL0     H30232  10.650  11.328   5.380  1.6415  0.7023 -0.8809
  965MOL0     H30233  10.809  11.241   5.544  1.9385 -0.0559  2.2675
  965MOL0     H30234  10.811  11.378   5.642  0.2858 -0.8294  1.1538
  965MOL0     H30235  11.111  11.507   5.336  1.7030  0.2157  0.1297
  965MOL0     H30236  11.470  11.491   5.379 -1.8155  0.6096  2.7806
  965MOL0     H30237  11.401  11.366   5.262  2.1543 -0.5598  1.0859
  965MOL0     H30238  11.345  11.531   5.264  1.1761  0.3242 -0.3443
  965MOL0     H30239  11.598  11.085   5.768  2.0650 -2.2211 -1.8831
  965MOL0     H30240  11.859  11.039   5.820  0.9339  0.1241  0.7775
  965MOL0     H30241  11.979  11.130   6.016 -0.0722 -2.9506  0.3305
  965MOL0     H30242  12.060  11.021   5.898 -1.3044  0.0285 -1.3069
  965MOL0     H30243  12.258  11.142   5.912 -1.4728 -2.0884 -0.4898
  965MOL0     H30244  12.204  11.266   6.029 -0.3919  0.0882 -1.2397
  965MOL0     H30245  12.236  10.966   6.099 -0.4745  0.1868 -4.3312
  965MOL0     H30246  12.157  11.095   6.191  1.0329 -2.2520 -0.5671
  965MOL0     H30247  12.461  11.107   6.108  3.0387  4.7829  2.6863
  965MOL0     H30248  12.370  11.211   6.222 -0.3488  0.2305 -1.3868
  965MOL0     H30249  12.326  11.010   6.376 -0.0704 -1.6213  0.0052
  965MOL0     H30250  12.493  11.058   6.356  0.3290 -1.8040 -1.0259
  965MOL0     H30251  12.469  10.826   6.368  0.0696  1.7221  0.7095
  965MOL0     H30252  12.362  10.810   6.229  2.4099 -1.0070 -1.7096
  965MOL0     H30253  12.617  10.950   6.188  0.7850 -0.7925  2.0312
  965MOL0     H30254  12.512  10.836   6.089 -3.1729  1.5911  1.7653
  965MOL0     H30255  12.689  10.776   6.331 -4.2779 -2.7540  2.3377
  965MOL0     H30256  12.751  10.748   6.170  1.7594  0.6323  2.4832
  965MOL0     H30257  11.943  11.438   5.767  3.4435 -3.6372 -0.4491
  965MOL0     H30258  11.662  11.489   5.739 -0.1279  0.5370  2.4845
  965MOL0     H30259  11.240  11.242   5.735  5.1570 -0.4981 -1.6724
  965MOL0     H30260  10.991  11.258   5.661 -1.2293 -0.6060 -0.1181
  965MOL0     H30261  11.098  10.806   5.853  3.0743  1.3951 -1.9226
  965MOL0     H30262  11.280  10.932   6.000  1.7206  3.5392 -0.9470
  965MOL0     H30263  11.524  11.222   6.023  1.2835 -0.3549  0.4356
  965MOL0     H30264  11.734  11.301   6.069  1.9239 -0.6377  2.4415
  965MOL0     H30265  11.928  11.270   6.215  0.8178 -2.1326  4.7207
  965MOL0     H30266  11.931  11.444   6.158 -2.3431 -0.0421  0.1555
  965MOL0     H30267  12.048  11.504   6.360 -0.3730  0.1649 -1.2412
  965MOL0     H30268  12.154  11.401   6.256  0.8907  1.4511 -0.1504
  965MOL0     H30269  12.062  11.205   6.410  1.9166 -0.3086  3.2812
  965MOL0     H30270  11.992  11.338   6.506 -2.6383  1.8743 -2.5950
  965MOL0     H30271  12.287  11.249   6.458 -0.7513 -2.6482  0.9130
  965MOL0     H30272  12.179  11.242   6.584  0.8135 -2.8225 -2.4280
  965MOL0     H30273  12.293  11.627   6.664 -2.0891 -0.1384  1.2726
  965MOL0     H30274  11.588  11.469   6.444  1.5348  1.0718 -1.8574
  965MOL0     H30275  11.369  11.412   6.366  2.3167  4.4082 -2.9813
  966MOL0     O30276   3.300   9.931   1.509 -0.1845  0.3986  0.4468
  966MOL0     C30277   3.232   9.952   1.410 -0.6959  0.1126  0.5700
  966MOL0     O30278   3.120   9.883   1.375  0.5508  0.0228 -0.3086
  966MOL0     C30279   3.055   9.820   1.477  0.0615  0.7999 -0.1778
  966MOL0     C30280   2.992   9.698   1.444  0.0525  1.1118 -0.5127
  966MOL0     C30281   2.930   9.618   1.539  0.0203 -0.6720  0.6456
  966MOL0     C30282   2.932   9.660   1.673  0.0251 -0.4560  0.4986
  966MOL0     O30283   2.868   9.572   1.750  0.2564 -0.1337 -0.5499
  966MOL0     C30284   2.861   9.581   1.895  0.8155 -0.5136 -0.0549
  966MOL0     C30285   2.739   9.673   1.925 -0.0958  0.4938 -0.2534
  966MOL0     C30286   2.615   9.636   1.854 -0.4074 -0.1694  0.3188
  966MOL0     C30287   2.552   9.499   1.895  0.0787  0.7516 -0.0643
  966MOL0     C30288   2.423   9.468   1.817  0.1307 -1.0001 -0.7813
  966MOL0     C30289   2.335   9.361   1.891  0.5716  0.1360 -0.9632
  966MOL0     C30290   2.190   9.328   1.830  0.7214 -0.2615  0.2463
  966MOL0     C30291   2.216   9.238   1.711  0.8054  0.4210 -0.7928
  966MOL0     N30292   2.090   9.225   1.638  0.3055  0.4201 -0.3346
  966MOL0     C30293   2.058   9.286   1.518 -0.4217 -0.1947  0.3257
  966MOL0     C30294   1.930   9.266   1.502  0.4220 -0.2057 -0.5413
  966MOL0     C30295   1.844   9.323   1.388  0.3472 -0.9274  1.5638
  966MOL0     C30296   1.789   9.457   1.434  0.0334 -0.0851  0.0816
  966MOL0     C30297   1.680   9.511   1.341  0.2304  0.0181  0.2479
  966MOL0     C30298   1.740   9.590   1.222 -0.6313  0.1183 -0.8486
  966MOL0     O30299   1.801   9.714   1.275  0.3794  0.5719 -0.4409
  966MOL0     C30300   1.899   9.781   1.202 -0.0633 -0.3499  0.2935
  966MOL0     C30301   1.898   9.780   1.063 -0.0936  0.4416  0.1761
  966MOL0     C30302   1.984   9.859   0.989 -0.1899  0.9687 -0.4473
  966MOL0     C30303   1.983   9.830   0.835 -0.7958 -0.5322 -0.4019
  966MOL0     C30304   2.074   9.942   1.056 -0.2022  0.1457 -0.1283
  966MOL0     C30305   2.164  10.043   0.984 -0.3511 -0.0033 -0.4645
  966MOL0     O30306   2.276  10.076   1.058 -0.2415 -0.3787 -0.4194
  966MOL0     C30307   2.354  10.175   1.008  0.5672 -0.7868  0.2585
  966MOL0     C30308   2.306  10.310   1.009  1.1940 -0.1120  0.0004
  966MOL0     C30309   2.385  10.421   0.979 -0.1089 -0.5709  0.0159
  966MOL0     C30310   2.518  10.404   0.944 -0.3797 -0.3678 -0.3169
  966MOL0     O30311   2.588  10.514   0.918 -0.3688 -0.4697  0.2555
  966MOL0     C30312   2.578  10.621   1.017  0.5778 -0.2499  0.0722
  966MOL0     C30313   2.696  10.721   1.002  0.1589 -0.2935  0.0706
  966MOL0     C30314   2.703  10.775   0.856 -0.1031  0.0396 -0.2380
  966MOL0     C30315   2.782  10.902   0.862 -0.2913  0.2514 -0.2265
  966MOL0     C30316   2.912  10.909   0.943  0.6148  0.3491 -0.4060
  966MOL0     C30317   3.006  11.018   0.887  0.0881  0.7568 -0.1218
  966MOL0     C30318   3.152  11.023   0.939  0.5220 -0.4759 -0.1572
  966MOL0     C30319   3.244  10.904   0.884  0.5659 -0.2018  0.2809
  966MOL0    Cl30320   3.237  10.919   0.705 -0.1343  0.3037 -0.0759
  966MOL0     C30321   2.566  10.270   0.942 -0.6138 -0.0750 -0.3678
  966MOL0     C30322   2.490  10.159   0.974  0.2145  0.0919 -0.7190
  966MOL0     O30323   2.131  10.087   0.871  0.6373 -0.3329  0.4249
  966MOL0     C30324   2.085   9.938   1.199  0.4879  0.4329  0.0163
  966MOL0     C30325   2.001   9.852   1.275  1.0966  0.5383 -0.5478
  966MOL0     N30326   1.876   9.202   1.614  0.2800  0.9433 -0.5620
  966MOL0     N30327   1.973   9.177   1.697  0.4103 -0.4265 -0.3114
  966MOL0     C30328   2.977   9.791   1.711  0.5223 -0.0212 -0.1714
  966MOL0     C30329   3.046   9.863   1.615  0.9874 -0.0957  0.4563
  966MOL0     C30330   3.280  10.048   1.307 -0.2691  0.2419  0.6894
  966MOL0     C30331   3.190  10.091   1.210  0.1907 -0.0450  0.5634
  966MOL0     C30332   3.218  10.194   1.125 -0.1190 -0.0995 -0.4550
  966MOL0     C30333   3.330  10.265   1.137 -0.2369 -0.3481  0.2445
  966MOL0     O30334   3.347  10.375   1.064  0.0150 -0.4540 -0.5106
  966MOL0     C30335   3.472  10.446   1.065 -0.5237 -0.4503 -0.3471
  966MOL0     C30336   3.456  10.569   0.975 -1.1166 -0.4459 -0.6046
  966MOL0     C30337   3.592  10.603   0.910  0.2217 -0.1015 -0.8424
  966MOL0     C30338   3.607  10.506   0.795  1.2261  0.4494  0.1993
  966MOL0     C30339   3.741  10.476   0.750  0.1794 -0.6204 -0.2916
  966MOL0     C30340   3.854  10.473   0.711  0.3607 -0.5323  0.3736
  966MOL0     C30341   3.421  10.227   1.233 -0.1332  0.4901 -0.5190
  966MOL0     C30342   3.407  10.108   1.309 -0.5379 -1.1961  0.9301
  966MOL0     H30343   3.008   9.665   1.342  3.8813  3.4157 -0.8671
  966MOL0     H30344   2.899   9.518   1.510  0.0916 -0.1601 -1.3468
  966MOL0     H30345   2.838   9.481   1.934  2.1652 -0.4522  0.9856
  966MOL0     H30346   2.955   9.607   1.945  0.5636 -3.1700  2.0555
  966MOL0     H30347   2.719   9.671   2.032 -0.7647  4.4461 -0.1431
  966MOL0     H30348   2.766   9.777   1.901  2.0170  0.0141 -0.1324
  966MOL0     H30349   2.549   9.717   1.886 -0.1994  0.9044 -1.7725
  966MOL0     H30350   2.621   9.635   1.745 -0.5113 -1.4473  0.3067
  966MOL0     H30351   2.617   9.418   1.860  0.3815  1.3863 -0.9982
  966MOL0     H30352   2.539   9.487   2.003  3.0008 -1.7905  0.1185
  966MOL0     H30353   2.366   9.561   1.814 -0.9416 -1.5275  1.4814
  966MOL0     H30354   2.454   9.438   1.716  3.1697  0.3303 -0.3642
  966MOL0     H30355   2.385   9.265   1.908 -0.5675 -0.0057  2.2879
  966MOL0     H30356   2.325   9.392   1.995  0.6336 -1.8283 -0.3429
  966MOL0     H30357   2.114   9.293   1.901 -2.7269  0.1898 -2.8990
  966MOL0     H30358   2.164   9.429   1.799  0.9220 -0.5583 -0.9342
  966MOL0     H30359   2.263   9.146   1.747 -0.1552 -0.7113 -2.3211
  966MOL0     H30360   2.290   9.280   1.642  0.9772 -3.5111 -3.3247
  966MOL0     H30361   2.118   9.348   1.452  2.1132 -1.7543  0.9895
  966MOL0     H30362   1.892   9.336   1.291  0.6857  1.1108  1.9537
  966MOL0     H30363   1.751   9.267   1.374  0.1900 -1.3990  4.0607
  966MOL0     H30364   1.867   9.530   1.455  1.1343 -0.2202 -3.0662
  966MOL0     H30365   1.742   9.444   1.532  0.4573 -3.0635 -0.0018
  966MOL0     H30366   1.612   9.577   1.397  2.4509  2.9933 -0.3080
  966MOL0     H30367   1.612   9.438   1.297 -1.3440  3.0620 -2.8658
  966MOL0     H30368   1.656   9.615   1.157 -1.9211  0.6314  0.9573
  966MOL0     H30369   1.812   9.527   1.169  0.1085  0.3973 -0.1951
  966MOL0     H30370   1.822   9.723   1.010 -0.4080 -0.5940  1.6950
  966MOL0     H30371   2.049   9.899   0.782  0.7282 -1.5229  0.1303
  966MOL0     H30372   2.030   9.732   0.819  0.9136  0.4837 -2.0969
  966MOL0     H30373   1.882   9.823   0.794 -0.6159 -1.7627 -0.6907
  966MOL0     H30374   2.199  10.316   1.023  0.7231 -3.0229 -1.6106
  966MOL0     H30375   2.328  10.513   0.978 -1.4573 -1.3837 -0.0842
  966MOL0     H30376   2.484  10.674   0.998  1.8541  2.3929  0.6031
  966MOL0     H30377   2.579  10.582   1.119 -0.4251 -3.4660 -1.0405
  966MOL0     H30378   2.692  10.805   1.073  2.4222  1.6862 -1.9373
  966MOL0     H30379   2.788  10.667   1.026  1.2722  1.6870  0.5452
  966MOL0     H30380   2.604  10.815   0.833  1.0179  3.2321  0.1100
  966MOL0     H30381   2.745  10.699   0.789  0.6334 -1.6655  2.0220
  966MOL0     H30382   2.806  10.930   0.759 -3.2556  0.6501 -0.8945
  966MOL0     H30383   2.720  10.984   0.899 -0.2203  0.3298 -0.2799
  966MOL0     H30384   2.953  10.810   0.919 -3.6267 -1.3473 -1.6651
  966MOL0     H30385   2.892  10.916   1.050  0.7397  1.1502 -0.4343
  966MOL0     H30386   2.994  11.038   0.780 -0.3181  0.2937 -0.1655
  966MOL0     H30387   2.967  11.117   0.916  0.6771  0.3572  2.2398
  966MOL0     H30388   3.139  11.017   1.047 -3.5111 -4.2647 -0.5365
  966MOL0     H30389   3.189  11.123   0.914  0.2086 -0.6295 -1.2894
  966MOL0     H30390   3.208  10.806   0.917 -2.3485  0.7075  0.0892
  966MOL0     H30391   3.337  10.930   0.935 -0.0997 -1.5995  2.3022
  966MOL0     H30392   2.666  10.244   0.910  0.1547  0.3956  1.5030
  966MOL0     H30393   2.534  10.063   0.949 -0.2192 -0.5331  0.8636
  966MOL0     H30394   2.165   9.988   1.253  1.0042  1.8438 -1.9337
  966MOL0     H30395   2.002   9.872   1.381  1.2312  0.8231 -0.6011
  966MOL0     H30396   2.983   9.831   1.811  1.1591  1.2832 -0.7114
  966MOL0     H30397   3.088   9.957   1.648  3.1842 -1.5539  2.0839
  966MOL0     H30398   3.094  10.045   1.188  2.2486 -4.4967 -0.3022
  966MOL0     H30399   3.152  10.234   1.049 -1.3912  0.7103  1.0061
  966MOL0     H30400   3.503  10.480   1.164  1.0845  0.2637 -1.0671
  966MOL0     H30401   3.544  10.375   1.025 -0.0596 -0.1760 -0.0021
  966MOL0     H30402   3.410  10.645   1.039 -1.8228 -1.3415 -0.0209
  966MOL0     H30403   3.384  10.550   0.894 -1.1124 -2.6634 -0.1530
  966MOL0     H30404   3.676  10.590   0.978  0.2483  0.8910 -0.6763
  966MOL0     H30405   3.588  10.705   0.870 -3.1738 -0.6450 -2.3332
  966MOL0     H30406   3.556  10.548   0.707 -0.8856 -1.6547  0.3290
  966MOL0     H30407   3.558  10.411   0.818 -0.7727  1.5421  0.6569
  966MOL0     H30408   3.951  10.467   0.665 -0.0076  1.8051 -0.8350
  966MOL0     H30409   3.519  10.273   1.228 -0.3605  0.9855 -0.5564
  966MOL0     H30410   3.477  10.082   1.388  0.0408  1.9608  1.5882
  967MOL0     O30411   1.366   6.175   7.380  0.1853  0.4371  0.0743
  967MOL0     C30412   1.378   6.297   7.366  0.4621  0.1804  0.4532
  967MOL0     O30413   1.287   6.383   7.315  0.1327 -0.6592 -0.8532
  967MOL0     C30414   1.160   6.337   7.284  0.2381 -0.5457 -0.0148
  967MOL0     C30415   1.114   6.361   7.152  0.2589  0.3391  0.8447
  967MOL0     C30416   0.983   6.326   7.126  0.7375  0.8871  0.5721
  967MOL0     C30417   0.900   6.274   7.221  1.4214 -0.3050 -0.4099
  967MOL0     O30418   0.767   6.249   7.182 -0.3307 -0.4830 -0.4189
  967MOL0     C30419   0.680   6.330   7.259  0.3488  0.3252  0.2228
  967MOL0     C30420   0.558   6.351   7.170 -0.2044  0.2552  0.2895
  967MOL0     C30421   0.603   6.445   7.060  0.4669 -0.3415  0.0446
  967MOL0     C30422   0.490   6.461   6.961  0.5857 -0.1891  0.0701
  967MOL0     C30423   0.394   6.563   7.005 -0.3683  0.6840 -0.0202
  967MOL0     C30424   0.257   6.554   6.929  0.7514 -1.2571  0.5999
  967MOL0     C30425   0.164   6.672   6.978  0.4442  0.4664  0.5465
  967MOL0     C30426   0.215   6.810   6.938  0.8778 -0.2251  0.4116
  967MOL0     N30427   0.106   6.909   6.938 -0.8211 -0.3764 -0.3941
  967MOL0     C30428   0.117   7.031   6.867  0.5449 -0.5438  0.1455
  967MOL0     C30429  -0.001   7.093   6.875  0.5970 -0.0849 -1.0130
  967MOL0     C30430  -0.041   7.241   6.865 -0.4879  0.8518  0.3971
  967MOL0     C30431  -0.194   7.253   6.874 -0.4795  1.1155  0.3859
  967MOL0     C30432  -0.239   7.409   6.854  0.5225  0.2568 -0.1211
  967MOL0     C30433  -0.240   7.449   6.711  0.2963 -1.1037  0.8686
  967MOL0     O30434  -0.326   7.389   6.613  0.5833  0.2126 -0.3972
  967MOL0     C30435  -0.466   7.429   6.617 -0.1841  0.1429  0.2404
  967MOL0     C30436  -0.520   7.526   6.707 -0.1532 -0.4698 -0.1592
  967MOL0     C30437  -0.657   7.548   6.720 -0.0229  0.2653  0.3479
  967MOL0     C30438  -0.682   7.635   6.834  0.8469 -0.3998  0.9043
  967MOL0     C30439  -0.753   7.473   6.644 -0.0322  0.1977  0.1321
  967MOL0     C30440  -0.905   7.479   6.660  0.3335 -0.6228 -0.9373
  967MOL0     O30441  -0.977   7.382   6.597 -0.6164 -0.0002  0.1473
  967MOL0     C30442  -1.116   7.387   6.606  0.3534  0.4785  0.8067
  967MOL0     C30443  -1.197   7.416   6.720 -0.4402  0.4488  0.8898
  967MOL0     C30444  -1.344   7.415   6.720  0.2646  0.1454  0.3228
  967MOL0     C30445  -1.413   7.402   6.600  0.2085 -0.6739  0.2707
  967MOL0     O30446  -1.543   7.413   6.567 -0.2895 -0.2284 -0.2255
  967MOL0     C30447  -1.626   7.501   6.634 -0.7585 -0.1846 -0.0285
  967MOL0     C30448  -1.760   7.542   6.564 -0.9842 -0.2194 -0.3368
  967MOL0     C30449  -1.849   7.417   6.541  0.4451 -0.1010 -0.4204
  967MOL0     C30450  -1.985   7.467   6.481 -0.8660  0.4804  0.6764
  967MOL0     C30451  -2.078   7.354   6.457  0.0611 -0.6903 -0.0100
  967MOL0     C30452  -2.176   7.381   6.342  0.4553  0.0440 -0.5084
  967MOL0     C30453  -2.264   7.509   6.359  0.1207  0.2517  0.1145
  967MOL0     C30454  -2.361   7.539   6.250  0.5171 -0.0812  0.0639
  967MOL0    Cl30455  -2.465   7.404   6.222 -0.1766  0.6735 -0.4019
  967MOL0     C30456  -1.338   7.368   6.483 -0.4505 -0.0040 -1.1737
  967MOL0     C30457  -1.189   7.365   6.490 -0.1621 -0.2312  0.7308
  967MOL0     O30458  -0.950   7.573   6.720  0.2508  0.0317 -0.8901
  967MOL0     C30459  -0.700   7.377   6.558  0.2325  0.8599 -0.1108
  967MOL0     C30460  -0.563   7.354   6.544  0.0449 -0.2689 -0.0613
  967MOL0     N30461  -0.091   7.002   6.926  0.1683 -0.2985  0.2396
  967MOL0     N30462  -0.025   6.897   6.974  0.2153  0.9680 -0.4877
  967MOL0     C30463   0.947   6.245   7.348  0.3461 -0.3982  0.1516
  967MOL0     C30464   1.082   6.280   7.379  0.5635  0.3441  0.2678
  967MOL0     C30465   1.513   6.344   7.385  0.7093 -0.1729 -0.5594
  967MOL0     C30466   1.535   6.468   7.430 -0.0033 -0.3745 -0.0360
  967MOL0     C30467   1.667   6.521   7.454 -0.4989 -0.0581 -0.2110
  967MOL0     C30468   1.776   6.432   7.428  0.2286 -0.3364  0.4461
  967MOL0     O30469   1.902   6.484   7.405  0.3799  0.7739  0.7190
  967MOL0     C30470   1.942   6.610   7.453 -0.0733  0.0241  0.4120
  967MOL0     C30471   2.096   6.624   7.443 -0.0760 -0.0469 -0.4626
  967MOL0     C30472   2.150   6.595   7.297 -0.3934 -0.2233 -0.7114
  967MOL0     C30473   2.283   6.649   7.266 -0.7271  0.0533  0.2901
  967MOL0     C30474   2.335   6.580   7.151  0.4547  0.0275  0.4464
  967MOL0     C30475   2.377   6.514   7.061  0.1229 -0.1350 -0.2930
  967MOL0     C30476   1.755   6.306   7.385  0.9111  0.0451 -0.1839
  967MOL0     C30477   1.630   6.267   7.358  0.6651  0.2270 -0.2812
  967MOL0     H30478   1.179   6.407   7.078 -1.4890  2.3258  0.4529
  967MOL0     H30479   0.946   6.357   7.029  0.1242  0.9479  0.8210
  967MOL0     H30480   0.644   6.285   7.352  0.6963 -1.3898 -0.4491
  967MOL0     H30481   0.721   6.427   7.289  3.0796 -0.4503 -0.7092
  967MOL0     H30482   0.509   6.263   7.128  1.8645  1.4926 -5.6499
  967MOL0     H30483   0.483   6.408   7.227  1.5490  1.6273  1.3226
  967MOL0     H30484   0.620   6.542   7.107 -0.6313 -0.3164  0.4039
  967MOL0     H30485   0.694   6.400   7.018  1.0734  2.0712 -1.4327
  967MOL0     H30486   0.531   6.484   6.862  2.1379  1.6516  1.0582
  967MOL0     H30487   0.447   6.362   6.947  2.2609 -1.2393  1.8710
  967MOL0     H30488   0.381   6.553   7.113 -1.5135  1.8977 -0.0158
  967MOL0     H30489   0.432   6.666   7.009 -0.8299  0.8283  1.6131
  967MOL0     H30490   0.270   6.566   6.821  2.6656 -0.0558  0.9170
  967MOL0     H30491   0.208   6.460   6.957  1.4599 -1.4944  1.0729
  967MOL0     H30492   0.063   6.659   6.939  0.8753 -1.0036 -0.1368
  967MOL0     H30493   0.149   6.674   7.087  0.3356 -1.2384  0.5957
  967MOL0     H30494   0.257   6.804   6.837 -0.4534  2.7546 -0.4024
  967MOL0     H30495   0.291   6.839   7.011  0.9636 -2.2860  1.2081
  967MOL0     H30496   0.210   7.083   6.846  0.5042 -0.9982 -1.3227
  967MOL0     H30497  -0.003   7.309   6.942  0.7438  3.5063 -2.3796
  967MOL0     H30498  -0.001   7.274   6.769  1.1082 -0.7575  0.4518
  967MOL0     H30499  -0.219   7.216   6.974 -0.3220 -2.0323 -0.6335
  967MOL0     H30500  -0.239   7.189   6.797  1.5288  1.4363 -1.1422
  967MOL0     H30501  -0.168   7.471   6.908  2.1828 -0.0962 -1.8030
  967MOL0     H30502  -0.343   7.423   6.887  0.3208  1.8697 -1.2992
  967MOL0     H30503  -0.134   7.441   6.685  0.6405  2.1748  0.8730
  967MOL0     H30504  -0.249   7.558   6.709 -1.0988 -1.2140 -0.2876
  967MOL0     H30505  -0.454   7.587   6.768 -0.4385 -0.4563  0.1402
  967MOL0     H30506  -0.764   7.596   6.896  0.2703 -0.2865  0.2345
  967MOL0     H30507  -0.601   7.666   6.900 -0.5943 -1.9583  3.6065
  967MOL0     H30508  -0.715   7.728   6.786 -0.8046 -0.4065  1.9272
  967MOL0     H30509  -1.160   7.456   6.813  1.8276  0.2167  0.1338
  967MOL0     H30510  -1.400   7.447   6.808 -1.3999 -0.4066 -0.4985
  967MOL0     H30511  -1.658   7.449   6.725 -0.5367  0.7669  0.5973
  967MOL0     H30512  -1.578   7.593   6.669 -0.7354 -0.4167  0.5686
  967MOL0     H30513  -1.811   7.617   6.624 -2.1932  0.2261 -1.8335
  967MOL0     H30514  -1.742   7.588   6.466 -0.4820 -1.4139 -0.8287
  967MOL0     H30515  -1.870   7.362   6.634  3.0254  1.3529  1.1370
  967MOL0     H30516  -1.802   7.344   6.476 -0.6136 -0.8998 -0.3135
  967MOL0     H30517  -2.021   7.548   6.545  3.7551  3.3069  0.0876
  967MOL0     H30518  -1.974   7.521   6.387 -0.3550  1.0038  1.0306
  967MOL0     H30519  -2.141   7.336   6.545  2.1741 -1.7497  1.3820
  967MOL0     H30520  -2.027   7.260   6.435 -1.5052 -1.3113 -1.1627
  967MOL0     H30521  -2.124   7.386   6.245 -0.0734  1.8696 -0.7342
  967MOL0     H30522  -2.249   7.302   6.325 -0.4800  0.5907  0.8074
  967MOL0     H30523  -2.191   7.590   6.372  0.6508 -0.5890  2.9509
  967MOL0     H30524  -2.317   7.507   6.454  0.1616  2.1086  0.2141
  967MOL0     H30525  -2.312   7.543   6.152  0.6638 -3.0498 -0.0715
  967MOL0     H30526  -2.418   7.632   6.258  1.8981  1.0091 -1.7710
  967MOL0     H30527  -1.382   7.341   6.388 -0.2007  0.2083 -1.3498
  967MOL0     H30528  -1.136   7.346   6.397 -0.8516 -1.4327  0.5689
  967MOL0     H30529  -0.764   7.324   6.489  0.3351  2.5872 -1.5939
  967MOL0     H30530  -0.522   7.281   6.475  4.3557  0.4090  1.4429
  967MOL0     H30531   0.872   6.204   7.414 -1.8277  0.2792 -1.7666
  967MOL0     H30532   1.117   6.267   7.481 -0.6907  2.5539  1.0434
  967MOL0     H30533   1.455   6.541   7.437 -0.1565 -0.2818 -2.0412
  967MOL0     H30534   1.665   6.628   7.474 -0.4707  0.2940 -1.9063
  967MOL0     H30535   1.902   6.688   7.388  1.5552  0.3880 -0.1932
  967MOL0     H30536   1.893   6.630   7.549  0.7549  0.9974  0.6569
  967MOL0     H30537   2.144   6.558   7.515 -2.2089  1.5606  2.6580
  967MOL0     H30538   2.122   6.727   7.470 -2.1367  0.5556 -0.6034
  967MOL0     H30539   2.070   6.632   7.233 -0.9380 -2.2678 -1.2981
  967MOL0     H30540   2.154   6.486   7.288  0.3453 -0.1664 -1.2377
  967MOL0     H30541   2.344   6.629   7.354  1.8471 -1.0828 -1.6298
  967MOL0     H30542   2.276   6.757   7.256 -3.6104  0.0532  1.1600
  967MOL0     H30543   2.416   6.459   6.978 -1.3057  1.4327 -2.0798
  967MOL0     H30544   1.838   6.241   7.358 -0.8112 -2.7751  0.8501
  967MOL0     H30545   1.617   6.167   7.317  0.2520  1.1488 -2.5172
  968MOL0     O30546  10.390   5.079   9.060  0.1801  0.1105 -0.1963
  968MOL0     C30547  10.397   5.176   8.983 -0.1685  0.1878  0.4456
  968MOL0     O30548  10.294   5.256   8.950  0.0716 -0.4808  0.7357
  968MOL0     C30549  10.162   5.229   8.973 -0.2946  0.5261  0.5371
  968MOL0     C30550  10.115   5.093   8.972  0.1384 -0.1373  0.8728
  968MOL0     C30551   9.977   5.077   9.005 -0.9064  0.0525  0.6001
  968MOL0     C30552   9.899   5.183   9.031  0.4091  0.7267  0.6625
  968MOL0     O30553   9.770   5.183   9.085 -0.3344  0.2481  0.6945
  968MOL0     C30554   9.708   5.058   9.104  1.3291 -0.0412  0.4528
  968MOL0     C30555   9.574   5.081   9.168  0.2071 -1.0507  0.2484
  968MOL0     C30556   9.472   4.971   9.163  0.1082 -0.0024  0.0927
  968MOL0     C30557   9.339   5.009   9.216 -0.0671  1.2186 -0.3754
  968MOL0     C30558   9.332   5.002   9.369 -0.1181  0.9405  0.4772
  968MOL0     C30559   9.195   5.043   9.435 -0.7835 -0.5912 -0.4841
  968MOL0     C30560   9.083   4.940   9.423  0.2107  1.3051  0.5874
  968MOL0     C30561   9.097   4.807   9.495  0.5931 -0.0785 -0.6353
  968MOL0     N30562   8.976   4.715   9.505  0.1734 -0.1657  0.5432
  968MOL0     C30563   8.848   4.738   9.471  0.0527 -1.0696 -0.4001
  968MOL0     C30564   8.781   4.621   9.496  0.3070  0.1024 -0.2259
  968MOL0     C30565   8.633   4.605   9.487  0.6118 -0.8694 -0.0352
  968MOL0     C30566   8.581   4.631   9.351  0.5915  0.1270  1.1457
  968MOL0     C30567   8.440   4.680   9.344  0.1830  0.2578 -0.0414
  968MOL0     C30568   8.347   4.585   9.417  0.0530  0.0689 -1.0271
  968MOL0     O30569   8.231   4.664   9.445 -0.1278  0.1928  0.0891
  968MOL0     C30570   8.108   4.641   9.389  0.2256  0.1362 -0.0094
  968MOL0     C30571   8.085   4.566   9.273 -0.3660  0.4605  0.5329
  968MOL0     C30572   7.960   4.553   9.216 -0.1541 -0.2067 -0.2180
  968MOL0     C30573   7.958   4.481   9.085 -0.6739 -0.0833  0.5146
  968MOL0     C30574   7.854   4.601   9.286  0.7023  0.7427  0.9079
  968MOL0     C30575   7.715   4.578   9.243  0.7053  0.0296  0.1637
  968MOL0     O30576   7.629   4.680   9.248 -0.3361 -0.3665  0.1403
  968MOL0     C30577   7.496   4.671   9.230  0.1616  0.5002  0.2764
  968MOL0     C30578   7.421   4.566   9.276  0.9290  0.6903 -0.4522
  968MOL0     C30579   7.277   4.569   9.275 -0.6284  1.2390  0.6638
  968MOL0     C30580   7.205   4.681   9.213  0.5052 -0.2550  0.4090
  968MOL0     O30581   7.065   4.703   9.206  0.4165  0.2153  0.2503
  968MOL0     C30582   6.985   4.608   9.275 -0.0879  0.1352 -0.6594
  968MOL0     C30583   6.945   4.497   9.176 -0.8144 -0.0499 -1.2142
  968MOL0     C30584   6.835   4.542   9.077 -0.7334 -0.4616 -0.0832
  968MOL0     C30585   6.697   4.570   9.133  0.1185 -1.0144  0.8063
  968MOL0     C30586   6.600   4.637   9.040 -0.8574  0.3759 -0.7244
  968MOL0     C30587   6.459   4.649   9.095 -0.3624 -0.3669 -0.2006
  968MOL0     C30588   6.387   4.523   9.122 -1.1529  0.6145 -0.2063
  968MOL0     C30589   6.313   4.483   8.996 -1.1739 -0.9143 -0.0238
  968MOL0    Cl30590   6.218   4.341   9.022  0.3577  0.1262  0.3318
  968MOL0     C30591   7.286   4.790   9.176 -0.6958  0.6731  0.9047
  968MOL0     C30592   7.428   4.787   9.185 -0.1606  0.3356 -0.7084
  968MOL0     O30593   7.694   4.466   9.210 -0.1293  0.4915 -0.1814
  968MOL0     C30594   7.873   4.673   9.407  0.2173 -0.3439  0.6670
  968MOL0     C30595   7.999   4.695   9.450 -0.9786 -0.3888  1.0740
  968MOL0     N30596   8.864   4.528   9.543  0.3499 -0.2509  0.2464
  968MOL0     N30597   8.978   4.581   9.548 -0.2746 -0.6687 -0.0099
  968MOL0     C30598   9.948   5.320   9.035 -0.1189  0.6731 -0.0566
  968MOL0     C30599  10.077   5.340   8.995  0.1233  0.2094 -0.1815
  968MOL0     C30600  10.530   5.208   8.929 -0.8870  0.2931 -0.0877
  968MOL0     C30601  10.608   5.306   8.995 -0.1035  0.5452 -0.0384
  968MOL0     C30602  10.736   5.333   8.950  0.8451 -0.8242 -1.2456
  968MOL0     C30603  10.792   5.257   8.841  0.3329  0.1998  0.3827
  968MOL0     O30604  10.923   5.268   8.790  0.1580  0.0827 -0.8953
  968MOL0     C30605  10.994   5.385   8.844  0.1714 -0.1339  0.3366
  968MOL0     C30606  11.131   5.394   8.779 -0.0405 -0.3765 -0.3663
  968MOL0     C30607  11.128   5.412   8.631 -0.7128 -0.7121  0.1011
  968MOL0     C30608  11.249   5.346   8.564  0.0495 -0.2542  0.2181
  968MOL0     C30609  11.378   5.413   8.583  0.7139 -0.5355  0.0098
  968MOL0     C30610  11.492   5.458   8.609 -0.3002 -0.3403  0.3152
  968MOL0     C30611  10.714   5.160   8.778  0.0130 -1.1892  0.4409
  968MOL0     C30612  10.582   5.139   8.820  0.1402  0.4108 -0.7715
  968MOL0     H30613  10.177   5.011   8.938 -0.2777  0.1112 -0.5279
  968MOL0     H30614   9.927   4.981   9.011 -1.5180  0.3606  0.5389
  968MOL0     H30615   9.693   5.010   9.006 -0.5937  3.6399 -1.2837
  968MOL0     H30616   9.754   4.991   9.177  0.6970 -0.8467  0.1277
  968MOL0     H30617   9.588   5.108   9.273 -1.1325 -0.3959  0.2792
  968MOL0     H30618   9.518   5.162   9.119  0.6354 -1.7026 -1.3697
  968MOL0     H30619   9.458   4.963   9.054  1.6965  0.7707 -0.1928
  968MOL0     H30620   9.498   4.875   9.209  4.0702 -0.0741 -1.8104
  968MOL0     H30621   9.315   5.111   9.184 -0.6551  1.1780 -0.0906
  968MOL0     H30622   9.267   4.943   9.166  1.4185  1.3228 -2.8190
  968MOL0     H30623   9.365   4.903   9.401 -0.6940  0.8107  0.6857
  968MOL0     H30624   9.408   5.070   9.408 -0.8063  2.1376 -0.2135
  968MOL0     H30625   9.220   5.080   9.535  0.7073  1.0780 -1.4111
  968MOL0     H30626   9.160   5.135   9.387  0.8598  0.6372  0.6094
  968MOL0     H30627   8.999   4.990   9.473 -2.3057 -2.8806  1.0512
  968MOL0     H30628   9.048   4.940   9.320 -2.0316  4.3015  1.2227
  968MOL0     H30629   9.141   4.811   9.595 -0.9667 -1.2464  0.1452
  968MOL0     H30630   9.171   4.740   9.451  0.6198 -0.3572 -0.1766
  968MOL0     H30631   8.815   4.837   9.443  0.6640 -1.4231 -2.4982
  968MOL0     H30632   8.609   4.504   9.520  0.8338 -1.4041 -1.4598
  968MOL0     H30633   8.592   4.681   9.554  3.9150  2.3321 -1.3050
  968MOL0     H30634   8.593   4.538   9.295  0.0951  1.0924 -0.6773
  968MOL0     H30635   8.638   4.698   9.286 -0.7294  0.7819  0.6078
  968MOL0     H30636   8.422   4.677   9.236  2.5417 -1.9188 -0.4721
  968MOL0     H30637   8.439   4.780   9.389  1.2985  0.2576  0.0141
  968MOL0     H30638   8.394   4.535   9.502 -0.9450 -2.1649 -1.6998
  968MOL0     H30639   8.314   4.501   9.354 -3.0777  1.0682 -0.8827
  968MOL0     H30640   8.167   4.512   9.225  0.5119  2.1181  0.0904
  968MOL0     H30641   7.863   4.505   9.037  0.2340  0.9381 -0.8329
  968MOL0     H30642   8.048   4.500   9.026 -0.8061 -1.2732 -0.0931
  968MOL0     H30643   7.962   4.372   9.101  2.5597 -0.0904  0.2361
  968MOL0     H30644   7.467   4.479   9.321 -0.0512  1.9215  3.2472
  968MOL0     H30645   7.229   4.477   9.305  1.3236  1.2083  4.1894
  968MOL0     H30646   7.048   4.567   9.354 -0.9188 -1.6049 -0.8555
  968MOL0     H30647   6.891   4.644   9.318 -0.7539 -1.4149 -0.7507
  968MOL0     H30648   7.028   4.460   9.115 -0.9079 -0.0021 -1.3740
  968MOL0     H30649   6.907   4.406   9.223  1.9644 -0.2773  0.8066
  968MOL0     H30650   6.830   4.475   8.991  0.5881 -1.6501  0.7187
  968MOL0     H30651   6.875   4.634   9.033 -1.0155 -1.6121 -2.9226
  968MOL0     H30652   6.675   4.465   9.151 -0.6106 -1.5292 -2.5818
  968MOL0     H30653   6.713   4.625   9.227  3.4226  0.4326 -0.4273
  968MOL0     H30654   6.603   4.583   8.944 -0.1598  1.9576 -1.6255
  968MOL0     H30655   6.639   4.738   9.027  1.3289 -0.1644  1.0769
  968MOL0     H30656   6.467   4.704   9.190 -1.4862  1.1499 -0.9365
  968MOL0     H30657   6.392   4.715   9.039 -0.8408 -1.1188 -0.5256
  968MOL0     H30658   6.316   4.530   9.205 -0.0587 -3.9046  1.4006
  968MOL0     H30659   6.458   4.445   9.153 -1.1093  0.0461 -1.6821
  968MOL0     H30660   6.384   4.466   8.915 -1.8550  0.1973 -0.8718
  968MOL0     H30661   6.242   4.560   8.966 -2.4671 -2.1325 -0.1535
  968MOL0     H30662   7.228   4.877   9.145 -0.1860  1.9052  3.1672
  968MOL0     H30663   7.492   4.872   9.165  2.9987 -0.5871  3.8788
  968MOL0     H30664   7.783   4.710   9.455 -0.4695  1.0596 -1.5284
  968MOL0     H30665   8.022   4.752   9.540  0.6272  1.0212 -0.1592
  968MOL0     H30666   9.889   5.406   9.062 -0.6469  0.4242 -0.3980
  968MOL0     H30667  10.117   5.439   9.012 -3.7969  1.6864  1.8336
  968MOL0     H30668  10.556   5.358   9.075 -0.3540  0.9503 -0.4550
  968MOL0     H30669  10.796   5.406   9.004  4.0315 -2.0301 -2.8407
  968MOL0     H30670  10.944   5.481   8.826 -0.4066 -0.6769 -1.0701
  968MOL0     H30671  11.015   5.382   8.952  0.0747  1.0384  0.4083
  968MOL0     H30672  11.196   5.311   8.808  3.0834  2.3031  1.0097
  968MOL0     H30673  11.194   5.469   8.827  2.3219 -1.1078 -2.1658
  968MOL0     H30674  11.140   5.517   8.603  6.3731 -1.5715 -2.1151
  968MOL0     H30675  11.041   5.370   8.579 -2.1918  1.0006  1.0795
  968MOL0     H30676  11.234   5.335   8.456 -3.1933  1.8141  0.3261
  968MOL0     H30677  11.249   5.251   8.618 -1.0733  0.8799  2.3797
  968MOL0     H30678  11.591   5.495   8.627  0.2019 -0.4932 -1.9069
  968MOL0     H30679  10.754   5.102   8.696 -1.2569 -1.8904  0.2959
  968MOL0     H30680  10.514   5.062   8.783  0.5817 -1.2931  1.6753
  969MOL0     O30681   4.018   5.071   9.991  0.0311  0.2060 -0.1323
  969MOL0     C30682   4.039   4.951   9.973 -0.5293  0.1025  0.6057
  969MOL0     O30683   3.964   4.848  10.029 -0.6088  0.0549  0.2356
  969MOL0     C30684   3.856   4.871  10.103  0.2502  0.2051 -0.7784
  969MOL0     C30685   3.843   4.821  10.233  0.0419  0.3478  0.1500
  969MOL0     C30686   3.721   4.840  10.297 -0.2752 -0.2480  0.4673
  969MOL0     C30687   3.608   4.905  10.240 -0.3480  0.8495  0.7758
  969MOL0     O30688   3.491   4.907  10.314 -0.2127  0.5963  0.3172
  969MOL0     C30689   3.498   4.969  10.443  0.7125  0.2620 -0.0660
  969MOL0     C30690   3.355   4.994  10.490 -0.4960 -1.0727 -0.2056
  969MOL0     C30691   3.357   4.983  10.644 -0.3613 -0.7151 -0.1624
  969MOL0     C30692   3.221   4.983  10.710 -0.0282  0.1816 -1.0450
  969MOL0     C30693   3.234   5.012  10.869  0.1690 -0.4192  1.0962
  969MOL0     C30694   3.102   4.996  10.949  0.5884 -0.2064 -0.2330
  969MOL0     C30695   3.084   4.846  10.992  0.5728  0.1024  0.1435
  969MOL0     C30696   2.943   4.809  11.018  0.0048 -0.4048  0.3758
  969MOL0     N30697   2.888   4.897  11.123  0.1941 -0.4462  0.8451
  969MOL0     C30698   2.946   4.937  11.241 -0.6071  0.1146  0.8629
  969MOL0     C30699   2.851   5.008  11.303 -0.1913  0.0754  0.2644
  969MOL0     C30700   2.878   5.060  11.446 -0.7901  1.0512 -0.2723
  969MOL0     C30701   2.812   4.974  11.557 -0.3372 -0.3949  0.0058
  969MOL0     C30702   2.660   4.976  11.543  0.9608  0.0360  0.5347
  969MOL0     C30703   2.588   4.882  11.641 -0.3843 -0.9886 -0.7297
  969MOL0     O30704   2.456   4.895  11.579 -0.0505  0.9426  1.1001
  969MOL0     C30705   2.352   4.826  11.639  0.6184  0.0581  0.3217
  969MOL0     C30706   2.234   4.897  11.674 -0.9069 -0.0193 -0.9223
  969MOL0     C30707   2.123   4.831  11.725 -0.6538  0.3838 -0.2037
  969MOL0     C30708   2.006   4.905  11.783 -0.0442  0.1024 -0.8057
  969MOL0     C30709   2.117   4.688  11.740  1.1432 -0.2123 -0.5823
  969MOL0     C30710   1.996   4.601  11.773 -0.0932 -0.0825 -0.3762
  969MOL0     O30711   1.865   4.660  11.786 -0.2654  0.4171  0.3200
  969MOL0     C30712   1.761   4.583  11.830 -0.5419 -0.1886  0.4545
  969MOL0     C30713   1.775   4.498  11.943  0.2486 -0.4125 -0.0988
  969MOL0     C30714   1.662   4.431  12.001 -0.5567 -0.4504  0.3920
  969MOL0     C30715   1.534   4.451  11.952  0.1957 -0.0982  0.0196
  969MOL0     O30716   1.419   4.389  12.010 -1.1802 -0.3316 -0.3819
  969MOL0     C30717   1.427   4.363  12.149 -0.1909 -0.1161  1.0361
  969MOL0     C30718   1.288   4.320  12.190  1.1164  0.3205 -0.6578
  969MOL0     C30719   1.272   4.309  12.348  0.7687 -0.0444  0.0818
  969MOL0     C30720   1.130   4.267  12.392  0.0735  0.2646  0.0587
  969MOL0     C30721   1.131   4.240  12.538 -0.1828 -0.1937 -0.4137
  969MOL0     C30722   0.984   4.240  12.599  0.2037  0.3813  0.0007
  969MOL0     C30723   0.980   4.259  12.750 -0.8111  0.5441  0.3368
  969MOL0     C30724   0.978   4.127  12.827  0.2413 -0.6120  0.1172
  969MOL0    Cl30725   0.925   4.157  13.003 -0.5008  0.2533  0.6170
  969MOL0     C30726   1.521   4.554  11.864  0.2283 -0.3137  0.5990
  969MOL0     C30727   1.628   4.611  11.803  0.5874 -0.8276 -0.6397
  969MOL0     O30728   2.012   4.482  11.775 -0.1020  0.0349 -0.5580
  969MOL0     C30729   2.238   4.616  11.711 -0.7875 -0.3063  1.3066
  969MOL0     C30730   2.356   4.688  11.666 -1.1819  0.2183  0.4075
  969MOL0     N30731   2.746   5.034  11.217 -0.8459  0.6546  0.0719
  969MOL0     N30732   2.768   4.969  11.104 -0.0436  0.2361 -0.6295
  969MOL0     C30733   3.623   4.947  10.106  0.0430  0.4370 -0.4171
  969MOL0     C30734   3.743   4.926  10.046  0.3799  0.6941  0.1646
  969MOL0     C30735   4.161   4.910   9.910 -0.2396 -0.3162  0.4489
  969MOL0     C30736   4.190   4.773   9.897 -0.1960 -0.1523  0.1859
  969MOL0     C30737   4.311   4.738   9.833 -0.0219  0.1882  0.0269
  969MOL0     C30738   4.405   4.824   9.779 -0.5459 -0.7577 -0.7426
  969MOL0     O30739   4.511   4.771   9.715 -0.1344  0.0154 -0.2022
  969MOL0     C30740   4.611   4.861   9.674 -0.2039  0.8949  0.2985
  969MOL0     C30741   4.715   4.766   9.603 -0.4911 -0.2531 -0.3115
  969MOL0     C30742   4.847   4.836   9.582 -0.1955  0.2795 -0.5455
  969MOL0     C30743   4.955   4.745   9.528  0.3235  0.2259  0.2751
  969MOL0     C30744   5.085   4.796   9.565 -0.7328  0.2468 -0.9617
  969MOL0     C30745   5.188   4.836   9.614  0.3295 -0.0684  0.8690
  969MOL0     C30746   4.387   4.960   9.812  0.1398 -0.8024 -0.1591
  969MOL0     C30747   4.262   4.996   9.870 -1.3342 -0.1945 -0.1717
  969MOL0     H30748   3.924   4.762  10.274  4.1209  3.2342 -2.9220
  969MOL0     H30749   3.717   4.815  10.402 -2.2478  1.0860  0.7619
  969MOL0     H30750   3.553   4.901  10.509 -0.2155  0.9733  1.4876
  969MOL0     H30751   3.555   5.062  10.435  1.7014 -0.3721 -0.7503
  969MOL0     H30752   3.329   5.094  10.455 -1.9070 -1.9457 -1.7799
  969MOL0     H30753   3.289   4.921  10.441 -0.1954 -0.6942 -1.1896
  969MOL0     H30754   3.399   4.883  10.663  1.2863 -0.1869 -0.8658
  969MOL0     H30755   3.435   5.051  10.678  0.9805 -0.7321 -2.9464
  969MOL0     H30756   3.175   5.070  10.663 -0.5969  0.5183  0.0828
  969MOL0     H30757   3.167   4.892  10.685 -0.4258  0.5291 -1.4599
  969MOL0     H30758   3.319   4.963  10.915  1.7432 -0.4607 -1.6078
  969MOL0     H30759   3.264   5.117  10.877  0.3129 -0.4056  0.4405
  969MOL0     H30760   3.101   5.055  11.041  3.7994  1.5902 -1.2031
  969MOL0     H30761   3.018   5.032  10.890 -1.7685 -4.2667  0.2230
  969MOL0     H30762   3.133   4.777  10.922  0.7550  0.9555 -0.5974
  969MOL0     H30763   3.146   4.825  11.080  2.0872 -2.7346 -1.4604
  969MOL0     H30764   2.928   4.705  11.046  0.4554  0.3644  4.0363
  969MOL0     H30765   2.890   4.838  10.927  0.0480 -0.1714  0.4233
  969MOL0     H30766   3.043   4.916  11.284  1.2391 -0.0543 -2.9323
  969MOL0     H30767   2.984   5.080  11.466 -0.3701 -2.5234  1.9607
  969MOL0     H30768   2.831   5.157  11.464  1.2220  1.7101  1.8939
  969MOL0     H30769   2.834   5.015  11.656 -4.1150 -0.8179  1.1811
  969MOL0     H30770   2.857   4.874  11.553 -0.0732 -0.4268  2.2579
  969MOL0     H30771   2.642   4.943  11.440  1.8877  2.9435 -0.6489
  969MOL0     H30772   2.605   5.069  11.556 -2.6177 -1.9985  1.3456
  969MOL0     H30773   2.581   4.918  11.744  1.9267  1.5363 -1.3392
  969MOL0     H30774   2.627   4.780  11.639  0.8547 -0.6696  2.5096
  969MOL0     H30775   2.235   5.005  11.670  0.2961  0.0270  0.0233
  969MOL0     H30776   1.971   4.859  11.876 -3.6055 -1.3270 -2.6672
  969MOL0     H30777   2.041   5.004  11.813 -1.2206  0.7202 -1.4183
  969MOL0     H30778   1.926   4.907  11.709  0.0310 -1.5674 -0.9626
  969MOL0     H30779   1.874   4.470  11.977  0.6505  0.9464 -0.1171
  969MOL0     H30780   1.675   4.355  12.077  1.0415  1.1055  1.7632
  969MOL0     H30781   1.515   4.301  12.168  3.3194  4.4205  1.4543
  969MOL0     H30782   1.446   4.462  12.191  3.6853  1.4830 -3.5687
  969MOL0     H30783   1.203   4.380  12.157  0.5880  0.1156  0.2873
  969MOL0     H30784   1.276   4.225  12.136  0.7555 -0.3768  0.6063
  969MOL0     H30785   1.288   4.402  12.404 -0.5204  0.1046  0.2370
  969MOL0     H30786   1.334   4.226  12.384  0.7368  0.1243  0.5319
  969MOL0     H30787   1.056   4.345  12.372 -0.1526 -0.4980 -2.4501
  969MOL0     H30788   1.079   4.184  12.341 -2.8054  1.6269  0.5074
  969MOL0     H30789   1.184   4.318  12.594 -2.7510  0.0304  1.9519
  969MOL0     H30790   1.183   4.146  12.558  4.2332  2.3551  1.4369
  969MOL0     H30791   0.940   4.332  12.559  1.0644  1.7493  2.0221
  969MOL0     H30792   0.928   4.153  12.567 -1.0373  0.7848  0.9939
  969MOL0     H30793   0.887   4.312  12.774 -0.8188  1.2214 -1.1236
  969MOL0     H30794   1.059   4.328  12.782 -0.7867  1.3066 -1.2861
  969MOL0     H30795   1.078   4.083  12.834 -0.4334 -2.1911  0.1395
  969MOL0     H30796   0.914   4.051  12.780  0.1656 -1.3993  1.4348
  969MOL0     H30797   1.417   4.572  11.836 -0.2003  2.0587  3.2202
  969MOL0     H30798   1.609   4.686  11.727  0.4150  1.3380  1.4305
  969MOL0     H30799   2.236   4.510  11.729 -0.0166 -0.1952  2.1016
  969MOL0     H30800   2.441   4.626  11.638  0.1879  3.1524 -2.5556
  969MOL0     H30801   3.541   4.992  10.050 -0.0310 -1.3186 -1.7972
  969MOL0     H30802   3.766   4.946   9.942  3.3665 -2.8954 -0.1016
  969MOL0     H30803   4.119   4.700   9.934 -0.6412 -0.1355 -0.6041
  969MOL0     H30804   4.337   4.634   9.817  2.2077  0.8726 -1.2760
  969MOL0     H30805   4.586   4.935   9.598  1.8766 -0.0449 -1.4025
  969MOL0     H30806   4.652   4.917   9.759 -0.6178 -1.5854  2.2525
  969MOL0     H30807   4.664   4.735   9.511  0.9187 -2.1301 -0.5131
  969MOL0     H30808   4.747   4.677   9.657  1.3531 -0.0376 -0.9614
  969MOL0     H30809   4.885   4.856   9.683  0.4539 -0.1750 -0.6916
  969MOL0     H30810   4.850   4.926   9.520  4.5523  1.0886  0.4609
  969MOL0     H30811   4.957   4.744   9.419  0.8186  0.5709  0.2780
  969MOL0     H30812   4.939   4.640   9.554  2.1484  0.4532  2.6463
  969MOL0     H30813   5.279   4.852   9.670  2.2635 -0.8978 -1.8210
  969MOL0     H30814   4.460   5.038   9.797  0.4448 -0.7548  1.4070
  969MOL0     H30815   4.259   5.103   9.885  4.6416  0.2502  0.3116
  970MOL0     O30816   9.950   8.002   4.486  0.4017 -0.4458 -0.4529
  970MOL0     C30817   9.971   8.035   4.605 -0.1656 -0.0441 -0.4201
  970MOL0     O30818   9.868   8.045   4.697  0.1132  0.7833 -0.5344
  970MOL0     C30819   9.736   8.028   4.654 -0.2301 -0.1961 -0.1420
  970MOL0     C30820   9.651   7.950   4.736  0.1950 -0.5959 -0.0958
  970MOL0     C30821   9.515   7.942   4.701  0.6928  0.5457 -0.0195
  970MOL0     C30822   9.457   8.000   4.586  0.0661  0.5969  0.2499
  970MOL0     O30823   9.326   7.968   4.564  0.2480 -1.1297 -0.8407
  970MOL0     C30824   9.272   8.024   4.444  0.0888  0.0009  0.0310
  970MOL0     C30825   9.121   8.013   4.442  0.0946  0.0086 -0.0794
  970MOL0     C30826   9.054   8.090   4.333  0.3891 -0.6300  0.3932
  970MOL0     C30827   8.907   8.073   4.320  0.8946 -0.0424 -0.1096
  970MOL0     C30828   8.841   8.170   4.222  1.0897 -0.1058  0.1574
  970MOL0     C30829   8.836   8.109   4.075 -0.6764 -0.6839  0.1793
  970MOL0     C30830   8.705   8.116   4.011  0.0484 -0.8028 -0.0481
  970MOL0     C30831   8.707   8.042   3.877 -0.9549 -0.1936 -0.2585
  970MOL0     N30832   8.585   8.056   3.805 -0.1077  0.8237  0.4557
  970MOL0     C30833   8.471   7.977   3.816 -0.2479  0.6765  0.3750
  970MOL0     C30834   8.382   8.025   3.724 -1.1359 -0.2060 -0.7670
  970MOL0     C30835   8.233   7.990   3.717 -0.4704  0.0570  0.5659
  970MOL0     C30836   8.160   8.089   3.810  0.1778  0.5352  0.3895
  970MOL0     C30837   8.015   8.081   3.810 -0.5291  0.0932  0.4283
  970MOL0     C30838   7.960   7.959   3.883 -0.0385  0.1450 -0.0834
  970MOL0     O30839   7.821   7.965   3.870  0.1239  0.3648 -0.2783
  970MOL0     C30840   7.753   7.886   3.961 -0.0381  0.8216 -0.0911
  970MOL0     C30841   7.802   7.826   4.085  1.0304  1.1701  0.7611
  970MOL0     C30842   7.707   7.780   4.182  0.1172  1.3395  0.5230
  970MOL0     C30843   7.771   7.726   4.303  0.1973  0.5752 -0.7924
  970MOL0     C30844   7.569   7.792   4.164  0.3139 -0.4352 -0.1452
  970MOL0     C30845   7.466   7.757   4.260 -0.0467  0.1434 -1.0709
  970MOL0     O30846   7.368   7.681   4.215 -0.4022  0.3463  0.2527
  970MOL0     C30847   7.249   7.653   4.272 -0.2267  0.6135  0.0553
  970MOL0     C30848   7.229   7.524   4.327 -0.6168  0.0194  0.2702
  970MOL0     C30849   7.108   7.498   4.389 -0.2890  0.7045 -0.5591
  970MOL0     C30850   7.007   7.587   4.383 -0.0968  0.6952  0.1372
  970MOL0     O30851   6.885   7.571   4.449  0.1332 -0.6194 -0.3879
  970MOL0     C30852   6.890   7.492   4.568  0.0894  0.1574  0.0922
  970MOL0     C30853   6.759   7.487   4.636 -0.1036  0.0387  0.0365
  970MOL0     C30854   6.642   7.440   4.543 -0.0034 -0.1762 -0.5119
  970MOL0     C30855   6.653   7.292   4.494 -0.2859 -0.1417  0.5300
  970MOL0     C30856   6.634   7.186   4.601  1.5143 -0.4657  0.2559
  970MOL0     C30857   6.633   7.053   4.532  0.0327  0.1102 -0.3242
  970MOL0     C30858   6.594   6.938   4.619  0.3757  0.4379  0.4594
  970MOL0     C30859   6.619   6.797   4.573 -0.0069 -0.0145 -0.4726
  970MOL0    Cl30860   6.497   6.723   4.460  0.5336 -0.4377 -0.1530
  970MOL0     C30861   7.022   7.709   4.312 -0.1282  0.0189  0.0172
  970MOL0     C30862   7.150   7.741   4.258 -0.6487  0.2072 -1.0616
  970MOL0     O30863   7.466   7.799   4.375  0.0543  0.5014  0.4087
  970MOL0     C30864   7.520   7.851   4.047 -0.1295  0.5648 -0.1904
  970MOL0     C30865   7.614   7.890   3.946 -0.3304  0.0325 -1.0778
  970MOL0     N30866   8.449   8.129   3.668 -0.2858 -0.2734 -0.6869
  970MOL0     N30867   8.567   8.157   3.716 -0.5742  0.4805 -0.2462
  970MOL0     C30868   9.548   8.065   4.506 -0.6788  0.1282 -0.0049
  970MOL0     C30869   9.678   8.096   4.550  0.6697 -0.2686  0.0561
  970MOL0     C30870  10.112   8.060   4.651 -0.8670  0.5263 -0.0455
  970MOL0     C30871  10.218   8.062   4.560 -0.0475  0.8882 -0.0032
  970MOL0     C30872  10.351   8.089   4.595  0.3068  0.1312  0.3388
  970MOL0     C30873  10.392   8.117   4.724 -0.2946  0.4602 -0.2026
  970MOL0     O30874  10.526   8.132   4.737  0.5930  0.0524 -0.9141
  970MOL0     C30875  10.570   8.170   4.861  0.7014  0.4147 -0.3493
  970MOL0     C30876  10.591   8.053   4.952 -0.8119  1.1873  0.5597
  970MOL0     C30877  10.636   8.087   5.099  0.3759 -0.3983 -0.2604
  970MOL0     C30878  10.646   7.975   5.191  0.5323  0.1089 -0.4574
  970MOL0     C30879  10.765   7.891   5.156 -0.1310 -0.4590 -0.1230
  970MOL0     C30880  10.875   7.834   5.126  0.1181 -0.3623 -0.7202
  970MOL0     C30881  10.292   8.132   4.817  1.1668  0.1271  0.6235
  970MOL0     C30882  10.158   8.095   4.781  0.1172  0.2717 -0.3099
  970MOL0     H30883   9.686   7.897   4.824 -1.9936 -0.9154  0.6695
  970MOL0     H30884   9.447   7.882   4.760  1.1711 -0.0957 -0.1160
  970MOL0     H30885   9.297   8.131   4.435  0.2932 -0.1894 -2.7840
  970MOL0     H30886   9.315   7.963   4.364  0.2133  2.0759 -1.6013
  970MOL0     H30887   9.090   7.910   4.425  0.8947  0.0156 -1.8197
  970MOL0     H30888   9.082   8.038   4.541  0.8363 -0.4483  0.3398
  970MOL0     H30889   9.077   8.196   4.344  1.3064 -0.9353  1.5234
  970MOL0     H30890   9.097   8.051   4.240 -0.7555 -0.2127 -0.3451
  970MOL0     H30891   8.880   7.968   4.301 -2.9293  0.9109 -0.7994
  970MOL0     H30892   8.865   8.102   4.417  0.5375 -1.3206  0.1422
  970MOL0     H30893   8.743   8.196   4.262  1.4345 -0.1529  1.0467
  970MOL0     H30894   8.902   8.260   4.215 -0.5636  1.1241  0.9632
  970MOL0     H30895   8.905   8.169   4.015  0.6300 -1.6467  0.6858
  970MOL0     H30896   8.871   8.006   4.072  1.2154 -0.1181  0.8794
  970MOL0     H30897   8.632   8.064   4.073 -0.3648  0.0569  0.2090
  970MOL0     H30898   8.680   8.222   3.998  4.2797  0.5346  0.8852
  970MOL0     H30899   8.729   7.937   3.894 -1.9014 -0.8048 -2.4426
  970MOL0     H30900   8.785   8.093   3.819 -1.0776  1.9374  1.2940
  970MOL0     H30901   8.452   7.898   3.889  2.6762 -1.6328 -1.1159
  970MOL0     H30902   8.210   7.993   3.610 -0.0424  0.1454  0.4776
  970MOL0     H30903   8.223   7.884   3.746  1.9648 -0.3364  0.1543
  970MOL0     H30904   8.196   8.183   3.767  1.8006  0.0936  0.7186
  970MOL0     H30905   8.189   8.074   3.914 -1.3279  1.4386  0.9749
  970MOL0     H30906   7.989   8.078   3.704 -2.3753  2.1454  0.7458
  970MOL0     H30907   7.973   8.170   3.858 -1.1207  0.1051 -0.1111
  970MOL0     H30908   7.994   7.957   3.987 -1.1671 -0.5789  0.2829
  970MOL0     H30909   7.987   7.862   3.839  2.1080 -1.0986  3.5158
  970MOL0     H30910   7.905   7.794   4.094  0.7236  0.1241  0.6024
  970MOL0     H30911   7.856   7.784   4.339 -0.0642 -0.8228  2.4440
  970MOL0     H30912   7.705   7.716   4.390  0.1097 -2.9083 -1.1335
  970MOL0     H30913   7.796   7.621   4.287 -0.1613  0.7347 -2.5555
  970MOL0     H30914   7.309   7.453   4.313  0.9144  1.7956 -0.2750
  970MOL0     H30915   7.120   7.406   4.446 -0.3085  0.6007 -0.7218
  970MOL0     H30916   6.922   7.391   4.538  1.0265  0.1400  1.0740
  970MOL0     H30917   6.958   7.541   4.639 -1.7036 -0.0753  2.0980
  970MOL0     H30918   6.772   7.424   4.724 -0.7112  2.4516  1.9413
  970MOL0     H30919   6.738   7.588   4.670 -0.6134  0.3976 -1.2675
  970MOL0     H30920   6.626   7.507   4.458 -5.5828  0.1462  0.4152
  970MOL0     H30921   6.545   7.443   4.594  0.2287  0.2728 -0.0888
  970MOL0     H30922   6.573   7.274   4.422 -0.6862 -1.3189  1.2612
  970MOL0     H30923   6.751   7.276   4.448  0.0594  1.8482  0.4429
  970MOL0     H30924   6.533   7.195   4.642  0.3996  0.6373 -2.4615
  970MOL0     H30925   6.715   7.198   4.674  0.4546  2.0556  1.1288
  970MOL0     H30926   6.562   7.066   4.450 -0.3234  1.4223  0.1742
  970MOL0     H30927   6.735   7.043   4.492  0.2459  0.8383  0.0278
  970MOL0     H30928   6.486   6.943   4.632 -0.2160 -0.8040 -2.9702
  970MOL0     H30929   6.635   6.949   4.720  1.7086  0.0700 -0.0174
  970MOL0     H30930   6.619   6.730   4.659 -0.5127 -0.5289 -0.8603
  970MOL0     H30931   6.709   6.790   4.512  0.0214  0.2952 -0.4647
  970MOL0     H30932   6.942   7.781   4.303  1.2048  1.4968 -0.5556
  970MOL0     H30933   7.161   7.841   4.216 -1.6760  2.9836  4.3044
  970MOL0     H30934   7.413   7.855   4.032 -0.4904 -2.0955  1.0974
  970MOL0     H30935   7.576   7.925   3.851 -2.1016  0.7054 -0.1644
  970MOL0     H30936   9.534   8.096   4.403  3.2818 -1.2475 -1.1524
  970MOL0     H30937   9.736   8.153   4.479 -0.6663  2.3785  0.9810
  970MOL0     H30938  10.183   8.033   4.461 -4.6213 -1.8944  2.0905
  970MOL0     H30939  10.427   8.089   4.517 -0.5076  0.6766 -0.4754
  970MOL0     H30940  10.665   8.222   4.847  1.1697  2.0055  5.6297
  970MOL0     H30941  10.502   8.249   4.896  2.2932  1.9907 -0.6835
  970MOL0     H30942  10.664   7.985   4.908 -1.8190  0.6149 -0.2598
  970MOL0     H30943  10.492   8.006   4.959  0.1347 -0.8809  0.7840
  970MOL0     H30944  10.574   8.165   5.145  0.8598 -0.0444 -0.2026
  970MOL0     H30945  10.734   8.134   5.085 -0.1209  0.9442  0.5172
  970MOL0     H30946  10.551   7.920   5.189  0.8072 -0.3942  0.1762
  970MOL0     H30947  10.657   8.003   5.296 -0.9438 -1.1003  0.0593
  970MOL0     H30948  10.963   7.781   5.096  0.9075  0.9809 -0.8754
  970MOL0     H30949  10.321   8.155   4.919  1.9413  0.6835  0.2899
  970MOL0     H30950  10.087   8.099   4.863  0.1276 -1.0026 -0.2284
  971MOL0     O30951   2.055  11.198  11.333  0.1955  0.4038  0.2679
  971MOL0     C30952   2.057  11.261  11.231 -0.3434 -0.0431 -0.3777
  971MOL0     O30953   1.959  11.275  11.139  0.1570  1.2992  0.2907
  971MOL0     C30954   1.830  11.241  11.167  0.0579  0.2009 -0.1956
  971MOL0     C30955   1.752  11.213  11.054 -0.4663 -0.4864 -0.5148
  971MOL0     C30956   1.620  11.177  11.078 -0.8607 -0.3157  0.1477
  971MOL0     C30957   1.556  11.182  11.203 -0.5661  0.0759  0.2075
  971MOL0     O30958   1.427  11.149  11.206  0.1979 -0.0771 -0.4059
  971MOL0     C30959   1.364  11.148  11.330 -0.1345 -0.3150 -0.4191
  971MOL0     C30960   1.242  11.054  11.330  0.6317 -0.1013 -0.7620
  971MOL0     C30961   1.112  11.120  11.285  0.3800  0.1330  0.3570
  971MOL0     C30962   1.121  11.216  11.168  0.3905 -0.1653  0.2638
  971MOL0     C30963   0.991  11.292  11.168 -0.6502  0.0667 -0.9458
  971MOL0     C30964   1.002  11.378  11.040  0.3913 -0.8009  0.1660
  971MOL0     C30965   0.883  11.468  11.000  0.5539  0.2115  0.3213
  971MOL0     C30966   0.778  11.362  10.965  0.6844  0.6062 -0.0313
  971MOL0     N30967   0.648  11.426  10.928  0.3963 -0.2009 -0.6921
  971MOL0     C30968   0.570  11.503  11.007 -0.2222  0.5730  0.6687
  971MOL0     C30969   0.482  11.562  10.921  0.2902 -0.2258  0.1334
  971MOL0     C30970   0.373  11.652  10.969 -0.3957  0.7739  0.1412
  971MOL0     C30971   0.234  11.592  10.923  0.0347  0.1859 -0.2877
  971MOL0     C30972   0.209  11.586  10.773  0.4805  0.2396 -0.2374
  971MOL0     C30973   0.236  11.717  10.698  0.1597  0.3484 -0.0407
  971MOL0     O30974   0.164  11.824  10.761  0.0908 -0.5672 -0.6234
  971MOL0     C30975   0.032  11.839  10.751 -0.7187  0.3802  0.6961
  971MOL0     C30976  -0.010  11.941  10.828  0.2895 -0.0325 -0.1544
  971MOL0     C30977  -0.144  11.986  10.828 -0.1043 -0.1498 -0.8481
  971MOL0     C30978  -0.185  12.100  10.917 -0.0694  0.9170  0.6177
  971MOL0     C30979  -0.229  11.918  10.741  0.1434 -0.3822 -0.2225
  971MOL0     C30980  -0.372  11.952  10.720  0.8680  0.4077 -0.1495
  971MOL0     O30981  -0.448  11.880  10.633 -0.4982  1.3991  1.2345
  971MOL0     C30982  -0.592  11.894  10.641 -0.1003  0.5998 -0.3118
  971MOL0     C30983  -0.670  11.818  10.731  0.0976  0.1119  0.2236
  971MOL0     C30984  -0.809  11.827  10.728  0.1878  0.0633 -0.1590
  971MOL0     C30985  -0.876  11.917  10.645 -0.3016  0.1679 -0.7770
  971MOL0     O30986  -1.006  11.955  10.644 -0.0283  0.9429  0.0225
  971MOL0     C30987  -1.095  11.870  10.722  0.3965 -0.2808  0.2583
  971MOL0     C30988  -1.238  11.931  10.728 -0.1293 -0.1933 -0.0430
  971MOL0     C30989  -1.247  12.086  10.741 -0.3031 -0.9851  0.0135
  971MOL0     C30990  -1.393  12.125  10.708 -0.3374 -0.3031  0.2016
  971MOL0     C30991  -1.421  12.274  10.727 -0.0009  0.2731 -0.5409
  971MOL0     C30992  -1.451  12.297  10.875  0.0327 -0.3628  0.7668
  971MOL0     C30993  -1.461  12.458  10.916  0.3430  0.1341  0.1543
  971MOL0     C30994  -1.576  12.533  10.855  0.2380  0.1337  0.2783
  971MOL0    Cl30995  -1.721  12.432  10.839  0.0763  0.6119  0.2972
  971MOL0     C30996  -0.801  11.985  10.556 -0.3087  0.1509  0.5149
  971MOL0     C30997  -0.664  11.976  10.554  0.2865 -0.8647 -0.3902
  971MOL0     O30998  -0.421  12.032  10.795  0.3586  1.0398  0.2851
  971MOL0     C30999  -0.184  11.816  10.647 -0.1902 -0.2473 -1.1358
  971MOL0     C31000  -0.057  11.766  10.660 -0.2101 -0.1502  0.2270
  971MOL0     N31001   0.522  11.532  10.791 -0.0614 -0.3526 -0.0510
  971MOL0     N31002   0.619  11.453  10.799  0.2677  0.6574 -0.3026
  971MOL0     C31003   1.634  11.214  11.314 -0.3911 -0.1766 -0.6095
  971MOL0     C31004   1.773  11.227  11.299 -0.0945 -0.8941  0.6117
  971MOL0     C31005   2.188  11.326  11.195 -0.0165 -0.2679 -0.3294
  971MOL0     C31006   2.208  11.381  11.069 -0.8144  0.1357  1.3880
  971MOL0     C31007   2.329  11.437  11.031  0.1544  0.4745  0.0464
  971MOL0     C31008   2.437  11.451  11.123  0.6762 -0.3984 -0.2457
  971MOL0     O31009   2.560  11.496  11.071  0.3564  0.2486  0.1024
  971MOL0     C31010   2.613  11.443  10.947  0.2576  0.6117  0.3296
  971MOL0     C31011   2.615  11.558  10.851  0.2089  0.7035 -0.2350
  971MOL0     C31012   2.725  11.664  10.885  0.6676 -0.8869 -1.0620
  971MOL0     C31013   2.748  11.757  10.765 -0.5516 -0.2571 -0.1958
  971MOL0     C31014   2.811  11.674  10.662  0.2241  0.9637 -0.6667
  971MOL0     C31015   2.878  11.619  10.585  0.8065  0.7507 -0.8990
  971MOL0     C31016   2.412  11.405  11.258 -0.0529 -0.2130  0.6133
  971MOL0     C31017   2.300  11.325  11.288  0.5094 -0.3956  0.2718
  971MOL0     H31018   1.806  11.197  10.961  0.4983  1.3512 -0.3330
  971MOL0     H31019   1.551  11.151  10.998 -0.2013 -1.1681 -0.1548
  971MOL0     H31020   1.427  11.123  11.416  0.3975  1.8991 -0.0840
  971MOL0     H31021   1.332  11.250  11.356  0.7901 -0.5631  1.9774
  971MOL0     H31022   1.260  10.956  11.286 -0.6418 -1.0134  0.6675
  971MOL0     H31023   1.235  11.022  11.434  2.6734 -3.4930 -1.5280
  971MOL0     H31024   1.038  11.042  11.266 -1.0524  1.1837  1.3914
  971MOL0     H31025   1.079  11.178  11.372 -2.4306 -0.6265 -0.0939
  971MOL0     H31026   1.200  11.292  11.170 -1.5248  1.9122  1.6424
  971MOL0     H31027   1.127  11.149  11.081 -0.6218 -0.3689  0.3474
  971MOL0     H31028   0.902  11.229  11.172  0.4037 -1.3863  0.3169
  971MOL0     H31029   0.994  11.352  11.259  4.4476 -1.5333  0.2319
  971MOL0     H31030   1.085  11.448  11.055  0.9708 -1.3322 -0.5160
  971MOL0     H31031   1.010  11.315  10.951 -2.3135  1.1276 -1.5708
  971MOL0     H31032   0.844  11.524  11.085  1.3436 -1.3443  1.7865
  971MOL0     H31033   0.905  11.524  10.909  0.5042  1.8493  1.2865
  971MOL0     H31034   0.761  11.287  11.044 -2.0674 -1.7348 -2.5769
  971MOL0     H31035   0.820  11.304  10.882 -1.5245  1.1723 -1.6323
  971MOL0     H31036   0.578  11.514  11.115 -0.8846  0.7796  0.7022
  971MOL0     H31037   0.378  11.647  11.078  1.3645 -1.3714  0.0361
  971MOL0     H31038   0.397  11.755  10.942  3.7820  0.6494  2.4864
  971MOL0     H31039   0.155  11.655  10.965 -0.6838 -1.1981  0.5086
  971MOL0     H31040   0.213  11.497  10.974  0.7981  0.6791  0.9946
  971MOL0     H31041   0.103  11.560  10.770  0.4255  0.3024  0.8385
  971MOL0     H31042   0.256  11.497  10.729 -0.0673  0.0647 -0.4828
  971MOL0     H31043   0.204  11.714  10.593 -2.2120  1.1764  0.6016
  971MOL0     H31044   0.342  11.743  10.703  0.0787  1.2255 -2.1112
  971MOL0     H31045   0.061  12.000  10.885  0.9398 -0.1855 -0.7885
  971MOL0     H31046  -0.250  12.067  10.999 -0.2311  2.1580  1.0154
  971MOL0     H31047  -0.102  12.140  10.976  0.4413 -2.7851  2.7470
  971MOL0     H31048  -0.243  12.178  10.867  0.1873  0.2759 -0.7256
  971MOL0     H31049  -0.619  11.748  10.796  2.1010  1.4192  0.1667
  971MOL0     H31050  -0.856  11.776  10.812  0.9211 -0.1900  0.0996
  971MOL0     H31051  -1.110  11.775  10.669  1.3240 -0.1260 -0.3023
  971MOL0     H31052  -1.066  11.851  10.826  0.0772 -2.1643  0.0402
  971MOL0     H31053  -1.288  11.906  10.634  1.8420 -1.7032 -0.7497
  971MOL0     H31054  -1.276  11.870  10.810  4.2520 -2.6932  0.4223
  971MOL0     H31055  -1.182  12.137  10.669 -0.7824  0.7057  0.7490
  971MOL0     H31056  -1.215  12.119  10.840  0.8526 -0.3575 -0.5341
  971MOL0     H31057  -1.407  12.103  10.602  1.0192  0.2221 -0.1118
  971MOL0     H31058  -1.465  12.063  10.761  0.7464 -3.7040 -1.9518
  971MOL0     H31059  -1.511  12.305  10.672 -0.7697 -0.3271  0.3368
  971MOL0     H31060  -1.334  12.339  10.711 -1.0983  1.9476 -0.0144
  971MOL0     H31061  -1.543  12.248  10.908 -1.2935  0.7389 -1.1285
  971MOL0     H31062  -1.367  12.256  10.932 -0.4993 -0.1373  1.7409
  971MOL0     H31063  -1.372  12.514  10.886 -0.6562  1.6520 -0.0834
  971MOL0     H31064  -1.454  12.458  11.026  1.5719 -1.7587  0.1151
  971MOL0     H31065  -1.532  12.553  10.757 -2.6484  2.1969 -0.7304
  971MOL0     H31066  -1.603  12.621  10.914  0.8491  1.1817 -0.9687
  971MOL0     H31067  -0.855  12.044  10.482 -1.1000 -3.0386 -1.6701
  971MOL0     H31068  -0.592  12.028  10.492  1.8526 -0.2457  1.7938
  971MOL0     H31069  -0.245  11.760  10.577  0.2776  0.2751 -1.9786
  971MOL0     H31070  -0.026  11.677  10.605 -0.5529 -0.7296  0.9518
  971MOL0     H31071   1.593  11.218  11.414 -1.6819  1.4592 -1.1501
  971MOL0     H31072   1.831  11.224  11.390 -0.3789 -2.8599  0.7680
  971MOL0     H31073   2.128  11.393  10.996  2.0062 -0.5966 -2.0904
  971MOL0     H31074   2.329  11.465  10.926 -0.7611  1.9458  0.4105
  971MOL0     H31075   2.713  11.400  10.952  1.2551  1.4516 -5.4698
  971MOL0     H31076   2.556  11.355  10.914  1.1108  0.3213 -0.4174
  971MOL0     H31077   2.519  11.611  10.848  0.5072  1.2450 -0.2940
  971MOL0     H31078   2.640  11.515  10.754  2.7905 -1.1763  1.1360
  971MOL0     H31079   2.820  11.611  10.898  2.5201  2.1549 -1.2855
  971MOL0     H31080   2.710  11.716  10.980  1.0538 -1.3283 -0.7526
  971MOL0     H31081   2.824  11.831  10.790  3.0474 -3.4388 -0.6436
  971MOL0     H31082   2.657  11.806  10.728 -0.7390 -1.4142 -1.3689
  971MOL0     H31083   2.934  11.565  10.511 -0.3108  2.2230 -2.9351
  971MOL0     H31084   2.484  11.430  11.335  1.1976  1.2508 -0.9501
  971MOL0     H31085   2.301  11.278  11.386 -0.1804  0.9328  0.9437
  972MOL0     O31086   9.284   8.870  11.326 -0.0050  0.1300  0.4715
  972MOL0     C31087   9.331   8.915  11.221 -0.7541  0.0985  0.3319
  972MOL0     O31088   9.264   9.015  11.153  0.2829 -0.0542  1.4509
  972MOL0     C31089   9.138   9.045  11.188  0.7950 -0.4745 -0.0447
  972MOL0     C31090   9.034   8.960  11.151 -0.2056 -0.1253 -0.0660
  972MOL0     C31091   8.904   9.002  11.200  0.3626  1.0340  0.2904
  972MOL0     C31092   8.881   9.119  11.266 -0.7228 -0.3593  0.1107
  972MOL0     O31093   8.758   9.166  11.290 -0.3958 -0.1191  0.0442
  972MOL0     C31094   8.643   9.089  11.266 -0.1484  0.5670 -0.5004
  972MOL0     C31095   8.515   9.169  11.294  0.3174  0.0165  0.3338
  972MOL0     C31096   8.381   9.096  11.272 -0.1429  0.2170  0.6280
  972MOL0     C31097   8.254   9.155  11.345 -0.2498 -0.2747 -0.8042
  972MOL0     C31098   8.133   9.088  11.291 -0.1136 -0.4126  0.1069
  972MOL0     C31099   8.015   9.123  11.385  0.1838 -0.0381 -0.2179
  972MOL0     C31100   7.881   9.108  11.326 -0.4527 -0.2565  0.1102
  972MOL0     C31101   7.762   9.148  11.423 -0.2565  0.8846 -0.0066
  972MOL0     N31102   7.632   9.127  11.360  0.1153 -0.2052 -0.2356
  972MOL0     C31103   7.613   9.114  11.221  1.1040  0.7549 -0.3049
  972MOL0     C31104   7.490   9.057  11.208 -0.3646  0.2891 -0.7450
  972MOL0     C31105   7.423   8.996  11.087  0.3102  0.1593  0.5879
  972MOL0     C31106   7.284   8.933  11.127 -0.2529 -0.7443  0.1453
  972MOL0     C31107   7.212   8.878  11.013  0.6720 -0.0478 -0.0314
  972MOL0     C31108   7.069   8.834  11.048 -0.0085  0.0901 -0.0684
  972MOL0     O31109   7.017   8.760  10.933 -0.2623 -0.2156 -0.0353
  972MOL0     C31110   6.884   8.739  10.931  0.3974  0.6655  0.0309
  972MOL0     C31111   6.838   8.643  10.837  0.0318  0.3666  0.5888
  972MOL0     C31112   6.702   8.625  10.812  0.2773  0.0990  0.2155
  972MOL0     C31113   6.656   8.529  10.699  0.1390  0.6832 -0.0984
  972MOL0     C31114   6.602   8.684  10.900  0.7586  0.1304  0.1762
  972MOL0     C31115   6.451   8.651  10.902  1.1244  1.3559 -0.3554
  972MOL0     O31116   6.416   8.531  10.847 -0.1614  0.0426 -0.0347
  972MOL0     C31117   6.285   8.488  10.854  0.3929  0.3030 -0.2218
  972MOL0     C31118   6.236   8.438  10.978 -0.0683 -0.2818  0.4571
  972MOL0     C31119   6.100   8.407  10.997 -0.4515  0.1542  0.7273
  972MOL0     C31120   6.015   8.410  10.888  0.5558  0.9591  0.4997
  972MOL0     O31121   5.879   8.380  10.908 -0.0244 -0.1850 -0.0617
  972MOL0     C31122   5.802   8.319  10.799 -0.6699 -0.4914  0.0076
  972MOL0     C31123   5.661   8.289  10.842  0.2079 -0.4491 -0.2608
  972MOL0     C31124   5.571   8.405  10.878 -0.4676  0.1732 -1.1600
  972MOL0     C31125   5.543   8.499  10.758 -0.6951  0.1854 -0.3628
  972MOL0     C31126   5.458   8.610  10.806  1.1588 -0.6738  0.0624
  972MOL0     C31127   5.407   8.711  10.700 -0.3449  0.2516  0.1493
  972MOL0     C31128   5.528   8.792  10.636 -0.1700 -0.2166  0.6791
  972MOL0     C31129   5.482   8.909  10.544  0.2577  0.6871 -0.6775
  972MOL0    Cl31130   5.413   8.831  10.403 -0.4512 -0.2563  0.3273
  972MOL0     C31131   6.065   8.456  10.760 -0.0976 -0.0058  0.5204
  972MOL0     C31132   6.199   8.497  10.746 -0.0485 -0.5027  0.5746
  972MOL0     O31133   6.376   8.727  10.960  0.5771 -0.5367  0.4141
  972MOL0     C31134   6.650   8.772  10.997  1.2621 -0.3436  0.1889
  972MOL0     C31135   6.785   8.800  11.012  0.7810  0.5906  0.0354
  972MOL0     N31136   7.432   9.052  11.343  0.0965 -0.1923  0.6324
  972MOL0     N31137   7.521   9.100  11.428  1.1536 -0.3171  0.1296
  972MOL0     C31138   8.988   9.197  11.291 -0.4049  0.0431 -0.1008
  972MOL0     C31139   9.121   9.166  11.259 -0.1791  0.3487 -0.4823
  972MOL0     C31140   9.464   8.886  11.155 -0.5342 -0.1681  0.0290
  972MOL0     C31141   9.547   8.790  11.216  0.5008  0.2635  0.4105
  972MOL0     C31142   9.657   8.738  11.147 -0.0184  0.2663  0.1918
  972MOL0     C31143   9.697   8.787  11.020 -0.7453  0.6992 -0.1413
  972MOL0     O31144   9.813   8.753  10.953  0.9263  0.0955  1.1339
  972MOL0     C31145   9.910   8.670  11.006  0.2766 -0.5150  0.3805
  972MOL0     C31146  10.000   8.631  10.890  0.1158 -0.2070  0.1293
  972MOL0     C31147   9.923   8.546  10.782  0.8843  0.8487  0.0535
  972MOL0     C31148  10.031   8.481  10.688  0.6567  0.3679 -0.3513
  972MOL0     C31149   9.964   8.390  10.598  0.2920  0.5376  0.6690
  972MOL0     C31150   9.909   8.323  10.511 -0.6236  0.4803  0.3098
  972MOL0     C31151   9.615   8.885  10.965 -0.2298 -0.6639  0.0385
  972MOL0     C31152   9.505   8.930  11.034  0.5332 -0.6492 -0.7167
  972MOL0     H31153   9.056   8.866  11.101  0.5381  1.5482 -3.1471
  972MOL0     H31154   8.825   8.930  11.181  1.1834  0.3451 -0.6696
  972MOL0     H31155   8.639   9.067  11.159  1.0686 -0.6263 -0.3296
  972MOL0     H31156   8.644   8.992  11.318  1.3359  1.5481  1.4441
  972MOL0     H31157   8.516   9.200  11.399  0.1765  1.8724 -0.1687
  972MOL0     H31158   8.527   9.269  11.252  0.9596  0.0431  0.5636
  972MOL0     H31159   8.362   9.091  11.165  0.0819 -0.1779  0.6062
  972MOL0     H31160   8.399   8.993  11.303  1.1686  0.5089  0.9095
  972MOL0     H31161   8.256   9.141  11.453 -0.5744  0.4552 -0.6985
  972MOL0     H31162   8.240   9.261  11.325 -2.2483 -1.0043 -4.2046
  972MOL0     H31163   8.106   9.137  11.197  0.3923  2.9202  1.5801
  972MOL0     H31164   8.128   8.979  11.278  3.8391 -0.7666  0.3584
  972MOL0     H31165   8.019   9.062  11.476 -2.2871 -0.1793 -0.1241
  972MOL0     H31166   8.026   9.225  11.420 -1.4187  0.1110 -0.0600
  972MOL0     H31167   7.882   9.164  11.233  1.4315 -1.4451 -0.6400
  972MOL0     H31168   7.882   9.001  11.302  3.4956 -0.3254 -0.1050
  972MOL0     H31169   7.786   9.253  11.445  6.0682  0.5579 -3.1541
  972MOL0     H31170   7.772   9.090  11.515 -1.0303  1.8496  0.7103
  972MOL0     H31171   7.674   9.134  11.134 -0.6403 -1.1881 -2.1007
  972MOL0     H31172   7.402   9.087  11.030  2.3369  0.6247  0.5087
  972MOL0     H31173   7.490   8.927  11.035 -0.5544 -0.3762  0.1642
  972MOL0     H31174   7.238   9.017  11.180 -0.7608 -2.2741  2.2409
  972MOL0     H31175   7.299   8.851  11.197  0.2052  1.1596  2.3977
  972MOL0     H31176   7.264   8.792  10.969  0.9788  1.0002 -1.8197
  972MOL0     H31177   7.206   8.960  10.941 -0.9395  0.8371  1.0510
  972MOL0     H31178   7.013   8.922  11.082  0.1662  0.4514 -0.7051
  972MOL0     H31179   7.071   8.770  11.137 -1.1261  0.8040  0.4991
  972MOL0     H31180   6.910   8.590  10.775 -1.3531 -3.5044  2.0023
  972MOL0     H31181   6.630   8.428  10.735  2.3304 -0.6921 -2.0663
  972MOL0     H31182   6.570   8.567  10.643 -0.1169  1.2666  0.6761
  972MOL0     H31183   6.728   8.509  10.619 -1.0345 -0.0767 -1.0096
  972MOL0     H31184   6.304   8.425  11.062 -1.1408 -1.5448  1.1687
  972MOL0     H31185   6.061   8.379  11.094  0.9689 -1.4874  0.8596
  972MOL0     H31186   5.808   8.391  10.717  0.4792 -2.7585 -2.0054
  972MOL0     H31187   5.853   8.223  10.783  1.6334  0.6670 -0.0293
  972MOL0     H31188   5.616   8.225  10.766 -0.3312  0.3661 -0.6469
  972MOL0     H31189   5.663   8.224  10.930 -0.2716  2.3810  2.0024
  972MOL0     H31190   5.612   8.466  10.958 -0.8855  0.6814 -1.3307
  972MOL0     H31191   5.476   8.364  10.914  1.5538 -1.3211  3.0147
  972MOL0     H31192   5.633   8.546  10.717 -0.8893  3.6917  2.6074
  972MOL0     H31193   5.487   8.445  10.682 -0.4552  0.0906 -0.4718
  972MOL0     H31194   5.498   8.664  10.892 -2.0855 -0.2325  1.4268
  972MOL0     H31195   5.374   8.553  10.846 -0.3054  0.1903 -1.6110
  972MOL0     H31196   5.357   8.645  10.629  1.3802  0.0655 -0.9454
  972MOL0     H31197   5.333   8.777  10.746 -0.4329  1.4119 -1.5864
  972MOL0     H31198   5.603   8.730  10.585 -1.8894 -1.0815 -0.9423
  972MOL0     H31199   5.584   8.833  10.720  0.6698 -0.6995  0.3653
  972MOL0     H31200   5.573   8.959  10.509  0.8422  0.3527  0.3051
  972MOL0     H31201   5.410   8.980  10.586  0.4273  1.2108 -1.2496
  972MOL0     H31202   5.994   8.468  10.679 -0.5237 -2.7335  0.4269
  972MOL0     H31203   6.232   8.533  10.649  3.8157 -3.7038  0.4658
  972MOL0     H31204   6.581   8.828  11.059  0.6817  1.2973 -1.8182
  972MOL0     H31205   6.799   8.879  11.085  0.3898  1.0713 -0.4134
  972MOL0     H31206   8.965   9.287  11.347  0.1796 -0.2173  0.5737
  972MOL0     H31207   9.201   9.236  11.280 -0.4331  0.5250 -0.1117
  972MOL0     H31208   9.523   8.763  11.318 -1.0397 -0.1617 -0.0431
  972MOL0     H31209   9.725   8.681  11.209 -0.6331  2.8611  3.5244
  972MOL0     H31210   9.974   8.715  11.082  2.7083 -1.8344 -0.7408
  972MOL0     H31211   9.866   8.578  11.046  0.4382 -1.7829 -2.1504
  972MOL0     H31212  10.082   8.579  10.939 -1.0913 -2.0967  0.2430
  972MOL0     H31213  10.024   8.725  10.839 -0.5969 -0.1872 -0.1913
  972MOL0     H31214   9.851   8.606  10.726  2.3341  2.0654 -0.5906
  972MOL0     H31215   9.864   8.463  10.821  0.0352 -0.0938 -2.9692
  972MOL0     H31216  10.105   8.423  10.744 -0.2621 -1.1284 -0.6281
  972MOL0     H31217  10.083   8.560  10.634  2.4870 -0.0245  0.7397
  972MOL0     H31218   9.852   8.276  10.433  0.5556  1.1071 -0.9794
  972MOL0     H31219   9.636   8.927  10.867 -0.1909 -0.6304  0.0608
  972MOL0     H31220   9.450   9.010  10.984  0.1253 -0.1397  0.5260
  973MOL0     O31221   7.810   2.635   5.424 -0.5474 -0.0128  0.6345
  973MOL0     C31222   7.797   2.715   5.517 -0.0830  0.4758  0.1252
  973MOL0     O31223   7.717   2.699   5.627 -0.2525 -0.2671 -0.1850
  973MOL0     C31224   7.660   2.572   5.650 -0.8863  0.3744 -0.2822
  973MOL0     C31225   7.536   2.560   5.719 -0.1000  0.2424  0.2676
  973MOL0     C31226   7.482   2.438   5.759  0.2433  0.3331  0.6835
  973MOL0     C31227   7.551   2.321   5.727  0.4273 -0.8416 -0.2462
  973MOL0     O31228   7.492   2.199   5.764  0.1892 -0.2080 -0.4262
  973MOL0     C31229   7.580   2.088   5.782  0.0262  0.0412  0.8033
  973MOL0     C31230   7.524   1.975   5.854  0.6621 -0.5238  0.1431
  973MOL0     C31231   7.389   1.920   5.801  0.2483 -0.5195  0.1309
  973MOL0     C31232   7.376   1.767   5.808 -0.4862 -0.9645 -0.1378
  973MOL0     C31233   7.263   1.706   5.729  0.3617  0.7555  0.2655
  973MOL0     C31234   7.140   1.792   5.738 -1.4103  0.0516  0.1883
  973MOL0     C31235   7.017   1.717   5.689  0.1522 -0.1169  0.4161
  973MOL0     C31236   6.878   1.791   5.726  1.0245 -0.1827 -0.4113
  973MOL0     N31237   6.751   1.749   5.657  0.0384  0.5470  0.6205
  973MOL0     C31238   6.718   1.626   5.610 -0.4988  0.8991  0.3532
  973MOL0     C31239   6.611   1.640   5.528  0.0864  0.2245  0.9034
  973MOL0     C31240   6.551   1.530   5.437  0.1565  0.4470  0.2669
  973MOL0     C31241   6.409   1.493   5.474 -0.0263  0.3081  0.0008
  973MOL0     C31242   6.307   1.604   5.439 -0.5131 -0.5755 -0.1442
  973MOL0     C31243   6.162   1.567   5.485  0.3064  0.5206 -0.0494
  973MOL0     O31244   6.105   1.459   5.401 -0.5896  0.3671  0.7158
  973MOL0     C31245   5.996   1.397   5.460 -0.2584  0.0387  0.5817
  973MOL0     C31246   5.870   1.410   5.410 -0.5289 -0.7209  0.1793
  973MOL0     C31247   5.761   1.351   5.468 -0.2202  0.5821  0.4610
  973MOL0     C31248   5.632   1.384   5.397  0.0909  0.4742  0.1241
  973MOL0     C31249   5.786   1.263   5.578  0.9176 -1.3285  0.0475
  973MOL0     C31250   5.679   1.172   5.640  0.2704 -0.6368 -0.4796
  973MOL0     O31251   5.698   1.113   5.756  0.8279 -0.4663 -0.3487
  973MOL0     C31252   5.589   1.052   5.820  0.2361 -0.2908 -0.8094
  973MOL0     C31253   5.532   1.112   5.928 -0.7547 -0.1319 -0.4267
  973MOL0     C31254   5.423   1.052   5.995 -1.0894 -0.2466 -0.8338
  973MOL0     C31255   5.358   0.936   5.957 -0.0994 -0.3910  0.7915
  973MOL0     O31256   5.238   0.902   6.015  0.1208 -0.0723 -0.2657
  973MOL0     C31257   5.171   0.785   5.971  0.7734 -0.5231 -0.1922
  973MOL0     C31258   5.024   0.813   6.015  0.5718  1.1076  0.3741
  973MOL0     C31259   4.938   0.683   6.033  0.7013  0.1915  0.6525
  973MOL0     C31260   4.793   0.726   6.064 -0.2649 -0.0028  0.1836
  973MOL0     C31261   4.707   0.614   6.124  1.0087 -0.8608 -0.1924
  973MOL0     C31262   4.668   0.514   6.022 -0.2228  1.6070  0.6120
  973MOL0     C31263   4.564   0.582   5.909 -0.5293  1.1995 -0.3117
  973MOL0     C31264   4.444   0.493   5.883 -0.2234 -0.0868 -0.1895
  973MOL0    Cl31265   4.492   0.329   5.828 -0.1627 -0.1476  0.1466
  973MOL0     C31266   5.416   0.868   5.859  0.2183  0.1372 -0.5152
  973MOL0     C31267   5.527   0.929   5.787 -0.0004  0.2011 -0.6996
  973MOL0     O31268   5.580   1.156   5.573  1.0318  0.5991  0.2607
  973MOL0     C31269   5.920   1.245   5.623  0.9727  0.6942  0.0479
  973MOL0     C31270   6.021   1.316   5.569  0.4347  0.1248 -0.9998
  973MOL0     N31271   6.593   1.778   5.519 -0.1595  0.7780 -0.4902
  973MOL0     N31272   6.675   1.843   5.595  0.0419  0.4977  0.2544
  973MOL0     C31273   7.668   2.328   5.652  0.3540 -0.2246  1.2944
  973MOL0     C31274   7.723   2.449   5.616  0.2576 -0.6255 -0.3649
  973MOL0     C31275   7.880   2.837   5.515  1.0820  0.0501 -0.5165
  973MOL0     C31276   7.909   2.910   5.634  0.1914  0.8092 -0.2421
  973MOL0     C31277   8.001   3.009   5.638  0.2665 -0.1703  0.4725
  973MOL0     C31278   8.074   3.036   5.521  0.0589 -0.3134 -0.3284
  973MOL0     O31279   8.170   3.133   5.541  0.4306 -0.2578  0.5558
  973MOL0     C31280   8.248   3.173   5.424  1.1055  0.4950  0.2280
  973MOL0     C31281   8.359   3.277   5.461  0.7648  0.7574 -0.6668
  973MOL0     C31282   8.461   3.214   5.549  0.3096  0.2041  0.1693
  973MOL0     C31283   8.551   3.323   5.618  0.1529 -0.6399  0.2202
  973MOL0     C31284   8.644   3.261   5.712 -0.1349  0.8892 -0.2065
  973MOL0     C31285   8.736   3.211   5.781  0.5223  0.6237  0.8007
  973MOL0     C31286   8.056   2.967   5.401  0.4339  0.0455  0.0048
  973MOL0     C31287   7.954   2.870   5.395 -0.8165  0.3245 -0.0175
  973MOL0     H31288   7.478   2.651   5.720  0.7962  0.8281  0.2652
  973MOL0     H31289   7.385   2.427   5.806 -0.4003  0.6823 -0.5095
  973MOL0     H31290   7.605   2.055   5.681 -2.2229  2.0766 -0.5381
  973MOL0     H31291   7.673   2.122   5.828  0.4966  1.3549 -1.0144
  973MOL0     H31292   7.601   1.898   5.864  2.8214  1.7081  1.9924
  973MOL0     H31293   7.513   2.010   5.957 -0.2303 -2.0483  0.5848
  973MOL0     H31294   7.310   1.973   5.854  0.3244 -2.3561  2.2203
  973MOL0     H31295   7.366   1.949   5.698  0.3633  0.8459  0.4688
  973MOL0     H31296   7.468   1.722   5.769 -0.6542  0.7509 -2.7615
  973MOL0     H31297   7.370   1.725   5.908 -1.1207 -0.1107  0.1949
  973MOL0     H31298   7.288   1.687   5.624  0.0341  1.2248  0.0946
  973MOL0     H31299   7.254   1.611   5.782 -1.7016  1.0343  0.4869
  973MOL0     H31300   7.121   1.820   5.842 -0.4873  1.8409 -0.0826
  973MOL0     H31301   7.151   1.892   5.696 -2.6129  1.4352  2.9105
  973MOL0     H31302   7.016   1.708   5.580 -2.4073  2.4069  0.0918
  973MOL0     H31303   7.028   1.621   5.740 -1.1104 -1.9336 -2.4541
  973MOL0     H31304   6.882   1.899   5.713 -1.7614 -0.2626 -2.9353
  973MOL0     H31305   6.864   1.773   5.833 -3.3497  0.7574 -0.6523
  973MOL0     H31306   6.779   1.537   5.625 -1.0216  0.8237  2.2205
  973MOL0     H31307   6.554   1.562   5.332  2.1386 -0.1093  0.1157
  973MOL0     H31308   6.626   1.451   5.433 -2.7391 -2.4879 -0.6190
  973MOL0     H31309   6.412   1.485   5.583 -0.2057  1.1847  0.0778
  973MOL0     H31310   6.375   1.393   5.445  1.7506 -0.9743  2.0372
  973MOL0     H31311   6.305   1.640   5.336  1.0754  0.0055  0.0017
  973MOL0     H31312   6.345   1.689   5.497  1.5421 -2.4726  1.5022
  973MOL0     H31313   6.102   1.658   5.472  0.0419  0.1250 -1.9268
  973MOL0     H31314   6.145   1.548   5.591 -0.3434 -0.1345 -0.2578
  973MOL0     H31315   5.850   1.477   5.327 -2.2314  2.1461  2.7119
  973MOL0     H31316   5.621   1.308   5.318 -1.0230 -0.1484  0.8570
  973MOL0     H31317   5.547   1.378   5.465  0.5546 -1.3345  0.5949
  973MOL0     H31318   5.629   1.486   5.357  3.4093  0.4088 -0.5285
  973MOL0     H31319   5.573   1.197   5.981  1.2035 -2.9542  2.9822
  973MOL0     H31320   5.389   1.121   6.072 -0.5425  0.0400 -0.8477
  973MOL0     H31321   5.161   0.775   5.862  0.6466  1.4597 -0.3863
  973MOL0     H31322   5.215   0.695   6.015  4.0982  1.5570  1.1139
  973MOL0     H31323   5.028   0.864   6.112 -0.8485 -0.7702  1.4938
  973MOL0     H31324   4.971   0.874   5.941  0.5461  1.3453  0.5860
  973MOL0     H31325   4.973   0.606   6.102 -0.6023 -2.4717 -1.4464
  973MOL0     H31326   4.943   0.629   5.938 -0.0157  1.1622  0.0418
  973MOL0     H31327   4.801   0.806   6.138 -0.8745 -1.1991  1.5927
  973MOL0     H31328   4.734   0.762   5.979 -2.7839 -3.1324  0.4041
  973MOL0     H31329   4.619   0.656   6.172  2.5611  0.9065  1.2676
  973MOL0     H31330   4.754   0.559   6.206  2.8622  0.2330 -0.4530
  973MOL0     H31331   4.756   0.474   5.971 -2.2467  1.7113 -3.4202
  973MOL0     H31332   4.618   0.426   6.064 -0.5847 -0.1216 -2.9583
  973MOL0     H31333   4.616   0.610   5.817  0.7959  0.0575  0.0605
  973MOL0     H31334   4.538   0.679   5.953  0.5067  1.2591  0.1941
  973MOL0     H31335   4.388   0.534   5.799  1.6770  0.6799 -1.1552
  973MOL0     H31336   4.375   0.496   5.968  1.2320  1.8402  1.0133
  973MOL0     H31337   5.382   0.770   5.830  0.0425  0.3040 -0.8800
  973MOL0     H31338   5.574   0.866   5.712  3.6816 -0.2343  1.6861
  973MOL0     H31339   5.933   1.171   5.701 -0.4265  1.5029  1.1072
  973MOL0     H31340   6.126   1.314   5.593 -0.2846 -2.6067  2.9972
  973MOL0     H31341   7.721   2.238   5.624  0.8956  0.8935 -1.6663
  973MOL0     H31342   7.823   2.449   5.573  0.8685 -2.5408  0.8874
  973MOL0     H31343   7.836   2.895   5.713 -0.9433  1.1961 -1.1940
  973MOL0     H31344   8.014   3.061   5.732  0.8417 -0.1489  0.3844
  973MOL0     H31345   8.294   3.089   5.373  1.0732 -0.1271  1.2012
  973MOL0     H31346   8.180   3.222   5.354 -2.0957 -2.7189  0.7752
  973MOL0     H31347   8.305   3.347   5.525  2.6685 -0.4159  2.4805
  973MOL0     H31348   8.400   3.316   5.368  1.2074  0.6348 -0.5241
  973MOL0     H31349   8.519   3.148   5.484 -1.1445  1.0732 -2.1440
  973MOL0     H31350   8.417   3.161   5.634 -1.1355 -0.8168 -1.1550
  973MOL0     H31351   8.484   3.399   5.658  1.6027  1.2285 -0.7492
  973MOL0     H31352   8.606   3.370   5.536 -0.7778  0.6184  0.2912
  973MOL0     H31353   8.822   3.167   5.826 -1.4685 -1.4922  2.8377
  973MOL0     H31354   8.109   2.979   5.307  0.2271  0.6190 -0.0372
  973MOL0     H31355   7.942   2.823   5.299 -1.9649  0.0960  0.2310
  974MOL0     O31356   9.077   5.428  10.269  0.6061 -0.2993  0.3042
  974MOL0     C31357   9.162   5.357  10.319 -0.1893  0.2053  0.2853
  974MOL0     O31358   9.145   5.237  10.383  0.1800 -0.1714  0.3825
  974MOL0     C31359   9.028   5.170  10.371 -1.2102  0.2563  0.5519
  974MOL0     C31360   8.911   5.230  10.417  0.9756 -0.0628  0.8294
  974MOL0     C31361   8.789   5.166  10.424 -0.3086 -0.5032 -0.0647
  974MOL0     C31362   8.771   5.032  10.383  0.1731 -0.4799 -0.0980
  974MOL0     O31363   8.648   4.960  10.386  0.9374  0.6940 -0.1507
  974MOL0     C31364   8.559   5.011  10.494 -0.3344  0.4845 -0.4339
  974MOL0     C31365   8.440   4.916  10.498 -0.7285 -0.8198  0.2192
  974MOL0     C31366   8.327   4.948  10.400 -0.5370  0.5432  0.7913
  974MOL0     C31367   8.269   4.825  10.335 -0.6466  0.2651 -0.9125
  974MOL0     C31368   8.168   4.864  10.230  0.4796 -0.4678  0.0317
  974MOL0     C31369   8.026   4.848  10.278  0.4813  0.1884 -0.3754
  974MOL0     C31370   7.946   4.842  10.147 -0.1790 -0.0107 -0.4064
  974MOL0     C31371   7.788   4.816  10.171 -0.4150  0.5297  0.3922
  974MOL0     N31372   7.728   4.769  10.048 -0.0736 -0.5247 -0.3374
  974MOL0     C31373   7.688   4.852   9.943  0.0094  0.2938  0.5016
  974MOL0     C31374   7.633   4.764   9.860 -0.2555  0.1670  0.3398
  974MOL0     C31375   7.589   4.785   9.722  0.7481 -0.0943 -0.1573
  974MOL0     C31376   7.441   4.825   9.712  0.0615 -0.5898 -0.0455
  974MOL0     C31377   7.389   4.845   9.570  0.2635  0.9910 -0.9534
  974MOL0     C31378   7.246   4.908   9.565 -0.4401  0.8712  0.3785
  974MOL0     O31379   7.231   5.027   9.650 -0.1031 -0.1548 -0.6783
  974MOL0     C31380   7.103   5.075   9.671  0.5344 -0.1257 -0.8251
  974MOL0     C31381   6.992   5.041   9.604 -0.5105 -0.5938 -0.6265
  974MOL0     C31382   6.868   5.101   9.635 -0.4508  0.6920 -0.2510
  974MOL0     C31383   6.752   5.049   9.561 -0.2209  0.3850 -0.6967
  974MOL0     C31384   6.865   5.219   9.720  0.2246 -0.1679  0.1645
  974MOL0     C31385   6.737   5.292   9.746  1.2220 -0.6527  0.5785
  974MOL0     O31386   6.742   5.376   9.855  0.3095  0.7525  1.0047
  974MOL0     C31387   6.631   5.438   9.904  0.2859 -0.8490  0.1332
  974MOL0     C31388   6.658   5.557   9.974  0.4215  0.1404  0.0676
  974MOL0     C31389   6.556   5.642  10.025 -0.6984  0.1804 -0.9522
  974MOL0     C31390   6.420   5.597  10.013  0.1067  0.5937 -0.2622
  974MOL0     O31391   6.302   5.662  10.038 -0.0552  0.8789  0.5316
  974MOL0     C31392   6.318   5.794  10.103  0.1656 -0.2977 -0.0546
  974MOL0     C31393   6.176   5.844  10.128  0.7559 -0.0903  0.4155
  974MOL0     C31394   6.084   5.855  10.001  0.1061 -0.6718 -0.0357
  974MOL0     C31395   5.979   5.967  10.032  0.3780  0.9201 -0.2452
  974MOL0     C31396   5.867   6.005   9.930 -0.1567 -0.2132 -1.0760
  974MOL0     C31397   5.748   6.096   9.989 -0.4314  0.7755 -1.6881
  974MOL0     C31398   5.639   6.114   9.891 -0.3078  0.1282  0.0573
  974MOL0     C31399   5.533   6.209   9.938 -0.3597  0.3160  0.2720
  974MOL0    Cl31400   5.589   6.375   9.978  0.1335 -0.1500  0.1765
  974MOL0     C31401   6.399   5.469   9.965  0.1465  0.1631 -0.2205
  974MOL0     C31402   6.498   5.396   9.903  0.9682 -0.4452 -0.3212
  974MOL0     O31403   6.633   5.272   9.676  0.7286 -0.0207 -0.2298
  974MOL0     C31404   6.983   5.255   9.780 -0.0915 -0.0057 -0.5065
  974MOL0     C31405   7.097   5.188   9.753  0.2335 -0.5330  0.3945
  974MOL0     N31406   7.633   4.636   9.916  1.2219  0.3885  0.3289
  974MOL0     N31407   7.696   4.637  10.026  0.3355  0.0041 -0.3709
  974MOL0     C31408   8.888   4.975  10.324 -0.4817 -0.9556  0.0755
  974MOL0     C31409   9.019   5.038  10.322  0.0487 -0.0139 -0.3073
  974MOL0     C31410   9.301   5.404  10.316  0.0833  0.0979 -0.1454
  974MOL0     C31411   9.334   5.526  10.259  0.1237  0.8010  0.2246
  974MOL0     C31412   9.467   5.571  10.234  0.3588 -0.1517 -0.1338
  974MOL0     C31413   9.571   5.480  10.265 -0.0339 -0.6584 -0.9954
  974MOL0     O31414   9.696   5.520  10.241 -0.0521 -0.1777 -0.4173
  974MOL0     C31415   9.797   5.427  10.270 -0.4280  0.0163 -0.6207
  974MOL0     C31416   9.924   5.513  10.257  0.2999 -0.3063  0.7619
  974MOL0     C31417  10.049   5.434  10.245 -0.4057 -0.7188  0.3262
  974MOL0     C31418  10.167   5.519  10.264 -0.4529  0.1536  0.3087
  974MOL0     C31419  10.284   5.439  10.233  0.2732 -0.3130  0.1013
  974MOL0     C31420  10.382   5.371  10.200 -0.2352  0.4652 -0.6889
  974MOL0     C31421   9.536   5.358  10.332  0.7586  0.6459 -0.2007
  974MOL0     C31422   9.404   5.329  10.364  0.1414  0.8156  0.4542
  974MOL0     H31423   8.927   5.324  10.469  1.4893  0.1806  0.2501
  974MOL0     H31424   8.707   5.230  10.456 -0.7101 -0.4053 -1.2275
  974MOL0     H31425   8.614   5.021  10.587 -1.9335  0.9419  0.5015
  974MOL0     H31426   8.526   5.113  10.474 -1.1160 -0.1424 -2.7757
  974MOL0     H31427   8.479   4.814  10.486  2.0736 -0.3032  3.4038
  974MOL0     H31428   8.406   4.922  10.601  0.0321  0.4091  0.4131
  974MOL0     H31429   8.249   5.007  10.449 -1.6077  0.2793 -0.5368
  974MOL0     H31430   8.363   5.010  10.317  3.5829 -0.1635  1.8092
  974MOL0     H31431   8.350   4.766  10.290 -1.9181 -1.2328 -1.2952
  974MOL0     H31432   8.224   4.761  10.411  1.5344 -1.0392 -0.6452
  974MOL0     H31433   8.185   4.965  10.191  0.4928  0.6295  2.7195
  974MOL0     H31434   8.190   4.800  10.143 -1.0843 -1.8888  0.6335
  974MOL0     H31435   8.014   4.748  10.322 -1.8564 -0.1277 -1.5368
  974MOL0     H31436   7.996   4.930  10.344 -1.2916 -0.6777 -0.0481
  974MOL0     H31437   7.962   4.935  10.092 -1.2691 -0.6091 -1.8169
  974MOL0     H31438   7.995   4.765  10.086 -0.3947 -2.3710  2.2240
  974MOL0     H31439   7.743   4.911  10.202  0.7094  0.4967  2.2981
  974MOL0     H31440   7.770   4.746  10.253 -1.8808 -0.6112 -0.8361
  974MOL0     H31441   7.698   4.960   9.942 -1.8668  0.5070  0.8233
  974MOL0     H31442   7.658   4.859   9.679  0.8343  0.5960  1.1239
  974MOL0     H31443   7.599   4.688   9.671  0.1175  0.4705 -1.3816
  974MOL0     H31444   7.437   4.923   9.760 -1.6021  0.1511 -1.5825
  974MOL0     H31445   7.378   4.749   9.759 -1.0259  0.1109 -0.3416
  974MOL0     H31446   7.395   4.746   9.523  0.4157 -0.6666  2.2680
  974MOL0     H31447   7.448   4.925   9.527  1.1629  0.6260 -0.4226
  974MOL0     H31448   7.176   4.837   9.609 -3.7454  0.7369 -4.4504
  974MOL0     H31449   7.217   4.929   9.462  0.6928 -1.5880 -0.5117
  974MOL0     H31450   6.984   4.957   9.535 -1.2427 -3.9743  3.2301
  974MOL0     H31451   6.660   5.033   9.618 -0.1116  0.1680 -0.5816
  974MOL0     H31452   6.730   5.126   9.486  0.3054 -1.6904 -3.0927
  974MOL0     H31453   6.776   4.957   9.507 -1.5082  1.2490 -2.8844
  974MOL0     H31454   6.761   5.588   9.989 -0.3246  2.9996 -0.0142
  974MOL0     H31455   6.559   5.744  10.061 -4.2822  0.5618 -1.3638
  974MOL0     H31456   6.382   5.770  10.188  0.4494  1.4185  0.2622
  974MOL0     H31457   6.369   5.877  10.053 -2.7760  2.8169  1.7380
  974MOL0     H31458   6.134   5.777  10.204  1.3388 -2.5880 -1.3373
  974MOL0     H31459   6.186   5.944  10.170 -0.9310  0.9573 -1.4682
  974MOL0     H31460   6.036   5.762   9.969  1.3875 -0.9110 -1.4048
  974MOL0     H31461   6.143   5.886   9.914  2.1851 -0.8643  1.2322
  974MOL0     H31462   5.923   5.926  10.116 -0.5430 -0.1087 -1.3269
  974MOL0     H31463   6.036   6.054  10.065  5.3576 -1.2954 -1.9879
  974MOL0     H31464   5.823   5.910   9.899 -1.6304 -0.1294  0.6576
  974MOL0     H31465   5.911   6.054   9.842 -0.5838 -0.7394 -1.5906
  974MOL0     H31466   5.702   6.037  10.068  1.4736  0.2765 -0.8989
  974MOL0     H31467   5.776   6.197  10.020  1.6084  0.9409 -3.8187
  974MOL0     H31468   5.587   6.021   9.866  0.8617 -0.3014 -0.8751
  974MOL0     H31469   5.684   6.141   9.795 -2.1416  0.2315 -0.8149
  974MOL0     H31470   5.492   6.164  10.029 -2.6677  2.6633  0.5376
  974MOL0     H31471   5.455   6.215   9.861 -0.8599  0.0794  0.7549
  974MOL0     H31472   6.298   5.430   9.967  0.9407 -2.0043  0.2536
  974MOL0     H31473   6.458   5.312   9.848 -0.2236  1.0616 -1.8193
  974MOL0     H31474   6.984   5.353   9.827 -2.0069  1.8277 -3.9001
  974MOL0     H31475   7.188   5.219   9.802  0.3494 -2.5042  1.5704
  974MOL0     H31476   8.887   4.881  10.270  1.1738 -0.1308 -1.5259
  974MOL0     H31477   9.102   4.975  10.291  0.5953 -0.2602  1.5775
  974MOL0     H31478   9.257   5.586  10.212  1.6073 -0.4812 -4.3469
  974MOL0     H31479   9.485   5.670  10.192  1.0026  0.2190  0.9853
  974MOL0     H31480   9.800   5.383  10.370  0.0054  0.5562 -0.3938
  974MOL0     H31481   9.783   5.339  10.207 -0.2315 -0.0735 -0.5414
  974MOL0     H31482   9.933   5.579  10.344  1.2511 -0.2210  0.5989
  974MOL0     H31483   9.912   5.572  10.165  0.3014  0.0476  0.9840
  974MOL0     H31484  10.039   5.375  10.153 -0.0288 -4.0402  2.2654
  974MOL0     H31485  10.048   5.365  10.330 -0.0529  1.9844  2.6693
  974MOL0     H31486  10.170   5.540  10.371 -1.7008  0.9175  0.2112
  974MOL0     H31487  10.171   5.605  10.197 -1.7023  1.2696  1.6042
  974MOL0     H31488  10.479   5.335  10.170 -0.2130 -2.4554  2.2672
  974MOL0     H31489   9.606   5.279  10.358  0.4706  0.6481  0.5875
  974MOL0     H31490   9.379   5.233  10.408  2.4476 -0.2756 -0.3984
  975MOL0     O31491   5.419   1.160   8.022  0.1759 -0.0411  0.4518
  975MOL0     C31492   5.482   1.264   7.989  0.0495  0.5590  0.3658
  975MOL0     O31493   5.427   1.386   7.990 -0.4105  0.4072  0.2163
  975MOL0     C31494   5.298   1.427   8.029 -0.5523  0.1367 -0.1290
  975MOL0     C31495   5.277   1.565   8.051  0.2581  0.2324 -0.9866
  975MOL0     C31496   5.164   1.610   8.118 -0.2557 -0.0457 -0.0564
  975MOL0     C31497   5.052   1.523   8.127 -0.1229  0.1081 -0.7202
  975MOL0     O31498   4.930   1.570   8.169 -0.7909 -0.4407  0.1544
  975MOL0     C31499   4.859   1.644   8.067 -0.4061 -0.0707 -0.2598
  975MOL0     C31500   4.714   1.643   8.107 -0.4538  0.1268  0.0779
  975MOL0     C31501   4.666   1.495   8.093 -0.0557  0.5603 -0.1083
  975MOL0     C31502   4.533   1.476   8.012  0.1892  0.2926 -0.0475
  975MOL0     C31503   4.447   1.357   8.074 -0.5532  0.5920  0.0138
  975MOL0     C31504   4.327   1.346   7.993 -0.2489 -0.7142  0.8996
  975MOL0     C31505   4.220   1.257   8.051 -0.2039 -0.2116 -0.5949
  975MOL0     C31506   4.105   1.251   7.949  0.2399  0.2274  0.7521
  975MOL0     N31507   4.130   1.190   7.823 -0.0480 -0.6853  0.1527
  975MOL0     C31508   4.070   1.239   7.708  0.3213  0.6435  1.2511
  975MOL0     C31509   4.092   1.140   7.610  0.4487  0.3160 -0.1361
  975MOL0     C31510   4.046   1.135   7.471  0.0127  0.9192  0.3078
  975MOL0     C31511   4.025   0.988   7.431 -0.5117 -0.1800 -0.5452
  975MOL0     C31512   3.916   0.914   7.497  0.1925  0.4021  0.3297
  975MOL0     C31513   3.927   0.763   7.489  0.5286  0.9134 -0.9936
  975MOL0     O31514   3.829   0.702   7.571  0.1726  0.4637  0.0742
  975MOL0     C31515   3.704   0.682   7.520 -0.0547 -0.5137 -0.1261
  975MOL0     C31516   3.617   0.622   7.611  0.2352 -0.2777  0.1286
  975MOL0     C31517   3.482   0.582   7.575  0.5485 -0.2349 -0.0155
  975MOL0     C31518   3.395   0.528   7.690  0.2193  0.3115 -0.0978
  975MOL0     C31519   3.435   0.601   7.442  0.1588  0.2595 -0.6835
  975MOL0     C31520   3.302   0.568   7.398  0.2398 -1.0621  0.3027
  975MOL0     O31521   3.236   0.468   7.467  0.1237 -0.3342 -0.2545
  975MOL0     C31522   3.103   0.448   7.450  0.8586 -0.6586 -0.3397
  975MOL0     C31523   3.050   0.321   7.418 -0.8176  0.6605  0.4767
  975MOL0     C31524   2.913   0.299   7.404 -0.8344  0.2711  0.2008
  975MOL0     C31525   2.821   0.403   7.419  0.4830  0.7117 -0.1731
  975MOL0     O31526   2.681   0.412   7.406 -0.1919  0.7296 -0.8657
  975MOL0     C31527   2.623   0.300   7.334 -0.2921 -0.2874  0.5527
  975MOL0     C31528   2.486   0.346   7.307 -0.1733  0.1364  0.5578
  975MOL0     C31529   2.406   0.274   7.208  0.2080  1.0409  1.1820
  975MOL0     C31530   2.254   0.303   7.218 -0.2919  0.8624 -0.0652
  975MOL0     C31531   2.172   0.208   7.135  0.5363  0.0001 -1.0217
  975MOL0     C31532   2.175   0.244   6.993  0.6157  0.2908  0.4298
  975MOL0     C31533   2.060   0.171   6.911 -0.8016 -0.6297 -0.1410
  975MOL0     C31534   2.058   0.013   6.923  0.2804  0.0423 -1.0367
  975MOL0    Cl31535   1.916  -0.051   6.847  0.3001 -0.0205  0.2134
  975MOL0     C31536   2.875   0.525   7.467 -1.2965  0.9845  1.1204
  975MOL0     C31537   3.009   0.548   7.474 -0.5787  0.8589  0.7038
  975MOL0     O31538   3.262   0.627   7.299 -0.1913  0.0894 -0.1751
  975MOL0     C31539   3.520   0.671   7.354 -0.0455 -0.9585 -0.7378
  975MOL0     C31540   3.652   0.710   7.391  0.4940 -0.8804  0.2771
  975MOL0     N31541   4.185   1.053   7.668 -0.6791 -0.0204  0.0592
  975MOL0     N31542   4.199   1.086   7.793 -0.0915  0.2515  0.2212
  975MOL0     C31543   5.063   1.390   8.088 -0.3526  1.4235 -0.5021
  975MOL0     C31544   5.189   1.344   8.044  0.4855  0.4877 -0.3729
  975MOL0     C31545   5.621   1.237   7.947 -0.0362 -0.0891  0.6822
  975MOL0     C31546   5.683   1.106   7.953 -0.9438  0.1423  0.4760
  975MOL0     C31547   5.819   1.087   7.919  0.9686  0.1242 -0.1259
  975MOL0     C31548   5.895   1.202   7.884  0.0587  0.0078 -0.8026
  975MOL0     O31549   6.022   1.177   7.857  0.2583 -0.0889 -0.1350
  975MOL0     C31550   6.100   1.291   7.807 -0.0021 -0.4847 -1.1828
  975MOL0     C31551   6.241   1.243   7.766 -0.1291 -0.1593 -0.6750
  975MOL0     C31552   6.331   1.364   7.738 -0.6442 -0.2650  0.1701
  975MOL0     C31553   6.481   1.323   7.707 -0.4362 -0.3543  0.3292
  975MOL0     C31554   6.498   1.236   7.592  0.1779 -0.0939  1.1606
  975MOL0     C31555   6.495   1.161   7.496  0.0763 -0.2430  0.2524
  975MOL0     C31556   5.834   1.328   7.891  0.4060  0.2660  0.8138
  975MOL0     C31557   5.700   1.344   7.922 -0.5050 -0.6620 -0.7684
  975MOL0     H31558   5.351   1.645   8.043 -3.2433  3.8378 -0.2382
  975MOL0     H31559   5.154   1.712   8.156 -2.7909 -0.2375 -0.0897
  975MOL0     H31560   4.886   1.750   8.061  2.9238 -0.8818 -1.9297
  975MOL0     H31561   4.873   1.603   7.967  0.6745  0.3534 -0.3021
  975MOL0     H31562   4.697   1.685   8.206  0.6980  0.7105  0.0432
  975MOL0     H31563   4.657   1.703   8.036  0.7457  0.3833 -0.7089
  975MOL0     H31564   4.738   1.422   8.054 -1.0507 -1.1418  1.1578
  975MOL0     H31565   4.659   1.463   8.197  2.0120 -0.7769 -0.3207
  975MOL0     H31566   4.477   1.569   8.008 -0.9062 -0.3319  0.3725
  975MOL0     H31567   4.569   1.460   7.909  2.1973  0.3242  0.6145
  975MOL0     H31568   4.510   1.271   8.051  0.9586  1.1191  1.9640
  975MOL0     H31569   4.430   1.371   8.181 -2.6891  3.1634 -0.5329
  975MOL0     H31570   4.282   1.445   7.994  4.1460  1.5607 -0.0995
  975MOL0     H31571   4.351   1.335   7.886 -0.8024 -1.9675  0.8913
  975MOL0     H31572   4.256   1.157   8.076 -1.0180 -0.6711 -1.2017
  975MOL0     H31573   4.198   1.310   8.144  0.4559 -4.1485  2.0478
  975MOL0     H31574   4.081   1.357   7.935  1.0751  0.0373 -3.0854
  975MOL0     H31575   4.022   1.204   8.001 -1.9781  2.1184 -0.8762
  975MOL0     H31576   4.015   1.327   7.676  1.6043 -0.4150 -5.2737
  975MOL0     H31577   3.943   1.171   7.458 -0.6119 -0.5987  0.8480
  975MOL0     H31578   4.123   1.186   7.412  1.0830 -0.6703  0.2976
  975MOL0     H31579   4.118   0.931   7.429  1.1599  2.2428  1.7135
  975MOL0     H31580   3.998   0.997   7.325 -0.2081  0.9298 -0.5442
  975MOL0     H31581   3.818   0.938   7.455  0.2357  0.0794  0.0430
  975MOL0     H31582   3.903   0.948   7.600 -1.4486 -0.6833  0.5160
  975MOL0     H31583   4.023   0.742   7.538  0.0564  0.4862 -0.2335
  975MOL0     H31584   3.921   0.745   7.381  0.8094  2.7821 -1.3580
  975MOL0     H31585   3.640   0.602   7.715 -1.4989  0.8192  0.7604
  975MOL0     H31586   3.462   0.517   7.776  3.8139 -1.3133 -2.8252
  975MOL0     H31587   3.312   0.591   7.722  0.2829  0.3644 -0.0379
  975MOL0     H31588   3.348   0.430   7.674 -0.6323 -0.2526  4.6036
  975MOL0     H31589   3.106   0.229   7.403 -3.2818 -1.4514  3.1898
  975MOL0     H31590   2.879   0.197   7.390 -1.7527  0.7988 -1.8677
  975MOL0     H31591   2.678   0.282   7.242 -0.2221  0.2943  0.4726
  975MOL0     H31592   2.621   0.205   7.388 -2.4278  0.5127  2.0157
  975MOL0     H31593   2.434   0.359   7.402  0.3261 -0.8775  0.9775
  975MOL0     H31594   2.511   0.444   7.264  1.0790  0.0225  0.9709
  975MOL0     H31595   2.420   0.166   7.216 -1.2002  0.5754 -1.5294
  975MOL0     H31596   2.436   0.301   7.106 -0.5171 -3.1825 -0.3600
  975MOL0     H31597   2.216   0.283   7.319 -1.6014  0.0224 -0.7014
  975MOL0     H31598   2.236   0.411   7.208  3.3204  1.7338  1.0047
  975MOL0     H31599   2.069   0.211   7.170  0.3862 -1.9056 -1.1938
  975MOL0     H31600   2.224   0.112   7.149  2.3269  1.3039  2.7770
  975MOL0     H31601   2.174   0.353   6.991  0.5346  0.3290  1.7435
  975MOL0     H31602   2.274   0.218   6.955  0.5310  0.2977  0.2004
  975MOL0     H31603   2.090   0.197   6.810  0.7384  0.6381  0.6006
  975MOL0     H31604   1.962   0.212   6.936 -1.4953 -0.9763 -2.1537
  975MOL0     H31605   2.051  -0.017   7.028 -0.1307  2.5384 -0.2993
  975MOL0     H31606   2.153  -0.026   6.884  0.6144  0.2097 -0.4168
  975MOL0     H31607   2.816   0.607   7.506 -0.2299  1.8524  0.9544
  975MOL0     H31608   3.052   0.639   7.517  1.0060  1.0142 -1.0702
  975MOL0     H31609   3.490   0.708   7.257  1.4765  0.9430 -0.5453
  975MOL0     H31610   3.726   0.747   7.321  1.0436 -0.5317  1.0330
  975MOL0     H31611   4.975   1.328   8.086  0.1985  0.5382  0.7755
  975MOL0     H31612   5.196   1.237   8.028  0.8661  0.3388  0.6922
  975MOL0     H31613   5.624   1.018   7.977 -4.7385  1.8486 -1.6731
  975MOL0     H31614   5.867   0.990   7.914 -0.9244 -0.8848  0.3795
  975MOL0     H31615   6.052   1.333   7.719 -5.0900  0.1171  1.4912
  975MOL0     H31616   6.106   1.366   7.886  1.7611 -1.3124 -0.4859
  975MOL0     H31617   6.229   1.193   7.670 -1.6106 -0.9846 -0.0958
  975MOL0     H31618   6.289   1.190   7.850  1.1922  1.5640 -0.2956
  975MOL0     H31619   6.330   1.427   7.827  0.6424 -1.1708  0.8558
  975MOL0     H31620   6.292   1.421   7.653  0.6955 -0.2803 -0.4724
  975MOL0     H31621   6.522   1.271   7.794 -0.2037 -1.3920 -0.3732
  975MOL0     H31622   6.529   1.421   7.704  0.1774 -0.6452  0.5402
  975MOL0     H31623   6.495   1.089   7.417  1.6671 -0.2952  0.2582
  975MOL0     H31624   5.877   1.425   7.867 -0.1719  0.4354  0.4335
  975MOL0     H31625   5.647   1.438   7.926  2.1190  0.8751  2.7294
  976MOL0     O31626  10.353   3.865  11.066  0.3688  0.5112 -0.2138
  976MOL0     C31627  10.362   3.857  11.186  0.4067 -0.0184 -0.3257
  976MOL0     O31628  10.265   3.878  11.283  0.6984 -0.5126  0.7672
  976MOL0     C31629  10.133   3.905  11.244  1.0673 -0.5471  0.3403
  976MOL0     C31630  10.029   3.827  11.299 -0.1682 -0.3529  0.0775
  976MOL0     C31631   9.892   3.868  11.281 -0.3219  0.6729  0.9952
  976MOL0     C31632   9.856   3.965  11.192 -0.8527 -0.7363 -0.2005
  976MOL0     O31633   9.722   3.994  11.170 -0.1564  0.6980  0.4846
  976MOL0     C31634   9.685   4.124  11.153 -0.9466  0.1405  0.0345
  976MOL0     C31635   9.535   4.158  11.163 -0.1540 -0.0203 -0.5176
  976MOL0     C31636   9.463   4.104  11.036 -0.0657  1.4270  0.0400
  976MOL0     C31637   9.303   4.115  11.044  0.3201 -0.0740 -0.3449
  976MOL0     C31638   9.253   4.058  10.904 -0.0429  0.4120 -0.1474
  976MOL0     C31639   9.105   4.075  10.879 -0.0084 -0.0969 -0.7110
  976MOL0     C31640   9.063   3.988  10.762 -0.0965  0.3031 -0.7647
  976MOL0     C31641   8.930   3.922  10.779 -0.2643 -0.1811  0.6492
  976MOL0     N31642   8.819   4.011  10.824  0.2445  0.1345 -0.1234
  976MOL0     C31643   8.777   4.122  10.758 -0.6061 -0.1805  0.3029
  976MOL0     C31644   8.708   4.194  10.858  0.2075 -0.2611 -0.7274
  976MOL0     C31645   8.628   4.316  10.834  0.7357  0.2926  0.1227
  976MOL0     C31646   8.476   4.288  10.829 -0.8104  0.9316  0.1829
  976MOL0     C31647   8.404   4.425  10.802 -1.2099  0.4195 -0.2414
  976MOL0     C31648   8.264   4.427  10.755  0.4420 -1.4308  0.2710
  976MOL0     O31649   8.178   4.369  10.858  0.7478  0.0266 -0.4650
  976MOL0     C31650   8.056   4.434  10.864 -0.3029 -0.2715  0.0231
  976MOL0     C31651   8.034   4.538  10.950  0.4457  0.7847  0.6722
  976MOL0     C31652   7.908   4.595  10.956  0.4764 -0.4806 -0.1370
  976MOL0     C31653   7.878   4.700  11.059  0.7964  0.1286  1.1986
  976MOL0     C31654   7.801   4.551  10.874 -0.2547 -0.4891 -0.7357
  976MOL0     C31655   7.665   4.609  10.874  0.3914  0.3296  0.3936
  976MOL0     O31656   7.563   4.534  10.826 -0.6825 -0.4917 -0.3404
  976MOL0     C31657   7.434   4.565  10.857 -0.0039 -0.0224 -0.4329
  976MOL0     C31658   7.361   4.454  10.908 -0.2453 -0.5974  0.9477
  976MOL0     C31659   7.223   4.461  10.920  0.5484 -1.0807  0.2365
  976MOL0     C31660   7.159   4.579  10.901  1.2664 -0.0059  0.2591
  976MOL0     O31661   7.017   4.586  10.907 -0.5254 -0.5955 -0.2771
  976MOL0     C31662   6.934   4.474  10.870 -0.5333 -0.0159  0.4881
  976MOL0     C31663   6.789   4.511  10.906 -0.1819  0.3541  0.0811
  976MOL0     C31664   6.693   4.396  10.863 -0.4246  0.4460  0.5118
  976MOL0     C31665   6.548   4.438  10.897  0.3549  0.3006  0.4289
  976MOL0     C31666   6.435   4.350  10.830  0.1265 -0.1451  0.0480
  976MOL0     C31667   6.304   4.423  10.824 -0.4231  0.7362 -0.4271
  976MOL0     C31668   6.192   4.322  10.801  0.5800  0.9169 -0.7188
  976MOL0     C31669   6.054   4.377  10.782  0.1177  0.8135 -0.9879
  976MOL0    Cl31670   6.041   4.532  10.849  0.0946 -0.4158 -0.3381
  976MOL0     C31671   7.224   4.687  10.853  0.0645  0.0807 -0.6215
  976MOL0     C31672   7.362   4.684  10.833 -0.0533 -0.3456 -0.1725
  976MOL0     O31673   7.654   4.721  10.912  0.0006  0.0210 -0.3164
  976MOL0     C31674   7.823   4.445  10.791  0.3819  0.6357  0.2165
  976MOL0     C31675   7.949   4.379  10.790 -0.0659  0.5423 -0.2116
  976MOL0     N31676   8.712   4.122  10.978  0.4353 -1.1448 -0.1974
  976MOL0     N31677   8.770   4.008  10.954 -0.2369 -0.5049  0.1542
  976MOL0     C31678   9.963   4.035  11.123  0.1886 -0.1892 -0.3275
  976MOL0     C31679  10.097   4.007  11.151 -0.4147 -0.1467 -0.7620
  976MOL0     C31680  10.492   3.793  11.228  0.0181  0.3096 -0.3396
  976MOL0     C31681  10.583   3.729  11.139 -0.8160  0.8235 -0.1005
  976MOL0     C31682  10.709   3.689  11.179 -0.1865 -0.0305 -1.0095
  976MOL0     C31683  10.753   3.705  11.312  1.1447  0.0839 -0.1207
  976MOL0     O31684  10.877   3.676  11.360 -0.6206 -0.2057  0.3195
  976MOL0     C31685  10.986   3.646  11.264 -1.0958  0.0761 -0.3251
  976MOL0     C31686  11.121   3.667  11.329 -0.1869 -0.1674 -0.2516
  976MOL0     C31687  11.142   3.568  11.445 -0.2035  0.9300  0.7436
  976MOL0     C31688  11.155   3.419  11.387 -0.4199 -0.4335 -0.6855
  976MOL0     C31689  11.245   3.352  11.484  0.3635 -0.1791  0.3157
  976MOL0     C31690  11.313   3.312  11.574 -0.7763  0.2378 -0.1101
  976MOL0     C31691  10.656   3.755  11.405  0.3971  0.4046  1.0544
  976MOL0     C31692  10.527   3.796  11.363  0.3941  0.1596  0.1952
  976MOL0     H31693  10.057   3.743  11.362 -0.2712 -0.5129 -0.0900
  976MOL0     H31694   9.816   3.813  11.335  0.8429 -3.5612 -1.2014
  976MOL0     H31695   9.740   4.179  11.230  0.8330 -1.7741  0.2172
  976MOL0     H31696   9.726   4.154  11.056  1.8823 -2.6055  0.2063
  976MOL0     H31697   9.486   4.122  11.254 -0.5917  1.0870 -0.3005
  976MOL0     H31698   9.511   4.264  11.164 -0.6264 -0.1230  0.2112
  976MOL0     H31699   9.510   4.139  10.944  0.2157 -4.0997 -2.2373
  976MOL0     H31700   9.485   3.998  11.043 -3.9293  0.5297  1.4057
  976MOL0     H31701   9.271   4.053  11.128  2.4877  0.5437  1.0201
  976MOL0     H31702   9.274   4.219  11.062  2.9697  0.8879 -1.0640
  976MOL0     H31703   9.317   4.092  10.823  0.1302 -0.1416 -0.2426
  976MOL0     H31704   9.282   3.953  10.902 -1.8408 -0.1408  0.6024
  976MOL0     H31705   9.052   4.042  10.969 -0.2344 -2.6451 -1.7076
  976MOL0     H31706   9.081   4.182  10.870  0.9967  0.5544  2.8668
  976MOL0     H31707   9.055   4.047  10.670  1.0191  3.9380  1.2456
  976MOL0     H31708   9.126   3.899  10.753 -2.2492 -1.2950 -0.5802
  976MOL0     H31709   8.941   3.844  10.855 -2.4603 -2.0907 -0.8237
  976MOL0     H31710   8.901   3.886  10.680 -1.0915  1.4672  0.2546
  976MOL0     H31711   8.777   4.148  10.653 -0.6846  1.1516  0.6203
  976MOL0     H31712   8.635   4.380  10.922 -0.4934 -0.9629  1.1778
  976MOL0     H31713   8.657   4.361  10.738 -1.0629 -1.6695 -1.4512
  976MOL0     H31714   8.446   4.256  10.929 -3.4083 -3.8152 -1.7821
  976MOL0     H31715   8.458   4.203  10.762 -0.6550  0.1573  1.1071
  976MOL0     H31716   8.457   4.482  10.725  0.5234  0.0183  0.5911
  976MOL0     H31717   8.413   4.476  10.899  0.0420 -0.5544  0.1893
  976MOL0     H31718   8.250   4.381  10.657  0.8718  0.3585 -0.6757
  976MOL0     H31719   8.239   4.532  10.736 -2.5608 -2.2117 -0.6783
  976MOL0     H31720   8.116   4.584  11.005 -0.4772  4.0427 -0.4401
  976MOL0     H31721   7.957   4.702  11.135  0.1760 -0.0609  1.8547
  976MOL0     H31722   7.870   4.801  11.019 -0.9864 -0.4840 -0.1301
  976MOL0     H31723   7.790   4.680  11.120  1.7333  0.5946  2.7568
  976MOL0     H31724   7.420   4.364  10.925  0.9882 -0.3788 -1.6351
  976MOL0     H31725   7.175   4.368  10.952  0.8422 -1.8865 -1.5477
  976MOL0     H31726   6.961   4.448  10.767  4.5344  0.2957  1.5045
  976MOL0     H31727   6.946   4.394  10.943 -0.6208  2.3892  3.3122
  976MOL0     H31728   6.778   4.525  11.014 -1.3580  0.5748 -0.0617
  976MOL0     H31729   6.758   4.598  10.849 -3.9578 -1.1901 -0.5423
  976MOL0     H31730   6.719   4.295  10.897 -0.0901 -0.1288 -1.3215
  976MOL0     H31731   6.705   4.371  10.757 -1.2560 -1.3007  0.7903
  976MOL0     H31732   6.534   4.448  11.005  2.6746  3.8743  0.5763
  976MOL0     H31733   6.529   4.534  10.847  0.5404  0.1931  0.1555
  976MOL0     H31734   6.423   4.251  10.874  4.0306 -0.8641 -0.1764
  976MOL0     H31735   6.472   4.331  10.729 -4.8581 -0.4924 -1.9895
  976MOL0     H31736   6.289   4.474  10.919 -2.4324  0.1557 -0.3869
  976MOL0     H31737   6.303   4.507  10.753  1.2413  1.8627  0.7955
  976MOL0     H31738   6.191   4.261  10.892 -1.3221 -0.2984 -1.5059
  976MOL0     H31739   6.210   4.266  10.709 -0.9485 -2.2138  0.7350
  976MOL0     H31740   5.981   4.303  10.815 -0.9034  1.3373 -2.0131
  976MOL0     H31741   6.030   4.388  10.676 -0.1366  2.8765 -0.7544
  976MOL0     H31742   7.163   4.774  10.830  0.0312  0.2989  0.2632
  976MOL0     H31743   7.414   4.764  10.781 -3.2569  0.5665 -2.2814
  976MOL0     H31744   7.745   4.404  10.726  1.9185 -0.9178 -0.7228
  976MOL0     H31745   7.976   4.297  10.724 -0.4665 -2.4253  3.0064
  976MOL0     H31746   9.953   4.110  11.045  0.5213  1.4769  1.1595
  976MOL0     H31747  10.180   4.057  11.100  0.4885 -1.1586 -0.3297
  976MOL0     H31748  10.552   3.718  11.036 -3.0564 -3.1146  0.8046
  976MOL0     H31749  10.771   3.647  11.101  2.0616  3.2353 -1.1881
  976MOL0     H31750  10.973   3.542  11.232  2.8531  0.2539 -3.1830
  976MOL0     H31751  10.973   3.705  11.173  0.3340 -1.1090 -1.3501
  976MOL0     H31752  11.121   3.773  11.356  2.5161  0.7164 -3.0171
  976MOL0     H31753  11.196   3.639  11.254  0.8696 -1.7231  1.3140
  976MOL0     H31754  11.076   3.576  11.532 -0.9404 -0.0049  0.2891
  976MOL0     H31755  11.244   3.586  11.480  0.3353  0.1034 -0.3578
  976MOL0     H31756  11.199   3.423  11.287  0.8284 -0.3005 -0.1529
  976MOL0     H31757  11.057   3.370  11.383 -1.3804  1.4531 -1.2873
  976MOL0     H31758  11.376   3.284  11.656  2.2711  2.4889 -1.4952
  976MOL0     H31759  10.689   3.772  11.507  1.7180  2.0592  0.3939
  976MOL0     H31760  10.447   3.841  11.422  1.4887  1.4490  0.7499
  977MOL0     O31761   6.042   3.747  10.080  0.2871 -0.0593 -0.0223
  977MOL0     C31762   6.056   3.778  10.198  0.1430  1.0907  0.1815
  977MOL0     O31763   5.950   3.810  10.279 -0.1567 -0.0443 -0.6233
  977MOL0     C31764   5.822   3.769  10.275  0.9555  0.3804  0.1764
  977MOL0     C31765   5.748   3.780  10.386  0.4361 -0.2944 -0.2497
  977MOL0     C31766   5.617   3.737  10.389 -0.1967 -0.4241 -0.1101
  977MOL0     C31767   5.556   3.663  10.287 -0.5010  0.3336 -0.1940
  977MOL0     O31768   5.438   3.606  10.314 -0.4646  0.3178  0.1176
  977MOL0     C31769   5.350   3.571  10.204  0.4812 -0.2500  0.1445
  977MOL0     C31770   5.237   3.488  10.261  0.0566  0.3367 -0.0841
  977MOL0     C31771   5.139   3.448  10.150  0.0412  0.6912  0.6645
  977MOL0     C31772   5.032   3.353  10.219  1.0360  0.1636  0.1819
  977MOL0     C31773   4.917   3.317  10.122 -0.0886 -0.0197 -0.4305
  977MOL0     C31774   4.794   3.255  10.187  0.1869 -0.5175  0.5355
  977MOL0     C31775   4.808   3.141  10.292 -0.2837 -0.2173  0.6408
  977MOL0     C31776   4.827   3.000  10.227 -0.2378  0.7698  0.0856
  977MOL0     N31777   4.819   2.899  10.332 -0.1203 -0.0910  0.3495
  977MOL0     C31778   4.703   2.830  10.368  0.1308  0.2884  0.7331
  977MOL0     C31779   4.728   2.789  10.496 -0.3315  0.3756  0.2782
  977MOL0     C31780   4.627   2.748  10.600  0.0522 -0.0678 -0.0886
  977MOL0     C31781   4.499   2.825  10.573  0.0689  0.0749 -0.5732
  977MOL0     C31782   4.410   2.798  10.695  0.3538  0.6515 -0.1332
  977MOL0     C31783   4.292   2.892  10.688  0.2169 -0.2454  0.6323
  977MOL0     O31784   4.230   2.881  10.822 -0.0391  0.1415 -0.2886
  977MOL0     C31785   4.106   2.945  10.820 -0.9588  0.8151 -0.5707
  977MOL0     C31786   4.102   3.077  10.863 -0.0351 -0.6828 -0.5456
  977MOL0     C31787   3.973   3.142  10.853 -0.0870 -0.2362 -0.4256
  977MOL0     C31788   3.979   3.285  10.901 -0.6460  0.4717  0.4013
  977MOL0     C31789   3.856   3.084  10.788 -0.1805  0.2836  0.3046
  977MOL0     C31790   3.725   3.160  10.758 -0.3834  0.4940 -0.0940
  977MOL0     O31791   3.700   3.277  10.822 -0.3264  0.4202 -0.2803
  977MOL0     C31792   3.608   3.355  10.770  0.2110  0.9105 -0.5079
  977MOL0     C31793   3.641   3.481  10.729  0.0902  0.3026  0.4901
  977MOL0     C31794   3.550   3.576  10.679  0.1350  0.4453  0.0251
  977MOL0     C31795   3.417   3.540  10.669 -0.4826 -0.1607  0.6124
  977MOL0     O31796   3.312   3.618  10.619 -1.2627  0.4960 -0.2412
  977MOL0     C31797   3.317   3.746  10.677  0.9910 -0.1176 -0.9068
  977MOL0     C31798   3.177   3.808  10.668  0.3465  0.0750 -0.5182
  977MOL0     C31799   3.062   3.705  10.678 -0.2292 -0.1200 -0.0032
  977MOL0     C31800   2.930   3.782  10.638 -0.0356  0.0751  0.1146
  977MOL0     C31801   2.803   3.694  10.610  0.2660 -0.5789  0.3549
  977MOL0     C31802   2.669   3.778  10.640 -0.4904  0.2259  0.3368
  977MOL0     C31803   2.548   3.682  10.643  0.9650  0.5776  0.5417
  977MOL0     C31804   2.409   3.757  10.641  0.1695  0.5868 -0.2195
  977MOL0    Cl31805   2.273   3.643  10.612 -0.3725  0.2992 -0.1908
  977MOL0     C31806   3.383   3.404  10.703 -0.4351 -0.9964 -0.8007
  977MOL0     C31807   3.474   3.311  10.754  0.1495 -0.2971 -0.0538
  977MOL0     O31808   3.651   3.112  10.672 -0.5833  0.0411 -0.0254
  977MOL0     C31809   3.873   2.954  10.752  0.4384  0.1198 -0.6198
  977MOL0     C31810   3.997   2.891  10.759 -0.0096 -0.2129 -0.3861
  977MOL0     N31811   4.865   2.827  10.533  0.0871 -0.0015  0.1982
  977MOL0     N31812   4.914   2.889  10.433  0.8279  0.0796 -0.1813
  977MOL0     C31813   5.627   3.646  10.168  0.1394 -1.3310  0.1353
  977MOL0     C31814   5.757   3.700  10.168 -0.9249  0.0060 -0.2905
  977MOL0     C31815   6.194   3.785  10.251  0.6039 -0.3264 -0.4844
  977MOL0     C31816   6.305   3.794  10.163  0.1484  1.1946  0.0236
  977MOL0     C31817   6.433   3.802  10.216  0.7650  0.1666 -0.0086
  977MOL0     C31818   6.457   3.798  10.356 -0.1801  0.2599  0.2733
  977MOL0     O31819   6.579   3.793  10.416  0.4406  0.1580 -0.1453
  977MOL0     C31820   6.697   3.828  10.341 -0.1681 -0.1499  0.8770
  977MOL0     C31821   6.800   3.868  10.443 -0.1614 -0.2341  0.7517
  977MOL0     C31822   6.938   3.873  10.395 -0.0412 -0.2641 -0.1067
  977MOL0     C31823   6.996   3.746  10.335 -0.0148  0.2437 -0.5394
  977MOL0     C31824   7.138   3.772  10.304  0.5329  0.0153  0.3214
  977MOL0     C31825   7.255   3.791  10.274  0.0646 -0.9223 -0.0996
  977MOL0     C31826   6.348   3.805  10.440  0.6235  0.0904  0.1119
  977MOL0     C31827   6.221   3.800  10.388  0.2846 -0.0266  0.7740
  977MOL0     H31828   5.789   3.822  10.477 -0.4012 -0.2649  0.1317
  977MOL0     H31829   5.565   3.738  10.485  0.5923 -1.8258  0.3557
  977MOL0     H31830   5.313   3.666  10.163  1.0621 -0.1541 -0.1693
  977MOL0     H31831   5.394   3.503  10.131  0.6194  0.6019 -0.5818
  977MOL0     H31832   5.273   3.397  10.312 -0.2744  2.1008  3.6645
  977MOL0     H31833   5.180   3.549  10.331  0.3851  0.5943 -0.0400
  977MOL0     H31834   5.092   3.534  10.103  3.3412  0.9636 -2.6694
  977MOL0     H31835   5.194   3.390  10.075 -1.7808 -2.8315  1.7972
  977MOL0     H31836   5.072   3.268  10.275 -1.3047 -0.0681  1.6489
  977MOL0     H31837   4.982   3.418  10.292 -2.1172  0.2250 -1.8510
  977MOL0     H31838   4.892   3.415  10.079  1.1210  0.7910  0.6041
  977MOL0     H31839   4.942   3.252  10.038  0.6733  1.3019 -1.2599
  977MOL0     H31840   4.734   3.336  10.230 -1.8110 -0.3874 -2.1992
  977MOL0     H31841   4.725   3.216  10.111 -0.3376  0.6914  0.3646
  977MOL0     H31842   4.887   3.154  10.366 -1.8033  0.7124  2.1862
  977MOL0     H31843   4.705   3.135  10.331 -1.6672  1.2992 -2.4290
  977MOL0     H31844   4.931   2.988  10.198 -0.0912 -5.4252  1.7303
  977MOL0     H31845   4.752   2.973  10.152  0.5434  2.1471 -1.2407
  977MOL0     H31846   4.609   2.821  10.315  1.4153 -2.0342 -1.3696
  977MOL0     H31847   4.612   2.640  10.594  2.4822 -0.4167 -1.5199
  977MOL0     H31848   4.666   2.770  10.700  1.1475  0.1190 -0.5343
  977MOL0     H31849   4.451   2.786  10.483  0.3373  0.7679 -1.0170
  977MOL0     H31850   4.517   2.932  10.574  0.1195  0.0666 -0.5127
  977MOL0     H31851   4.454   2.813  10.794 -2.7511 -3.0348  2.1078
  977MOL0     H31852   4.376   2.694  10.699  1.6940  0.1774 -0.6389
  977MOL0     H31853   4.238   2.869  10.596  0.0818  2.1975  0.0197
  977MOL0     H31854   4.316   2.998  10.675 -2.9850  0.3072 -2.3184
  977MOL0     H31855   4.183   3.136  10.906 -1.1746 -1.4716  3.0665
  977MOL0     H31856   3.928   3.353  10.832  0.7944  3.0743  1.7027
  977MOL0     H31857   3.926   3.284  10.997  0.0064 -0.9811  0.7753
  977MOL0     H31858   4.083   3.316  10.916 -0.4841 -0.2573  0.8226
  977MOL0     H31859   3.739   3.525  10.717  1.3349 -2.4707 -0.1707
  977MOL0     H31860   3.587   3.674  10.649 -0.9507  0.1254 -2.6444
  977MOL0     H31861   3.342   3.737  10.783  0.3834  2.1590 -0.5040
  977MOL0     H31862   3.392   3.808  10.628  2.4934 -0.7119  0.5631
  977MOL0     H31863   3.178   3.876  10.754  2.4884 -0.3859 -0.1352
  977MOL0     H31864   3.167   3.869  10.577  1.2167 -0.9264 -1.3090
  977MOL0     H31865   3.059   3.670  10.782  1.5558 -1.0596 -0.2356
  977MOL0     H31866   3.085   3.624  10.608  1.6514  0.8445 -0.5876
  977MOL0     H31867   2.902   3.854  10.716  3.3725 -1.3810  2.9232
  977MOL0     H31868   2.947   3.836  10.544 -2.1724 -0.6633 -0.7511
  977MOL0     H31869   2.800   3.601  10.667 -0.3675 -1.4748 -1.1043
  977MOL0     H31870   2.817   3.667  10.505  2.1160  3.5685 -0.6861
  977MOL0     H31871   2.679   3.847  10.724  2.8345  2.4014 -1.6246
  977MOL0     H31872   2.664   3.843  10.552  2.6391  0.3702  0.1648
  977MOL0     H31873   2.545   3.607  10.722 -0.0611 -0.7437 -0.6806
  977MOL0     H31874   2.553   3.619  10.553  0.5509  1.5699 -0.1987
  977MOL0     H31875   2.392   3.830  10.561 -3.5210 -0.5635 -0.6608
  977MOL0     H31876   2.402   3.805  10.739  1.3526  1.5857 -0.5973
  977MOL0     H31877   3.281   3.374  10.682 -1.8398  0.8256  2.6132
  977MOL0     H31878   3.439   3.212  10.782  1.2573 -1.0376 -1.2139
  977MOL0     H31879   3.797   2.901  10.696 -0.4399 -0.3021  0.9203
  977MOL0     H31880   3.999   2.788  10.725  0.3336 -0.1686 -0.5090
  977MOL0     H31881   5.576   3.588  10.091 -3.4560  0.6165  0.8291
  977MOL0     H31882   5.813   3.697  10.075  1.0065  2.0965  0.7121
  977MOL0     H31883   6.296   3.783  10.056  0.4392  0.1035  0.0941
  977MOL0     H31884   6.515   3.788  10.146 -0.0446  2.0480 -1.4179
  977MOL0     H31885   6.731   3.743  10.281 -0.6169 -0.0213  0.4334
  977MOL0     H31886   6.684   3.909  10.269 -0.7132 -1.9595 -1.1735
  977MOL0     H31887   6.799   3.796  10.525 -0.5514  1.2470  2.1065
  977MOL0     H31888   6.780   3.969  10.482  1.5559  0.0665  0.9091
  977MOL0     H31889   6.995   3.906  10.482  0.2525 -0.5596 -0.1864
  977MOL0     H31890   6.942   3.947  10.314  0.4299 -0.9935 -0.7601
  977MOL0     H31891   6.945   3.713  10.244  0.2361  0.6456 -0.8290
  977MOL0     H31892   6.987   3.664  10.407  3.0322  2.0877  2.1690
  977MOL0     H31893   7.355   3.798  10.237 -1.0934  0.7124 -3.3550
  977MOL0     H31894   6.355   3.825  10.546  2.6176  0.2634 -0.0030
  977MOL0     H31895   6.125   3.787  10.438 -0.4092  1.2564 -0.1628
  978MOL0     O31896  10.085   1.984  10.180  0.8820  0.0772 -0.8439
  978MOL0     C31897  10.054   1.952  10.292 -0.4624  0.3101  0.3622
  978MOL0     O31898   9.955   2.006  10.368  0.3121  0.2730  1.1871
  978MOL0     C31899   9.842   2.068  10.313 -0.7883 -0.3148  0.3601
  978MOL0     C31900   9.794   2.184  10.378  0.0903 -0.2613 -0.3715
  978MOL0     C31901   9.680   2.255  10.347 -1.3842  1.4309 -0.0057
  978MOL0     C31902   9.607   2.208  10.232 -0.0193 -0.1511 -0.9181
  978MOL0     O31903   9.497   2.293  10.203 -0.2860  0.5949 -0.5220
  978MOL0     C31904   9.410   2.265  10.094 -0.4292  0.0384 -0.1582
  978MOL0     C31905   9.343   2.396  10.047  0.3572 -0.3657  0.1576
  978MOL0     C31906   9.208   2.424  10.124 -0.1239  0.5569  0.3868
  978MOL0     C31907   9.119   2.510  10.036  0.5725 -0.4456 -0.0930
  978MOL0     C31908   9.022   2.606  10.107 -0.1964 -0.3995 -0.1545
  978MOL0     C31909   8.888   2.536  10.147 -0.3986  0.1544  0.0152
  978MOL0     C31910   8.766   2.632  10.187 -0.1171 -0.1403  1.3583
  978MOL0     C31911   8.786   2.723  10.315  0.4099 -0.4149  0.6290
  978MOL0     N31912   8.812   2.638  10.428 -0.1252 -0.2699 -0.5783
  978MOL0     C31913   8.714   2.573  10.498 -0.3042  0.0185 -0.4850
  978MOL0     C31914   8.782   2.501  10.590 -0.5153 -0.6653  0.1703
  978MOL0     C31915   8.725   2.415  10.696 -0.1317 -0.4233  0.0694
  978MOL0     C31916   8.641   2.496  10.789 -0.3273 -0.0537 -0.2367
  978MOL0     C31917   8.538   2.420  10.886  0.8306 -0.2397 -0.6302
  978MOL0     C31918   8.421   2.346  10.819 -0.7863  0.7938 -0.3771
  978MOL0     O31919   8.309   2.349  10.904 -0.4789  0.3184 -0.2003
  978MOL0     C31920   8.195   2.271  10.868  0.1291  0.3596 -0.3273
  978MOL0     C31921   8.101   2.286  10.956  0.0829 -0.0688 -0.7739
  978MOL0     C31922   7.969   2.231  10.954  0.0533  0.8373  0.9135
  978MOL0     C31923   7.868   2.257  11.059  0.1289 -0.1757  0.3875
  978MOL0     C31924   7.945   2.148  10.845 -0.1395  0.2505  0.4981
  978MOL0     C31925   7.811   2.094  10.812  0.8114  0.4297 -0.2989
  978MOL0     O31926   7.734   2.051  10.915 -0.1563  0.9291 -0.8145
  978MOL0     C31927   7.599   2.028  10.898 -0.0072 -0.2436  0.6047
  978MOL0     C31928   7.532   1.946  10.804 -0.7914 -0.2783 -0.2690
  978MOL0     C31929   7.393   1.925  10.805  0.0051 -0.4666 -0.9587
  978MOL0     C31930   7.313   1.984  10.899  0.3586  0.0944 -0.9723
  978MOL0     O31931   7.179   1.976  10.877 -0.3029  0.9409 -0.4206
  978MOL0     C31932   7.092   2.092  10.888  0.5516 -0.2590 -0.3661
  978MOL0     C31933   6.946   2.047  10.860 -0.0955 -0.9603  0.6363
  978MOL0     C31934   6.889   1.960  10.967  0.4800 -0.0404  0.6345
  978MOL0     C31935   6.755   1.907  10.927 -0.2663  0.1825  0.0547
  978MOL0     C31936   6.640   2.006  10.942  0.0849 -0.1939 -0.0258
  978MOL0     C31937   6.510   1.922  10.919  0.0654  0.3105 -0.6089
  978MOL0     C31938   6.381   2.011  10.936  1.0099  0.2596 -0.2604
  978MOL0     C31939   6.249   1.936  10.919 -0.2765  0.0160 -0.2613
  978MOL0    Cl31940   6.143   2.039  10.808 -0.0550  0.0928 -0.6765
  978MOL0     C31941   7.375   2.070  10.995 -0.5109 -0.2841  0.4315
  978MOL0     C31942   7.513   2.096  10.990  0.0527  0.5500  0.2025
  978MOL0     O31943   7.784   2.087  10.697  0.5174  0.0129  0.6127
  978MOL0     C31944   8.047   2.127  10.753  0.2095  0.2215 -0.8982
  978MOL0     C31945   8.174   2.177  10.771  1.0917  0.3304  0.9281
  978MOL0     N31946   8.913   2.512  10.573 -0.1896 -1.4412  0.8005
  978MOL0     N31947   8.929   2.598  10.481 -0.6466 -0.1268  0.0284
  978MOL0     C31948   9.655   2.099  10.161  0.1204  0.5146  0.0122
  978MOL0     C31949   9.774   2.034  10.190  0.1698  0.5384  0.5597
  978MOL0     C31950  10.141   1.858  10.368  0.6613 -0.2912  0.0077
  978MOL0     C31951  10.274   1.835  10.330 -0.5160 -0.2610 -1.3529
  978MOL0     C31952  10.365   1.747  10.399  1.0636  0.5018  0.1428
  978MOL0     C31953  10.322   1.691  10.521  0.2174  0.2758  0.6168
  978MOL0     O31954  10.403   1.627  10.606  0.8568  0.0183 -0.5422
  978MOL0     C31955  10.531   1.588  10.562 -0.5056  0.7713 -0.3439
  978MOL0     C31956  10.527   1.451  10.502 -0.7512  0.5174 -0.0423
  978MOL0     C31957  10.668   1.395  10.452  0.2629 -0.8780 -0.7115
  978MOL0     C31958  10.719   1.473  10.331 -0.7797 -0.5577  0.3353
  978MOL0     C31959  10.867   1.468  10.327  0.2337  0.1080 -0.4847
  978MOL0     C31960  10.985   1.486  10.322 -0.7501  1.1659  0.6526
  978MOL0     C31961  10.190   1.713  10.555  0.7479  0.1551 -0.1476
  978MOL0     C31962  10.095   1.791  10.484  0.7452 -0.7584 -0.4924
  978MOL0     H31963   9.841   2.216  10.470  1.3304 -0.7758 -0.7986
  978MOL0     H31964   9.655   2.337  10.413  0.9193  1.1208  1.3740
  978MOL0     H31965   9.463   2.214  10.013 -2.9230 -0.0465 -1.8455
  978MOL0     H31966   9.342   2.185  10.124  0.3493  0.2847  2.4975
  978MOL0     H31967   9.413   2.480  10.048 -0.2444  0.2566 -2.6022
  978MOL0     H31968   9.319   2.390   9.940 -0.9743 -3.3215  0.5075
  978MOL0     H31969   9.155   2.331  10.149  0.1028 -0.1992 -1.7102
  978MOL0     H31970   9.216   2.477  10.219 -1.0445  1.5931 -0.0995
  978MOL0     H31971   9.190   2.572   9.981  1.0009 -1.5616 -0.8489
  978MOL0     H31972   9.062   2.446   9.968  0.2186  1.2232 -1.4354
  978MOL0     H31973   9.067   2.652  10.196 -3.1517 -2.5107  2.6704
  978MOL0     H31974   8.996   2.684  10.035  0.1520  0.2439  0.4063
  978MOL0     H31975   8.849   2.481  10.060 -1.3158  0.8661 -0.0353
  978MOL0     H31976   8.906   2.471  10.233 -4.0133  0.6028  1.2893
  978MOL0     H31977   8.746   2.698  10.102  2.1049  0.8133  1.5044
  978MOL0     H31978   8.673   2.575  10.197 -0.4809  0.1103 -0.2750
  978MOL0     H31979   8.696   2.782  10.337  0.8689  1.2620 -1.6438
  978MOL0     H31980   8.865   2.798  10.300 -0.5965  1.3011  3.1338
  978MOL0     H31981   8.609   2.593  10.482  0.3411  3.0886 -1.4143
  978MOL0     H31982   8.674   2.333  10.644  2.8073 -2.4608  0.1470
  978MOL0     H31983   8.812   2.380  10.753  0.4333  0.5910 -0.1508
  978MOL0     H31984   8.567   2.555  10.735 -0.1011 -2.3383 -3.2538
  978MOL0     H31985   8.711   2.565  10.838 -1.3516  0.9451 -0.1475
  978MOL0     H31986   8.490   2.488  10.957 -3.2367 -0.0495 -3.2047
  978MOL0     H31987   8.593   2.344  10.943 -0.1110 -0.2265  0.3262
  978MOL0     H31988   8.441   2.239  10.809 -0.8105  0.6928  0.5813
  978MOL0     H31989   8.408   2.391  10.720 -3.6286 -2.3201 -1.6166
  978MOL0     H31990   8.119   2.359  11.034 -1.3643  0.4396 -0.8777
  978MOL0     H31991   7.906   2.343  11.115  0.8836 -0.0928 -0.2407
  978MOL0     H31992   7.774   2.304  11.027  0.2669  1.0421  1.6476
  978MOL0     H31993   7.849   2.176  11.129  0.9189  1.7367  2.9857
  978MOL0     H31994   7.599   1.903  10.730  1.5722  1.2428  0.8797
  978MOL0     H31995   7.351   1.854  10.734 -0.5062 -1.2848  0.1314
  978MOL0     H31996   7.103   2.124  10.991 -0.1573 -1.2738  0.0416
  978MOL0     H31997   7.115   2.175  10.821  1.0591  0.4368  0.6523
  978MOL0     H31998   6.892   2.142  10.852  1.6482  0.1695  1.6349
  978MOL0     H31999   6.953   1.987  10.769  2.2033  0.7649 -0.4521
  978MOL0     H32000   6.902   2.025  11.055  1.0234 -0.9123  1.2145
  978MOL0     H32001   6.954   1.875  10.991 -1.4071 -2.7555 -2.9703
  978MOL0     H32002   6.761   1.871  10.824  1.2095 -1.0331  0.5220
  978MOL0     H32003   6.735   1.816  10.983 -0.4949 -0.7762 -1.5332
  978MOL0     H32004   6.645   2.082  10.864 -2.6553  0.2912  0.1844
  978MOL0     H32005   6.635   2.046  11.044 -0.3299 -0.8930  0.2378
  978MOL0     H32006   6.512   1.878  10.819  0.1006 -1.3395  0.0835
  978MOL0     H32007   6.511   1.846  10.998  3.6452  2.1463  1.4044
  978MOL0     H32008   6.389   2.093  10.863  0.6158 -0.2970 -0.9352
  978MOL0     H32009   6.378   2.056  11.035 -1.8234 -1.3806  0.5076
  978MOL0     H32010   6.201   1.910  11.014 -0.9225  0.5219 -0.4430
  978MOL0     H32011   6.263   1.838  10.872  1.6910 -1.3899  2.9455
  978MOL0     H32012   7.322   2.133  11.065 -0.0468  0.4528  0.1293
  978MOL0     H32013   7.553   2.177  11.050  4.3051  0.2324 -1.9007
  978MOL0     H32014   8.021   2.055  10.676  0.0090 -2.1498  1.2358
  978MOL0     H32015   8.237   2.160  10.684  2.0009 -0.2638  1.6763
  978MOL0     H32016   9.602   2.065  10.073 -0.7182  1.7537  0.0082
  978MOL0     H32017   9.821   1.965  10.120 -0.8899 -0.0601  0.4181
  978MOL0     H32018  10.323   1.895  10.254 -2.6281  2.3591 -0.8051
  978MOL0     H32019  10.467   1.735  10.363  0.7885 -1.1387 -0.1489
  978MOL0     H32020  10.576   1.655  10.488 -1.3474  1.6385 -0.0855
  978MOL0     H32021  10.594   1.587  10.651 -1.2936  2.6242  0.2705
  978MOL0     H32022  10.466   1.443  10.412  0.7404  2.2071 -1.2920
  978MOL0     H32023  10.474   1.375  10.559 -0.3266  0.5301  0.3767
  978MOL0     H32024  10.658   1.288  10.430  1.8562 -0.7165 -2.5090
  978MOL0     H32025  10.736   1.402  10.537 -1.0663  3.8620  0.2835
  978MOL0     H32026  10.673   1.571  10.322 -2.1588 -1.2689 -1.0867
  978MOL0     H32027  10.686   1.406  10.251  0.1001 -3.4929  2.2614
  978MOL0     H32028  11.092   1.489  10.324 -0.6968  0.1891 -0.2164
  978MOL0     H32029  10.155   1.669  10.648 -0.6154  1.4652 -0.0075
  978MOL0     H32030   9.995   1.811  10.520  0.2974  0.2355 -2.1681
  979MOL0     O32031   2.595   8.060   9.332 -0.0201  0.7548  0.3361
  979MOL0     C32032   2.596   8.139   9.427  0.9007  0.8276  0.4481
  979MOL0     O32033   2.524   8.254   9.436 -0.0718 -0.6598  0.4395
  979MOL0     C32034   2.409   8.277   9.363 -0.0004 -0.2056 -0.1709
  979MOL0     C32035   2.366   8.414   9.342 -0.6900  0.1311  0.1763
  979MOL0     C32036   2.254   8.444   9.269 -0.2209  0.3716  0.2585
  979MOL0     C32037   2.167   8.349   9.218  0.1738  0.1988 -0.4927
  979MOL0     O32038   2.053   8.380   9.154 -0.9654  0.5738 -0.6103
  979MOL0     C32039   2.002   8.288   9.059  0.6252  0.5598  0.9725
  979MOL0     C32040   1.869   8.346   9.003 -0.6247 -0.4050  0.2063
  979MOL0     C32041   1.751   8.339   9.106  0.0809 -0.4763  0.1549
  979MOL0     C32042   1.649   8.447   9.073 -0.1903  0.1877 -0.3470
  979MOL0     C32043   1.526   8.433   9.164  0.3132  0.3415 -0.8109
  979MOL0     C32044   1.449   8.297   9.151 -0.6599 -0.2016 -0.2029
  979MOL0     C32045   1.326   8.271   9.242 -0.3622  0.7389  1.1176
  979MOL0     C32046   1.355   8.260   9.393 -0.3219 -0.1971 -0.1215
  979MOL0     N32047   1.234   8.210   9.455  0.1107 -0.2586  0.3477
  979MOL0     C32048   1.194   8.078   9.459 -0.2353 -1.0498 -0.2956
  979MOL0     C32049   1.084   8.080   9.538 -0.3198 -0.3657 -0.6796
  979MOL0     C32050   1.000   7.959   9.559  0.2954 -0.4134  1.0828
  979MOL0     C32051   0.850   8.002   9.574 -0.0159  0.1468  0.2823
  979MOL0     C32052   0.759   7.881   9.547 -0.1436  0.8121 -0.2614
  979MOL0     C32053   0.620   7.900   9.578  0.7893 -0.4841  0.1226
  979MOL0     O32054   0.542   7.784   9.533  0.0260  0.8948 -0.3756
  979MOL0     C32055   0.411   7.775   9.567  0.7666 -0.5075 -0.1772
  979MOL0     C32056   0.330   7.883   9.615 -0.4694 -0.4926  0.0066
  979MOL0     C32057   0.196   7.869   9.632  0.5681 -0.1071  0.2145
  979MOL0     C32058   0.109   7.995   9.652  0.3514 -0.5016  0.4558
  979MOL0     C32059   0.140   7.749   9.593  0.5245 -0.2869  0.7567
  979MOL0     C32060  -0.004   7.729   9.585 -0.1153  0.1675 -0.6190
  979MOL0     O32061  -0.068   7.792   9.490 -0.5773 -0.3514  0.3482
  979MOL0     C32062  -0.206   7.761   9.482  0.1009  0.0014  0.3058
  979MOL0     C32063  -0.306   7.805   9.573 -0.5472  0.3852 -0.2399
  979MOL0     C32064  -0.442   7.766   9.561 -0.5425 -0.2745 -0.5486
  979MOL0     C32065  -0.479   7.682   9.454 -0.8865  0.0090  0.0054
  979MOL0     O32066  -0.607   7.640   9.451  0.1864  0.3300 -0.3070
  979MOL0     C32067  -0.631   7.524   9.369  0.5000  1.6514 -0.0652
  979MOL0     C32068  -0.771   7.470   9.387 -0.1158  0.5867 -0.2643
  979MOL0     C32069  -0.880   7.580   9.379 -0.4140 -0.0837 -0.1014
  979MOL0     C32070  -1.027   7.517   9.395 -0.3505  0.7836 -0.2604
  979MOL0     C32071  -1.130   7.610   9.442  0.5379  0.0275  0.5747
  979MOL0     C32072  -1.167   7.737   9.356  0.8358  0.4279  0.3050
  979MOL0     C32073  -1.294   7.803   9.412 -0.7070 -0.0244  0.0988
  979MOL0     C32074  -1.342   7.924   9.329 -0.9022  0.2870  0.1744
  979MOL0    Cl32075  -1.438   7.881   9.172  0.2390  0.4847 -0.3955
  979MOL0     C32076  -0.377   7.633   9.367  0.9992  0.6453 -0.1443
  979MOL0     C32077  -0.243   7.674   9.376 -0.0497 -0.5535  0.0941
  979MOL0     O32078  -0.057   7.652   9.668 -0.4366 -0.2347 -0.8461
  979MOL0     C32079   0.214   7.644   9.549  0.0055 -0.1425  0.7922
  979MOL0     C32080   0.348   7.658   9.528  0.5910  0.5948  0.2782
  979MOL0     N32081   1.062   8.208   9.593 -0.1908 -0.2843  0.0647
  979MOL0     N32082   1.150   8.285   9.542  0.2181  0.2658  0.5354
  979MOL0     C32083   2.201   8.220   9.259  0.1808  1.2525 -0.0375
  979MOL0     C32084   2.323   8.178   9.316 -0.1937  0.2922  0.0706
  979MOL0     C32085   2.683   8.098   9.536 -0.4368 -0.0251 -0.0148
  979MOL0     C32086   2.765   7.985   9.538 -0.3956  0.4954  0.2453
  979MOL0     C32087   2.867   7.957   9.634  0.6041 -0.3843 -0.4891
  979MOL0     C32088   2.884   8.045   9.745  0.6765 -0.3685 -0.1811
  979MOL0     O32089   2.959   7.996   9.849 -0.0832 -0.4091 -0.4251
  979MOL0     C32090   3.042   8.078   9.925  0.5670 -0.1984 -0.5866
  979MOL0     C32091   3.148   8.169   9.847 -1.0057 -0.1502 -0.1261
  979MOL0     C32092   3.205   8.287   9.924 -0.3002  0.2676 -0.1640
  979MOL0     C32093   3.109   8.392   9.993 -0.5243 -0.5685  0.7219
  979MOL0     C32094   3.069   8.486   9.884 -0.2045  0.8074  0.4610
  979MOL0     C32095   3.050   8.563   9.792  0.6005 -0.2024  0.4496
  979MOL0     C32096   2.806   8.159   9.750 -0.3909 -0.2017  0.9767
  979MOL0     C32097   2.708   8.180   9.652 -0.4405  0.2372 -0.8298
  979MOL0     H32098   2.423   8.498   9.381 -1.4319 -0.3495  2.4632
  979MOL0     H32099   2.226   8.548   9.262  1.9325  1.0708  1.1045
  979MOL0     H32100   2.065   8.275   8.971 -0.2795 -2.3508  0.6340
  979MOL0     H32101   1.980   8.188   9.096 -1.8333  0.3081 -0.8721
  979MOL0     H32102   1.884   8.450   8.972  0.1999 -0.9388 -1.3185
  979MOL0     H32103   1.845   8.294   8.910  1.4248  0.1656 -0.7017
  979MOL0     H32104   1.707   8.238   9.101  0.7624 -0.8348  1.0720
  979MOL0     H32105   1.789   8.358   9.207 -0.7337 -0.8816  0.5535
  979MOL0     H32106   1.695   8.545   9.091 -1.0365  0.1349  2.5012
  979MOL0     H32107   1.621   8.436   8.968 -0.5229  0.2486 -0.2668
  979MOL0     H32108   1.551   8.429   9.271 -2.5005  0.0076 -0.0952
  979MOL0     H32109   1.455   8.515   9.159 -1.5701 -1.2127 -0.7238
  979MOL0     H32110   1.419   8.293   9.046  2.8909 -0.9565 -1.3357
  979MOL0     H32111   1.509   8.207   9.169  0.5599  0.4746 -0.7800
  979MOL0     H32112   1.258   8.356   9.231 -1.7665 -0.5733 -1.3704
  979MOL0     H32113   1.279   8.180   9.205  1.2502  0.3983 -0.1647
  979MOL0     H32114   1.393   8.351   9.440  2.4357 -0.9434 -0.6895
  979MOL0     H32115   1.440   8.192   9.410 -0.6429 -0.5806 -0.0512
  979MOL0     H32116   1.236   7.993   9.405  0.0842 -0.2173 -1.3828
  979MOL0     H32117   1.032   7.899   9.473  0.1627  0.4649  0.4066
  979MOL0     H32118   1.012   7.900   9.651 -1.3732  0.2968  1.7877
  979MOL0     H32119   0.836   8.089   9.509  2.5637 -1.3053 -2.4112
  979MOL0     H32120   0.828   8.034   9.677  2.3936 -1.1393  1.2936
  979MOL0     H32121   0.801   7.792   9.594  1.5267  1.4303 -0.5379
  979MOL0     H32122   0.762   7.857   9.440 -0.2286  0.8979 -0.2835
  979MOL0     H32123   0.579   7.984   9.522  1.4755  0.0644  0.4255
  979MOL0     H32124   0.602   7.934   9.680  1.4104 -1.3465  0.5320
  979MOL0     H32125   0.378   7.976   9.642 -1.5256 -0.2338  1.1187
  979MOL0     H32126   0.063   8.020   9.556 -2.5560  1.3528  2.1573
  979MOL0     H32127   0.027   7.984   9.724 -1.2090  0.0856 -1.1655
  979MOL0     H32128   0.178   8.076   9.675 -0.2846  1.0603 -2.6298
  979MOL0     H32129  -0.278   7.859   9.662 -0.3623 -0.7490  0.4087
  979MOL0     H32130  -0.519   7.794   9.632  1.3593  0.7042  1.2341
  979MOL0     H32131  -0.629   7.564   9.267  1.4245  3.9813  0.8015
  979MOL0     H32132  -0.557   7.444   9.381  1.1505  2.5054  1.9901
  979MOL0     H32133  -0.794   7.393   9.313 -0.0520 -0.5692  0.8761
  979MOL0     H32134  -0.790   7.420   9.483 -1.8153  1.1824 -0.2614
  979MOL0     H32135  -0.880   7.636   9.285 -0.6810  0.5777  0.2839
  979MOL0     H32136  -0.852   7.650   9.458  1.6636 -0.9423 -0.0070
  979MOL0     H32137  -1.072   7.479   9.303 -1.9324  0.3787  0.6423
  979MOL0     H32138  -1.017   7.436   9.468 -0.9228  0.9967  0.0658
  979MOL0     H32139  -1.101   7.651   9.539 -2.0956  0.6167  1.1757
  979MOL0     H32140  -1.223   7.560   9.468  1.7035 -1.9746  1.0830
  979MOL0     H32141  -1.079   7.801   9.347  0.5833  1.3342  3.2827
  979MOL0     H32142  -1.180   7.707   9.252  3.0956  0.8495 -0.1647
  979MOL0     H32143  -1.275   7.827   9.517  1.3594 -1.7550  0.1977
  979MOL0     H32144  -1.369   7.724   9.414  0.6892 -1.4509  3.5140
  979MOL0     H32145  -1.252   7.976   9.298 -1.3668  1.6142  0.9784
  979MOL0     H32146  -1.402   7.983   9.399 -1.0929 -0.0599  0.3098
  979MOL0     H32147  -0.393   7.564   9.284  0.8385  1.3246 -0.6871
  979MOL0     H32148  -0.164   7.627   9.320 -2.0510 -2.9981 -0.8319
  979MOL0     H32149   0.167   7.550   9.523  0.2613 -0.4795  1.5233
  979MOL0     H32150   0.413   7.579   9.491  1.2025  0.5010  1.4967
  979MOL0     H32151   2.142   8.140   9.214 -0.3570  3.5217 -3.8118
  979MOL0     H32152   2.335   8.073   9.337 -1.3636  0.6215  2.7821
  979MOL0     H32153   2.769   7.914   9.456  3.4004  2.8186 -1.9289
  979MOL0     H32154   2.912   7.859   9.623 -0.1483 -0.7069 -0.7433
  979MOL0     H32155   2.964   8.126   9.985  0.6883 -1.7908  0.9243
  979MOL0     H32156   3.106   8.019   9.991 -1.5664 -2.5826 -0.4781
  979MOL0     H32157   3.094   8.210   9.761  2.1361  0.8212 -1.7500
  979MOL0     H32158   3.229   8.104   9.813  1.1411  2.9195 -1.2700
  979MOL0     H32159   3.268   8.347   9.857  1.2396 -1.2504 -0.1514
  979MOL0     H32160   3.277   8.241   9.992  1.0590  3.1179  0.4897
  979MOL0     H32161   3.165   8.456  10.061 -0.4173 -0.0851  0.1935
  979MOL0     H32162   3.027   8.347  10.050 -0.2413 -0.3947  1.2670
  979MOL0     H32163   3.023   8.623   9.707  1.6279  2.6246  1.9879
  979MOL0     H32164   2.818   8.241   9.820 -0.1203  2.1455 -1.6553
  979MOL0     H32165   2.646   8.269   9.659  1.1817  1.4197 -0.9269
  980MOL0     O32166   6.146   9.355   1.227  0.3409  0.0811 -0.2478
  980MOL0     C32167   6.142   9.442   1.316  0.0760 -0.8233  0.5856
  980MOL0     O32168   6.037   9.524   1.341  0.8026 -0.1811 -0.8581
  980MOL0     C32169   5.934   9.525   1.249 -0.3260 -0.0723 -0.7093
  980MOL0     C32170   5.845   9.413   1.246  0.4445  0.4785  0.2053
  980MOL0     C32171   5.745   9.423   1.157 -0.1416  0.2215  0.0049
  980MOL0     C32172   5.712   9.538   1.087  0.0081 -0.2272  0.2349
  980MOL0     O32173   5.604   9.547   0.995 -0.4709 -0.0909 -0.6289
  980MOL0     C32174   5.529   9.433   0.981  0.1343 -0.4176  0.1313
  980MOL0     C32175   5.408   9.467   0.899 -0.1839  0.5928  0.3613
  980MOL0     C32176   5.338   9.338   0.862 -0.7103 -0.5616 -0.2773
  980MOL0     C32177   5.226   9.375   0.764  0.2361 -0.0664  0.0866
  980MOL0     C32178   5.119   9.261   0.740  0.5914 -0.1564  0.2934
  980MOL0     C32179   5.186   9.146   0.656 -0.4229 -0.0894  0.2272
  980MOL0     C32180   5.111   9.009   0.639 -0.1730 -1.0353  0.1175
  980MOL0     C32181   4.968   9.019   0.592 -0.0743  0.9241  0.3210
  980MOL0     N32182   4.908   8.882   0.614 -0.5938 -0.3249 -0.4852
  980MOL0     C32183   4.920   8.777   0.520 -0.2084  0.5105 -0.1305
  980MOL0     C32184   4.828   8.687   0.559 -1.2290 -0.0551 -0.7583
  980MOL0     C32185   4.813   8.553   0.503  0.6062  0.3913 -0.6845
  980MOL0     C32186   4.662   8.509   0.499  0.2930 -0.2358  0.4644
  980MOL0     C32187   4.579   8.584   0.389 -0.4433  0.0661 -0.2275
  980MOL0     C32188   4.544   8.502   0.259  0.2445  0.1682 -0.4181
  980MOL0     O32189   4.434   8.400   0.280 -0.1148 -0.2811  0.4668
  980MOL0     C32190   4.308   8.442   0.252 -0.2324 -0.3351 -0.1911
  980MOL0     C32191   4.221   8.335   0.243 -0.0266 -0.0600 -1.2847
  980MOL0     C32192   4.087   8.361   0.236 -0.2455  0.1066  0.6736
  980MOL0     C32193   4.003   8.233   0.214  0.1032 -0.3422 -0.0901
  980MOL0     C32194   4.037   8.500   0.236 -0.3686 -0.5888 -0.3966
  980MOL0     C32195   3.898   8.537   0.213  0.5487  0.3296  1.3469
  980MOL0     O32196   3.827   8.446   0.150  0.6889 -0.2390 -0.0336
  980MOL0     C32197   3.692   8.448   0.153 -0.0831 -0.0256 -1.0152
  980MOL0     C32198   3.618   8.389   0.047 -0.6755  0.2757 -0.0609
  980MOL0     C32199   3.483   8.370   0.054  0.4121  0.1978  0.0958
  980MOL0     C32200   3.411   8.415   0.165  0.0664  0.7312 -0.0524
  980MOL0     O32201   3.270   8.408   0.159  0.0248  0.4216  0.0588
  980MOL0     C32202   3.201   8.434   0.285 -0.5064 -0.8750  0.0603
  980MOL0     C32203   3.049   8.422   0.265 -0.0156 -0.4624 -1.0280
  980MOL0     C32204   2.974   8.459   0.405 -0.2345  0.0912  0.3595
  980MOL0     C32205   2.823   8.439   0.411  0.4323 -0.2832 -0.9003
  980MOL0     C32206   2.764   8.306   0.364  0.0406 -0.0920  0.0643
  980MOL0     C32207   2.609   8.319   0.361  0.4196 -0.3069  0.2050
  980MOL0     C32208   2.557   8.181   0.329  0.7420 -0.2870  0.3080
  980MOL0     C32209   2.433   8.198   0.243  0.3498 -0.1153 -0.0944
  980MOL0    Cl32210   2.334   8.313   0.339  0.4491  0.0014  0.2779
  980MOL0     C32211   3.482   8.475   0.264 -0.0974 -0.2809  0.0432
  980MOL0     C32212   3.617   8.481   0.269 -0.0062 -0.1195  0.8009
  980MOL0     O32213   3.862   8.653   0.234 -0.0311  0.3606  0.0963
  980MOL0     C32214   4.134   8.602   0.255  0.4019  0.5413  0.5266
  980MOL0     C32215   4.264   8.571   0.261 -0.0997 -0.0146 -0.1553
  980MOL0     N32216   4.780   8.734   0.680 -0.4515  0.6793 -0.4969
  980MOL0     N32217   4.817   8.852   0.714  0.1773  0.2330  0.3572
  980MOL0     C32218   5.795   9.649   1.112 -0.7058 -1.0205  1.0926
  980MOL0     C32219   5.903   9.644   1.190  0.4944 -0.0789 -0.5160
  980MOL0     C32220   6.269   9.468   1.388  0.3853 -0.0707  0.2725
  980MOL0     C32221   6.280   9.565   1.489  0.1842  1.2790  0.2800
  980MOL0     C32222   6.409   9.590   1.553  0.6885  0.0342  1.1891
  980MOL0     C32223   6.532   9.526   1.505  2.1115  0.6775 -0.0077
  980MOL0     O32224   6.659   9.557   1.551 -0.0223  0.0332  0.1018
  980MOL0     C32225   6.682   9.662   1.647  0.7851  0.4816 -0.9316
  980MOL0     C32226   6.829   9.682   1.679  0.3026 -0.5692 -0.6353
  980MOL0     C32227   6.911   9.560   1.728 -0.3221 -0.0186 -0.8768
  980MOL0     C32228   6.856   9.482   1.849 -0.1125 -0.1565  0.0517
  980MOL0     C32229   6.969   9.421   1.925 -0.0294 -0.5852  0.4014
  980MOL0     C32230   7.072   9.386   1.982  0.5851  0.0007 -0.4524
  980MOL0     C32231   6.511   9.432   1.399 -0.1780 -0.1336 -0.7289
  980MOL0     C32232   6.385   9.404   1.342  0.4868 -0.2268 -0.2107
  980MOL0     H32233   5.866   9.321   1.300 -2.3830 -0.5029 -0.1566
  980MOL0     H32234   5.684   9.335   1.168 -2.3447  1.6935  0.2372
  980MOL0     H32235   5.589   9.363   0.921  1.4464 -0.3450  1.3142
  980MOL0     H32236   5.494   9.397   1.078 -2.2903  0.5096 -0.3293
  980MOL0     H32237   5.341   9.536   0.951  0.1363 -0.0095  1.5948
  980MOL0     H32238   5.442   9.507   0.803 -3.6531 -0.2025 -1.3868
  980MOL0     H32239   5.406   9.266   0.815  0.3962  1.9288 -2.7530
  980MOL0     H32240   5.289   9.303   0.954 -3.7446 -0.6435 -1.8079
  980MOL0     H32241   5.176   9.453   0.821  2.2094  1.2438  0.1111
  980MOL0     H32242   5.253   9.426   0.671 -3.3148  0.0074 -1.0636
  980MOL0     H32243   5.088   9.221   0.837 -0.0201 -0.2554  0.0631
  980MOL0     H32244   5.034   9.296   0.680 -0.0783 -0.3242  1.1093
  980MOL0     H32245   5.208   9.177   0.554 -1.1083  0.1252  0.1408
  980MOL0     H32246   5.274   9.108   0.709 -2.2444 -1.5730  2.3974
  980MOL0     H32247   5.169   8.944   0.574 -0.1576  0.5671 -1.5620
  980MOL0     H32248   5.109   8.963   0.738  0.0743 -1.0313  0.1249
  980MOL0     H32249   4.966   9.037   0.484  2.5006 -1.1879 -0.1757
  980MOL0     H32250   4.913   9.097   0.646 -3.5026 -1.4907  0.6116
  980MOL0     H32251   4.992   8.774   0.439 -0.9564 -2.0314 -0.7848
  980MOL0     H32252   4.859   8.546   0.404  1.8337  1.2845 -0.2000
  980MOL0     H32253   4.867   8.488   0.572  0.7987 -1.1286 -2.2078
  980MOL0     H32254   4.631   8.532   0.601 -4.0061 -0.8690 -0.4566
  980MOL0     H32255   4.661   8.400   0.487  0.0282 -0.3436  1.3569
  980MOL0     H32256   4.640   8.669   0.356 -1.8964  2.7547  3.3232
  980MOL0     H32257   4.485   8.621   0.432  1.5666  2.7243  2.3008
  980MOL0     H32258   4.639   8.456   0.231 -1.1841 -1.4200 -3.1103
  980MOL0     H32259   4.513   8.564   0.175 -1.6545 -1.1322 -0.7404
  980MOL0     H32260   4.267   8.237   0.236  1.0013  0.3708 -0.8103
  980MOL0     H32261   3.936   8.232   0.128 -3.2267  0.8845  2.2527
  980MOL0     H32262   4.061   8.143   0.234 -0.8619 -0.6351  1.5737
  980MOL0     H32263   3.926   8.219   0.291  1.8337 -0.4768  1.7246
  980MOL0     H32264   3.668   8.333  -0.032  0.0542  1.1221 -0.2218
  980MOL0     H32265   3.425   8.340  -0.033 -0.8665 -0.1511  1.0510
  980MOL0     H32266   3.230   8.362   0.362  0.6791  2.5049  3.0394
  980MOL0     H32267   3.227   8.533   0.324 -2.7519 -0.2397  0.0886
  980MOL0     H32268   3.010   8.491   0.189 -2.9183  0.2343  0.9527
  980MOL0     H32269   3.018   8.321   0.239 -0.0927 -1.3220  2.0460
  980MOL0     H32270   2.988   8.567   0.414 -0.8239  0.0899  1.6394
  980MOL0     H32271   3.031   8.416   0.488 -0.4507 -0.7459  0.0893
  980MOL0     H32272   2.793   8.433   0.516  0.3205 -4.3852 -1.0143
  980MOL0     H32273   2.776   8.523   0.358 -0.7316  0.0254  0.5549
  980MOL0     H32274   2.784   8.240   0.449  2.6659  2.6310  1.7190
  980MOL0     H32275   2.802   8.274   0.266 -1.5272 -0.2046 -0.5495
  980MOL0     H32276   2.577   8.335   0.464  1.8986 -1.7572  0.9165
  980MOL0     H32277   2.576   8.403   0.299  1.1788 -0.1338  0.0328
  980MOL0     H32278   2.529   8.128   0.421  1.5240 -2.5954 -0.7181
  980MOL0     H32279   2.638   8.130   0.277  0.0840 -0.8325 -0.1996
  980MOL0     H32280   2.389   8.097   0.239  2.5650 -1.0783 -2.6560
  980MOL0     H32281   2.463   8.230   0.143 -0.6256  1.8246  0.1901
  980MOL0     H32282   3.436   8.500   0.359 -0.4912 -0.5632 -0.0681
  980MOL0     H32283   3.665   8.529   0.354 -0.6328  0.6063  0.7551
  980MOL0     H32284   4.109   8.708   0.254 -1.2899  0.2861 -3.1471
  980MOL0     H32285   4.341   8.648   0.260  2.7746 -2.6576 -2.1957
  980MOL0     H32286   5.765   9.740   1.061  0.9332 -0.1407  1.6280
  980MOL0     H32287   5.970   9.729   1.202  1.1206 -0.5597 -0.5096
  980MOL0     H32288   6.189   9.614   1.525  1.6006  2.0038  3.1502
  980MOL0     H32289   6.410   9.654   1.641  1.1090  0.6798  0.7159
  980MOL0     H32290   6.641   9.759   1.617 -3.3063 -0.1836  1.6597
  980MOL0     H32291   6.624   9.641   1.738 -0.3631  2.3674 -1.1694
  980MOL0     H32292   6.838   9.765   1.749 -0.3250  2.3954 -3.7893
  980MOL0     H32293   6.862   9.723   1.583 -1.6693  1.1451 -0.6605
  980MOL0     H32294   7.013   9.596   1.740 -1.4486  4.7437 -3.0701
  980MOL0     H32295   6.921   9.478   1.657  0.8595 -2.1430  1.5881
  980MOL0     H32296   6.796   9.400   1.809 -1.2133 -0.5052  2.2604
  980MOL0     H32297   6.797   9.548   1.913 -2.3677  0.5416 -2.5454
  980MOL0     H32298   7.152   9.355   2.047  0.9956 -0.9994 -1.4052
  980MOL0     H32299   6.602   9.381   1.368  0.3776  0.3415  0.0995
  980MOL0     H32300   6.392   9.329   1.264  2.4227 -0.7031  0.3459
  981MOL0     O32301   0.246   6.858   5.118 -0.4526 -0.9365 -0.7784
  981MOL0     C32302   0.326   6.768   5.098  0.1921 -0.2099 -0.3339
  981MOL0     O32303   0.296   6.643   5.062 -0.2049  0.5246  0.3352
  981MOL0     C32304   0.167   6.598   5.077  0.4451  0.3837  0.1790
  981MOL0     C32305   0.065   6.636   4.985 -0.0701  0.2392  1.2114
  981MOL0     C32306  -0.060   6.586   4.999  0.0370  0.6480 -0.2078
  981MOL0     C32307  -0.097   6.513   5.115  0.4345  0.0996  0.4373
  981MOL0     O32308  -0.223   6.457   5.124 -1.0189 -0.2235 -0.3199
  981MOL0     C32309  -0.336   6.547   5.151  0.0043  0.7842 -0.4074
  981MOL0     C32310  -0.475   6.472   5.143 -0.6707 -0.3525  0.1116
  981MOL0     C32311  -0.585   6.571   5.177 -0.9582  0.4044  0.2738
  981MOL0     C32312  -0.640   6.564   5.318 -0.0655 -0.2417 -0.1758
  981MOL0     C32313  -0.752   6.658   5.347  0.5615  0.8299 -0.3860
  981MOL0     C32314  -0.796   6.662   5.491 -0.1010  0.8210 -0.2123
  981MOL0     C32315  -0.943   6.695   5.511 -0.4041  0.5520  0.2007
  981MOL0     C32316  -1.030   6.581   5.468 -0.5517 -0.0411  0.2230
  981MOL0     N32317  -1.137   6.621   5.377 -0.1908 -0.5391  0.5002
  981MOL0     C32318  -1.260   6.677   5.414  0.0813 -0.0199 -0.4241
  981MOL0     C32319  -1.339   6.658   5.305  1.3068 -0.1270 -0.1095
  981MOL0     C32320  -1.487   6.673   5.322 -0.4488  0.4185  0.4357
  981MOL0     C32321  -1.563   6.658   5.183  0.3093 -0.7321 -0.1800
  981MOL0     C32322  -1.594   6.504   5.142 -0.5318  0.6579  0.4461
  981MOL0     C32323  -1.709   6.499   5.044 -0.0914  0.2370 -0.4705
  981MOL0     O32324  -1.833   6.457   5.109 -0.1650  0.7576  0.6359
  981MOL0     C32325  -1.933   6.459   5.027 -0.4706 -0.0306  0.2657
  981MOL0     C32326  -2.046   6.439   5.092  0.0968  0.2203 -0.2112
  981MOL0     C32327  -2.172   6.437   5.038  0.4844 -0.2654  0.2605
  981MOL0     C32328  -2.289   6.400   5.123 -0.8797 -0.8336 -0.4252
  981MOL0     C32329  -2.184   6.458   4.896  0.9930  0.4950 -0.0039
  981MOL0     C32330  -2.316   6.460   4.815 -0.7583  0.4725 -0.1273
  981MOL0     O32331  -2.304   6.491   4.684 -0.1533 -0.7573 -0.0265
  981MOL0     C32332  -2.404   6.522   4.596  0.5302 -0.2702  0.6591
  981MOL0     C32333  -2.382   6.633   4.517  0.6118  1.1195 -0.0826
  981MOL0     C32334  -2.481   6.678   4.434 -0.1204  0.2650  0.1130
  981MOL0     C32335  -2.588   6.593   4.404 -0.8105 -0.4325  0.3428
  981MOL0     O32336  -2.674   6.614   4.297 -0.4080  0.3717  0.6419
  981MOL0     C32337  -2.603   6.655   4.176  0.1163 -0.3989 -0.6864
  981MOL0     C32338  -2.714   6.707   4.078 -0.4180 -0.8455 -0.9534
  981MOL0     C32339  -2.845   6.627   4.085  0.4685  0.3057 -0.1316
  981MOL0     C32340  -2.946   6.677   3.977 -0.2549  0.4693 -0.5940
  981MOL0     C32341  -3.036   6.561   3.919  0.3826  0.3983  0.8880
  981MOL0     C32342  -3.148   6.611   3.821 -0.2350 -0.4187  0.2355
  981MOL0     C32343  -3.265   6.662   3.894 -0.3907 -0.2059 -0.1737
  981MOL0     C32344  -3.365   6.744   3.802 -0.3533 -0.7352 -0.6372
  981MOL0    Cl32345  -3.433   6.628   3.676 -0.1882  0.5089 -0.1229
  981MOL0     C32346  -2.608   6.476   4.476 -0.4654 -0.0430 -0.3203
  981MOL0     C32347  -2.521   6.441   4.580 -0.1460 -0.3663 -0.8317
  981MOL0     O32348  -2.424   6.436   4.865 -0.2223  0.6674 -0.8289
  981MOL0     C32349  -2.062   6.486   4.822  0.5652  0.3269 -0.6617
  981MOL0     C32350  -1.937   6.483   4.886 -0.1742 -0.3066 -0.5100
  981MOL0     N32351  -1.268   6.601   5.204 -0.0990 -0.0716 -0.1787
  981MOL0     N32352  -1.150   6.591   5.245 -0.1477 -0.6294  0.0063
  981MOL0     C32353  -0.002   6.473   5.201 -0.3251 -0.2707 -0.3746
  981MOL0     C32354   0.130   6.518   5.184  0.5166  0.0085  0.1135
  981MOL0     C32355   0.473   6.801   5.089 -0.9877  0.6054 -0.3346
  981MOL0     C32356   0.527   6.915   5.156  0.1101 -0.2688  0.4418
  981MOL0     C32357   0.667   6.945   5.138  0.5564  0.3724 -0.4419
  981MOL0     C32358   0.746   6.857   5.063  0.1265  0.4089 -0.1425
  981MOL0     O32359   0.882   6.865   5.044  0.0360  0.2205 -0.8660
  981MOL0     C32360   0.949   6.992   5.066 -0.1636  0.2280 -0.2658
  981MOL0     C32361   0.920   7.084   4.958  0.5493 -0.2899  0.1880
  981MOL0     C32362   0.998   7.222   4.971  0.0611  1.5774 -0.5387
  981MOL0     C32363   0.922   7.335   4.906 -0.3177  0.1947  0.0556
  981MOL0     C32364   0.994   7.456   4.908  0.1753 -0.2966 -0.5489
  981MOL0     C32365   1.055   7.558   4.917  0.7584  0.2366  0.1483
  981MOL0     C32366   0.697   6.744   5.009  0.6859  0.2437 -0.1843
  981MOL0     C32367   0.557   6.716   5.019  0.0195  0.0625 -0.5581
  981MOL0     H32368   0.096   6.701   4.903  0.4615 -0.3084  0.9682
  981MOL0     H32369  -0.130   6.624   4.925  0.6655  1.5392 -0.3553
  981MOL0     H32370  -0.335   6.598   5.248 -0.2853 -0.1069  0.0742
  981MOL0     H32371  -0.352   6.619   5.070  1.6338 -0.5247 -1.9642
  981MOL0     H32372  -0.481   6.430   5.042  0.0345  2.9876 -1.4456
  981MOL0     H32373  -0.481   6.389   5.215  0.0577  1.3117  2.1585
  981MOL0     H32374  -0.546   6.672   5.164 -1.8363  0.3727 -4.0998
  981MOL0     H32375  -0.666   6.559   5.104 -0.4823  2.1784 -0.6019
  981MOL0     H32376  -0.673   6.463   5.341 -1.7253 -0.2232 -2.1328
  981MOL0     H32377  -0.558   6.599   5.380  0.9154  1.3255 -2.2074
  981MOL0     H32378  -0.716   6.758   5.318  1.8903  0.4156 -0.2140
  981MOL0     H32379  -0.839   6.627   5.288  3.0396 -1.4762 -3.1149
  981MOL0     H32380  -0.781   6.564   5.537 -2.9290  1.4354  2.4067
  981MOL0     H32381  -0.725   6.730   5.540  1.8600 -0.6417 -0.9111
  981MOL0     H32382  -0.952   6.715   5.618 -1.2289  0.3534  0.1745
  981MOL0     H32383  -0.973   6.787   5.461 -0.2309  1.1027  1.0969
  981MOL0     H32384  -1.071   6.538   5.560  2.7427  0.6238  2.1820
  981MOL0     H32385  -0.972   6.506   5.413 -2.7715 -2.4026  0.9211
  981MOL0     H32386  -1.295   6.705   5.512  3.1171  1.5785  0.3317
  981MOL0     H32387  -1.531   6.602   5.393 -2.0303 -0.8313 -1.6694
  981MOL0     H32388  -1.511   6.768   5.371  0.1369  0.4224  0.7242
  981MOL0     H32389  -1.498   6.700   5.107 -1.0642 -1.2417 -1.7021
  981MOL0     H32390  -1.650   6.724   5.190  1.4690  0.8615 -0.1705
  981MOL0     H32391  -1.616   6.450   5.234 -1.3164  1.5947  0.8304
  981MOL0     H32392  -1.502   6.473   5.090 -1.6201  1.2391 -2.0010
  981MOL0     H32393  -1.695   6.415   4.975 -1.0796 -0.5891  0.2987
  981MOL0     H32394  -1.710   6.599   5.000  0.7591  1.4257  1.9899
  981MOL0     H32395  -2.040   6.412   5.197  1.5263 -1.4801 -0.6975
  981MOL0     H32396  -2.339   6.497   5.136  3.9921  1.7028  1.9073
  981MOL0     H32397  -2.355   6.334   5.066  0.1927 -0.6239 -1.9594
  981MOL0     H32398  -2.261   6.358   5.220 -0.2122  1.5826  0.5236
  981MOL0     H32399  -2.299   6.698   4.544  0.4597  1.4131 -0.3091
  981MOL0     H32400  -2.464   6.776   4.391 -1.0398 -0.3378 -1.7631
  981MOL0     H32401  -2.542   6.744   4.194 -1.8936  0.6672  1.3802
  981MOL0     H32402  -2.558   6.567   4.130 -1.0272 -1.3280 -0.0697
  981MOL0     H32403  -2.734   6.814   4.090 -1.3132 -1.1536  0.5529
  981MOL0     H32404  -2.672   6.700   3.977  0.9066  2.5302 -0.7811
  981MOL0     H32405  -2.886   6.639   4.186 -0.3570 -0.3233 -0.3725
  981MOL0     H32406  -2.828   6.522   4.060  2.3175  0.6955 -0.6777
  981MOL0     H32407  -3.007   6.754   4.026  1.0468 -0.3503  2.5904
  981MOL0     H32408  -2.881   6.723   3.903  0.7815  1.9939  1.1622
  981MOL0     H32409  -3.070   6.502   4.004  2.4672 -0.3199  1.2737
  981MOL0     H32410  -2.972   6.501   3.854 -0.7189  0.9699 -0.7794
  981MOL0     H32411  -3.101   6.687   3.758 -3.4320 -0.2014 -2.1351
  981MOL0     H32412  -3.175   6.527   3.757  1.2110 -0.8484  0.1474
  981MOL0     H32413  -3.232   6.720   3.980  1.4935 -0.0757 -0.9341
  981MOL0     H32414  -3.326   6.576   3.923 -1.6046  0.3484 -1.0014
  981MOL0     H32415  -3.305   6.815   3.744 -2.6375  0.5137 -1.6228
  981MOL0     H32416  -3.437   6.782   3.875  0.5342 -2.6511  1.3539
  981MOL0     H32417  -2.697   6.420   4.449  0.9763 -1.4702 -2.4216
  981MOL0     H32418  -2.535   6.355   4.645 -0.8611  0.4962  0.2000
  981MOL0     H32419  -2.072   6.497   4.714  1.0473 -0.3219 -0.7759
  981MOL0     H32420  -1.854   6.495   4.817  1.0179  1.2831  1.1170
  981MOL0     H32421  -0.027   6.394   5.271 -0.7931 -1.0756 -1.4399
  981MOL0     H32422   0.206   6.470   5.244  0.3447 -1.7996 -1.0270
  981MOL0     H32423   0.464   6.965   5.228  0.5418 -1.9026  2.0133
  981MOL0     H32424   0.721   7.024   5.190  1.9880 -1.1782  0.4988
  981MOL0     H32425   0.920   7.043   5.159  0.8178  1.5660 -0.6586
  981MOL0     H32426   1.057   6.977   5.074 -0.0206  1.1125 -0.4157
  981MOL0     H32427   0.814   7.104   4.938  0.2401 -1.3169  0.7611
  981MOL0     H32428   0.967   7.034   4.872 -0.6432  0.4100 -0.9062
  981MOL0     H32429   1.093   7.211   4.918 -0.4226 -1.7770 -0.9190
  981MOL0     H32430   1.022   7.246   5.075 -0.0678 -2.0162  0.4410
  981MOL0     H32431   0.824   7.343   4.955  0.3215  1.1261  1.2299
  981MOL0     H32432   0.903   7.309   4.802  2.5438 -1.9303 -0.0625
  981MOL0     H32433   1.086   7.658   4.939  0.9693 -0.2504  2.2355
  981MOL0     H32434   0.765   6.679   4.955 -0.1035  0.5649 -1.6072
  981MOL0     H32435   0.523   6.620   4.982 -1.3224  0.6921 -1.0422
  982MOL0     O32436   6.992   4.167   9.345  0.4821  0.4322  1.1464
  982MOL0     C32437   7.042   4.151   9.235 -0.5495 -0.0471  0.0406
  982MOL0     O32438   6.978   4.141   9.117  0.1724  0.1752 -0.3742
  982MOL0     C32439   6.846   4.123   9.113  0.2350  0.0819  0.5025
  982MOL0     C32440   6.781   4.192   9.008 -0.5297  0.4830 -0.4451
  982MOL0     C32441   6.643   4.184   8.988  0.4310  0.4179  0.3389
  982MOL0     C32442   6.564   4.102   9.068 -0.5432  0.4503 -0.6839
  982MOL0     O32443   6.425   4.090   9.068 -0.2980 -0.3813  0.3637
  982MOL0     C32444   6.377   4.028   8.950 -0.6656  0.2255 -0.8244
  982MOL0     C32445   6.222   4.008   8.965  0.0155  0.4775  0.8210
  982MOL0     C32446   6.194   3.915   9.085  0.5492  0.4340 -0.0137
  982MOL0     C32447   6.036   3.902   9.091 -0.2935  0.2191  1.4801
  982MOL0     C32448   5.988   3.842   9.231 -0.9270 -0.2725  1.0247
  982MOL0     C32449   5.845   3.828   9.245  0.5701  0.0259 -0.4838
  982MOL0     C32450   5.764   3.953   9.217 -0.0148  0.2248 -0.0596
  982MOL0     C32451   5.612   3.942   9.240  0.4610 -0.6202  0.3306
  982MOL0     N32452   5.531   4.057   9.199 -0.5677 -0.7584 -0.3663
  982MOL0     C32453   5.481   4.158   9.288  0.0587 -0.5826  1.3130
  982MOL0     C32454   5.400   4.229   9.200  0.9034 -0.2410  0.1720
  982MOL0     C32455   5.333   4.366   9.223  0.4906  0.3506 -0.5324
  982MOL0     C32456   5.335   4.473   9.110  0.2632 -0.2846 -0.0541
  982MOL0     C32457   5.317   4.625   9.158 -0.7380  0.5173 -0.0895
  982MOL0     C32458   5.185   4.638   9.239 -0.2958 -0.2269  0.0490
  982MOL0     O32459   5.085   4.622   9.143 -0.2717  0.2716  0.0952
  982MOL0     C32460   4.956   4.601   9.186  0.2734 -0.3815 -0.7064
  982MOL0     C32461   4.918   4.503   9.283 -0.1275  0.2367  0.8352
  982MOL0     C32462   4.785   4.500   9.321 -0.0692  1.2237 -0.2276
  982MOL0     C32463   4.758   4.402   9.441  0.0167  0.6438 -0.1190
  982MOL0     C32464   4.691   4.582   9.256  0.4934  0.6475 -0.1470
  982MOL0     C32465   4.549   4.550   9.284  0.3714 -0.4137 -0.2838
  982MOL0     O32466   4.484   4.613   9.386 -0.1350  0.0608 -0.1297
  982MOL0     C32467   4.348   4.597   9.396 -0.5120 -0.9820 -0.8934
  982MOL0     C32468   4.257   4.606   9.291  0.2604  0.1260 -0.2309
  982MOL0     C32469   4.115   4.601   9.313 -0.0763  0.3352 -0.6106
  982MOL0     C32470   4.066   4.594   9.447 -0.0215  0.1391  0.1824
  982MOL0     O32471   3.935   4.617   9.472  0.2441  0.8701 -0.2255
  982MOL0     C32472   3.887   4.544   9.587  0.2731  0.2518 -0.3769
  982MOL0     C32473   3.732   4.503   9.583  0.3274 -0.0229  0.9242
  982MOL0     C32474   3.650   4.628   9.577  0.1791  0.3821  1.0471
  982MOL0     C32475   3.504   4.599   9.551 -0.3043  0.4825  0.3413
  982MOL0     C32476   3.411   4.711   9.542 -0.5403 -0.5973 -0.1633
  982MOL0     C32477   3.400   4.772   9.401 -0.2287 -0.1022  1.5049
  982MOL0     C32478   3.272   4.856   9.369  0.8339 -1.0105 -0.6252
  982MOL0     C32479   3.131   4.798   9.371 -0.0953  0.3726 -0.2336
  982MOL0    Cl32480   3.108   4.678   9.250  0.1073  0.1499  0.0132
  982MOL0     C32481   4.155   4.574   9.551 -0.9843 -0.1860 -0.2046
  982MOL0     C32482   4.294   4.570   9.521  0.5901 -0.3796 -0.5595
  982MOL0     O32483   4.492   4.455   9.221 -0.7838  0.0068  0.7418
  982MOL0     C32484   4.724   4.672   9.154  0.3826  0.5879 -0.0963
  982MOL0     C32485   4.861   4.680   9.116  0.8768  1.3536 -0.7117
  982MOL0     N32486   5.410   4.179   9.071 -0.0494 -0.4005 -0.3915
  982MOL0     N32487   5.500   4.090   9.076 -0.0225  0.5858  0.1497
  982MOL0     C32488   6.627   4.033   9.171 -0.4863  0.2540  0.5069
  982MOL0     C32489   6.766   4.041   9.193  1.0313  1.3367  0.1303
  982MOL0     C32490   7.189   4.132   9.236 -0.2543 -0.8340 -0.6923
  982MOL0     C32491   7.270   4.181   9.347 -0.0316  0.3496  0.0783
  982MOL0     C32492   7.404   4.173   9.332 -0.7245 -0.4567  0.3042
  982MOL0     C32493   7.463   4.120   9.216  0.6276  0.7897  0.2880
  982MOL0     O32494   7.606   4.097   9.219  0.3738 -0.2383  0.7070
  982MOL0     C32495   7.670   4.098   9.087 -0.1450 -0.0308  0.0717
  982MOL0     C32496   7.823   4.110   9.100 -0.0584 -0.7128  0.4102
  982MOL0     C32497   7.892   4.000   9.186 -0.8111  0.7247  0.3902
  982MOL0     C32498   7.883   4.019   9.335 -0.3944  0.1075 -0.0753
  982MOL0     C32499   7.962   4.134   9.379 -0.0559  0.5202 -0.3422
  982MOL0     C32500   8.021   4.232   9.408 -0.3171  0.8249 -0.1276
  982MOL0     C32501   7.389   4.081   9.106  0.7282  0.8938  0.8870
  982MOL0     C32502   7.251   4.084   9.126  0.1919  0.2486 -0.1427
  982MOL0     H32503   6.846   4.260   8.953  1.7178 -0.3196  1.0503
  982MOL0     H32504   6.586   4.233   8.910 -1.4619  1.0347  2.0125
  982MOL0     H32505   6.405   4.076   8.856  0.6229  1.2618  0.0527
  982MOL0     H32506   6.416   3.926   8.946  2.2971  1.2503 -0.6148
  982MOL0     H32507   6.160   4.096   8.985  1.2095  0.5700  5.1392
  982MOL0     H32508   6.196   3.970   8.865  3.5489  0.8500 -0.3740
  982MOL0     H32509   6.247   3.820   9.090  1.9330  1.1815  3.9728
  982MOL0     H32510   6.227   3.967   9.176  2.8970  0.7402 -0.9770
  982MOL0     H32511   5.994   4.002   9.080 -0.8478 -0.1541 -0.0825
  982MOL0     H32512   6.005   3.836   9.008  1.0045 -0.2131  1.3121
  982MOL0     H32513   6.029   3.741   9.239  0.4529  0.4159  3.7126
  982MOL0     H32514   6.027   3.897   9.318 -0.8384 -0.9575  1.4288
  982MOL0     H32515   5.802   3.752   9.179 -1.1472  0.1974  0.3986
  982MOL0     H32516   5.823   3.810   9.351  1.4501  0.5794 -0.1912
  982MOL0     H32517   5.801   4.038   9.276 -0.0251 -0.0865  0.3992
  982MOL0     H32518   5.785   3.987   9.115 -0.3546 -1.0257 -0.5659
  982MOL0     H32519   5.598   3.928   9.348 -0.1598  3.1617  0.8790
  982MOL0     H32520   5.585   3.845   9.197  2.6197 -1.3233  0.4405
  982MOL0     H32521   5.512   4.170   9.391  1.0558 -0.3783  1.0010
  982MOL0     H32522   5.227   4.355   9.249  0.6830 -1.6928 -0.4773
  982MOL0     H32523   5.376   4.418   9.309 -2.0033  4.1697 -1.3319
  982MOL0     H32524   5.251   4.438   9.049 -0.0651 -2.1717  1.3781
  982MOL0     H32525   5.427   4.471   9.051  0.5093 -0.9608  0.3385
  982MOL0     H32526   5.312   4.691   9.071 -2.5678  1.5113  0.7207
  982MOL0     H32527   5.404   4.651   9.219 -1.8063  3.1060  0.4715
  982MOL0     H32528   5.174   4.742   9.269  0.6590  0.9056 -3.1560
  982MOL0     H32529   5.182   4.566   9.322  1.0103  1.5232  1.7194
  982MOL0     H32530   4.986   4.429   9.324  0.6571  0.0350 -0.7836
  982MOL0     H32531   4.837   4.395   9.517 -0.8827 -0.7470  0.7183
  982MOL0     H32532   4.669   4.442   9.491 -1.2995 -2.3479  0.0882
  982MOL0     H32533   4.722   4.303   9.415 -1.3687  1.0764  0.0620
  982MOL0     H32534   4.308   4.616   9.196 -0.7128 -1.7186 -0.9752
  982MOL0     H32535   4.042   4.620   9.235 -0.7413  0.2117 -0.0208
  982MOL0     H32536   3.941   4.449   9.596  3.3566  1.6295 -2.5824
  982MOL0     H32537   3.908   4.604   9.676  0.6149  1.5000 -1.2676
  982MOL0     H32538   3.710   4.449   9.490  2.2373 -2.8138  1.9841
  982MOL0     H32539   3.711   4.428   9.659  0.7725 -3.0727 -1.7529
  982MOL0     H32540   3.672   4.703   9.501  1.7681  1.5664  2.5773
  982MOL0     H32541   3.667   4.669   9.677 -0.6159  1.3469  0.7965
  982MOL0     H32542   3.482   4.538   9.463  0.9708  0.7308 -0.1684
  982MOL0     H32543   3.465   4.531   9.627  1.6986 -3.4315 -1.8549
  982MOL0     H32544   3.432   4.778   9.627 -3.1120  1.1874 -0.8458
  982MOL0     H32545   3.310   4.676   9.562 -0.7816  1.0469  1.8877
  982MOL0     H32546   3.488   4.837   9.409 -0.1810  0.1091 -0.4011
  982MOL0     H32547   3.432   4.707   9.319  0.0456  0.4243  1.1911
  982MOL0     H32548   3.274   4.898   9.268 -0.7315 -0.5405 -0.4813
  982MOL0     H32549   3.280   4.937   9.443  1.4452  0.4345 -2.1989
  982MOL0     H32550   3.058   4.875   9.345  1.1109  1.0055 -1.9205
  982MOL0     H32551   3.109   4.746   9.465  1.6743  0.4103  0.2411
  982MOL0     H32552   4.126   4.582   9.656 -1.8772 -1.7832 -0.2897
  982MOL0     H32553   4.364   4.549   9.602 -1.8802 -1.1655  1.5220
  982MOL0     H32554   4.656   4.721   9.086 -2.1717 -0.3839  1.6130
  982MOL0     H32555   4.892   4.743   9.033  3.3553  0.5864 -0.4501
  982MOL0     H32556   6.564   3.968   9.231 -0.5904 -2.3917 -2.2179
  982MOL0     H32557   6.815   3.976   9.264  0.4762 -1.2781 -1.7358
  982MOL0     H32558   7.220   4.238   9.425 -0.5747  0.4284 -0.3173
  982MOL0     H32559   7.472   4.189   9.415  1.1275 -2.4109 -0.7282
  982MOL0     H32560   7.644   4.009   9.029  1.2292 -0.4405  0.0244
  982MOL0     H32561   7.638   4.192   9.041 -4.5343 -0.6884  1.3147
  982MOL0     H32562   7.835   4.208   9.148 -0.3479 -0.8356  0.7364
  982MOL0     H32563   7.870   4.104   9.001 -1.5155 -2.9030 -0.2120
  982MOL0     H32564   7.999   4.005   9.163 -0.1323  0.5647  3.1412
  982MOL0     H32565   7.860   3.902   9.149  2.6674  0.1794 -1.6439
  982MOL0     H32566   7.932   3.930   9.373 -0.4476  0.1381  0.0637
  982MOL0     H32567   7.782   4.021   9.377 -0.8825  3.4152 -1.0516
  982MOL0     H32568   8.067   4.326   9.431 -1.0525  0.9866  0.7465
  982MOL0     H32569   7.428   4.048   9.011  1.3220 -1.4958  1.8817
  982MOL0     H32570   7.188   4.031   9.055 -0.7886 -4.2241  3.5536
  983MOL0     O32571  11.089   6.909   3.871  0.1627 -0.4604  0.2593
  983MOL0     C32572  11.116   7.033   3.890  0.3607  0.1365  0.6078
  983MOL0     O32573  11.234   7.099   3.861  0.9492  0.6545  0.7097
  983MOL0     C32574  11.335   7.020   3.809  0.6769  0.2644  0.7558
  983MOL0     C32575  11.423   6.953   3.887 -0.2963  1.1133  1.3103
  983MOL0     C32576  11.510   6.860   3.824  0.0955  0.7478  0.6292
  983MOL0     C32577  11.513   6.838   3.686 -0.4618  0.1129  0.0391
  983MOL0     O32578  11.611   6.756   3.633  0.3201 -0.3374 -0.0726
  983MOL0     C32579  11.622   6.738   3.491 -0.0693  0.2420 -0.2233
  983MOL0     C32580  11.721   6.622   3.461 -1.0023 -0.3531  0.7489
  983MOL0     C32581  11.773   6.619   3.313 -0.6828 -0.4710  0.0640
  983MOL0     C32582  11.857   6.492   3.303 -0.3429  0.6423  0.1649
  983MOL0     C32583  11.915   6.474   3.163 -0.3575  1.2909 -0.0755
  983MOL0     C32584  12.055   6.402   3.162  0.8524  0.6388  0.0639
  983MOL0     C32585  12.057   6.253   3.221 -0.2806  0.0934 -0.8966
  983MOL0     C32586  12.037   6.149   3.106  0.3399 -0.9883  0.7211
  983MOL0     N32587  11.956   6.031   3.130 -0.4277 -0.3413 -0.5534
  983MOL0     C32588  12.000   5.901   3.146 -0.2537 -0.0224  0.8035
  983MOL0     C32589  11.886   5.835   3.181  0.2217 -1.1454  0.2515
  983MOL0     C32590  11.877   5.694   3.192 -1.0828  0.4852 -0.2294
  983MOL0     C32591  11.878   5.625   3.059  0.3980  0.0420  0.1144
  983MOL0     C32592  11.794   5.695   2.953  0.2184  1.1267  0.0152
  983MOL0     C32593  11.644   5.702   3.003 -0.2404  0.1897  0.4359
  983MOL0     O32594  11.586   5.794   2.910  0.1222 -0.3158 -0.1523
  983MOL0     C32595  11.456   5.814   2.914  0.0311  0.6010  0.3008
  983MOL0     C32596  11.403   5.830   2.795  0.0457 -0.2578  0.1325
  983MOL0     C32597  11.270   5.858   2.769  0.3531  0.2375 -0.0326
  983MOL0     C32598  11.218   5.882   2.626  0.5914  0.3431  0.0794
  983MOL0     C32599  11.184   5.872   2.886  0.0020 -0.3233  0.3971
  983MOL0     C32600  11.052   5.939   2.886  0.4916  0.4206 -0.4798
  983MOL0     O32601  10.989   5.965   2.767  0.6151 -0.3887 -0.7094
  983MOL0     C32602  10.862   6.021   2.786  0.2262 -0.6948  0.1853
  983MOL0     C32603  10.834   6.149   2.743 -0.2861  0.8143  0.0654
  983MOL0     C32604  10.708   6.206   2.734  0.0157 -0.0383  0.2630
  983MOL0     C32605  10.589   6.132   2.768 -0.2174 -0.1728  0.3201
  983MOL0     O32606  10.455   6.169   2.749 -0.3196  0.5751  0.0230
  983MOL0     C32607  10.436   6.276   2.658  1.1213 -0.0312  0.4056
  983MOL0     C32608  10.288   6.302   2.638  0.1832 -0.2748 -0.3588
  983MOL0     C32609  10.223   6.347   2.769 -0.0415 -0.8410 -0.6702
  983MOL0     C32610  10.082   6.413   2.746  0.4376 -0.9893 -1.1480
  983MOL0     C32611  10.001   6.435   2.880  0.3551  0.5309 -0.3782
  983MOL0     C32612   9.945   6.313   2.941 -0.0711 -0.8699  0.0534
  983MOL0     C32613   9.836   6.246   2.857 -0.7228  0.5641  0.2229
  983MOL0     C32614   9.726   6.195   2.947  1.1113 -1.0184 -0.2231
  983MOL0    Cl32615   9.783   6.065   3.054 -0.1966  0.3464 -0.1587
  983MOL0     C32616  10.611   6.013   2.831 -0.3215  0.0238 -0.0457
  983MOL0     C32617  10.742   5.958   2.836  0.3974 -0.4548  0.2116
  983MOL0     O32618  11.002   5.958   2.999  0.2186  0.4269 -0.3357
  983MOL0     C32619  11.239   5.835   3.013  0.8015 -0.0381  0.1173
  983MOL0     C32620  11.372   5.813   3.027  0.7418  0.5597 -0.2425
  983MOL0     N32621  11.791   5.927   3.207  0.0172 -0.0638  0.0587
  983MOL0     N32622  11.827   6.041   3.171 -0.3745 -0.2788 -0.1973
  983MOL0     C32623  11.425   6.912   3.607 -0.6404  0.7000  0.2129
  983MOL0     C32624  11.332   6.996   3.668 -0.3700  0.9207 -0.1519
  983MOL0     C32625  10.989   7.112   3.941 -0.6604  0.3442  0.0943
  983MOL0     C32626  10.998   7.248   3.966  0.0637  0.4358  0.2473
  983MOL0     C32627  10.884   7.317   4.005 -0.2912  0.1709  0.4700
  983MOL0     C32628  10.765   7.251   4.033  0.6804 -0.0898  0.9942
  983MOL0     O32629  10.662   7.340   4.045 -0.5689  0.4355  0.8102
  983MOL0     C32630  10.525   7.294   4.015 -0.6490 -0.3279  0.7992
  983MOL0     C32631  10.422   7.406   4.029  0.2415 -0.7763  0.2113
  983MOL0     C32632  10.276   7.346   4.024  0.3888  0.2182 -0.7732
  983MOL0     C32633  10.185   7.467   4.037 -1.5662 -0.7110 -0.2718
  983MOL0     C32634  10.050   7.420   4.028 -0.6593  0.4670  0.6548
  983MOL0     C32635   9.941   7.369   4.005 -0.0477  0.5287 -0.9863
  983MOL0     C32636  10.751   7.116   4.008 -0.1238  0.5346 -0.7922
  983MOL0     C32637  10.866   7.039   3.970  0.3884  0.5092 -0.5298
  983MOL0     H32638  11.421   6.976   3.993  1.6995 -0.1870  1.6828
  983MOL0     H32639  11.575   6.796   3.883  0.0205  0.8152  0.7834
  983MOL0     H32640  11.526   6.713   3.444 -0.8179 -1.5902  2.1063
  983MOL0     H32641  11.661   6.833   3.452  0.4123  0.5622  0.9940
  983MOL0     H32642  11.801   6.644   3.532 -1.6569  1.4253  0.9813
  983MOL0     H32643  11.676   6.526   3.489 -4.0922  0.2572 -1.5840
  983MOL0     H32644  11.695   6.614   3.237 -0.9184  1.1670  0.1521
  983MOL0     H32645  11.835   6.708   3.296 -1.6893 -0.1044 -2.0624
  983MOL0     H32646  11.933   6.502   3.381  0.5967  1.9010 -0.8580
  983MOL0     H32647  11.795   6.407   3.331 -1.1280  1.2359  0.2546
  983MOL0     H32648  11.849   6.417   3.098  2.0836 -0.3655 -1.2790
  983MOL0     H32649  11.946   6.573   3.127  2.0551  0.3771 -0.7175
  983MOL0     H32650  12.112   6.392   3.069  1.2828 -5.0229  0.6134
  983MOL0     H32651  12.120   6.464   3.224 -0.8584  3.1039 -0.4354
  983MOL0     H32652  12.153   6.225   3.267 -0.8035  2.7616  2.1807
  983MOL0     H32653  11.972   6.246   3.289  1.0488 -1.2812  0.7041
  983MOL0     H32654  12.133   6.119   3.064  0.1600  0.2653 -0.6898
  983MOL0     H32655  11.968   6.196   3.035  0.3103  0.3095  1.5607
  983MOL0     H32656  12.095   5.855   3.121  0.2509 -0.8380  3.8252
  983MOL0     H32657  11.954   5.662   3.263 -1.8129  0.5240  0.5998
  983MOL0     H32658  11.784   5.670   3.244 -0.4886 -0.1180  0.5900
  983MOL0     H32659  11.859   5.519   3.074 -0.5065  0.3431  1.2397
  983MOL0     H32660  11.977   5.616   3.012 -0.4292 -1.8031 -1.4200
  983MOL0     H32661  11.800   5.625   2.869 -0.1467 -1.7858  2.2377
  983MOL0     H32662  11.832   5.791   2.919  4.8754 -0.7263 -0.7848
  983MOL0     H32663  11.628   5.728   3.108  1.5972 -2.5957  1.5045
  983MOL0     H32664  11.591   5.607   2.991  0.5117 -0.3312  1.1705
  983MOL0     H32665  11.466   5.842   2.706 -1.3367 -1.4949 -1.0616
  983MOL0     H32666  11.283   5.825   2.558  1.6444  0.2385  1.1410
  983MOL0     H32667  11.117   5.843   2.611  0.8853 -0.1528 -0.6998
  983MOL0     H32668  11.220   5.988   2.600 -2.4184  0.9225  1.6968
  983MOL0     H32669  10.917   6.208   2.706 -0.4880  0.3251 -1.2287
  983MOL0     H32670  10.714   6.304   2.688  1.7628 -0.2837 -0.1240
  983MOL0     H32671  10.488   6.363   2.699  2.5522 -0.2875 -0.8112
  983MOL0     H32672  10.477   6.242   2.563 -0.8982  0.2658 -0.6247
  983MOL0     H32673  10.279   6.378   2.560 -1.5622  2.6469  2.4314
  983MOL0     H32674  10.240   6.211   2.599 -0.8650 -0.7003  1.8031
  983MOL0     H32675  10.295   6.420   2.807  2.2628 -2.3069 -1.9775
  983MOL0     H32676  10.224   6.265   2.841  1.2848 -2.3779 -2.3198
  983MOL0     H32677  10.098   6.507   2.693  2.9927  0.2484  1.5167
  983MOL0     H32678  10.025   6.344   2.683  2.1705 -2.7483 -0.9112
  983MOL0     H32679   9.919   6.506   2.865 -0.4786 -0.2570  0.3309
  983MOL0     H32680  10.062   6.485   2.956  1.7301 -2.6097  0.7465
  983MOL0     H32681  10.022   6.241   2.970  2.2508  1.0236 -0.9370
  983MOL0     H32682   9.899   6.343   3.035 -0.7436  1.2543 -0.8947
  983MOL0     H32683   9.869   6.173   2.781 -1.6627 -1.0380  1.2992
  983MOL0     H32684   9.791   6.324   2.795  1.5765  0.8656 -1.2044
  983MOL0     H32685   9.647   6.149   2.888  1.7142 -0.1734 -1.7473
  983MOL0     H32686   9.679   6.274   3.007 -0.2567 -1.7317 -0.3112
  983MOL0     H32687  10.530   5.956   2.874 -1.9376  2.9482  1.0763
  983MOL0     H32688  10.745   5.864   2.889 -1.3008 -1.2015 -0.9027
  983MOL0     H32689  11.184   5.826   3.107 -1.6711  3.2855 -0.8287
  983MOL0     H32690  11.423   5.790   3.120  4.3299  0.7912 -1.9816
  983MOL0     H32691  11.421   6.903   3.499 -1.4332 -0.2743  0.3119
  983MOL0     H32692  11.260   7.050   3.608 -1.0810 -0.0153 -0.1621
  983MOL0     H32693  11.087   7.305   3.941 -0.6356  0.8979 -1.3545
  983MOL0     H32694  10.894   7.425   4.012  0.0649  0.0597  2.0467
  983MOL0     H32695  10.527   7.246   3.917  1.1283 -1.2190  1.2271
  983MOL0     H32696  10.506   7.224   4.097  1.3763  1.0320  2.5493
  983MOL0     H32697  10.439   7.472   3.944  1.2477  0.9601  1.7077
  983MOL0     H32698  10.440   7.461   4.121 -1.6295  0.5963 -0.1755
  983MOL0     H32699  10.276   7.278   4.109  2.5581  1.2622  0.1722
  983MOL0     H32700  10.246   7.284   3.939  1.2081  3.3852 -3.5971
  983MOL0     H32701  10.215   7.532   3.953 -1.3225  1.5628  1.4626
  983MOL0     H32702  10.195   7.518   4.133 -1.0907 -3.3293  1.1519
  983MOL0     H32703   9.845   7.331   3.978 -1.0131  0.7006  1.8516
  983MOL0     H32704  10.656   7.068   4.031 -0.1557  1.0336  0.2055
  983MOL0     H32705  10.856   6.934   3.945 -0.7236 -0.7189  4.0908
  984MOL0     O32706   3.147   3.307   3.634 -0.2491 -0.6709 -0.3407
  984MOL0     C32707   3.180   3.193   3.621 -0.2657 -0.4861 -1.1053
  984MOL0     O32708   3.166   3.098   3.718  0.6442  0.2536 -0.9889
  984MOL0     C32709   3.078   3.139   3.815 -0.3295 -0.1039  0.0587
  984MOL0     C32710   2.946   3.103   3.788 -0.5259 -0.0877  0.2048
  984MOL0     C32711   2.843   3.127   3.888 -0.6403  0.2260  0.4428
  984MOL0     C32712   2.880   3.178   4.009 -0.9135 -0.2531  0.8544
  984MOL0     O32713   2.788   3.207   4.107  0.2420  0.8110 -0.3516
  984MOL0     C32714   2.648   3.217   4.084  0.1412  0.3246 -0.6922
  984MOL0     C32715   2.576   3.238   4.222 -0.3818  0.4716  0.1624
  984MOL0     C32716   2.542   3.107   4.297  0.1016 -0.9069 -0.1892
  984MOL0     C32717   2.454   3.149   4.414  0.6267 -0.4279 -1.0120
  984MOL0     C32718   2.395   3.035   4.500 -1.1897 -0.4209 -0.4972
  984MOL0     C32719   2.308   3.100   4.612 -0.0306 -0.4152  0.3207
  984MOL0     C32720   2.260   2.988   4.712 -0.4687 -0.5347  0.3478
  984MOL0     C32721   2.137   2.914   4.658  0.9364  0.0134  0.0828
  984MOL0     N32722   2.017   3.000   4.686 -0.1995 -0.1634 -0.4763
  984MOL0     C32723   1.949   3.003   4.807 -0.0519  0.8558  0.7078
  984MOL0     C32724   1.861   3.100   4.793  0.1952 -0.2096  0.1652
  984MOL0     C32725   1.750   3.137   4.893 -0.2102  0.2360  0.3353
  984MOL0     C32726   1.638   3.240   4.844 -0.7969 -0.4141  0.4200
  984MOL0     C32727   1.507   3.239   4.924  0.0714  0.0180  0.0211
  984MOL0     C32728   1.494   3.345   5.019 -0.1463 -0.2017 -0.0615
  984MOL0     O32729   1.364   3.354   5.073 -0.6878  0.5287 -0.0283
  984MOL0     C32730   1.276   3.435   5.019  0.6376 -0.4361  0.2483
  984MOL0     C32731   1.278   3.493   4.889  0.0886 -0.4654 -0.2444
  984MOL0     C32732   1.173   3.570   4.842 -0.2615 -1.0683  0.2007
  984MOL0     C32733   1.195   3.627   4.707 -0.0274 -0.5293 -0.7685
  984MOL0     C32734   1.061   3.600   4.928 -0.0187 -0.8608 -0.2092
  984MOL0     C32735   0.943   3.689   4.896 -0.3492  0.5347 -0.0006
  984MOL0     O32736   0.841   3.680   4.988 -0.2622 -0.8190 -0.4251
  984MOL0     C32737   0.738   3.768   4.991 -0.4126  0.4791 -0.2948
  984MOL0     C32738   0.606   3.725   5.009 -0.1506 -0.0351 -0.4161
  984MOL0     C32739   0.503   3.822   5.013 -0.3591  0.0810  0.4942
  984MOL0     C32740   0.519   3.957   4.982  0.0562 -1.6366 -0.8367
  984MOL0     O32741   0.413   4.048   4.969 -0.1838 -0.0799  0.1650
  984MOL0     C32742   0.420   4.134   4.858 -0.5456 -0.0505 -1.1035
  984MOL0     C32743   0.276   4.157   4.813  0.2367 -0.7213  0.0038
  984MOL0     C32744   0.219   4.295   4.857 -0.5607 -0.1300  0.3970
  984MOL0     C32745   0.307   4.419   4.809 -0.2175  0.5878 -0.3416
  984MOL0     C32746   0.267   4.547   4.872  0.1669 -0.2989 -0.6046
  984MOL0     C32747   0.147   4.615   4.807 -0.3560  0.6771 -0.0699
  984MOL0     C32748   0.111   4.750   4.873  0.3917 -0.2684 -0.5395
  984MOL0     C32749   0.002   4.819   4.804  0.2249  0.3316  0.1215
  984MOL0    Cl32750   0.042   4.850   4.631 -0.0266 -0.1519  0.5676
  984MOL0     C32751   0.651   4.003   4.969 -0.4252  0.4842 -0.2446
  984MOL0     C32752   0.753   3.906   4.970  0.4601 -0.6882  0.1548
  984MOL0     O32753   0.950   3.754   4.796 -0.0041 -0.1040  0.2295
  984MOL0     C32754   1.058   3.534   5.050 -0.5355 -0.3427 -0.3021
  984MOL0     C32755   1.163   3.455   5.100  0.9920 -0.1301  1.2059
  984MOL0     N32756   1.872   3.156   4.666  0.2035 -0.1112 -0.0901
  984MOL0     N32757   1.959   3.087   4.601  0.5348  1.3890 -0.0253
  984MOL0     C32758   3.015   3.215   4.033  0.1242 -0.1159  0.3622
  984MOL0     C32759   3.112   3.196   3.931  0.0038 -0.1529  0.5428
  984MOL0     C32760   3.283   3.163   3.523 -0.4098 -0.3978 -0.5633
  984MOL0     C32761   3.357   3.038   3.528 -0.3967  0.0520 -0.2378
  984MOL0     C32762   3.440   2.991   3.424  0.3715 -0.6865  0.2016
  984MOL0     C32763   3.461   3.079   3.316  0.2355 -0.1269 -0.4242
  984MOL0     O32764   3.560   3.062   3.221  0.6258  0.0605 -0.1966
  984MOL0     C32765   3.629   2.935   3.211  0.2627 -0.1505 -0.4449
  984MOL0     C32766   3.722   2.939   3.090  0.0336  0.2634  0.2192
  984MOL0     C32767   3.847   3.025   3.122  0.1200 -0.8031 -1.1810
  984MOL0     C32768   3.938   3.033   3.000  0.1988 -0.0039  0.0002
  984MOL0     C32769   4.012   3.163   2.997 -1.0775  0.1715  0.4662
  984MOL0     C32770   4.072   3.270   2.978 -0.1113 -0.4327  1.4644
  984MOL0     C32771   3.383   3.201   3.306  1.0774 -0.4448  0.0956
  984MOL0     C32772   3.298   3.249   3.408 -0.2921  0.4442  0.4888
  984MOL0     H32773   2.929   3.049   3.695 -2.0044  1.0252 -0.1985
  984MOL0     H32774   2.743   3.116   3.849  0.1068  1.2804 -1.9767
  984MOL0     H32775   2.632   3.297   4.011  0.8223 -0.9702 -2.3045
  984MOL0     H32776   2.615   3.121   4.043  4.2014 -1.7278  0.3584
  984MOL0     H32777   2.635   3.311   4.278  0.5710 -0.2483  0.1269
  984MOL0     H32778   2.476   3.277   4.199 -0.9804  1.0124  3.2715
  984MOL0     H32779   2.475   3.037   4.245 -0.8879  0.4499 -0.7994
  984MOL0     H32780   2.635   3.063   4.334  0.4767 -0.4213 -0.5538
  984MOL0     H32781   2.518   3.209   4.479 -0.9171  0.8704 -0.6387
  984MOL0     H32782   2.365   3.200   4.377  0.4107 -1.2062 -1.5953
  984MOL0     H32783   2.342   2.956   4.447 -1.2816 -1.8306  1.5615
  984MOL0     H32784   2.477   2.980   4.546 -0.3754 -1.1627 -2.7245
  984MOL0     H32785   2.368   3.179   4.658  1.0143 -1.2912  0.5169
  984MOL0     H32786   2.221   3.147   4.565  0.5039 -0.4830 -0.7671
  984MOL0     H32787   2.340   2.915   4.723 -0.5290 -0.6046  0.3287
  984MOL0     H32788   2.238   3.028   4.811  1.5874  0.0379  0.6118
  984MOL0     H32789   2.130   2.816   4.706 -0.3485 -0.2118 -0.5360
  984MOL0     H32790   2.151   2.903   4.550 -1.8956  2.2891 -0.6245
  984MOL0     H32791   1.968   2.938   4.892  2.7595  1.2050  0.4422
  984MOL0     H32792   1.697   3.046   4.922 -2.0789  1.0172 -0.4211
  984MOL0     H32793   1.800   3.190   4.974 -0.2855  0.6597  0.1089
  984MOL0     H32794   1.609   3.219   4.741  2.0809  1.6998 -0.9735
  984MOL0     H32795   1.680   3.341   4.837 -0.0797 -0.8020 -1.3665
  984MOL0     H32796   1.502   3.140   4.970  0.9657 -0.9220 -1.7718
  984MOL0     H32797   1.428   3.258   4.851 -1.2060  0.7543  1.5372
  984MOL0     H32798   1.518   3.436   4.963 -2.2897 -0.1789 -1.0558
  984MOL0     H32799   1.561   3.326   5.103 -0.1631  0.1679  0.0378
  984MOL0     H32800   1.371   3.485   4.833  1.0186 -0.1507  1.1926
  984MOL0     H32801   1.226   3.732   4.719 -0.2267 -0.7611  2.5717
  984MOL0     H32802   1.264   3.567   4.647  2.8704  2.3832 -0.6578
  984MOL0     H32803   1.101   3.623   4.652 -0.5640 -0.9027  0.1661
  984MOL0     H32804   0.600   3.618   5.026  1.7681  0.0801  1.3935
  984MOL0     H32805   0.407   3.781   5.041 -0.2877  1.4577  3.1490
  984MOL0     H32806   0.475   4.223   4.891 -0.4025 -0.2578 -0.7745
  984MOL0     H32807   0.472   4.090   4.772  3.8287 -1.4325  1.9005
  984MOL0     H32808   0.262   4.151   4.705 -4.7383  0.1301  0.3700
  984MOL0     H32809   0.210   4.081   4.856  0.7811 -1.3908 -0.3121
  984MOL0     H32810   0.210   4.298   4.966 -1.7968  1.7436  0.2959
  984MOL0     H32811   0.114   4.307   4.830 -0.8914 -1.9013  0.8148
  984MOL0     H32812   0.413   4.403   4.834  0.2003  1.9296 -1.1528
  984MOL0     H32813   0.307   4.420   4.700  0.6894  1.5223 -0.3469
  984MOL0     H32814   0.352   4.612   4.852  2.0821 -1.1685  3.5690
  984MOL0     H32815   0.250   4.529   4.979  3.1537  0.3463  0.0837
  984MOL0     H32816   0.168   4.640   4.703 -1.1810 -0.2173 -0.4694
  984MOL0     H32817   0.065   4.545   4.822 -0.1589  0.3459 -0.5176
  984MOL0     H32818   0.205   4.806   4.875  1.8307 -2.5110 -0.7995
  984MOL0     H32819   0.077   4.744   4.977  3.2093 -0.3467  0.4525
  984MOL0     H32820  -0.015   4.913   4.858 -0.8561 -0.3356  0.9809
  984MOL0     H32821  -0.087   4.756   4.797  0.2903  0.4184 -1.9792
  984MOL0     H32822   0.671   4.109   4.954 -0.9461  1.1739  3.2207
  984MOL0     H32823   0.852   3.949   4.962  0.3009 -0.5541 -1.5334
  984MOL0     H32824   0.975   3.534   5.121 -0.6138 -1.2599 -0.3839
  984MOL0     H32825   1.157   3.394   5.189  4.4968 -2.1848  0.2099
  984MOL0     H32826   3.045   3.248   4.132 -1.6812  1.2094  0.5140
  984MOL0     H32827   3.212   3.235   3.942 -0.2813  0.4963  0.8635
  984MOL0     H32828   3.352   2.966   3.610 -0.4619  1.9360  1.4777
  984MOL0     H32829   3.489   2.895   3.433 -1.7071 -2.0799 -2.1954
  984MOL0     H32830   3.684   2.916   3.304  0.0603 -2.0358 -0.6606
  984MOL0     H32831   3.556   2.855   3.194  0.7886 -0.2481 -2.4474
  984MOL0     H32832   3.671   2.991   3.008  4.3016 -0.8814 -3.5700
  984MOL0     H32833   3.768   2.845   3.059  2.4284  0.6459  2.3124
  984MOL0     H32834   3.903   2.990   3.209 -1.9646 -0.6448  0.2909
  984MOL0     H32835   3.816   3.126   3.148  2.3892 -0.4194  0.2787
  984MOL0     H32836   3.878   3.039   2.910  1.8493  3.7733 -1.0516
  984MOL0     H32837   4.002   2.944   2.998  2.0433  1.2725 -0.6048
  984MOL0     H32838   4.113   3.366   2.954 -2.3245 -0.4581 -3.7257
  984MOL0     H32839   3.407   3.246   3.210  0.9932 -3.0707 -1.2625
  984MOL0     H32840   3.235   3.337   3.407 -1.6828 -0.4313 -2.4955
  985MOL0     O32841  11.007   0.454   5.828 -0.8093 -0.4602  0.4930
  985MOL0     C32842  11.029   0.573   5.793 -0.0867  0.8770 -1.0866
  985MOL0     O32843  10.931   0.652   5.754 -0.0872 -0.5765  0.2516
  985MOL0     C32844  10.812   0.606   5.701  0.6259  0.2227  0.3632
  985MOL0     C32845  10.691   0.629   5.767  0.1095 -0.0049  0.1079
  985MOL0     C32846  10.571   0.572   5.734  0.5284  0.4931 -0.7008
  985MOL0     C32847  10.565   0.474   5.635  0.3451 -0.4819 -0.1075
  985MOL0     O32848  10.454   0.409   5.592  0.6241  0.4364  0.3809
  985MOL0     C32849  10.329   0.440   5.642 -0.0649 -0.8986 -0.3674
  985MOL0     C32850  10.212   0.377   5.570  0.3506  0.1826 -0.7944
  985MOL0     C32851  10.078   0.384   5.645  0.6391  0.8188 -0.2741
  985MOL0     C32852   9.963   0.335   5.552 -0.1158  0.1614  0.0545
  985MOL0     C32853   9.834   0.381   5.622 -0.4595  0.7313 -0.0370
  985MOL0     C32854   9.712   0.376   5.534 -0.0825  0.4434 -0.3796
  985MOL0     C32855   9.594   0.408   5.627 -0.4924  0.5519 -0.5258
  985MOL0     C32856   9.527   0.272   5.666  1.2401  0.0911  0.1470
  985MOL0     N32857   9.411   0.273   5.757  0.2563 -0.5445 -0.5089
  985MOL0     C32858   9.345   0.386   5.794  0.4201  0.2379 -0.9788
  985MOL0     C32859   9.233   0.347   5.860 -0.1498 -0.5266  0.3453
  985MOL0     C32860   9.121   0.427   5.915  0.0356  0.5450  0.2839
  985MOL0     C32861   8.985   0.351   5.920 -0.3897 -0.6664  0.4099
  985MOL0     C32862   8.877   0.441   5.975  0.1811 -0.2555 -0.1720
  985MOL0     C32863   8.734   0.387   5.978 -0.0334  0.0118 -0.0109
  985MOL0     O32864   8.691   0.333   5.845  0.2976 -0.4542 -0.1394
  985MOL0     C32865   8.563   0.288   5.829 -0.5282 -0.2358 -0.0112
  985MOL0     C32866   8.473   0.283   5.934 -0.1084  0.0430 -0.1539
  985MOL0     C32867   8.342   0.234   5.923  0.0449  0.2071 -0.3482
  985MOL0     C32868   8.243   0.244   6.042 -0.4975  0.3705 -0.8439
  985MOL0     C32869   8.303   0.186   5.794  0.7512 -0.2892  0.6795
  985MOL0     C32870   8.170   0.145   5.763  0.2141  0.5903  0.4377
  985MOL0     O32871   8.144   0.128   5.632 -0.4158  0.0126  0.9292
  985MOL0     C32872   8.031   0.069   5.591  1.2369 -0.4779  0.1076
  985MOL0     C32873   8.018  -0.027   5.490 -0.5320  0.2495 -0.1370
  985MOL0     C32874   7.902  -0.062   5.419 -0.2233 -0.8187  0.1276
  985MOL0     C32875   7.778  -0.007   5.458  0.4488 -0.3282 -0.1019
  985MOL0     O32876   7.655  -0.050   5.415 -0.0090  0.1351  0.3986
  985MOL0     C32877   7.640  -0.154   5.326  0.3682  1.2372  0.0894
  985MOL0     C32878   7.492  -0.181   5.290  0.2523 -0.2564 -0.8054
  985MOL0     C32879   7.411  -0.222   5.413 -0.3911 -0.8019 -0.1588
  985MOL0     C32880   7.279  -0.268   5.384  0.0156  0.6555 -0.2353
  985MOL0     C32881   7.207  -0.286   5.525  0.2101  1.1597  0.7345
  985MOL0     C32882   7.081  -0.383   5.502  0.3706  0.5179  0.3222
  985MOL0     C32883   7.005  -0.396   5.633  0.1133  0.1358  0.5564
  985MOL0     C32884   6.890  -0.492   5.619 -0.3059 -0.0116 -0.3362
  985MOL0    Cl32885   6.754  -0.403   5.551  0.0243  0.2762  0.0994
  985MOL0     C32886   7.792   0.097   5.551  0.2164  0.1896  0.3767
  985MOL0     C32887   7.907   0.139   5.620 -0.0135 -0.2760 -0.7676
  985MOL0     O32888   8.093   0.118   5.854 -0.0901  0.3631  0.0667
  985MOL0     C32889   8.404   0.190   5.689  0.8396  0.4338  0.3202
  985MOL0     C32890   8.526   0.239   5.703  0.1764  0.6674  0.0368
  985MOL0     N32891   9.231   0.208   5.848  0.3469 -0.1370 -0.2576
  985MOL0     N32892   9.332   0.161   5.779  0.1008 -0.8707  0.5274
  985MOL0     C32893  10.685   0.451   5.564 -0.1975 -0.1917  0.3743
  985MOL0     C32894  10.802   0.517   5.595  0.8888  0.2530  0.7004
  985MOL0     C32895  11.167   0.620   5.798 -0.1631 -0.0396  0.1027
  985MOL0     C32896  11.264   0.588   5.899 -0.8274  0.2415 -0.1225
  985MOL0     C32897  11.394   0.631   5.897  0.1174  1.3887 -0.1628
  985MOL0     C32898  11.430   0.720   5.799  0.1557  0.3849  0.4934
  985MOL0     O32899  11.560   0.759   5.801  0.7120  0.2679  0.2812
  985MOL0     C32900  11.617   0.811   5.678  0.5351 -0.3346  0.0558
  985MOL0     C32901  11.627   0.720   5.560 -0.8129 -0.0450  0.0032
  985MOL0     C32902  11.722   0.609   5.585 -0.5732 -0.1924 -0.5605
  985MOL0     C32903  11.707   0.471   5.513 -0.6577  0.1753  0.1254
  985MOL0     C32904  11.581   0.401   5.560  0.3354 -0.0406  0.3248
  985MOL0     C32905  11.470   0.358   5.594 -0.5238 -0.3981  0.0696
  985MOL0     C32906  11.338   0.758   5.703  0.1339  0.2324  0.2385
  985MOL0     C32907  11.205   0.712   5.698 -0.2236  0.9005  0.5305
  985MOL0     H32908  10.703   0.708   5.840 -2.3597  1.4736 -0.9871
  985MOL0     H32909  10.484   0.595   5.795  0.8043 -2.2107  0.8623
  985MOL0     H32910  10.328   0.397   5.743 -0.3929 -0.8587 -0.3509
  985MOL0     H32911  10.319   0.549   5.646 -2.0173 -1.0833  1.5833
  985MOL0     H32912  10.199   0.413   5.467  1.9068 -1.7032 -1.7144
  985MOL0     H32913  10.242   0.272   5.560 -1.0321 -0.7125  2.8972
  985MOL0     H32914  10.088   0.318   5.732 -0.8212  1.8867  0.7576
  985MOL0     H32915  10.072   0.483   5.690  0.3591  0.0763  1.4502
  985MOL0     H32916   9.968   0.369   5.448  1.6723 -1.1126 -0.3174
  985MOL0     H32917   9.972   0.227   5.563 -2.8268 -0.0816  0.7021
  985MOL0     H32918   9.819   0.322   5.713 -1.0773 -1.5596 -1.5296
  985MOL0     H32919   9.839   0.487   5.649 -3.3661  1.2464 -1.2254
  985MOL0     H32920   9.718   0.440   5.445 -2.2225  1.6642  0.2806
  985MOL0     H32921   9.715   0.278   5.486  2.1848  1.0987 -1.7697
  985MOL0     H32922   9.625   0.455   5.721 -1.8328  0.9176 -0.2473
  985MOL0     H32923   9.522   0.467   5.570 -0.6989  0.9834  0.1734
  985MOL0     H32924   9.607   0.209   5.707  2.4878 -0.7840 -3.3362
  985MOL0     H32925   9.504   0.219   5.573  1.0302  1.9705 -0.9147
  985MOL0     H32926   9.381   0.488   5.780  0.5792 -0.0951 -3.3703
  985MOL0     H32927   9.143   0.459   6.018  2.5829  1.2706 -0.4206
  985MOL0     H32928   9.112   0.516   5.851  0.9799  2.8891  3.1785
  985MOL0     H32929   9.001   0.261   5.981 -1.5224  0.8013  3.0592
  985MOL0     H32930   8.958   0.328   5.817  1.1354  2.1619 -0.7195
  985MOL0     H32931   8.875   0.527   5.909 -1.9231 -1.5033 -1.8716
  985MOL0     H32932   8.906   0.483   6.072 -1.6302  2.8002 -0.8206
  985MOL0     H32933   8.672   0.470   6.013  1.1139  0.4891  0.9542
  985MOL0     H32934   8.732   0.308   6.053 -0.1594 -2.1533 -2.1621
  985MOL0     H32935   8.511   0.328   6.025 -0.2630 -1.1388  0.5164
  985MOL0     H32936   8.290   0.294   6.128 -3.4471 -1.1223  1.8405
  985MOL0     H32937   8.146   0.288   6.021 -0.5992  2.3423  2.8272
  985MOL0     H32938   8.222   0.142   6.076 -0.3918  0.3020 -0.9835
  985MOL0     H32939   8.108  -0.076   5.454 -0.3553  0.4944 -0.0322
  985MOL0     H32940   7.912  -0.137   5.341  0.6442 -1.2938  0.6676
  985MOL0     H32941   7.691  -0.136   5.231 -0.0033  1.6094 -0.0456
  985MOL0     H32942   7.684  -0.243   5.371 -1.7889 -0.8282 -1.6362
  985MOL0     H32943   7.441  -0.093   5.250  1.6875 -0.1068 -2.4251
  985MOL0     H32944   7.492  -0.258   5.212  0.3722 -1.3655  0.2572
  985MOL0     H32945   7.400  -0.140   5.484 -1.7351  0.4269 -1.6979
  985MOL0     H32946   7.465  -0.302   5.465  2.1397  1.4677  0.9419
  985MOL0     H32947   7.218  -0.209   5.314 -0.3672 -2.1840 -2.4642
  985MOL0     H32948   7.295  -0.361   5.331  0.4559  1.0946 -0.8800
  985MOL0     H32949   7.186  -0.186   5.563  1.9625  0.5806  3.4694
  985MOL0     H32950   7.277  -0.336   5.592 -1.2748 -1.7528  0.2488
  985MOL0     H32951   7.018  -0.342   5.423  0.6095  1.6128  0.6761
  985MOL0     H32952   7.132  -0.474   5.472 -0.4771  0.7629 -2.0119
  985MOL0     H32953   6.964  -0.300   5.664 -1.7822 -0.5288  0.2100
  985MOL0     H32954   7.082  -0.442   5.697  2.0782 -2.5675 -3.2957
  985MOL0     H32955   6.880  -0.526   5.723  3.3910 -0.9481 -0.1699
  985MOL0     H32956   6.924  -0.582   5.566 -1.8893 -1.2980  0.7237
  985MOL0     H32957   7.692   0.132   5.575 -0.5418 -2.1926  0.9129
  985MOL0     H32958   7.908   0.230   5.679  2.5065 -0.8708  0.2444
  985MOL0     H32959   8.378   0.156   5.589  1.4017  1.3551 -0.1501
  985MOL0     H32960   8.604   0.223   5.630 -0.1156  0.7568 -0.2943
  985MOL0     H32961  10.697   0.378   5.485  0.0016 -1.3284  1.4211
  985MOL0     H32962  10.891   0.499   5.535 -0.0345  0.3807 -0.7743
  985MOL0     H32963  11.224   0.511   5.964 -1.8414 -1.3316 -2.4819
  985MOL0     H32964  11.465   0.593   5.970 -0.4863 -1.2516 -0.8186
  985MOL0     H32965  11.556   0.891   5.634  0.1419 -1.0022 -0.6319
  985MOL0     H32966  11.716   0.856   5.692  1.4276 -1.9704 -0.7258
  985MOL0     H32967  11.658   0.788   5.481  0.5652  1.1392  1.4862
  985MOL0     H32968  11.531   0.673   5.535 -0.4856 -0.1875 -1.0310
  985MOL0     H32969  11.721   0.587   5.692 -2.9009  1.6940 -0.1139
  985MOL0     H32970  11.817   0.649   5.548 -1.1728  0.0642 -1.8831
  985MOL0     H32971  11.787   0.404   5.543 -0.4839 -0.1787 -1.0619
  985MOL0     H32972  11.725   0.484   5.406 -0.7351 -2.2567 -0.2326
  985MOL0     H32973  11.377   0.312   5.620  0.4030 -2.4674 -0.0924
  985MOL0     H32974  11.368   0.830   5.628  0.3130  0.7590  0.8084
  985MOL0     H32975  11.136   0.752   5.624  1.1823  1.2698 -0.6218
  986MOL0     O32976   5.542   5.769   3.991  0.1655  0.4479  0.2730
  986MOL0     C32977   5.577   5.883   3.964  0.4679  0.0762 -0.1938
  986MOL0     O32978   5.492   5.997   3.961 -0.3200 -0.8312 -0.0853
  986MOL0     C32979   5.365   5.981   4.016  0.0390  0.7062  0.2904
  986MOL0     C32980   5.265   5.909   3.947 -0.0800  0.2995 -0.0756
  986MOL0     C32981   5.132   5.912   3.993 -0.2887 -0.4729  0.4604
  986MOL0     C32982   5.106   5.986   4.106 -0.3542 -0.8402  0.0313
  986MOL0     O32983   4.986   6.009   4.170 -0.0689 -0.1890 -0.3006
  986MOL0     C32984   4.867   5.953   4.105 -0.2649  0.4315  0.5016
  986MOL0     C32985   4.740   5.970   4.200 -0.2446  0.4835 -1.0121
  986MOL0     C32986   4.605   5.942   4.128 -0.9867  0.6821 -0.1966
  986MOL0     C32987   4.493   5.999   4.194 -0.0034  0.0197 -0.6837
  986MOL0     C32988   4.373   6.004   4.094 -0.1485 -0.7043 -1.4480
  986MOL0     C32989   4.241   6.023   4.181 -0.9638  0.4001  0.9059
  986MOL0     C32990   4.119   6.062   4.095 -0.2757  0.1115  0.4081
  986MOL0     C32991   4.130   6.201   4.021  0.1108 -1.0047  0.0407
  986MOL0     N32992   4.161   6.326   4.098  0.0066  0.2530  0.5847
  986MOL0     C32993   4.075   6.397   4.174 -0.0870 -0.8639 -0.5766
  986MOL0     C32994   4.145   6.486   4.248 -0.5990 -0.1118 -0.5661
  986MOL0     C32995   4.083   6.567   4.358 -0.2546  0.1395 -0.2728
  986MOL0     C32996   4.136   6.709   4.366  0.5872  0.0328  0.0595
  986MOL0     C32997   4.104   6.782   4.500  0.7390 -0.1977  0.2017
  986MOL0     C32998   3.953   6.771   4.538  0.6199 -1.0171  0.3843
  986MOL0     O32999   3.859   6.844   4.449 -0.3209  0.4760 -0.7439
  986MOL0     C33000   3.723   6.837   4.462 -0.1480  0.0835 -0.3301
  986MOL0     C33001   3.646   6.756   4.544  0.1828 -1.7160  0.1094
  986MOL0     C33002   3.506   6.764   4.529  0.4397  0.1163 -0.1396
  986MOL0     C33003   3.429   6.696   4.638  0.4440 -0.5281 -0.5168
  986MOL0     C33004   3.438   6.839   4.429 -0.1227  0.3212  0.2238
  986MOL0     C33005   3.289   6.857   4.412  0.6894 -1.2323  0.3699
  986MOL0     O33006   3.257   6.976   4.356 -0.7923 -0.3862  0.0266
  986MOL0     C33007   3.137   6.985   4.301  0.2993  0.4043  0.7258
  986MOL0     C33008   3.024   6.997   4.383 -0.1102 -0.5197  0.0782
  986MOL0     C33009   2.900   7.017   4.331 -0.5065  0.1906 -1.0490
  986MOL0     C33010   2.879   7.023   4.195 -0.2354 -0.0821  0.0498
  986MOL0     O33011   2.747   7.022   4.157 -0.0881 -0.4776  0.3561
  986MOL0     C33012   2.715   7.085   4.033 -0.3117 -0.6966  0.2836
  986MOL0     C33013   2.569   7.066   3.995  0.4135 -0.5208 -0.0831
  986MOL0     C33014   2.474   7.150   4.086  0.1209 -0.4785 -0.6617
  986MOL0     C33015   2.322   7.129   4.044  0.6838  0.4486 -1.1090
  986MOL0     C33016   2.241   7.179   4.161  0.1202  0.2296  0.6019
  986MOL0     C33017   2.088   7.174   4.138 -0.4124 -0.0816 -0.2229
  986MOL0     C33018   2.014   7.293   4.211 -1.0888  0.4417 -0.4354
  986MOL0     C33019   1.860   7.297   4.145  0.0156 -0.3022 -0.0303
  986MOL0    Cl33020   1.822   7.479   4.155 -0.0843 -0.2456  0.1032
  986MOL0     C33021   2.991   7.019   4.106 -0.2438  0.5377  0.2003
  986MOL0     C33022   3.112   7.001   4.160 -0.9095  0.9229 -0.3180
  986MOL0     O33023   3.205   6.769   4.445  0.4486 -0.0929 -0.6110
  986MOL0     C33024   3.523   6.918   4.351 -0.4847 -1.0598 -0.4011
  986MOL0     C33025   3.660   6.906   4.358  0.0112  0.7940  0.0588
  986MOL0     N33026   4.281   6.455   4.228  0.9751 -0.3831 -0.1795
  986MOL0     N33027   4.283   6.351   4.153 -0.3981  0.2999  0.4791
  986MOL0     C33028   5.207   6.050   4.180 -0.0334  0.7225  1.2611
  986MOL0     C33029   5.338   6.047   4.129  0.1051 -0.6295  0.4381
  986MOL0     C33030   5.714   5.891   3.919 -0.1971  1.3542 -0.1291
  986MOL0     C33031   5.793   5.776   3.895  0.2902 -0.1913 -0.1513
  986MOL0     C33032   5.926   5.788   3.853 -0.3228 -0.1818 -0.6859
  986MOL0     C33033   5.982   5.913   3.813  0.0917  0.5517  0.3417
  986MOL0     O33034   6.101   5.922   3.758 -0.0038  0.0510 -0.4928
  986MOL0     C33035   6.198   6.011   3.825  0.3908  0.8121  0.7759
  986MOL0     C33036   6.333   5.937   3.809 -0.3783 -0.2392 -0.1330
  986MOL0     C33037   6.337   5.801   3.892 -0.0659  0.5114 -0.6295
  986MOL0     C33038   6.482   5.752   3.906 -0.5197 -0.2550  0.4041
  986MOL0     C33039   6.505   5.650   4.004  0.6158  0.2749  0.4181
  986MOL0     C33040   6.510   5.550   4.072  0.4973 -0.4087 -0.0098
  986MOL0     C33041   5.895   6.022   3.820  0.1380 -0.1510  0.0072
  986MOL0     C33042   5.765   6.007   3.866  0.3378  0.4073  0.1855
  986MOL0     H33043   5.302   5.847   3.866 -0.0727 -0.8156  0.7621
  986MOL0     H33044   5.050   5.856   3.949 -2.0398  1.0815  1.5849
  986MOL0     H33045   4.855   5.989   4.002  3.5064 -1.7248 -0.8976
  986MOL0     H33046   4.891   5.847   4.092  0.8938  1.0249 -3.6666
  986MOL0     H33047   4.747   5.904   4.287  1.3843 -0.5153 -1.8484
  986MOL0     H33048   4.726   6.076   4.224  1.4628  0.3953  0.6213
  986MOL0     H33049   4.616   5.969   4.022  2.5751  1.3421  0.1944
  986MOL0     H33050   4.596   5.834   4.140 -1.0392  0.6177 -0.7929
  986MOL0     H33051   4.473   5.935   4.281 -1.1953  0.2705 -0.7450
  986MOL0     H33052   4.506   6.097   4.241 -0.2341 -1.0450  1.7945
  986MOL0     H33053   4.385   6.091   4.029  4.1209 -0.0723 -0.0868
  986MOL0     H33054   4.365   5.915   4.031 -2.1211 -1.9057  0.3221
  986MOL0     H33055   4.226   5.927   4.230 -0.2387 -0.7630 -1.0393
  986MOL0     H33056   4.265   6.098   4.257  4.4552  1.4025 -1.3158
  986MOL0     H33057   4.084   5.991   4.019 -0.5958 -0.3804  1.0015
  986MOL0     H33058   4.033   6.065   4.164 -1.2357 -3.1983 -0.4310
  986MOL0     H33059   4.036   6.224   3.970  0.4150 -1.0822 -0.5594
  986MOL0     H33060   4.205   6.206   3.941 -1.8573 -2.1110 -1.9954
  986MOL0     H33061   3.967   6.388   4.170 -0.4243  0.6303  2.3210
  986MOL0     H33062   3.975   6.576   4.344 -0.4819  0.9364  1.6251
  986MOL0     H33063   4.110   6.513   4.449  1.4504  2.0618  0.4470
  986MOL0     H33064   4.090   6.760   4.281  2.4868 -0.2543 -1.2247
  986MOL0     H33065   4.245   6.715   4.353  0.8417 -3.3270 -0.3376
  986MOL0     H33066   4.137   6.887   4.497  0.1808  0.0405  1.5257
  986MOL0     H33067   4.164   6.735   4.579  1.9061 -0.7304 -0.9706
  986MOL0     H33068   3.942   6.815   4.637  2.3066 -2.7327  1.3918
  986MOL0     H33069   3.927   6.665   4.535 -1.9592 -0.4487 -1.9426
  986MOL0     H33070   3.691   6.710   4.632  4.9385  5.0116  2.0348
  986MOL0     H33071   3.429   6.587   4.634  1.5585 -0.6204  0.9703
  986MOL0     H33072   3.473   6.720   4.735 -2.0196  4.0589 -0.2308
  986MOL0     H33073   3.322   6.714   4.651 -0.1236 -2.8260 -1.4646
  986MOL0     H33074   3.030   7.015   4.490 -1.5751  1.3171 -0.0938
  986MOL0     H33075   2.815   7.040   4.395 -1.2982 -0.9643 -1.6536
  986MOL0     H33076   2.736   7.192   4.044  3.9358 -1.0506 -2.0939
  986MOL0     H33077   2.772   7.064   3.942  0.0971  2.0930 -0.1872
  986MOL0     H33078   2.554   7.098   3.891  0.8246 -1.6867 -0.5256
  986MOL0     H33079   2.552   6.958   3.989  2.7904 -0.9013 -1.6602
  986MOL0     H33080   2.494   7.257   4.076 -1.9537 -0.0095 -0.4594
  986MOL0     H33081   2.476   7.112   4.189  2.1436 -0.0791 -0.5265
  986MOL0     H33082   2.310   7.195   3.957  1.6133 -2.4997 -3.6444
  986MOL0     H33083   2.299   7.029   4.007 -1.8543 -0.2663  1.9345
  986MOL0     H33084   2.275   7.283   4.173 -0.0483  0.2110  1.2788
  986MOL0     H33085   2.260   7.127   4.255  0.1764  2.2735  1.7987
  986MOL0     H33086   2.068   7.172   4.031 -0.3900  2.5827 -0.3495
  986MOL0     H33087   2.054   7.080   4.182  0.3404 -0.4232 -0.3546
  986MOL0     H33088   2.075   7.379   4.183 -0.9054  0.0104 -1.3829
  986MOL0     H33089   2.021   7.264   4.316  1.4973  0.7791 -0.4635
  986MOL0     H33090   1.786   7.246   4.208  1.0079  0.9283  2.2096
  986MOL0     H33091   1.849   7.260   4.042 -2.2720  2.0449 -0.7564
  986MOL0     H33092   2.976   7.028   3.999  3.8191 -1.5921 -0.7498
  986MOL0     H33093   3.198   7.006   4.095 -1.0072 -1.2682 -0.7094
  986MOL0     H33094   3.494   7.002   4.288  2.4703  0.1040 -0.3737
  986MOL0     H33095   3.719   6.979   4.304 -0.1991  1.0510  0.1722
  986MOL0     H33096   5.187   6.116   4.263 -1.5889 -1.7649  2.9999
  986MOL0     H33097   5.421   6.101   4.175  1.0275 -1.2588 -0.4453
  986MOL0     H33098   5.764   5.672   3.907  1.2534 -0.3543  0.9412
  986MOL0     H33099   5.981   5.696   3.835  4.1264  1.8606  1.0267
  986MOL0     H33100   6.202   6.109   3.776 -0.8015 -0.4281 -1.9967
  986MOL0     H33101   6.177   6.033   3.930 -0.2153  5.0500 -0.0474
  986MOL0     H33102   6.411   6.000   3.852 -1.8219  0.7077  1.1917
  986MOL0     H33103   6.353   5.923   3.702 -2.5148  0.1712 -0.6282
  986MOL0     H33104   6.267   5.728   3.852  0.0223 -0.3940  0.7805
  986MOL0     H33105   6.296   5.824   3.991  0.3504  2.1270 -0.8108
  986MOL0     H33106   6.554   5.831   3.931 -1.5857  0.7769  0.3283
  986MOL0     H33107   6.509   5.715   3.807 -0.2554  3.8374 -1.2519
  986MOL0     H33108   6.510   5.455   4.121 -0.4929 -1.9018 -2.7103
  986MOL0     H33109   5.932   6.118   3.785  0.1440  0.3064  1.2043
  986MOL0     H33110   5.700   6.094   3.867  0.5449  0.6650 -2.0548
  987MOL0     O33111   7.382  10.759   2.376  0.0458  0.7167  0.2866
  987MOL0     C33112   7.406  10.755   2.498 -0.1445 -0.0468 -0.3548
  987MOL0     O33113   7.314  10.790   2.593 -0.2658  0.2486  0.2257
  987MOL0     C33114   7.183  10.771   2.567  0.5027 -1.5355 -0.6064
  987MOL0     C33115   7.121  10.682   2.475 -0.2855  1.1755  0.1648
  987MOL0     C33116   6.985  10.680   2.456  0.5610  0.9290 -0.7478
  987MOL0     C33117   6.899  10.747   2.542 -0.8731  0.1394 -0.4274
  987MOL0     O33118   6.764  10.733   2.543  0.3220  0.4198 -0.1747
  987MOL0     C33119   6.687  10.650   2.464  0.2763  0.2589  0.6266
  987MOL0     C33120   6.614  10.740   2.369  0.2773 -0.1282  0.3953
  987MOL0     C33121   6.537  10.668   2.262 -0.7840  0.3702 -0.1299
  987MOL0     C33122   6.464  10.760   2.163 -0.1299 -0.0236 -0.0245
  987MOL0     C33123   6.394  10.682   2.056  0.4165  1.6053  0.7275
  987MOL0     C33124   6.341  10.763   1.939 -0.4089  0.6711 -0.1163
  987MOL0     C33125   6.307  10.677   1.826 -0.7198 -0.1520 -0.4957
  987MOL0     C33126   6.233  10.757   1.713 -0.7769  0.2863  0.3804
  987MOL0     N33127   6.206  10.676   1.590  0.7612  0.2757 -0.6516
  987MOL0     C33128   6.134  10.558   1.577  0.4962 -0.4081  0.2067
  987MOL0     C33129   6.155  10.522   1.444 -0.7303 -0.5652  0.5577
  987MOL0     C33130   6.077  10.407   1.367 -1.1499 -0.1069 -0.3822
  987MOL0     C33131   5.928  10.452   1.343  0.5286  0.1300  0.4014
  987MOL0     C33132   5.907  10.577   1.255  0.5873  0.2667 -0.8102
  987MOL0     C33133   5.785  10.654   1.298 -1.1238 -0.8270 -1.6371
  987MOL0     O33134   5.682  10.556   1.263 -0.9219  0.2637  1.0976
  987MOL0     C33135   5.553  10.584   1.269  0.6602 -0.1763  0.5043
  987MOL0     C33136   5.464  10.481   1.231 -0.1474  0.8854  0.5616
  987MOL0     C33137   5.326  10.499   1.220 -0.1204 -0.5104 -0.1136
  987MOL0     C33138   5.239  10.390   1.150 -0.4926  0.2284  0.0668
  987MOL0     C33139   5.274  10.629   1.266  1.1848 -0.6589  0.0039
  987MOL0     C33140   5.136  10.672   1.260 -0.1329 -0.2365 -0.0817
  987MOL0     O33141   5.044  10.568   1.254  0.1316  0.4884 -0.0892
  987MOL0     C33142   4.921  10.600   1.223  0.3695  0.1795  0.1389
  987MOL0     C33143   4.883  10.639   1.095 -0.3693 -0.2354  0.3706
  987MOL0     C33144   4.757  10.666   1.060 -0.0141  0.8973  0.7023
  987MOL0     C33145   4.659  10.660   1.157  0.0495 -0.1008  0.5037
  987MOL0     O33146   4.531  10.698   1.135 -0.4298 -0.5399  0.6639
  987MOL0     C33147   4.487  10.737   1.005 -0.7514  0.0591  0.3938
  987MOL0     C33148   4.349  10.798   1.015  0.8216 -1.0887 -0.1781
  987MOL0     C33149   4.289  10.824   0.874  0.6816 -0.1737  0.8462
  987MOL0     C33150   4.147  10.871   0.880  0.1108  0.1368  0.0220
  987MOL0     C33151   4.064  10.861   0.745 -0.8925  0.4500  0.1182
  987MOL0     C33152   3.925  10.914   0.763  0.0317 -0.5174 -0.1528
  987MOL0     C33153   3.838  10.906   0.633  0.1818 -0.4387  0.1064
  987MOL0     C33154   3.692  10.951   0.642  0.2831  0.9020  0.0942
  987MOL0    Cl33155   3.683  11.132   0.703 -0.0957  0.0416  0.3949
  987MOL0     C33156   4.685  10.606   1.286  0.2079  0.2460 -0.0570
  987MOL0     C33157   4.814  10.568   1.321 -0.9495 -0.0177 -0.7200
  987MOL0     O33158   5.114  10.792   1.259  0.2429 -0.1891  0.4794
  987MOL0     C33159   5.362  10.729   1.304  0.0883  0.5347  0.4585
  987MOL0     C33160   5.492  10.701   1.305 -1.0885  0.5675  0.1065
  987MOL0     N33161   6.252  10.605   1.388 -0.4882 -0.3641  0.0384
  987MOL0     N33162   6.281  10.693   1.483 -0.5059 -0.3444  0.2502
  987MOL0     C33163   6.964  10.836   2.633  0.6417 -0.5992 -0.3053
  987MOL0     C33164   7.097  10.846   2.648 -0.6339 -0.2254 -0.1449
  987MOL0     C33165   7.546  10.750   2.540 -0.0962  0.1568  1.0544
  987MOL0     C33166   7.654  10.743   2.443 -0.4666 -0.1167 -0.0299
  987MOL0     C33167   7.784  10.750   2.474  0.8420 -0.1337 -0.9210
  987MOL0     C33168   7.816  10.756   2.606  0.5787 -0.6243 -0.0975
  987MOL0     O33169   7.945  10.763   2.628  0.6911  0.2495  0.2714
  987MOL0     C33170   8.002  10.667   2.720 -0.2089 -0.2158 -0.7115
  987MOL0     C33171   8.141  10.621   2.674  1.0606 -0.0162 -1.0099
  987MOL0     C33172   8.169  10.610   2.522 -0.3984  0.5061  0.7224
  987MOL0     C33173   8.312  10.554   2.494 -0.7648  0.0739 -0.2879
  987MOL0     C33174   8.319  10.410   2.525  0.4673 -0.6270  0.5720
  987MOL0     C33175   8.312  10.292   2.544 -0.0994  0.0377 -0.1502
  987MOL0     C33176   7.716  10.772   2.705  0.1764  0.1274  0.4448
  987MOL0     C33177   7.584  10.776   2.674  0.9488  1.1389 -0.0295
  987MOL0     H33178   7.178  10.617   2.411  0.0820  1.3463  0.3153
  987MOL0     H33179   6.940  10.633   2.369  0.9795  0.2759 -0.6125
  987MOL0     H33180   6.749  10.581   2.405  1.2221  2.1408 -0.6802
  987MOL0     H33181   6.611  10.597   2.522 -2.4244  3.1542  0.0142
  987MOL0     H33182   6.540  10.801   2.421  0.7102  0.6482  0.1288
  987MOL0     H33183   6.697  10.802   2.332  1.0518 -0.1175  2.0557
  987MOL0     H33184   6.606  10.607   2.202  0.1242  2.0136 -0.8146
  987MOL0     H33185   6.462  10.607   2.314  0.4960 -0.7858  0.4280
  987MOL0     H33186   6.387  10.814   2.220 -2.4757 -2.1640 -0.9351
  987MOL0     H33187   6.525  10.837   2.116 -2.6933  2.9909  1.2437
  987MOL0     H33188   6.473  10.615   2.021  0.6774  2.4963 -0.4399
  987MOL0     H33189   6.314  10.624   2.103  0.2449  0.1133 -1.2593
  987MOL0     H33190   6.248  10.810   1.974 -0.8575 -0.0151 -0.3515
  987MOL0     H33191   6.415  10.841   1.922 -0.5808  1.2072  1.3975
  987MOL0     H33192   6.410  10.664   1.790 -0.2397  3.0560 -0.5913
  987MOL0     H33193   6.258  10.581   1.843  0.3423 -0.8502 -1.3019
  987MOL0     H33194   6.290  10.845   1.681 -0.3644 -0.1394 -0.0637
  987MOL0     H33195   6.141  10.796   1.758 -1.5917 -0.0300 -0.9635
  987MOL0     H33196   6.075  10.511   1.655 -0.0544  1.2779  0.8500
  987MOL0     H33197   6.135  10.382   1.277  1.3019  2.1589  0.4184
  987MOL0     H33198   6.083  10.320   1.433  0.1023  0.7744  0.7284
  987MOL0     H33199   5.881  10.475   1.439 -1.7607  0.7489 -0.7917
  987MOL0     H33200   5.880  10.364   1.299 -0.3064  0.8571 -0.1780
  987MOL0     H33201   5.899  10.558   1.148  1.0334 -0.2252 -0.7641
  987MOL0     H33202   5.987  10.650   1.273  1.3245 -0.1394 -2.2852
  987MOL0     H33203   5.775  10.752   1.249 -0.9399  0.2121  0.3327
  987MOL0     H33204   5.789  10.670   1.406 -1.2784  4.6076 -2.1587
  987MOL0     H33205   5.499  10.380   1.209  2.2984  1.8909 -0.5284
  987MOL0     H33206   5.165  10.351   1.220  0.8791  0.1941  1.5449
  987MOL0     H33207   5.182  10.436   1.069  2.8912 -0.3523 -2.9016
  987MOL0     H33208   5.303  10.307   1.120 -3.3807 -2.1969  0.1559
  987MOL0     H33209   4.955  10.648   1.014 -2.2915  0.2680 -1.3748
  987MOL0     H33210   4.728  10.681   0.956 -1.7851 -0.2839  0.9752
  987MOL0     H33211   4.555  10.814   0.967  0.2345 -1.4109 -0.8846
  987MOL0     H33212   4.493  10.649   0.942  0.6458  0.2773  0.1963
  987MOL0     H33213   4.286  10.730   1.072 -1.4686 -1.5724 -3.0440
  987MOL0     H33214   4.346  10.894   1.067 -0.6770  0.3123 -2.6512
  987MOL0     H33215   4.293  10.724   0.831 -1.1411 -0.2876  0.8408
  987MOL0     H33216   4.347  10.888   0.807  1.0479 -3.5213 -2.3618
  987MOL0     H33217   4.094  10.816   0.958 -0.8013 -0.3661 -0.9335
  987MOL0     H33218   4.143  10.975   0.914 -0.4065 -0.4519  1.8868
  987MOL0     H33219   4.062  10.763   0.697 -1.4883  1.9787 -3.2531
  987MOL0     H33220   4.112  10.934   0.680  2.3075  0.5079  2.3181
  987MOL0     H33221   3.879  10.867   0.850  1.7639 -1.1088  0.4869
  987MOL0     H33222   3.933  11.021   0.786 -2.8662  0.0347 -1.2883
  987MOL0     H33223   3.837  10.802   0.599  0.9202 -1.0924  1.9392
  987MOL0     H33224   3.898  10.954   0.556  0.0573 -0.9985 -0.3478
  987MOL0     H33225   3.642  10.897   0.723  1.8155  1.0744  1.2171
  987MOL0     H33226   3.628  10.942   0.555  2.1008  2.5818 -1.5164
  987MOL0     H33227   4.602  10.594   1.356  3.2034  0.8044  3.9124
  987MOL0     H33228   4.832  10.538   1.424 -0.6218  1.5498 -0.2929
  987MOL0     H33229   5.331  10.829   1.333  1.9650  1.6242 -1.1418
  987MOL0     H33230   5.561  10.778   1.338  0.8919 -2.2991  3.3324
  987MOL0     H33231   6.903  10.894   2.701 -0.4549 -1.6530 -0.3548
  987MOL0     H33232   7.139  10.912   2.723 -3.5066  0.4631  0.9781
  987MOL0     H33233   7.627  10.746   2.338  0.1739  0.5756 -0.1904
  987MOL0     H33234   7.859  10.736   2.397  1.9638  2.2315 -0.3473
  987MOL0     H33235   8.008  10.710   2.821 -2.1507  0.3477 -0.7965
  987MOL0     H33236   7.947  10.574   2.733 -0.9100  0.6013  3.8957
  987MOL0     H33237   8.160  10.518   2.704  1.8053 -0.3465 -2.5515
  987MOL0     H33238   8.215  10.686   2.722  1.8062 -0.7686 -1.1059
  987MOL0     H33239   8.173  10.710   2.477 -1.2443  1.2939  2.2815
  987MOL0     H33240   8.086  10.548   2.487  1.9118 -3.0901  1.1404
  987MOL0     H33241   8.389  10.608   2.549 -2.1761  0.6791  1.1605
  987MOL0     H33242   8.323  10.570   2.386 -0.5900 -0.1523 -0.3034
  987MOL0     H33243   8.315  10.186   2.562 -1.7923  0.3722  2.7743
  987MOL0     H33244   7.750  10.784   2.808  0.3536 -2.2883  0.7250
  987MOL0     H33245   7.508  10.777   2.752 -1.6203 -1.8806 -2.2567
  988MOL0     O33246   6.254   3.529   4.461  0.1556 -0.2990 -0.1219
  988MOL0     C33247   6.286   3.408   4.479 -0.1228  0.5022  0.4263
  988MOL0     O33248   6.409   3.359   4.507 -0.1824 -1.0618  0.3135
  988MOL0     C33249   6.474   3.452   4.585 -0.5639 -1.2160  0.6729
  988MOL0     C33250   6.414   3.507   4.704 -0.9636  0.6853 -0.4238
  988MOL0     C33251   6.494   3.589   4.791 -0.3469 -0.5145 -0.3623
  988MOL0     C33252   6.630   3.603   4.769 -0.1086  0.0829 -0.1715
  988MOL0     O33253   6.695   3.672   4.867 -0.1500 -0.6523  0.4543
  988MOL0     C33254   6.746   3.804   4.833 -0.1371  0.7824 -0.5730
  988MOL0     C33255   6.865   3.850   4.928  0.1024 -0.4358  0.3437
  988MOL0     C33256   6.969   3.736   4.933 -0.4381  0.0511  0.3216
  988MOL0     C33257   7.101   3.781   4.992 -0.0741  0.2955  0.7205
  988MOL0     C33258   7.221   3.804   4.898 -0.3679 -0.5970  0.1910
  988MOL0     C33259   7.342   3.868   4.971 -0.3576 -0.4863 -0.4057
  988MOL0     C33260   7.449   3.907   4.874 -0.4021  0.0277 -0.2403
  988MOL0     C33261   7.546   4.015   4.933  0.1315  0.7761  0.3225
  988MOL0     N33262   7.667   3.944   4.974 -1.2782  0.1262 -0.1000
  988MOL0     C33263   7.683   3.835   5.054  0.5813  0.5797  0.4957
  988MOL0     C33264   7.818   3.811   5.063 -0.2829  0.3610 -0.1912
  988MOL0     C33265   7.892   3.716   5.153 -0.1960  0.4751  0.1775
  988MOL0     C33266   7.859   3.574   5.145  0.2283 -0.0400  0.2522
  988MOL0     C33267   7.913   3.504   5.277  0.1753  0.0365  0.6999
  988MOL0     C33268   7.885   3.351   5.256  0.8685 -0.3596  0.2455
  988MOL0     O33269   7.740   3.339   5.246 -0.4953  0.4713 -0.1563
  988MOL0     C33270   7.684   3.210   5.255  0.4850 -0.1590 -1.6449
  988MOL0     C33271   7.726   3.095   5.185  0.2591 -0.4144  0.2518
  988MOL0     C33272   7.664   2.970   5.191 -0.3480  0.0085  0.5922
  988MOL0     C33273   7.731   2.851   5.114 -0.2581 -0.8156  0.1364
  988MOL0     C33274   7.555   2.948   5.282  0.3115  0.6273 -0.1183
  988MOL0     C33275   7.482   2.818   5.309  0.4297  0.2063 -0.0504
  988MOL0     O33276   7.397   2.814   5.419 -0.0899  0.2353  0.4995
  988MOL0     C33277   7.317   2.704   5.449 -0.2597 -1.2918 -0.0414
  988MOL0     C33278   7.185   2.724   5.485 -0.3620  0.2380  0.0879
  988MOL0     C33279   7.115   2.616   5.528  0.1005 -0.6094  0.1583
  988MOL0     C33280   7.168   2.482   5.519 -0.1179 -0.4420  0.7699
  988MOL0     O33281   7.095   2.369   5.551 -0.2215 -0.2878 -0.4253
  988MOL0     C33282   6.957   2.380   5.593  0.3099 -0.4927  0.0621
  988MOL0     C33283   6.868   2.258   5.559  0.8392  0.2801 -0.1097
  988MOL0     C33284   6.716   2.274   5.603 -0.3865 -1.1321  0.2193
  988MOL0     C33285   6.622   2.176   5.534  0.1872 -0.4629  0.6447
  988MOL0     C33286   6.485   2.155   5.606 -0.2881  0.4694  0.7605
  988MOL0     C33287   6.387   2.071   5.518  0.1317  0.3784  0.4904
  988MOL0     C33288   6.255   2.028   5.586 -0.0241  0.4854  0.1189
  988MOL0     C33289   6.276   1.944   5.711  0.8028  0.0865 -0.3059
  988MOL0    Cl33290   6.109   1.873   5.752 -0.4751 -0.6749  0.1582
  988MOL0     C33291   7.292   2.457   5.462  0.6099 -0.0852  0.5823
  988MOL0     C33292   7.363   2.567   5.426  0.3375 -0.7857  0.7072
  988MOL0     O33293   7.505   2.724   5.236  0.4616  0.5435 -0.4596
  988MOL0     C33294   7.511   3.059   5.356 -0.6443  0.4610 -0.1022
  988MOL0     C33295   7.573   3.180   5.340 -0.1988  0.2128 -0.4361
  988MOL0     N33296   7.873   3.898   4.977  0.1341 -0.7985 -0.2115
  988MOL0     N33297   7.783   3.980   4.923  0.0242 -0.5836  0.1282
  988MOL0     C33298   6.693   3.543   4.664  0.4706  0.7331 -0.0995
  988MOL0     C33299   6.620   3.464   4.567  1.0308 -0.4056 -0.2542
  988MOL0     C33300   6.181   3.307   4.455  0.5592  0.0268 -0.6420
  988MOL0     C33301   6.059   3.338   4.390 -0.3461  0.1716  0.0933
  988MOL0     C33302   5.970   3.231   4.350  0.5939 -0.0656 -0.7325
  988MOL0     C33303   6.005   3.100   4.375 -0.2790  0.2936 -0.1173
  988MOL0     O33304   5.911   3.002   4.353  0.3054  1.3890  0.5879
  988MOL0     C33305   5.925   2.866   4.417  0.2734 -0.0199 -0.4294
  988MOL0     C33306   5.824   2.759   4.368 -0.5265 -1.0260 -0.0817
  988MOL0     C33307   5.849   2.719   4.221 -0.4163 -0.7100  0.4478
  988MOL0     C33308   5.766   2.583   4.197  0.9065 -0.6791 -0.0116
  988MOL0     C33309   5.619   2.597   4.199 -0.1996  0.5882  0.2483
  988MOL0     C33310   5.499   2.588   4.192  0.1432  0.0629  0.2819
  988MOL0     C33311   6.124   3.072   4.454  0.2015 -0.1099  0.1198
  988MOL0     C33312   6.204   3.177   4.499  0.6219  0.4571  0.1166
  988MOL0     H33313   6.308   3.506   4.729 -1.5487  2.0624 -2.5159
  988MOL0     H33314   6.457   3.645   4.877 -3.1819 -1.3389 -0.9121
  988MOL0     H33315   6.790   3.784   4.735  3.3254 -0.9806  1.1887
  988MOL0     H33316   6.664   3.876   4.841  1.1518  2.0553  2.3427
  988MOL0     H33317   6.920   3.936   4.889  1.3292 -0.5139  1.8027
  988MOL0     H33318   6.818   3.869   5.025 -0.7907  1.6107 -0.4407
  988MOL0     H33319   6.932   3.661   5.004  1.8271 -1.3765  0.1166
  988MOL0     H33320   6.988   3.696   4.833 -0.4810  0.2307  0.2426
  988MOL0     H33321   7.091   3.878   5.041 -0.3204 -0.3016  1.8826
  988MOL0     H33322   7.124   3.701   5.062 -1.8063 -3.4791 -2.6107
  988MOL0     H33323   7.255   3.712   4.849 -1.9905 -0.0907 -2.0367
  988MOL0     H33324   7.190   3.867   4.814 -0.0435  0.3951  0.7967
  988MOL0     H33325   7.324   3.954   5.035  2.1325 -0.8459  0.9182
  988MOL0     H33326   7.378   3.793   5.043  0.3270 -0.8966 -1.1485
  988MOL0     H33327   7.508   3.819   4.848 -2.5677 -1.3756 -0.6453
  988MOL0     H33328   7.396   3.949   4.789 -0.2648  0.5438 -0.0726
  988MOL0     H33329   7.499   4.074   5.011  0.1225  1.9411 -0.5388
  988MOL0     H33330   7.576   4.079   4.849 -1.2309  0.0551 -0.7630
  988MOL0     H33331   7.603   3.782   5.104 -0.4396  0.0434 -1.5791
  988MOL0     H33332   7.999   3.739   5.147  0.2377  1.1829  5.4127
  988MOL0     H33333   7.867   3.759   5.251  2.5557  2.0119  0.3192
  988MOL0     H33334   7.896   3.532   5.052  1.0738  1.3780 -0.0835
  988MOL0     H33335   7.750   3.565   5.139  0.2508 -0.7633  0.8292
  988MOL0     H33336   7.850   3.536   5.361 -1.0813  4.0425 -1.4504
  988MOL0     H33337   8.015   3.533   5.303  1.2639 -1.4357 -1.6398
  988MOL0     H33338   7.913   3.296   5.346 -1.4163 -0.5975  0.8754
  988MOL0     H33339   7.943   3.317   5.170  1.0464 -0.8684  0.5607
  988MOL0     H33340   7.810   3.124   5.121  0.5269 -0.0911  0.7438
  988MOL0     H33341   7.670   2.825   5.027  0.1737  1.0252 -0.7661
  988MOL0     H33342   7.834   2.863   5.078  0.4038 -2.2229  1.4279
  988MOL0     H33343   7.729   2.758   5.171  0.5494 -1.9517 -1.6010
  988MOL0     H33344   7.141   2.823   5.487  0.8986  0.8492 -0.9038
  988MOL0     H33345   7.021   2.645   5.574  2.2631  2.0327  3.4959
  988MOL0     H33346   6.952   2.407   5.699 -2.2689  2.1473 -0.6084
  988MOL0     H33347   6.917   2.455   5.524 -1.0781 -0.1100  1.2304
  988MOL0     H33348   6.875   2.245   5.451  4.7641 -2.0344  0.2046
  988MOL0     H33349   6.916   2.179   5.618 -1.1173 -1.1577 -0.3468
  988MOL0     H33350   6.686   2.378   5.595 -1.1521 -1.3550  0.1499
  988MOL0     H33351   6.714   2.263   5.712  1.1845  5.0338  1.2163
  988MOL0     H33352   6.608   2.220   5.435 -0.2811  0.5577  1.1385
  988MOL0     H33353   6.673   2.083   5.507 -0.4458 -1.1271  1.6274
  988MOL0     H33354   6.447   2.256   5.621 -0.0673  0.7574 -0.4450
  988MOL0     H33355   6.506   2.105   5.701 -2.0778 -0.9110  0.4844
  988MOL0     H33356   6.357   2.121   5.426 -0.6165  1.6468  1.3832
  988MOL0     H33357   6.437   1.980   5.486 -1.1698  0.2586 -1.3798
  988MOL0     H33358   6.197   1.987   5.503 -0.6028  3.3488 -0.9962
  988MOL0     H33359   6.193   2.112   5.618  1.0805  0.8259  1.4590
  988MOL0     H33360   6.303   2.004   5.798  3.1478  2.6408 -2.6005
  988MOL0     H33361   6.352   1.867   5.695 -0.9078 -1.7233 -0.1258
  988MOL0     H33362   7.310   2.350   5.457 -0.4098 -0.3253  1.6253
  988MOL0     H33363   7.466   2.549   5.395  1.4579  0.4475  3.4492
  988MOL0     H33364   7.425   3.049   5.422 -1.3778  0.4295 -1.0352
  988MOL0     H33365   7.526   3.257   5.401  0.7998  0.6205 -0.1675
  988MOL0     H33366   6.800   3.550   4.646  0.7580 -2.5649 -0.1871
  988MOL0     H33367   6.671   3.421   4.481 -2.5569 -3.2540 -1.2004
  988MOL0     H33368   6.033   3.438   4.356  1.6271  0.0199 -2.1371
  988MOL0     H33369   5.878   3.254   4.298 -0.1489 -1.3018 -0.0087
  988MOL0     H33370   6.025   2.822   4.409 -0.8913 -2.8874 -0.2750
  988MOL0     H33371   5.904   2.885   4.523 -0.0117  1.6660 -0.7662
  988MOL0     H33372   5.723   2.801   4.379 -0.5449 -1.0069 -0.3220
  988MOL0     H33373   5.837   2.673   4.435  1.5831  0.9509  2.2665
  988MOL0     H33374   5.955   2.702   4.198  0.0228  1.7818  0.3068
  988MOL0     H33375   5.819   2.802   4.156 -2.7059 -2.2902 -0.6176
  988MOL0     H33376   5.792   2.505   4.269 -1.7938 -2.4200 -0.7518
  988MOL0     H33377   5.789   2.549   4.095 -1.3486  1.8188 -1.5071
  988MOL0     H33378   5.393   2.597   4.198  0.2833  2.6258 -0.2312
  988MOL0     H33379   6.146   2.969   4.484 -0.6727  0.4634  3.0023
  988MOL0     H33380   6.285   3.145   4.563 -1.8229 -1.9926  2.2267
  989MOL0     O33381   5.517   6.321   8.860  0.0576  0.5898 -0.0880
  989MOL0     C33382   5.446   6.412   8.816 -0.0053  0.5935  1.1947
  989MOL0     O33383   5.372   6.499   8.887  0.1138  0.0792 -0.1020
  989MOL0     C33384   5.384   6.498   9.025 -0.0138 -0.4605 -0.3945
  989MOL0     C33385   5.506   6.545   9.093 -0.4545 -0.1834  0.2159
  989MOL0     C33386   5.511   6.556   9.235 -0.1181 -0.1750 -0.2973
  989MOL0     C33387   5.409   6.496   9.307 -0.0422  0.2266  0.1621
  989MOL0     O33388   5.407   6.478   9.443  0.5626  0.5573 -0.7312
  989MOL0     C33389   5.472   6.581   9.516  0.2617  0.0370  1.1444
  989MOL0     C33390   5.436   6.566   9.664 -0.4722  0.2818 -0.3155
  989MOL0     C33391   5.286   6.537   9.694  0.3241  0.1245  0.0003
  989MOL0     C33392   5.193   6.630   9.621 -0.0783  0.1691 -0.2752
  989MOL0     C33393   5.040   6.609   9.665  0.3536 -0.1702 -0.1327
  989MOL0     C33394   4.943   6.629   9.550 -0.4833  0.3018  0.2435
  989MOL0     C33395   4.797   6.616   9.593 -0.6360 -0.3739  0.1990
  989MOL0     C33396   4.709   6.652   9.469 -0.2386 -0.2959 -0.1632
  989MOL0     N33397   4.581   6.610   9.502  0.2389  0.4972  0.0595
  989MOL0     C33398   4.498   6.660   9.603 -0.1645 -0.4239 -0.2508
  989MOL0     C33399   4.398   6.578   9.613 -0.6851 -0.2554  0.4145
  989MOL0     C33400   4.306   6.607   9.711  0.1688 -0.1298 -0.1926
  989MOL0     C33401   4.176   6.536   9.695  0.3838 -0.1778 -0.6556
  989MOL0     C33402   4.120   6.584   9.555 -0.0412 -0.6044 -0.5097
  989MOL0     C33403   3.985   6.510   9.560 -0.3440  0.1005 -0.0755
  989MOL0     O33404   3.910   6.564   9.456  0.6239 -0.2604  0.4385
  989MOL0     C33405   3.769   6.556   9.460 -0.2144  0.3894 -0.6297
  989MOL0     C33406   3.710   6.542   9.337 -0.4218  0.1725  0.2846
  989MOL0     C33407   3.568   6.526   9.317 -1.1896 -0.2108 -0.7386
  989MOL0     C33408   3.517   6.514   9.185  0.0920 -0.6065  0.3192
  989MOL0     C33409   3.486   6.531   9.436 -0.2801  0.3421  0.6471
  989MOL0     C33410   3.337   6.509   9.428  0.4840 -0.3577 -0.4745
  989MOL0     O33411   3.289   6.421   9.334 -0.6723 -0.7644 -0.7781
  989MOL0     C33412   3.161   6.396   9.309 -1.2739 -0.0500  0.2022
  989MOL0     C33413   3.127   6.383   9.177 -1.3118  0.3807  0.4804
  989MOL0     C33414   2.997   6.348   9.134  0.7498  0.5455 -0.2917
  989MOL0     C33415   2.896   6.341   9.229 -0.3856 -0.4881  0.1702
  989MOL0     O33416   2.767   6.306   9.201  0.2623 -0.7674  0.1965
  989MOL0     C33417   2.714   6.317   9.067 -0.6055  0.3453 -1.9769
  989MOL0     C33418   2.557   6.311   9.066  0.9754 -0.6703 -0.2629
  989MOL0     C33419   2.499   6.452   9.117  0.1678  0.4333  0.7172
  989MOL0     C33420   2.561   6.509   9.246 -0.5712  0.0723 -0.3284
  989MOL0     C33421   2.491   6.633   9.308  0.4067 -0.0611  0.2160
  989MOL0     C33422   2.582   6.719   9.396  0.2346  0.1818 -0.1471
  989MOL0     C33423   2.635   6.637   9.514  1.0896  0.3011  0.0837
  989MOL0     C33424   2.697   6.737   9.626  0.8706  0.3387 -0.3300
  989MOL0    Cl33425   2.584   6.872   9.654  0.2959  0.2984  0.2254
  989MOL0     C33426   2.923   6.356   9.360 -0.3096 -1.6228  0.2318
  989MOL0     C33427   3.056   6.384   9.403  0.3482 -0.0977  0.2256
  989MOL0     O33428   3.264   6.580   9.498 -0.1916  0.2497 -0.4325
  989MOL0     C33429   3.550   6.548   9.561  0.3283 -0.6708 -0.8569
  989MOL0     C33430   3.689   6.569   9.571  0.6964 -0.7271  0.6677
  989MOL0     N33431   4.423   6.472   9.534  0.5422  0.2415  0.0111
  989MOL0     N33432   4.528   6.498   9.463  0.2316 -0.0623 -0.1797
  989MOL0     C33433   5.295   6.449   9.240  0.3475  0.2130  1.2479
  989MOL0     C33434   5.270   6.466   9.103 -0.9143  0.0071  0.4451
  989MOL0     C33435   5.439   6.427   8.669  0.0607 -1.2853  0.0064
  989MOL0     C33436   5.441   6.553   8.615 -0.3484  0.0525  0.3733
  989MOL0     C33437   5.444   6.577   8.485  0.3004 -0.2268 -0.6872
  989MOL0     C33438   5.448   6.475   8.390 -0.0054 -0.1871 -0.4062
  989MOL0     O33439   5.455   6.488   8.259 -0.1014  0.1960  0.1233
  989MOL0     C33440   5.547   6.585   8.225 -0.9558 -0.2410  0.8272
  989MOL0     C33441   5.585   6.556   8.075 -0.3566  0.6068  0.4581
  989MOL0     C33442   5.666   6.424   8.056 -0.2830  0.2295  0.2162
  989MOL0     C33443   5.715   6.406   7.913  0.5381 -0.8302  0.5614
  989MOL0     C33444   5.598   6.396   7.828  1.3243 -0.9093 -0.5701
  989MOL0     C33445   5.499   6.386   7.754  0.4410  0.0068 -0.7922
  989MOL0     C33446   5.447   6.345   8.433 -0.2787  0.0698  0.1686
  989MOL0     C33447   5.442   6.323   8.570 -0.5545  0.0469  0.3225
  989MOL0     H33448   5.593   6.579   9.039 -0.9661 -1.2744 -1.3581
  989MOL0     H33449   5.595   6.606   9.282 -1.1147  0.4265  0.8694
  989MOL0     H33450   5.579   6.559   9.511  0.1815 -0.0539 -1.7380
  989MOL0     H33451   5.449   6.683   9.483 -3.7233 -0.5308  1.6659
  989MOL0     H33452   5.500   6.490   9.710 -2.4311  0.8592  3.7850
  989MOL0     H33453   5.448   6.665   9.707  0.6085 -0.0255  0.1240
  989MOL0     H33454   5.272   6.432   9.667  1.2766  0.2465 -1.0590
  989MOL0     H33455   5.283   6.538   9.803  0.2974 -2.1583  0.0533
  989MOL0     H33456   5.224   6.735   9.627  0.8875  0.0043 -1.9779
  989MOL0     H33457   5.202   6.616   9.513  1.4712  0.9857 -0.2767
  989MOL0     H33458   5.025   6.508   9.702 -2.9954  0.2643 -0.0268
  989MOL0     H33459   5.023   6.670   9.754  0.9522 -0.4121  0.1498
  989MOL0     H33460   4.975   6.723   9.503  0.7543 -0.3139 -0.2136
  989MOL0     H33461   4.954   6.549   9.476 -0.4792  0.8742 -0.3897
  989MOL0     H33462   4.781   6.520   9.642 -0.0211  0.0402  1.2405
  989MOL0     H33463   4.789   6.693   9.670 -0.0236  0.7354 -0.8093
  989MOL0     H33464   4.738   6.591   9.383 -0.3012 -0.8351  0.1954
  989MOL0     H33465   4.705   6.758   9.441 -0.3328 -0.3785 -0.4591
  989MOL0     H33466   4.515   6.746   9.667 -1.8479 -0.7309  0.6833
  989MOL0     H33467   4.355   6.583   9.806  1.8371  1.5276 -0.5803
  989MOL0     H33468   4.290   6.715   9.711  3.1998  0.3953 -0.6187
  989MOL0     H33469   4.117   6.562   9.784 -0.0174  3.2086 -1.7536
  989MOL0     H33470   4.192   6.429   9.683  0.0338 -0.1698 -1.2070
  989MOL0     H33471   4.182   6.560   9.469  5.2397  3.8149  1.4728
  989MOL0     H33472   4.117   6.693   9.540  0.7311 -1.0231 -4.6049
  989MOL0     H33473   3.934   6.541   9.652  2.1921 -0.7823  1.7291
  989MOL0     H33474   3.998   6.402   9.558  0.3571  0.1836 -0.8058
  989MOL0     H33475   3.773   6.533   9.249 -2.1315  1.5525 -1.1569
  989MOL0     H33476   3.419   6.560   9.170  0.8000  0.4678 -1.3114
  989MOL0     H33477   3.575   6.568   9.110 -0.3755 -2.2933 -1.3127
  989MOL0     H33478   3.498   6.408   9.168 -1.1131 -1.2235  4.3562
  989MOL0     H33479   3.203   6.384   9.099  0.3540 -2.2458  1.9480
  989MOL0     H33480   2.969   6.328   9.031 -2.1345  1.1353  0.2882
  989MOL0     H33481   2.750   6.410   9.021 -0.4747  1.7131  0.6775
  989MOL0     H33482   2.745   6.226   9.016 -2.6614 -0.2894 -2.2026
  989MOL0     H33483   2.523   6.287   8.965 -1.5843  1.3879 -0.0023
  989MOL0     H33484   2.533   6.232   9.138  1.4347  1.2070  2.0542
  989MOL0     H33485   2.393   6.448   9.143 -0.0857  1.1881 -0.1538
  989MOL0     H33486   2.514   6.528   9.040  2.4114 -0.8416 -0.1919
  989MOL0     H33487   2.554   6.436   9.327 -0.2532  1.5992  1.1163
  989MOL0     H33488   2.666   6.530   9.221 -0.5347  1.0807  0.6033
  989MOL0     H33489   2.407   6.610   9.375 -1.3963  0.8256 -1.6351
  989MOL0     H33490   2.450   6.695   9.227  1.1255 -2.1476 -1.8322
  989MOL0     H33491   2.661   6.764   9.335  0.6722  3.3997  2.5391
  989MOL0     H33492   2.515   6.797   9.432  0.4483 -0.4769  1.7857
  989MOL0     H33493   2.710   6.566   9.479  0.8979  0.7856 -1.3652
  989MOL0     H33494   2.562   6.570   9.560  1.1660 -0.5973 -1.0661
  989MOL0     H33495   2.795   6.768   9.589  1.7208 -0.7063  0.9639
  989MOL0     H33496   2.717   6.676   9.715  0.2990 -0.4702 -0.7453
  989MOL0     H33497   2.844   6.347   9.434  0.2169  0.0291  1.0372
  989MOL0     H33498   3.085   6.395   9.507  0.6066 -0.9638  0.2577
  989MOL0     H33499   3.501   6.518   9.652  1.6302 -2.6239 -0.7155
  989MOL0     H33500   3.732   6.592   9.668  0.9167 -2.0683  0.9096
  989MOL0     H33501   5.221   6.411   9.309  0.9860  0.9131  2.3449
  989MOL0     H33502   5.178   6.442   9.050  0.1802  0.9550 -2.0226
  989MOL0     H33503   5.441   6.628   8.693 -3.5531 -0.1255  0.6502
  989MOL0     H33504   5.459   6.679   8.453 -1.4432  0.4788  0.5929
  989MOL0     H33505   5.497   6.681   8.239 -0.9346 -0.2673  1.0928
  989MOL0     H33506   5.643   6.588   8.278 -0.4785  2.3447 -0.0486
  989MOL0     H33507   5.643   6.641   8.038 -1.3546  0.4480 -1.6201
  989MOL0     H33508   5.495   6.543   8.014  2.1641  0.9089 -3.7659
  989MOL0     H33509   5.611   6.333   8.083 -0.7170  0.2182 -0.6719
  989MOL0     H33510   5.747   6.434   8.129 -0.4263  3.4276  0.0783
  989MOL0     H33511   5.766   6.310   7.900 -1.5177 -2.2848  2.6163
  989MOL0     H33512   5.781   6.488   7.884  0.3276 -0.9180 -0.1886
  989MOL0     H33513   5.414   6.368   7.691  0.1640 -1.5646 -0.0225
  989MOL0     H33514   5.452   6.269   8.356  2.8149  0.3956 -0.0890
  989MOL0     H33515   5.442   6.218   8.595  0.2716 -0.6148 -2.1893
  990MOL0     O33516   4.180   2.270  11.202 -0.5316  0.8802  0.5175
  990MOL0     C33517   4.190   2.384  11.154  0.8591  0.4203  0.3935
  990MOL0     O33518   4.084   2.442  11.081 -0.9833  0.6780 -0.3292
  990MOL0     C33519   3.962   2.388  11.085  0.3419  0.1392  0.3649
  990MOL0     C33520   3.850   2.472  11.081 -0.0456  0.5491  0.2515
  990MOL0     C33521   3.717   2.416  11.059 -0.8629  0.8262 -1.4254
  990MOL0     C33522   3.705   2.280  11.043 -0.2168 -0.5407  0.8040
  990MOL0     O33523   3.572   2.241  11.026 -0.0444  0.6245 -0.5626
  990MOL0     C33524   3.547   2.101  11.034  0.2265 -0.3156  0.5909
  990MOL0     C33525   3.414   2.063  10.962  0.0716 -0.4319  0.2795
  990MOL0     C33526   3.326   1.977  11.054 -0.0424 -0.1507 -0.5904
  990MOL0     C33527   3.184   1.980  11.008 -0.1962  0.9122  0.3930
  990MOL0     C33528   3.101   1.892  11.108 -0.2674  0.5846  0.2642
  990MOL0     C33529   2.958   1.863  11.053 -0.8366  0.1982 -0.2806
  990MOL0     C33530   2.943   1.770  10.931  0.4516 -0.6812 -0.7588
  990MOL0     C33531   2.986   1.626  10.965  0.5059 -0.3825 -0.7998
  990MOL0     N33532   2.982   1.519  10.858  0.5421 -1.3056  0.2212
  990MOL0     C33533   2.990   1.384  10.860 -0.0569  0.0495 -0.7775
  990MOL0     C33534   2.965   1.336  10.743 -0.4148  0.5111  0.7958
  990MOL0     C33535   2.965   1.180  10.712  0.0194 -0.1636 -0.3132
  990MOL0     C33536   2.821   1.137  10.748  0.9063  0.2342  0.5972
  990MOL0     C33537   2.819   0.987  10.723  0.2473  0.4062  0.5910
  990MOL0     C33538   2.669   0.952  10.677 -0.2377 -0.4485  0.3783
  990MOL0     O33539   2.571   0.992  10.776  0.6189  0.4255  0.5110
  990MOL0     C33540   2.435   1.001  10.742 -0.5949 -0.8099 -0.2618
  990MOL0     C33541   2.356   1.085  10.818  0.8067 -0.3146 -0.1461
  990MOL0     C33542   2.220   1.110  10.784 -0.0326 -1.0039  0.4394
  990MOL0     C33543   2.146   1.188  10.878 -0.6620 -0.2438 -1.2118
  990MOL0     C33544   2.155   1.041  10.677 -0.5446 -0.2846 -0.2280
  990MOL0     C33545   2.005   1.034  10.644  0.0685 -0.1075 -0.0341
  990MOL0     O33546   1.925   1.105  10.716  0.1727  0.5207  0.1650
  990MOL0     C33547   1.790   1.077  10.729 -0.7958  0.0761 -0.0525
  990MOL0     C33548   1.703   1.186  10.731 -0.5114  0.1428 -0.2980
  990MOL0     C33549   1.566   1.173  10.744 -0.4596  0.7318 -1.3139
  990MOL0     C33550   1.514   1.038  10.768 -0.5374 -0.4430  0.2340
  990MOL0     O33551   1.387   1.001  10.796 -0.0488 -0.1337 -0.2846
  990MOL0     C33552   1.281   1.090  10.763 -1.2501  0.5137 -0.1754
  990MOL0     C33553   1.260   1.205  10.863 -0.5436  0.3013 -0.0330
  990MOL0     C33554   1.143   1.290  10.820 -0.9870  0.0414  0.0177
  990MOL0     C33555   1.010   1.220  10.852 -0.3200 -0.2915 -0.3620
  990MOL0     C33556   0.890   1.297  10.781  0.1966  0.0404 -0.2278
  990MOL0     C33557   0.838   1.415  10.865 -0.8324  0.2583 -0.7332
  990MOL0     C33558   0.730   1.491  10.804 -0.3001 -0.0587 -0.4002
  990MOL0     C33559   0.773   1.561  10.668 -0.6709  0.1970 -0.6714
  990MOL0    Cl33560   0.666   1.703  10.622 -0.4582  0.0896 -0.2603
  990MOL0     C33561   1.600   0.930  10.771 -0.2037 -0.3710  0.6231
  990MOL0     C33562   1.732   0.946  10.749 -0.2650  0.2322 -0.0137
  990MOL0     O33563   1.981   0.953  10.556  0.1663  0.0076  0.4404
  990MOL0     C33564   2.239   0.967  10.590  0.7809 -0.3601 -0.4960
  990MOL0     C33565   2.376   0.944  10.630  0.2838  0.8446 -0.2404
  990MOL0     N33566   2.951   1.441  10.657  0.1454 -0.7476 -0.1706
  990MOL0     N33567   2.957   1.549  10.724  0.7151 -0.5935 -0.4028
  990MOL0     C33568   3.817   2.198  11.052 -0.0529 -0.3751 -0.1340
  990MOL0     C33569   3.940   2.253  11.061  0.0616  0.0245  0.4302
  990MOL0     C33570   4.320   2.449  11.168 -0.0807  0.3687  1.3401
  990MOL0     C33571   4.330   2.584  11.120 -0.1720 -0.1940 -0.4642
  990MOL0     C33572   4.455   2.641  11.131  0.1000 -0.8213  0.1706
  990MOL0     C33573   4.564   2.574  11.190 -1.0122 -0.1969  0.0583
  990MOL0     O33574   4.681   2.644  11.211 -0.2459  0.2612 -0.9076
  990MOL0     C33575   4.808   2.581  11.183  0.1594 -0.3899 -0.6187
  990MOL0     C33576   4.887   2.650  11.080  0.5096 -0.3513  0.1114
  990MOL0     C33577   4.906   2.808  11.104  0.1029 -0.0385 -0.6063
  990MOL0     C33578   4.830   2.910  11.008  0.0575  0.0589 -1.0988
  990MOL0     C33579   4.708   2.952  11.074 -0.6713 -0.4759  0.1505
  990MOL0     C33580   4.612   2.997  11.129 -0.6055  0.4136 -0.5576
  990MOL0     C33581   4.548   2.435  11.233 -0.2723  1.1107 -0.3555
  990MOL0     C33582   4.425   2.382  11.234  0.2595  0.9137  0.7784
  990MOL0     H33583   3.855   2.580  11.096  1.5855  0.1375  3.5136
  990MOL0     H33584   3.636   2.488  11.072 -0.1995  1.6571 -1.8328
  990MOL0     H33585   3.620   2.030  10.996  0.6772  0.3440  0.1950
  990MOL0     H33586   3.543   2.077  11.140  1.0105 -0.2231  0.6458
  990MOL0     H33587   3.367   2.161  10.944  2.9489  1.1067  0.5278
  990MOL0     H33588   3.435   2.014  10.866  1.5372 -1.3801  1.0552
  990MOL0     H33589   3.353   1.872  11.066 -1.8611 -0.4158  1.8816
  990MOL0     H33590   3.338   2.012  11.156 -0.3691 -1.6217 -0.0204
  990MOL0     H33591   3.153   2.084  10.989 -0.2184  0.5771 -1.6376
  990MOL0     H33592   3.170   1.935  10.909 -1.5160 -1.8408  1.7289
  990MOL0     H33593   3.154   1.797  11.106  0.4483  0.9821 -1.2331
  990MOL0     H33594   3.098   1.939  11.207  0.3516  0.3231  0.4128
  990MOL0     H33595   2.902   1.821  11.137  1.8514  1.1350  2.1063
  990MOL0     H33596   2.924   1.966  11.038 -0.7674  0.4276  1.0823
  990MOL0     H33597   2.840   1.772  10.895 -0.1918  1.2576  1.0090
  990MOL0     H33598   2.999   1.812  10.847  0.0533 -1.3732 -1.3731
  990MOL0     H33599   2.899   1.601  11.027 -0.0895  0.8228 -1.1213
  990MOL0     H33600   3.075   1.609  11.026 -1.2283 -3.3403  1.1869
  990MOL0     H33601   2.992   1.322  10.949 -2.1226 -1.7114 -1.8304
  990MOL0     H33602   2.992   1.174  10.606 -2.9196  2.2792 -1.3348
  990MOL0     H33603   3.040   1.133  10.776 -0.1465  0.9167  0.7099
  990MOL0     H33604   2.761   1.187  10.671 -0.8773 -4.0836 -1.1178
  990MOL0     H33605   2.789   1.159  10.851 -1.1246 -1.8053  0.4876
  990MOL0     H33606   2.848   0.930  10.812 -2.0721 -1.2056  0.4168
  990MOL0     H33607   2.880   0.955  10.639 -0.2620  0.2519  0.2774
  990MOL0     H33608   2.670   0.843  10.670 -1.8636 -0.5663  1.3992
  990MOL0     H33609   2.642   0.997  10.581 -3.2541  3.8647  2.9365
  990MOL0     H33610   2.389   1.134  10.909 -2.1630  0.9477  0.3609
  990MOL0     H33611   2.218   1.220  10.954 -2.1391  0.0374  0.1181
  990MOL0     H33612   2.109   1.284  10.840 -0.1153  0.9816  1.1810
  990MOL0     H33613   2.059   1.138  10.922 -0.5487  2.0188  1.9250
  990MOL0     H33614   1.740   1.286  10.711 -1.0401  0.6875  1.2623
  990MOL0     H33615   1.501   1.259  10.730 -0.6155  1.3068  2.1210
  990MOL0     H33616   1.289   1.142  10.667  1.6927 -1.6928 -1.2774
  990MOL0     H33617   1.193   1.026  10.769 -0.8578  0.0825  1.7177
  990MOL0     H33618   1.240   1.153  10.957  2.2519 -1.2378 -0.1871
  990MOL0     H33619   1.351   1.264  10.875 -0.1826  0.1093 -1.5429
  990MOL0     H33620   1.157   1.319  10.716  1.5567  2.5585  0.9300
  990MOL0     H33621   1.159   1.383  10.874 -0.6403  0.7632 -1.2992
  990MOL0     H33622   1.017   1.119  10.813 -0.5569 -1.2612  1.9372
  990MOL0     H33623   0.985   1.216  10.959 -2.9426  1.4347 -0.8176
  990MOL0     H33624   0.814   1.222  10.757 -0.0716  0.4358 -0.6381
  990MOL0     H33625   0.915   1.335  10.681  1.8059  1.4052  0.6487
  990MOL0     H33626   0.808   1.373  10.961  2.7940  0.6040  0.7013
  990MOL0     H33627   0.917   1.487  10.888 -1.0785 -0.3130  2.3122
  990MOL0     H33628   0.704   1.570  10.875  1.1329 -0.6171  0.7923
  990MOL0     H33629   0.641   1.427  10.800 -1.1748  0.6785  3.3930
  990MOL0     H33630   0.784   1.488  10.588 -2.1158  1.4110 -2.0464
  990MOL0     H33631   0.875   1.599  10.670  1.4240 -4.7269 -0.2424
  990MOL0     H33632   1.566   0.830  10.796  1.3385 -1.1719 -0.3431
  990MOL0     H33633   1.782   0.850  10.749 -2.3166 -0.9068 -1.8817
  990MOL0     H33634   2.211   0.912  10.501  0.5324 -0.1056 -0.5762
  990MOL0     H33635   2.441   0.885  10.566  0.7009  0.8875  0.1353
  990MOL0     H33636   3.812   2.091  11.032  0.4523 -0.5635  0.7225
  990MOL0     H33637   4.025   2.190  11.039 -0.4399 -0.6036  0.2663
  990MOL0     H33638   4.243   2.641  11.087 -0.8127  1.6401  3.7404
  990MOL0     H33639   4.471   2.740  11.090 -1.7392 -0.9856 -1.0848
  990MOL0     H33640   4.874   2.570  11.270 -2.6362  1.4904  1.9326
  990MOL0     H33641   4.799   2.481  11.139  1.8906 -0.6910 -0.3763
  990MOL0     H33642   4.837   2.629  10.985 -0.5463  1.8866  0.0929
  990MOL0     H33643   4.986   2.607  11.064  0.8518  0.7205 -0.8337
  990MOL0     H33644   5.011   2.822  11.079  0.3351  0.4658  0.5685
  990MOL0     H33645   4.884   2.827  11.210 -1.9722 -1.1142 -0.7839
  990MOL0     H33646   4.808   2.873  10.908 -2.9375 -0.7410 -0.2304
  990MOL0     H33647   4.884   3.004  10.991  1.5749  0.3588  3.7905
  990MOL0     H33648   4.519   3.026  11.174 -1.7603 -0.9967 -1.9312
  990MOL0     H33649   4.633   2.381  11.274 -2.0250 -1.3382  0.3462
  990MOL0     H33650   4.410   2.283  11.275  1.6704  1.2932  2.3262
  991MOL0     O33651   6.301   6.044   4.396  0.3393  0.3041 -0.1842
  991MOL0     C33652   6.288   6.074   4.273  0.2012  0.4225  0.3062
  991MOL0     O33653   6.172   6.077   4.206  0.3860  0.5208 -0.4337
  991MOL0     C33654   6.058   6.045   4.270 -1.0549  1.2799  0.0949
  991MOL0     C33655   6.002   6.113   4.373  0.8220  0.3607 -0.6911
  991MOL0     C33656   5.872   6.069   4.422 -0.1498  0.1693 -0.1955
  991MOL0     C33657   5.803   5.964   4.364 -0.0700  0.1172  1.3770
  991MOL0     O33658   5.695   5.924   4.430 -0.1990  0.2541 -0.4357
  991MOL0     C33659   5.605   5.822   4.381 -0.8294  0.4703  0.0335
  991MOL0     C33660   5.474   5.848   4.437  0.2984 -0.3735  0.1063
  991MOL0     C33661   5.354   5.764   4.383 -0.3913 -0.7556  0.1907
  991MOL0     C33662   5.234   5.812   4.468 -0.0323  0.2112  0.7431
  991MOL0     C33663   5.113   5.723   4.443 -0.2397 -0.2034  0.1701
  991MOL0     C33664   4.989   5.766   4.520  0.0634 -0.2073 -0.1548
  991MOL0     C33665   4.887   5.657   4.495 -0.4229  0.5301 -0.0922
  991MOL0     C33666   4.765   5.686   4.579  0.3671 -0.5865  0.9457
  991MOL0     N33667   4.695   5.560   4.605  0.0041  0.5881 -0.8773
  991MOL0     C33668   4.582   5.513   4.543  0.3397  0.0597 -0.6722
  991MOL0     C33669   4.553   5.401   4.621  0.1356  0.0161  0.5291
  991MOL0     C33670   4.438   5.306   4.592 -0.4443 -0.2753 -0.3989
  991MOL0     C33671   4.305   5.372   4.582  0.3100  0.6193 -0.1401
  991MOL0     C33672   4.193   5.268   4.616  0.0303  0.4514  0.1093
  991MOL0     C33673   4.056   5.327   4.602  0.1178 -0.0517  0.0892
  991MOL0     O33674   4.043   5.440   4.688  0.5884  0.3309 -0.0251
  991MOL0     C33675   3.946   5.528   4.661  0.3194  0.4090 -0.4179
  991MOL0     C33676   3.950   5.647   4.734  0.3704  0.4068 -0.7286
  991MOL0     C33677   3.839   5.733   4.724  0.4253 -0.4581  0.0592
  991MOL0     C33678   3.836   5.848   4.817 -0.0803  0.3264 -0.1286
  991MOL0     C33679   3.733   5.719   4.627 -0.0850 -0.2809 -0.1562
  991MOL0     C33680   3.621   5.812   4.595  0.5475  0.7837 -0.1433
  991MOL0     O33681   3.502   5.759   4.568  0.0682 -0.3412  0.5711
  991MOL0     C33682   3.395   5.831   4.524 -0.0126  0.5168 -0.1955
  991MOL0     C33683   3.348   5.800   4.397 -0.1412  0.1687 -0.0748
  991MOL0     C33684   3.235   5.874   4.344 -0.1736 -0.5934 -0.3080
  991MOL0     C33685   3.200   5.994   4.410  0.4816 -0.1079  0.3254
  991MOL0     O33686   3.082   6.056   4.362  0.2532 -0.8082  0.0141
  991MOL0     C33687   3.061   6.197   4.393  0.1398 -0.1061 -0.5371
  991MOL0     C33688   2.951   6.265   4.316 -0.7435  1.3970  1.4742
  991MOL0     C33689   2.799   6.232   4.356  0.2739  0.0759  0.7636
  991MOL0     C33690   2.774   6.080   4.362  0.0303  0.9234  0.7279
  991MOL0     C33691   2.623   6.048   4.378  0.0529  0.6399 -0.5685
  991MOL0     C33692   2.599   5.911   4.455  0.1452 -0.2153  0.0850
  991MOL0     C33693   2.451   5.870   4.454  0.2064 -0.9180  0.0996
  991MOL0     C33694   2.381   5.964   4.557  0.0021 -0.0728  1.1056
  991MOL0    Cl33695   2.231   5.891   4.614  0.1388 -0.2960  0.0476
  991MOL0     C33696   3.250   6.027   4.532 -0.1816  0.4650 -0.1315
  991MOL0     C33697   3.347   5.946   4.592 -0.5097 -0.5124 -0.5027
  991MOL0     O33698   3.647   5.931   4.616  1.1470  0.1084 -0.3588
  991MOL0     C33699   3.740   5.603   4.551 -1.0961 -0.4177  0.4920
  991MOL0     C33700   3.841   5.509   4.567  0.3437  0.9962 -0.4428
  991MOL0     N33701   4.654   5.374   4.707 -0.3088 -0.5719 -0.5578
  991MOL0     N33702   4.732   5.470   4.702  0.0425 -0.0756 -0.3687
  991MOL0     C33703   5.857   5.903   4.242  0.7698  1.1490 -1.0188
  991MOL0     C33704   5.986   5.939   4.204 -0.2225  1.2364  0.3908
  991MOL0     C33705   6.404   6.129   4.203 -0.1721  0.2547  0.8797
  991MOL0     C33706   6.523   6.077   4.235 -0.8405 -0.6033  0.9644
  991MOL0     C33707   6.634   6.112   4.149  0.2482  0.7028 -0.1529
  991MOL0     C33708   6.627   6.206   4.043  1.1800  0.5689  0.5876
  991MOL0     O33709   6.747   6.245   3.987 -0.3922  0.1670  0.2336
  991MOL0     C33710   6.747   6.365   3.914  0.4935  0.1871  0.4197
  991MOL0     C33711   6.880   6.402   3.865 -0.4242 -0.9871 -0.4813
  991MOL0     C33712   6.884   6.543   3.804  0.3576  0.7950  0.3250
  991MOL0     C33713   6.809   6.566   3.670  0.0896  0.5921 -0.1461
  991MOL0     C33714   6.885   6.529   3.546  0.2156  0.6777  0.7895
  991MOL0     C33715   6.953   6.516   3.441  0.7259  0.4017  0.7984
  991MOL0     C33716   6.498   6.254   4.009  1.1637 -0.6100  0.5193
  991MOL0     C33717   6.392   6.222   4.098 -0.0508  0.0035 -0.4149
  991MOL0     H33718   6.034   6.207   4.417 -1.1880  1.2519 -1.0303
  991MOL0     H33719   5.809   6.127   4.489 -1.9526  1.0369 -2.5082
  991MOL0     H33720   5.618   5.815   4.272  0.5535 -0.2480  0.2169
  991MOL0     H33721   5.639   5.727   4.423  2.2667  1.5613  0.2573
  991MOL0     H33722   5.483   5.831   4.545  1.0539 -1.4815 -0.1241
  991MOL0     H33723   5.437   5.949   4.417 -3.3742 -1.5752  0.0667
  991MOL0     H33724   5.318   5.772   4.280 -1.1880  0.4267  0.5504
  991MOL0     H33725   5.376   5.658   4.403 -0.7397 -0.7430  0.6632
  991MOL0     H33726   5.248   5.813   4.577  0.3827  0.5550  0.6927
  991MOL0     H33727   5.209   5.916   4.443 -2.7463  0.2144  2.9744
  991MOL0     H33728   5.090   5.726   4.337  1.2341  1.2221 -0.1545
  991MOL0     H33729   5.149   5.621   4.461 -2.5771 -1.3034 -1.0429
  991MOL0     H33730   5.006   5.779   4.627  1.5306 -0.5560 -0.3240
  991MOL0     H33731   4.950   5.861   4.483  0.6719  0.5319  1.0346
  991MOL0     H33732   4.873   5.661   4.386  0.8079  0.5194 -0.2660
  991MOL0     H33733   4.917   5.554   4.516 -2.1507 -0.7071 -3.1380
  991MOL0     H33734   4.700   5.761   4.534  0.7682 -1.4935 -1.2827
  991MOL0     H33735   4.804   5.724   4.674  0.0519 -2.6340  1.9543
  991MOL0     H33736   4.520   5.557   4.465 -1.0834  0.6849  0.7628
  991MOL0     H33737   4.475   5.269   4.495  3.0321 -0.0348  0.7132
  991MOL0     H33738   4.431   5.218   4.656  1.3274 -0.6170 -0.6290
  991MOL0     H33739   4.276   5.410   4.484  0.6915  0.3787 -0.3506
  991MOL0     H33740   4.308   5.450   4.658  1.1361  1.3340 -0.8996
  991MOL0     H33741   4.196   5.227   4.717  1.0340 -2.6571 -1.0667
  991MOL0     H33742   4.195   5.187   4.542 -0.8867  1.4851 -1.0894
  991MOL0     H33743   3.973   5.256   4.607  0.2175 -0.1821 -0.0884
  991MOL0     H33744   4.049   5.374   4.503 -0.3069 -1.8963 -0.7972
  991MOL0     H33745   4.017   5.672   4.816 -0.0710  0.4285 -0.3733
  991MOL0     H33746   3.862   5.943   4.769 -5.0584  1.8885 -0.2638
  991MOL0     H33747   3.737   5.863   4.860  0.8797  0.9860  1.9735
  991MOL0     H33748   3.899   5.835   4.905 -0.6189 -0.0269  0.2086
  991MOL0     H33749   3.376   5.704   4.355 -0.8727  0.6024 -1.6443
  991MOL0     H33750   3.193   5.822   4.259 -0.2067 -1.7667  0.4132
  991MOL0     H33751   3.042   6.208   4.500  1.8510 -0.5590 -0.1509
  991MOL0     H33752   3.157   6.249   4.386 -0.2960  0.9328  0.7492
  991MOL0     H33753   2.957   6.374   4.326  2.3979  1.6053 -1.1234
  991MOL0     H33754   2.962   6.234   4.212  0.0832 -1.9564  2.4374
  991MOL0     H33755   2.747   6.282   4.274 -0.7072  2.1298  2.5237
  991MOL0     H33756   2.782   6.295   4.444 -1.1954  3.0809 -1.4664
  991MOL0     H33757   2.807   6.026   4.273 -0.8521 -3.1777  2.6311
  991MOL0     H33758   2.827   6.040   4.450  1.5003 -1.0744 -0.9605
  991MOL0     H33759   2.580   6.038   4.278 -0.9991  0.7864 -0.1360
  991MOL0     H33760   2.580   6.135   4.429 -0.8884 -0.9898  1.5462
  991MOL0     H33761   2.662   5.837   4.405  0.4801  0.4893 -0.5579
  991MOL0     H33762   2.639   5.915   4.557  0.6434 -1.1056 -0.0646
  991MOL0     H33763   2.442   5.766   4.486 -0.2341 -1.7759 -2.5877
  991MOL0     H33764   2.416   5.867   4.350  1.1835 -1.1960 -0.2384
  991MOL0     H33765   2.360   6.060   4.510 -0.8501  0.3127  2.2451
  991MOL0     H33766   2.443   5.987   4.645  0.2642 -2.1715  1.5227
  991MOL0     H33767   3.218   6.116   4.586  1.8882  0.5819  1.0171
  991MOL0     H33768   3.395   5.946   4.690  3.0832 -0.7051 -2.0787
  991MOL0     H33769   3.662   5.574   4.481 -0.2462 -4.4327  0.9644
  991MOL0     H33770   3.830   5.414   4.517  0.1779  0.4992  0.5247
  991MOL0     H33771   5.810   5.814   4.201 -2.3414  2.4352 -0.5354
  991MOL0     H33772   6.044   5.892   4.126 -0.7659  1.7393 -0.3223
  991MOL0     H33773   6.528   6.000   4.312 -2.6848  1.1895  3.0560
  991MOL0     H33774   6.732   6.065   4.153  0.1654  0.5738  0.4315
  991MOL0     H33775   6.670   6.362   3.836  1.6248 -0.1404 -0.7208
  991MOL0     H33776   6.710   6.441   3.983  0.9157  1.4349 -0.6891
  991MOL0     H33777   6.913   6.317   3.805 -1.3210 -3.1938  1.9987
  991MOL0     H33778   6.948   6.395   3.950 -1.6488 -2.2399  0.4334
  991MOL0     H33779   6.989   6.566   3.785  1.1025 -1.3033  1.6124
  991MOL0     H33780   6.836   6.607   3.879  0.4371  0.9890  0.2138
  991MOL0     H33781   6.797   6.674   3.664  3.8398  1.2032  0.9299
  991MOL0     H33782   6.703   6.536   3.667  0.1163  0.5661 -0.9261
  991MOL0     H33783   6.998   6.505   3.345  1.4636  3.5716  0.6659
  991MOL0     H33784   6.484   6.319   3.923  1.4675 -1.4923 -0.2160
  991MOL0     H33785   6.297   6.267   4.069 -0.0388  0.4013  0.1337
  992MOL0     O33786   0.935   5.321   5.041  0.6339 -0.8991  0.2849
  992MOL0     C33787   0.919   5.372   5.149 -0.6152  0.2342 -0.6194
  992MOL0     O33788   0.971   5.497   5.174  0.2085 -0.2512 -0.9141
  992MOL0     C33789   1.093   5.529   5.117 -0.0669 -0.7265 -0.4758
  992MOL0     C33790   1.111   5.537   4.978 -0.1668 -0.0991  0.2141
  992MOL0     C33791   1.235   5.577   4.918  0.1015  0.1496 -0.5595
  992MOL0     C33792   1.349   5.612   4.999  0.1933 -0.5203  0.5676
  992MOL0     O33793   1.457   5.658   4.927  0.1892  0.1619  0.5808
  992MOL0     C33794   1.558   5.722   4.995  0.2220 -0.2536 -0.8584
  992MOL0     C33795   1.647   5.784   4.882 -0.7725 -0.9943  0.3412
  992MOL0     C33796   1.736   5.898   4.930 -0.4799 -0.1575  0.0505
  992MOL0     C33797   1.839   5.949   4.827  0.3647 -0.4273  0.4652
  992MOL0     C33798   1.895   6.096   4.864 -0.6405  0.7402  0.1099
  992MOL0     C33799   2.043   6.117   4.803  0.8697 -0.1675  0.7552
  992MOL0     C33800   2.098   6.260   4.839 -0.3819  0.6090 -0.0291
  992MOL0     C33801   2.249   6.281   4.823  0.1949  1.5542 -0.0924
  992MOL0     N33802   2.278   6.417   4.771 -0.0575 -0.1525 -0.1234
  992MOL0     C33803   2.272   6.528   4.851 -0.5072  0.3997  0.2029
  992MOL0     C33804   2.286   6.631   4.763  0.0650 -0.3386 -0.3281
  992MOL0     C33805   2.286   6.783   4.799  0.3996 -0.4212 -0.7200
  992MOL0     C33806   2.181   6.859   4.716 -0.1150  0.4304  0.2679
  992MOL0     C33807   2.144   7.003   4.765 -0.9989  0.8431 -0.1825
  992MOL0     C33808   2.051   7.074   4.668 -0.2892 -0.2069  0.1584
  992MOL0     O33809   1.924   7.011   4.683 -0.0450  0.9618 -0.5767
  992MOL0     C33810   1.808   7.077   4.645 -0.4401  0.3571 -0.0018
  992MOL0     C33811   1.795   7.204   4.595  0.5676 -1.1826  0.4624
  992MOL0     C33812   1.675   7.257   4.554  0.3503  0.6970 -0.0334
  992MOL0     C33813   1.679   7.391   4.501 -0.4120  0.2842  0.6488
  992MOL0     C33814   1.556   7.190   4.567 -0.2111 -0.0458 -0.1884
  992MOL0     C33815   1.415   7.239   4.549 -0.3340 -0.6673  0.4929
  992MOL0     O33816   1.390   7.362   4.517  0.5009  0.2372  0.5985
  992MOL0     C33817   1.265   7.402   4.471  0.0280  0.6340  0.5732
  992MOL0     C33818   1.244   7.452   4.336 -0.3445  0.0221  0.2032
  992MOL0     C33819   1.128   7.512   4.306  0.2988 -0.3827 -0.0764
  992MOL0     C33820   1.021   7.537   4.406 -0.5504  0.1380 -0.0248
  992MOL0     O33821   0.911   7.610   4.366  0.2964 -0.0562 -0.3150
  992MOL0     C33822   0.877   7.623   4.222 -0.5144  0.2626  0.0064
  992MOL0     C33823   0.742   7.670   4.180  0.0918 -0.2350 -0.1764
  992MOL0     C33824   0.624   7.576   4.222  0.4768  0.7242  0.0282
  992MOL0     C33825   0.481   7.618   4.187 -0.1783 -1.0606 -0.1973
  992MOL0     C33826   0.374   7.521   4.239  0.5332  0.0969  1.2863
  992MOL0     C33827   0.352   7.497   4.388  0.3849  0.2153  0.5876
  992MOL0     C33828   0.244   7.389   4.426  0.3938  0.5449  0.2389
  992MOL0     C33829   0.100   7.418   4.377 -0.3782  0.2469  0.6489
  992MOL0    Cl33830  -0.022   7.293   4.420  0.0048  0.0825 -0.8693
  992MOL0     C33831   1.040   7.489   4.533 -0.6130  0.0816 -0.0177
  992MOL0     C33832   1.165   7.426   4.564  0.5318 -0.1642 -0.0807
  992MOL0     O33833   1.327   7.158   4.546  0.2111  0.7493  0.2565
  992MOL0     C33834   1.569   7.060   4.617 -0.8330 -0.1020  0.3270
  992MOL0     C33835   1.684   7.006   4.658  0.3107 -0.2926 -0.0606
  992MOL0     N33836   2.313   6.579   4.630  1.2263  0.0190 -0.5217
  992MOL0     N33837   2.324   6.453   4.647  0.8392 -0.0979  0.9153
  992MOL0     C33838   1.328   5.624   5.135  0.4757 -0.6235 -0.2981
  992MOL0     C33839   1.199   5.587   5.189  1.2606  0.6284 -1.1583
  992MOL0     C33840   0.830   5.326   5.249  0.8025  0.9661  0.0038
  992MOL0     C33841   0.749   5.214   5.227  0.5264 -1.1292  0.8418
  992MOL0     C33842   0.658   5.180   5.322 -0.0285  0.5249 -0.2384
  992MOL0     C33843   0.645   5.247   5.446 -0.7628 -0.7936 -0.8134
  992MOL0     O33844   0.554   5.211   5.540 -0.1175 -0.0568 -0.8858
  992MOL0     C33845   0.445   5.110   5.503 -0.9328 -0.4251 -0.5089
  992MOL0     C33846   0.359   5.071   5.620 -0.3989 -0.6098  0.1302
  992MOL0     C33847   0.231   4.989   5.583 -0.5771 -0.0443 -0.1330
  992MOL0     C33848   0.169   4.901   5.698 -0.1948  0.2984 -0.2132
  992MOL0     C33849   0.130   4.979   5.810 -0.3240  0.8364 -0.1720
  992MOL0     C33850   0.088   5.039   5.904  0.1397 -0.5595 -0.6526
  992MOL0     C33851   0.733   5.354   5.475  1.6578 -0.7290 -0.3190
  992MOL0     C33852   0.825   5.394   5.378  0.1603  0.8740  0.1438
  992MOL0     H33853   1.037   5.509   4.904  0.5641 -1.0791 -0.1666
  992MOL0     H33854   1.236   5.560   4.811  2.0469 -1.4267 -0.3274
  992MOL0     H33855   1.528   5.796   5.069  1.5474  0.7148 -1.2549
  992MOL0     H33856   1.615   5.649   5.054  0.3762  1.0788  0.7252
  992MOL0     H33857   1.708   5.706   4.837  0.6655  0.4591 -0.2928
  992MOL0     H33858   1.590   5.815   4.794  0.9829 -2.6203 -1.4559
  992MOL0     H33859   1.670   5.986   4.934 -1.9538 -1.1856 -0.7562
  992MOL0     H33860   1.776   5.877   5.029 -1.8138 -0.6100  0.5132
  992MOL0     H33861   1.926   5.883   4.820 -0.1599 -0.9827 -3.6978
  992MOL0     H33862   1.793   5.948   4.727  0.5547  0.1223  0.3638
  992MOL0     H33863   1.832   6.176   4.824 -0.6652 -0.6070 -2.7446
  992MOL0     H33864   1.915   6.108   4.971  1.5112 -2.3635  0.1916
  992MOL0     H33865   2.109   6.039   4.842  0.9696 -0.4876 -0.0223
  992MOL0     H33866   2.045   6.111   4.694  0.0749  2.6131  0.5003
  992MOL0     H33867   2.045   6.324   4.768 -2.2683 -0.7515  0.0896
  992MOL0     H33868   2.073   6.303   4.936  1.8044 -0.5239  1.1237
  992MOL0     H33869   2.282   6.207   4.749 -0.5022  0.1059  0.9870
  992MOL0     H33870   2.312   6.267   4.911 -1.3983  2.2729  1.2248
  992MOL0     H33871   2.254   6.533   4.958  1.7302 -0.0107  0.6569
  992MOL0     H33872   2.269   6.781   4.907  1.0931  0.7343 -0.5769
  992MOL0     H33873   2.382   6.827   4.773 -0.8131  2.4270 -0.7852
  992MOL0     H33874   2.093   6.797   4.734  2.1245 -2.6938  1.3608
  992MOL0     H33875   2.207   6.849   4.611 -0.6599  1.7308 -0.0114
  992MOL0     H33876   2.233   7.066   4.765 -2.3923  2.9816 -2.2513
  992MOL0     H33877   2.109   6.995   4.868 -1.1361  2.6245 -0.0566
  992MOL0     H33878   2.075   7.093   4.563  0.3693 -1.9012 -0.0304
  992MOL0     H33879   2.040   7.174   4.712 -1.8223 -0.5654  0.6252
  992MOL0     H33880   1.879   7.273   4.603 -0.1539 -0.2723  0.3387
  992MOL0     H33881   1.780   7.431   4.516  0.4085 -0.9458 -1.1500
  992MOL0     H33882   1.656   7.392   4.394 -1.2962 -2.3299  0.7603
  992MOL0     H33883   1.609   7.449   4.561 -0.4666  0.1292  0.7336
  992MOL0     H33884   1.323   7.435   4.263 -0.2613  1.5235 -0.1072
  992MOL0     H33885   1.110   7.551   4.206  0.1391  0.5970  0.3183
  992MOL0     H33886   0.956   7.684   4.178 -0.4124  2.5584  3.0984
  992MOL0     H33887   0.882   7.521   4.182  1.3756  0.2650  0.1686
  992MOL0     H33888   0.731   7.771   4.223 -1.7726 -0.2782 -0.4796
  992MOL0     H33889   0.722   7.683   4.074  2.3295  1.3504 -0.4603
  992MOL0     H33890   0.622   7.567   4.331  0.0645  2.7280  0.2310
  992MOL0     H33891   0.646   7.477   4.181  0.6714  1.4436 -1.6695
  992MOL0     H33892   0.454   7.713   4.233 -0.4454 -1.0816 -0.3110
  992MOL0     H33893   0.470   7.633   4.079  0.5653 -0.2437 -0.1694
  992MOL0     H33894   0.400   7.424   4.196 -0.3527  0.4776 -0.1793
  992MOL0     H33895   0.280   7.551   4.194  1.2723  1.4137  0.5599
  992MOL0     H33896   0.448   7.469   4.432  1.2371  3.8392  1.3217
  992MOL0     H33897   0.330   7.591   4.438  2.0269  0.9543 -0.0058
  992MOL0     H33898   0.255   7.368   4.533 -0.4711 -0.9781  0.0582
  992MOL0     H33899   0.266   7.296   4.373  1.8049  0.2123  1.3502
  992MOL0     H33900   0.110   7.407   4.269 -0.1048 -1.6480  0.8387
  992MOL0     H33901   0.057   7.515   4.407  2.9220  1.7715  0.8911
  992MOL0     H33902   0.965   7.515   4.608  0.6099  1.4349  0.7875
  992MOL0     H33903   1.186   7.391   4.664 -0.8595  0.4441  0.4605
  992MOL0     H33904   1.483   6.997   4.635 -1.2679  0.0197 -1.2413
  992MOL0     H33905   1.678   6.907   4.703  0.1015 -0.8166 -1.2191
  992MOL0     H33906   1.390   5.675   5.208 -0.5622  1.2378 -0.6721
  992MOL0     H33907   1.179   5.595   5.296 -2.2100 -0.4774 -1.6232
  992MOL0     H33908   0.752   5.165   5.130  0.9511  0.3648  0.0784
  992MOL0     H33909   0.580   5.106   5.307  1.7107 -2.4183  3.5717
  992MOL0     H33910   0.371   5.152   5.434 -1.7154 -1.6577 -0.4291
  992MOL0     H33911   0.491   5.019   5.465  2.1056  2.0789 -3.4055
  992MOL0     H33912   0.316   5.158   5.669 -1.3320 -1.9490  1.7821
  992MOL0     H33913   0.421   5.011   5.686 -0.2520 -0.1523  0.4105
  992MOL0     H33914   0.258   4.911   5.511 -1.2490 -0.3866 -0.0194
  992MOL0     H33915   0.152   5.057   5.549 -0.7359  0.1084  0.5286
  992MOL0     H33916   0.238   4.825   5.734  1.5612  1.2629 -1.3788
  992MOL0     H33917   0.084   4.853   5.648 -0.5582  0.2642  0.4262
  992MOL0     H33918   0.052   5.085   5.994 -1.1076  0.0921 -1.4529
  992MOL0     H33919   0.727   5.413   5.567 -0.2575 -2.6426  0.8719
  992MOL0     H33920   0.895   5.473   5.403  0.3608  0.4072  1.0820
  993MOL0     O33921   3.363   7.304   1.460  0.5178 -0.7645 -0.2754
  993MOL0     C33922   3.335   7.188   1.484  0.9759  0.2508 -0.3239
  993MOL0     O33923   3.225   7.121   1.444  0.1691 -0.4455 -0.3526
  993MOL0     C33924   3.151   7.166   1.338 -0.2319  0.3654 -0.3477
  993MOL0     C33925   3.021   7.110   1.337 -0.4102 -0.4458 -0.0028
  993MOL0     C33926   2.916   7.145   1.248  0.6087 -0.6185  0.5131
  993MOL0     C33927   2.952   7.222   1.139 -0.5218  1.0786  0.2822
  993MOL0     O33928   2.855   7.262   1.051 -0.0614  0.1574  0.0665
  993MOL0     C33929   2.862   7.221   0.917  0.8622  1.1382  0.3969
  993MOL0     C33930   2.788   7.332   0.819  0.3818  0.3907  0.5590
  993MOL0     C33931   2.638   7.333   0.854  0.7545  0.1841 -0.6170
  993MOL0     C33932   2.556   7.435   0.783 -0.2473 -0.3406  0.7000
  993MOL0     C33933   2.409   7.431   0.824 -0.4260  0.5453  0.1989
  993MOL0     C33934   2.327   7.541   0.758  0.2516  0.0241 -0.3771
  993MOL0     C33935   2.180   7.533   0.801  0.3861  0.5282 -0.0185
  993MOL0     C33936   2.100   7.408   0.739  0.4251 -0.1227 -0.3842
  993MOL0     N33937   1.967   7.419   0.792  0.0224 -0.4174  1.3505
  993MOL0     C33938   1.924   7.337   0.888  0.1443 -0.5013 -0.2921
  993MOL0     C33939   1.799   7.382   0.920  1.3163 -0.0097  0.4204
  993MOL0     C33940   1.720   7.325   1.032  0.3717 -0.6313 -0.0874
  993MOL0     C33941   1.625   7.202   0.993  0.1548  0.0545  0.5256
  993MOL0     C33942   1.534   7.236   0.870  0.0289 -0.3008  0.2771
  993MOL0     C33943   1.432   7.141   0.836  0.3916  0.2605  0.9770
  993MOL0     O33944   1.326   7.135   0.936 -0.0630  0.2801 -0.7101
  993MOL0     C33945   1.216   7.227   0.927 -0.6929  0.8215  0.2016
  993MOL0     C33946   1.174   7.280   1.043  0.1865  0.2476  0.0933
  993MOL0     C33947   1.050   7.348   1.050 -0.6394 -0.9330 -0.4852
  993MOL0     C33948   0.992   7.375   1.195 -0.5931  0.3067  0.1935
  993MOL0     C33949   0.980   7.383   0.934 -0.2338 -0.0337 -0.2515
  993MOL0     C33950   0.846   7.458   0.931  0.2185  0.6845  0.3545
  993MOL0     O33951   0.762   7.449   1.038  0.8826  0.0905 -1.0291
  993MOL0     C33952   0.645   7.522   1.035  0.6328 -0.4914  0.7781
  993MOL0     C33953   0.520   7.449   1.044  0.2518 -0.6719  0.4880
  993MOL0     C33954   0.397   7.520   1.034 -0.1017  0.0738  0.0459
  993MOL0     C33955   0.394   7.664   1.041  0.5056 -0.1562  0.1729
  993MOL0     O33956   0.281   7.748   1.055 -0.8090 -0.1303  0.4756
  993MOL0     C33957   0.158   7.698   1.006  0.3609  0.0201  0.3179
  993MOL0     C33958   0.058   7.812   0.990  0.2932  0.2880 -0.0760
  993MOL0     C33959  -0.072   7.756   0.925 -0.1958 -0.2213 -0.5317
  993MOL0     C33960  -0.162   7.875   0.870 -0.0514 -0.1636 -0.8188
  993MOL0     C33961  -0.310   7.842   0.856  0.6948  0.0250  0.0789
  993MOL0     C33962  -0.335   7.739   0.742  0.7692 -1.0575 -0.6409
  993MOL0     C33963  -0.474   7.681   0.767  0.1211 -0.3094  0.2745
  993MOL0     C33964  -0.527   7.602   0.648  0.3379  0.3977  0.4812
  993MOL0    Cl33965  -0.609   7.700   0.518 -0.2615 -0.2338 -0.2666
  993MOL0     C33966   0.515   7.735   1.045  0.3059 -0.1777 -0.2965
  993MOL0     C33967   0.641   7.665   1.044 -0.2945 -0.1450  0.1918
  993MOL0     O33968   0.820   7.522   0.828 -0.2847 -0.6274 -0.2601
  993MOL0     C33969   1.037   7.340   0.809  0.0562  0.0822 -0.2783
  993MOL0     C33970   1.152   7.260   0.809  1.0741 -0.1365 -0.3722
  993MOL0     N33971   1.767   7.487   0.841 -0.6489  0.9040  0.4164
  993MOL0     N33972   1.866   7.511   0.768  0.1276  0.8188 -0.2160
  993MOL0     C33973   3.091   7.266   1.139  0.4743 -0.2910  0.0680
  993MOL0     C33974   3.186   7.239   1.230 -0.4738 -0.7193 -0.0070
  993MOL0     C33975   3.426   7.113   1.574  0.7916 -0.9883 -0.2440
  993MOL0     C33976   3.523   7.189   1.642 -0.0825  0.6526  0.5708
  993MOL0     C33977   3.612   7.118   1.711 -0.1801 -0.2900  0.2786
  993MOL0     C33978   3.613   6.975   1.726 -0.8287  0.7106 -0.3678
  993MOL0     O33979   3.719   6.926   1.805  0.6160  0.0856 -0.6669
  993MOL0     C33980   3.713   6.792   1.848 -0.4575 -0.0455 -0.7712
  993MOL0     C33981   3.656   6.788   1.994  0.1310 -0.0395  0.4760
  993MOL0     C33982   3.525   6.862   2.013 -0.4845  0.0250  0.5480
  993MOL0     C33983   3.495   6.893   2.161  0.1664 -0.3043 -0.4753
  993MOL0     C33984   3.548   7.024   2.204 -0.1614 -0.4019  0.4965
  993MOL0     C33985   3.610   7.119   2.250  0.0346  0.4025  0.3530
  993MOL0     C33986   3.505   6.908   1.670 -1.1717  0.6373  0.2210
  993MOL0     C33987   3.418   6.976   1.589 -0.1937 -0.0029  0.3312
  993MOL0     H33988   3.002   7.033   1.411 -1.7271 -2.9229 -2.6989
  993MOL0     H33989   2.817   7.102   1.259  0.1031 -0.4670 -2.5445
  993MOL0     H33990   2.964   7.201   0.884  0.3101  0.8863 -1.2417
  993MOL0     H33991   2.824   7.119   0.901  1.6212  0.9862 -0.5071
  993MOL0     H33992   2.831   7.433   0.829  2.1377 -0.3971  1.4548
  993MOL0     H33993   2.781   7.299   0.714 -1.8330  2.0744  0.1144
  993MOL0     H33994   2.611   7.232   0.824 -0.1466 -0.3113  1.6599
  993MOL0     H33995   2.634   7.348   0.962 -0.4524 -1.3440 -0.4249
  993MOL0     H33996   2.612   7.528   0.797  1.1306 -0.8947 -0.9337
  993MOL0     H33997   2.567   7.414   0.676  1.8175  2.5862  0.2126
  993MOL0     H33998   2.357   7.336   0.809  1.1429 -0.5642  1.4418
  993MOL0     H33999   2.395   7.447   0.932 -2.8067 -0.4906  0.1023
  993MOL0     H34000   2.356   7.638   0.800 -2.8210  0.1872  1.6041
  993MOL0     H34001   2.338   7.545   0.649 -0.5753  0.2390 -0.4583
  993MOL0     H34002   2.196   7.523   0.909 -2.4511  1.4008  0.5684
  993MOL0     H34003   2.135   7.631   0.787 -0.3555  0.5707  2.1529
  993MOL0     H34004   2.141   7.316   0.782 -1.8489 -0.2969  1.5886
  993MOL0     H34005   2.097   7.401   0.630 -0.1618 -1.7709 -0.3013
  993MOL0     H34006   1.960   7.252   0.945  0.0871 -0.1516  0.2756
  993MOL0     H34007   1.799   7.299   1.103 -0.3029  1.6100  1.5900
  993MOL0     H34008   1.673   7.415   1.073  3.1030  0.9612 -0.2125
  993MOL0     H34009   1.576   7.158   1.081 -0.1990 -3.4444 -1.2410
  993MOL0     H34010   1.687   7.125   0.947 -2.0367 -2.3900  1.3672
  993MOL0     H34011   1.595   7.238   0.779  1.2545  1.5848  1.0686
  993MOL0     H34012   1.492   7.337   0.880  0.1214 -0.1232 -0.9635
  993MOL0     H34013   1.473   7.046   0.803  0.0512  0.0141  1.2533
  993MOL0     H34014   1.390   7.175   0.741 -2.5792 -0.7254  1.8039
  993MOL0     H34015   1.231   7.249   1.130  2.9285  1.8306 -1.0173
  993MOL0     H34016   0.976   7.482   1.210 -1.6055 -0.0533  1.9031
  993MOL0     H34017   0.894   7.327   1.203 -0.1813 -0.3063  2.3140
  993MOL0     H34018   1.046   7.322   1.274 -1.6332 -2.6131 -0.9236
  993MOL0     H34019   0.527   7.343   1.021  4.0205  0.1230 -3.4376
  993MOL0     H34020   0.311   7.460   1.060 -1.3723  1.5069 -0.7286
  993MOL0     H34021   0.170   7.644   0.912  1.6611 -0.3464  0.6681
  993MOL0     H34022   0.120   7.628   1.082  6.0121 -1.5750  2.1639
  993MOL0     H34023   0.038   7.854   1.089  1.7293  1.7818 -0.3564
  993MOL0     H34024   0.095   7.898   0.932  0.2769 -0.2526 -0.9056
  993MOL0     H34025  -0.125   7.696   1.000 -1.9443 -1.2495 -2.4963
  993MOL0     H34026  -0.048   7.685   0.845 -1.4171 -0.6660 -0.5218
  993MOL0     H34027  -0.145   7.964   0.932  1.0472 -0.0500 -1.2522
  993MOL0     H34028  -0.120   7.899   0.772  0.1800 -2.0566 -1.2148
  993MOL0     H34029  -0.369   7.931   0.833  2.0783  0.6170 -1.4388
  993MOL0     H34030  -0.334   7.797   0.952  0.5633 -0.4508 -0.1743
  993MOL0     H34031  -0.342   7.789   0.645  0.4773 -0.3077 -0.2437
  993MOL0     H34032  -0.258   7.662   0.753  0.4553 -1.1602  1.2437
  993MOL0     H34033  -0.538   7.761   0.806 -0.9006 -0.8607 -0.2253
  993MOL0     H34034  -0.461   7.605   0.844  0.5154 -1.0370 -0.4858
  993MOL0     H34035  -0.609   7.540   0.686  2.4982 -1.8996  1.7073
  993MOL0     H34036  -0.457   7.541   0.590 -0.1257  1.6647 -1.4759
  993MOL0     H34037   0.516   7.844   1.046 -0.8908 -0.1301 -1.0427
  993MOL0     H34038   0.737   7.715   1.036 -0.6814  0.4937 -0.6082
  993MOL0     H34039   0.989   7.356   0.713 -0.3526  0.7231  0.0256
  993MOL0     H34040   1.181   7.221   0.713 -0.2383 -0.3259 -0.7148
  993MOL0     H34041   3.108   7.329   1.052  1.5127 -2.4129 -1.3492
  993MOL0     H34042   3.282   7.285   1.209 -2.4594  3.2196 -1.5696
  993MOL0     H34043   3.522   7.298   1.635 -1.5492  0.6632  0.6845
  993MOL0     H34044   3.695   7.167   1.760  0.1032 -0.0645 -0.4111
  993MOL0     H34045   3.673   6.724   1.772  3.1512 -1.0556 -1.9508
  993MOL0     H34046   3.816   6.755   1.854 -0.8200 -1.4065 -2.2576
  993MOL0     H34047   3.725   6.833   2.067 -0.5290  0.9941  0.4850
  993MOL0     H34048   3.651   6.688   2.037 -2.4079  0.3103  1.1596
  993MOL0     H34049   3.453   6.793   1.969  1.5575 -2.5107  0.8673
  993MOL0     H34050   3.529   6.960   1.967  0.5755  0.6665  1.9157
  993MOL0     H34051   3.523   6.808   2.225 -3.4176 -1.5833 -0.4086
  993MOL0     H34052   3.387   6.900   2.172  0.3843 -0.1311  2.6475
  993MOL0     H34053   3.657   7.197   2.307  2.8807 -1.3416  0.5560
  993MOL0     H34054   3.488   6.801   1.674  0.8946  0.2303 -0.4204
  993MOL0     H34055   3.332   6.928   1.544 -1.3773 -0.7739  3.2192
  994MOL0     O34056  10.354   9.271   1.787 -0.7827 -0.4657 -0.6347
  994MOL0     C34057  10.423   9.179   1.749 -0.7790 -0.7364 -0.2100
  994MOL0     O34058  10.385   9.076   1.664  0.1817  0.5328 -0.6772
  994MOL0     C34059  10.257   9.025   1.681  0.4440  0.0320 -0.6194
  994MOL0     C34060  10.185   9.018   1.804 -0.4706  0.2712 -0.8448
  994MOL0     C34061  10.051   8.968   1.808 -0.3514  0.5843  0.2281
  994MOL0     C34062   9.994   8.917   1.700 -1.3308  0.7813  0.2690
  994MOL0     O34063   9.872   8.857   1.719  0.2449  0.5830 -0.0527
  994MOL0     C34064   9.843   8.734   1.648  0.2403 -0.4371  0.4554
  994MOL0     C34065   9.707   8.676   1.702 -0.0263 -0.7786 -0.2807
  994MOL0     C34066   9.681   8.533   1.663 -0.8475  0.0294  0.0340
  994MOL0     C34067   9.648   8.514   1.518 -0.5983 -0.1145 -0.0429
  994MOL0     C34068   9.589   8.373   1.490  0.5205  0.1797  0.1610
  994MOL0     C34069   9.596   8.322   1.346  0.7282  0.1615  1.5526
  994MOL0     C34070   9.569   8.168   1.342 -0.4969 -0.7303 -0.6385
  994MOL0     C34071   9.518   8.119   1.204 -0.3615  0.0569 -0.2285
  994MOL0     N34072   9.504   7.974   1.221 -0.1690  0.5055  0.9182
  994MOL0     C34073   9.378   7.928   1.246 -0.8220 -0.1008  0.1625
  994MOL0     C34074   9.396   7.803   1.293 -0.3879  0.2046 -0.3949
  994MOL0     C34075   9.288   7.702   1.332  0.9206  0.2367 -0.1044
  994MOL0     C34076   9.201   7.731   1.456 -0.4997  0.2104  0.2562
  994MOL0     C34077   9.277   7.729   1.579 -0.2048 -0.0241 -0.1195
  994MOL0     C34078   9.183   7.776   1.686  0.6015 -0.4283 -0.2614
  994MOL0     O34079   9.245   7.799   1.817  0.2652  0.7080 -0.1551
  994MOL0     C34080   9.172   7.785   1.934  0.0067  0.8069 -0.3421
  994MOL0     C34081   9.235   7.746   2.052  0.6834  0.3032 -0.6275
  994MOL0     C34082   9.168   7.726   2.173 -0.2101  0.6041 -0.3014
  994MOL0     C34083   9.243   7.679   2.291  0.2099 -0.1007 -0.0607
  994MOL0     C34084   9.031   7.745   2.177  0.8951  0.7921 -0.8223
  994MOL0     C34085   8.942   7.734   2.304  0.0019  0.8409  0.6361
  994MOL0     O34086   8.828   7.810   2.298  0.7017 -0.4800 -0.1875
  994MOL0     C34087   8.735   7.818   2.403  0.9227  0.4972 -0.8436
  994MOL0     C34088   8.733   7.752   2.524  0.4911  0.3610 -0.3614
  994MOL0     C34089   8.615   7.760   2.598  0.1011 -0.0360  0.8193
  994MOL0     C34090   8.509   7.836   2.564  0.6709  0.2241  0.3393
  994MOL0     O34091   8.404   7.822   2.654 -0.5300  0.5175 -0.3761
  994MOL0     C34092   8.287   7.904   2.627 -0.1509  0.0039  0.4360
  994MOL0     C34093   8.169   7.820   2.574 -0.2707  0.4101  0.0073
  994MOL0     C34094   8.123   7.719   2.679 -0.1323  0.0890 -0.4499
  994MOL0     C34095   7.986   7.660   2.635 -0.0769 -0.5073  0.2358
  994MOL0     C34096   7.872   7.755   2.679 -0.7898 -0.3603  0.0744
  994MOL0     C34097   7.745   7.677   2.659  0.7510 -0.0148 -0.6835
  994MOL0     C34098   7.685   7.669   2.517 -0.0207 -0.0798  0.4814
  994MOL0     C34099   7.539   7.625   2.509 -0.2102 -0.0979 -0.2579
  994MOL0    Cl34100   7.441   7.750   2.587 -0.5843 -0.2263  0.1169
  994MOL0     C34101   8.518   7.920   2.462 -0.4751 -0.6745  0.5337
  994MOL0     C34102   8.634   7.908   2.379  1.1279 -0.5638 -0.5123
  994MOL0     O34103   8.980   7.663   2.401 -0.3142 -0.4452 -0.2694
  994MOL0     C34104   8.966   7.803   2.068 -0.7608  0.2322 -0.1732
  994MOL0     C34105   9.029   7.813   1.947  0.0934 -0.0100 -0.0756
  994MOL0     N34106   9.536   7.772   1.294  0.2554 -0.5150  0.0725
  994MOL0     N34107   9.600   7.874   1.252 -0.3046 -0.4691  0.1139
  994MOL0     C34108  10.062   8.908   1.580  0.0689 -0.7060 -0.8665
  994MOL0     C34109  10.191   8.964   1.569  0.4083 -1.4862  0.2121
  994MOL0     C34110  10.566   9.192   1.784  0.0823 -0.4572  0.5847
  994MOL0     C34111  10.656   9.093   1.750  0.1306 -0.5228  0.1087
  994MOL0     C34112  10.787   9.099   1.788 -0.5722 -1.2370  0.5397
  994MOL0     C34113  10.844   9.216   1.840  0.3571 -0.7123 -0.4862
  994MOL0     O34114  10.979   9.191   1.855 -0.2950 -0.4314 -0.5279
  994MOL0     C34115  11.061   9.285   1.934 -0.6281 -0.6102  0.7619
  994MOL0     C34116  11.185   9.215   1.983  0.1557  0.1060  0.2410
  994MOL0     C34117  11.141   9.116   2.090 -0.1023  0.4959 -0.1297
  994MOL0     C34118  11.244   9.013   2.113  0.2961 -0.2306  0.1824
  994MOL0     C34119  11.281   8.930   1.996 -1.7588  0.7215 -1.2952
  994MOL0     C34120  11.307   8.843   1.916  0.0568  0.3689 -0.0490
  994MOL0     C34121  10.758   9.330   1.853 -0.1333  0.0395  0.0755
  994MOL0     C34122  10.623   9.313   1.832 -0.8812 -1.2542 -0.3992
  994MOL0     H34123  10.244   9.032   1.894  1.5689 -0.0212 -2.0470
  994MOL0     H34124  10.004   8.952   1.904  1.7657 -1.7002  1.0109
  994MOL0     H34125   9.842   8.752   1.540 -1.9050  1.6972  0.7383
  994MOL0     H34126   9.923   8.662   1.667 -0.2803 -1.3322 -0.6345
  994MOL0     H34127   9.697   8.684   1.811 -2.3070  2.2458 -0.6040
  994MOL0     H34128   9.629   8.734   1.654 -1.0330 -1.4740  0.4757
  994MOL0     H34129   9.773   8.476   1.682 -0.2302  0.4519 -1.4595
  994MOL0     H34130   9.600   8.501   1.728 -1.3501  1.2795  0.0474
  994MOL0     H34131   9.573   8.586   1.481 -1.1932 -1.2228 -1.0623
  994MOL0     H34132   9.740   8.524   1.460 -1.2814 -3.4569 -1.9566
  994MOL0     H34133   9.651   8.298   1.540 -0.5530 -0.4444  0.6012
  994MOL0     H34134   9.490   8.362   1.537 -0.2506  3.2493 -0.5701
  994MOL0     H34135   9.528   8.365   1.273 -0.5705 -0.0155  2.6137
  994MOL0     H34136   9.692   8.333   1.295  2.1422 -1.1529  3.7725
  994MOL0     H34137   9.658   8.111   1.368  0.1766 -0.0193 -1.3394
  994MOL0     H34138   9.494   8.139   1.416  0.0646  0.9823  0.6922
  994MOL0     H34139   9.595   8.150   1.133 -1.3368  1.4102 -0.7267
  994MOL0     H34140   9.423   8.168   1.180 -1.6669 -2.7434 -1.1972
  994MOL0     H34141   9.283   7.980   1.237 -0.6956 -0.0299 -0.9691
  994MOL0     H34142   9.211   7.693   1.254 -0.7121  3.4400  0.9637
  994MOL0     H34143   9.343   7.609   1.348  0.6175  0.2602  1.1886
  994MOL0     H34144   9.127   7.651   1.463  2.1169 -2.3286  0.5194
  994MOL0     H34145   9.143   7.822   1.434  1.8476  2.0817  1.4032
  994MOL0     H34146   9.356   7.802   1.559 -0.0968  0.2224  1.1248
  994MOL0     H34147   9.315   7.632   1.611 -2.3953  0.0406  3.1368
  994MOL0     H34148   9.100   7.704   1.690 -1.6575  1.8037 -2.7933
  994MOL0     H34149   9.144   7.868   1.642  0.5440 -0.1991  0.2605
  994MOL0     H34150   9.344   7.751   2.054  0.6556  1.5462 -1.2202
  994MOL0     H34151   9.351   7.682   2.273 -0.0199 -2.2315 -2.3788
  994MOL0     H34152   9.225   7.745   2.376  2.2911  4.0613 -2.5162
  994MOL0     H34153   9.214   7.576   2.313 -1.6717  0.3471 -0.3229
  994MOL0     H34154   8.819   7.696   2.561  1.8220  2.7683  0.4307
  994MOL0     H34155   8.620   7.694   2.684 -0.7051 -1.2690 -0.0432
  994MOL0     H34156   8.262   7.948   2.724 -2.1253 -0.3208  0.1051
  994MOL0     H34157   8.309   7.984   2.555  0.4146 -0.4747  0.0666
  994MOL0     H34158   8.096   7.888   2.529  0.6162  1.3596 -0.0572
  994MOL0     H34159   8.205   7.767   2.486 -1.2248  0.4945 -0.4429
  994MOL0     H34160   8.109   7.759   2.779  1.0608 -1.0485  0.1990
  994MOL0     H34161   8.193   7.635   2.676 -0.4567 -0.2470  0.8922
  994MOL0     H34162   7.978   7.636   2.529  0.4320  2.0665 -0.4504
  994MOL0     H34163   7.972   7.561   2.678 -1.0503  0.0587  1.2604
  994MOL0     H34164   7.872   7.849   2.622  2.7249 -0.2929 -0.0261
  994MOL0     H34165   7.878   7.787   2.783 -1.3741  0.9869 -0.2779
  994MOL0     H34166   7.748   7.584   2.715 -0.7447  1.1035  1.3957
  994MOL0     H34167   7.667   7.739   2.705  0.0848  1.0281 -3.0542
  994MOL0     H34168   7.746   7.594   2.465  2.7100  1.3523  1.4496
  994MOL0     H34169   7.707   7.765   2.470  1.5701  0.4261  2.1598
  994MOL0     H34170   7.533   7.530   2.564  0.2872 -0.2297 -0.4246
  994MOL0     H34171   7.520   7.601   2.404  0.0553 -1.9791  0.0750
  994MOL0     H34172   8.434   7.974   2.420  0.1245 -1.9511 -2.6214
  994MOL0     H34173   8.632   7.979   2.297 -2.7689  1.1466  0.8552
  994MOL0     H34174   8.859   7.823   2.073 -1.2857 -2.0103 -1.1827
  994MOL0     H34175   8.973   7.853   1.863 -1.0060  2.4144  1.6928
  994MOL0     H34176  10.025   8.857   1.492 -0.0017  0.3705 -1.4787
  994MOL0     H34177  10.247   8.960   1.476 -0.9876 -0.4479 -0.7200
  994MOL0     H34178  10.627   9.007   1.692 -1.1933 -1.1722  1.6560
  994MOL0     H34179  10.850   9.014   1.763  0.0980 -0.0113 -2.3148
  994MOL0     H34180  11.103   9.363   1.870  0.9950 -0.4570  1.9430
  994MOL0     H34181  11.013   9.331   2.021  1.9262 -0.6340  2.3195
  994MOL0     H34182  11.253   9.292   2.021  1.0292 -2.0001  3.3030
  994MOL0     H34183  11.233   9.170   1.896  2.7584 -0.1570  1.7312
  994MOL0     H34184  11.050   9.062   2.062  1.1358 -2.4940  1.2802
  994MOL0     H34185  11.111   9.174   2.178 -4.8172 -2.0815  0.2523
  994MOL0     H34186  11.215   8.953   2.200  1.1997  0.4525  0.9711
  994MOL0     H34187  11.332   9.066   2.150  0.8655 -1.6874  1.0461
  994MOL0     H34188  11.321   8.769   1.839  0.7089 -1.2591  1.5722
  994MOL0     H34189  10.807   9.426   1.869  2.1590 -0.6560 -2.0870
  994MOL0     H34190  10.553   9.395   1.847 -1.6851 -0.8733 -4.8065
  995MOL0     O34191   0.551   1.385   2.972  0.4813  0.1898 -0.7521
  995MOL0     C34192   0.637   1.337   2.909 -0.4153  0.2003  0.1909
  995MOL0     O34193   0.624   1.283   2.785 -0.0776 -0.1558  0.6138
  995MOL0     C34194   0.503   1.302   2.719 -0.1498 -1.2273 -0.2940
  995MOL0     C34195   0.464   1.377   2.604 -0.0398  0.4397 -0.6673
  995MOL0     C34196   0.325   1.378   2.562 -0.2040  0.7254  0.4456
  995MOL0     C34197   0.226   1.297   2.616 -0.1208 -0.6354  0.3542
  995MOL0     O34198   0.096   1.312   2.570 -0.0514  0.2873 -0.5192
  995MOL0     C34199  -0.003   1.218   2.616 -0.4502  0.1750  0.7431
  995MOL0     C34200  -0.141   1.235   2.553  0.1709  0.0298  0.4140
  995MOL0     C34201  -0.213   1.364   2.587 -0.7702 -0.5271  0.2041
  995MOL0     C34202  -0.362   1.340   2.556 -1.0849 -0.2001 -0.1259
  995MOL0     C34203  -0.441   1.462   2.573  0.1586  0.0951 -0.4863
  995MOL0     C34204  -0.582   1.412   2.548  0.1871  0.4079  0.9481
  995MOL0     C34205  -0.699   1.525   2.556  0.2896  1.0000 -0.2766
  995MOL0     C34206  -0.749   1.560   2.695 -0.2038 -0.4614  0.6249
  995MOL0     N34207  -0.830   1.681   2.690 -0.8789  0.3569 -0.7577
  995MOL0     C34208  -0.965   1.674   2.686  0.7710  0.2512 -0.7966
  995MOL0     C34209  -0.995   1.802   2.636  0.1825  0.6273  0.2404
  995MOL0     C34210  -1.133   1.853   2.602 -0.4837  0.6775 -0.9011
  995MOL0     C34211  -1.200   1.885   2.744  0.4909  0.5109  0.4174
  995MOL0     C34212  -1.347   1.936   2.714  0.0335  0.5262 -0.3402
  995MOL0     C34213  -1.421   1.976   2.848  0.6168 -0.1311  0.1291
  995MOL0     O34214  -1.563   2.010   2.825  0.1638  0.1539  0.5692
  995MOL0     C34215  -1.645   2.015   2.929  0.2656 -0.7325  0.4702
  995MOL0     C34216  -1.615   2.053   3.056 -0.7429 -0.0964  0.0392
  995MOL0     C34217  -1.708   2.035   3.160 -0.1490 -0.0067 -0.0603
  995MOL0     C34218  -1.654   2.032   3.310 -0.3161 -0.1869 -0.4298
  995MOL0     C34219  -1.848   2.016   3.125  0.1583 -0.5289  0.3376
  995MOL0     C34220  -1.958   1.991   3.222 -0.4023 -0.3138 -0.7768
  995MOL0     O34221  -2.084   2.024   3.185 -0.1941  0.3099  0.2150
  995MOL0     C34222  -2.192   2.004   3.272 -0.0056 -0.1634 -0.0873
  995MOL0     C34223  -2.281   1.895   3.256  0.5149 -0.3731  0.7993
  995MOL0     C34224  -2.395   1.874   3.336  0.8124  0.0966  0.7847
  995MOL0     C34225  -2.434   1.969   3.431  0.0054 -0.3975 -0.0389
  995MOL0     O34226  -2.557   1.955   3.503  0.4026 -0.3132  0.0459
  995MOL0     C34227  -2.649   1.852   3.467  0.5451 -0.0743  0.1400
  995MOL0     C34228  -2.792   1.859   3.525 -0.7066 -0.5855 -0.4609
  995MOL0     C34229  -2.863   1.997   3.533  0.8717 -0.5138  0.3135
  995MOL0     C34230  -3.016   1.976   3.553  0.8915  0.1971  0.4432
  995MOL0     C34231  -3.086   2.109   3.545 -0.3353  0.1424  0.4202
  995MOL0     C34232  -3.223   2.098   3.604 -0.0313 -0.0138  0.1929
  995MOL0     C34233  -3.308   2.222   3.576 -0.3011 -0.1885  1.1756
  995MOL0     C34234  -3.430   2.218   3.676 -0.1797 -0.3724  0.6348
  995MOL0    Cl34235  -3.550   2.327   3.595 -0.2494  0.0709  0.0120
  995MOL0     C34236  -2.352   2.083   3.442  0.3041  0.2089 -0.3984
  995MOL0     C34237  -2.231   2.102   3.372 -0.1731  0.2226 -0.3418
  995MOL0     O34238  -1.923   1.936   3.321 -0.6205  0.6252  0.7946
  995MOL0     C34239  -1.878   2.019   2.986  0.4149  0.4475 -0.0688
  995MOL0     C34240  -1.776   2.012   2.886 -0.1699 -0.1960  0.0854
  995MOL0     N34241  -0.882   1.876   2.611  0.5946 -0.7030 -0.2619
  995MOL0     N34242  -0.785   1.801   2.654 -0.2741 -0.2320 -1.3129
  995MOL0     C34243   0.267   1.234   2.734  0.5659  0.4330 -0.1902
  995MOL0     C34244   0.400   1.235   2.786  0.6533  0.1956 -0.5775
  995MOL0     C34245   0.769   1.343   2.973 -0.4191  1.4565  0.6792
  995MOL0     C34246   0.881   1.302   2.902 -1.0000 -0.4343  0.5468
  995MOL0     C34247   1.011   1.297   2.963  0.0961 -0.2449 -0.8937
  995MOL0     C34248   1.026   1.335   3.100 -1.1135 -0.2326  0.2990
  995MOL0     O34249   1.153   1.342   3.166  0.2223  0.9836 -0.1709
  995MOL0     C34250   1.264   1.271   3.104  0.3804 -1.3729 -0.3659
  995MOL0     C34251   1.374   1.270   3.209  0.1398  0.1069  0.1947
  995MOL0     C34252   1.431   1.418   3.214 -0.6423 -0.0195 -0.0834
  995MOL0     C34253   1.579   1.420   3.262  0.0701 -0.6596 -1.2756
  995MOL0     C34254   1.603   1.347   3.383 -0.8955 -0.0193 -0.9590
  995MOL0     C34255   1.614   1.295   3.496 -0.4607 -0.2525  0.4619
  995MOL0     C34256   0.910   1.367   3.171  0.1721 -0.6439  0.1706
  995MOL0     C34257   0.784   1.375   3.105  0.3469  0.2985 -0.7716
  995MOL0     H34258   0.548   1.429   2.559  1.1081 -0.0872  0.7865
  995MOL0     H34259   0.298   1.439   2.476 -0.0201  1.0265  0.6014
  995MOL0     H34260   0.033   1.116   2.600 -3.4289 -0.6205 -2.0235
  995MOL0     H34261  -0.018   1.231   2.723  0.2269  1.3662  0.7015
  995MOL0     H34262  -0.137   1.216   2.445  0.1492  1.0331  0.2304
  995MOL0     H34263  -0.210   1.163   2.599 -1.3221  2.2564  1.8324
  995MOL0     H34264  -0.198   1.400   2.689 -1.8618  1.0739 -0.1691
  995MOL0     H34265  -0.169   1.441   2.524  2.6839 -1.6180  1.0302
  995MOL0     H34266  -0.365   1.305   2.452 -2.2742  1.6520 -0.7634
  995MOL0     H34267  -0.393   1.263   2.628  0.3862  0.4612  1.2649
  995MOL0     H34268  -0.421   1.510   2.669  3.9107  1.9742 -1.9835
  995MOL0     H34269  -0.416   1.542   2.502  1.8006 -0.0807 -0.1648
  995MOL0     H34270  -0.577   1.372   2.446  2.9952 -1.2868  1.6288
  995MOL0     H34271  -0.605   1.334   2.622  0.9603 -1.5565 -0.7673
  995MOL0     H34272  -0.664   1.618   2.510 -0.0822  0.3654 -1.9195
  995MOL0     H34273  -0.786   1.487   2.503  0.5874  1.2810 -0.9879
  995MOL0     H34274  -0.663   1.572   2.762  1.4863 -2.4858 -1.0311
  995MOL0     H34275  -0.811   1.480   2.736 -1.1749 -0.8172 -1.4473
  995MOL0     H34276  -1.042   1.598   2.694  0.3007  0.7495 -0.5777
  995MOL0     H34277  -1.122   1.943   2.541  1.1573 -1.8894 -4.8061
  995MOL0     H34278  -1.193   1.771   2.563  0.5242 -0.2112 -0.6427
  995MOL0     H34279  -1.157   1.967   2.803 -2.9399  2.9212 -0.1750
  995MOL0     H34280  -1.211   1.799   2.811 -1.2043  0.4879  0.1417
  995MOL0     H34281  -1.406   1.852   2.674 -0.4428  0.5205  0.3486
  995MOL0     H34282  -1.340   2.016   2.641 -2.1527  1.3373  0.2727
  995MOL0     H34283  -1.372   2.061   2.897  1.0849 -1.6543  2.4099
  995MOL0     H34284  -1.422   1.888   2.913  3.3850 -0.2756  0.0861
  995MOL0     H34285  -1.514   2.079   3.086 -1.7382  1.7517  2.1061
  995MOL0     H34286  -1.724   2.088   3.373  1.8861 -0.7135  2.7638
  995MOL0     H34287  -1.657   1.930   3.349 -2.9152  0.0246  0.0976
  995MOL0     H34288  -1.560   2.088   3.318 -2.0243  2.9379 -0.6298
  995MOL0     H34289  -2.252   1.817   3.186 -1.4894 -1.4342  1.0839
  995MOL0     H34290  -2.444   1.779   3.322  0.9041 -0.2367  2.5304
  995MOL0     H34291  -2.669   1.870   3.361  0.4091  0.5607  0.2687
  995MOL0     H34292  -2.601   1.755   3.484 -0.6378 -0.8408 -0.7320
  995MOL0     H34293  -2.861   1.796   3.469 -0.4743 -3.3620  2.1537
  995MOL0     H34294  -2.794   1.824   3.628  1.5580  1.4970  0.3916
  995MOL0     H34295  -2.839   2.051   3.441  6.0810 -1.8406  0.5638
  995MOL0     H34296  -2.824   2.046   3.622  0.4352 -1.4650  1.0494
  995MOL0     H34297  -3.044   1.913   3.468 -0.1638  1.5940 -0.2957
  995MOL0     H34298  -3.050   1.925   3.643 -0.8054 -0.1433 -0.3615
  995MOL0     H34299  -3.093   2.131   3.439 -2.2354 -3.1060 -0.2488
  995MOL0     H34300  -3.032   2.180   3.609  0.2964  0.7925 -0.8031
  995MOL0     H34301  -3.268   2.016   3.548  1.9178 -1.1640  0.2287
  995MOL0     H34302  -3.207   2.084   3.712  2.1398  2.4427  0.2904
  995MOL0     H34303  -3.340   2.240   3.473  2.4126  3.9909  0.7968
  995MOL0     H34304  -3.260   2.319   3.592 -1.0037  0.4707 -0.4847
  995MOL0     H34305  -3.405   2.265   3.772  0.3005 -0.0643  0.3598
  995MOL0     H34306  -3.479   2.121   3.691 -0.4545  0.0203  2.6353
  995MOL0     H34307  -2.376   2.164   3.511  1.0151  0.5954 -0.5955
  995MOL0     H34308  -2.184   2.199   3.383  0.7025 -0.2786  0.4758
  995MOL0     H34309  -1.981   2.010   2.952  0.4532 -4.6173  0.3117
  995MOL0     H34310  -1.811   2.017   2.783 -2.2336  1.2544  0.7965
  995MOL0     H34311   0.196   1.161   2.772  2.8834 -2.2730 -0.8146
  995MOL0     H34312   0.422   1.180   2.877  1.1018 -1.1594 -1.4698
  995MOL0     H34313   0.872   1.266   2.800  1.1323  0.4885 -0.0208
  995MOL0     H34314   1.093   1.258   2.904 -0.8502 -1.4123 -1.4981
  995MOL0     H34315   1.234   1.170   3.075  2.6914 -1.8441 -1.3870
  995MOL0     H34316   1.301   1.325   3.015  0.6368 -1.7054 -0.4614
  995MOL0     H34317   1.452   1.194   3.194  1.4369  1.3642  0.3631
  995MOL0     H34318   1.333   1.236   3.304  1.5844 -1.0344  0.4493
  995MOL0     H34319   1.360   1.476   3.273  0.9887  1.6752  0.3083
  995MOL0     H34320   1.421   1.460   3.114  0.3019 -0.1611 -0.2495
  995MOL0     H34321   1.605   1.525   3.279 -2.2198 -0.0646 -1.0309
  995MOL0     H34322   1.646   1.373   3.190  0.8610 -1.9821  0.2581
  995MOL0     H34323   1.618   1.250   3.593  0.5423 -0.4653  0.3275
  995MOL0     H34324   0.916   1.390   3.277 -1.0673  0.4693  0.0233
  995MOL0     H34325   0.692   1.399   3.157  1.1403  0.0431  0.8080
  996MOL0     O34326   6.583  10.292   4.196 -0.1376 -0.0329 -0.2908
  996MOL0     C34327   6.497  10.384   4.193  0.9513  1.2232  0.6543
  996MOL0     O34328   6.510  10.506   4.247  0.0261  0.5917  0.2661
  996MOL0     C34329   6.629  10.525   4.316  0.2346 -1.1598  0.0921
  996MOL0     C34330   6.644  10.484   4.445 -0.4234 -0.6935 -0.3332
  996MOL0     C34331   6.765  10.505   4.505 -0.4308  0.4250  0.2092
  996MOL0     C34332   6.871  10.572   4.439  0.0755 -0.3283 -0.1099
  996MOL0     O34333   6.991  10.603   4.495 -0.1371  0.0598 -0.8494
  996MOL0     C34334   7.022  10.583   4.632 -0.7179 -0.5796  0.2769
  996MOL0     C34335   7.167  10.633   4.669  0.1391  0.3332  0.0144
  996MOL0     C34336   7.268  10.564   4.578 -0.0940  0.3532  0.6756
  996MOL0     C34337   7.412  10.611   4.612 -0.9381 -0.0642  0.0337
  996MOL0     C34338   7.510  10.517   4.526  0.4881  0.5194 -0.0824
  996MOL0     C34339   7.651  10.569   4.526  0.0471  0.1092  0.1955
  996MOL0     C34340   7.710  10.553   4.670  0.0243 -0.1087 -0.4953
  996MOL0     C34341   7.864  10.554   4.666 -0.6981  0.1355  0.4371
  996MOL0     N34342   7.913  10.690   4.686  0.0517 -0.1668  0.2842
  996MOL0     C34343   7.924  10.797   4.597 -0.0754  0.2967 -0.4161
  996MOL0     C34344   7.962  10.903   4.675 -0.2817 -0.3452  1.3353
  996MOL0     C34345   8.003  11.032   4.613 -0.5127 -1.4112  0.3442
  996MOL0     C34346   8.048  11.144   4.705 -0.5055 -0.3521  0.8043
  996MOL0     C34347   7.922  11.217   4.755 -0.2073  0.3864 -0.0711
  996MOL0     C34348   7.906  11.186   4.904  0.7179 -1.4262 -0.1321
  996MOL0     O34349   7.782  11.249   4.956 -0.1427  0.2417  0.7587
  996MOL0     C34350   7.660  11.209   4.912  0.2132  0.3112 -0.5940
  996MOL0     C34351   7.647  11.090   4.845  1.0991 -0.3691  0.2467
  996MOL0     C34352   7.516  11.041   4.800 -0.3363 -0.5826 -0.4665
  996MOL0     C34353   7.505  10.919   4.722  0.6904  1.0552  0.2231
  996MOL0     C34354   7.407  11.127   4.838  0.0601  0.0962 -0.4600
  996MOL0     C34355   7.267  11.092   4.809  0.7338 -0.5032 -0.4245
  996MOL0     O34356   7.185  11.134   4.908  0.2350  0.2241  0.6199
  996MOL0     C34357   7.053  11.103   4.923 -0.3124  0.0872 -0.0577
  996MOL0     C34358   6.962  11.189   4.993  0.0112 -0.2492 -0.0741
  996MOL0     C34359   6.832  11.157   5.010  0.0587 -0.5084 -0.0777
  996MOL0     C34360   6.783  11.041   4.948  0.5874 -0.7254 -0.0762
  996MOL0     O34361   6.653  11.009   4.972  0.4408  0.2135  0.3804
  996MOL0     C34362   6.552  11.110   4.948  0.7105  0.3628 -1.0143
  996MOL0     C34363   6.420  11.073   5.017 -0.4945  0.2688  1.1388
  996MOL0     C34364   6.317  11.174   4.970  0.7916 -0.2154 -0.3688
  996MOL0     C34365   6.180  11.105   5.002 -0.6981 -0.7415 -0.4278
  996MOL0     C34366   6.066  11.199   4.971 -0.6317  0.3626 -0.0974
  996MOL0     C34367   5.943  11.112   4.977  0.2514 -0.2353 -0.0808
  996MOL0     C34368   5.811  11.198   4.992 -0.4315 -0.6304  0.3410
  996MOL0     C34369   5.693  11.124   4.929 -0.2969  0.6998  0.9695
  996MOL0    Cl34370   5.553  11.232   4.900 -0.1951  0.2624 -0.1924
  996MOL0     C34371   6.859  10.951   4.874  0.0673  0.2304 -0.7527
  996MOL0     C34372   6.992  10.992   4.863  0.3645 -0.1150 -0.4462
  996MOL0     O34373   7.230  11.039   4.704 -0.5610  0.4978  0.0621
  996MOL0     C34374   7.427  11.255   4.902 -0.2839 -0.0583  0.0229
  996MOL0     C34375   7.551  11.295   4.934 -0.1945  0.0621 -0.6170
  996MOL0     N34376   7.981  10.856   4.799  0.0076  0.1302  1.0180
  996MOL0     N34377   7.958  10.725   4.805 -0.6654 -0.1684  0.7498
  996MOL0     C34378   6.855  10.614   4.301  0.5786  0.0524  0.3723
  996MOL0     C34379   6.733  10.585   4.246 -0.5008  0.3633  0.3943
  996MOL0     C34380   6.383  10.353   4.112  1.0435  0.1042  0.4149
  996MOL0     C34381   6.274  10.446   4.112 -0.1029 -0.3575  0.4465
  996MOL0     C34382   6.161  10.439   4.034 -0.5179  0.2803 -0.5481
  996MOL0     C34383   6.155  10.319   3.956 -0.0577 -0.4595 -0.4565
  996MOL0     O34384   6.036  10.297   3.893  0.4020  0.6239  0.1329
  996MOL0     C34385   6.043  10.200   3.777  0.3478 -0.2777 -0.1000
  996MOL0     C34386   5.917  10.204   3.695  0.3122 -0.6081  0.2354
  996MOL0     C34387   5.921  10.304   3.580 -0.0169 -0.1629 -0.3573
  996MOL0     C34388   5.780  10.303   3.513  0.3970 -0.8303 -0.3356
  996MOL0     C34389   5.772  10.371   3.385  0.5716 -0.0220 -0.5069
  996MOL0     C34390   5.754  10.401   3.272 -0.6406 -1.1769 -0.7940
  996MOL0     C34391   6.269  10.234   3.943  0.1512  0.2157 -0.0140
  996MOL0     C34392   6.381  10.251   4.014  0.4173  0.2872  0.4384
  996MOL0     H34393   6.565  10.432   4.497 -1.1465  1.0696  0.4314
  996MOL0     H34394   6.791  10.455   4.598 -1.2581  1.1002  0.8247
  996MOL0     H34395   6.956  10.650   4.688  2.3173  3.2222 -0.2324
  996MOL0     H34396   7.013  10.476   4.653 -0.9348 -0.9761 -1.6145
  996MOL0     H34397   7.180  10.741   4.671 -2.0352  0.6784  3.7243
  996MOL0     H34398   7.190  10.605   4.772 -0.0889  0.1558  0.0183
  996MOL0     H34399   7.262  10.455   4.575 -0.1532  0.3673 -0.6467
  996MOL0     H34400   7.251  10.602   4.476 -0.2304 -0.4526  0.3873
  996MOL0     H34401   7.442  10.710   4.578  2.1565 -0.0591  2.2553
  996MOL0     H34402   7.436  10.593   4.718  0.3047 -1.8384 -0.4914
  996MOL0     H34403   7.503  10.413   4.562  2.1144  0.4290  0.0386
  996MOL0     H34404   7.482  10.517   4.420  3.5076 -1.4432 -1.0286
  996MOL0     H34405   7.712  10.508   4.458  1.3761 -0.9124  2.1895
  996MOL0     H34406   7.652  10.672   4.491  0.9089 -0.0346 -0.2397
  996MOL0     H34407   7.674  10.633   4.735 -1.1019 -1.0975  0.1473
  996MOL0     H34408   7.684  10.457   4.715 -0.5290 -0.1828 -0.9613
  996MOL0     H34409   7.910  10.502   4.582 -1.3801 -4.2921  2.4870
  996MOL0     H34410   7.888  10.507   4.762 -0.7217  0.7932  0.7667
  996MOL0     H34411   7.917  10.793   4.489  1.5890 -0.0251 -0.5440
  996MOL0     H34412   8.086  11.007   4.545 -0.8118 -2.7958  0.4532
  996MOL0     H34413   7.917  11.072   4.559 -0.3062  3.4226  3.0558
  996MOL0     H34414   8.098  11.216   4.640  0.1743  0.1963  1.9005
  996MOL0     H34415   8.117  11.112   4.784 -0.8855 -1.0128  0.8778
  996MOL0     H34416   7.833  11.182   4.702 -2.1352 -2.3349  4.3883
  996MOL0     H34417   7.933  11.326   4.748  0.5072  0.3243  0.0269
  996MOL0     H34418   7.987  11.225   4.967 -0.8253  0.4915  0.7790
  996MOL0     H34419   7.905  11.077   4.914  1.5031 -1.4387 -0.1609
  996MOL0     H34420   7.736  11.036   4.814  2.3158  0.7870  1.5789
  996MOL0     H34421   7.401  10.888   4.717  0.3079  2.4568 -1.8521
  996MOL0     H34422   7.538  10.928   4.618 -1.7519 -1.7174 -0.9287
  996MOL0     H34423   7.552  10.840   4.781 -1.4115 -1.3237 -1.1010
  996MOL0     H34424   7.001  11.280   5.037  2.0065  1.0060 -3.9222
  996MOL0     H34425   6.775  11.202   5.091  3.6074  0.1999  2.2043
  996MOL0     H34426   6.576  11.209   4.987 -1.9774 -0.3660  3.0474
  996MOL0     H34427   6.535  11.118   4.840  1.1274 -0.6599 -1.1704
  996MOL0     H34428   6.390  10.974   4.981 -1.1209  1.2698 -1.3360
  996MOL0     H34429   6.428  11.072   5.126  1.0003 -1.5370  1.0654
  996MOL0     H34430   6.325  11.201   4.864  4.1885  3.4346  0.5222
  996MOL0     H34431   6.333  11.269   5.021  2.6865 -0.9391  0.4637
  996MOL0     H34432   6.165  11.017   4.939 -0.0012  1.0452 -3.2685
  996MOL0     H34433   6.184  11.083   5.109  2.4993  1.8769  0.1538
  996MOL0     H34434   6.066  11.256   4.878  0.4732  3.2386  1.5699
  996MOL0     H34435   6.070  11.278   5.046  3.9672  0.2308  0.0703
  996MOL0     H34436   5.942  11.056   4.883 -1.5065  1.8090 -1.3684
  996MOL0     H34437   5.942  11.041   5.061 -0.5564 -2.7925 -2.1341
  996MOL0     H34438   5.809  11.296   4.943  1.0930 -0.4273  0.6353
  996MOL0     H34439   5.782  11.201   5.097 -1.6192 -3.4147  0.1834
  996MOL0     H34440   5.675  11.043   4.999  1.7359 -1.6458 -1.0426
  996MOL0     H34441   5.723  11.075   4.836 -3.5072  0.7776 -0.2248
  996MOL0     H34442   6.815  10.857   4.841  0.0519  0.4356 -1.3286
  996MOL0     H34443   7.062  10.930   4.808  2.4319  2.4390 -0.8785
  996MOL0     H34444   7.346  11.325   4.922 -0.0330  0.9222 -2.1604
  996MOL0     H34445   7.563  11.393   4.980  0.5342  0.6076 -1.8893
  996MOL0     H34446   6.932  10.669   4.249 -1.6604  2.5927 -0.4513
  996MOL0     H34447   6.717  10.617   4.143 -1.6825  2.1300  1.0815
  996MOL0     H34448   6.279  10.546   4.155  1.2343 -0.1489 -0.1332
  996MOL0     H34449   6.084  10.514   4.041 -1.1826 -0.4042 -0.3406
  996MOL0     H34450   6.126  10.228   3.712 -1.1435  4.4636 -0.3255
  996MOL0     H34451   6.054  10.099   3.818 -1.2015 -1.4508 -2.3722
  996MOL0     H34452   5.832  10.235   3.757  0.0868  1.2852 -0.9374
  996MOL0     H34453   5.908  10.102   3.657  2.8300 -1.8295  2.5944
  996MOL0     H34454   6.008  10.282   3.517 -0.4250  1.3029 -1.5185
  996MOL0     H34455   5.941  10.405   3.619 -1.7878 -0.3690  1.2073
  996MOL0     H34456   5.717  10.353   3.587 -0.5074 -0.8516 -1.0755
  996MOL0     H34457   5.751  10.199   3.497 -4.9368  0.2871  0.2671
  996MOL0     H34458   5.741  10.443   3.174  0.8779  1.6506  0.1055
  996MOL0     H34459   6.270  10.148   3.877 -3.1705 -1.1236  1.4664
  996MOL0     H34460   6.455  10.171   4.019  1.5509  1.2979  0.4456
  997MOL0     O34461   0.486  10.247   6.136 -0.6150 -0.2821  0.2261
  997MOL0     C34462   0.477  10.368   6.160  0.5239 -0.0160 -0.3128
  997MOL0     O34463   0.372  10.450   6.130 -0.5676 -0.6214 -0.4694
  997MOL0     C34464   0.272  10.400   6.057 -0.9385 -0.6822 -0.0731
  997MOL0     C34465   0.181  10.314   6.117 -1.2634  0.1807 -0.5413
  997MOL0     C34466   0.086  10.243   6.044 -0.0902 -0.4542 -0.7095
  997MOL0     C34467   0.074  10.260   5.903 -1.0714  0.3666 -0.6449
  997MOL0     O34468  -0.027  10.187   5.845 -0.7360  0.2056 -0.5489
  997MOL0     C34469  -0.038  10.208   5.701 -0.1252  0.3855  0.7361
  997MOL0     C34470  -0.169  10.152   5.634 -0.4955 -0.8228  1.1014
  997MOL0     C34471  -0.293  10.236   5.679 -0.2321  0.0855  0.6994
  997MOL0     C34472  -0.426  10.192   5.605  0.0292 -0.3115 -0.4126
  997MOL0     C34473  -0.545  10.273   5.657  0.8184 -0.4009 -0.6073
  997MOL0     C34474  -0.676  10.225   5.605 -0.0173 -0.5566  0.1811
  997MOL0     C34475  -0.693  10.073   5.637 -0.0531 -0.3386  0.1433
  997MOL0     C34476  -0.837  10.038   5.664  0.6782 -0.4506  0.3424
  997MOL0     N34477  -0.855   9.995   5.801  0.1263 -0.1352 -0.2572
  997MOL0     C34478  -0.862   9.871   5.856 -0.4576 -0.4841 -0.5793
  997MOL0     C34479  -0.900   9.890   5.984  0.5397 -0.1645  0.6808
  997MOL0     C34480  -0.928   9.777   6.077 -0.8718 -0.8685  0.4087
  997MOL0     C34481  -1.074   9.755   6.110  0.3309  0.4162 -0.3852
  997MOL0     C34482  -1.090   9.627   6.191  0.5527  0.4773  0.1080
  997MOL0     C34483  -1.223   9.588   6.250  1.0139  0.3150  0.2542
  997MOL0     O34484  -1.315   9.582   6.134  0.0352 -0.2174 -0.5475
  997MOL0     C34485  -1.453   9.590   6.168  0.1469  0.2011  0.3400
  997MOL0     C34486  -1.546   9.655   6.083 -0.2264 -0.0774  0.1425
  997MOL0     C34487  -1.683   9.660   6.102 -0.9616 -0.4870 -0.7350
  997MOL0     C34488  -1.778   9.742   6.014  0.6631  0.0812  0.5095
  997MOL0     C34489  -1.732   9.591   6.217  0.3706 -1.2184 -0.8586
  997MOL0     C34490  -1.882   9.560   6.243 -0.0153 -0.2004 -0.9048
  997MOL0     O34491  -1.911   9.550   6.378 -0.7589  0.1188 -0.2533
  997MOL0     C34492  -2.038   9.515   6.416 -1.0647 -0.1784  0.8286
  997MOL0     C34493  -2.083   9.376   6.406  0.3343 -0.0018 -0.1467
  997MOL0     C34494  -2.214   9.343   6.420  0.1551  0.5076 -0.4219
  997MOL0     C34495  -2.302   9.428   6.471 -0.1171 -0.3998 -0.3241
  997MOL0     O34496  -2.434   9.399   6.502 -0.1461 -0.5390  0.2758
  997MOL0     C34497  -2.510   9.351   6.383 -1.0272 -0.6132 -0.2156
  997MOL0     C34498  -2.652   9.343   6.417 -0.6340  0.0990 -0.0813
  997MOL0     C34499  -2.740   9.330   6.299  0.2740  0.5564  0.3246
  997MOL0     C34500  -2.886   9.328   6.347  0.2862 -0.3708  0.4530
  997MOL0     C34501  -2.982   9.299   6.228 -0.1374 -0.0087  0.2749
  997MOL0     C34502  -3.123   9.260   6.280 -1.2131 -0.4577  0.5656
  997MOL0     C34503  -3.197   9.386   6.355 -1.3755  0.6698  0.2439
  997MOL0     C34504  -3.305   9.336   6.449 -0.3520 -0.3820  0.8912
  997MOL0    Cl34505  -3.424   9.243   6.348 -0.3556 -0.3933  0.2231
  997MOL0     C34506  -2.259   9.559   6.488  0.4525  0.4831  0.2133
  997MOL0     C34507  -2.133   9.609   6.454  0.4035 -0.9304 -0.4869
  997MOL0     O34508  -1.954   9.549   6.145 -0.0879 -0.0367 -0.5720
  997MOL0     C34509  -1.646   9.533   6.306  0.3907 -0.4366  0.0549
  997MOL0     C34510  -1.503   9.526   6.279  0.1654 -0.5732 -0.6610
  997MOL0     N34511  -0.914  10.023   6.003  1.1380  1.0172 -0.2286
  997MOL0     N34512  -0.887  10.082   5.893 -0.5566 -0.3426  0.0244
  997MOL0     C34513   0.163  10.344   5.844 -1.1054  0.6164  1.0912
  997MOL0     C34514   0.266  10.409   5.912 -1.1125 -1.0372 -0.5265
  997MOL0     C34515   0.580  10.414   6.257  0.2362  0.3584 -0.2766
  997MOL0     C34516   0.552  10.528   6.338 -0.6362  0.2847  0.1491
  997MOL0     C34517   0.644  10.554   6.435 -0.7103 -0.8301  0.0940
  997MOL0     C34518   0.767  10.491   6.445 -0.4067 -0.2976  0.9075
  997MOL0     O34519   0.847  10.542   6.542 -0.6231 -0.0564 -0.2440
  997MOL0     C34520   0.987  10.524   6.534 -0.2431 -0.0608 -0.3916
  997MOL0     C34521   1.017  10.419   6.640  0.5236  0.0592  0.2910
  997MOL0     C34522   1.151  10.361   6.614  0.1599  0.3430 -0.1087
  997MOL0     C34523   1.204  10.295   6.739 -0.5384 -0.2244 -0.3843
  997MOL0     C34524   1.332  10.243   6.702 -0.0586  0.0561 -0.3142
  997MOL0     C34525   1.441  10.204   6.679  0.1324  1.0629  0.4914
  997MOL0     C34526   0.787  10.379   6.375  0.3078  0.0527 -0.0182
  997MOL0     C34527   0.699  10.339   6.283  0.8890 -0.1638 -0.3909
  997MOL0     H34528   0.178  10.295   6.224 -1.1817 -0.0747 -0.5844
  997MOL0     H34529   0.031  10.175   6.108 -0.3107 -1.6239 -2.0929
  997MOL0     H34530  -0.046  10.315   5.678 -4.1692 -0.2569 -2.0295
  997MOL0     H34531   0.046  10.165   5.645 -0.7716  0.2194 -0.1349
  997MOL0     H34532  -0.163  10.172   5.527  1.2500 -0.6707  1.2050
  997MOL0     H34533  -0.187  10.046   5.655 -0.5278 -1.6817 -2.6081
  997MOL0     H34534  -0.310  10.225   5.787  0.0025  3.7287  1.2117
  997MOL0     H34535  -0.275  10.341   5.654 -1.3900  0.4413  1.2768
  997MOL0     H34536  -0.407  10.217   5.500  1.5462  1.9880  0.3342
  997MOL0     H34537  -0.431  10.083   5.606 -0.5088 -0.3061 -1.3545
  997MOL0     H34538  -0.541  10.255   5.765  3.2057 -1.0384 -0.7626
  997MOL0     H34539  -0.539  10.379   5.629 -0.9016 -0.5742 -1.7781
  997MOL0     H34540  -0.751  10.282   5.660  0.1998 -2.8768  3.1175
  997MOL0     H34541  -0.680  10.239   5.496  1.6680  1.8433  0.3711
  997MOL0     H34542  -0.660  10.013   5.552  2.2548 -0.9566  1.4032
  997MOL0     H34543  -0.642  10.047   5.730  0.4165  2.2902  0.6972
  997MOL0     H34544  -0.872   9.951   5.609 -4.1287  0.5422  1.4416
  997MOL0     H34545  -0.905  10.115   5.626 -1.1203 -2.8999 -1.7785
  997MOL0     H34546  -0.863   9.775   5.806 -0.4489 -0.6108 -0.3382
  997MOL0     H34547  -0.878   9.688   6.037  0.9119  1.0531 -2.0290
  997MOL0     H34548  -0.870   9.808   6.164  0.8379  0.7705 -1.1866
  997MOL0     H34549  -1.134   9.765   6.018 -0.9140 -0.5615  0.2912
  997MOL0     H34550  -1.108   9.831   6.181 -0.3126  0.4551 -0.7200
  997MOL0     H34551  -1.023   9.628   6.278  0.6128 -0.1581  0.0698
  997MOL0     H34552  -1.053   9.536   6.143 -2.7665 -0.9847  0.0616
  997MOL0     H34553  -1.260   9.671   6.311 -1.9541 -0.7438  0.0713
  997MOL0     H34554  -1.230   9.503   6.319 -1.6748 -0.1636 -0.4858
  997MOL0     H34555  -1.501   9.707   5.999  1.6864 -1.2276  0.3998
  997MOL0     H34556  -1.721   9.803   5.943 -2.5258 -0.4073 -2.7535
  997MOL0     H34557  -1.852   9.682   5.961 -0.1156  0.5646  1.0258
  997MOL0     H34558  -1.842   9.807   6.074 -1.7254 -1.8907  0.2826
  997MOL0     H34559  -2.011   9.302   6.372  0.2908 -0.1721  0.1330
  997MOL0     H34560  -2.248   9.241   6.408 -1.4456  1.2108 -2.5129
  997MOL0     H34561  -2.500   9.421   6.300  0.1351  0.5235  0.8409
  997MOL0     H34562  -2.471   9.256   6.346  0.3586  0.1146 -0.6731
  997MOL0     H34563  -2.657   9.244   6.464  1.1826 -1.2730 -2.5434
  997MOL0     H34564  -2.683   9.422   6.486 -1.9250 -0.3250 -0.1437
  997MOL0     H34565  -2.714   9.239   6.244 -0.4068  0.3169  0.3825
  997MOL0     H34566  -2.732   9.417   6.233  2.5701 -2.0256 -3.1255
  997MOL0     H34567  -2.889   9.243   6.417 -1.6259  1.1948  2.4153
  997MOL0     H34568  -2.912   9.423   6.393  0.4974 -0.4128  0.6592
  997MOL0     H34569  -2.935   9.216   6.173  3.0822  1.5572  0.4667
  997MOL0     H34570  -2.989   9.391   6.170  1.3443 -0.7037 -1.0886
  997MOL0     H34571  -3.185   9.229   6.195  0.9284 -1.6476 -0.6467
  997MOL0     H34572  -3.126   9.167   6.337 -0.8615 -2.1575 -1.9998
  997MOL0     H34573  -3.235   9.457   6.281 -1.8320 -0.7314 -0.9102
  997MOL0     H34574  -3.130   9.447   6.415 -2.0946  2.6335 -0.8609
  997MOL0     H34575  -3.365   9.408   6.507 -2.0255 -2.4145  1.7936
  997MOL0     H34576  -3.274   9.274   6.534 -2.2165 -2.0030  0.4385
  997MOL0     H34577  -2.340   9.623   6.522  0.4828  1.6616 -1.7734
  997MOL0     H34578  -2.116   9.716   6.467 -0.4911 -0.8943  0.6284
  997MOL0     H34579  -1.673   9.486   6.400  3.3490 -1.6422  0.4343
  997MOL0     H34580  -1.448   9.467   6.352  0.7847  0.5491 -0.1852
  997MOL0     H34581   0.153  10.367   5.738 -0.4199  0.1787  0.9294
  997MOL0     H34582   0.331  10.473   5.854 -0.5019 -1.6460 -0.5352
  997MOL0     H34583   0.462  10.587   6.321 -0.5896  0.7554  1.4577
  997MOL0     H34584   0.624  10.633   6.507  0.1280 -0.5445  0.0346
  997MOL0     H34585   1.018  10.509   6.430 -0.3248  2.4040 -0.8197
  997MOL0     H34586   1.049  10.611   6.556  2.2194 -2.0979  1.4038
  997MOL0     H34587   0.936  10.347   6.621 -0.9501  1.4818  0.9972
  997MOL0     H34588   1.002  10.457   6.741 -0.9206  0.4619 -0.0495
  997MOL0     H34589   1.219  10.445   6.594  1.2927 -0.4175  0.4452
  997MOL0     H34590   1.148  10.302   6.522 -0.1015  0.9173 -0.4772
  997MOL0     H34591   1.144  10.215   6.784  0.7631 -1.3458 -0.5425
  997MOL0     H34592   1.223  10.371   6.816 -1.8622  1.9779 -2.1183
  997MOL0     H34593   1.535  10.161   6.649 -0.0378  0.5695  0.6426
  997MOL0     H34594   0.874  10.314   6.382 -1.5533 -2.7982 -1.2846
  997MOL0     H34595   0.716  10.250   6.224  0.6390  0.0861 -0.8395
  998MOL0     O34596   7.773   3.605   2.982 -0.3970  0.6466 -0.2425
  998MOL0     C34597   7.856   3.511   2.953  0.7932  1.2407  0.0657
  998MOL0     O34598   7.824   3.388   2.885  0.5323 -1.3918 -0.5241
  998MOL0     C34599   7.691   3.381   2.849 -0.6185  0.4963 -0.2282
  998MOL0     C34600   7.588   3.364   2.945  0.2490  1.3289 -0.5168
  998MOL0     C34601   7.459   3.349   2.899  1.5319  0.0587  0.1928
  998MOL0     C34602   7.435   3.348   2.763  0.6112  1.0453 -0.3444
  998MOL0     O34603   7.310   3.339   2.711 -0.5008  0.5469  0.0279
  998MOL0     C34604   7.253   3.210   2.719 -1.4198 -0.6033  0.0751
  998MOL0     C34605   7.113   3.221   2.772  0.0449  0.2399  0.0670
  998MOL0     C34606   7.009   3.239   2.660 -0.3607  0.1204 -0.4676
  998MOL0     C34607   6.874   3.283   2.720 -0.0434  0.7169 -0.4888
  998MOL0     C34608   6.768   3.295   2.602  0.2832 -0.1390  0.0988
  998MOL0     C34609   6.708   3.152   2.577  0.0192  0.3172  0.1356
  998MOL0     C34610   6.552   3.156   2.566  0.3345 -0.0379 -0.0718
  998MOL0     C34611   6.501   3.230   2.437  0.7328 -0.4366 -0.2414
  998MOL0     N34612   6.357   3.252   2.435 -0.5994 -0.2695  0.0898
  998MOL0     C34613   6.272   3.158   2.385  0.0456 -0.0365 -0.0269
  998MOL0     C34614   6.150   3.223   2.393  0.0679  0.5029  0.3028
  998MOL0     C34615   6.017   3.154   2.366 -0.3000  0.3053  0.0166
  998MOL0     C34616   5.897   3.250   2.371  0.5292  0.1749 -0.3061
  998MOL0     C34617   5.760   3.178   2.360 -0.1207 -0.0211 -0.1057
  998MOL0     C34618   5.737   3.090   2.240  0.2613  0.0957  0.0366
  998MOL0     O34619   5.607   3.043   2.237  0.1394  0.4467  0.1787
  998MOL0     C34620   5.502   3.126   2.216 -0.2165  0.6039 -0.1844
  998MOL0     C34621   5.497   3.260   2.183  0.0056  0.4853  0.5589
  998MOL0     C34622   5.374   3.317   2.136  0.7560 -0.6251 -0.1657
  998MOL0     C34623   5.377   3.470   2.120  0.1125 -0.7539 -0.0153
  998MOL0     C34624   5.255   3.243   2.137 -0.4130 -0.3750 -0.0463
  998MOL0     C34625   5.118   3.280   2.115  0.2501 -0.0027 -0.1707
  998MOL0     O34626   5.024   3.181   2.113  0.3334 -0.4189  0.1467
  998MOL0     C34627   4.894   3.207   2.075 -0.3200 -0.5467  0.2348
  998MOL0     C34628   4.788   3.124   2.121 -0.0297  0.1810 -0.5046
  998MOL0     C34629   4.657   3.155   2.095 -0.4087  0.4404  0.7339
  998MOL0     C34630   4.620   3.270   2.035  0.0497  0.1823 -0.1892
  998MOL0     O34631   4.487   3.307   2.032  0.6344  1.0455  0.0462
  998MOL0     C34632   4.438   3.350   1.904  0.3877 -0.5112 -0.1347
  998MOL0     C34633   4.294   3.406   1.912  0.8327 -0.7221 -0.0594
  998MOL0     C34634   4.179   3.302   1.925 -0.0235  1.2546  0.5033
  998MOL0     C34635   4.155   3.231   2.061 -0.7435 -0.8544  0.7183
  998MOL0     C34636   4.037   3.129   2.058 -0.3722  0.2143 -0.1606
  998MOL0     C34637   3.906   3.206   2.027 -0.4596  0.3871  0.5096
  998MOL0     C34638   3.789   3.111   2.025 -0.2471 -0.3742 -0.5682
  998MOL0     C34639   3.682   3.170   1.933 -0.4558  0.1056 -0.3532
  998MOL0    Cl34640   3.745   3.159   1.761  0.4624  0.0217 -0.0415
  998MOL0     C34641   4.717   3.362   1.985  0.4139 -0.2096 -1.1690
  998MOL0     C34642   4.851   3.324   1.997  0.2557 -0.4090  0.9622
  998MOL0     O34643   5.090   3.400   2.127  0.0872  0.3618 -0.1681
  998MOL0     C34644   5.278   3.103   2.155 -0.9195  0.6071 -0.0976
  998MOL0     C34645   5.393   3.047   2.206  0.4354  0.1691  0.2771
  998MOL0     N34646   6.162   3.346   2.451  0.3885  0.2120 -0.5941
  998MOL0     N34647   6.291   3.362   2.480  0.1516  0.0524 -0.9893
  998MOL0     C34648   7.532   3.368   2.664  0.3261 -0.1322 -0.0206
  998MOL0     C34649   7.663   3.388   2.708  0.8086  0.0118  0.3820
  998MOL0     C34650   7.998   3.522   2.982  0.3908  0.0015  0.1147
  998MOL0     C34651   8.086   3.412   2.979 -0.7609 -0.4056  0.2887
  998MOL0     C34652   8.217   3.425   2.975  0.4218 -0.9235  0.4636
  998MOL0     C34653   8.285   3.546   3.001 -0.1842 -0.2461  0.4016
  998MOL0     O34654   8.421   3.555   3.021  0.1583  0.4917  0.0424
  998MOL0     C34655   8.483   3.672   2.978  0.2411  0.5337  0.2733
  998MOL0     C34656   8.631   3.653   2.969 -1.0151  0.2904  0.2370
  998MOL0     C34657   8.721   3.768   2.939  0.1193 -0.0526  0.3347
  998MOL0     C34658   8.742   3.814   2.798 -0.2087 -0.3754  0.0557
  998MOL0     C34659   8.639   3.912   2.763 -0.0657  0.8184  0.0261
  998MOL0     C34660   8.563   3.993   2.719  0.7435  0.2998 -0.1668
  998MOL0     C34661   8.197   3.664   3.010 -0.1023  0.0497  0.2322
  998MOL0     C34662   8.054   3.649   2.999  0.1457 -0.4400 -0.3038
  998MOL0     H34663   7.599   3.362   3.053  2.3232 -1.2087 -0.6798
  998MOL0     H34664   7.383   3.340   2.976  0.9792  3.2097  0.1509
  998MOL0     H34665   7.254   3.175   2.615  1.7237 -0.5064 -0.0258
  998MOL0     H34666   7.311   3.139   2.779  1.3659 -0.2895 -2.0480
  998MOL0     H34667   7.094   3.131   2.831 -4.2231  0.1219 -1.1205
  998MOL0     H34668   7.104   3.306   2.840  0.6361  0.7810 -0.5114
  998MOL0     H34669   7.051   3.312   2.590 -2.2891 -0.2589 -2.0847
  998MOL0     H34670   6.992   3.146   2.606 -0.8650  0.2378 -0.5093
  998MOL0     H34671   6.835   3.216   2.797  3.0278  0.8267  1.3475
  998MOL0     H34672   6.898   3.378   2.770  3.8766 -0.5306  0.4022
  998MOL0     H34673   6.689   3.364   2.633 -0.6217 -1.8640  1.9188
  998MOL0     H34674   6.818   3.336   2.514 -1.5547  0.4815 -0.6879
  998MOL0     H34675   6.743   3.101   2.486 -0.6196  0.2715 -0.0867
  998MOL0     H34676   6.742   3.082   2.653 -1.1024 -0.5429 -0.1397
  998MOL0     H34677   6.505   3.057   2.562 -1.6403  0.8756 -2.6599
  998MOL0     H34678   6.516   3.200   2.659 -0.9114  1.0389 -1.0126
  998MOL0     H34679   6.527   3.170   2.349  1.2464 -0.8989  0.2245
  998MOL0     H34680   6.541   3.330   2.418  0.0746  0.0620  0.8962
  998MOL0     H34681   6.286   3.056   2.350  1.3580  0.2893 -0.5115
  998MOL0     H34682   6.027   3.118   2.264 -2.9003  2.2257 -1.0245
  998MOL0     H34683   6.011   3.076   2.443  1.2409  0.0679 -0.0730
  998MOL0     H34684   5.915   3.331   2.300  1.3234  2.5882  2.4747
  998MOL0     H34685   5.889   3.305   2.466 -3.7148  0.5476 -0.6911
  998MOL0     H34686   5.679   3.251   2.369 -1.8413 -1.8015 -0.5289
  998MOL0     H34687   5.735   3.109   2.441 -2.4973 -1.1816 -1.7081
  998MOL0     H34688   5.809   3.009   2.246  3.4910  2.8733  1.9354
  998MOL0     H34689   5.761   3.142   2.147 -0.6707 -0.0891 -0.3221
  998MOL0     H34690   5.584   3.321   2.202  1.0413 -0.9105  0.4315
  998MOL0     H34691   5.472   3.512   2.154 -0.6511 -1.6248  3.5182
  998MOL0     H34692   5.338   3.497   2.021 -1.8040  1.4253  1.2354
  998MOL0     H34693   5.299   3.504   2.188  1.1974  1.5344  0.1742
  998MOL0     H34694   4.803   3.028   2.169 -2.1552  1.0326  2.1151
  998MOL0     H34695   4.586   3.082   2.133  0.1782 -0.6971 -0.2764
  998MOL0     H34696   4.487   3.440   1.865  1.5280  0.2410  2.7393
  998MOL0     H34697   4.445   3.265   1.835  2.9218 -0.7396  0.3069
  998MOL0     H34698   4.282   3.481   1.991 -1.7126 -2.6596  1.5914
  998MOL0     H34699   4.276   3.461   1.819 -1.5818  2.2341  1.9486
  998MOL0     H34700   4.192   3.219   1.855 -2.2556  1.7692 -0.6099
  998MOL0     H34701   4.086   3.349   1.891 -1.4639 -1.2317  0.6767
  998MOL0     H34702   4.248   3.186   2.097  0.2592  0.3976 -0.1899
  998MOL0     H34703   4.137   3.317   2.127  0.0500  1.8758 -2.3439
  998MOL0     H34704   4.019   3.078   2.153  1.8309  0.1613  0.2851
  998MOL0     H34705   4.062   3.054   1.982  2.4735  2.3952 -1.5884
  998MOL0     H34706   3.889   3.285   2.101 -0.2451  2.5823 -1.6447
  998MOL0     H34707   3.912   3.259   1.932 -2.4376 -1.1366 -0.5382
  998MOL0     H34708   3.748   3.101   2.126  0.0349  3.0812 -0.0164
  998MOL0     H34709   3.815   3.011   1.988 -1.8413 -1.2527  0.5302
  998MOL0     H34710   3.653   3.274   1.951  0.2201  0.1096  0.8467
  998MOL0     H34711   3.597   3.103   1.951 -0.3438  0.3550  1.2786
  998MOL0     H34712   4.702   3.456   1.934 -1.3365  2.0403  2.9543
  998MOL0     H34713   4.925   3.387   1.949 -0.5284 -0.0696  0.1687
  998MOL0     H34714   5.198   3.029   2.157  1.0118 -1.6349  2.5595
  998MOL0     H34715   5.405   2.940   2.201 -0.8620  0.0021  0.4128
  998MOL0     H34716   7.506   3.361   2.559 -2.3831  2.4764  0.3509
  998MOL0     H34717   7.738   3.393   2.630  0.0225  0.5323 -0.3540
  998MOL0     H34718   8.059   3.307   2.972  1.4293 -1.2207  2.5267
  998MOL0     H34719   8.274   3.335   2.955 -1.6061 -1.6438 -2.8854
  998MOL0     H34720   8.447   3.715   2.884  0.4444  3.1499  1.2946
  998MOL0     H34721   8.453   3.750   3.049 -0.1232  0.8015 -0.1718
  998MOL0     H34722   8.641   3.578   2.889  0.5981 -1.3366  1.8720
  998MOL0     H34723   8.667   3.619   3.066  0.3670 -0.6022 -0.5455
  998MOL0     H34724   8.816   3.721   2.963 -0.0588 -0.6383 -0.0746
  998MOL0     H34725   8.712   3.856   3.004  0.1509  0.1750  0.0351
  998MOL0     H34726   8.750   3.728   2.730  0.6455 -0.4634  0.2572
  998MOL0     H34727   8.838   3.866   2.796 -0.5183  0.5021  3.0650
  998MOL0     H34728   8.493   4.072   2.698 -1.3392 -1.2597  0.5364
  998MOL0     H34729   8.239   3.756   3.049 -0.6134 -0.5113  2.1658
  998MOL0     H34730   7.995   3.740   3.010  1.0271  0.3229 -1.4911
  999MOL0     O34731   5.619   1.887   7.666 -0.6592 -0.4630 -0.3693
  999MOL0     C34732   5.664   1.774   7.682 -0.2212  0.1517  0.0107
  999MOL0     O34733   5.593   1.658   7.714 -0.3536  0.0333  0.6325
  999MOL0     C34734   5.459   1.659   7.717  0.8744  0.5350  0.2067
  999MOL0     C34735   5.382   1.551   7.672 -0.1203  0.5453  0.3716
  999MOL0     C34736   5.245   1.556   7.667  0.0764  0.9272 -1.4793
  999MOL0     C34737   5.175   1.663   7.712 -1.0247 -0.4678  0.0961
  999MOL0     O34738   5.040   1.676   7.715 -0.1210 -0.0682  0.4638
  999MOL0     C34739   4.958   1.557   7.701  0.3638 -0.9857  0.5267
  999MOL0     C34740   4.806   1.596   7.700 -0.7807  0.5831 -0.2248
  999MOL0     C34741   4.761   1.673   7.570  0.3119  0.0951  0.8852
  999MOL0     C34742   4.612   1.718   7.587  0.4608  0.0791 -0.3749
  999MOL0     C34743   4.568   1.848   7.506  0.6707  0.5703  0.5801
  999MOL0     C34744   4.614   1.863   7.357 -0.7185  0.5539 -0.6165
  999MOL0     C34745   4.563   1.999   7.298 -0.0049  0.1415  0.6372
  999MOL0     C34746   4.613   2.026   7.157  0.5804 -0.5005 -0.5110
  999MOL0     N34747   4.562   2.151   7.098 -0.4106  0.1026  0.4507
  999MOL0     C34748   4.604   2.203   6.974 -0.0744 -0.6192  0.3192
  999MOL0     C34749   4.539   2.321   6.956 -1.0750 -0.1668  0.0992
  999MOL0     C34750   4.543   2.389   6.821  0.8915 -0.0464 -0.0155
  999MOL0     C34751   4.682   2.441   6.777  0.2991  0.0549 -0.1878
  999MOL0     C34752   4.681   2.510   6.643  0.5142 -0.5339  0.8004
  999MOL0     C34753   4.572   2.613   6.628 -0.2574 -0.1995  0.2565
  999MOL0     O34754   4.602   2.713   6.533 -0.2883  0.1682  1.1192
  999MOL0     C34755   4.485   2.782   6.498 -0.4887 -0.2011 -0.2708
  999MOL0     C34756   4.485   2.833   6.374 -0.4906 -0.2986 -1.0123
  999MOL0     C34757   4.384   2.898   6.316  0.1485 -0.1512 -0.2956
  999MOL0     C34758   4.391   2.926   6.171  0.2264 -0.2182 -0.2020
  999MOL0     C34759   4.266   2.926   6.390 -1.0246  0.1624 -0.0753
  999MOL0     C34760   4.150   3.007   6.345  0.2745  0.0555  0.0472
  999MOL0     O34761   4.095   3.068   6.445 -0.3320 -0.1676  0.1527
  999MOL0     C34762   3.995   3.167   6.428 -0.5984 -0.0060 -0.5014
  999MOL0     C34763   3.855   3.131   6.439 -0.4917 -0.0246  0.2811
  999MOL0     C34764   3.755   3.226   6.429  0.7803  0.7469  0.7144
  999MOL0     C34765   3.787   3.351   6.372  0.0459 -0.6019 -0.7867
  999MOL0     O34766   3.694   3.446   6.331 -0.5371 -0.4539  0.3009
  999MOL0     C34767   3.561   3.396   6.322  0.7984 -0.4477  0.2203
  999MOL0     C34768   3.476   3.498   6.236 -1.2105 -0.4026 -0.4409
  999MOL0     C34769   3.426   3.614   6.309  0.3298  0.1508 -0.3348
  999MOL0     C34770   3.305   3.667   6.217  0.4902 -0.3706 -0.6960
  999MOL0     C34771   3.168   3.596   6.242  0.1264 -1.0154  0.0755
  999MOL0     C34772   3.079   3.601   6.107  0.2318 -0.1941  0.2796
  999MOL0     C34773   2.961   3.501   6.102 -0.1219 -0.1721 -0.3328
  999MOL0     C34774   2.852   3.544   6.199 -0.3915  0.6960 -0.0232
  999MOL0    Cl34775   2.788   3.708   6.144 -0.5171  0.0928  0.5557
  999MOL0     C34776   3.918   3.385   6.360  0.3805 -0.0887  0.3449
  999MOL0     C34777   4.021   3.297   6.393 -0.4573  0.7461  0.0458
  999MOL0     O34778   4.107   3.010   6.232  0.2246  0.0696  0.5212
  999MOL0     C34779   4.267   2.876   6.523 -0.0250  1.0376 -0.2528
  999MOL0     C34780   4.367   2.801   6.583 -0.8111  0.0195  0.3320
  999MOL0     N34781   4.464   2.341   7.066  0.3279 -0.0347  0.2350
  999MOL0     N34782   4.467   2.234   7.146 -0.2790 -0.0971  0.3389
  999MOL0     C34783   5.238   1.774   7.757  0.1892 -0.4320  0.0804
  999MOL0     C34784   5.378   1.768   7.766  0.3166  0.3418  0.9475
  999MOL0     C34785   5.806   1.747   7.654  0.4396 -0.0562  0.1839
  999MOL0     C34786   5.859   1.629   7.607  0.2336 -0.6689  0.0519
  999MOL0     C34787   5.997   1.613   7.575 -0.5944  0.3062  0.5217
  999MOL0     C34788   6.083   1.723   7.588 -0.3910 -1.0568  0.1033
  999MOL0     O34789   6.213   1.711   7.560 -0.5436 -0.4096 -0.4100
  999MOL0     C34790   6.290   1.811   7.490  0.2190  0.1436  0.6082
  999MOL0     C34791   6.445   1.778   7.488  0.1185 -0.6632 -0.0719
  999MOL0     C34792   6.514   1.800   7.627  0.0220 -0.1104  0.6472
  999MOL0     C34793   6.669   1.783   7.619 -0.6902 -0.0314 -1.0351
  999MOL0     C34794   6.720   1.648   7.596 -0.2058  0.1867  0.7877
  999MOL0     C34795   6.772   1.536   7.574 -0.9691 -0.2425  0.1241
  999MOL0     C34796   6.035   1.845   7.640  0.1071  0.7714  0.2315
  999MOL0     C34797   5.896   1.857   7.677  0.2703 -0.7558  0.3172
  999MOL0     H34798   5.436   1.460   7.651 -0.0175  0.9905 -1.4415
  999MOL0     H34799   5.184   1.475   7.626 -1.2363  1.9257 -1.5770
  999MOL0     H34800   4.970   1.510   7.603 -1.1714  0.6795 -0.5385
  999MOL0     H34801   4.978   1.487   7.782 -0.1121  1.3899  2.8171
  999MOL0     H34802   4.735   1.513   7.703 -0.1511 -0.0239 -1.1943
  999MOL0     H34803   4.795   1.661   7.787 -1.0987 -0.8584  0.8417
  999MOL0     H34804   4.820   1.765   7.567 -1.2469  1.1698  1.7445
  999MOL0     H34805   4.773   1.619   7.475  0.7175  2.1263 -0.2711
  999MOL0     H34806   4.547   1.640   7.547  0.3258 -0.6954  1.2759
  999MOL0     H34807   4.592   1.739   7.692 -1.0561 -3.9744  0.2983
  999MOL0     H34808   4.459   1.855   7.516  0.8353  2.4154  1.4685
  999MOL0     H34809   4.613   1.924   7.570  0.8918  3.8368 -3.0716
  999MOL0     H34810   4.723   1.870   7.369 -0.7208  0.5004 -0.5635
  999MOL0     H34811   4.593   1.783   7.286  1.6344  1.5534 -2.5745
  999MOL0     H34812   4.454   1.990   7.297  0.0497 -0.7408 -0.7777
  999MOL0     H34813   4.589   2.084   7.362 -1.7589  0.0875  1.4831
  999MOL0     H34814   4.593   1.942   7.091  1.5133 -1.0309 -0.1415
  999MOL0     H34815   4.721   2.037   7.155  0.3132  3.1649 -2.0759
  999MOL0     H34816   4.672   2.152   6.907  0.6646  1.0079 -0.2474
  999MOL0     H34817   4.502   2.326   6.742 -2.5902  3.0740 -0.9487
  999MOL0     H34818   4.470   2.469   6.833 -0.9838 -1.9914  3.2248
  999MOL0     H34819   4.750   2.355   6.771  0.4110  0.1415 -0.1562
  999MOL0     H34820   4.719   2.507   6.856 -0.5038  0.3907 -0.0812
  999MOL0     H34821   4.660   2.434   6.567  0.0134 -1.3357  1.7319
  999MOL0     H34822   4.783   2.540   6.617  0.6002 -2.2199 -1.0262
  999MOL0     H34823   4.567   2.667   6.722 -1.5627 -1.1516  0.7647
  999MOL0     H34824   4.476   2.564   6.608  0.0988 -0.6692 -0.3575
  999MOL0     H34825   4.572   2.816   6.311  0.8752 -3.2757  1.4279
  999MOL0     H34826   4.327   2.850   6.126 -1.8686  0.9342  0.6570
  999MOL0     H34827   4.354   3.028   6.153 -0.5019  0.3392  3.5855
  999MOL0     H34828   4.493   2.924   6.132  0.2002  0.2272 -0.2993
  999MOL0     H34829   3.825   3.030   6.467 -1.0458  0.2219  0.5741
  999MOL0     H34830   3.652   3.196   6.442  1.1826 -2.1657 -1.8530
  999MOL0     H34831   3.560   3.297   6.275  0.0821 -0.6358  0.6107
  999MOL0     H34832   3.506   3.397   6.417  3.6346  0.3427  1.9490
  999MOL0     H34833   3.541   3.521   6.151 -0.9876  0.6750  0.0037
  999MOL0     H34834   3.390   3.437   6.206 -1.9650  0.8101 -0.7780
  999MOL0     H34835   3.504   3.688   6.332  3.9022 -2.0028 -4.0510
  999MOL0     H34836   3.374   3.574   6.397 -1.5924 -1.8387 -2.2396
  999MOL0     H34837   3.277   3.771   6.235 -3.5522 -1.7948  3.0621
  999MOL0     H34838   3.332   3.637   6.115 -0.6067 -4.0493 -0.0708
  999MOL0     H34839   3.114   3.635   6.328  0.3224  1.2953 -0.7850
  999MOL0     H34840   3.196   3.493   6.268  1.8033 -0.4328  0.7067
  999MOL0     H34841   3.041   3.701   6.085 -0.0564 -0.5504 -0.9433
  999MOL0     H34842   3.134   3.570   6.017 -0.6854 -2.2791  0.3839
  999MOL0     H34843   2.996   3.400   6.127 -1.8632 -1.2830 -2.0607
  999MOL0     H34844   2.917   3.500   6.002 -1.4146  0.7723  0.1940
  999MOL0     H34845   2.898   3.555   6.298 -1.0002 -0.7348  0.4490
  999MOL0     H34846   2.777   3.463   6.204 -0.9936  1.2732  0.5730
  999MOL0     H34847   3.947   3.483   6.324  1.1443 -0.7035 -0.7610
  999MOL0     H34848   4.126   3.316   6.372  0.0211 -2.2971 -0.7550
  999MOL0     H34849   4.175   2.884   6.580  0.5896 -3.3615  1.6873
  999MOL0     H34850   4.366   2.748   6.678  0.9285 -0.5940  0.0376
  999MOL0     H34851   5.175   1.848   7.805  0.3541 -0.7740  0.8484
  999MOL0     H34852   5.415   1.863   7.803  3.7721  0.0094 -1.2161
  999MOL0     H34853   5.787   1.553   7.579 -0.5365 -1.2738  3.2951
  999MOL0     H34854   6.051   1.524   7.545  0.4740  0.4690  1.8559
  999MOL0     H34855   6.249   1.834   7.392  0.1003  1.8626  1.0321
  999MOL0     H34856   6.269   1.908   7.535  0.3133  1.0813 -1.2745
  999MOL0     H34857   6.488   1.846   7.413  2.2229  1.0717  2.5113
  999MOL0     H34858   6.442   1.674   7.455 -3.0537 -0.7746  0.2631
  999MOL0     H34859   6.482   1.740   7.713  0.5026  1.4840  1.9907
  999MOL0     H34860   6.502   1.904   7.660  0.5427  0.0751  0.2650
  999MOL0     H34861   6.708   1.813   7.717  0.3918 -1.5339 -0.9849
  999MOL0     H34862   6.707   1.853   7.544 -0.7317  1.0250 -0.0929
  999MOL0     H34863   6.816   1.441   7.552 -2.3357 -0.8343 -0.1897
  999MOL0     H34864   6.102   1.929   7.655  1.7271 -0.5690  0.8167
  999MOL0     H34865   5.862   1.956   7.707 -2.4349 -1.5148  0.0118
 1000MOL0     O34866   0.663   0.641   0.379 -0.3303  0.3728 -0.8281
 1000MOL0     C34867   0.662   0.767   0.373  0.4978  0.8821 -0.9759
 1000MOL0     O34868   0.552   0.845   0.380 -0.6896 -0.9310  0.3695
 1000MOL0     C34869   0.430   0.792   0.394 -0.0101  0.7489 -0.0810
 1000MOL0     C34870   0.360   0.736   0.286  0.6940  1.2697 -0.4431
 1000MOL0     C34871   0.242   0.661   0.305  0.0380 -0.2338  0.4410
 1000MOL0     C34872   0.179   0.657   0.431 -1.0455  0.7955 -0.7389
 1000MOL0     O34873   0.074   0.569   0.446 -0.4084  0.1802 -0.7938
 1000MOL0     C34874  -0.043   0.607   0.523  0.2787  0.1933  0.1181
 1000MOL0     C34875  -0.156   0.510   0.481  0.2395  0.3368 -0.3738
 1000MOL0     C34876  -0.279   0.535   0.568 -0.1575  0.1235 -0.5387
 1000MOL0     C34877  -0.405   0.546   0.484 -0.5722 -0.5790 -0.4656
 1000MOL0     C34878  -0.530   0.525   0.575 -0.1514  0.8255 -0.0841
 1000MOL0     C34879  -0.656   0.578   0.499 -0.1419  0.2899  1.6004
 1000MOL0     C34880  -0.769   0.611   0.583  0.2591 -0.1624 -0.1914
 1000MOL0     C34881  -0.745   0.754   0.640 -0.1808  0.4799  0.8449
 1000MOL0     N34882  -0.872   0.819   0.690 -0.2941  0.3309 -0.1563
 1000MOL0     C34883  -0.956   0.759   0.781  0.6589 -0.0716 -0.1609
 1000MOL0     C34884  -1.059   0.854   0.793 -0.3245  0.3318  0.5603
 1000MOL0     C34885  -1.170   0.849   0.889 -0.2568  0.3611  0.0876
 1000MOL0     C34886  -1.272   0.745   0.850  0.1645  0.3377  0.4178
 1000MOL0     C34887  -1.340   0.788   0.718 -0.3898  0.3970 -0.4479
 1000MOL0     C34888  -1.471   0.714   0.700 -0.0839 -0.3769  0.1139
 1000MOL0     O34889  -1.553   0.752   0.813 -0.0318  0.2771 -0.5490
 1000MOL0     C34890  -1.688   0.708   0.793  0.3670  0.1424 -0.0503
 1000MOL0     C34891  -1.719   0.573   0.760  0.5903  0.5466 -0.4952
 1000MOL0     C34892  -1.852   0.524   0.762  0.5338  0.6980  0.9967
 1000MOL0     C34893  -1.892   0.385   0.723 -0.7880  0.1858 -0.7601
 1000MOL0     C34894  -1.955   0.606   0.802  0.1387 -0.6055  0.4037
 1000MOL0     C34895  -2.097   0.576   0.826  0.6527 -0.4410  0.1703
 1000MOL0     O34896  -2.193   0.680   0.830 -0.3804  0.0154  0.0929
 1000MOL0     C34897  -2.318   0.666   0.889 -0.1950 -0.7621 -0.4126
 1000MOL0     C34898  -2.380   0.779   0.920 -0.2122 -0.0253 -0.0707
 1000MOL0     C34899  -2.518   0.786   0.964 -1.5460  0.9317 -0.4932
 1000MOL0     C34900  -2.586   0.669   0.960  0.4135 -0.2111 -0.1032
 1000MOL0     O34901  -2.719   0.663   0.994 -0.4297 -0.5271 -0.2777
 1000MOL0     C34902  -2.757   0.692   1.128 -0.3638  0.1505 -0.1779
 1000MOL0     C34903  -2.900   0.636   1.164  0.0009  0.8880 -0.6731
 1000MOL0     C34904  -3.011   0.710   1.086 -0.1082 -0.1985  0.3603
 1000MOL0     C34905  -3.144   0.642   1.118  0.0789 -0.0380 -0.5331
 1000MOL0     C34906  -3.241   0.663   1.000 -0.1743  0.5775 -0.5621
 1000MOL0     C34907  -3.391   0.624   1.015  0.0205  0.2990  0.0199
 1000MOL0     C34908  -3.453   0.685   1.144  0.4166 -0.5196 -0.4570
 1000MOL0     C34909  -3.606   0.693   1.128 -0.2579 -0.1156 -0.9782
 1000MOL0    Cl34910  -3.673   0.543   1.093  0.3079  0.1546  0.8491
 1000MOL0     C34911  -2.525   0.546   0.921 -0.1758 -0.7671 -0.0271
 1000MOL0     C34912  -2.392   0.544   0.887  0.0466 -0.6964  0.3311
 1000MOL0     O34913  -2.112   0.466   0.872 -0.0532  0.1903  0.4082
 1000MOL0     C34914  -1.928   0.742   0.804  0.2058  0.3956  1.2102
 1000MOL0     C34915  -1.798   0.797   0.811  0.2313  0.0021  0.7110
 1000MOL0     N34916  -1.032   0.955   0.705  0.2242  0.5190  0.0872
 1000MOL0     N34917  -0.929   0.935   0.641 -0.3714  0.2915  0.0879
 1000MOL0     C34918   0.247   0.730   0.537  0.3359 -0.3652  0.0389
 1000MOL0     C34919   0.373   0.789   0.518  0.0832  0.6896  0.3975
 1000MOL0     C34920   0.792   0.842   0.378 -0.4722  0.8763 -0.7278
 1000MOL0     C34921   0.919   0.771   0.406 -1.2779 -0.9479  0.1241
 1000MOL0     C34922   1.033   0.843   0.434 -0.3338  0.2706 -0.8543
 1000MOL0     C34923   1.030   0.983   0.447  0.0819  0.6025  0.7220
 1000MOL0     O34924   1.142   1.057   0.473  0.1449  0.0742  0.4730
 1000MOL0     C34925   1.276   1.001   0.478 -0.8895 -0.5099  0.2161
 1000MOL0     C34926   1.385   1.114   0.490  0.2093 -0.7907  0.1933
 1000MOL0     C34927   1.378   1.218   0.370  0.3879  0.5342 -0.1061
 1000MOL0     C34928   1.505   1.304   0.363 -0.3260  0.6869 -0.1060
 1000MOL0     C34929   1.613   1.241   0.283  1.0998 -0.4382  0.4634
 1000MOL0     C34930   1.713   1.211   0.224  0.2761  0.3546  1.1459
 1000MOL0     C34931   0.908   1.046   0.424  0.1790 -0.1205 -0.3180
 1000MOL0     C34932   0.796   0.978   0.394  0.4213 -0.2226  0.8670
 1000MOL0     H34933   0.398   0.730   0.185 -2.0458  0.0156 -1.5096
 1000MOL0     H34934   0.204   0.597   0.226 -0.7271  1.2925 -0.4521
 1000MOL0     H34935  -0.022   0.594   0.630  1.9676 -0.8080 -0.2887
 1000MOL0     H34936  -0.066   0.711   0.500  0.6786  0.6179  1.5458
 1000MOL0     H34937  -0.169   0.516   0.373 -1.2046  0.4839 -0.2188
 1000MOL0     H34938  -0.115   0.410   0.498 -0.8265 -0.1484 -0.5832
 1000MOL0     H34939  -0.298   0.451   0.635 -1.3594  0.8512  0.0756
 1000MOL0     H34940  -0.276   0.627   0.629  1.1053 -1.5208  2.0774
 1000MOL0     H34941  -0.400   0.650   0.449 -2.2957  0.0897  1.0961
 1000MOL0     H34942  -0.404   0.493   0.388 -2.5436  3.8319 -3.2983
 1000MOL0     H34943  -0.528   0.418   0.598  3.3368  0.9311  0.6466
 1000MOL0     H34944  -0.512   0.568   0.674  2.1663 -1.4971  0.6016
 1000MOL0     H34945  -0.625   0.664   0.439  3.1265 -3.0133 -2.0734
 1000MOL0     H34946  -0.690   0.498   0.432 -1.7690  1.7090  0.6400
 1000MOL0     H34947  -0.857   0.615   0.519  1.0759 -1.3854 -1.4416
 1000MOL0     H34948  -0.771   0.544   0.670  0.7576  0.5216  0.3670
 1000MOL0     H34949  -0.701   0.813   0.559 -0.1343 -0.0434  0.4808
 1000MOL0     H34950  -0.670   0.750   0.719 -0.6317 -4.1609  1.2986
 1000MOL0     H34951  -0.947   0.673   0.846 -1.4334 -1.0907 -1.1358
 1000MOL0     H34952  -1.136   0.824   0.990  2.7283 -1.5560 -1.2347
 1000MOL0     H34953  -1.215   0.949   0.890  0.2930  0.6159  0.0980
 1000MOL0     H34954  -1.355   0.738   0.921 -0.1187  1.6661  0.2501
 1000MOL0     H34955  -1.228   0.645   0.852  0.2766  0.3314 -1.3347
 1000MOL0     H34956  -1.264   0.776   0.640  0.1125 -0.7596  0.2050
 1000MOL0     H34957  -1.355   0.896   0.731  0.5956  0.6174 -0.9810
 1000MOL0     H34958  -1.448   0.607   0.711 -0.1920 -0.1637  3.4385
 1000MOL0     H34959  -1.519   0.744   0.606 -1.2265  1.7243  1.2870
 1000MOL0     H34960  -1.645   0.500   0.728  0.3992  1.0488 -2.2157
 1000MOL0     H34961  -1.881   0.313   0.805  1.8906 -0.0155 -1.1994
 1000MOL0     H34962  -1.989   0.389   0.673 -0.6190 -2.3956 -1.4493
 1000MOL0     H34963  -1.826   0.351   0.643 -0.8917  1.9066 -1.6275
 1000MOL0     H34964  -2.316   0.867   0.911  0.4453 -0.4936 -0.0555
 1000MOL0     H34965  -2.564   0.878   0.996 -0.0845  0.9608  1.7322
 1000MOL0     H34966  -2.694   0.650   1.207 -1.6153 -1.3307  0.0867
 1000MOL0     H34967  -2.755   0.801   1.123  1.3337  0.0933 -1.7821
 1000MOL0     H34968  -2.894   0.526   1.161  0.2005  0.8851 -0.2973
 1000MOL0     H34969  -2.913   0.667   1.268  2.4801  0.2579 -0.0878
 1000MOL0     H34970  -2.997   0.705   0.977  0.9968 -0.2308  0.4910
 1000MOL0     H34971  -3.009   0.819   1.099  0.7342 -0.2995  1.1093
 1000MOL0     H34972  -3.129   0.535   1.137 -0.1190 -0.1610 -1.0682
 1000MOL0     H34973  -3.196   0.682   1.205 -2.3347 -1.4340 -1.2399
 1000MOL0     H34974  -3.204   0.627   0.903 -3.0365  0.4295 -1.7012
 1000MOL0     H34975  -3.242   0.773   1.000 -1.9666  0.6176  1.4190
 1000MOL0     H34976  -3.455   0.660   0.935 -2.3335  2.1065  2.5118
 1000MOL0     H34977  -3.390   0.514   1.022  0.2460  0.1207 -2.2563
 1000MOL0     H34978  -3.423   0.788   1.166  0.0687 -0.2714 -1.1168
 1000MOL0     H34979  -3.422   0.627   1.232 -0.6835  0.7257  0.7934
 1000MOL0     H34980  -3.642   0.768   1.057  0.4100 -0.7445 -2.0149
 1000MOL0     H34981  -3.639   0.726   1.227 -0.4987  1.5387 -1.5887
 1000MOL0     H34982  -2.576   0.451   0.908  0.1274 -0.9655  0.2204
 1000MOL0     H34983  -2.347   0.451   0.852 -2.2167 -1.7684  0.0938
 1000MOL0     H34984  -2.006   0.817   0.819 -1.1870 -0.9807  1.1479
 1000MOL0     H34985  -1.785   0.904   0.824  0.6964  0.2478 -1.4022
 1000MOL0     H34986   0.200   0.741   0.634 -1.4858  0.0635 -0.8456
 1000MOL0     H34987   0.423   0.842   0.599  0.8538  0.3240  0.1712
 1000MOL0     H34988   0.911   0.663   0.413 -1.2045 -0.9251  0.5895
 1000MOL0     H34989   1.109   0.771   0.462 -2.6541 -3.0498 -2.4103
 1000MOL0     H34990   1.284   0.940   0.569 -0.1960  1.6570  1.6754
 1000MOL0     H34991   1.305   0.940   0.392  1.9213 -0.4587  1.0395
 1000MOL0     H34992   1.483   1.065   0.490 -0.7396 -2.8532 -1.3701
 1000MOL0     H34993   1.373   1.173   0.581  1.7923  0.4863 -0.3746
 1000MOL0     H34994   1.293   1.285   0.388 -0.1165  0.5097 -2.1699
 1000MOL0     H34995   1.352   1.166   0.277 -0.4366  0.1035  0.3477
 1000MOL0     H34996   1.536   1.347   0.459 -1.6195  1.1706  0.1184
 1000MOL0     H34997   1.497   1.389   0.295  1.2632  2.6434  1.9981
 1000MOL0     H34998   1.811   1.188   0.189 -0.6324 -1.4076 -0.4657
 1000MOL0     H34999   0.888   1.152   0.437 -2.2150 -0.6438  0.7840
 1000MOL0     H35000   0.702   1.032   0.388 -0.1144 -1.2491 -3.0606
 1001MOL0     O35001   1.898  10.631   1.943  0.0313  0.7693 -0.1431
 1001MOL0     C35002   1.916  10.505   1.947  0.3352 -1.0135 -0.7397
 1001MOL0     O35003   1.818  10.412   1.961 -0.7152  0.0859 -0.4851
 1001MOL0     C35004   1.692  10.451   1.942 -0.3123 -0.4782 -0.2808
 1001MOL0     C35005   1.632  10.550   2.021  0.4876  0.0686  0.3583
 1001MOL0     C35006   1.512  10.604   1.979  0.3845 -0.6090 -0.4677
 1001MOL0     C35007   1.445  10.548   1.869  0.8207  0.6198 -0.0101
 1001MOL0     O35008   1.315  10.577   1.833  0.2282 -0.5472  0.5206
 1001MOL0     C35009   1.303  10.663   1.724 -0.6070  0.2392 -0.0139
 1001MOL0     C35010   1.327  10.812   1.759  0.7929  0.1911  0.3553
 1001MOL0     C35011   1.201  10.876   1.830 -0.1988  0.1960  0.7865
 1001MOL0     C35012   1.145  10.797   1.946  0.8126 -0.1516 -0.2792
 1001MOL0     C35013   1.028  10.883   2.004  0.0306 -0.3775 -1.5464
 1001MOL0     C35014   0.930  10.806   2.096  0.9457  0.5539  0.4388
 1001MOL0     C35015   0.803  10.884   2.134 -0.0237 -0.5770  0.0103
 1001MOL0     C35016   0.698  10.796   2.209 -0.5993 -0.6797 -0.3601
 1001MOL0     N35017   0.579  10.874   2.256 -0.5677  0.2435  0.3702
 1001MOL0     C35018   0.478  10.910   2.176 -0.2134 -0.4012 -0.4867
 1001MOL0     C35019   0.376  10.947   2.250 -0.0694 -0.5364  0.0185
 1001MOL0     C35020   0.235  10.973   2.192 -0.4147  0.5380 -0.1059
 1001MOL0     C35021   0.232  11.113   2.118 -0.4679 -0.1851  0.5130
 1001MOL0     C35022   0.282  11.233   2.185 -0.2223  0.8935 -0.1026
 1001MOL0     C35023   0.194  11.275   2.302 -0.9406  0.0273 -0.1994
 1001MOL0     O35024   0.064  11.324   2.251 -0.2847  0.2743 -0.7476
 1001MOL0     C35025   0.052  11.449   2.195 -0.7161  0.1293 -0.8107
 1001MOL0     C35026  -0.073  11.492   2.155  0.4113  0.7442  0.0663
 1001MOL0     C35027  -0.092  11.622   2.113  0.1911  0.2974 -0.4172
 1001MOL0     C35028  -0.234  11.666   2.067  0.8359 -0.8393 -0.5130
 1001MOL0     C35029   0.023  11.712   2.102 -0.1406 -0.2407  0.6675
 1001MOL0     C35030   0.008  11.857   2.079 -0.2545  0.5709  0.3391
 1001MOL0     O35031   0.125  11.929   2.047  0.4993  0.2113  0.6180
 1001MOL0     C35032   0.106  12.048   1.982 -0.1105  0.5501 -0.3667
 1001MOL0     C35033   0.034  12.056   1.860 -0.4037 -1.2233  0.4899
 1001MOL0     C35034   0.017  12.180   1.802  0.2122 -0.2354  0.5144
 1001MOL0     C35035   0.073  12.294   1.857  0.2846  0.0275  0.0577
 1001MOL0     O35036   0.050  12.408   1.781 -0.2259  0.3242  0.4502
 1001MOL0     C35037   0.071  12.534   1.851 -0.6271  0.5462 -0.3824
 1001MOL0     C35038   0.024  12.649   1.756 -0.5559 -0.5544 -0.3578
 1001MOL0     C35039  -0.109  12.621   1.685  0.5068  0.2242 -0.6039
 1001MOL0     C35040  -0.223  12.567   1.770  0.4679 -0.3536 -0.2728
 1001MOL0     C35041  -0.356  12.579   1.688 -0.4624  0.8065 -0.7425
 1001MOL0     C35042  -0.441  12.446   1.694 -0.0226  0.2221 -0.7374
 1001MOL0     C35043  -0.374  12.327   1.625  0.0523  0.1885 -0.0588
 1001MOL0     C35044  -0.456  12.203   1.617 -0.9408  0.4039 -0.5459
 1001MOL0    Cl35045  -0.598  12.224   1.518 -0.1145 -0.3360  0.3028
 1001MOL0     C35046   0.154  12.290   1.963 -0.7683 -0.3725  0.6516
 1001MOL0     C35047   0.166  12.167   2.029 -0.0624  0.8097  0.3901
 1001MOL0     O35048  -0.094  11.916   2.118  0.1142 -0.1612  0.5836
 1001MOL0     C35049   0.148  11.662   2.138  0.4963  0.0648  0.0492
 1001MOL0     C35050   0.164  11.539   2.191 -0.1652 -0.2264  0.2984
 1001MOL0     N35051   0.419  10.944   2.379 -0.0266 -0.0890 -0.0995
 1001MOL0     N35052   0.539  10.902   2.385 -0.8201  0.7276  0.0255
 1001MOL0     C35053   1.499  10.434   1.799  0.0287  0.0311 -0.2114
 1001MOL0     C35054   1.626  10.385   1.835  0.0403 -0.3339 -0.0388
 1001MOL0     C35055   2.048  10.454   1.971 -0.8968  0.0432 -0.2024
 1001MOL0     C35056   2.079  10.320   1.990  0.7049 -1.0802  0.4402
 1001MOL0     C35057   2.209  10.278   2.018 -0.7592  0.2472 -0.1499
 1001MOL0     C35058   2.317  10.363   2.032  0.6734  0.1880 -0.3858
 1001MOL0     O35059   2.436  10.318   2.072 -0.0460  0.0061  0.1726
 1001MOL0     C35060   2.530  10.407   2.135 -0.1381 -0.0609  0.2899
 1001MOL0     C35061   2.500  10.420   2.291  0.4722  0.1990 -0.7159
 1001MOL0     C35062   2.619  10.493   2.357  0.6239 -0.3948 -0.1334
 1001MOL0     C35063   2.617  10.477   2.513  0.4933 -0.7383  0.3278
 1001MOL0     C35064   2.680  10.349   2.551  0.3955 -0.4549  0.6112
 1001MOL0     C35065   2.724  10.237   2.579  0.3835  0.3875  0.5332
 1001MOL0     C35066   2.278  10.501   2.040  0.1740 -0.6144 -0.0038
 1001MOL0     C35067   2.157  10.548   2.001 -0.0414 -0.7245  1.2908
 1001MOL0     H35068   1.679  10.610   2.098  3.4416  0.8120 -1.8331
 1001MOL0     H35069   1.471  10.693   2.025 -0.3049  1.0639 -3.9577
 1001MOL0     H35070   1.363  10.623   1.642  1.2555 -1.6306  2.1220
 1001MOL0     H35071   1.199  10.648   1.692 -0.4549  0.4369 -0.6188
 1001MOL0     H35072   1.424  10.823   1.808  1.9821 -1.1164 -1.5333
 1001MOL0     H35073   1.343  10.859   1.661  0.3351  2.3358  1.2551
 1001MOL0     H35074   1.226  10.977   1.861 -0.3610  0.8161 -1.0044
 1001MOL0     H35075   1.124  10.900   1.755  2.4985 -2.0018 -3.0145
 1001MOL0     H35076   1.107  10.703   1.905 -0.7800  0.4499 -0.2620
 1001MOL0     H35077   1.209  10.764   2.028 -1.4622 -2.8450  0.5678
 1001MOL0     H35078   1.078  10.960   2.064  1.2635 -1.6030 -0.9692
 1001MOL0     H35079   0.972  10.934   1.924 -0.2700  0.6206 -0.7333
 1001MOL0     H35080   0.913  10.710   2.046  0.7621  2.2458 -3.0811
 1001MOL0     H35081   0.984  10.774   2.185 -0.7021 -1.1897  0.8883
 1001MOL0     H35082   0.816  10.974   2.196  0.6356  0.3736 -1.4434
 1001MOL0     H35083   0.755  10.917   2.041  0.0547 -2.4356 -0.7284
 1001MOL0     H35084   0.741  10.737   2.291 -1.2341 -1.9705 -0.9206
 1001MOL0     H35085   0.655  10.715   2.148 -4.2532 -0.1518  1.2208
 1001MOL0     H35086   0.454  10.889   2.072 -1.9702  0.5900 -0.3332
 1001MOL0     H35087   0.206  10.894   2.122  1.7966  2.2238 -3.1814
 1001MOL0     H35088   0.163  10.981   2.274  1.1041 -1.0764  1.4904
 1001MOL0     H35089   0.129  11.126   2.083 -1.0452 -2.2613  1.3225
 1001MOL0     H35090   0.301  11.095   2.035  1.9133 -0.4546  2.4443
 1001MOL0     H35091   0.293  11.318   2.116  1.7694  0.0599 -0.8913
 1001MOL0     H35092   0.381  11.203   2.221 -1.7576 -1.0280  2.8983
 1001MOL0     H35093   0.250  11.347   2.361  0.2071  0.1790 -1.4134
 1001MOL0     H35094   0.177  11.187   2.364 -0.7940  0.1137 -0.0374
 1001MOL0     H35095  -0.149  11.415   2.144  0.5407  0.4876  0.8810
 1001MOL0     H35096  -0.302  11.581   2.072  1.1755 -1.1030  4.0075
 1001MOL0     H35097  -0.271  11.740   2.139  2.4682 -1.1573  0.7269
 1001MOL0     H35098  -0.235  11.708   1.966  1.6864 -3.9557 -1.9253
 1001MOL0     H35099  -0.002  11.958   1.830 -0.3135 -2.3504  3.7042
 1001MOL0     H35100  -0.029  12.198   1.705 -0.4283  4.6112  1.4737
 1001MOL0     H35101   0.025  12.522   1.949  2.5519 -0.2649  1.1512
 1001MOL0     H35102   0.178  12.558   1.856 -0.6277  1.7678 -3.7781
 1001MOL0     H35103   0.023  12.749   1.799  0.2221  1.4592 -4.5625
 1001MOL0     H35104   0.099  12.669   1.679 -0.7221  3.1168  0.2682
 1001MOL0     H35105  -0.078  12.549   1.609 -0.6081 -1.2240  0.2645
 1001MOL0     H35106  -0.129  12.723   1.649  2.2126 -0.0264 -2.4281
 1001MOL0     H35107  -0.212  12.461   1.796 -0.1143 -0.0335  1.3554
 1001MOL0     H35108  -0.221  12.622   1.864  0.2190 -3.3732  1.6315
 1001MOL0     H35109  -0.334  12.607   1.585 -1.1599 -2.8765 -2.0325
 1001MOL0     H35110  -0.423  12.657   1.725 -1.9069  0.3803 -2.3379
 1001MOL0     H35111  -0.466  12.436   1.800 -1.8748  0.2378 -1.1378
 1001MOL0     H35112  -0.540  12.463   1.652 -0.0513  1.3585 -0.2245
 1001MOL0     H35113  -0.282  12.293   1.674 -0.1044  0.0513  0.1462
 1001MOL0     H35114  -0.344  12.363   1.527 -1.0935  1.2075 -0.0477
 1001MOL0     H35115  -0.475  12.169   1.720  1.2085  1.0251  0.1188
 1001MOL0     H35116  -0.409  12.115   1.573 -1.0161 -1.0421  2.0177
 1001MOL0     H35117   0.196  12.375   2.016 -0.5137 -1.1349  1.7131
 1001MOL0     H35118   0.225  12.156   2.119  2.2745  0.0738 -1.1251
 1001MOL0     H35119   0.234  11.728   2.129  0.1468  0.5268  0.0478
 1001MOL0     H35120   0.267  11.522   2.219  0.0085  0.0143 -0.1811
 1001MOL0     H35121   1.456  10.388   1.710  2.1446  0.6822 -1.6439
 1001MOL0     H35122   1.663  10.298   1.781  2.7233 -0.9543  2.5308
 1001MOL0     H35123   2.003  10.251   1.954 -1.0890  1.0130 -0.0146
 1001MOL0     H35124   2.237  10.173   2.004 -1.9650 -0.0340 -0.5828
 1001MOL0     H35125   2.625  10.355   2.120  0.3132  0.8522 -0.0789
 1001MOL0     H35126   2.540  10.505   2.088 -0.2601 -0.9257 -1.6482
 1001MOL0     H35127   2.488  10.320   2.334 -0.3487  1.3978  2.0801
 1001MOL0     H35128   2.406  10.475   2.303  0.7256  0.9817 -2.0602
 1001MOL0     H35129   2.604  10.601   2.348  3.7686 -0.0204 -2.4102
 1001MOL0     H35130   2.719  10.485   2.312  1.1003 -1.1251  0.9839
 1001MOL0     H35131   2.513  10.493   2.542 -0.1923  0.9573 -2.6711
 1001MOL0     H35132   2.681  10.550   2.564  1.4239 -1.6986  0.5625
 1001MOL0     H35133   2.761  10.142   2.613 -1.5271 -0.7467 -0.3698
 1001MOL0     H35134   2.353  10.577   2.058 -1.4274  0.9199  0.4660
 1001MOL0     H35135   2.141  10.654   1.986  1.8230 -0.5763 -0.0105
 1002MOL0     O35136   2.318  10.363  11.269  0.5326  0.0779  0.1073
 1002MOL0     C35137   2.258  10.409  11.174  0.3277 -0.9787 -0.3383
 1002MOL0     O35138   2.142  10.484  11.182 -0.1458 -0.8372  0.2960
 1002MOL0     C35139   2.035  10.457  11.267 -0.1375  0.5705 -0.4900
 1002MOL0     C35140   2.039  10.360  11.369 -0.1621  0.0052  0.1791
 1002MOL0     C35141   1.927  10.330  11.450  0.3176  0.0588 -0.0106
 1002MOL0     C35142   1.801  10.380  11.406 -0.0718 -0.2754 -0.3819
 1002MOL0     O35143   1.683  10.350  11.472 -0.5526 -0.6695  0.3868
 1002MOL0     C35144   1.665  10.222  11.533  0.8888  0.5832 -0.5549
 1002MOL0     C35145   1.520  10.217  11.582 -0.0636  0.0488 -1.3027
 1002MOL0     C35146   1.423  10.216  11.465 -0.8974 -0.0867  0.2495
 1002MOL0     C35147   1.287  10.260  11.517  0.6271 -0.5849 -0.3128
 1002MOL0     C35148   1.175  10.247  11.419  0.1053 -0.2719  0.3083
 1002MOL0     C35149   1.033  10.293  11.450  0.2894  0.0582  0.1400
 1002MOL0     C35150   0.991  10.217  11.581  0.6989  0.1156  0.4924
 1002MOL0     C35151   0.851  10.256  11.625 -0.1850 -0.3492 -0.4613
 1002MOL0     N35152   0.749  10.264  11.516  0.1677  0.4296  1.0189
 1002MOL0     C35153   0.671  10.158  11.462 -0.2429  0.1616 -0.1478
 1002MOL0     C35154   0.601  10.214  11.359 -0.1550 -0.6439  0.4058
 1002MOL0     C35155   0.504  10.152  11.277  0.3010  0.7013  0.6973
 1002MOL0     C35156   0.395  10.095  11.361  0.1748 -0.4567 -0.4145
 1002MOL0     C35157   0.266  10.075  11.272  0.3571 -0.4889 -0.2392
 1002MOL0     C35158   0.149  10.025  11.362  0.8598  0.2173 -1.1999
 1002MOL0     O35159   0.094  10.132  11.445  0.1391 -0.0162 -0.4205
 1002MOL0     C35160  -0.003  10.206  11.385 -0.4995  0.1394 -0.5039
 1002MOL0     C35161  -0.024  10.238  11.250 -0.0820 -0.0426  0.0225
 1002MOL0     C35162  -0.146  10.303  11.222 -0.5620 -0.4255  0.2599
 1002MOL0     C35163  -0.159  10.340  11.075 -0.4028  0.1067 -0.0908
 1002MOL0     C35164  -0.239  10.338  11.321 -0.0842  0.0357  0.1226
 1002MOL0     C35165  -0.370  10.414  11.296 -0.4168 -0.1639  0.1869
 1002MOL0     O35166  -0.468  10.413  11.395 -0.2371  0.1210  0.3731
 1002MOL0     C35167  -0.585  10.483  11.377  0.8365 -0.9166 -0.0261
 1002MOL0     C35168  -0.666  10.452  11.264 -0.9000  0.1046 -0.1651
 1002MOL0     C35169  -0.801  10.501  11.249 -0.1517 -1.5122  0.3825
 1002MOL0     C35170  -0.843  10.601  11.338  0.7376 -0.4713 -0.0135
 1002MOL0     O35171  -0.969  10.661  11.310  0.1629 -0.6574  0.2347
 1002MOL0     C35172  -0.997  10.778  11.388  0.2204 -0.3470  0.6356
 1002MOL0     C35173  -1.143  10.817  11.355 -0.3564 -0.3394  0.0368
 1002MOL0     C35174  -1.238  10.700  11.388  0.2437  1.1492  0.2204
 1002MOL0     C35175  -1.374  10.757  11.413  0.8122 -0.6412  0.2473
 1002MOL0     C35176  -1.472  10.663  11.481  0.4342  0.1299  0.5204
 1002MOL0     C35177  -1.617  10.708  11.474  0.2496  1.0952 -0.0968
 1002MOL0     C35178  -1.706  10.612  11.552 -0.6418 -0.0933  0.1397
 1002MOL0     C35179  -1.849  10.676  11.546  0.1376  0.2686 -0.4620
 1002MOL0    Cl35180  -1.959  10.549  11.612 -0.4521 -0.2093 -0.2180
 1002MOL0     C35181  -0.749  10.644  11.442  0.0797  0.8786 -0.7379
 1002MOL0     C35182  -0.637  10.569  11.475 -0.2484  0.4038 -0.2101
 1002MOL0     O35183  -0.391  10.474  11.192  0.3412 -0.2893  0.4182
 1002MOL0     C35184  -0.204  10.305  11.454  0.9018 -0.4100 -0.0599
 1002MOL0     C35185  -0.090  10.240  11.489  0.3135  0.0003  0.4211
 1002MOL0     N35186   0.638  10.351  11.351 -0.3788  0.8246  0.2443
 1002MOL0     N35187   0.718  10.378  11.452  0.1471 -0.1239 -0.3784
 1002MOL0     C35188   1.794  10.460  11.295 -0.1577  0.4062  0.3498
 1002MOL0     C35189   1.913  10.509  11.230  0.2276 -0.0207 -0.7021
 1002MOL0     C35190   2.325  10.411  11.039  0.4594 -0.6760  0.0226
 1002MOL0     C35191   2.261  10.453  10.921 -0.8460  0.5246  0.0145
 1002MOL0     C35192   2.338  10.455  10.803  0.2454 -0.0664 -0.0925
 1002MOL0     C35193   2.471  10.409  10.800  0.1797  0.1611 -1.4397
 1002MOL0     O35194   2.541  10.428  10.684  0.5916 -0.1625  0.1442
 1002MOL0     C35195   2.681  10.402  10.675 -0.0445 -0.1348 -0.7750
 1002MOL0     C35196   2.723  10.392  10.527  0.7459  0.3594 -0.1023
 1002MOL0     C35197   2.867  10.426  10.502 -0.8893 -0.0125 -0.0532
 1002MOL0     C35198   2.958  10.313  10.561 -0.7516 -0.2333  0.9271
 1002MOL0     C35199   3.104  10.312  10.529  0.8857 -1.4871  0.3718
 1002MOL0     C35200   3.223  10.298  10.523  0.1331 -0.2344  0.3910
 1002MOL0     C35201   2.529  10.370  10.919  0.1634  0.6492 -1.0371
 1002MOL0     C35202   2.456  10.362  11.036 -0.2001 -0.0371 -0.3011
 1002MOL0     H35203   2.122  10.295  11.395 -0.5237  0.2316  2.1077
 1002MOL0     H35204   1.930  10.257  11.529  2.1293 -0.2131 -0.2821
 1002MOL0     H35205   1.671  10.142  11.458 -2.7735 -1.2975  0.8830
 1002MOL0     H35206   1.727  10.192  11.618  0.1916  0.3188 -0.1267
 1002MOL0     H35207   1.494  10.133  11.647 -0.6860  2.8241  2.3411
 1002MOL0     H35208   1.502  10.302  11.648  0.9249 -0.1386 -0.7774
 1002MOL0     H35209   1.456  10.291  11.393 -0.8655 -0.2083  0.1344
 1002MOL0     H35210   1.425  10.116  11.419 -1.0411  0.5214 -1.1044
 1002MOL0     H35211   1.275  10.199  11.607  0.7099 -0.6667 -0.3566
 1002MOL0     H35212   1.280  10.367  11.539  0.1415  0.4020 -4.3999
 1002MOL0     H35213   1.202  10.307  11.332 -1.0694 -0.7987 -0.4376
 1002MOL0     H35214   1.167  10.144  11.382  0.7847 -1.0609  2.2417
 1002MOL0     H35215   1.038  10.399  11.478 -0.6889 -0.2133  1.4214
 1002MOL0     H35216   0.977  10.277  11.358  1.2678 -3.1520 -0.0243
 1002MOL0     H35217   1.010  10.110  11.573  0.8714 -0.3246  4.6242
 1002MOL0     H35218   1.061  10.244  11.660 -0.4277  2.4793  0.7852
 1002MOL0     H35219   0.845  10.351  11.680 -2.1493 -1.5783  1.5973
 1002MOL0     H35220   0.806  10.184  11.694  0.9085 -2.4831 -1.8626
 1002MOL0     H35221   0.669  10.062  11.513  0.1601  1.1365  1.8065
 1002MOL0     H35222   0.466  10.238  11.222 -0.3395  0.3028  0.5006
 1002MOL0     H35223   0.542  10.075  11.208  1.2988  0.5169  1.4255
 1002MOL0     H35224   0.374  10.166  11.441  4.4432  1.8426 -1.0291
 1002MOL0     H35225   0.422  10.000  11.407 -1.5530 -0.8433 -0.1486
 1002MOL0     H35226   0.284  10.016  11.182  0.1985  1.5374 -1.6763
 1002MOL0     H35227   0.235  10.176  11.244 -1.5730 -0.6810  1.0324
 1002MOL0     H35228   0.183   9.944  11.427 -1.2529 -0.7419 -1.2281
 1002MOL0     H35229   0.075   9.981  11.295  1.0199  1.1275 -1.9835
 1002MOL0     H35230   0.037  10.204  11.167 -0.6704  0.7375 -0.7447
 1002MOL0     H35231  -0.159  10.449  11.068 -0.5070  0.0267 -1.6769
 1002MOL0     H35232  -0.070  10.307  11.020 -1.1180 -0.9962 -0.6351
 1002MOL0     H35233  -0.251  10.299  11.030 -0.6735  1.7804 -1.1547
 1002MOL0     H35234  -0.634  10.369  11.201 -2.4836 -1.6882  1.2537
 1002MOL0     H35235  -0.863  10.454  11.173 -0.6094  0.4285 -0.5228
 1002MOL0     H35236  -0.986  10.749  11.493  1.9066 -0.5535  0.4331
 1002MOL0     H35237  -0.927  10.856  11.356  2.0501 -2.8339 -1.9098
 1002MOL0     H35238  -1.167  10.917  11.394  1.7858  0.8469 -1.4310
 1002MOL0     H35239  -1.137  10.835  11.247  3.3396 -4.5784 -0.7210
 1002MOL0     H35240  -1.217  10.632  11.471 -2.0811 -1.5700 -1.2300
 1002MOL0     H35241  -1.235  10.639  11.297 -0.9960 -0.7363  1.3814
 1002MOL0     H35242  -1.358  10.846  11.474 -1.2187  2.3287 -3.2066
 1002MOL0     H35243  -1.413  10.799  11.320 -0.5488  1.4971  1.6915
 1002MOL0     H35244  -1.440  10.648  11.584 -1.0736  0.2230  1.0258
 1002MOL0     H35245  -1.469  10.574  11.418 -0.5089  1.3791 -1.3997
 1002MOL0     H35246  -1.618  10.805  11.524  1.2949  1.4150 -0.6629
 1002MOL0     H35247  -1.633  10.714  11.366 -0.4121  2.2816  0.0502
 1002MOL0     H35248  -1.660  10.613  11.652  0.7924 -1.1545 -0.4785
 1002MOL0     H35249  -1.694  10.517  11.501 -0.1524  0.3778 -0.6360
 1002MOL0     H35250  -1.875  10.709  11.445 -3.0350 -0.2393  0.0581
 1002MOL0     H35251  -1.854  10.769  11.603 -0.0607 -0.7470  1.2522
 1002MOL0     H35252  -0.781  10.709  11.523 -2.2490 -3.4203  2.1490
 1002MOL0     H35253  -0.575  10.591  11.561 -3.1812 -1.7124  2.6474
 1002MOL0     H35254  -0.278  10.331  11.529  1.7941  0.2854  0.5940
 1002MOL0     H35255  -0.064  10.218  11.592 -1.8120 -0.3063  0.9429
 1002MOL0     H35256   1.696  10.498  11.268 -1.0075 -3.3559 -2.7677
 1002MOL0     H35257   1.917  10.577  11.145 -0.0632 -0.5705 -1.1623
 1002MOL0     H35258   2.161  10.495  10.918 -1.2268 -0.3803 -1.8632
 1002MOL0     H35259   2.280  10.496  10.721 -0.9618 -1.1478  0.1833
 1002MOL0     H35260   2.739  10.477  10.730  0.4349 -0.0396 -1.3984
 1002MOL0     H35261   2.707  10.306  10.720 -0.1470  0.8570  1.5871
 1002MOL0     H35262   2.660  10.455  10.464  1.5191  0.1085 -1.1537
 1002MOL0     H35263   2.708  10.285  10.507  0.4800  0.1612  1.1072
 1002MOL0     H35264   2.883  10.521  10.553  1.6142 -1.6352  2.4552
 1002MOL0     H35265   2.878  10.454  10.397 -0.5102  1.6187  0.4048
 1002MOL0     H35266   2.918  10.214  10.537  2.9596 -1.7230  0.2600
 1002MOL0     H35267   2.956  10.326  10.670  3.4553  1.3540  1.0122
 1002MOL0     H35268   3.329  10.283  10.517  0.4508  2.0532 -5.0528
 1002MOL0     H35269   2.634  10.340  10.927  0.1090  0.8807  3.9456
 1002MOL0     H35270   2.499  10.322  11.127 -1.4208 -2.5028 -0.7280
 1003MOL0     O35271   4.024   8.488  10.275 -0.1524  0.4430  0.1181
 1003MOL0     C35272   4.127   8.424  10.242  0.3299 -0.4613 -0.0371
 1003MOL0     O35273   4.161   8.305  10.293 -0.5344  0.1269  0.4169
 1003MOL0     C35274   4.092   8.234  10.384  0.2258  0.2521  0.9161
 1003MOL0     C35275   3.952   8.210  10.372 -0.3563 -0.4504 -0.2504
 1003MOL0     C35276   3.887   8.126  10.469  0.6084  0.2259  0.0544
 1003MOL0     C35277   3.958   8.058  10.571  0.6870 -0.8443 -0.5503
 1003MOL0     O35278   3.880   7.970  10.657 -0.4366 -0.5255 -0.0805
 1003MOL0     C35279   3.939   7.867  10.738 -0.7740 -0.3722  0.4999
 1003MOL0     C35280   3.822   7.796  10.810  0.2370  0.3214 -0.0365
 1003MOL0     C35281   3.724   7.739  10.704  0.3825  0.0614 -0.4670
 1003MOL0     C35282   3.591   7.709  10.767  0.0238 -0.1521  0.1885
 1003MOL0     C35283   3.470   7.680  10.679  0.2739 -0.4888 -0.2140
 1003MOL0     C35284   3.410   7.803  10.613  0.4032  0.0748 -0.2173
 1003MOL0     C35285   3.288   7.751  10.521 -0.7926  0.0302  0.7110
 1003MOL0     C35286   3.194   7.861  10.475  0.4155  0.1393  0.4757
 1003MOL0     N35287   3.260   7.962  10.392 -0.3870  0.3280 -0.5998
 1003MOL0     C35288   3.326   8.083  10.434  1.2613  1.0830  0.0751
 1003MOL0     C35289   3.349   8.152  10.321 -0.0021  0.7069 -0.1805
 1003MOL0     C35290   3.412   8.287  10.324  0.1874 -1.2193  1.4038
 1003MOL0     C35291   3.559   8.294  10.377 -1.1694  0.1394 -0.0531
 1003MOL0     C35292   3.628   8.431  10.389 -0.2347 -0.3266 -0.1314
 1003MOL0     C35293   3.674   8.501  10.266 -0.2707  0.7235  0.0811
 1003MOL0     O35294   3.576   8.519  10.169  0.4161  0.1269 -0.1722
 1003MOL0     C35295   3.590   8.601  10.056 -0.0138  0.2231 -0.6525
 1003MOL0     C35296   3.709   8.674  10.027 -0.4893  1.0197 -0.0141
 1003MOL0     C35297   3.712   8.756   9.915  1.0904  0.3564  0.8513
 1003MOL0     C35298   3.837   8.833   9.901 -0.9508  0.8994  0.2298
 1003MOL0     C35299   3.596   8.772   9.827 -0.1719  0.1831 -0.0265
 1003MOL0     C35300   3.576   8.870   9.715 -1.0118  1.5467 -0.1663
 1003MOL0     O35301   3.455   8.902   9.684 -0.5229  0.0993  1.5469
 1003MOL0     C35302   3.430   9.006   9.593 -0.8204 -1.1676  0.3148
 1003MOL0     C35303   3.419   9.138   9.639  0.5759 -0.4140  0.2227
 1003MOL0     C35304   3.407   9.242   9.551 -0.2245  0.2308  0.2151
 1003MOL0     C35305   3.404   9.221   9.410 -0.6767 -0.1995  0.4235
 1003MOL0     O35306   3.369   9.318   9.320 -0.3613  0.4506 -0.0868
 1003MOL0     C35307   3.338   9.451   9.357  0.6322 -0.3622  0.4150
 1003MOL0     C35308   3.461   9.534   9.407  1.0068  0.3398  1.1241
 1003MOL0     C35309   3.464   9.673   9.333  0.3741  0.1304 -0.9284
 1003MOL0     C35310   3.516   9.785   9.430 -0.5025 -0.1528 -0.3113
 1003MOL0     C35311   3.657   9.769   9.481 -0.0035  0.2693 -0.6629
 1003MOL0     C35312   3.774   9.778   9.376  0.6516 -0.3123  0.0628
 1003MOL0     C35313   3.908   9.805   9.446  0.6261  0.1304  0.4226
 1003MOL0     C35314   4.030   9.824   9.356  0.0443  0.3317  0.3741
 1003MOL0    Cl35315   4.169   9.885   9.452 -0.2049 -0.1103  0.0571
 1003MOL0     C35316   3.415   9.095   9.363 -0.6412 -0.9897 -0.5062
 1003MOL0     C35317   3.425   8.982   9.456  0.6779 -0.2200  0.1750
 1003MOL0     O35318   3.680   8.908   9.659  0.1393 -0.0288  0.0259
 1003MOL0     C35319   3.483   8.690   9.862  0.2851  0.0243  0.0149
 1003MOL0     C35320   3.480   8.602   9.970 -0.7654 -0.2645  0.1125
 1003MOL0     N35321   3.296   8.078  10.215  0.0691 -0.7657  0.7806
 1003MOL0     N35322   3.243   7.965  10.261  0.0821  0.5897 -0.5297
 1003MOL0     C35323   4.097   8.090  10.585  1.1913 -0.4927 -0.5655
 1003MOL0     C35324   4.159   8.164  10.488 -0.0256 -0.9305  0.3893
 1003MOL0     C35325   4.219   8.502  10.150 -0.2265  0.0225  0.3697
 1003MOL0     C35326   4.355   8.462  10.149 -0.6062  0.0963  0.2989
 1003MOL0     C35327   4.438   8.526  10.057  0.8651 -0.7104 -0.3406
 1003MOL0     C35328   4.384   8.612   9.957  0.4781 -0.6320 -0.2852
 1003MOL0     O35329   4.456   8.666   9.858  0.8769  0.8069  0.6373
 1003MOL0     C35330   4.600   8.669   9.855 -0.5278  0.3358  0.3492
 1003MOL0     C35331   4.657   8.713   9.717  1.0087 -0.5554 -1.2343
 1003MOL0     C35332   4.660   8.863   9.692 -0.0536 -0.2561 -0.1401
 1003MOL0     C35333   4.669   8.889   9.536 -0.5723 -0.4753 -0.3821
 1003MOL0     C35334   4.706   9.031   9.521 -0.0371 -0.0958 -0.0031
 1003MOL0     C35335   4.739   9.151   9.513  0.3124  0.1171 -0.0966
 1003MOL0     C35336   4.251   8.653   9.963 -0.6005  0.5048  0.0344
 1003MOL0     C35337   4.169   8.600  10.058 -0.5167  0.4214 -0.7718
 1003MOL0     H35338   3.891   8.266  10.302 -2.1387 -1.6656  0.2648
 1003MOL0     H35339   3.779   8.114  10.460  0.7155 -1.0741  0.2511
 1003MOL0     H35340   3.999   7.796  10.681 -0.0336 -0.3820  1.2682
 1003MOL0     H35341   4.002   7.900  10.822  1.3409 -0.0209 -1.1361
 1003MOL0     H35342   3.862   7.707  10.860 -0.3331 -0.1671 -0.4419
 1003MOL0     H35343   3.776   7.866  10.880  1.1615 -0.8310  1.8064
 1003MOL0     H35344   3.710   7.817  10.629  0.7706  1.6167  1.0003
 1003MOL0     H35345   3.763   7.647  10.659 -0.7525 -0.3580 -0.6474
 1003MOL0     H35346   3.598   7.621  10.832 -3.2931 -2.6908 -2.5283
 1003MOL0     H35347   3.570   7.800  10.825  2.2442  0.6227 -0.1221
 1003MOL0     H35348   3.508   7.614  10.600 -1.8272 -1.5293 -0.4428
 1003MOL0     H35349   3.383   7.641  10.733  0.0541 -0.2532 -0.3902
 1003MOL0     H35350   3.366   7.880  10.677 -0.4743  0.8558 -1.6849
 1003MOL0     H35351   3.483   7.854  10.550  0.2372  1.3349  0.5677
 1003MOL0     H35352   3.332   7.706  10.432 -0.8175 -0.3809  0.9069
 1003MOL0     H35353   3.225   7.677  10.571 -0.3447 -3.1910 -3.0525
 1003MOL0     H35354   3.144   7.898  10.565  1.2624 -1.2697  1.5752
 1003MOL0     H35355   3.113   7.816  10.417  0.3905 -0.1002  0.6972
 1003MOL0     H35356   3.365   8.117  10.530 -0.6587 -0.4259  1.4545
 1003MOL0     H35357   3.403   8.318  10.220  0.8246  2.7531  2.3728
 1003MOL0     H35358   3.352   8.354  10.386 -0.1833 -2.2273  2.1755
 1003MOL0     H35359   3.621   8.237  10.307 -0.3683  1.5414 -0.5516
 1003MOL0     H35360   3.568   8.249  10.476  1.5326  0.1349 -0.2072
 1003MOL0     H35361   3.711   8.419  10.459 -0.1042 -0.2299 -0.2657
 1003MOL0     H35362   3.563   8.499  10.444  1.4435  0.7803  0.5760
 1003MOL0     H35363   3.745   8.434  10.216 -0.8293 -0.8387  1.2792
 1003MOL0     H35364   3.722   8.597  10.286 -0.5291  0.5613  1.5927
 1003MOL0     H35365   3.787   8.673  10.102 -1.3602  2.1288  0.9446
 1003MOL0     H35366   3.915   8.813   9.975  0.2701  1.5172 -0.8307
 1003MOL0     H35367   3.888   8.812   9.806  0.0787  0.2505  0.9008
 1003MOL0     H35368   3.825   8.941   9.914  0.6310  0.7762  3.8994
 1003MOL0     H35369   3.419   9.163   9.745 -1.2406  2.4798 -0.3471
 1003MOL0     H35370   3.409   9.340   9.599  1.9673  0.1254  0.4003
 1003MOL0     H35371   3.306   9.483   9.258 -0.5353 -3.2333 -0.2194
 1003MOL0     H35372   3.264   9.462   9.437 -0.3856  0.4359 -0.5980
 1003MOL0     H35373   3.437   9.551   9.512 -2.1040 -2.2214  0.9984
 1003MOL0     H35374   3.560   9.490   9.389  1.0289  1.6154 -2.8120
 1003MOL0     H35375   3.361   9.694   9.302  0.3267 -0.3942 -1.1337
 1003MOL0     H35376   3.521   9.654   9.242 -0.4144 -1.7543 -1.0760
 1003MOL0     H35377   3.513   9.880   9.377 -2.4343 -1.5654 -2.9681
 1003MOL0     H35378   3.448   9.789   9.515 -0.8048 -1.0180 -0.5053
 1003MOL0     H35379   3.657   9.679   9.544  0.5545  0.4384 -0.4176
 1003MOL0     H35380   3.674   9.859   9.542 -1.6741  0.1395  0.0738
 1003MOL0     H35381   3.788   9.679   9.331  1.3831 -0.7733  1.2624
 1003MOL0     H35382   3.758   9.844   9.290 -1.7698 -0.8091  0.0646
 1003MOL0     H35383   3.925   9.712   9.501 -0.8478 -0.3272  0.1336
 1003MOL0     H35384   3.899   9.890   9.513  0.5312  0.6987 -0.3011
 1003MOL0     H35385   4.013   9.901   9.280 -1.4894  0.6784  1.0299
 1003MOL0     H35386   4.061   9.738   9.295 -3.6698  0.5747 -2.1840
 1003MOL0     H35387   3.399   9.072   9.258  0.2339  0.3538 -0.9615
 1003MOL0     H35388   3.426   8.879   9.421 -0.0930 -0.1278 -0.1418
 1003MOL0     H35389   3.391   8.700   9.804  0.5034  0.7895 -0.2011
 1003MOL0     H35390   3.394   8.542   9.998 -1.1350  1.5233  3.2738
 1003MOL0     H35391   4.158   8.046  10.664 -0.1141  1.0451  1.4160
 1003MOL0     H35392   4.265   8.181  10.497 -0.4734  2.9630 -0.1079
 1003MOL0     H35393   4.385   8.377  10.210 -0.9771 -1.1005 -1.1208
 1003MOL0     H35394   4.545   8.506  10.054  1.4221  1.9479 -0.3204
 1003MOL0     H35395   4.625   8.741   9.933  0.7124  0.9698 -0.6069
 1003MOL0     H35396   4.632   8.565   9.866 -0.7290 -0.0302 -1.9992
 1003MOL0     H35397   4.594   8.673   9.637  0.1509  0.8066 -1.2719
 1003MOL0     H35398   4.764   8.692   9.707  1.5308  0.3486  1.6181
 1003MOL0     H35399   4.741   8.916   9.743 -2.3519  2.4870  0.9357
 1003MOL0     H35400   4.571   8.913   9.730  1.7603  1.5373  2.0494
 1003MOL0     H35401   4.571   8.880   9.489 -2.2277  0.8367  2.5088
 1003MOL0     H35402   4.748   8.824   9.498  3.3719  3.8033 -0.4482
 1003MOL0     H35403   4.767   9.253   9.495  0.6873 -0.3203 -2.3363
 1003MOL0     H35404   4.207   8.711   9.883 -4.4359  0.1584  1.7167
 1003MOL0     H35405   4.061   8.611  10.055 -0.8765 -2.0208  0.4102
 1004MOL0     O35406   4.377   7.348   4.097 -0.7063  0.7424  0.0921
 1004MOL0     C35407   4.407   7.316   4.215  0.3681 -0.3057  0.4952
 1004MOL0     O35408   4.315   7.294   4.312 -1.0034  0.1489 -0.6901
 1004MOL0     C35409   4.201   7.360   4.292  0.7222 -0.8726  0.9517
 1004MOL0     C35410   4.088   7.289   4.239 -0.4624  0.2391  0.1433
 1004MOL0     C35411   3.963   7.352   4.220  0.0299  0.0533 -1.4452
 1004MOL0     C35412   3.945   7.479   4.271  0.1154 -0.0736  0.0061
 1004MOL0     O35413   3.820   7.529   4.274  0.1541  0.5001  0.1378
 1004MOL0     C35414   3.781   7.655   4.336  0.4130 -0.5573 -0.1727
 1004MOL0     C35415   3.633   7.690   4.319  0.7333  0.1772  0.2618
 1004MOL0     C35416   3.549   7.570   4.339  0.1289 -0.4869  0.3514
 1004MOL0     C35417   3.392   7.594   4.344 -0.4547  0.9586  0.1658
 1004MOL0     C35418   3.340   7.659   4.470  0.5625  0.0548 -0.1506
 1004MOL0     C35419   3.187   7.702   4.462 -0.1047  0.3979  1.5032
 1004MOL0     C35420   3.128   7.765   4.586  0.1190  0.4188  0.6658
 1004MOL0     C35421   2.979   7.790   4.590  0.3809  0.8928 -0.1654
 1004MOL0     N35422   2.946   7.867   4.700  0.3829 -0.1214 -0.2693
 1004MOL0     C35423   2.902   7.816   4.817  0.1183  0.0735 -0.6631
 1004MOL0     C35424   2.849   7.922   4.885 -0.7965 -0.0614 -0.2508
 1004MOL0     C35425   2.771   7.916   5.007  0.7283 -0.6984 -0.7536
 1004MOL0     C35426   2.621   7.961   4.994  0.5325 -0.2678 -0.5937
 1004MOL0     C35427   2.542   7.837   4.963  0.1962 -0.4989  0.5787
 1004MOL0     C35428   2.398   7.877   4.930 -0.3072  0.7686 -0.5800
 1004MOL0     O35429   2.330   7.764   4.873  0.0779 -0.5812 -0.1542
 1004MOL0     C35430   2.196   7.789   4.852 -0.3160  0.5370  0.5723
 1004MOL0     C35431   2.153   7.760   4.723  0.1646 -0.5401 -0.5983
 1004MOL0     C35432   2.019   7.794   4.686  0.1373  0.0892  0.5786
 1004MOL0     C35433   1.975   7.749   4.546 -0.1178 -0.4711 -0.0684
 1004MOL0     C35434   1.928   7.849   4.782 -0.4900  0.2253  0.5047
 1004MOL0     C35435   1.791   7.883   4.752 -0.3140  0.2228 -0.0550
 1004MOL0     O35436   1.693   7.844   4.844 -0.7589 -0.1782  0.4821
 1004MOL0     C35437   1.567   7.867   4.796 -0.0124  1.1736 -0.4374
 1004MOL0     C35438   1.484   7.954   4.860  0.9860 -0.3800 -0.2225
 1004MOL0     C35439   1.349   7.970   4.838  0.1427  0.7521  1.0349
 1004MOL0     C35440   1.289   7.874   4.754 -0.3250 -0.2647  0.4810
 1004MOL0     O35441   1.156   7.899   4.740  0.0927  0.0345 -0.4039
 1004MOL0     C35442   1.085   7.820   4.642  0.2262  0.0684  0.5003
 1004MOL0     C35443   0.951   7.880   4.616  0.5876 -0.1469  0.1356
 1004MOL0     C35444   0.958   7.986   4.499  0.7328  0.1942 -0.1904
 1004MOL0     C35445   0.815   8.001   4.460  0.4538  0.1995  0.7489
 1004MOL0     C35446   0.761   8.132   4.508 -0.1133 -0.5165 -0.4594
 1004MOL0     C35447   0.608   8.156   4.489 -0.6218 -0.5995 -0.4429
 1004MOL0     C35448   0.532   8.084   4.591 -0.0560  0.2009  0.9076
 1004MOL0     C35449   0.383   8.093   4.585 -0.0536 -0.3927 -0.3294
 1004MOL0    Cl35450   0.318   7.961   4.485 -0.5154 -0.5555  0.0153
 1004MOL0     C35451   1.366   7.779   4.694 -0.3617 -0.4418 -0.2532
 1004MOL0     C35452   1.502   7.770   4.716  0.0500 -1.4837  0.2144
 1004MOL0     O35453   1.769   7.931   4.638 -0.5094  0.4668  0.5262
 1004MOL0     C35454   1.976   7.873   4.910  0.0976 -0.9048  1.6950
 1004MOL0     C35455   2.105   7.831   4.946  0.0515  0.1351 -0.5158
 1004MOL0     N35456   2.865   8.035   4.810 -0.1033 -0.3692 -0.6674
 1004MOL0     N35457   2.925   8.003   4.703 -0.8672 -0.0219 -0.0615
 1004MOL0     C35458   4.057   7.554   4.323  0.8736  0.4928 -0.2913
 1004MOL0     C35459   4.181   7.492   4.338 -0.3135 -0.4518  0.4482
 1004MOL0     C35460   4.543   7.276   4.248 -0.6202 -0.4215  0.0213
 1004MOL0     C35461   4.647   7.281   4.153  0.0233 -0.2667 -1.4966
 1004MOL0     C35462   4.780   7.248   4.189 -0.0800  0.3609  0.3343
 1004MOL0     C35463   4.812   7.186   4.310 -0.0734  0.2192  0.1918
 1004MOL0     O35464   4.942   7.154   4.327 -0.0230 -0.0744 -0.0401
 1004MOL0     C35465   4.967   7.043   4.411 -0.9940  0.1953  0.1049
 1004MOL0     C35466   5.068   7.061   4.521  0.4868 -0.4920  0.8336
 1004MOL0     C35467   5.050   7.193   4.597 -0.8544 -0.2502  1.2394
 1004MOL0     C35468   5.167   7.214   4.691 -0.0400 -0.3487 -0.0427
 1004MOL0     C35469   5.166   7.108   4.795 -0.3101 -0.7453  0.9270
 1004MOL0     C35470   5.164   7.021   4.884  0.5301 -0.5313 -0.7701
 1004MOL0     C35471   4.712   7.171   4.403  0.3436  0.4767  0.2524
 1004MOL0     C35472   4.583   7.215   4.372 -0.2502  0.2005  0.1325
 1004MOL0     H35473   4.093   7.186   4.206  1.2964  0.2939  0.1328
 1004MOL0     H35474   3.878   7.291   4.191 -0.6902 -1.5933  3.3191
 1004MOL0     H35475   3.811   7.659   4.441  1.8055 -1.1105 -0.5295
 1004MOL0     H35476   3.840   7.736   4.293 -0.7379 -0.4360 -1.6183
 1004MOL0     H35477   3.596   7.770   4.383  1.0868 -0.0828  0.7955
 1004MOL0     H35478   3.632   7.729   4.217  0.0942  0.1295  0.2438
 1004MOL0     H35479   3.572   7.489   4.268 -0.0697 -1.0851  0.9624
 1004MOL0     H35480   3.579   7.530   4.436  4.3013  0.0222 -0.5587
 1004MOL0     H35481   3.364   7.651   4.255  0.1440  0.9296 -0.0414
 1004MOL0     H35482   3.339   7.498   4.340 -2.8638  2.0545  2.5317
 1004MOL0     H35483   3.355   7.587   4.551 -4.1767  0.1978  1.1170
 1004MOL0     H35484   3.396   7.751   4.489 -2.4965  2.1210 -0.4609
 1004MOL0     H35485   3.169   7.764   4.374 -2.7404 -1.0446  0.9335
 1004MOL0     H35486   3.146   7.602   4.442  4.0612 -0.9875 -1.6356
 1004MOL0     H35487   3.164   7.696   4.664 -1.7950  0.3600  1.5518
 1004MOL0     H35488   3.192   7.853   4.597 -0.0824  0.7592 -0.7434
 1004MOL0     H35489   2.932   7.691   4.588 -1.2886  1.6621 -0.9403
 1004MOL0     H35490   2.949   7.834   4.494 -0.8684  0.0427 -0.1950
 1004MOL0     H35491   2.888   7.709   4.832  3.0581 -0.8499 -3.3696
 1004MOL0     H35492   2.791   7.816   5.046  0.9973 -0.5714 -0.5648
 1004MOL0     H35493   2.815   7.980   5.084  0.2510 -1.1754 -0.0673
 1004MOL0     H35494   2.607   8.045   4.925 -2.4675  1.1932  1.5675
 1004MOL0     H35495   2.582   8.003   5.087 -1.6079 -1.4788 -0.8932
 1004MOL0     H35496   2.538   7.770   5.049  0.4727  0.4967  1.3832
 1004MOL0     H35497   2.582   7.790   4.872 -2.8007  0.3631 -1.3407
 1004MOL0     H35498   2.401   7.954   4.852 -0.9425 -0.2685 -1.6818
 1004MOL0     H35499   2.350   7.905   5.024  1.9286  0.5441  0.6983
 1004MOL0     H35500   2.216   7.734   4.638 -1.4304  1.5422 -2.5433
 1004MOL0     H35501   1.872   7.715   4.559 -0.0252 -0.7577 -0.0844
 1004MOL0     H35502   1.961   7.835   4.480 -0.9191  0.7658  1.6268
 1004MOL0     H35503   2.044   7.673   4.508 -2.0383 -1.3688 -1.9519
 1004MOL0     H35504   1.525   8.027   4.929  1.4901 -0.4697 -0.4239
 1004MOL0     H35505   1.300   8.044   4.901  0.7660  0.5175  1.8125
 1004MOL0     H35506   1.141   7.823   4.548  1.1878 -2.9562  0.8897
 1004MOL0     H35507   1.072   7.722   4.688 -0.3491 -0.2777 -0.3675
 1004MOL0     H35508   0.879   7.799   4.598 -0.4940  0.7685  0.2084
 1004MOL0     H35509   0.910   7.927   4.706 -0.8366  0.2635 -0.6916
 1004MOL0     H35510   1.018   7.949   4.415  3.3031  3.5511 -0.0398
 1004MOL0     H35511   1.017   8.073   4.528  1.3415  0.7036 -2.6971
 1004MOL0     H35512   0.802   8.000   4.352  0.0544  1.8069  0.7532
 1004MOL0     H35513   0.748   7.918   4.485  0.6345  0.5484  2.5913
 1004MOL0     H35514   0.815   8.218   4.468  2.5810 -2.0458 -0.2974
 1004MOL0     H35515   0.776   8.139   4.616 -0.7778 -0.1634 -0.3859
 1004MOL0     H35516   0.586   8.262   4.503 -2.3447 -1.1221  1.2847
 1004MOL0     H35517   0.584   8.134   4.384 -0.5110  3.3963 -1.4958
 1004MOL0     H35518   0.565   8.119   4.689  1.0318  2.2684 -0.1410
 1004MOL0     H35519   0.559   7.979   4.572 -0.0406  0.4777 -0.7253
 1004MOL0     H35520   0.358   8.189   4.539 -2.5997 -1.9698 -2.4604
 1004MOL0     H35521   0.350   8.090   4.689  1.9663 -1.0002  0.3585
 1004MOL0     H35522   1.317   7.712   4.624 -1.9451 -0.8653  1.1722
 1004MOL0     H35523   1.557   7.687   4.673 -2.7151 -4.0457  1.3429
 1004MOL0     H35524   1.913   7.906   4.992  1.9702 -0.9361  3.2318
 1004MOL0     H35525   2.126   7.828   5.053  2.1088  3.0057 -0.7074
 1004MOL0     H35526   4.057   7.653   4.368 -0.9927 -0.4770  2.0653
 1004MOL0     H35527   4.268   7.534   4.387 -0.2252 -1.7666  1.4703
 1004MOL0     H35528   4.623   7.322   4.056 -1.7440 -0.0132 -0.9754
 1004MOL0     H35529   4.850   7.247   4.105  0.4333  1.4565  0.7320
 1004MOL0     H35530   4.876   6.998   4.451 -2.4927  0.4203 -2.7970
 1004MOL0     H35531   5.016   6.965   4.351 -2.0077 -0.7589  0.4798
 1004MOL0     H35532   5.165   7.052   4.472 -0.3516  0.6048 -1.1912
 1004MOL0     H35533   5.062   6.978   4.591  2.8944 -0.7621  0.7835
 1004MOL0     H35534   4.957   7.177   4.652 -0.9580 -2.5011  0.4869
 1004MOL0     H35535   5.046   7.276   4.525  1.2864 -0.8687  0.3306
 1004MOL0     H35536   5.168   7.312   4.742  2.8908  1.5160 -3.2556
 1004MOL0     H35537   5.258   7.207   4.632 -0.6734  0.0618 -1.0996
 1004MOL0     H35538   5.136   6.956   4.965 -3.8973  1.0314 -0.7696
 1004MOL0     H35539   4.726   7.121   4.498  2.4193 -3.6456 -1.9525
 1004MOL0     H35540   4.502   7.204   4.444 -0.7545  1.4536 -0.2123
 1005MOL0     O35541   6.486   2.115   7.388 -0.2612  0.3193 -0.2177
 1005MOL0     C35542   6.496   2.206   7.310 -0.3243  0.3325  0.3061
 1005MOL0     O35543   6.392   2.248   7.227  0.1915 -0.2350  0.0782
 1005MOL0     C35544   6.262   2.202   7.256 -1.1269 -0.3474  0.4980
 1005MOL0     C35545   6.214   2.083   7.196 -0.5065 -0.2253 -0.3205
 1005MOL0     C35546   6.083   2.037   7.209 -0.3403  0.4740 -0.6520
 1005MOL0     C35547   5.997   2.111   7.291  0.2526  0.0537 -0.2367
 1005MOL0     O35548   5.876   2.053   7.304  0.2098  0.4925  0.2736
 1005MOL0     C35549   5.768   2.100   7.385 -0.3800 -0.2169 -0.8289
 1005MOL0     C35550   5.649   2.019   7.366  0.6599 -0.5115  0.1897
 1005MOL0     C35551   5.606   1.991   7.225  0.1796  0.6794 -1.1655
 1005MOL0     C35552   5.465   1.918   7.217  0.1769  0.6110 -0.0625
 1005MOL0     C35553   5.458   1.794   7.309 -0.1749 -0.9435  0.0293
 1005MOL0     C35554   5.315   1.723   7.312 -0.1976  0.2639  0.3945
 1005MOL0     C35555   5.201   1.817   7.375 -0.6313 -0.3870 -0.2988
 1005MOL0     C35556   5.075   1.743   7.381  0.6205  0.5503  0.9540
 1005MOL0     N35557   5.007   1.714   7.252 -0.3299  0.1264  0.0307
 1005MOL0     C35558   4.999   1.597   7.192  0.5781  0.5764  0.5647
 1005MOL0     C35559   4.911   1.631   7.088  0.3040  0.3334 -0.3127
 1005MOL0     C35560   4.855   1.531   6.990 -0.6603  0.9560  0.2378
 1005MOL0     C35561   4.855   1.588   6.848 -0.3953 -0.0013  0.3687
 1005MOL0     C35562   4.825   1.493   6.734  0.4142  0.6138 -0.3732
 1005MOL0     C35563   4.699   1.400   6.750 -0.4635 -0.2097  0.6834
 1005MOL0     O35564   4.723   1.289   6.835  0.0449  0.4331  0.0570
 1005MOL0     C35565   4.614   1.210   6.882 -0.7834 -1.1311 -0.8648
 1005MOL0     C35566   4.632   1.077   6.931  0.2954 -0.3648 -0.2671
 1005MOL0     C35567   4.533   0.998   6.978  0.3133 -0.3389  0.6183
 1005MOL0     C35568   4.580   0.863   7.024 -0.5850  0.0641  0.4861
 1005MOL0     C35569   4.397   1.035   6.970  1.0138  0.8703  0.2135
 1005MOL0     C35570   4.282   0.944   7.000  0.2179  0.3616 -0.4906
 1005MOL0     O35571   4.161   1.005   7.023  0.3521 -0.7284  0.6202
 1005MOL0     C35572   4.040   0.937   7.025  0.2313  0.1709  0.7731
 1005MOL0     C35573   3.925   1.015   7.003 -0.2786 -0.0234  0.2950
 1005MOL0     C35574   3.794   0.968   7.000  0.3944 -0.5506  0.0264
 1005MOL0     C35575   3.779   0.829   7.026 -0.2754  0.1027  0.1283
 1005MOL0     O35576   3.650   0.775   7.039 -0.1043  0.1289 -0.2771
 1005MOL0     C35577   3.543   0.826   6.956 -0.5769 -0.1796 -0.4821
 1005MOL0     C35578   3.421   0.738   6.952 -0.4454 -0.4185  0.1452
 1005MOL0     C35579   3.295   0.823   6.952  0.1510 -0.4037 -0.1488
 1005MOL0     C35580   3.183   0.724   6.940  0.7471  0.3868  1.2809
 1005MOL0     C35581   3.049   0.789   6.949  1.0658  0.9745  0.1868
 1005MOL0     C35582   2.925   0.684   6.965  0.0760 -0.4478 -0.7332
 1005MOL0     C35583   2.790   0.758   6.986 -0.2530 -0.0242 -0.6128
 1005MOL0     C35584   2.752   0.740   7.133  0.3125 -0.1095 -0.8034
 1005MOL0    Cl35585   2.582   0.820   7.150 -0.0901 -0.5932 -0.0994
 1005MOL0     C35586   3.889   0.753   7.056  0.6454  0.1170  0.9194
 1005MOL0     C35587   4.012   0.805   7.063  0.2451 -0.1322 -0.1816
 1005MOL0     O35588   4.301   0.827   6.981 -0.4134  0.6026  0.5784
 1005MOL0     C35589   4.370   1.164   6.925 -0.2681 -0.5359 -0.1852
 1005MOL0     C35590   4.475   1.243   6.877  0.0464  1.0601 -0.2326
 1005MOL0     N35591   4.880   1.761   7.093  0.5687 -0.0854 -0.2115
 1005MOL0     N35592   4.938   1.811   7.193 -0.4303  0.0484 -0.1844
 1005MOL0     C35593   6.045   2.230   7.364  0.1887 -0.1400  0.3398
 1005MOL0     C35594   6.178   2.282   7.340  0.6938  0.3167  0.7292
 1005MOL0     C35595   6.632   2.269   7.310  0.8022  0.8668  0.4742
 1005MOL0     C35596   6.652   2.391   7.248  0.7043  0.3385 -0.4258
 1005MOL0     C35597   6.767   2.472   7.277 -0.1421 -0.2147 -1.0130
 1005MOL0     C35598   6.871   2.412   7.357 -0.0383  1.3309  1.0551
 1005MOL0     O35599   6.976   2.477   7.413 -0.2250  0.1980 -0.2759
 1005MOL0     C35600   6.989   2.614   7.375 -0.1607 -0.0339  0.3205
 1005MOL0     C35601   7.108   2.673   7.445  0.0162 -0.2122  0.2819
 1005MOL0     C35602   7.143   2.811   7.390  0.0882 -0.9215 -0.1627
 1005MOL0     C35603   7.260   2.857   7.471  1.0474 -0.8451 -0.8291
 1005MOL0     C35604   7.382   2.787   7.442  0.0023  0.1638  0.5647
 1005MOL0     C35605   7.475   2.724   7.409 -0.7318 -0.8109  0.3243
 1005MOL0     C35606   6.856   2.284   7.404  0.5880 -0.5051 -0.4710
 1005MOL0     C35607   6.737   2.207   7.381  0.7265 -0.1052 -0.4661
 1005MOL0     H35608   6.275   2.017   7.137  0.2212 -1.6506  1.8974
 1005MOL0     H35609   6.037   1.957   7.152 -0.9696  1.1183 -1.0677
 1005MOL0     H35610   5.798   2.102   7.490  2.4380 -1.4444 -1.5231
 1005MOL0     H35611   5.749   2.203   7.352  0.9497  1.3929  2.8840
 1005MOL0     H35612   5.689   1.924   7.405 -1.1649 -0.4873  2.2855
 1005MOL0     H35613   5.572   2.056   7.434  1.8436  1.9425  0.2757
 1005MOL0     H35614   5.588   2.087   7.175  0.6980  0.3372 -2.0497
 1005MOL0     H35615   5.691   1.933   7.186  0.8150 -0.2004  1.3754
 1005MOL0     H35616   5.385   1.990   7.236 -0.5893 -0.3735  0.5031
 1005MOL0     H35617   5.448   1.899   7.111  2.0686  1.3994 -0.5615
 1005MOL0     H35618   5.528   1.714   7.281  1.1130 -2.1378  5.4576
 1005MOL0     H35619   5.486   1.826   7.410  0.7045  0.3157 -0.5778
 1005MOL0     H35620   5.280   1.692   7.213 -0.4742  1.3416  0.1487
 1005MOL0     H35621   5.336   1.635   7.374  1.5025  0.4850  0.2016
 1005MOL0     H35622   5.222   1.862   7.473  1.4324  0.3099 -1.0063
 1005MOL0     H35623   5.186   1.906   7.313 -3.0047 -0.3607  0.2015
 1005MOL0     H35624   5.003   1.782   7.454  1.7152  1.0511  1.7998
 1005MOL0     H35625   5.087   1.642   7.420 -1.1204 -0.2740 -0.4955
 1005MOL0     H35626   5.044   1.503   7.220  0.9044  0.6680  0.3438
 1005MOL0     H35627   4.911   1.437   6.992 -0.9615  0.7594  2.4520
 1005MOL0     H35628   4.752   1.503   7.014 -0.0960  0.5118  2.4250
 1005MOL0     H35629   4.950   1.639   6.830  0.0383 -0.9759 -0.1988
 1005MOL0     H35630   4.778   1.666   6.846 -1.2963 -0.8794 -1.3523
 1005MOL0     H35631   4.914   1.436   6.708 -0.2778 -1.1579  0.9810
 1005MOL0     H35632   4.808   1.550   6.642 -1.6180  1.1556  0.2754
 1005MOL0     H35633   4.683   1.367   6.647  1.5758 -0.1396  0.2970
 1005MOL0     H35634   4.620   1.470   6.778 -1.1673 -0.1476 -1.2673
 1005MOL0     H35635   4.731   1.032   6.927  0.1471 -0.6266 -1.0792
 1005MOL0     H35636   4.576   0.802   6.934 -0.4142  0.6497  0.0783
 1005MOL0     H35637   4.687   0.872   7.046 -0.2696 -1.4064 -0.3134
 1005MOL0     H35638   4.522   0.811   7.101 -2.2044  0.5383 -0.3694
 1005MOL0     H35639   3.936   1.123   7.005  1.3562 -0.1761  0.3329
 1005MOL0     H35640   3.714   1.041   6.992  2.3725  1.7036 -0.6403
 1005MOL0     H35641   3.514   0.924   6.994 -0.7887  0.5902 -2.4872
 1005MOL0     H35642   3.577   0.844   6.854  0.8193  0.0083 -0.0031
 1005MOL0     H35643   3.424   0.672   6.865 -0.6386  0.2116 -0.3439
 1005MOL0     H35644   3.428   0.662   7.031 -1.4929 -0.2296  0.4395
 1005MOL0     H35645   3.291   0.899   6.874 -1.4657  0.6588  0.9129
 1005MOL0     H35646   3.283   0.868   7.051 -1.6553 -0.3609 -0.3547
 1005MOL0     H35647   3.191   0.671   6.845  0.3600  2.1488  0.2160
 1005MOL0     H35648   3.194   0.648   7.018  0.6101 -0.0402  0.8842
 1005MOL0     H35649   3.021   0.869   6.879 -1.5479  0.5473  0.6097
 1005MOL0     H35650   3.053   0.855   7.036 -3.5594  3.1983 -0.9674
 1005MOL0     H35651   2.912   0.625   6.874  2.7587  0.0160 -1.4995
 1005MOL0     H35652   2.947   0.624   7.054 -0.0551 -1.9698 -1.6958
 1005MOL0     H35653   2.715   0.705   6.926 -2.2397  3.2330 -1.2618
 1005MOL0     H35654   2.791   0.864   6.960  0.0595  1.0554  3.1880
 1005MOL0     H35655   2.828   0.790   7.194  1.5829 -2.5780 -0.2525
 1005MOL0     H35656   2.734   0.638   7.166 -1.3286 -0.2686 -2.0222
 1005MOL0     H35657   3.870   0.654   7.096 -1.9964  0.5748  0.9295
 1005MOL0     H35658   4.098   0.740   7.073  0.7779  0.6118  0.2210
 1005MOL0     H35659   4.272   1.209   6.915  0.7257  1.8465  0.2149
 1005MOL0     H35660   4.457   1.342   6.836 -1.4377  1.0648  0.3704
 1005MOL0     H35661   5.978   2.293   7.422  0.1523  0.3667 -0.2482
 1005MOL0     H35662   6.219   2.375   7.377  1.7890  1.1730 -2.2794
 1005MOL0     H35663   6.575   2.425   7.180 -3.4374 -1.4405  2.9677
 1005MOL0     H35664   6.788   2.571   7.236  2.8947  1.3372  3.4228
 1005MOL0     H35665   7.004   2.612   7.267  1.1079 -1.7397  0.4791
 1005MOL0     H35666   6.910   2.680   7.411  0.7036 -0.2742  2.8769
 1005MOL0     H35667   7.195   2.607   7.435 -0.7881 -0.9527 -3.0123
 1005MOL0     H35668   7.076   2.681   7.550 -0.8876  0.0749 -0.0028
 1005MOL0     H35669   7.063   2.885   7.401  0.9035  0.2687 -1.8377
 1005MOL0     H35670   7.164   2.808   7.283 -1.3274  1.6371 -0.6069
 1005MOL0     H35671   7.235   2.853   7.578 -0.7821  1.3095 -1.0798
 1005MOL0     H35672   7.261   2.966   7.462 -0.4826 -0.9219 -2.5515
 1005MOL0     H35673   7.561   2.671   7.374 -0.2365  0.9571 -1.2252
 1005MOL0     H35674   6.923   2.249   7.482  0.2930  0.7548  0.3941
 1005MOL0     H35675   6.728   2.111   7.431  1.4551  0.8613  1.6170
 1006MOL0     O35676   5.193   5.899   2.399  1.1014  0.4540 -0.5373
 1006MOL0     C35677   5.146   5.934   2.509 -0.7719 -0.0840  0.4645
 1006MOL0     O35678   5.051   5.861   2.580 -0.8044 -0.0386  0.1106
 1006MOL0     C35679   4.984   5.764   2.513  0.3379 -0.2566 -0.9553
 1006MOL0     C35680   4.854   5.776   2.480  0.2908 -0.8159 -0.3856
 1006MOL0     C35681   4.782   5.675   2.411  1.3043 -0.0967 -0.0321
 1006MOL0     C35682   4.836   5.551   2.380 -0.7273  0.0609  0.1254
 1006MOL0     O35683   4.759   5.453   2.328  0.6742  0.5197  0.1267
 1006MOL0     C35684   4.811   5.327   2.283 -0.4767  0.3903 -1.2924
 1006MOL0     C35685   4.729   5.270   2.174  0.5909 -0.2091  0.2452
 1006MOL0     C35686   4.599   5.213   2.244 -0.1847  0.5250  0.1545
 1006MOL0     C35687   4.498   5.184   2.127  0.0375 -0.2092 -0.0501
 1006MOL0     C35688   4.363   5.113   2.176  0.3748 -1.1358 -0.3684
 1006MOL0     C35689   4.253   5.102   2.066 -0.3118  0.1224  0.7069
 1006MOL0     C35690   4.298   5.012   1.940  1.0524 -1.0121 -0.2135
 1006MOL0     C35691   4.200   5.000   1.828  0.7185 -0.8520  0.5524
 1006MOL0     N35692   4.085   4.928   1.880  0.3120  0.0685 -0.5472
 1006MOL0     C35693   4.074   4.798   1.916 -0.5971 -0.7891 -0.1475
 1006MOL0     C35694   3.945   4.759   1.923  0.2268  0.5240  0.0894
 1006MOL0     C35695   3.885   4.624   1.953  0.1657  0.4532  0.2681
 1006MOL0     C35696   3.735   4.616   1.897  0.2026  0.2330  0.1127
 1006MOL0     C35697   3.677   4.476   1.886 -0.2514 -0.4997 -0.3072
 1006MOL0     C35698   3.682   4.387   2.010  0.2911  0.1852 -0.5429
 1006MOL0     O35699   3.657   4.251   1.965  0.1013 -0.5602  0.2538
 1006MOL0     C35700   3.541   4.176   2.003 -1.1946 -0.0155  0.0651
 1006MOL0     C35701   3.511   4.063   1.924 -0.0831  0.3441  0.3805
 1006MOL0     C35702   3.399   3.981   1.950  0.1253 -1.2495 -0.5985
 1006MOL0     C35703   3.397   3.873   1.855  0.7695  0.0654 -0.7414
 1006MOL0     C35704   3.297   4.014   2.050  0.5280  0.5701 -0.4219
 1006MOL0     C35705   3.183   3.927   2.093 -0.3529 -0.1892 -0.2875
 1006MOL0     O35706   3.111   3.980   2.202  0.4512  0.6542  0.1544
 1006MOL0     C35707   2.984   3.931   2.216  0.2655  0.1791 -0.1749
 1006MOL0     C35708   2.959   3.808   2.289 -0.0589  0.0379 -0.4448
 1006MOL0     C35709   2.826   3.760   2.293  0.5161  0.0397  0.6728
 1006MOL0     C35710   2.727   3.823   2.221  0.1663  0.9597  0.2064
 1006MOL0     O35711   2.608   3.755   2.210 -0.3521  0.3833 -0.0929
 1006MOL0     C35712   2.493   3.833   2.214 -0.6075 -0.5891  0.8939
 1006MOL0     C35713   2.373   3.739   2.246  0.3529 -0.8043 -0.1112
 1006MOL0     C35714   2.329   3.667   2.124 -0.1241  0.2408 -0.2230
 1006MOL0     C35715   2.201   3.579   2.147  0.2791  0.0680  0.0331
 1006MOL0     C35716   2.154   3.528   2.017  0.7880  0.5092  0.8323
 1006MOL0     C35717   2.059   3.403   2.018  0.1633 -0.3456  0.2871
 1006MOL0     C35718   2.042   3.348   1.875  0.1658 -0.1929  1.0778
 1006MOL0     C35719   1.940   3.239   1.855  0.4191 -0.6332 -0.5338
 1006MOL0    Cl35720   1.777   3.310   1.874  0.5110 -0.0702  0.2809
 1006MOL0     C35721   2.756   3.938   2.149 -0.3667 -0.2787  0.2809
 1006MOL0     C35722   2.881   3.996   2.155  0.1925 -0.9613  0.7894
 1006MOL0     O35723   3.150   3.832   2.021 -0.0316  0.2595  0.1141
 1006MOL0     C35724   3.329   4.135   2.116  0.1192  0.3615 -0.7618
 1006MOL0     C35725   3.449   4.204   2.104 -0.4720 -0.0350 -0.0761
 1006MOL0     N35726   3.877   4.875   1.900 -0.2672 -0.2880 -1.1654
 1006MOL0     N35727   3.961   4.974   1.870 -0.3499 -0.3373 -0.1108
 1006MOL0     C35728   4.973   5.541   2.409  0.3220  0.0578 -1.3796
 1006MOL0     C35729   5.048   5.640   2.485 -0.2102  0.3396  0.4303
 1006MOL0     C35730   5.217   6.039   2.581  0.6251 -0.1105  0.4707
 1006MOL0     C35731   5.324   6.102   2.524  1.1888 -0.5589 -0.2688
 1006MOL0     C35732   5.387   6.211   2.580  0.2979  0.2803  0.3194
 1006MOL0     C35733   5.344   6.260   2.707 -0.5199  0.3671  1.0211
 1006MOL0     O35734   5.419   6.361   2.772 -1.2604 -0.1633  0.2083
 1006MOL0     C35735   5.344   6.446   2.855  0.0628  0.1108  0.3341
 1006MOL0     C35736   5.407   6.584   2.880 -0.0232  0.5140 -0.2703
 1006MOL0     C35737   5.436   6.671   2.766  0.1124  0.6425 -0.2599
 1006MOL0     C35738   5.500   6.808   2.787  0.3877 -0.0830 -0.0015
 1006MOL0     C35739   5.413   6.900   2.857  0.9525  0.1499  0.1077
 1006MOL0     C35740   5.336   6.967   2.923  0.1007  0.6835 -0.0811
 1006MOL0     C35741   5.242   6.189   2.767 -1.1463  0.4328  0.8570
 1006MOL0     C35742   5.177   6.087   2.705  0.6449  0.6271  0.7090
 1006MOL0     H35743   4.802   5.865   2.516  2.0056  0.9401 -1.9802
 1006MOL0     H35744   4.675   5.688   2.403  1.2722  0.1176  0.6645
 1006MOL0     H35745   4.915   5.332   2.246  0.9659 -1.7587  2.0489
 1006MOL0     H35746   4.821   5.257   2.366  4.6283  2.2897  0.1410
 1006MOL0     H35747   4.700   5.358   2.116 -0.4166 -1.3025 -0.9879
 1006MOL0     H35748   4.769   5.184   2.120 -2.3863 -3.2468  2.4311
 1006MOL0     H35749   4.613   5.123   2.305 -1.3389 -0.6670 -1.2785
 1006MOL0     H35750   4.548   5.292   2.300 -1.4593  2.3251 -3.2649
 1006MOL0     H35751   4.472   5.284   2.090  1.9544 -0.3547 -2.0420
 1006MOL0     H35752   4.543   5.126   2.046  1.5158 -1.3377  1.5163
 1006MOL0     H35753   4.390   5.010   2.203 -2.3392 -1.8592 -0.1386
 1006MOL0     H35754   4.320   5.175   2.255 -0.5874 -0.8230 -1.1177
 1006MOL0     H35755   4.171   5.054   2.120  2.8851 -0.7559  5.3107
 1006MOL0     H35756   4.228   5.204   2.037 -3.3429 -0.0461  2.3335
 1006MOL0     H35757   4.381   5.063   1.890  2.5951  0.3753  3.3870
 1006MOL0     H35758   4.325   4.909   1.964 -1.2231 -1.8695 -1.0554
 1006MOL0     H35759   4.252   4.952   1.745 -0.2102 -1.0286  0.0537
 1006MOL0     H35760   4.173   5.101   1.796  1.7268 -0.7704 -0.0841
 1006MOL0     H35761   4.150   4.723   1.938 -0.5211 -1.0630 -1.2799
 1006MOL0     H35762   3.945   4.540   1.917  0.0301  0.9624 -1.1990
 1006MOL0     H35763   3.894   4.614   2.062  1.0811 -2.1290  0.0333
 1006MOL0     H35764   3.734   4.660   1.796  0.3466 -1.2164 -0.5379
 1006MOL0     H35765   3.670   4.682   1.954 -2.7729 -0.0888 -2.6166
 1006MOL0     H35766   3.743   4.416   1.822 -0.3711 -0.9153 -0.0408
 1006MOL0     H35767   3.579   4.484   1.837  0.5204  2.3422 -1.6300
 1006MOL0     H35768   3.609   4.420   2.084  1.7609 -0.7066  1.3959
 1006MOL0     H35769   3.774   4.409   2.065 -0.7346  1.8861  0.5578
 1006MOL0     H35770   3.576   4.030   1.843  0.7116 -0.0303  1.1485
 1006MOL0     H35771   3.479   3.864   1.783  2.4010  0.9520  0.9307
 1006MOL0     H35772   3.389   3.783   1.917  0.8339  0.2710 -0.4305
 1006MOL0     H35773   3.305   3.893   1.800  0.6349 -1.8667 -1.3021
 1006MOL0     H35774   3.037   3.746   2.332 -1.9143 -2.6914 -0.7985
 1006MOL0     H35775   2.799   3.666   2.341 -2.9841 -0.6768 -2.1688
 1006MOL0     H35776   2.512   3.902   2.297 -0.4794 -1.3959  1.5558
 1006MOL0     H35777   2.467   3.867   2.114  3.3093 -2.3140 -0.9143
 1006MOL0     H35778   2.393   3.665   2.323  1.2093 -0.7168 -0.2448
 1006MOL0     H35779   2.288   3.802   2.278 -0.2275 -1.2769 -0.6931
 1006MOL0     H35780   2.416   3.606   2.096  2.1793  3.2275 -0.1006
 1006MOL0     H35781   2.308   3.736   2.042 -2.0529 -0.8343 -0.7027
 1006MOL0     H35782   2.218   3.493   2.212 -0.8817  1.0183  1.6856
 1006MOL0     H35783   2.119   3.637   2.191 -1.8529 -3.0523  0.4827
 1006MOL0     H35784   2.245   3.500   1.963  0.4229 -2.1653  1.4633
 1006MOL0     H35785   2.099   3.602   1.957  2.6860  0.9872 -0.4207
 1006MOL0     H35786   2.093   3.317   2.077  1.5104 -0.1489 -0.1677
 1006MOL0     H35787   1.963   3.448   2.045  0.0177  0.8938 -2.1325
 1006MOL0     H35788   2.143   3.312   1.850 -0.3167 -0.8845  0.0625
 1006MOL0     H35789   2.032   3.424   1.797 -0.1292  0.6685  1.9474
 1006MOL0     H35790   1.954   3.155   1.925 -3.1629 -0.9641 -0.0199
 1006MOL0     H35791   1.940   3.207   1.750 -0.6440  1.3180 -1.1692
 1006MOL0     H35792   2.687   3.993   2.086 -0.1920  2.7090  2.4420
 1006MOL0     H35793   2.905   4.083   2.094 -2.6253 -2.3346 -2.6700
 1006MOL0     H35794   3.268   4.162   2.202  0.6951 -0.1224 -0.1847
 1006MOL0     H35795   3.475   4.285   2.172  1.2277  1.2384 -2.0815
 1006MOL0     H35796   5.035   5.452   2.415 -0.2843 -0.2660  3.2797
 1006MOL0     H35797   5.144   5.608   2.524 -2.1873 -0.4417  5.5822
 1006MOL0     H35798   5.360   6.067   2.427  0.5150  0.0256 -0.7413
 1006MOL0     H35799   5.481   6.255   2.548  0.7448 -1.1499 -0.4325
 1006MOL0     H35800   5.247   6.472   2.811  0.4255  1.4568  0.2728
 1006MOL0     H35801   5.342   6.384   2.945  1.1174 -0.0332  0.2791
 1006MOL0     H35802   5.507   6.578   2.923 -0.1870 -0.9882 -0.0486
 1006MOL0     H35803   5.346   6.638   2.952  3.1402  2.6887  1.0376
 1006MOL0     H35804   5.343   6.687   2.711  1.5231  0.1446 -2.9737
 1006MOL0     H35805   5.507   6.622   2.699 -1.7181  0.1510 -1.9721
 1006MOL0     H35806   5.521   6.854   2.690 -2.2826 -0.6491 -0.9383
 1006MOL0     H35807   5.585   6.806   2.856 -1.5295  2.3138  2.6795
 1006MOL0     H35808   5.258   7.012   2.979 -2.4181 -1.1340 -1.8925
 1006MOL0     H35809   5.215   6.223   2.866  1.2552  1.3103  1.2839
 1006MOL0     H35810   5.096   6.037   2.758  1.2166 -0.0378  0.9719
 1007MOL0     O35811   0.458   4.468   3.643  0.0773  0.4675  0.4687
 1007MOL0     C35812   0.423   4.392   3.555  0.0304 -0.1957 -0.3205
 1007MOL0     O35813   0.295   4.339   3.537 -0.9675 -0.2931 -0.2173
 1007MOL0     C35814   0.182   4.396   3.596  0.7469  0.2830  0.4763
 1007MOL0     C35815   0.071   4.305   3.625  0.9659  0.1002 -0.5586
 1007MOL0     C35816  -0.054   4.363   3.670 -0.6111 -0.0295 -0.0523
 1007MOL0     C35817  -0.066   4.501   3.698 -0.0533 -1.0831  0.6498
 1007MOL0     O35818  -0.182   4.568   3.742 -0.0219  0.2207  0.6133
 1007MOL0     C35819  -0.298   4.487   3.761  0.7971  0.4470 -0.7447
 1007MOL0     C35820  -0.402   4.565   3.832 -0.0554 -0.3096 -0.7050
 1007MOL0     C35821  -0.547   4.503   3.823 -0.5824 -0.0038 -0.2504
 1007MOL0     C35822  -0.639   4.615   3.881  1.0010 -0.2303  0.2702
 1007MOL0     C35823  -0.782   4.565   3.868  0.0288  0.4527  0.1968
 1007MOL0     C35824  -0.885   4.675   3.875  0.5750 -1.1862 -0.0972
 1007MOL0     C35825  -1.030   4.618   3.864  1.1642 -0.2578  0.3339
 1007MOL0     C35826  -1.144   4.712   3.909 -0.7122 -0.0020  0.6315
 1007MOL0     N35827  -1.146   4.734   4.056 -0.4429 -0.1253  0.1907
 1007MOL0     C35828  -1.196   4.640   4.145 -0.0197 -0.2984 -0.6314
 1007MOL0     C35829  -1.203   4.714   4.264 -0.2863  0.2399  0.6469
 1007MOL0     C35830  -1.251   4.662   4.387  0.9857  0.5274  0.1271
 1007MOL0     C35831  -1.395   4.689   4.407 -0.5571  0.1875  0.2707
 1007MOL0     C35832  -1.421   4.835   4.440 -0.5492 -0.6805  0.8331
 1007MOL0     C35833  -1.569   4.849   4.479  0.7878  0.7293 -0.2645
 1007MOL0     O35834  -1.662   4.805   4.380  0.5189 -0.7775 -0.8818
 1007MOL0     C35835  -1.783   4.868   4.386 -0.7029 -0.1518 -0.2314
 1007MOL0     C35836  -1.859   4.847   4.500  0.3524  0.3843 -0.4422
 1007MOL0     C35837  -1.986   4.900   4.504  0.2376 -0.7478 -0.1626
 1007MOL0     C35838  -2.068   4.863   4.618  0.4656  0.2721 -0.7137
 1007MOL0     C35839  -2.041   4.977   4.391  0.5658 -0.0418  0.7790
 1007MOL0     C35840  -2.176   5.040   4.385 -0.8118  0.4397 -0.9244
 1007MOL0     O35841  -2.275   4.949   4.421 -0.2252 -0.1271  0.4401
 1007MOL0     C35842  -2.407   4.993   4.447  0.1905 -0.0429  0.2466
 1007MOL0     C35843  -2.445   5.064   4.563 -0.5338  0.8436 -0.6845
 1007MOL0     C35844  -2.582   5.087   4.582  0.4472 -1.0744  0.2465
 1007MOL0     C35845  -2.680   5.038   4.500  0.0792  0.4221 -0.2818
 1007MOL0     O35846  -2.808   5.059   4.534 -0.1353 -0.4862 -0.1944
 1007MOL0     C35847  -2.916   4.975   4.494 -0.4209 -1.1857 -0.2505
 1007MOL0     C35848  -2.977   5.047   4.378 -0.6442 -0.2551 -2.6270
 1007MOL0     C35849  -3.025   5.195   4.405  0.0420 -0.5280 -0.7444
 1007MOL0     C35850  -3.075   5.272   4.278  1.1058  0.1916  0.1860
 1007MOL0     C35851  -3.132   5.420   4.296  0.4006  0.2353  0.2811
 1007MOL0     C35852  -3.018   5.510   4.351  0.4950 -0.6834 -0.2988
 1007MOL0     C35853  -3.010   5.528   4.509  0.7650  0.0996 -0.4201
 1007MOL0     C35854  -2.907   5.642   4.524 -0.1168  0.3534 -0.2505
 1007MOL0    Cl35855  -2.905   5.689   4.696  0.3702 -0.0414  0.0062
 1007MOL0     C35856  -2.642   4.964   4.381  0.6105 -0.8375  0.1528
 1007MOL0     C35857  -2.505   4.943   4.362 -0.1012 -0.6616  0.0146
 1007MOL0     O35858  -2.195   5.153   4.337  0.6190  0.7164 -0.1769
 1007MOL0     C35859  -1.947   5.012   4.288  0.6506  0.8811 -0.0244
 1007MOL0     C35860  -1.819   4.951   4.283  0.7152  0.0947 -0.7027
 1007MOL0     N35861  -1.140   4.834   4.249  0.4256 -0.8606  0.8427
 1007MOL0     N35862  -1.096   4.842   4.121 -0.4469 -0.7479  0.1464
 1007MOL0     C35863   0.044   4.581   3.672  0.2807  0.2991  0.7305
 1007MOL0     C35864   0.162   4.532   3.614 -0.1132 -0.6151  0.4043
 1007MOL0     C35865   0.518   4.355   3.448  0.5407 -0.5059  0.2971
 1007MOL0     C35866   0.652   4.388   3.458 -0.1226  0.6276 -0.4962
 1007MOL0     C35867   0.734   4.362   3.351 -0.3446  0.2487  0.5350
 1007MOL0     C35868   0.688   4.288   3.237  0.8305 -0.0006 -0.2532
 1007MOL0     O35869   0.760   4.282   3.115  0.1038  0.0220  0.3635
 1007MOL0     C35870   0.843   4.396   3.069  0.6527  0.5047 -0.0849
 1007MOL0     C35871   0.989   4.366   3.068 -0.6660 -0.4185 -0.4533
 1007MOL0     C35872   1.073   4.498   3.048  0.0776  0.8572  0.1153
 1007MOL0     C35873   1.230   4.473   3.060  0.2013 -0.6508 -0.1993
 1007MOL0     C35874   1.261   4.374   2.953 -0.1816 -0.2192  0.2798
 1007MOL0     C35875   1.299   4.285   2.872  0.9744 -0.5897 -0.7413
 1007MOL0     C35876   0.549   4.264   3.226 -0.2071  0.8879 -0.3355
 1007MOL0     C35877   0.467   4.304   3.326  0.9765  0.4187 -1.3700
 1007MOL0     H35878   0.076   4.199   3.601  0.5822 -0.4846  1.6761
 1007MOL0     H35879  -0.131   4.292   3.700 -0.8878  0.0568 -0.5436
 1007MOL0     H35880  -0.328   4.443   3.666  1.3077 -1.5499 -0.0413
 1007MOL0     H35881  -0.268   4.401   3.823  2.2068  1.4887  0.0760
 1007MOL0     H35882  -0.372   4.589   3.934 -0.6559  2.5822 -1.1206
 1007MOL0     H35883  -0.410   4.661   3.781 -3.4996  0.1185  0.4031
 1007MOL0     H35884  -0.576   4.482   3.719 -0.4174 -0.5482 -0.1923
 1007MOL0     H35885  -0.558   4.410   3.881 -1.5364  0.8208  0.9327
 1007MOL0     H35886  -0.608   4.627   3.985  0.7471 -2.8087  0.7088
 1007MOL0     H35887  -0.614   4.705   3.825  1.3939 -0.3464  0.2568
 1007MOL0     H35888  -0.782   4.505   3.777  2.1016 -2.0463  1.6960
 1007MOL0     H35889  -0.802   4.487   3.942  0.2023  0.7617  0.5757
 1007MOL0     H35890  -0.867   4.711   3.977 -0.3698 -1.7417  0.2826
 1007MOL0     H35891  -0.873   4.758   3.805  0.6688 -1.3733 -0.3014
 1007MOL0     H35892  -1.064   4.590   3.764 -2.2558 -0.3807  1.4100
 1007MOL0     H35893  -1.029   4.526   3.922 -2.0812 -1.2226 -0.9168
 1007MOL0     H35894  -1.240   4.669   3.880  1.5158 -2.1772 -4.9914
 1007MOL0     H35895  -1.128   4.804   3.852 -2.8937 -1.5023 -2.7336
 1007MOL0     H35896  -1.256   4.553   4.122  0.9468 -0.6719 -1.8221
 1007MOL0     H35897  -1.242   4.553   4.379  0.4568  0.3758  1.3199
 1007MOL0     H35898  -1.192   4.698   4.472  2.4060 -0.9464 -0.1595
 1007MOL0     H35899  -1.434   4.620   4.482  3.0192 -3.3389 -0.7624
 1007MOL0     H35900  -1.446   4.666   4.313  1.0897  0.1411 -0.6527
 1007MOL0     H35901  -1.402   4.904   4.357  1.7217  0.0162  1.8495
 1007MOL0     H35902  -1.364   4.879   4.522 -0.0216 -1.8100  1.0899
 1007MOL0     H35903  -1.592   4.954   4.499  0.2969  0.1720  2.4200
 1007MOL0     H35904  -1.592   4.784   4.563 -0.3699 -0.3861 -1.4102
 1007MOL0     H35905  -1.831   4.771   4.571 -0.7135 -1.0124 -1.4686
 1007MOL0     H35906  -2.134   4.786   4.576  2.1027 -0.5192 -1.9843
 1007MOL0     H35907  -2.020   4.816   4.704 -3.2100 -0.4847  1.1162
 1007MOL0     H35908  -2.136   4.935   4.664 -1.2288 -0.9400 -1.2102
 1007MOL0     H35909  -2.369   5.102   4.631  3.1212 -5.7040 -0.2971
 1007MOL0     H35910  -2.621   5.143   4.667  0.9097 -2.2460  1.2668
 1007MOL0     H35911  -2.880   4.877   4.460  0.8907 -0.2781 -1.6618
 1007MOL0     H35912  -2.989   4.976   4.575 -2.0935  0.5722 -1.6727
 1007MOL0     H35913  -2.902   5.049   4.298  1.0854 -0.7039 -1.0829
 1007MOL0     H35914  -3.062   4.989   4.340 -1.1995 -0.8667 -0.6078
 1007MOL0     H35915  -2.937   5.241   4.451 -0.4430 -0.3109 -0.0190
 1007MOL0     H35916  -3.101   5.200   4.484  0.7721  0.6835 -0.0786
 1007MOL0     H35917  -2.996   5.279   4.202  0.6263 -0.3423 -0.3754
 1007MOL0     H35918  -3.160   5.212   4.243 -0.0455  0.9334  1.6295
 1007MOL0     H35919  -3.214   5.422   4.367  0.8400  1.5016  0.7702
 1007MOL0     H35920  -3.160   5.458   4.197  0.6629  0.0623  0.1370
 1007MOL0     H35921  -2.916   5.485   4.321  1.4217  1.9179  0.3613
 1007MOL0     H35922  -3.033   5.602   4.293  0.4445  0.4872  1.4828
 1007MOL0     H35923  -2.983   5.436   4.560 -1.4854  0.2843  1.2861
 1007MOL0     H35924  -3.111   5.555   4.542  0.4616 -1.6682  0.1548
 1007MOL0     H35925  -2.926   5.721   4.450  1.4554 -0.6307 -1.7680
 1007MOL0     H35926  -2.814   5.594   4.491 -0.8158 -2.3627  1.4189
 1007MOL0     H35927  -2.714   4.924   4.311 -0.9755 -0.8522  1.7287
 1007MOL0     H35928  -2.475   4.903   4.266  1.7512  1.7809 -0.5125
 1007MOL0     H35929  -1.977   5.063   4.198 -1.4824  0.7931  0.5825
 1007MOL0     H35930  -1.760   4.973   4.194  0.0450 -3.0395 -2.0849
 1007MOL0     H35931   0.035   4.689   3.678 -2.0556  0.3374 -1.7634
 1007MOL0     H35932   0.236   4.604   3.580 -1.5163  1.2922  1.2086
 1007MOL0     H35933   0.694   4.443   3.542  0.8356 -0.4348 -0.2604
 1007MOL0     H35934   0.839   4.389   3.351  0.3156 -2.1320 -0.0065
 1007MOL0     H35935   0.812   4.425   2.968 -0.7905  1.0451  0.4838
 1007MOL0     H35936   0.815   4.478   3.137 -1.6405 -0.5495  0.3488
 1007MOL0     H35937   1.012   4.295   2.988  3.1858  1.6238 -1.3867
 1007MOL0     H35938   0.999   4.320   3.167 -1.8221 -3.9694 -1.8621
 1007MOL0     H35939   1.048   4.572   3.125 -0.5250 -0.3210  1.0835
 1007MOL0     H35940   1.048   4.531   2.947 -1.0022 -1.2921 -0.3770
 1007MOL0     H35941   1.242   4.438   3.163  2.1431 -1.9987 -0.8163
 1007MOL0     H35942   1.282   4.568   3.047  0.1147 -0.7271 -1.1865
 1007MOL0     H35943   1.350   4.221   2.802 -0.6824 -1.2128 -1.4497
 1007MOL0     H35944   0.507   4.224   3.134  3.6056  1.1867 -2.4320
 1007MOL0     H35945   0.360   4.299   3.314  0.8978  1.9264 -1.5531
 1008MOL0     O35946  10.585   5.566   2.837 -0.1545 -0.2074 -0.1782
 1008MOL0     C35947  10.661   5.470   2.838  0.1032  0.1856  0.5288
 1008MOL0     O35948  10.633   5.345   2.785 -0.0977 -0.0135 -0.1801
 1008MOL0     C35949  10.507   5.299   2.772  0.4404 -0.5437 -0.0701
 1008MOL0     C35950  10.444   5.317   2.656  0.1843 -0.3692  0.9313
 1008MOL0     C35951  10.307   5.304   2.646  0.7752  0.7480  0.8605
 1008MOL0     C35952  10.232   5.252   2.745  0.3834 -0.2140 -0.1687
 1008MOL0     O35953  10.105   5.218   2.713 -0.7146  0.0300  0.4727
 1008MOL0     C35954  10.002   5.228   2.814  0.7823 -1.1721 -0.0724
 1008MOL0     C35955   9.875   5.187   2.752  0.6252 -0.7313  0.2792
 1008MOL0     C35956   9.765   5.194   2.857  0.3319  0.1613 -0.5754
 1008MOL0     C35957   9.642   5.125   2.802 -0.2697  0.1559  0.6419
 1008MOL0     C35958   9.517   5.137   2.895  0.5886 -1.0073 -0.2770
 1008MOL0     C35959   9.387   5.095   2.823 -0.2795 -0.9804  1.1500
 1008MOL0     C35960   9.259   5.119   2.899  0.2893  0.5377 -0.0215
 1008MOL0     C35961   9.135   5.100   2.815  0.3497  0.7920  0.2007
 1008MOL0     N35962   9.006   5.102   2.879 -0.4712  0.2325 -1.0104
 1008MOL0     C35963   8.963   5.008   2.971 -0.6685 -0.7606 -0.7404
 1008MOL0     C35964   8.831   5.044   2.983 -0.3957 -0.5747  0.0215
 1008MOL0     C35965   8.738   4.983   3.089 -0.0571  0.0957  0.3770
 1008MOL0     C35966   8.744   4.826   3.080 -0.5436 -1.1294  0.2275
 1008MOL0     C35967   8.640   4.740   3.167 -0.0774 -0.7381 -0.5774
 1008MOL0     C35968   8.680   4.589   3.161 -0.1825  0.6959  0.5574
 1008MOL0     O35969   8.638   4.502   3.270  0.4225  0.0174 -0.2786
 1008MOL0     C35970   8.498   4.472   3.274 -0.3001  0.1528 -0.2385
 1008MOL0     C35971   8.403   4.482   3.177  0.2838 -0.0921 -0.0549
 1008MOL0     C35972   8.270   4.463   3.201 -0.7013 -0.1626 -0.2001
 1008MOL0     C35973   8.179   4.490   3.082 -0.7702 -0.6186 -0.2080
 1008MOL0     C35974   8.228   4.424   3.334 -0.2559 -0.6845  1.1520
 1008MOL0     C35975   8.088   4.375   3.361 -0.1110  1.5570  0.2073
 1008MOL0     O35976   7.981   4.451   3.317 -0.2899  0.2227  0.2299
 1008MOL0     C35977   7.846   4.408   3.334 -0.3087 -0.4489  0.4492
 1008MOL0     C35978   7.752   4.502   3.382  0.0303  0.5112  0.0805
 1008MOL0     C35979   7.614   4.463   3.398  0.3617  0.8013  0.6429
 1008MOL0     C35980   7.564   4.348   3.342 -0.4067  0.5810 -0.1289
 1008MOL0     O35981   7.427   4.338   3.354  0.3859  0.5403 -0.7197
 1008MOL0     C35982   7.380   4.203   3.374  0.1877 -0.4148 -0.1694
 1008MOL0     C35983   7.229   4.208   3.413  0.0862  0.6117 -0.0963
 1008MOL0     C35984   7.208   4.234   3.564  0.3995  0.5234 -0.5162
 1008MOL0     C35985   7.237   4.375   3.617 -0.1072 -0.0953 -0.0018
 1008MOL0     C35986   7.167   4.397   3.748  0.0405 -0.8075 -0.1058
 1008MOL0     C35987   7.162   4.551   3.788 -0.3456  0.5054 -0.5200
 1008MOL0     C35988   7.122   4.569   3.933  1.3127  0.6711  0.5357
 1008MOL0     C35989   7.077   4.716   3.960  0.7211  0.2329 -1.0746
 1008MOL0    Cl35990   7.027   4.742   4.130 -0.3724  0.2007  0.1497
 1008MOL0     C35991   7.664   4.255   3.297  0.2611 -0.1545  0.3982
 1008MOL0     C35992   7.797   4.283   3.294 -0.5901 -0.0027  0.0144
 1008MOL0     O35993   8.079   4.267   3.419 -0.1219  1.0344  0.6060
 1008MOL0     C35994   8.331   4.393   3.427  0.3823 -0.0078 -0.0633
 1008MOL0     C35995   8.461   4.421   3.400  0.3057  0.0073 -0.1690
 1008MOL0     N35996   8.803   5.157   2.911  0.0151 -0.5211  0.1727
 1008MOL0     N35997   8.909   5.193   2.849 -0.4090  0.2961  0.1835
 1008MOL0     C35998  10.291   5.233   2.872 -0.4929 -0.0982 -0.4763
 1008MOL0     C35999  10.426   5.267   2.891  0.7429 -0.5889  0.1605
 1008MOL0     C36000  10.784   5.469   2.922  0.0997 -1.1407 -0.0948
 1008MOL0     C36001  10.851   5.353   2.941 -0.8501  1.1806 -0.7506
 1008MOL0     C36002  10.974   5.352   3.016  0.6811 -0.1460 -0.4054
 1008MOL0     C36003  11.016   5.466   3.074 -0.0928 -0.2983  0.3797
 1008MOL0     O36004  11.146   5.478   3.128  0.5864 -0.6557  0.3057
 1008MOL0     C36005  11.244   5.373   3.124 -0.0846 -0.5451 -0.0888
 1008MOL0     C36006  11.379   5.417   3.164 -0.3704 -0.6001 -0.9827
 1008MOL0     C36007  11.418   5.410   3.320  0.5287 -0.1842  0.1767
 1008MOL0     C36008  11.566   5.457   3.342  0.4664  0.9427  0.0606
 1008MOL0     C36009  11.664   5.350   3.321  0.9633  0.1743 -0.3079
 1008MOL0     C36010  11.751   5.266   3.296 -0.1287 -0.3323  0.2848
 1008MOL0     C36011  10.952   5.591   3.060 -0.3645  0.0493 -0.6129
 1008MOL0     C36012  10.831   5.586   2.988 -0.3356 -0.4495 -1.0797
 1008MOL0     H36013  10.508   5.336   2.570  0.5670 -0.0337  1.2877
 1008MOL0     H36014  10.264   5.343   2.554 -1.8910  0.3534  1.8565
 1008MOL0     H36015  10.022   5.181   2.911 -1.1918  0.1971  1.0585
 1008MOL0     H36016   9.991   5.336   2.830 -0.7983 -0.9960 -1.9975
 1008MOL0     H36017   9.847   5.264   2.680 -3.8953 -1.2489  1.2384
 1008MOL0     H36018   9.896   5.087   2.715  0.8225 -0.5799 -0.0221
 1008MOL0     H36019   9.800   5.152   2.951 -0.7320 -1.1609 -0.7343
 1008MOL0     H36020   9.741   5.299   2.876  0.4548  0.4195 -1.7762
 1008MOL0     H36021   9.626   5.170   2.704 -0.7086 -0.1303  0.5799
 1008MOL0     H36022   9.643   5.020   2.774 -1.7707  0.6244 -1.3743
 1008MOL0     H36023   9.533   5.062   2.973  1.9446 -0.8222 -0.3502
 1008MOL0     H36024   9.523   5.242   2.925 -1.6431 -1.1248  0.7858
 1008MOL0     H36025   9.376   5.141   2.724  0.8153 -0.0866  1.4213
 1008MOL0     H36026   9.397   4.990   2.795  1.8979 -0.1611 -1.7273
 1008MOL0     H36027   9.253   5.059   2.990 -0.9341  0.4042 -0.1771
 1008MOL0     H36028   9.262   5.220   2.942  0.1791 -0.2389  1.8835
 1008MOL0     H36029   9.142   5.013   2.749 -0.7165  0.7494  0.1287
 1008MOL0     H36030   9.132   5.191   2.754  2.0266  2.0673  1.8794
 1008MOL0     H36031   9.022   4.931   3.019  3.4758  1.1907 -2.2956
 1008MOL0     H36032   8.775   5.017   3.186  4.1160  1.0907 -1.3589
 1008MOL0     H36033   8.636   5.022   3.079  0.0161  1.8636  4.3188
 1008MOL0     H36034   8.848   4.803   3.101 -0.8135 -2.8439 -0.1134
 1008MOL0     H36035   8.725   4.803   2.974 -0.4434  0.5263 -0.1801
 1008MOL0     H36036   8.541   4.767   3.130 -0.4654 -1.5363 -0.1557
 1008MOL0     H36037   8.648   4.778   3.269 -1.0116  3.6882 -1.9670
 1008MOL0     H36038   8.786   4.566   3.143 -1.0731 -2.5086 -1.4551
 1008MOL0     H36039   8.645   4.556   3.063  1.3017  0.4546  0.0703
 1008MOL0     H36040   8.423   4.513   3.075 -0.5651 -0.6349 -0.3919
 1008MOL0     H36041   8.154   4.596   3.076 -0.2439 -0.4080  0.9990
 1008MOL0     H36042   8.225   4.465   2.986 -0.7549  1.8643 -0.9229
 1008MOL0     H36043   8.097   4.419   3.097 -3.1013  1.8574 -0.5311
 1008MOL0     H36044   7.785   4.600   3.416  2.6028  0.6341 -2.3848
 1008MOL0     H36045   7.548   4.537   3.443 -0.2599  2.1422 -2.2951
 1008MOL0     H36046   7.389   4.147   3.280 -0.5443  2.2168 -1.9266
 1008MOL0     H36047   7.439   4.151   3.450 -0.6754  0.7672  1.3592
 1008MOL0     H36048   7.180   4.285   3.353  2.1467  0.6299 -1.8991
 1008MOL0     H36049   7.199   4.105   3.391  2.4930 -0.5151  1.5210
 1008MOL0     H36050   7.266   4.161   3.620 -4.1682 -2.0829  1.3784
 1008MOL0     H36051   7.104   4.214   3.592  0.3106 -1.0311 -1.8549
 1008MOL0     H36052   7.343   4.398   3.624  0.0584 -0.0846 -2.0883
 1008MOL0     H36053   7.188   4.442   3.545 -3.3363  1.5265  3.3252
 1008MOL0     H36054   7.215   4.344   3.832  1.5197 -2.1725 -1.7420
 1008MOL0     H36055   7.065   4.359   3.741  0.2369 -1.3796  0.0383
 1008MOL0     H36056   7.256   4.606   3.780 -0.4263  0.6445 -0.5140
 1008MOL0     H36057   7.101   4.604   3.714  1.3890  2.7249 -0.4616
 1008MOL0     H36058   7.206   4.549   4.000 -0.7569 -0.3966  2.9597
 1008MOL0     H36059   7.032   4.510   3.952 -2.6832  6.2078  1.3836
 1008MOL0     H36060   6.994   4.735   3.892 -1.6983 -2.9370  0.7142
 1008MOL0     H36061   7.160   4.785   3.942 -1.5570  3.4957 -0.0131
 1008MOL0     H36062   7.624   4.154   3.292 -1.0359  0.3040  1.0919
 1008MOL0     H36063   7.858   4.202   3.256 -2.9447 -2.0443  0.3646
 1008MOL0     H36064   8.305   4.332   3.513  1.5675 -1.3717 -0.6363
 1008MOL0     H36065   8.534   4.403   3.478 -0.8812 -1.0100  0.7408
 1008MOL0     H36066  10.237   5.182   2.952 -0.2456 -0.0447 -0.2707
 1008MOL0     H36067  10.450   5.262   2.996 -0.9813 -1.1371  0.5628
 1008MOL0     H36068  10.829   5.268   2.877  3.0697  1.7326 -3.1712
 1008MOL0     H36069  11.047   5.273   3.026  1.8103  1.0389  1.3604
 1008MOL0     H36070  11.211   5.299   3.198 -2.0047  1.0161  0.6810
 1008MOL0     H36071  11.258   5.327   3.026  0.9220  0.9651 -0.6805
 1008MOL0     H36072  11.386   5.522   3.136  1.7974 -1.0708 -2.4088
 1008MOL0     H36073  11.455   5.352   3.119 -0.2451 -1.4929  0.4356
 1008MOL0     H36074  11.401   5.304   3.345 -1.3693  0.6140  2.6435
 1008MOL0     H36075  11.345   5.465   3.380 -0.3548 -0.1101 -0.9384
 1008MOL0     H36076  11.575   5.506   3.439 -1.1737 -0.1014  0.7801
 1008MOL0     H36077  11.591   5.532   3.266 -2.0592  2.2042  0.3634
 1008MOL0     H36078  11.819   5.183   3.290 -1.9969 -2.2728  3.1775
 1008MOL0     H36079  11.001   5.680   3.097 -0.5959  0.2472 -0.7838
 1008MOL0     H36080  10.768   5.673   2.974 -1.4450 -1.0910 -0.3174
 1009MOL0     O36081   2.080   2.807  10.081 -0.1708  0.4403 -0.8596
 1009MOL0     C36082   2.033   2.718  10.158  0.1473 -0.7240 -0.5416
 1009MOL0     O36083   2.105   2.604  10.206  0.7779 -0.4278 -0.5270
 1009MOL0     C36084   2.236   2.593  10.177  0.0780  1.3380 -0.1933
 1009MOL0     C36085   2.281   2.604  10.046 -0.0386  0.0313  0.0074
 1009MOL0     C36086   2.416   2.587  10.014 -0.8300 -0.1626 -0.6859
 1009MOL0     C36087   2.511   2.559  10.117 -0.3146 -0.2159  0.4982
 1009MOL0     O36088   2.648   2.547  10.089 -0.4104 -0.1115  0.1285
 1009MOL0     C36089   2.680   2.487   9.966 -0.2966  0.2173 -0.2596
 1009MOL0     C36090   2.821   2.429   9.975  0.8783 -0.2040  0.3744
 1009MOL0     C36091   2.850   2.336   9.852 -0.6796  0.1040 -0.0602
 1009MOL0     C36092   2.942   2.218   9.899 -0.0244  0.1594 -0.5305
 1009MOL0     C36093   2.967   2.109   9.795  0.3660 -1.2817  0.7376
 1009MOL0     C36094   3.072   2.012   9.846 -0.3437 -0.1376  1.1603
 1009MOL0     C36095   3.042   1.885   9.765 -0.8242 -0.9333  0.2623
 1009MOL0     C36096   3.147   1.866   9.653 -0.4948  0.2570  0.7790
 1009MOL0     N36097   3.101   1.753   9.577  0.2882 -0.1300  0.0064
 1009MOL0     C36098   2.992   1.757   9.484  0.5711 -0.4040  0.5404
 1009MOL0     C36099   2.978   1.635   9.440 -0.1099  0.3073 -0.5340
 1009MOL0     C36100   2.870   1.603   9.344  0.2922 -0.3061 -0.3454
 1009MOL0     C36101   2.767   1.488   9.397  0.1260  0.5464  0.2765
 1009MOL0     C36102   2.654   1.445   9.305 -0.3251  0.6966  0.2361
 1009MOL0     C36103   2.571   1.564   9.252 -0.0213 -0.8730 -0.3543
 1009MOL0     O36104   2.463   1.530   9.165 -0.1965  0.1294  0.9212
 1009MOL0     C36105   2.336   1.494   9.202  0.3599  0.4071  0.3246
 1009MOL0     C36106   2.306   1.463   9.337 -0.1582 -0.3751  0.2250
 1009MOL0     C36107   2.179   1.413   9.374  0.1461  0.1001 -0.2235
 1009MOL0     C36108   2.151   1.418   9.518 -0.6762  0.1964 -1.0508
 1009MOL0     C36109   2.075   1.401   9.274  0.1142 -0.1481 -0.7533
 1009MOL0     C36110   1.933   1.358   9.311 -0.4467  0.5288  0.4213
 1009MOL0     O36111   1.886   1.377   9.440 -0.7090 -0.5217  0.6872
 1009MOL0     C36112   1.755   1.394   9.458 -0.6122  0.0212  0.4456
 1009MOL0     C36113   1.707   1.360   9.584 -0.5998  0.7963  0.9491
 1009MOL0     C36114   1.570   1.364   9.614 -0.5355 -0.2701 -0.2615
 1009MOL0     C36115   1.475   1.390   9.518  0.1184 -0.3570 -0.3053
 1009MOL0     O36116   1.336   1.392   9.538  0.1376  0.1755 -0.0936
 1009MOL0     C36117   1.291   1.366   9.672  0.0450 -0.8149 -0.0779
 1009MOL0     C36118   1.148   1.420   9.695 -0.7390 -0.4612 -0.1508
 1009MOL0     C36119   1.033   1.336   9.637 -0.0325 -0.3755  0.3451
 1009MOL0     C36120   1.042   1.305   9.490 -0.0201  0.2139 -0.0996
 1009MOL0     C36121   0.905   1.248   9.450  0.6342 -0.2530  0.4676
 1009MOL0     C36122   0.802   1.345   9.405 -0.3067  0.0857 -0.5658
 1009MOL0     C36123   0.659   1.290   9.408  0.3249 -0.3810 -0.8374
 1009MOL0     C36124   0.574   1.378   9.315  1.8934  0.8512 -0.3859
 1009MOL0    Cl36125   0.406   1.332   9.334  0.2350  0.6664 -0.3446
 1009MOL0     C36126   1.520   1.420   9.384  0.5315  0.0714 -0.2777
 1009MOL0     C36127   1.662   1.428   9.359  0.4207  0.1606 -0.5993
 1009MOL0     O36128   1.875   1.302   9.215 -0.1403 -0.1676 -0.1911
 1009MOL0     C36129   2.110   1.431   9.134  0.8728 -0.9745 -0.2243
 1009MOL0     C36130   2.236   1.472   9.101 -0.6986 -0.6735 -0.5190
 1009MOL0     N36131   3.075   1.555   9.488 -0.5048  0.4436 -0.3102
 1009MOL0     N36132   3.147   1.622   9.577  0.1612 -0.0339 -0.1137
 1009MOL0     C36133   2.474   2.557  10.246  0.3846  0.5118 -0.1945
 1009MOL0     C36134   2.343   2.579  10.274 -0.1816  0.0009  0.1934
 1009MOL0     C36135   1.896   2.741  10.199  0.4402  0.5454 -0.3639
 1009MOL0     C36136   1.814   2.839  10.133  0.0317 -0.8836 -0.1152
 1009MOL0     C36137   1.677   2.851  10.177 -0.4997 -0.3528  0.3148
 1009MOL0     C36138   1.625   2.776  10.286 -0.1718  1.4725  0.1571
 1009MOL0     O36139   1.499   2.775  10.326  0.8873 -0.4054 -0.1024
 1009MOL0     C36140   1.407   2.871  10.272  0.7803 -0.5011 -0.8645
 1009MOL0     C36141   1.272   2.868  10.352 -1.0196  0.0699  0.2959
 1009MOL0     C36142   1.175   2.974  10.295 -0.1660 -0.6095  0.0678
 1009MOL0     C36143   1.039   2.948  10.342 -0.3891 -0.6944  0.1896
 1009MOL0     C36144   0.957   3.071  10.315  0.2817 -0.6138  0.1133
 1009MOL0     C36145   0.872   3.150  10.280  0.5565  0.4767 -0.2834
 1009MOL0     C36146   1.716   2.689  10.352  0.4062  0.8609 -0.3018
 1009MOL0     C36147   1.844   2.671  10.310  0.2756 -0.4342  0.2180
 1009MOL0     H36148   2.223   2.631   9.958 -0.5198  0.5705  0.4892
 1009MOL0     H36149   2.445   2.571   9.911 -2.8388 -0.2885 -1.2701
 1009MOL0     H36150   2.613   2.402   9.951  1.0197 -0.8355 -0.3372
 1009MOL0     H36151   2.677   2.558   9.882 -0.6178 -0.2783 -0.6754
 1009MOL0     H36152   2.889   2.513   9.988 -1.2936  1.8123 -0.5371
 1009MOL0     H36153   2.835   2.372  10.068 -1.6846  1.3246  1.8259
 1009MOL0     H36154   2.759   2.300   9.802 -1.4800 -0.1067  1.4857
 1009MOL0     H36155   2.909   2.390   9.777 -3.2875  1.5950 -1.1785
 1009MOL0     H36156   3.040   2.257   9.928  0.4996  0.1559 -2.1875
 1009MOL0     H36157   2.900   2.180   9.993  1.2569  1.4766  0.6254
 1009MOL0     H36158   2.871   2.062   9.769 -2.3677  4.0315 -0.1621
 1009MOL0     H36159   3.004   2.151   9.701 -0.4332  0.9834  1.3737
 1009MOL0     H36160   3.177   2.041   9.833  0.0593 -2.0357 -0.3127
 1009MOL0     H36161   3.059   1.988   9.952  1.0551 -1.6704  1.0412
 1009MOL0     H36162   3.061   1.799   9.829  0.9772  0.8502  2.3227
 1009MOL0     H36163   2.940   1.873   9.728 -0.0177 -3.4622 -1.3815
 1009MOL0     H36164   3.247   1.852   9.696  0.8559  1.1838 -1.8830
 1009MOL0     H36165   3.147   1.959   9.596 -2.0244  0.3365  0.8897
 1009MOL0     H36166   2.930   1.840   9.451 -0.5778 -2.0931 -1.8152
 1009MOL0     H36167   2.801   1.688   9.332  2.5555  1.4419 -1.7669
 1009MOL0     H36168   2.916   1.573   9.250 -1.9047  0.4128 -1.7187
 1009MOL0     H36169   2.704   1.533   9.474 -2.8838 -0.8145 -1.2286
 1009MOL0     H36170   2.827   1.407   9.440  1.6837  2.4406  1.8738
 1009MOL0     H36171   2.588   1.376   9.358  0.3758 -1.0968 -1.1234
 1009MOL0     H36172   2.677   1.394   9.211 -1.9597 -1.3793  0.8951
 1009MOL0     H36173   2.643   1.621   9.193  0.3523 -0.4946  0.4526
 1009MOL0     H36174   2.539   1.631   9.333  1.7176 -0.2619 -0.1418
 1009MOL0     H36175   2.377   1.489   9.414 -2.8191  2.1494  2.0427
 1009MOL0     H36176   2.067   1.484   9.544 -0.0686  0.5963 -0.0462
 1009MOL0     H36177   2.118   1.321   9.556 -0.8231  1.4416  2.3455
 1009MOL0     H36178   2.238   1.447   9.577 -0.9425 -0.7958 -0.1251
 1009MOL0     H36179   1.763   1.326   9.670 -1.3048 -2.6891  0.1594
 1009MOL0     H36180   1.541   1.328   9.712  0.2901  0.5540  0.3061
 1009MOL0     H36181   1.300   1.259   9.695  3.4094 -0.6485 -0.1000
 1009MOL0     H36182   1.355   1.419   9.742  1.5551  0.5036 -2.3505
 1009MOL0     H36183   1.125   1.431   9.802 -0.6455 -0.0097 -0.1740
 1009MOL0     H36184   1.140   1.522   9.656 -1.0706 -0.0942  0.8404
 1009MOL0     H36185   0.944   1.396   9.659 -1.1406 -1.3130 -1.3423
 1009MOL0     H36186   1.022   1.245   9.697 -2.6053  0.3483  1.1163
 1009MOL0     H36187   1.068   1.392   9.428 -0.5613  0.3023 -0.2055
 1009MOL0     H36188   1.122   1.232   9.470 -0.8492 -0.8893  0.4962
 1009MOL0     H36189   0.872   1.180   9.529  1.2400 -0.0745  0.8773
 1009MOL0     H36190   0.924   1.192   9.358 -3.6444  1.2020 -1.5646
 1009MOL0     H36191   0.811   1.430   9.472  0.3300 -0.2410 -0.2292
 1009MOL0     H36192   0.836   1.375   9.305 -0.0365  0.5026 -0.3507
 1009MOL0     H36193   0.632   1.304   9.513  2.2653 -1.8673 -0.0831
 1009MOL0     H36194   0.653   1.182   9.394  2.1368 -0.5873 -0.3831
 1009MOL0     H36195   0.590   1.350   9.210 -1.5137 -0.0166 -0.8104
 1009MOL0     H36196   0.591   1.485   9.326  1.6451  0.8410  0.1147
 1009MOL0     H36197   1.451   1.452   9.306  1.2074  0.6589 -0.6556
 1009MOL0     H36198   1.689   1.443   9.255  0.8471  0.4077 -0.4566
 1009MOL0     H36199   2.044   1.423   9.048  2.2926 -1.3974 -1.3093
 1009MOL0     H36200   2.257   1.481   8.995 -0.0167  2.0622 -0.2393
 1009MOL0     H36201   2.549   2.548  10.324 -0.5295  3.6676  1.2228
 1009MOL0     H36202   2.297   2.587  10.372  0.7166  0.1480  0.6169
 1009MOL0     H36203   1.857   2.891  10.048  0.2957 -1.0471 -0.0824
 1009MOL0     H36204   1.622   2.927  10.122  1.6953  0.1691 -1.3022
 1009MOL0     H36205   1.449   2.971  10.288 -2.7886  1.1109 -0.5195
 1009MOL0     H36206   1.399   2.849  10.166 -1.8280 -0.9012 -0.6452
 1009MOL0     H36207   1.299   2.895  10.454  3.7443  0.0476 -0.7244
 1009MOL0     H36208   1.225   2.769  10.349  1.2692 -1.1386  1.6084
 1009MOL0     H36209   1.167   2.971  10.186 -1.8876 -0.5928  0.1576
 1009MOL0     H36210   1.218   3.071  10.323  1.1705 -0.3734 -2.4417
 1009MOL0     H36211   1.041   2.933  10.450  0.3120 -1.4531  0.0748
 1009MOL0     H36212   0.993   2.854  10.309 -1.0952 -0.2720 -0.0731
 1009MOL0     H36213   0.803   3.230  10.263  0.5545  0.1264 -2.1016
 1009MOL0     H36214   1.678   2.621  10.427  1.4369 -2.5170 -2.6424
 1009MOL0     H36215   1.904   2.594  10.358  1.9205  1.5867  1.5936
 1010MOL0     O36216   8.192   1.620  11.322 -0.6532  0.0643  0.3778
 1010MOL0     C36217   8.257   1.637  11.424 -0.2420 -1.2318 -0.7848
 1010MOL0     O36218   8.203   1.628  11.550 -0.3209  0.1715  0.6817
 1010MOL0     C36219   8.066   1.598  11.563  0.2253 -0.1401 -0.2946
 1010MOL0     C36220   8.007   1.484  11.513 -0.8200 -0.0406 -0.4225
 1010MOL0     C36221   7.875   1.443  11.552 -0.2337  0.2925 -0.7360
 1010MOL0     C36222   7.800   1.520  11.649 -0.0017  0.1099 -0.5165
 1010MOL0     O36223   7.675   1.474  11.686 -0.0887 -0.2353 -0.1844
 1010MOL0     C36224   7.593   1.556  11.768  0.2042  0.5869  0.0225
 1010MOL0     C36225   7.461   1.494  11.785  0.7509 -0.0013 -1.0412
 1010MOL0     C36226   7.368   1.510  11.668 -0.6428 -1.3535 -0.0627
 1010MOL0     C36227   7.233   1.443  11.683  0.0734  0.3441 -0.5013
 1010MOL0     C36228   7.142   1.471  11.570  0.1448 -0.0672 -0.0475
 1010MOL0     C36229   7.005   1.442  11.599  0.4422  0.1620  0.4722
 1010MOL0     C36230   6.905   1.488  11.489 -0.1535  0.2235 -0.3462
 1010MOL0     C36231   6.759   1.427  11.523 -0.0424 -0.1023 -0.3669
 1010MOL0     N36232   6.667   1.442  11.414  0.4116  0.9252  0.0722
 1010MOL0     C36233   6.676   1.492  11.286  0.2267 -0.2089  0.2794
 1010MOL0     C36234   6.552   1.514  11.244  0.4279  0.1865  0.6705
 1010MOL0     C36235   6.513   1.577  11.118 -0.8325  1.5340 -0.4650
 1010MOL0     C36236   6.360   1.589  11.102 -0.0584 -0.0733  0.0766
 1010MOL0     C36237   6.287   1.678  11.205  0.4089  0.1119 -0.8603
 1010MOL0     C36238   6.134   1.655  11.208 -1.4055 -0.3741 -0.2300
 1010MOL0     O36239   6.069   1.701  11.087  0.4857 -0.7359 -0.2242
 1010MOL0     C36240   5.929   1.726  11.088  0.3281  0.6485 -0.6588
 1010MOL0     C36241   5.840   1.644  11.160  0.6982 -0.0241 -0.2312
 1010MOL0     C36242   5.692   1.661  11.157  0.0851 -0.6754 -0.6504
 1010MOL0     C36243   5.601   1.564  11.214  0.0787 -0.5939  0.5003
 1010MOL0     C36244   5.648   1.783  11.107  0.5978  0.1433 -1.1432
 1010MOL0     C36245   5.507   1.832  11.108  0.8014  0.2828 -0.5497
 1010MOL0     O36246   5.469   1.968  11.114 -0.7097 -0.4129 -0.0838
 1010MOL0     C36247   5.347   2.018  11.087 -0.1137  0.4378 -1.2655
 1010MOL0     C36248   5.298   2.136  11.143 -0.0307 -0.4012 -0.0799
 1010MOL0     C36249   5.177   2.213  11.105 -1.0432  0.2028  0.7147
 1010MOL0     C36250   5.113   2.161  11.001 -0.3179 -0.3693 -0.4208
 1010MOL0     O36251   5.002   2.229  10.968 -0.3777  0.0958  0.0024
 1010MOL0     C36252   4.889   2.133  10.932  0.5463 -0.1457  0.5136
 1010MOL0     C36253   4.758   2.218  10.919 -0.2039  0.2712 -0.9460
 1010MOL0     C36254   4.752   2.317  10.797 -0.1923 -0.0736 -0.6580
 1010MOL0     C36255   4.616   2.393  10.782  0.3748 -0.6368 -1.1589
 1010MOL0     C36256   4.489   2.300  10.816 -0.3375  0.0780 -0.5152
 1010MOL0     C36257   4.358   2.373  10.766 -1.1437  0.0315 -0.0280
 1010MOL0     C36258   4.242   2.276  10.781  0.2998  0.1814 -0.3286
 1010MOL0     C36259   4.126   2.331  10.700 -0.0305  0.0279  0.8188
 1010MOL0    Cl36260   4.093   2.502  10.740 -0.3076  0.4251  0.3839
 1010MOL0     C36261   5.159   2.034  10.939  0.5946 -0.3902 -1.2511
 1010MOL0     C36262   5.279   1.971  10.978 -0.4258  1.2328  0.2292
 1010MOL0     O36263   5.424   1.743  11.106 -0.3943  1.1250  0.7520
 1010MOL0     C36264   5.741   1.862  11.047  0.0830 -0.8602 -0.7926
 1010MOL0     C36265   5.872   1.832  11.024  0.0274 -0.3659 -0.5323
 1010MOL0     N36266   6.469   1.459  11.345  0.0885 -0.1187  0.1998
 1010MOL0     N36267   6.540   1.419  11.444 -0.1194 -0.2894  0.8963
 1010MOL0     C36268   7.868   1.636  11.703 -0.7242  0.3885  0.2935
 1010MOL0     C36269   7.997   1.681  11.661  1.0898  0.1080 -0.1880
 1010MOL0     C36270   8.383   1.704  11.412  0.5605 -0.1710  0.5436
 1010MOL0     C36271   8.483   1.704  11.520 -0.5048 -0.7870 -0.6048
 1010MOL0     C36272   8.609   1.755  11.499 -0.0005  0.4836 -0.2113
 1010MOL0     C36273   8.651   1.803  11.377  0.6131  0.1643  0.4615
 1010MOL0     O36274   8.772   1.840  11.332 -0.3769  0.1858 -0.0485
 1010MOL0     C36275   8.877   1.858  11.435 -0.0630  0.1380  0.0941
 1010MOL0     C36276   8.990   1.950  11.383 -0.1960 -0.6100  0.1255
 1010MOL0     C36277   9.098   1.964  11.486 -0.0812 -0.0371 -0.4286
 1010MOL0     C36278   9.236   2.023  11.439  0.0400  0.4349 -0.2586
 1010MOL0     C36279   9.226   2.166  11.429  0.3627  0.3567 -0.3200
 1010MOL0     C36280   9.215   2.286  11.423 -0.4314 -0.6140 -0.3513
 1010MOL0     C36281   8.562   1.795  11.270 -0.1027  0.2363  0.1786
 1010MOL0     C36282   8.430   1.744  11.286 -0.3481  0.5684 -0.1598
 1010MOL0     H36283   8.063   1.424  11.443 -2.3733  1.4734 -3.1370
 1010MOL0     H36284   7.836   1.348  11.516 -3.0860  1.5404 -1.1402
 1010MOL0     H36285   7.645   1.572  11.863 -0.1085  0.6408  0.1834
 1010MOL0     H36286   7.578   1.651  11.717 -2.2420 -0.0992 -0.6461
 1010MOL0     H36287   7.468   1.388  11.812 -0.0059 -0.5106 -2.7022
 1010MOL0     H36288   7.419   1.547  11.871  4.8896  2.5979 -0.3323
 1010MOL0     H36289   7.341   1.615  11.648 -0.7601 -1.6489 -1.5653
 1010MOL0     H36290   7.421   1.459  11.587 -1.1291 -5.3107  1.9236
 1010MOL0     H36291   7.251   1.336  11.699  3.2411  0.9487  0.8861
 1010MOL0     H36292   7.196   1.484  11.778  2.0331 -3.3904  2.1324
 1010MOL0     H36293   7.156   1.577  11.548  2.6414 -0.5037 -0.8412
 1010MOL0     H36294   7.183   1.423  11.480 -1.0286  1.2356 -1.3233
 1010MOL0     H36295   6.993   1.333  11.598 -2.3154  0.4022  0.0268
 1010MOL0     H36296   6.980   1.479  11.698  2.2138 -0.2850  1.1195
 1010MOL0     H36297   6.897   1.598  11.489 -3.1482  0.1287  2.0859
 1010MOL0     H36298   6.940   1.445  11.394  0.2422 -0.3411  0.0528
 1010MOL0     H36299   6.717   1.482  11.608  0.9957  1.6162 -0.9266
 1010MOL0     H36300   6.769   1.323  11.555 -1.0208 -0.1485 -0.1899
 1010MOL0     H36301   6.767   1.531  11.241  0.6383  0.4639  1.6408
 1010MOL0     H36302   6.565   1.672  11.101 -0.0882  1.4275  1.0119
 1010MOL0     H36303   6.564   1.512  11.046  1.2019 -0.4342  2.5202
 1010MOL0     H36304   6.322   1.487  11.093  1.5282 -0.5118 -3.1567
 1010MOL0     H36305   6.333   1.631  11.005 -4.5483 -0.1324  1.0688
 1010MOL0     H36306   6.305   1.785  11.191  0.1184  0.1763 -0.7516
 1010MOL0     H36307   6.308   1.654  11.309 -3.0773 -3.9824 -0.8007
 1010MOL0     H36308   6.087   1.715  11.286 -2.6676 -1.0850 -0.4200
 1010MOL0     H36309   6.104   1.556  11.242  1.1407 -1.4121 -0.8022
 1010MOL0     H36310   5.875   1.551  11.205 -1.1116  0.6307  2.7593
 1010MOL0     H36311   5.539   1.512  11.140  1.5233 -2.2941  0.4183
 1010MOL0     H36312   5.661   1.484  11.259 -0.2951 -2.0738 -1.4941
 1010MOL0     H36313   5.542   1.607  11.296 -1.0040  0.8676 -0.9796
 1010MOL0     H36314   5.353   2.186  11.222  0.6495  0.1457 -0.8712
 1010MOL0     H36315   5.143   2.304  11.152  0.8708  1.0491  0.5687
 1010MOL0     H36316   4.908   2.089  10.833 -1.8959 -1.5853  0.6024
 1010MOL0     H36317   4.877   2.052  11.003 -1.5558 -4.0483 -3.7603
 1010MOL0     H36318   4.681   2.141  10.919  1.1542 -1.3215  2.6089
 1010MOL0     H36319   4.748   2.276  11.012  1.8775  0.1401 -0.5872
 1010MOL0     H36320   4.779   2.266  10.704  1.6109  0.0568 -0.2315
 1010MOL0     H36321   4.831   2.391  10.811  0.2928 -0.6076 -0.5567
 1010MOL0     H36322   4.617   2.487  10.838 -0.9761  0.6564 -3.1671
 1010MOL0     H36323   4.614   2.437  10.681 -1.4389  1.3087 -0.3433
 1010MOL0     H36324   4.475   2.270  10.921  0.0569  0.6044 -0.3074
 1010MOL0     H36325   4.504   2.209  10.757 -3.3827 -1.6161  1.0702
 1010MOL0     H36326   4.339   2.461  10.828 -1.7668 -2.2778  3.3719
 1010MOL0     H36327   4.369   2.401  10.661 -1.9470  2.4720  0.4793
 1010MOL0     H36328   4.216   2.265  10.886 -0.8898  0.4440 -0.5746
 1010MOL0     H36329   4.263   2.177  10.739  0.4995 -0.5236  1.3640
 1010MOL0     H36330   4.034   2.272  10.712  0.1962 -0.3667  0.6330
 1010MOL0     H36331   4.158   2.342  10.596 -1.2425  0.6568  0.4937
 1010MOL0     H36332   5.093   1.993  10.863 -2.3161 -0.8747  1.3523
 1010MOL0     H36333   5.324   1.891  10.919  2.2111  0.4011  3.0396
 1010MOL0     H36334   5.711   1.960  11.010  1.7069  0.4211  1.0662
 1010MOL0     H36335   5.937   1.896  10.964  1.6266 -1.7806 -0.3890
 1010MOL0     H36336   7.827   1.692  11.786  0.0301  0.8432  0.3698
 1010MOL0     H36337   8.038   1.770  11.708  0.7887 -0.6399  1.5501
 1010MOL0     H36338   8.479   1.661  11.620  2.7128  1.4477  0.6834
 1010MOL0     H36339   8.680   1.763  11.580  0.4087  1.1899 -0.6326
 1010MOL0     H36340   8.848   1.888  11.536  2.7592 -0.5152  1.1821
 1010MOL0     H36341   8.923   1.761  11.454 -0.1315  0.4694  2.1555
 1010MOL0     H36342   8.952   2.047  11.351  2.0368 -0.3213 -1.9553
 1010MOL0     H36343   9.030   1.899  11.295 -2.5580  2.3428 -2.9244
 1010MOL0     H36344   9.126   1.866  11.528  1.2207  0.8063  0.7542
 1010MOL0     H36345   9.054   2.025  11.565  0.3094  0.7786 -0.8386
 1010MOL0     H36346   9.264   1.987  11.340 -1.5435 -1.0094 -0.2339
 1010MOL0     H36347   9.313   1.990  11.510  1.5242 -0.5506 -2.2289
 1010MOL0     H36348   9.197   2.391  11.411 -2.3633 -0.8181  0.4420
 1010MOL0     H36349   8.594   1.814  11.168  0.7318  0.6208  0.5085
 1010MOL0     H36350   8.376   1.726  11.194 -0.8102 -2.6978  0.6387
 1011MOL0     O36351   5.783   8.323   9.067 -0.3003 -0.8590  0.0697
 1011MOL0     C36352   5.791   8.313   9.193  0.3799  0.2314  0.6760
 1011MOL0     O36353   5.693   8.357   9.283  0.1388  0.7091  0.9519
 1011MOL0     C36354   5.566   8.399   9.236 -0.4683  0.3855  0.2725
 1011MOL0     C36355   5.548   8.536   9.205 -0.8766 -1.0672 -0.1621
 1011MOL0     C36356   5.418   8.579   9.163  0.4606  0.0954  0.2716
 1011MOL0     C36357   5.314   8.483   9.135 -0.3962  0.2646  1.0118
 1011MOL0     O36358   5.189   8.528   9.086 -0.1158 -0.3487 -0.2653
 1011MOL0     C36359   5.199   8.653   9.015  0.4278 -0.1300  0.1828
 1011MOL0     C36360   5.065   8.697   8.954  0.2050 -0.2713  0.0238
 1011MOL0     C36361   4.940   8.659   9.038 -0.0404  0.5636  1.0386
 1011MOL0     C36362   4.915   8.774   9.131  0.0941  0.6113 -0.2448
 1011MOL0     C36363   4.805   8.734   9.228 -0.6040 -1.0728 -0.3738
 1011MOL0     C36364   4.672   8.689   9.158 -0.0808  0.1008  0.7026
 1011MOL0     C36365   4.568   8.667   9.263  0.4334  0.0732 -0.6880
 1011MOL0     C36366   4.440   8.616   9.211 -0.3526 -0.0572 -0.4418
 1011MOL0     N36367   4.356   8.563   9.317 -0.3718  1.1995  0.4052
 1011MOL0     C36368   4.324   8.608   9.442  0.2645  0.9708  0.0362
 1011MOL0     C36369   4.245   8.506   9.496 -0.9395 -0.3104  0.3968
 1011MOL0     C36370   4.186   8.510   9.628 -0.0335  0.1540  0.0879
 1011MOL0     C36371   4.056   8.596   9.644 -0.4980 -0.7396  0.4855
 1011MOL0     C36372   3.930   8.537   9.570 -0.8046  1.1073 -0.1219
 1011MOL0     C36373   3.836   8.641   9.533 -0.6910 -0.4515 -0.0185
 1011MOL0     O36374   3.741   8.575   9.433 -0.6980  0.2436 -0.3428
 1011MOL0     C36375   3.679   8.655   9.340 -0.9720  0.5138 -0.1141
 1011MOL0     C36376   3.623   8.580   9.238  0.4209  0.8661  0.4484
 1011MOL0     C36377   3.558   8.645   9.129  0.7862 -0.3426 -0.9312
 1011MOL0     C36378   3.526   8.544   9.020 -0.1388  0.2813  0.2542
 1011MOL0     C36379   3.540   8.784   9.131  0.0649 -0.2655 -0.0290
 1011MOL0     C36380   3.482   8.857   9.021  1.2282  1.0411  0.1395
 1011MOL0     O36381   3.384   8.795   8.948 -0.5704  0.2396  0.7044
 1011MOL0     C36382   3.354   8.840   8.826 -0.0844  0.2573  0.9796
 1011MOL0     C36383   3.400   8.786   8.703  0.9535  0.3791 -0.0071
 1011MOL0     C36384   3.356   8.845   8.582  0.3463  0.0494 -0.3614
 1011MOL0     C36385   3.272   8.954   8.574  0.1587  1.0851 -0.8633
 1011MOL0     O36386   3.235   9.007   8.455  0.1308 -0.0042 -0.1416
 1011MOL0     C36387   3.102   9.068   8.454 -1.1760  0.3678 -0.0044
 1011MOL0     C36388   3.062   9.078   8.314 -0.0775  0.3404  0.1350
 1011MOL0     C36389   2.913   9.122   8.299  0.0636  0.4841  0.6037
 1011MOL0     C36390   2.880   9.164   8.162 -0.1682 -0.5018  0.1514
 1011MOL0     C36391   2.957   9.288   8.102 -0.5285 -0.0738  0.0517
 1011MOL0     C36392   2.905   9.317   7.968  0.0769 -0.3932  0.1409
 1011MOL0     C36393   2.988   9.437   7.912 -0.5062  0.2237  0.3216
 1011MOL0     C36394   2.956   9.435   7.756 -0.0011  0.2596  0.1763
 1011MOL0    Cl36395   2.779   9.423   7.730 -0.4339  0.0530 -0.3223
 1011MOL0     C36396   3.237   9.018   8.695  0.2211  0.5944 -0.2759
 1011MOL0     C36397   3.273   8.955   8.815 -0.1458  0.7584 -1.1870
 1011MOL0     O36398   3.528   8.968   8.996  0.3539 -0.2973 -0.1371
 1011MOL0     C36399   3.607   8.859   9.230  0.2792  0.1990  0.3729
 1011MOL0     C36400   3.674   8.800   9.338 -0.2471 -0.4038 -0.6790
 1011MOL0     N36401   4.246   8.400   9.407 -0.5396 -0.3947  0.9251
 1011MOL0     N36402   4.323   8.426   9.308 -0.1762 -0.6336  0.0157
 1011MOL0     C36403   5.340   8.349   9.177 -0.0223 -1.0482 -0.1885
 1011MOL0     C36404   5.457   8.311   9.241  0.4973  0.4526 -0.2960
 1011MOL0     C36405   5.906   8.248   9.256  0.2253  0.7357 -0.7776
 1011MOL0     C36406   5.930   8.247   9.389  0.5606 -0.7036  0.2882
 1011MOL0     C36407   6.059   8.188   9.433 -0.7764 -0.3400 -0.0452
 1011MOL0     C36408   6.159   8.138   9.354 -0.0475  0.9030 -0.0221
 1011MOL0     O36409   6.262   8.062   9.409 -0.4089 -0.9032  0.0046
 1011MOL0     C36410   6.377   8.047   9.321  0.0657 -0.3876 -0.6421
 1011MOL0     C36411   6.504   8.008   9.402 -0.9639 -0.6534 -0.4839
 1011MOL0     C36412   6.513   8.095   9.535 -1.2008 -0.2520  0.2658
 1011MOL0     C36413   6.424   8.020   9.645  0.6417  0.1938  0.8786
 1011MOL0     C36414   6.494   7.923   9.725 -0.0667  0.0355 -0.6530
 1011MOL0     C36415   6.553   7.829   9.775  0.2424 -0.2210 -0.4506
 1011MOL0     C36416   6.124   8.136   9.216  0.8137  0.3717 -0.1188
 1011MOL0     C36417   6.008   8.197   9.171 -0.0230 -0.3874 -0.0086
 1011MOL0     H36418   5.626   8.612   9.213 -3.2505  1.4282  0.9680
 1011MOL0     H36419   5.410   8.685   9.141 -2.7952  0.2689  1.7874
 1011MOL0     H36420   5.229   8.725   9.093  1.2872 -0.1043 -0.1567
 1011MOL0     H36421   5.283   8.661   8.945  0.8378  2.0636  0.8185
 1011MOL0     H36422   5.073   8.805   8.940 -0.8593 -0.2904 -0.8630
 1011MOL0     H36423   5.053   8.650   8.856 -1.1776 -0.8609  0.4491
 1011MOL0     H36424   4.864   8.631   8.964  0.8919  2.2425 -0.6180
 1011MOL0     H36425   4.947   8.564   9.092  2.9074 -0.5729 -1.0878
 1011MOL0     H36426   5.001   8.808   9.190  0.0208  1.8045 -0.8137
 1011MOL0     H36427   4.885   8.863   9.076  1.9342  1.9210  0.7693
 1011MOL0     H36428   4.835   8.650   9.292  0.3344 -1.0998 -0.8395
 1011MOL0     H36429   4.789   8.821   9.293  1.4285 -0.3304 -0.8162
 1011MOL0     H36430   4.647   8.773   9.092 -0.1591 -1.7160 -1.7124
 1011MOL0     H36431   4.686   8.607   9.087 -3.5395  0.9273 -1.1945
 1011MOL0     H36432   4.606   8.608   9.348 -0.3836  0.1376 -0.2690
 1011MOL0     H36433   4.554   8.765   9.311  2.6209  0.1774 -0.1582
 1011MOL0     H36434   4.449   8.544   9.129  1.5908 -0.4301  0.0654
 1011MOL0     H36435   4.382   8.703   9.179  0.3912  1.1309  1.2920
 1011MOL0     H36436   4.349   8.696   9.501  4.7799 -1.1908  1.8086
 1011MOL0     H36437   4.148   8.415   9.664 -0.4323  0.6211  0.9379
 1011MOL0     H36438   4.264   8.545   9.697  1.1863 -1.0356 -0.6314
 1011MOL0     H36439   4.069   8.697   9.603 -0.9510 -1.9604 -3.0413
 1011MOL0     H36440   4.034   8.600   9.751  1.1728  0.3089  0.8136
 1011MOL0     H36441   3.890   8.454   9.630  1.7378 -0.4321 -0.4108
 1011MOL0     H36442   3.966   8.497   9.475  0.3867  1.0201  0.3435
 1011MOL0     H36443   3.887   8.730   9.497 -1.5127  0.5743  1.2551
 1011MOL0     H36444   3.774   8.674   9.617 -0.1494  1.0754 -0.1958
 1011MOL0     H36445   3.644   8.474   9.230  0.8712  0.8571  1.5667
 1011MOL0     H36446   3.577   8.447   9.024 -1.1689 -0.4334 -2.2536
 1011MOL0     H36447   3.419   8.532   8.999  0.9909 -3.7217 -5.0471
 1011MOL0     H36448   3.562   8.585   8.926  0.9869 -0.2948  0.4217
 1011MOL0     H36449   3.453   8.691   8.696  0.1693 -0.3381  2.5304
 1011MOL0     H36450   3.386   8.790   8.494  0.5436 -1.5066  0.6276
 1011MOL0     H36451   3.027   8.997   8.491 -2.1036  0.6179 -1.3345
 1011MOL0     H36452   3.097   9.166   8.502  3.5466  0.5354  0.6307
 1011MOL0     H36453   3.125   9.157   8.272 -3.4885  2.5147 -1.3219
 1011MOL0     H36454   3.078   8.985   8.260 -0.2797  0.0331  0.6008
 1011MOL0     H36455   2.891   9.198   8.374  1.0405  0.5867  0.8052
 1011MOL0     H36456   2.856   9.031   8.316  0.6968  0.5425  3.5748
 1011MOL0     H36457   2.903   9.084   8.091 -0.0425  0.2885 -0.7213
 1011MOL0     H36458   2.772   9.176   8.154 -0.1147  2.3562  2.4406
 1011MOL0     H36459   3.060   9.259   8.081 -0.6739 -0.7398  0.2367
 1011MOL0     H36460   2.972   9.379   8.160  1.8951 -1.0284  1.0350
 1011MOL0     H36461   2.905   9.230   7.902 -0.0204  0.6220 -1.2356
 1011MOL0     H36462   2.800   9.348   7.976  0.3032  0.1107  1.4270
 1011MOL0     H36463   3.097   9.429   7.912 -0.3765  0.4122 -2.9657
 1011MOL0     H36464   2.958   9.532   7.956 -1.0203  0.6432 -0.8907
 1011MOL0     H36465   3.007   9.354   7.704 -2.0158 -1.2673  0.4227
 1011MOL0     H36466   2.991   9.529   7.713  0.4124  2.0894  4.0761
 1011MOL0     H36467   3.185   9.113   8.699  1.4199  1.2795 -0.3130
 1011MOL0     H36468   3.252   9.005   8.909  1.8786 -1.8718  0.8849
 1011MOL0     H36469   3.592   8.966   9.232 -0.7003  0.1225 -1.0982
 1011MOL0     H36470   3.718   8.860   9.418 -2.1360 -0.3536  0.3871
 1011MOL0     H36471   5.263   8.272   9.174 -1.5174  0.4355 -1.7778
 1011MOL0     H36472   5.476   8.219   9.296 -1.2939  0.8858  1.1422
 1011MOL0     H36473   5.856   8.284   9.459 -0.3387  0.7759 -1.3675
 1011MOL0     H36474   6.068   8.172   9.540  0.8844 -0.3363 -0.1555
 1011MOL0     H36475   6.360   7.969   9.246 -4.5786  0.3771 -0.6865
 1011MOL0     H36476   6.394   8.144   9.273  2.1816  0.8605  2.3057
 1011MOL0     H36477   6.589   8.038   9.341 -1.9280  2.1698 -0.5662
 1011MOL0     H36478   6.503   7.900   9.421  2.3071 -1.1080 -2.2281
 1011MOL0     H36479   6.468   8.191   9.510 -2.9534 -1.6834 -2.5751
 1011MOL0     H36480   6.616   8.100   9.573 -0.9909 -0.3759 -0.2819
 1011MOL0     H36481   6.341   7.962   9.602  2.1512 -0.5068 -1.2635
 1011MOL0     H36482   6.391   8.100   9.712 -0.5567  0.5198 -0.0597
 1011MOL0     H36483   6.601   7.747   9.825  1.8549  0.0493 -1.4904
 1011MOL0     H36484   6.185   8.083   9.143 -0.4229  0.8799 -1.5852
 1011MOL0     H36485   5.994   8.194   9.063  0.4539 -0.6919 -0.0654
 1012MOL0     O36486   8.580  10.599   1.847 -0.0671  0.5906  0.0863
 1012MOL0     C36487   8.599  10.497   1.777 -1.0081 -0.2714 -0.2414
 1012MOL0     O36488   8.502  10.445   1.686 -0.4332 -0.1602  0.0128
 1012MOL0     C36489   8.384  10.512   1.672 -0.1870 -1.2279 -0.3329
 1012MOL0     C36490   8.368  10.602   1.566  0.4760  0.3211 -0.4340
 1012MOL0     C36491   8.241  10.664   1.548 -0.7451  0.2247  0.6729
 1012MOL0     C36492   8.135  10.633   1.637 -0.2434 -0.6296  0.1367
 1012MOL0     O36493   8.019  10.704   1.614 -0.5539 -0.3785  0.1322
 1012MOL0     C36494   7.896  10.642   1.629  0.6347 -0.0203 -0.2467
 1012MOL0     C36495   7.873  10.541   1.514  0.0079  0.5353  0.2071
 1012MOL0     C36496   7.722  10.493   1.509 -0.2206 -0.1427  0.6657
 1012MOL0     C36497   7.694  10.386   1.395  0.5583 -1.0191 -0.3496
 1012MOL0     C36498   7.543  10.362   1.378 -0.0375  0.3040 -0.3569
 1012MOL0     C36499   7.513  10.259   1.263  0.1070 -0.0321 -0.5623
 1012MOL0     C36500   7.365  10.232   1.226 -0.2924 -0.2850  0.4375
 1012MOL0     C36501   7.338  10.112   1.138  0.5457 -0.0439 -0.2167
 1012MOL0     N36502   7.191  10.101   1.100 -0.6465 -0.3603  0.3616
 1012MOL0     C36503   7.121  10.191   1.024 -0.1661  0.3750 -0.2560
 1012MOL0     C36504   6.998  10.138   1.003 -0.3040 -0.4406 -0.3326
 1012MOL0     C36505   6.910  10.192   0.906 -0.0671 -0.2895  0.2225
 1012MOL0     C36506   6.776  10.127   0.916  0.7966  0.2698  0.3902
 1012MOL0     C36507   6.657  10.207   0.858 -0.4796 -0.5002  0.1293
 1012MOL0     C36508   6.549  10.109   0.806 -0.6028  0.3406  0.0992
 1012MOL0     O36509   6.593  10.038   0.692  0.2626  1.0593  0.5658
 1012MOL0     C36510   6.499  10.026   0.588 -0.3388  0.8106  0.9180
 1012MOL0     C36511   6.555  10.002   0.465  0.1067 -0.0542 -0.1623
 1012MOL0     C36512   6.476   9.986   0.347  0.2538 -0.1463  0.4515
 1012MOL0     C36513   6.542   9.942   0.216  0.8213 -0.0359  0.1444
 1012MOL0     C36514   6.333  10.004   0.358 -0.6280 -0.0249  0.2638
 1012MOL0     C36515   6.237   9.994   0.247  0.4708  0.5895 -0.9473
 1012MOL0     O36516   6.286   9.996   0.112  0.1040  0.5935 -0.6416
 1012MOL0     C36517   6.205  10.035   0.011  0.3903 -0.2685  0.4365
 1012MOL0     C36518   6.098   9.957  -0.025  0.5618 -0.3605 -0.1378
 1012MOL0     C36519   6.015   9.994  -0.136 -0.2471  0.4429 -0.8762
 1012MOL0     C36520   6.038  10.116  -0.213  0.5226  0.3889  0.0864
 1012MOL0     O36521   5.951  10.175  -0.298  0.3819 -1.0493 -0.1471
 1012MOL0     C36522   5.883  10.086  -0.388  0.7967 -0.3474 -0.7619
 1012MOL0     C36523   5.818  10.168  -0.508  0.9916  0.4208 -0.0761
 1012MOL0     C36524   5.910  10.274  -0.574 -0.2861 -0.2290 -0.2928
 1012MOL0     C36525   5.864  10.317  -0.714 -0.1986  0.4722  0.1145
 1012MOL0     C36526   5.967  10.396  -0.793 -0.0001 -0.0844 -0.0416
 1012MOL0     C36527   5.924  10.441  -0.929  0.7849  0.2851  0.3552
 1012MOL0     C36528   5.832  10.556  -0.969  0.0592 -0.5348  0.1107
 1012MOL0     C36529   5.861  10.688  -0.894 -0.1056 -0.4684  0.1630
 1012MOL0    Cl36530   5.784  10.691  -0.738  0.2368  0.0317  0.1753
 1012MOL0     C36531   6.155  10.189  -0.168  0.1216  0.2583 -0.2121
 1012MOL0     C36532   6.229  10.153  -0.058  0.0844 -0.5067  0.0481
 1012MOL0     O36533   6.116  10.003   0.277 -0.2598  0.5270  0.7042
 1012MOL0     C36534   6.281  10.022   0.488  0.0950  0.4351  0.3051
 1012MOL0     C36535   6.357  10.029   0.600 -0.1378 -0.2788  0.2232
 1012MOL0     N36536   6.985  10.011   1.063 -0.0022  0.5150 -0.1860
 1012MOL0     N36537   7.102   9.993   1.115 -0.2103 -0.0287 -0.2669
 1012MOL0     C36538   8.155  10.554   1.744  0.5269  0.2736  0.2916
 1012MOL0     C36539   8.280  10.487   1.760  0.5879 -1.0767  0.0172
 1012MOL0     C36540   8.735  10.441   1.769 -0.0424  0.7714 -0.2981
 1012MOL0     C36541   8.829  10.480   1.874  0.0263  0.2445 -0.2150
 1012MOL0     C36542   8.947  10.416   1.889 -0.4317  0.0046  0.2579
 1012MOL0     C36543   8.995  10.323   1.795  0.3121  0.1714 -0.2729
 1012MOL0     O36544   9.113  10.247   1.798 -0.2021 -1.2618 -0.4136
 1012MOL0     C36545   9.221  10.266   1.891  0.6439 -1.2051 -0.4667
 1012MOL0     C36546   9.174  10.203   2.020  0.3780 -0.2724  0.3193
 1012MOL0     C36547   9.295  10.163   2.110  0.8962 -0.4304  0.6138
 1012MOL0     C36548   9.369  10.277   2.177 -0.1199  0.0982  1.0044
 1012MOL0     C36549   9.457  10.217   2.282 -0.5727  0.4765  0.0515
 1012MOL0     C36550   9.517  10.171   2.376  0.3155  0.6855 -0.0342
 1012MOL0     C36551   8.909  10.298   1.692  0.5926 -0.1077 -0.1068
 1012MOL0     C36552   8.776  10.349   1.678  0.7540 -0.4738 -0.0795
 1012MOL0     H36553   8.453  10.619   1.501  0.9747  1.1806  0.4181
 1012MOL0     H36554   8.235  10.725   1.458  0.2159 -3.0226 -1.7683
 1012MOL0     H36555   7.872  10.605   1.729  0.5146  0.2018 -0.1929
 1012MOL0     H36556   7.820  10.720   1.617 -1.1691 -1.6790 -0.1234
 1012MOL0     H36557   7.911  10.574   1.417  2.2768  0.4449  0.9824
 1012MOL0     H36558   7.941  10.456   1.526  0.7542  0.7942 -1.7507
 1012MOL0     H36559   7.691  10.443   1.601  1.9434 -1.5829  0.6854
 1012MOL0     H36560   7.664  10.582   1.483  1.7780  0.7659 -0.9829
 1012MOL0     H36561   7.736  10.413   1.298 -1.3732 -0.6128 -1.1199
 1012MOL0     H36562   7.734  10.289   1.424 -0.8805 -1.8633 -1.1023
 1012MOL0     H36563   7.501  10.327   1.473  0.8513  2.4494  0.9137
 1012MOL0     H36564   7.504  10.462   1.359 -0.4281  0.4184  0.8961
 1012MOL0     H36565   7.559  10.289   1.168  2.7633  1.4957  1.1033
 1012MOL0     H36566   7.568  10.174   1.305  2.7028  2.4189  1.3722
 1012MOL0     H36567   7.308  10.236   1.320  0.1049  0.4964  0.6528
 1012MOL0     H36568   7.332  10.320   1.170 -1.4642 -0.3064  1.0538
 1012MOL0     H36569   7.379  10.023   1.186 -0.7210  1.3961  3.9406
 1012MOL0     H36570   7.385  10.130   1.040  0.6145 -3.5490 -0.9296
 1012MOL0     H36571   7.164  10.285   0.989  0.2930  0.0731 -0.5184
 1012MOL0     H36572   6.881  10.296   0.921 -1.8692 -1.0922  2.9311
 1012MOL0     H36573   6.949  10.174   0.805 -1.5645 -0.4259 -0.3520
 1012MOL0     H36574   6.747  10.109   1.020 -0.2972 -0.1911  0.0170
 1012MOL0     H36575   6.792  10.028   0.873 -0.9758 -0.0222  0.3248
 1012MOL0     H36576   6.685  10.269   0.773 -0.3835 -0.3794  0.2492
 1012MOL0     H36577   6.613  10.274   0.933  0.7364  0.0831  0.3314
 1012MOL0     H36578   6.466  10.172   0.775 -0.0453  0.4018 -1.3927
 1012MOL0     H36579   6.501  10.044   0.880  0.4339  0.4936  0.9284
 1012MOL0     H36580   6.663   9.996   0.458  0.1538 -2.5742  1.2353
 1012MOL0     H36581   6.649   9.932   0.236  1.0542 -1.6175 -1.6405
 1012MOL0     H36582   6.501   9.851   0.173 -0.2733  0.6684 -0.3692
 1012MOL0     H36583   6.537  10.028   0.149  0.9144 -0.4030 -0.3337
 1012MOL0     H36584   6.063   9.875   0.038 -0.2400  0.3214  0.3209
 1012MOL0     H36585   5.930   9.932  -0.163  0.4350 -1.4505  1.0795
 1012MOL0     H36586   5.941  10.009  -0.439  1.8009  0.3603 -0.7291
 1012MOL0     H36587   5.808  10.033  -0.329  1.1965 -1.1605 -0.9665
 1012MOL0     H36588   5.782  10.102  -0.587  1.2991  2.4152 -1.9969
 1012MOL0     H36589   5.723  10.213  -0.478  0.0730  0.4435 -2.7508
 1012MOL0     H36590   6.011  10.233  -0.587  1.4168  2.9765  1.7003
 1012MOL0     H36591   5.923  10.358  -0.506 -0.4442  1.4298 -2.2206
 1012MOL0     H36592   5.829  10.230  -0.771 -3.1139  0.5133  1.6481
 1012MOL0     H36593   5.772  10.372  -0.694  0.9905  2.1049  1.3878
 1012MOL0     H36594   6.064  10.348  -0.808  1.4003  1.9976  1.7069
 1012MOL0     H36595   5.993  10.483  -0.731 -0.8838  0.1493  0.0138
 1012MOL0     H36596   6.011  10.462  -0.992 -0.3204  3.2232 -0.3628
 1012MOL0     H36597   5.877  10.350  -0.967 -2.2321  1.3152  1.3318
 1012MOL0     H36598   5.732  10.517  -0.946 -0.7579  0.7851 -1.0166
 1012MOL0     H36599   5.844  10.574  -1.076 -0.6534  0.8885  0.2382
 1012MOL0     H36600   5.811  10.769  -0.947  0.5611 -0.7806 -0.9859
 1012MOL0     H36601   5.966  10.719  -0.897 -0.7527  1.8740 -0.4029
 1012MOL0     H36602   6.175  10.285  -0.215  0.7530 -0.0797 -0.6305
 1012MOL0     H36603   6.313  10.211  -0.020  0.0630 -0.6427  0.3105
 1012MOL0     H36604   6.177  10.052   0.493 -0.5992 -1.8731  1.4249
 1012MOL0     H36605   6.318  10.044   0.701  5.0035  2.1247  2.2641
 1012MOL0     H36606   8.062  10.526   1.794  0.0118 -0.1735 -0.8766
 1012MOL0     H36607   8.295  10.407   1.832  1.0712 -1.7345 -0.7868
 1012MOL0     H36608   8.803  10.542   1.959 -1.2821 -3.2098  2.1393
 1012MOL0     H36609   9.017  10.445   1.967  0.6012  1.7269 -1.2347
 1012MOL0     H36610   9.307  10.210   1.852  1.4467  0.8215 -1.7816
 1012MOL0     H36611   9.237  10.372   1.913  0.9474 -1.5481  1.0524
 1012MOL0     H36612   9.103  10.123   1.999 -0.4495  0.0333  1.8208
 1012MOL0     H36613   9.123  10.284   2.072  0.1445 -0.6124  0.6242
 1012MOL0     H36614   9.378  10.121   2.052  2.5567  2.5264  0.6629
 1012MOL0     H36615   9.246  10.099   2.184  0.9130 -2.6704 -1.1632
 1012MOL0     H36616   9.314  10.348   2.240  2.8844  1.8708  1.8465
 1012MOL0     H36617   9.429  10.341   2.112  0.2042 -0.1309  1.0744
 1012MOL0     H36618   9.583  10.135   2.453  0.7312  0.0215 -0.6850
 1012MOL0     H36619   8.938  10.220   1.623 -1.8829  0.9004 -2.4803
 1012MOL0     H36620   8.706  10.301   1.610  1.7073 -2.5045  0.2944
 1013MOL0     O36621   0.737   3.780   3.050 -0.3202 -0.3373  0.6045
 1013MOL0     C36622   0.822   3.826   3.128 -0.4140  0.0515 -0.5867
 1013MOL0     O36623   0.792   3.880   3.245  0.4332  0.1019  0.3853
 1013MOL0     C36624   0.661   3.876   3.298  0.0079  0.4789 -0.0275
 1013MOL0     C36625   0.626   3.981   3.385  0.4884 -0.2502  0.2238
 1013MOL0     C36626   0.505   3.983   3.457  1.1039  0.4410  0.1208
 1013MOL0     C36627   0.413   3.875   3.450 -0.1541  0.1158  0.8847
 1013MOL0     O36628   0.297   3.898   3.517  0.2528 -0.1267 -0.2434
 1013MOL0     C36629   0.190   3.810   3.512 -0.1951 -0.2938  0.9262
 1013MOL0     C36630   0.098   3.814   3.634  0.0429  0.3577 -0.7604
 1013MOL0     C36631  -0.023   3.721   3.631 -0.1281  0.4357  0.0468
 1013MOL0     C36632  -0.097   3.726   3.764  0.0402  0.1455  0.7705
 1013MOL0     C36633  -0.251   3.714   3.745 -0.5641  0.3498 -0.3122
 1013MOL0     C36634  -0.331   3.724   3.871 -0.5945 -0.0005  0.6056
 1013MOL0     C36635  -0.476   3.708   3.837 -0.4366 -1.0771  0.6531
 1013MOL0     C36636  -0.546   3.639   3.952  0.1636 -0.6974  0.7088
 1013MOL0     N36637  -0.544   3.737   4.061 -0.9913 -0.1988 -0.0458
 1013MOL0     C36638  -0.582   3.869   4.061 -0.3337  0.1240 -0.0112
 1013MOL0     C36639  -0.588   3.902   4.196 -0.1328  0.4198  0.2141
 1013MOL0     C36640  -0.644   4.031   4.242  0.3275  0.4813 -0.8247
 1013MOL0     C36641  -0.781   4.016   4.324 -0.4723 -0.4199 -0.1309
 1013MOL0     C36642  -0.765   3.946   4.459  0.3593  0.0177 -0.4809
 1013MOL0     C36643  -0.890   3.944   4.548  0.2481 -0.4502  0.1610
 1013MOL0     O36644  -0.930   4.083   4.573  0.6018 -0.0270 -0.1563
 1013MOL0     C36645  -1.066   4.109   4.576 -0.1420 -0.3224  0.9172
 1013MOL0     C36646  -1.163   4.018   4.637 -0.6483 -1.2203  1.3113
 1013MOL0     C36647  -1.297   4.060   4.662  0.0642  0.2907  0.2959
 1013MOL0     C36648  -1.375   3.967   4.754  0.1141 -0.1760  0.5537
 1013MOL0     C36649  -1.347   4.179   4.604 -0.8711 -0.0313  0.1766
 1013MOL0     C36650  -1.489   4.221   4.605 -0.2411  0.7108 -1.1985
 1013MOL0     O36651  -1.512   4.354   4.607 -0.0577  0.2708  0.1248
 1013MOL0     C36652  -1.632   4.400   4.656 -0.0013  0.5505  0.3873
 1013MOL0     C36653  -1.660   4.366   4.790 -0.1988  0.7208  0.3185
 1013MOL0     C36654  -1.776   4.414   4.846  0.4567  1.1913 -0.4811
 1013MOL0     C36655  -1.871   4.487   4.770  0.6132 -0.3672 -0.2608
 1013MOL0     O36656  -1.994   4.522   4.825 -0.1624 -0.5419  0.6785
 1013MOL0     C36657  -2.040   4.438   4.930 -0.0299 -0.6555 -0.2209
 1013MOL0     C36658  -2.195   4.463   4.936  0.4564  0.0707  0.3003
 1013MOL0     C36659  -2.250   4.418   4.804  0.3159 -0.9820  0.4658
 1013MOL0     C36660  -2.401   4.459   4.805  0.2684  0.2466  0.0385
 1013MOL0     C36661  -2.474   4.427   4.672  0.4506  0.0512  0.7702
 1013MOL0     C36662  -2.480   4.282   4.624 -0.2293 -0.6374  0.1386
 1013MOL0     C36663  -2.565   4.187   4.713  0.5191 -0.3837 -0.5475
 1013MOL0     C36664  -2.610   4.064   4.631 -0.8404 -0.3094  1.0495
 1013MOL0    Cl36665  -2.464   3.964   4.591  0.0253 -0.1895  0.3960
 1013MOL0     C36666  -1.849   4.508   4.629  0.3897 -0.0379  0.2364
 1013MOL0     C36667  -1.727   4.459   4.578  0.4308 -0.1233  0.1319
 1013MOL0     O36668  -1.577   4.138   4.608 -0.2890  0.5897  0.3753
 1013MOL0     C36669  -1.249   4.258   4.540  1.2438  0.5284 -0.0654
 1013MOL0     C36670  -1.118   4.230   4.539  0.1805  0.0338  0.9335
 1013MOL0     N36671  -0.534   3.797   4.273  0.3389 -0.2575 -0.4489
 1013MOL0     N36672  -0.508   3.701   4.189  0.2566 -0.3392  0.4833
 1013MOL0     C36673   0.445   3.768   3.365 -0.7570 -0.3054 -0.1444
 1013MOL0     C36674   0.572   3.766   3.291 -0.1936  0.1654  0.1816
 1013MOL0     C36675   0.960   3.865   3.076 -0.4144  0.3542  0.1819
 1013MOL0     C36676   1.031   3.781   2.984 -0.5446 -0.4401  0.1905
 1013MOL0     C36677   1.151   3.811   2.933  0.0339  0.0337  0.1682
 1013MOL0     C36678   1.219   3.927   2.972  0.2120 -0.1015 -0.0953
 1013MOL0     O36679   1.341   3.952   2.912  0.4648 -1.1386 -0.4827
 1013MOL0     C36680   1.438   4.027   2.991  0.6868  0.1072  0.4627
 1013MOL0     C36681   1.520   3.926   3.065  0.1610  0.4172 -0.6451
 1013MOL0     C36682   1.619   3.981   3.176 -0.0351 -0.1009 -0.2793
 1013MOL0     C36683   1.528   4.050   3.285 -0.5384  1.3491 -0.1038
 1013MOL0     C36684   1.573   4.030   3.420  0.1929  1.0011 -0.6908
 1013MOL0     C36685   1.611   4.009   3.536 -0.7653  0.5472  0.5938
 1013MOL0     C36686   1.161   4.007   3.068 -0.5383 -0.1355  0.3673
 1013MOL0     C36687   1.031   3.982   3.120 -0.8085 -0.4627  0.9747
 1013MOL0     H36688   0.693   4.066   3.401  1.1753 -0.4790 -1.2435
 1013MOL0     H36689   0.478   4.075   3.506 -3.4761  1.2343 -3.2829
 1013MOL0     H36690   0.131   3.843   3.426  0.7725  0.3739  0.5007
 1013MOL0     H36691   0.216   3.704   3.507 -1.1125 -0.7242  3.5122
 1013MOL0     H36692   0.160   3.790   3.721 -3.3889 -0.0017  1.8014
 1013MOL0     H36693   0.072   3.919   3.654 -0.3781 -0.0721  1.2514
 1013MOL0     H36694  -0.091   3.733   3.547  0.6635  0.9147 -0.5308
 1013MOL0     H36695   0.020   3.621   3.618 -0.1945 -0.0801  3.0147
 1013MOL0     H36696  -0.064   3.652   3.838  3.1808  2.2371  1.6635
 1013MOL0     H36697  -0.077   3.823   3.810 -1.0469  0.9036 -0.3000
 1013MOL0     H36698  -0.284   3.797   3.682  0.1074  0.7833 -0.1038
 1013MOL0     H36699  -0.277   3.618   3.700 -1.4193  0.1273  0.6001
 1013MOL0     H36700  -0.293   3.642   3.933 -1.5945  0.5929  2.0445
 1013MOL0     H36701  -0.318   3.822   3.917  0.0304 -0.6293  1.8229
 1013MOL0     H36702  -0.506   3.810   3.816  3.1283 -0.4252 -2.2950
 1013MOL0     H36703  -0.481   3.647   3.747  2.5103  0.8778 -1.0002
 1013MOL0     H36704  -0.499   3.544   3.979 -0.1473 -1.1991 -0.4516
 1013MOL0     H36705  -0.648   3.620   3.919  0.1575 -0.9634  0.8765
 1013MOL0     H36706  -0.610   3.929   3.975  0.9674  0.6044 -0.1229
 1013MOL0     H36707  -0.569   4.076   4.307 -0.5572  1.1514 -0.2436
 1013MOL0     H36708  -0.647   4.111   4.166  0.6149  1.7528  0.4584
 1013MOL0     H36709  -0.862   3.970   4.266 -2.1360  0.2794  1.5513
 1013MOL0     H36710  -0.809   4.122   4.329  1.6612  0.1325  1.1969
 1013MOL0     H36711  -0.692   3.989   4.528 -2.1906 -1.8970  3.8931
 1013MOL0     H36712  -0.740   3.842   4.437  2.2339  0.1443  0.8234
 1013MOL0     H36713  -0.868   3.887   4.639  1.9435  0.0892  0.1208
 1013MOL0     H36714  -0.971   3.894   4.495  0.3875 -0.8009  0.2749
 1013MOL0     H36715  -1.129   3.921   4.671  2.5374 -0.6729  0.0598
 1013MOL0     H36716  -1.308   3.903   4.812  0.7963 -0.0056 -0.0348
 1013MOL0     H36717  -1.437   4.019   4.827 -1.8778  0.3654 -1.4285
 1013MOL0     H36718  -1.442   3.905   4.694 -1.9197 -0.0020  2.4833
 1013MOL0     H36719  -1.596   4.301   4.849  0.5460 -1.4141 -2.5969
 1013MOL0     H36720  -1.797   4.383   4.947  0.0458  0.8673 -0.6664
 1013MOL0     H36721  -2.024   4.334   4.901 -2.2172 -0.8497 -0.8851
 1013MOL0     H36722  -2.001   4.448   5.032 -0.8089 -1.5386  0.1841
 1013MOL0     H36723  -2.231   4.407   5.023  1.2625 -0.1507  0.4952
 1013MOL0     H36724  -2.209   4.569   4.956 -0.0773  0.2434 -0.9300
 1013MOL0     H36725  -2.235   4.310   4.799 -1.8159 -1.3269  0.7821
 1013MOL0     H36726  -2.211   4.468   4.715 -2.8009  3.0800  1.0640
 1013MOL0     H36727  -2.443   4.394   4.883  0.1545  1.2379  0.8282
 1013MOL0     H36728  -2.427   4.561   4.834  1.4835  1.0222 -1.4545
 1013MOL0     H36729  -2.435   4.492   4.593 -1.2115  2.3618  1.7541
 1013MOL0     H36730  -2.577   4.460   4.685  0.0632 -0.0743 -1.4798
 1013MOL0     H36731  -2.517   4.283   4.521  1.8102  0.2306 -0.6303
 1013MOL0     H36732  -2.383   4.233   4.614  1.7475  2.8241  0.9221
 1013MOL0     H36733  -2.664   4.227   4.733 -0.1512 -1.2322 -2.0195
 1013MOL0     H36734  -2.509   4.152   4.800 -0.2829  2.3904  1.2196
 1013MOL0     H36735  -2.666   4.075   4.538  1.8960 -1.2980 -0.8115
 1013MOL0     H36736  -2.676   4.005   4.696 -0.4975 -0.4706  1.2494
 1013MOL0     H36737  -1.918   4.557   4.561 -0.9725  2.5811  3.2440
 1013MOL0     H36738  -1.698   4.481   4.476 -2.0981  2.9779 -0.0899
 1013MOL0     H36739  -1.265   4.360   4.506  2.6797  0.9620  0.4660
 1013MOL0     H36740  -1.044   4.295   4.494 -0.1019  0.6251  1.3110
 1013MOL0     H36741   0.381   3.681   3.364  0.8211 -1.5216  1.1950
 1013MOL0     H36742   0.615   3.680   3.241  1.9165  0.5070  1.2658
 1013MOL0     H36743   0.983   3.693   2.941  0.5830  0.5416 -3.3960
 1013MOL0     H36744   1.197   3.752   2.854  0.9700 -1.5112  1.7710
 1013MOL0     H36745   1.492   4.085   2.915 -1.1840  0.3504 -0.7387
 1013MOL0     H36746   1.390   4.095   3.063 -0.6090 -1.6354  1.3339
 1013MOL0     H36747   1.575   3.863   2.994  3.0952 -0.8565  2.4763
 1013MOL0     H36748   1.473   3.847   3.124 -0.3624 -0.0484 -1.6749
 1013MOL0     H36749   1.687   4.056   3.135 -0.6949 -0.5368 -2.2864
 1013MOL0     H36750   1.680   3.905   3.226  2.0958  1.9090  0.3872
 1013MOL0     H36751   1.430   4.002   3.284  1.2784 -2.8025  0.6237
 1013MOL0     H36752   1.514   4.155   3.258  1.8908  1.7194 -0.1993
 1013MOL0     H36753   1.650   3.987   3.633  4.1876  4.8496  0.0713
 1013MOL0     H36754   1.198   4.106   3.093  1.6118 -0.8613  0.2786
 1013MOL0     H36755   0.998   4.053   3.196  0.8104 -0.4955  1.7524
 1014MOL0     O36756   1.125   0.336   0.553 -0.7268  0.0344 -0.3915
 1014MOL0     C36757   1.139   0.312   0.671 -0.6290  0.0564 -0.1259
 1014MOL0     O36758   1.035   0.285   0.751  0.2098 -0.1471  0.8456
 1014MOL0     C36759   0.910   0.276   0.688 -0.7458 -0.3015 -0.0074
 1014MOL0     C36760   0.843   0.152   0.703  0.8456 -0.0078 -0.4488
 1014MOL0     C36761   0.719   0.136   0.639 -0.8647 -0.2359 -0.2836
 1014MOL0     C36762   0.650   0.236   0.578 -0.7695 -0.8959 -0.4079
 1014MOL0     O36763   0.532   0.202   0.530  0.4078 -0.2144  0.3335
 1014MOL0     C36764   0.441   0.311   0.507  0.8897  0.1295  0.3947
 1014MOL0     C36765   0.299   0.266   0.485  0.6314  0.1215  0.2760
 1014MOL0     C36766   0.269   0.205   0.344 -0.3241  0.1778 -0.2662
 1014MOL0     C36767   0.156   0.100   0.344  0.9742  1.2557 -0.3653
 1014MOL0     C36768   0.014   0.162   0.356  0.4277 -0.8191 -0.2450
 1014MOL0     C36769  -0.093   0.059   0.402  0.5934 -1.0858 -0.0202
 1014MOL0     C36770  -0.231   0.124   0.439  0.7634 -0.5676  0.7490
 1014MOL0     C36771  -0.340   0.019   0.467 -0.0685 -0.4409 -0.3949
 1014MOL0     N36772  -0.475   0.067   0.490 -0.0153 -0.7733  0.3174
 1014MOL0     C36773  -0.584   0.014   0.424  0.0304 -0.2286  0.0604
 1014MOL0     C36774  -0.689   0.074   0.493  1.4923  0.6579  0.0381
 1014MOL0     C36775  -0.834   0.047   0.455 -0.5331  0.7134  0.1933
 1014MOL0     C36776  -0.883   0.174   0.389  0.3863 -1.1539 -0.2759
 1014MOL0     C36777  -0.993   0.144   0.284  0.3790 -0.0082  0.3084
 1014MOL0     C36778  -1.047   0.271   0.227  0.4177 -0.1407  0.1147
 1014MOL0     O36779  -1.158   0.254   0.139 -0.4728 -0.0711  0.8409
 1014MOL0     C36780  -1.286   0.293   0.171  0.0159 -0.2821  0.0314
 1014MOL0     C36781  -1.332   0.335   0.298 -0.2696  0.2065 -0.1235
 1014MOL0     C36782  -1.469   0.360   0.320 -0.8065 -0.5338 -0.6809
 1014MOL0     C36783  -1.506   0.400   0.461 -0.3774 -0.5250  0.0414
 1014MOL0     C36784  -1.566   0.347   0.220  0.0920 -0.3219 -0.1433
 1014MOL0     C36785  -1.710   0.391   0.243  0.0123 -0.1410  0.4371
 1014MOL0     O36786  -1.749   0.479   0.335 -0.3710 -1.0074 -0.3689
 1014MOL0     C36787  -1.875   0.521   0.359  0.1213 -0.6493 -0.1062
 1014MOL0     C36788  -1.889   0.636   0.433 -0.5586  0.3198  0.0903
 1014MOL0     C36789  -2.009   0.697   0.451 -0.5382  0.4874  0.6880
 1014MOL0     C36790  -2.127   0.637   0.410  1.5329 -0.0493  0.2753
 1014MOL0     O36791  -2.248   0.690   0.434 -0.0740 -0.0873  0.1625
 1014MOL0     C36792  -2.255   0.833   0.469  0.3605  0.2503 -0.5879
 1014MOL0     C36793  -2.395   0.877   0.446  0.3790  0.8815  0.0074
 1014MOL0     C36794  -2.493   0.844   0.567  0.1302  0.6875  0.3170
 1014MOL0     C36795  -2.633   0.905   0.541 -0.0602  0.1058  0.6307
 1014MOL0     C36796  -2.735   0.839   0.638 -0.3952  0.1663 -0.4232
 1014MOL0     C36797  -2.884   0.854   0.600 -0.4474  0.4155 -0.0909
 1014MOL0     C36798  -2.985   0.842   0.717 -0.2814  0.5445  0.3275
 1014MOL0     C36799  -3.136   0.858   0.681  0.9163  0.8193 -0.1310
 1014MOL0    Cl36800  -3.178   0.731   0.560  0.0810 -0.0108 -0.3053
 1014MOL0     C36801  -2.120   0.521   0.335 -0.5795  0.0912 -0.7629
 1014MOL0     C36802  -1.994   0.469   0.305  0.1508  0.7906 -1.1666
 1014MOL0     O36803  -1.777   0.353   0.147  0.0095 -0.7010  0.0891
 1014MOL0     C36804  -1.522   0.297   0.097  0.0576 -0.0871  0.1767
 1014MOL0     C36805  -1.384   0.272   0.073  0.2725 -0.2587  0.6954
 1014MOL0     N36806  -0.649   0.161   0.591  0.5007 -0.0955  0.4832
 1014MOL0     N36807  -0.517   0.157   0.588 -0.1152  0.8582  0.5638
 1014MOL0     C36808   0.709   0.359   0.568 -0.2702 -0.8599 -0.2148
 1014MOL0     C36809   0.837   0.379   0.617  0.8773  0.7183 -0.4763
 1014MOL0     C36810   1.271   0.314   0.723 -0.3654  0.2200  0.2050
 1014MOL0     C36811   1.296   0.266   0.854  0.0535  1.0712  0.2917
 1014MOL0     C36812   1.428   0.270   0.898 -0.0462  0.0530  0.1562
 1014MOL0     C36813   1.532   0.307   0.820  0.0299 -0.4496 -0.0751
 1014MOL0     O36814   1.664   0.299   0.862 -0.2084  0.3517 -0.1806
 1014MOL0     C36815   1.695   0.345   0.987  0.2501 -0.7821 -0.4070
 1014MOL0     C36816   1.768   0.226   1.057  0.4631  0.0162 -0.0345
 1014MOL0     C36817   1.917   0.205   1.017 -0.4559  0.0015 -0.0156
 1014MOL0     C36818   1.986   0.151   1.144  0.1756  0.6510 -0.9211
 1014MOL0     C36819   2.133   0.136   1.122 -0.1666 -0.6457 -0.6212
 1014MOL0     C36820   2.255   0.137   1.110 -0.8454 -0.3333  0.0677
 1014MOL0     C36821   1.501   0.368   0.692 -0.0806 -0.0451  0.5074
 1014MOL0     C36822   1.370   0.367   0.651  0.2731  0.0711  0.6236
 1014MOL0     H36823   0.884   0.071   0.762  1.2805 -0.8327 -1.8311
 1014MOL0     H36824   0.675   0.037   0.632  2.3026 -1.7622 -0.1513
 1014MOL0     H36825   0.446   0.380   0.591  0.4717  1.8512 -0.9516
 1014MOL0     H36826   0.469   0.368   0.418 -1.3052 -3.1910 -2.7007
 1014MOL0     H36827   0.292   0.194   0.567  1.0628 -0.1311  0.0915
 1014MOL0     H36828   0.231   0.350   0.497  0.3991 -0.0974  0.4995
 1014MOL0     H36829   0.246   0.286   0.275 -3.5499  0.1085  0.5577
 1014MOL0     H36830   0.363   0.157   0.316 -0.1860  0.0858  0.3511
 1014MOL0     H36831   0.169   0.033   0.259  3.6017 -2.6276  2.6999
 1014MOL0     H36832   0.169   0.027   0.425 -2.2344  1.4087  0.4109
 1014MOL0     H36833   0.024   0.229   0.442 -0.7959 -1.5413  0.4881
 1014MOL0     H36834  -0.011   0.216   0.264  1.3989 -1.3217 -0.8193
 1014MOL0     H36835  -0.108  -0.014   0.322  1.0607 -0.1830 -0.9501
 1014MOL0     H36836  -0.061   0.009   0.494 -1.6387 -0.4416  1.2006
 1014MOL0     H36837  -0.224   0.198   0.519  0.9845  0.3858 -0.1251
 1014MOL0     H36838  -0.272   0.181   0.355  0.8295 -2.4385 -0.6267
 1014MOL0     H36839  -0.312  -0.034   0.558  0.3569  0.7942  0.2150
 1014MOL0     H36840  -0.341  -0.039   0.374 -1.5894 -0.6870 -0.2580
 1014MOL0     H36841  -0.578  -0.050   0.337 -3.3355 -1.2665  0.4643
 1014MOL0     H36842  -0.847  -0.037   0.385 -2.2721  0.4308  0.8153
 1014MOL0     H36843  -0.887   0.018   0.546 -0.4764 -2.1382 -0.5756
 1014MOL0     H36844  -0.803   0.232   0.341  0.2071 -0.5931  0.1000
 1014MOL0     H36845  -0.911   0.243   0.469  0.8322 -0.9109 -0.3231
 1014MOL0     H36846  -1.079   0.088   0.324  0.4530  0.4396  1.1080
 1014MOL0     H36847  -0.958   0.091   0.195 -1.7293  0.6719 -1.0195
 1014MOL0     H36848  -0.961   0.310   0.172  1.5756 -0.6045  1.5374
 1014MOL0     H36849  -1.060   0.340   0.311 -0.5237  1.1860 -1.0895
 1014MOL0     H36850  -1.262   0.342   0.380  1.6599  0.1430 -1.6929
 1014MOL0     H36851  -1.584   0.340   0.510 -0.4850  0.4619  1.1267
 1014MOL0     H36852  -1.431   0.392   0.540 -0.8613  0.1028  0.5737
 1014MOL0     H36853  -1.540   0.503   0.450 -3.2111 -0.9309  3.3770
 1014MOL0     H36854  -1.799   0.686   0.467 -1.2907  0.0511  2.6334
 1014MOL0     H36855  -2.002   0.798   0.490  0.0982 -0.8035  4.2869
 1014MOL0     H36856  -2.217   0.850   0.570  2.2194 -1.6587 -0.8884
 1014MOL0     H36857  -2.188   0.888   0.402 -0.5238  1.5186 -0.4692
 1014MOL0     H36858  -2.375   0.983   0.432  3.3743  0.2825 -1.0337
 1014MOL0     H36859  -2.426   0.842   0.347 -0.4126  0.5530  0.3627
 1014MOL0     H36860  -2.459   0.877   0.665 -1.0116 -2.9334  2.1231
 1014MOL0     H36861  -2.508   0.735   0.563 -2.0421  0.9662 -1.2159
 1014MOL0     H36862  -2.633   1.014   0.530 -0.8694  0.1726  1.1653
 1014MOL0     H36863  -2.662   0.871   0.441  2.2659 -0.1693 -0.0160
 1014MOL0     H36864  -2.729   0.898   0.730 -0.5261  1.8483 -1.4488
 1014MOL0     H36865  -2.718   0.737   0.675  1.0005  0.3194 -0.5673
 1014MOL0     H36866  -2.889   0.951   0.551  4.5516  0.4565 -1.0168
 1014MOL0     H36867  -2.897   0.769   0.532 -0.7127 -0.7632  1.3735
 1014MOL0     H36868  -2.965   0.927   0.784  0.0060  1.7627 -1.2420
 1014MOL0     H36869  -2.966   0.750   0.772 -3.5243 -0.0376  0.6851
 1014MOL0     H36870  -3.168   0.956   0.644 -0.9139  0.4549  0.4232
 1014MOL0     H36871  -3.195   0.833   0.770 -1.0312 -0.3139 -1.6676
 1014MOL0     H36872  -2.215   0.479   0.302 -0.0237 -2.5204  0.6622
 1014MOL0     H36873  -1.983   0.379   0.246  0.0450  0.2743 -0.4263
 1014MOL0     H36874  -1.594   0.273   0.019 -0.3645 -1.9025  1.0678
 1014MOL0     H36875  -1.349   0.239  -0.024  1.4345  0.5741  0.8130
 1014MOL0     H36876   0.671   0.450   0.525  1.1570  1.1081  2.3812
 1014MOL0     H36877   0.880   0.475   0.594  0.8096  0.6170 -1.0505
 1014MOL0     H36878   1.215   0.235   0.920  0.0384  1.5941  0.5255
 1014MOL0     H36879   1.452   0.238   0.999 -1.3060  3.3571  1.6596
 1014MOL0     H36880   1.760   0.433   0.982  3.3921 -2.9435 -0.7155
 1014MOL0     H36881   1.609   0.377   1.046  0.3387 -0.6047 -0.3714
 1014MOL0     H36882   1.707   0.139   1.031 -1.5837  0.7046  2.1226
 1014MOL0     H36883   1.756   0.240   1.165  1.7426 -3.1340  0.6139
 1014MOL0     H36884   1.967   0.298   0.986 -0.8331 -0.3606 -1.8400
 1014MOL0     H36885   1.920   0.135   0.933  1.0557  2.2713 -2.0028
 1014MOL0     H36886   1.947   0.051   1.165  3.1023 -1.2509 -3.6262
 1014MOL0     H36887   1.967   0.231   1.216 -0.3329  0.4035 -0.7755
 1014MOL0     H36888   2.361   0.145   1.101 -1.1256  2.2032 -2.3839
 1014MOL0     H36889   1.584   0.414   0.639  1.2378  0.0728  2.5568
 1014MOL0     H36890   1.350   0.417   0.556  0.5878  0.2168  0.6301
 1015MOL0     O36891   6.408   9.515   8.777  0.3771  0.4579  0.2248
 1015MOL0     C36892   6.444   9.564   8.885 -0.7311  0.3656 -0.3898
 1015MOL0     O36893   6.364   9.622   8.987 -0.1497 -0.3352  0.2198
 1015MOL0     C36894   6.231   9.602   8.975 -0.4068 -0.0523 -0.0353
 1015MOL0     C36895   6.173   9.484   9.021 -0.5237 -0.1500  0.5519
 1015MOL0     C36896   6.034   9.462   8.998  0.4704 -0.2441  0.1746
 1015MOL0     C36897   5.960   9.565   8.931 -0.0128  0.2362  0.6529
 1015MOL0     O36898   5.831   9.534   8.902 -0.1757 -0.2814 -0.1033
 1015MOL0     C36899   5.730   9.631   8.859 -0.9181 -0.1896  0.2891
 1015MOL0     C36900   5.607   9.552   8.804  0.7870 -0.8435 -0.4352
 1015MOL0     C36901   5.484   9.641   8.797  0.0885  0.0814 -0.7331
 1015MOL0     C36902   5.393   9.593   8.687 -0.1566  0.9012  0.6077
 1015MOL0     C36903   5.343   9.453   8.696 -0.1929  1.3738 -0.4856
 1015MOL0     C36904   5.247   9.421   8.586  0.8622  0.0483  0.2564
 1015MOL0     C36905   5.143   9.321   8.635 -0.2623  0.4240 -0.0767
 1015MOL0     C36906   5.035   9.354   8.727 -0.9635 -0.7404 -1.0553
 1015MOL0     N36907   4.934   9.246   8.743  0.0931 -0.7392 -0.0186
 1015MOL0     C36908   4.956   9.112   8.756 -0.3969 -1.3594  0.4991
 1015MOL0     C36909   4.832   9.055   8.764 -0.6808  0.6097  0.0563
 1015MOL0     C36910   4.813   8.901   8.766 -0.2372 -0.2808 -0.9743
 1015MOL0     C36911   4.712   8.851   8.669  0.0242  0.6320 -0.2901
 1015MOL0     C36912   4.756   8.855   8.520  0.1629  0.7076 -0.2281
 1015MOL0     C36913   4.640   8.808   8.429 -0.1369  0.4130  0.6477
 1015MOL0     O36914   4.686   8.805   8.296 -0.0545  0.0868 -0.4669
 1015MOL0     C36915   4.598   8.782   8.191 -0.0066 -0.6368  0.2275
 1015MOL0     C36916   4.460   8.747   8.216 -0.1612 -0.6249  0.4380
 1015MOL0     C36917   4.374   8.723   8.103  0.0804  0.6026  0.2239
 1015MOL0     C36918   4.235   8.679   8.139 -0.5523  0.6875 -0.0059
 1015MOL0     C36919   4.418   8.739   7.969 -0.4090 -0.7793  0.1915
 1015MOL0     C36920   4.341   8.741   7.847  0.3981  0.0270  0.5250
 1015MOL0     O36921   4.406   8.710   7.729  0.8020  0.0129 -0.8620
 1015MOL0     C36922   4.339   8.733   7.608 -0.0087 -0.9220  0.5569
 1015MOL0     C36923   4.329   8.629   7.511  0.1082  0.4244  0.0168
 1015MOL0     C36924   4.261   8.642   7.381  0.5099 -0.5783 -0.5716
 1015MOL0     C36925   4.210   8.764   7.348 -0.4725  0.1002 -0.4374
 1015MOL0     O36926   4.152   8.773   7.225 -0.3189  0.1844  0.0656
 1015MOL0     C36927   4.045   8.875   7.213  0.2765 -0.1034  0.1956
 1015MOL0     C36928   3.915   8.819   7.289 -0.7686 -0.4090 -0.0912
 1015MOL0     C36929   3.811   8.922   7.322 -0.8764 -0.3860  0.0363
 1015MOL0     C36930   3.718   8.973   7.209  0.2461  0.4756 -0.1296
 1015MOL0     C36931   3.615   8.863   7.162 -0.2616 -0.3946  0.4377
 1015MOL0     C36932   3.496   8.920   7.077 -0.4736 -0.2079 -0.8995
 1015MOL0     C36933   3.407   9.027   7.152 -0.2834 -0.7882 -0.5403
 1015MOL0     C36934   3.270   9.041   7.093  0.3724 -0.3041  0.0573
 1015MOL0    Cl36935   3.142   8.945   7.174  0.1058  0.1838  0.4525
 1015MOL0     C36936   4.235   8.870   7.436  0.3211 -0.0726 -0.3819
 1015MOL0     C36937   4.289   8.858   7.564 -0.2589 -0.6305 -1.0544
 1015MOL0     O36938   4.229   8.792   7.847 -0.9534 -0.4003  0.1761
 1015MOL0     C36939   4.556   8.763   7.951  0.6260 -0.2484  0.8153
 1015MOL0     C36940   4.646   8.795   8.054 -0.2662  0.4852 -0.0375
 1015MOL0     N36941   4.736   9.154   8.771 -0.0396 -0.0876 -0.8440
 1015MOL0     N36942   4.805   9.270   8.762 -0.5433  0.4830 -0.2644
 1015MOL0     C36943   6.025   9.681   8.888 -0.1892  1.0516  0.8734
 1015MOL0     C36944   6.156   9.692   8.900 -0.2889  0.4423 -0.7510
 1015MOL0     C36945   6.592   9.575   8.906  0.4367  0.3063  0.7366
 1015MOL0     C36946   6.650   9.577   9.035 -0.2236 -1.1310 -0.9867
 1015MOL0     C36947   6.792   9.592   9.053 -0.6783  0.7366 -0.5636
 1015MOL0     C36948   6.871   9.612   8.943 -0.1225  0.1298  0.1947
 1015MOL0     O36949   7.015   9.623   8.952 -0.2304 -0.1145  0.0643
 1015MOL0     C36950   7.077   9.490   8.955  0.0384 -0.7716 -0.9292
 1015MOL0     C36951   7.070   9.416   8.823 -0.7102 -0.7702  0.1717
 1015MOL0     C36952   7.165   9.287   8.828  1.0398  0.6257 -0.1328
 1015MOL0     C36953   7.169   9.220   8.690 -0.5861  0.0923 -0.4103
 1015MOL0     C36954   7.300   9.153   8.675  0.4705 -0.6841 -0.7288
 1015MOL0     C36955   7.393   9.089   8.672 -0.1708  0.6434 -0.2446
 1015MOL0     C36956   6.817   9.616   8.815  0.1647 -0.3349  0.1096
 1015MOL0     C36957   6.675   9.599   8.794 -0.2790 -0.8657 -0.4855
 1015MOL0     H36958   6.238   9.415   9.073 -0.7899 -0.7611  0.0788
 1015MOL0     H36959   5.981   9.376   9.038  0.4689  0.1166  0.9750
 1015MOL0     H36960   5.699   9.684   8.950  0.4052  0.6532  0.2669
 1015MOL0     H36961   5.749   9.710   8.786 -3.9911 -0.1949 -0.6925
 1015MOL0     H36962   5.633   9.512   8.706 -0.3914  0.7497 -1.4271
 1015MOL0     H36963   5.592   9.476   8.882  3.8340  0.1996  1.3606
 1015MOL0     H36964   5.434   9.630   8.894 -1.5115 -2.7555 -1.7500
 1015MOL0     H36965   5.521   9.743   8.786  4.3847 -1.1264  0.5107
 1015MOL0     H36966   5.303   9.656   8.695 -1.0758 -0.2860 -0.0613
 1015MOL0     H36967   5.429   9.617   8.587  1.7950 -0.2482  0.9815
 1015MOL0     H36968   5.412   9.369   8.687 -3.3179 -1.4197 -0.3944
 1015MOL0     H36969   5.288   9.441   8.789 -1.6083  1.6080 -1.2654
 1015MOL0     H36970   5.189   9.510   8.562  2.1727  1.3835  1.7722
 1015MOL0     H36971   5.306   9.398   8.497 -0.4074 -1.6383 -0.2087
 1015MOL0     H36972   5.095   9.287   8.542  0.6385 -0.2156 -0.3140
 1015MOL0     H36973   5.194   9.231   8.672  1.2610  2.0731  2.0683
 1015MOL0     H36974   4.989   9.435   8.670 -2.6370 -0.6592  0.3361
 1015MOL0     H36975   5.083   9.391   8.818 -1.4338  0.8862 -1.4372
 1015MOL0     H36976   5.055   9.067   8.759  0.9034  1.0384 -2.1135
 1015MOL0     H36977   4.905   8.846   8.744 -1.0756 -2.2046  0.0033
 1015MOL0     H36978   4.772   8.871   8.863 -3.3104  1.7181 -1.5127
 1015MOL0     H36979   4.618   8.903   8.691  1.3970  2.8736  0.5705
 1015MOL0     H36980   4.704   8.744   8.694  0.5545  1.0510  1.9076
 1015MOL0     H36981   4.847   8.795   8.513 -0.3944 -0.0881 -0.8687
 1015MOL0     H36982   4.783   8.957   8.495  0.1954  0.6912 -0.2605
 1015MOL0     H36983   4.560   8.875   8.460  0.2025  0.2378  1.9441
 1015MOL0     H36984   4.613   8.703   8.444  0.9389 -0.1710 -1.1424
 1015MOL0     H36985   4.425   8.743   8.319  1.1552 -0.6113  0.9076
 1015MOL0     H36986   4.179   8.639   8.054  0.8630  0.0493 -0.6629
 1015MOL0     H36987   4.242   8.600   8.214  0.3996  0.6337 -0.1371
 1015MOL0     H36988   4.165   8.757   8.171 -3.4743 -1.4265 -0.8122
 1015MOL0     H36989   4.379   8.536   7.532  1.1556  0.8051 -0.7259
 1015MOL0     H36990   4.252   8.555   7.318  1.0952  0.2342 -1.8178
 1015MOL0     H36991   4.070   8.969   7.263 -0.2283  0.5801 -0.7999
 1015MOL0     H36992   4.029   8.898   7.108  1.4023  1.2831  0.2999
 1015MOL0     H36993   3.869   8.739   7.228  0.7115  0.0380 -1.8865
 1015MOL0     H36994   3.945   8.767   7.380 -1.1898  1.7465  1.3403
 1015MOL0     H36995   3.866   9.008   7.362  0.0105  0.0217 -1.9080
 1015MOL0     H36996   3.754   8.877   7.403 -1.6818 -2.4473 -1.5682
 1015MOL0     H36997   3.661   9.050   7.262 -1.6221 -3.0167  3.4595
 1015MOL0     H36998   3.765   9.015   7.120 -2.8024  0.4230 -1.9044
 1015MOL0     H36999   3.571   8.806   7.245  1.2908  0.8088  2.1824
 1015MOL0     H37000   3.666   8.781   7.112  0.5924 -0.0230  0.6872
 1015MOL0     H37001   3.532   8.965   6.984 -2.4614 -0.3147 -1.7679
 1015MOL0     H37002   3.424   8.840   7.062 -1.4845  1.1344 -4.1032
 1015MOL0     H37003   3.458   9.123   7.145 -1.9256  0.1181 -0.5013
 1015MOL0     H37004   3.398   9.014   7.261 -0.9066  5.7462  0.5840
 1015MOL0     H37005   3.276   9.013   6.987  0.7855  1.2414 -0.3504
 1015MOL0     H37006   3.242   9.146   7.100  1.5043 -0.0620  1.4125
 1015MOL0     H37007   4.210   8.970   7.401  0.9913 -0.0934 -0.9619
 1015MOL0     H37008   4.291   8.933   7.642 -1.2858 -2.1582  0.5160
 1015MOL0     H37009   4.584   8.782   7.848  0.6705  1.8150  1.1795
 1015MOL0     H37010   4.748   8.829   8.040  0.1496 -1.8766 -4.1483
 1015MOL0     H37011   5.968   9.755   8.832 -0.3698 -1.4205 -2.5162
 1015MOL0     H37012   6.213   9.771   8.851 -1.1453 -0.2296 -2.9505
 1015MOL0     H37013   6.590   9.571   9.126  1.6627 -0.7880  0.3529
 1015MOL0     H37014   6.845   9.606   9.147 -1.7605  1.3883 -0.0277
 1015MOL0     H37015   7.182   9.512   8.977  0.0982 -1.9186  0.0400
 1015MOL0     H37016   7.035   9.434   9.039 -1.6275  3.0593  1.0149
 1015MOL0     H37017   7.108   9.481   8.745 -1.3461 -1.8855 -1.1144
 1015MOL0     H37018   6.970   9.386   8.790 -0.0191 -2.2683 -0.6835
 1015MOL0     H37019   7.118   9.216   8.897 -0.4618  2.4591  0.8210
 1015MOL0     H37020   7.269   9.311   8.853  1.4159 -0.8076 -0.2246
 1015MOL0     H37021   7.158   9.301   8.617  0.8615  0.6078 -0.0868
 1015MOL0     H37022   7.105   9.132   8.687  0.8992 -1.0032 -1.8367
 1015MOL0     H37023   7.491   9.049   8.657 -0.4662 -0.5629  0.8506
 1015MOL0     H37024   6.880   9.635   8.730 -1.0753  0.4674 -0.6560
 1015MOL0     H37025   6.635   9.606   8.694  1.3671 -0.5457 -1.1561
 1016MOL0     O37026   9.369   2.400   5.243  0.2169 -0.1692  0.2825
 1016MOL0     C37027   9.387   2.282   5.266 -0.2563  0.3075  0.4104
 1016MOL0     O37028   9.292   2.189   5.294  0.2981  0.2524 -0.5874
 1016MOL0     C37029   9.164   2.226   5.269 -0.6188 -0.1745  0.8201
 1016MOL0     C37030   9.104   2.354   5.306  0.3907  0.3982 -0.3791
 1016MOL0     C37031   8.959   2.363   5.298  0.3931 -1.0147 -0.4830
 1016MOL0     C37032   8.873   2.271   5.241 -0.4100 -0.5164 -0.4030
 1016MOL0     O37033   8.739   2.290   5.214  0.1748  0.6008  0.4476
 1016MOL0     C37034   8.692   2.422   5.222 -0.1871 -0.6085  0.3192
 1016MOL0     C37035   8.648   2.466   5.365  0.6873 -0.2364 -0.4046
 1016MOL0     C37036   8.567   2.358   5.433 -1.0852 -0.0689  0.0615
 1016MOL0     C37037   8.541   2.397   5.583  0.1322  0.3575  0.1665
 1016MOL0     C37038   8.448   2.318   5.659  1.0745  0.9503  0.2448
 1016MOL0     C37039   8.430   2.350   5.811  0.7795  0.2232 -0.4248
 1016MOL0     C37040   8.381   2.237   5.906 -0.4562 -0.9270  0.5450
 1016MOL0     C37041   8.238   2.188   5.889 -0.7022 -0.6558  0.2262
 1016MOL0     N37042   8.206   2.120   6.011  0.2492 -0.4835  0.2311
 1016MOL0     C37043   8.160   1.995   6.002  0.7888 -0.3003  0.1821
 1016MOL0     C37044   8.084   1.978   6.117  0.2199  0.0220  0.0378
 1016MOL0     C37045   8.009   1.858   6.156  0.5583 -0.6170  0.0528
 1016MOL0     C37046   7.873   1.850   6.085 -0.6957  0.4319 -0.2511
 1016MOL0     C37047   7.762   1.787   6.167 -0.1630  0.7215  0.4729
 1016MOL0     C37048   7.781   1.631   6.179  0.4461 -0.9771  0.3796
 1016MOL0     O37049   7.900   1.587   6.251  0.3947 -1.2619  0.3143
 1016MOL0     C37050   7.907   1.601   6.385 -0.4068 -0.1005  0.3696
 1016MOL0     C37051   8.032   1.619   6.442 -0.7153  0.1138  0.2482
 1016MOL0     C37052   8.039   1.632   6.587 -0.0471  0.6058  0.4187
 1016MOL0     C37053   8.177   1.656   6.645 -0.2585 -0.0268 -0.0138
 1016MOL0     C37054   7.925   1.614   6.664 -0.0863 -0.1063  0.2075
 1016MOL0     C37055   7.910   1.615   6.820  0.5210 -0.1535  0.1397
 1016MOL0     O37056   7.804   1.534   6.867  0.0960 -0.6687 -0.1929
 1016MOL0     C37057   7.744   1.540   6.995 -0.8795  0.1617  0.1928
 1016MOL0     C37058   7.623   1.463   7.013 -0.0229  0.4304 -0.1371
 1016MOL0     C37059   7.561   1.472   7.136  0.0082  0.3867 -0.1100
 1016MOL0     C37060   7.604   1.541   7.248 -0.1651  1.1492 -0.2323
 1016MOL0     O37061   7.525   1.556   7.360  0.0668 -0.2344 -0.1338
 1016MOL0     C37062   7.395   1.614   7.348 -0.3602  0.6417 -0.6164
 1016MOL0     C37063   7.285   1.544   7.433  0.1165 -1.0310  0.1469
 1016MOL0     C37064   7.263   1.395   7.395 -0.7772  0.9149  0.4233
 1016MOL0     C37065   7.146   1.323   7.464  0.1936  0.7372  0.5455
 1016MOL0     C37066   7.129   1.177   7.414  0.1006 -0.4854 -0.1629
 1016MOL0     C37067   6.996   1.130   7.472  0.8584  0.2377 -0.3254
 1016MOL0     C37068   6.998   1.101   7.630 -0.0489  0.0743 -0.0287
 1016MOL0     C37069   6.850   1.116   7.679 -0.3283 -0.2464  0.2001
 1016MOL0    Cl37070   6.846   1.043   7.838  0.2910 -0.0063  0.2071
 1016MOL0     C37071   7.723   1.605   7.227  0.2000 -0.2285 -0.0465
 1016MOL0     C37072   7.801   1.600   7.110 -0.5037 -0.6784 -0.1412
 1016MOL0     O37073   7.990   1.664   6.891  0.1895 -0.8198 -0.5140
 1016MOL0     C37074   7.807   1.591   6.595 -0.7269  0.9319 -0.3529
 1016MOL0     C37075   7.793   1.584   6.462  0.3842 -0.7010 -1.1968
 1016MOL0     N37076   8.095   2.099   6.196  0.0590  0.4812  0.7645
 1016MOL0     N37077   8.173   2.180   6.131 -0.5982  0.1581 -0.0569
 1016MOL0     C37078   8.946   2.150   5.204  0.1183 -1.3401  0.3659
 1016MOL0     C37079   9.081   2.128   5.227  0.3092  0.2922 -0.6869
 1016MOL0     C37080   9.526   2.229   5.273  0.0140  0.2060 -0.7205
 1016MOL0     C37081   9.638   2.318   5.267 -0.8289 -0.5247 -0.3822
 1016MOL0     C37082   9.764   2.266   5.274  0.0781  0.3642 -0.7581
 1016MOL0     C37083   9.784   2.125   5.284 -0.3962 -0.6885  0.3753
 1016MOL0     O37084   9.908   2.066   5.290  0.1244  0.3674 -0.4625
 1016MOL0     C37085  10.026   2.134   5.308 -0.3196  0.2750 -0.1612
 1016MOL0     C37086  10.048   2.162   5.458  0.8908 -0.0363  0.2267
 1016MOL0     C37087  10.182   2.215   5.487  0.8378 -0.3763  0.1197
 1016MOL0     C37088  10.232   2.200   5.636  0.6272 -1.0798  1.5342
 1016MOL0     C37089  10.378   2.228   5.651  0.6733 -0.5596  1.0299
 1016MOL0     C37090  10.483   2.276   5.675 -0.0892 -0.3709 -0.1707
 1016MOL0     C37091   9.673   2.043   5.282 -0.8716 -0.0294  0.0661
 1016MOL0     C37092   9.545   2.086   5.274 -0.1985  0.1735 -0.6565
 1016MOL0     H37093   9.161   2.424   5.365  2.8440 -0.6545 -1.3831
 1016MOL0     H37094   8.929   2.461   5.333  1.3649 -1.5548  2.1132
 1016MOL0     H37095   8.774   2.489   5.193 -0.6743 -1.2645 -2.9819
 1016MOL0     H37096   8.607   2.431   5.154 -0.6645 -1.4295  0.7963
 1016MOL0     H37097   8.723   2.491   5.439 -2.0335 -2.0066  3.2794
 1016MOL0     H37098   8.583   2.551   5.341 -1.4075 -1.3592  0.9239
 1016MOL0     H37099   8.475   2.349   5.375 -1.2007 -0.5086  0.3069
 1016MOL0     H37100   8.617   2.262   5.424 -1.5542 -0.2600 -0.5759
 1016MOL0     H37101   8.629   2.388   5.647 -2.4289 -0.3033  3.9148
 1016MOL0     H37102   8.508   2.501   5.590  0.7837  0.7546 -1.9165
 1016MOL0     H37103   8.350   2.319   5.611  1.5820  1.2282 -0.8062
 1016MOL0     H37104   8.477   2.212   5.663 -0.7412  0.2987 -1.7736
 1016MOL0     H37105   8.530   2.380   5.844  1.4885 -0.8463 -1.4918
 1016MOL0     H37106   8.360   2.433   5.822 -2.1961 -2.2952  1.0670
 1016MOL0     H37107   8.447   2.151   5.890  0.5101  0.1406 -1.5654
 1016MOL0     H37108   8.404   2.271   6.007  2.6223 -2.0488  0.3273
 1016MOL0     H37109   8.216   2.127   5.801 -1.4468 -1.1371  0.7387
 1016MOL0     H37110   8.177   2.277   5.875 -1.2093 -1.3410 -2.5414
 1016MOL0     H37111   8.170   1.934   5.913 -2.0580  0.3525 -0.7031
 1016MOL0     H37112   8.067   1.766   6.143  1.7540 -0.1010  1.4286
 1016MOL0     H37113   7.988   1.873   6.262 -0.6937 -0.9434 -0.1298
 1016MOL0     H37114   7.876   1.810   5.983 -4.7537 -0.6335 -0.1082
 1016MOL0     H37115   7.833   1.947   6.054 -1.4501 -1.1008 -4.8145
 1016MOL0     H37116   7.666   1.791   6.115 -0.0573  0.9299  0.2960
 1016MOL0     H37117   7.766   1.831   6.267  0.4331  0.5070  0.5486
 1016MOL0     H37118   7.789   1.590   6.078  1.1348  0.2706 -0.0978
 1016MOL0     H37119   7.692   1.586   6.224  0.7293  1.6883  4.1412
 1016MOL0     H37120   8.115   1.628   6.372 -0.8391  3.0037  0.3532
 1016MOL0     H37121   8.251   1.679   6.568  3.3866 -0.9069  2.9455
 1016MOL0     H37122   8.179   1.735   6.720 -0.2243  0.2735 -0.3267
 1016MOL0     H37123   8.224   1.563   6.678  3.2838  1.6999  0.2112
 1016MOL0     H37124   7.578   1.405   6.932  0.2961  0.5190 -0.3790
 1016MOL0     H37125   7.470   1.415   7.148  1.9873 -2.4995  3.0559
 1016MOL0     H37126   7.409   1.713   7.391  0.8460 -0.4727  1.7018
 1016MOL0     H37127   7.358   1.628   7.246 -0.3240  0.6721 -0.6254
 1016MOL0     H37128   7.313   1.555   7.539  3.0520 -3.2700 -0.2446
 1016MOL0     H37129   7.189   1.594   7.423  1.9565  3.2079  1.3663
 1016MOL0     H37130   7.346   1.329   7.422 -0.0211  2.3714  1.8619
 1016MOL0     H37131   7.251   1.404   7.287  0.6901  1.3128  0.2662
 1016MOL0     H37132   7.158   1.324   7.572 -0.5914  0.3396  0.6377
 1016MOL0     H37133   7.061   1.384   7.432 -2.1227 -3.2670 -1.6299
 1016MOL0     H37134   7.213   1.112   7.441 -0.3409 -1.9492 -2.0291
 1016MOL0     H37135   7.117   1.173   7.305  0.2743 -3.4078 -0.1691
 1016MOL0     H37136   6.919   1.205   7.449  0.1840 -1.4306 -4.2324
 1016MOL0     H37137   6.955   1.037   7.433 -1.2663  0.7371  0.5879
 1016MOL0     H37138   7.062   1.167   7.689 -1.0438 -0.4920  1.7468
 1016MOL0     H37139   7.030   0.999   7.656 -0.7740 -0.6264 -1.7441
 1016MOL0     H37140   6.776   1.068   7.614  0.6184 -0.6140 -0.6276
 1016MOL0     H37141   6.825   1.222   7.687  1.4549  0.5585 -2.9978
 1016MOL0     H37142   7.756   1.649   7.321  0.7495 -0.0110 -0.3362
 1016MOL0     H37143   7.896   1.652   7.107 -1.2944  0.8250 -1.2487
 1016MOL0     H37144   7.713   1.572   6.645 -0.6637  0.5319 -0.3832
 1016MOL0     H37145   7.695   1.553   6.427 -1.0875  3.1121 -0.8804
 1016MOL0     H37146   8.895   2.068   5.154  3.0840 -1.3609 -2.9680
 1016MOL0     H37147   9.121   2.030   5.206 -0.0284 -0.0336  0.1687
 1016MOL0     H37148   9.625   2.426   5.262  1.4552 -0.2158 -0.7976
 1016MOL0     H37149   9.840   2.343   5.279  0.7746 -0.3712  0.4045
 1016MOL0     H37150  10.097   2.058   5.275 -1.0214  0.9135 -3.4944
 1016MOL0     H37151  10.024   2.225   5.247 -3.0227  0.9308  0.7444
 1016MOL0     H37152  10.021   2.068   5.507 -3.0113 -0.2933 -2.0383
 1016MOL0     H37153   9.976   2.238   5.490 -0.6521 -0.8615 -1.1228
 1016MOL0     H37154  10.181   2.323   5.470  0.2393 -0.4210 -0.1431
 1016MOL0     H37155  10.256   2.161   5.427  0.1668 -0.5223 -0.5913
 1016MOL0     H37156  10.209   2.098   5.668  1.1937 -0.6125  3.6122
 1016MOL0     H37157  10.179   2.271   5.700  0.0945  2.1511 -2.1407
 1016MOL0     H37158  10.574   2.328   5.700 -1.0864  1.3559  0.0603
 1016MOL0     H37159   9.691   1.936   5.270  1.6247  0.3637 -0.1465
 1016MOL0     H37160   9.471   2.008   5.261 -0.6466  1.0227 -4.3902
 1017MOL0     O37161   3.685   9.679   7.774 -0.2400  0.0069  0.5291
 1017MOL0     C37162   3.704   9.578   7.846 -0.9216 -0.1757  0.2833
 1017MOL0     O37163   3.604   9.503   7.907  0.0573 -0.0943  0.1037
 1017MOL0     C37164   3.482   9.568   7.904 -0.4737  0.9097 -0.1429
 1017MOL0     C37165   3.435   9.669   7.982  0.0407  0.3327 -1.3192
 1017MOL0     C37166   3.322   9.737   7.946  0.1613  0.2456  0.2103
 1017MOL0     C37167   3.231   9.697   7.842 -0.6688 -0.4614 -0.8906
 1017MOL0     O37168   3.125   9.767   7.804  0.2401  0.3360  0.0406
 1017MOL0     C37169   3.035   9.813   7.910 -0.1407 -0.1365  0.4584
 1017MOL0     C37170   2.893   9.815   7.841 -0.2130 -0.5114  0.3151
 1017MOL0     C37171   2.767   9.811   7.936  0.0624  0.6870 -0.5458
 1017MOL0     C37172   2.638   9.821   7.849 -0.5404  0.1939 -0.0682
 1017MOL0     C37173   2.516   9.769   7.926  0.2991 -0.2997 -0.1561
 1017MOL0     C37174   2.389   9.809   7.851 -0.2999 -0.0065  0.5787
 1017MOL0     C37175   2.247   9.763   7.924  1.0263  0.5937  0.0141
 1017MOL0     C37176   2.120   9.810   7.847  0.6227 -0.5575  0.1794
 1017MOL0     N37177   2.004   9.731   7.877 -0.1584  0.2548 -0.5833
 1017MOL0     C37178   1.948   9.732   8.007 -0.2382  0.4009  0.4117
 1017MOL0     C37179   1.839   9.653   7.997 -1.2294  0.6031 -0.6789
 1017MOL0     C37180   1.741   9.618   8.100  0.2219  0.5145 -0.2207
 1017MOL0     C37181   1.611   9.558   8.041  0.6274  0.3985  0.0342
 1017MOL0     C37182   1.503   9.570   8.155  0.6883 -0.4882  0.1970
 1017MOL0     C37183   1.413   9.443   8.155  0.1904  0.1054  0.2313
 1017MOL0     O37184   1.325   9.444   8.040 -0.1645 -0.1067 -0.3006
 1017MOL0     C37185   1.223   9.351   8.042 -0.3251  0.2653 -0.1350
 1017MOL0     C37186   1.095   9.393   7.998  0.2829  1.3059  0.3456
 1017MOL0     C37187   0.984   9.300   7.999 -0.7742 -0.1418 -0.4614
 1017MOL0     C37188   0.852   9.356   7.955  0.2889 -0.6821 -0.3409
 1017MOL0     C37189   1.003   9.169   8.036  0.5122  0.8228  0.5397
 1017MOL0     C37190   0.897   9.059   8.029  0.3181  0.4335 -1.4881
 1017MOL0     O37191   0.941   8.935   8.067 -0.3189  0.8229  0.1294
 1017MOL0     C37192   0.845   8.833   8.061  0.2768  0.1706  0.5013
 1017MOL0     C37193   0.821   8.753   7.951  0.3576  0.2108 -0.8517
 1017MOL0     C37194   0.719   8.665   7.962 -0.2359  0.3197  0.8907
 1017MOL0     C37195   0.638   8.661   8.074  0.6128 -0.0629 -0.7759
 1017MOL0     O37196   0.534   8.583   8.066 -0.1848 -0.1051  0.1294
 1017MOL0     C37197   0.468   8.542   8.191 -0.3450  0.3066 -0.1048
 1017MOL0     C37198   0.355   8.451   8.146 -0.0173 -0.1463 -0.2709
 1017MOL0     C37199   0.233   8.534   8.101 -0.5499  0.0243  0.0332
 1017MOL0     C37200   0.135   8.448   8.031  1.0704  0.4854  0.0092
 1017MOL0     C37201  -0.000   8.534   8.006 -0.1811 -0.2529  0.0577
 1017MOL0     C37202  -0.116   8.444   7.963 -0.3848 -0.1166  0.7018
 1017MOL0     C37203  -0.132   8.303   8.027  0.3679  0.1762  0.7719
 1017MOL0     C37204  -0.145   8.308   8.174  0.1857 -0.4799 -0.3298
 1017MOL0    Cl37205  -0.306   8.372   8.228 -0.4212  0.3049 -0.1750
 1017MOL0     C37206   0.677   8.738   8.186 -0.5395  0.7842 -0.3536
 1017MOL0     C37207   0.772   8.825   8.175 -1.1384  0.3066 -0.9600
 1017MOL0     O37208   0.778   9.081   8.000  0.0906 -0.1973  0.4734
 1017MOL0     C37209   1.125   9.133   8.093  0.2654  0.0239 -0.4183
 1017MOL0     C37210   1.229   9.220   8.090 -0.6839  1.4212 -0.5672
 1017MOL0     N37211   1.834   9.603   7.867 -0.9282  0.3132  0.4470
 1017MOL0     N37212   1.927   9.656   7.790 -0.1955 -0.0873 -0.4807
 1017MOL0     C37213   3.277   9.585   7.770 -0.1987 -0.0966  0.0671
 1017MOL0     C37214   3.402   9.523   7.803 -0.2448  0.4661  0.4402
 1017MOL0     C37215   3.841   9.544   7.879  0.3818  0.0097  0.0861
 1017MOL0     C37216   3.945   9.593   7.803 -0.4615 -0.3843  0.5747
 1017MOL0     C37217   4.073   9.540   7.821 -0.5916 -0.0610  0.0637
 1017MOL0     C37218   4.096   9.434   7.906  0.7918 -0.3765 -0.0233
 1017MOL0     O37219   4.220   9.381   7.920 -0.1744  0.2917  0.0551
 1017MOL0     C37220   4.238   9.247   7.975  0.7420 -0.3461  0.1168
 1017MOL0     C37221   4.380   9.203   7.968  0.4927 -0.2348  0.9857
 1017MOL0     C37222   4.390   9.071   8.030  0.0259  1.0870 -0.2657
 1017MOL0     C37223   4.414   9.089   8.188 -0.5410  0.2955 -0.4985
 1017MOL0     C37224   4.545   9.141   8.222 -0.1966 -0.0432 -0.7136
 1017MOL0     C37225   4.652   9.172   8.274 -0.4329 -0.5994 -0.8362
 1017MOL0     C37226   3.996   9.396   7.996 -0.5763  0.5107  0.3225
 1017MOL0     C37227   3.869   9.444   7.982 -0.1069 -0.5731  0.4802
 1017MOL0     H37228   3.501   9.703   8.061  0.2735  0.6670 -1.6561
 1017MOL0     H37229   3.304   9.833   7.995 -0.6735 -0.0718  0.5415
 1017MOL0     H37230   3.036   9.748   7.998  1.8271  1.4681  1.7265
 1017MOL0     H37231   3.052   9.912   7.951  1.6453  0.6712 -1.9849
 1017MOL0     H37232   2.895   9.913   7.791  2.2365 -0.0783  1.1059
 1017MOL0     H37233   2.889   9.735   7.767 -0.3216  0.8515 -1.2103
 1017MOL0     H37234   2.771   9.709   7.975  3.4470  0.1552 -1.9495
 1017MOL0     H37235   2.764   9.887   8.015  0.2454 -1.2015  1.3725
 1017MOL0     H37236   2.624   9.927   7.826 -0.3717  0.1834 -0.2222
 1017MOL0     H37237   2.656   9.764   7.757 -2.7492 -1.5760  0.4942
 1017MOL0     H37238   2.511   9.662   7.947 -2.6420  0.5434  5.0720
 1017MOL0     H37239   2.520   9.825   8.020 -1.6250 -0.0864 -0.1615
 1017MOL0     H37240   2.395   9.917   7.833  1.3526 -0.5133 -2.6938
 1017MOL0     H37241   2.391   9.758   7.754  2.0404 -2.1060  1.6159
 1017MOL0     H37242   2.254   9.654   7.937 -0.8108  0.3385 -0.8442
 1017MOL0     H37243   2.236   9.784   8.031  1.6152 -2.6443  0.8301
 1017MOL0     H37244   2.141   9.794   7.741 -2.0583 -1.0568 -0.3468
 1017MOL0     H37245   2.103   9.918   7.852  0.6567 -0.5536  0.1977
 1017MOL0     H37246   1.981   9.795   8.089  1.1777  1.0095 -0.5811
 1017MOL0     H37247   1.777   9.543   8.171  0.5582 -0.4086 -1.3367
 1017MOL0     H37248   1.708   9.708   8.154 -2.7043 -0.6101  0.0498
 1017MOL0     H37249   1.622   9.455   8.003 -2.1934  0.0765 -0.1276
 1017MOL0     H37250   1.585   9.624   7.958 -2.1722 -0.4349  0.1620
 1017MOL0     H37251   1.437   9.656   8.140 -0.7860 -0.9421  3.3626
 1017MOL0     H37252   1.544   9.574   8.256  1.1428 -1.6625  0.0701
 1017MOL0     H37253   1.355   9.444   8.248 -0.0863  0.0567  0.0591
 1017MOL0     H37254   1.476   9.353   8.156 -1.3173 -1.0583 -1.8325
 1017MOL0     H37255   1.081   9.499   7.981  0.3134  1.0654 -1.3920
 1017MOL0     H37256   0.772   9.350   8.030 -0.9193 -1.4225 -1.6354
 1017MOL0     H37257   0.853   9.464   7.936 -1.7946 -0.1306  2.0507
 1017MOL0     H37258   0.831   9.309   7.859 -1.2755 -0.9784  0.1114
 1017MOL0     H37259   0.887   8.761   7.865 -1.0572  1.2683 -1.8710
 1017MOL0     H37260   0.686   8.603   7.880  0.4928  0.9086  0.1421
 1017MOL0     H37261   0.538   8.482   8.249 -1.1979  0.0766  0.7243
 1017MOL0     H37262   0.432   8.623   8.255  0.3585 -0.9343  1.9520
 1017MOL0     H37263   0.395   8.390   8.065  0.2554 -3.1542  1.9484
 1017MOL0     H37264   0.321   8.386   8.227  0.4967 -0.5949 -0.4050
 1017MOL0     H37265   0.253   8.613   8.028 -1.9326 -0.3272 -0.7452
 1017MOL0     H37266   0.180   8.590   8.179 -3.3410  1.0692 -2.4578
 1017MOL0     H37267   0.178   8.423   7.934 -2.3329 -3.4841 -0.7365
 1017MOL0     H37268   0.113   8.355   8.085 -0.4641  0.4121 -0.6865
 1017MOL0     H37269   0.015   8.608   7.927  3.0007 -1.7151 -0.8555
 1017MOL0     H37270  -0.026   8.578   8.102 -2.7236  0.4889 -0.8977
 1017MOL0     H37271  -0.211   8.497   7.973 -1.0277 -1.0202 -0.3950
 1017MOL0     H37272  -0.100   8.428   7.856 -1.1551 -0.5095  0.6370
 1017MOL0     H37273  -0.053   8.230   8.006 -0.0496  0.4235 -2.0373
 1017MOL0     H37274  -0.219   8.246   7.993  0.8981 -0.5054  0.5271
 1017MOL0     H37275  -0.064   8.370   8.213 -0.5748  0.1850  0.1951
 1017MOL0     H37276  -0.141   8.204   8.210 -1.5364 -0.6789 -0.6497
 1017MOL0     H37277   0.629   8.739   8.284  0.2306 -2.1873  0.1648
 1017MOL0     H37278   0.798   8.889   8.258  0.3818 -3.4399  1.7196
 1017MOL0     H37279   1.138   9.028   8.119 -2.6531 -0.5157 -0.7378
 1017MOL0     H37280   1.326   9.186   8.124 -0.1519  0.4800 -2.8135
 1017MOL0     H37281   3.227   9.569   7.676  1.8977 -3.1858 -0.6478
 1017MOL0     H37282   3.428   9.431   7.751 -0.1279 -0.9573  2.8491
 1017MOL0     H37283   3.929   9.668   7.726 -1.6068 -2.4552 -1.3077
 1017MOL0     H37284   4.158   9.569   7.760 -1.0176 -2.0365 -1.5760
 1017MOL0     H37285   4.213   9.265   8.081 -0.3898 -2.7615  0.3237
 1017MOL0     H37286   4.160   9.178   7.940 -0.8979  0.6960  1.4923
 1017MOL0     H37287   4.456   9.274   8.003  2.5212 -1.0236 -1.5121
 1017MOL0     H37288   4.402   9.180   7.863 -0.9383 -0.4874  0.7223
 1017MOL0     H37289   4.471   9.016   7.982 -1.0147  1.4989 -2.6167
 1017MOL0     H37290   4.301   9.014   8.004  1.3205 -1.6440  0.8910
 1017MOL0     H37291   4.416   8.993   8.242 -4.0310 -0.1690 -0.9244
 1017MOL0     H37292   4.329   9.138   8.236 -1.6162 -0.6301 -1.3934
 1017MOL0     H37293   4.755   9.184   8.301 -0.6229 -1.5933  0.4720
 1017MOL0     H37294   4.014   9.323   8.074  3.6426  0.1226 -0.7538
 1017MOL0     H37295   3.780   9.410   8.034 -1.9082  2.0168 -0.6869
 1018MOL0     O37296  10.590   2.348   6.023 -0.4967 -0.8772  0.0510
 1018MOL0     C37297  10.637   2.459   6.001 -1.1263 -0.3146  0.2184
 1018MOL0     O37298  10.574   2.561   5.943 -0.3302 -0.3282  0.2921
 1018MOL0     C37299  10.447   2.560   5.903 -0.5109  0.4275  1.1324
 1018MOL0     C37300  10.409   2.646   5.799  0.1720  0.4635  0.5004
 1018MOL0     C37301  10.270   2.655   5.764  0.2300 -0.5368 -0.1951
 1018MOL0     C37302  10.168   2.586   5.841 -0.4192  0.3056 -0.0842
 1018MOL0     O37303  10.027   2.590   5.817 -0.4325 -0.5113  0.1424
 1018MOL0     C37304   9.966   2.467   5.786 -0.2352 -0.1714  0.6017
 1018MOL0     C37305   9.819   2.483   5.801  0.7174 -0.5147  0.0328
 1018MOL0     C37306   9.743   2.393   5.701 -0.5061 -0.3031  0.3419
 1018MOL0     C37307   9.594   2.400   5.720  0.3810 -0.9962  0.0747
 1018MOL0     C37308   9.528   2.288   5.637  0.3188 -0.5121  0.2861
 1018MOL0     C37309   9.382   2.270   5.670 -0.6015 -0.1451  0.7511
 1018MOL0     C37310   9.348   2.124   5.641 -0.2696  0.4072 -0.1652
 1018MOL0     C37311   9.199   2.114   5.673  0.3334 -0.1435 -0.9811
 1018MOL0     N37312   9.145   1.979   5.647  0.4258  0.3356  0.2477
 1018MOL0     C37313   9.143   1.865   5.733  0.4582 -0.4569  0.2683
 1018MOL0     C37314   9.095   1.760   5.659 -0.2181 -1.1732  0.4411
 1018MOL0     C37315   9.059   1.623   5.722 -0.3674 -0.0422  0.5972
 1018MOL0     C37316   8.956   1.544   5.639  0.3554  0.3505 -0.5577
 1018MOL0     C37317   8.818   1.568   5.699  0.3955 -0.3077 -0.3585
 1018MOL0     C37318   8.699   1.497   5.646 -0.6350  0.1806 -0.2355
 1018MOL0     O37319   8.674   1.530   5.512  0.2515 -0.2951 -0.2071
 1018MOL0     C37320   8.568   1.466   5.459 -0.2706  0.5800 -0.2263
 1018MOL0     C37321   8.556   1.506   5.331  0.4956  0.6212  0.9557
 1018MOL0     C37322   8.454   1.455   5.248 -0.3154  0.1238  0.1071
 1018MOL0     C37323   8.436   1.516   5.113 -0.8945 -0.1225  0.5384
 1018MOL0     C37324   8.360   1.354   5.297 -0.5932 -0.7858 -1.4233
 1018MOL0     C37325   8.236   1.298   5.231  0.0482 -0.3739 -0.7463
 1018MOL0     O37326   8.189   1.182   5.269  0.7570  0.2184  0.2434
 1018MOL0     C37327   8.064   1.141   5.214 -0.3012 -0.6447 -0.3115
 1018MOL0     C37328   7.952   1.136   5.302 -0.3598 -0.2854 -0.8317
 1018MOL0     C37329   7.823   1.096   5.241  0.3059  0.6074 -0.7696
 1018MOL0     C37330   7.813   1.064   5.111 -0.0389  0.0084  0.2846
 1018MOL0     O37331   7.700   1.016   5.053  0.4768  0.3322 -0.1001
 1018MOL0     C37332   7.576   1.091   5.079  0.3866  0.3787  0.6864
 1018MOL0     C37333   7.470   1.074   4.962  0.4861 -0.0262 -0.0139
 1018MOL0     C37334   7.337   1.111   5.033  0.2973  0.2104  0.5152
 1018MOL0     C37335   7.286   1.014   5.149  0.0391 -0.1684 -0.3691
 1018MOL0     C37336   7.139   1.015   5.173 -0.3973 -0.3091 -0.6939
 1018MOL0     C37337   7.095   1.123   5.269  0.1261  0.5202  0.8449
 1018MOL0     C37338   6.940   1.124   5.259  0.7897  0.2833  0.0293
 1018MOL0     C37339   6.872   1.240   5.324  0.4250 -0.5238 -0.7757
 1018MOL0    Cl37340   6.696   1.226   5.321  0.0168  0.0730 -0.4708
 1018MOL0     C37341   7.931   1.067   5.027 -0.8583 -0.6690  0.0624
 1018MOL0     C37342   8.052   1.103   5.077  0.2111  0.1374 -0.9834
 1018MOL0     O37343   8.190   1.352   5.132 -0.2150  0.3459  0.3780
 1018MOL0     C37344   8.377   1.321   5.437  0.9695 -0.4358 -0.1947
 1018MOL0     C37345   8.482   1.370   5.517  1.1107  0.3417  0.6354
 1018MOL0     N37346   9.063   1.813   5.526 -0.3110  0.1675 -0.8821
 1018MOL0     N37347   9.108   1.934   5.527 -0.0646  0.7405  0.0248
 1018MOL0     C37348  10.218   2.509   5.952  0.6181 -0.2355 -0.4130
 1018MOL0     C37349  10.352   2.493   5.979 -0.0822 -0.1895  0.8426
 1018MOL0     C37350  10.782   2.479   6.051 -0.2713 -0.1537  0.9584
 1018MOL0     C37351  10.864   2.373   6.106  1.6682  0.2815 -0.9000
 1018MOL0     C37352  11.000   2.385   6.124 -0.2566 -0.4781  0.5474
 1018MOL0     C37353  11.056   2.510   6.112 -0.4857 -1.0679 -0.0857
 1018MOL0     O37354  11.188   2.520   6.137  0.1800 -0.2339 -0.2344
 1018MOL0     C37355  11.257   2.641   6.150  0.8410 -0.0334 -0.0099
 1018MOL0     C37356  11.394   2.636   6.232 -0.2189  0.1655 -0.9074
 1018MOL0     C37357  11.444   2.783   6.255 -0.0420  0.5003  0.6305
 1018MOL0     C37358  11.584   2.795   6.316 -0.2983 -0.5279  0.9206
 1018MOL0     C37359  11.687   2.705   6.259 -0.2513  0.4961  0.1860
 1018MOL0     C37360  11.762   2.619   6.215 -0.9034  0.1392  0.7690
 1018MOL0     C37361  10.978   2.621   6.068  0.0002  0.9119 -1.1905
 1018MOL0     C37362  10.840   2.599   6.039  0.0633  0.7110  0.9014
 1018MOL0     H37363  10.494   2.698   5.756  0.8741  2.2394  3.7472
 1018MOL0     H37364  10.241   2.731   5.693  0.7380 -0.7414 -0.6217
 1018MOL0     H37365  10.001   2.447   5.684  0.7419  2.6949  0.2813
 1018MOL0     H37366  10.008   2.396   5.858  2.3288 -0.5077 -1.0739
 1018MOL0     H37367   9.783   2.467   5.903  1.1027 -0.7297  0.1352
 1018MOL0     H37368   9.783   2.585   5.785  0.0261 -0.6354  0.7141
 1018MOL0     H37369   9.780   2.413   5.600  1.7746 -0.7382  1.0501
 1018MOL0     H37370   9.772   2.290   5.722 -0.5369 -0.0893  1.5000
 1018MOL0     H37371   9.562   2.393   5.824 -0.4385 -2.8653 -0.2714
 1018MOL0     H37372   9.551   2.489   5.673 -0.4810 -2.0843 -1.2504
 1018MOL0     H37373   9.530   2.319   5.532  0.1262 -1.8070 -0.1222
 1018MOL0     H37374   9.580   2.195   5.664 -4.0194 -2.4772  2.9613
 1018MOL0     H37375   9.364   2.301   5.774  0.4391 -1.6479  1.4202
 1018MOL0     H37376   9.321   2.341   5.614 -0.6422  0.1856  1.2075
 1018MOL0     H37377   9.373   2.092   5.539 -0.4534 -0.7665  0.1408
 1018MOL0     H37378   9.410   2.071   5.715  1.1278 -2.2337 -2.9879
 1018MOL0     H37379   9.158   2.192   5.609  4.0943  0.4485 -2.9626
 1018MOL0     H37380   9.184   2.153   5.774  4.7332  1.2251 -0.6594
 1018MOL0     H37381   9.164   1.871   5.839  1.2513  1.0431  0.0531
 1018MOL0     H37382   9.157   1.574   5.716 -0.6118 -0.4219 -3.4743
 1018MOL0     H37383   9.026   1.627   5.826  0.3303 -1.1478  0.8803
 1018MOL0     H37384   8.990   1.441   5.629 -0.2809  0.0658  0.1452
 1018MOL0     H37385   8.940   1.575   5.535  2.1438 -0.6569 -1.1916
 1018MOL0     H37386   8.802   1.676   5.689  3.3213  0.8810  4.5377
 1018MOL0     H37387   8.834   1.542   5.804  0.8995 -1.4843 -0.7186
 1018MOL0     H37388   8.611   1.528   5.703 -2.1491 -2.6483 -0.8113
 1018MOL0     H37389   8.726   1.391   5.650  3.0742  1.0037 -0.3288
 1018MOL0     H37390   8.625   1.574   5.280  1.6916 -2.9146 -2.7497
 1018MOL0     H37391   8.466   1.447   5.033 -0.8520 -1.1237  1.3944
 1018MOL0     H37392   8.330   1.539   5.098 -0.5968  0.2533 -1.1432
 1018MOL0     H37393   8.498   1.605   5.111 -1.9786  0.6967  1.6114
 1018MOL0     H37394   7.965   1.172   5.403  2.4881 -1.6980 -0.5765
 1018MOL0     H37395   7.737   1.090   5.307 -1.7111  1.8789 -3.1158
 1018MOL0     H37396   7.542   1.050   5.175  3.0999  0.2010  1.6408
 1018MOL0     H37397   7.598   1.198   5.084 -1.2360  0.8154 -0.7165
 1018MOL0     H37398   7.487   1.141   4.877 -1.7034 -0.5751 -0.9326
 1018MOL0     H37399   7.470   0.972   4.924  1.4819  0.3146 -0.9910
 1018MOL0     H37400   7.258   1.115   4.957  1.7788 -1.2385 -1.2074
 1018MOL0     H37401   7.337   1.210   5.078  3.2454 -0.1516  1.5053
 1018MOL0     H37402   7.314   0.910   5.128  3.2195  0.7825 -1.4375
 1018MOL0     H37403   7.334   1.038   5.243 -3.2106 -1.3486  1.7848
 1018MOL0     H37404   7.117   0.914   5.209 -0.1941 -0.2411 -0.3743
 1018MOL0     H37405   7.089   1.012   5.075 -3.9904 -2.8287  0.9899
 1018MOL0     H37406   7.125   1.111   5.373  0.1550 -2.4002  0.5828
 1018MOL0     H37407   7.130   1.220   5.232  1.4054  0.2519  1.2800
 1018MOL0     H37408   6.900   1.030   5.297 -1.0843 -1.6465 -5.7010
 1018MOL0     H37409   6.909   1.130   5.154 -1.6400 -0.2189  0.6678
 1018MOL0     H37410   6.893   1.334   5.271  0.1924  1.0284  1.6983
 1018MOL0     H37411   6.901   1.270   5.425 -1.1806 -1.2933 -0.0520
 1018MOL0     H37412   7.919   1.047   4.922 -2.8279  0.9597 -0.0852
 1018MOL0     H37413   8.135   1.119   5.009  1.6827  0.8491  0.8876
 1018MOL0     H37414   8.296   1.267   5.485  2.5286 -2.6158  0.1765
 1018MOL0     H37415   8.493   1.335   5.619 -2.8031 -3.1055  0.1492
 1018MOL0     H37416  10.148   2.483   6.031  1.2517  0.2553  0.3285
 1018MOL0     H37417  10.383   2.436   6.066  0.9167 -2.1746 -0.7251
 1018MOL0     H37418  10.821   2.276   6.129 -2.1082  1.7644 -0.9644
 1018MOL0     H37419  11.062   2.303   6.158 -0.8633 -0.3315  2.0688
 1018MOL0     H37420  11.269   2.687   6.052 -0.2789 -1.5827 -0.9223
 1018MOL0     H37421  11.190   2.719   6.186 -0.2831  0.7785 -3.4680
 1018MOL0     H37422  11.453   2.569   6.169 -1.5257 -1.6108 -0.3276
 1018MOL0     H37423  11.378   2.586   6.328  1.3044  0.3191 -0.5575
 1018MOL0     H37424  11.376   2.829   6.327  0.2775 -1.0507  1.9977
 1018MOL0     H37425  11.435   2.842   6.164 -1.4686  1.1835  1.1911
 1018MOL0     H37426  11.585   2.790   6.425  0.2420  2.8266  1.1702
 1018MOL0     H37427  11.616   2.897   6.294 -1.9202 -0.1987 -0.0497
 1018MOL0     H37428  11.835   2.552   6.175 -1.1042  1.3548 -1.8417
 1018MOL0     H37429  11.021   2.720   6.063  1.5768  0.4149  0.9858
 1018MOL0     H37430  10.796   2.692   6.006  0.3196  0.0547 -1.4652
 1019MOL0     O37431  10.931   4.044   9.026 -0.4138  0.1791  0.3886
 1019MOL0     C37432  10.964   4.120   9.119  0.0667 -0.0332  0.8153
 1019MOL0     O37433  10.872   4.204   9.191  0.6681 -0.3943  0.0663
 1019MOL0     C37434  10.744   4.202   9.144 -0.1602 -0.1072 -0.2204
 1019MOL0     C37435  10.651   4.131   9.212  0.1024 -0.0582  1.1110
 1019MOL0     C37436  10.520   4.132   9.159 -0.0182  0.1531  0.0175
 1019MOL0     C37437  10.484   4.198   9.043 -0.6119  0.4216 -0.1198
 1019MOL0     O37438  10.346   4.191   9.007 -0.4980 -0.0016 -0.5111
 1019MOL0     C37439  10.314   4.237   8.872 -0.1315  0.4910 -0.3018
 1019MOL0     C37440  10.165   4.206   8.850  0.6355 -0.0650  0.3571
 1019MOL0     C37441  10.127   4.234   8.696 -0.0220  0.2403  0.3951
 1019MOL0     C37442  10.016   4.145   8.634 -0.4250 -0.0538  0.8599
 1019MOL0     C37443   9.958   4.229   8.519 -0.4599  0.1151  0.5068
 1019MOL0     C37444   9.863   4.156   8.427  0.0005  0.4345  0.7741
 1019MOL0     C37445   9.759   4.241   8.350  0.4410  1.3690  1.3835
 1019MOL0     C37446   9.659   4.138   8.308  0.6904 -0.2307  0.1317
 1019MOL0     N37447   9.577   4.194   8.202  0.0679  0.0001  0.5009
 1019MOL0     C37448   9.450   4.145   8.177  0.2454 -0.8334 -0.5182
 1019MOL0     C37449   9.416   4.192   8.053  0.7117 -0.2055 -1.1287
 1019MOL0     C37450   9.280   4.175   7.983 -0.4299 -0.8971 -0.2852
 1019MOL0     C37451   9.307   4.143   7.830  0.7448 -0.1837 -0.2704
 1019MOL0     C37452   9.333   4.273   7.751 -0.2432  0.0715  0.3819
 1019MOL0     C37453   9.463   4.253   7.677 -0.2010 -0.6230 -0.0353
 1019MOL0     O37454   9.459   4.167   7.569  0.0599 -1.0538 -0.7057
 1019MOL0     C37455   9.356   4.193   7.476  0.1605 -0.1946  0.0321
 1019MOL0     C37456   9.349   4.306   7.392 -0.0288 -0.1754 -0.6655
 1019MOL0     C37457   9.253   4.322   7.291 -0.7478 -0.0861  0.3904
 1019MOL0     C37458   9.236   4.456   7.227 -0.0344  0.5408  0.3259
 1019MOL0     C37459   9.163   4.211   7.267  0.1896 -0.7160  0.0655
 1019MOL0     C37460   9.060   4.204   7.160 -0.6665  0.2524  0.1093
 1019MOL0     O37461   9.060   4.300   7.070 -0.4647  0.5530 -0.6485
 1019MOL0     C37462   8.950   4.298   6.992 -0.3097  0.1213  0.3119
 1019MOL0     C37463   8.845   4.365   7.031  0.4946 -0.2779  0.4543
 1019MOL0     C37464   8.728   4.380   6.954 -0.1401  0.0218 -0.6820
 1019MOL0     C37465   8.719   4.331   6.819 -0.3083  0.5086 -0.1156
 1019MOL0     O37466   8.610   4.332   6.734 -0.2044 -0.0562 -1.0337
 1019MOL0     C37467   8.522   4.452   6.751 -0.5050  0.7333  0.1995
 1019MOL0     C37468   8.408   4.440   6.650  0.2328  0.4784 -0.3248
 1019MOL0     C37469   8.304   4.551   6.644 -0.0772  0.2319 -0.6829
 1019MOL0     C37470   8.219   4.559   6.522  0.7758 -0.4674  0.2325
 1019MOL0     C37471   8.093   4.646   6.544 -0.1965  0.9235  0.0506
 1019MOL0     C37472   7.999   4.643   6.427 -0.5553  0.0639 -0.6266
 1019MOL0     C37473   7.887   4.743   6.453  0.5238 -0.0747  0.7594
 1019MOL0     C37474   7.795   4.767   6.338  0.3258  0.4391 -1.0434
 1019MOL0    Cl37475   7.725   4.607   6.298  0.0822 -0.0095 -0.1955
 1019MOL0     C37476   8.840   4.269   6.773 -0.7638  0.1320  0.0357
 1019MOL0     C37477   8.953   4.242   6.860 -0.1149 -0.0766 -0.4084
 1019MOL0     O37478   8.996   4.104   7.149 -0.7190  0.7419  0.6787
 1019MOL0     C37479   9.167   4.103   7.357 -1.8304  0.4886  0.1730
 1019MOL0     C37480   9.268   4.098   7.449 -0.4114  0.0521 -0.2282
 1019MOL0     N37481   9.517   4.262   7.999 -0.0263 -0.2686 -0.2606
 1019MOL0     N37482   9.620   4.266   8.083  0.0930 -0.2526 -0.4885
 1019MOL0     C37483  10.585   4.272   8.981 -0.0650 -0.3346 -0.1192
 1019MOL0     C37484  10.715   4.271   9.025  0.4473 -0.2257 -1.1787
 1019MOL0     C37485  11.108   4.126   9.155 -0.5421 -0.4692 -0.1590
 1019MOL0     C37486  11.215   4.119   9.066 -0.3113 -0.1135  1.0553
 1019MOL0     C37487  11.343   4.113   9.100 -0.5341  0.1431  0.8334
 1019MOL0     C37488  11.386   4.131   9.237  0.0328 -0.8444  1.0403
 1019MOL0     O37489  11.517   4.166   9.254  0.0863 -0.4662 -0.0025
 1019MOL0     C37490  11.561   4.181   9.387 -0.4052 -0.5757 -0.1021
 1019MOL0     C37491  11.555   4.049   9.467 -0.5253 -0.1630 -0.0237
 1019MOL0     C37492  11.656   3.941   9.418  0.4332  0.0641 -0.2996
 1019MOL0     C37493  11.797   3.960   9.476 -0.1277 -0.5044  0.2064
 1019MOL0     C37494  11.817   3.899   9.611 -0.0638 -0.1977  0.1331
 1019MOL0     C37495  11.841   3.850   9.717  0.2748 -0.3393  0.5896
 1019MOL0     C37496  11.283   4.160   9.333  0.6331  0.6274  0.2422
 1019MOL0     C37497  11.150   4.148   9.286 -0.1384  0.0883 -0.5192
 1019MOL0     H37498  10.671   4.074   9.302 -0.1915 -6.5064 -2.3268
 1019MOL0     H37499  10.440   4.076   9.207  0.1878 -1.1824 -1.1131
 1019MOL0     H37500  10.328   4.342   8.844  0.0645  0.0098 -2.1312
 1019MOL0     H37501  10.374   4.181   8.800  0.2883  0.2936  0.2028
 1019MOL0     H37502  10.149   4.101   8.879 -1.2228  0.6587  2.2323
 1019MOL0     H37503  10.099   4.271   8.908 -0.8565  0.2775 -1.6098
 1019MOL0     H37504  10.090   4.337   8.692 -2.5744 -0.5340  2.0235
 1019MOL0     H37505  10.219   4.235   8.636 -0.0931 -2.0780  0.1702
 1019MOL0     H37506  10.054   4.047   8.604 -2.3651 -0.5180 -0.2296
 1019MOL0     H37507   9.944   4.122   8.714 -1.3073  1.0808  0.4268
 1019MOL0     H37508   9.903   4.306   8.574 -0.6348  0.3324  0.0350
 1019MOL0     H37509  10.043   4.260   8.457 -1.0662  1.4409  0.3063
 1019MOL0     H37510   9.921   4.097   8.357 -1.4758 -1.4089  1.0242
 1019MOL0     H37511   9.813   4.071   8.476 -0.4406  0.9926  1.3134
 1019MOL0     H37512   9.719   4.329   8.403 -0.8947 -0.3879  3.4709
 1019MOL0     H37513   9.800   4.284   8.258  0.5132  0.6824  1.0917
 1019MOL0     H37514   9.587   4.110   8.385  1.0779  0.9151  0.9298
 1019MOL0     H37515   9.715   4.054   8.266  0.0573  0.6995 -2.8184
 1019MOL0     H37516   9.391   4.080   8.241 -1.6085  1.1959 -0.0552
 1019MOL0     H37517   9.221   4.091   8.020 -0.2907 -1.2245 -0.7971
 1019MOL0     H37518   9.224   4.269   7.990  3.9692  2.1968 -1.9591
 1019MOL0     H37519   9.219   4.090   7.792 -0.6883  0.4265  1.9687
 1019MOL0     H37520   9.394   4.078   7.822 -0.1503 -1.5024  0.3570
 1019MOL0     H37521   9.348   4.357   7.820  2.2198  0.7098 -0.8382
 1019MOL0     H37522   9.241   4.299   7.698 -0.8661  1.0061  1.8338
 1019MOL0     H37523   9.546   4.225   7.742  2.4126 -3.1054 -4.0153
 1019MOL0     H37524   9.489   4.355   7.645 -1.5094  0.1594  1.2593
 1019MOL0     H37525   9.422   4.386   7.405  1.5041 -1.6815  0.5084
 1019MOL0     H37526   9.141   4.495   7.266 -1.5411 -2.5951  0.0295
 1019MOL0     H37527   9.318   4.518   7.266 -0.3115 -0.5915  2.8966
 1019MOL0     H37528   9.252   4.450   7.119  0.3975 -0.5686  0.4360
 1019MOL0     H37529   8.846   4.404   7.133 -0.2167  1.7375 -0.2718
 1019MOL0     H37530   8.639   4.428   6.994 -2.5742 -3.8044 -1.0564
 1019MOL0     H37531   8.490   4.458   6.856 -1.2445  1.8784 -0.0776
 1019MOL0     H37532   8.580   4.539   6.718  0.1263 -0.7502 -3.0289
 1019MOL0     H37533   8.449   4.430   6.550  0.5086  0.7670 -0.2414
 1019MOL0     H37534   8.354   4.348   6.676  0.0577  1.1418  1.9359
 1019MOL0     H37535   8.358   4.646   6.651  1.6800 -0.8127  1.2705
 1019MOL0     H37536   8.236   4.541   6.729 -4.0757 -0.5080 -3.6792
 1019MOL0     H37537   8.278   4.604   6.443 -1.2837  0.1253 -1.0447
 1019MOL0     H37538   8.187   4.459   6.491  1.4672 -0.6147 -0.0146
 1019MOL0     H37539   8.116   4.752   6.563  1.1166  0.2700  2.6935
 1019MOL0     H37540   8.037   4.604   6.628  1.5838  1.9906  1.8653
 1019MOL0     H37541   8.046   4.676   6.334  1.5025 -1.5868 -0.2463
 1019MOL0     H37542   7.959   4.542   6.415 -0.7663  0.1843 -0.9773
 1019MOL0     H37543   7.925   4.841   6.482 -3.3698  1.6052  0.8077
 1019MOL0     H37544   7.833   4.697   6.537  1.7987  0.5975  1.9934
 1019MOL0     H37545   7.845   4.820   6.256  1.7707  3.3616  1.5276
 1019MOL0     H37546   7.722   4.843   6.367 -0.5218 -0.2945 -1.2205
 1019MOL0     H37547   8.848   4.246   6.667  1.9777 -3.0236  0.7731
 1019MOL0     H37548   9.045   4.191   6.834  1.1778 -0.6186  4.3050
 1019MOL0     H37549   9.103   4.016   7.347 -0.3988 -0.5451 -0.3509
 1019MOL0     H37550   9.278   4.001   7.498  1.4466  0.9977  1.4152
 1019MOL0     H37551  10.557   4.338   8.900 -1.0515 -2.0964 -1.2723
 1019MOL0     H37552  10.792   4.328   8.975  0.9234 -0.7251 -1.0213
 1019MOL0     H37553  11.195   4.105   8.960  1.6080  2.6100  0.2105
 1019MOL0     H37554  11.418   4.124   9.023 -0.5938 -3.0546  0.1744
 1019MOL0     H37555  11.665   4.214   9.385  0.5845 -3.3576  0.8522
 1019MOL0     H37556  11.507   4.264   9.435  1.3691  0.3259  0.4585
 1019MOL0     H37557  11.454   4.007   9.476 -0.5112  0.2208  2.8066
 1019MOL0     H37558  11.583   4.065   9.572  1.2458 -0.3087 -0.4464
 1019MOL0     H37559  11.660   3.953   9.309  1.7776  0.1387 -0.2630
 1019MOL0     H37560  11.613   3.840   9.421 -0.1886  0.1548 -3.3589
 1019MOL0     H37561  11.814   4.068   9.482  2.2548 -0.7293 -1.2167
 1019MOL0     H37562  11.870   3.922   9.404 -0.2059  0.4783 -0.4136
 1019MOL0     H37563  11.859   3.801   9.811 -0.0514 -0.6602  0.4867
 1019MOL0     H37564  11.304   4.185   9.437  2.6215  0.2991 -0.0418
 1019MOL0     H37565  11.080   4.161   9.367 -0.4141  1.6755 -0.9685
 1020MOL0     O37566  10.762  10.929   2.188 -0.5917  0.0884 -0.1029
 1020MOL0     C37567  10.849  10.999   2.133 -0.0023  0.4139  0.0559
 1020MOL0     O37568  10.840  11.135   2.113 -0.3600 -0.2289 -0.3557
 1020MOL0     C37569  10.733  11.201   2.166 -0.2810 -0.4859 -0.4906
 1020MOL0     C37570  10.761  11.271   2.282 -0.0999 -0.1077  0.3541
 1020MOL0     C37571  10.657  11.347   2.339 -0.2358  0.1872  0.7864
 1020MOL0     C37572  10.530  11.357   2.284 -0.3279  0.3612  0.3463
 1020MOL0     O37573  10.451  11.444   2.344  0.1176  0.0216 -0.2462
 1020MOL0     C37574  10.312  11.468   2.305  1.1506  0.6624  0.4454
 1020MOL0     C37575  10.237  11.365   2.394  0.2773  0.8425  0.2244
 1020MOL0     C37576  10.232  11.408   2.541  0.6729  0.4927  0.2935
 1020MOL0     C37577  10.178  11.291   2.640 -0.0259  0.3381  2.0187
 1020MOL0     C37578  10.226  11.319   2.780 -0.4360 -0.4868  0.9551
 1020MOL0     C37579  10.168  11.221   2.882  0.6429  0.1498  0.2489
 1020MOL0     C37580  10.205  11.074   2.848 -0.3894  0.7092 -0.8571
 1020MOL0     C37581  10.363  11.048   2.840 -0.5091  0.0079 -1.7502
 1020MOL0     N37582  10.440  11.098   2.963  1.5220 -0.3202 -0.2637
 1020MOL0     C37583  10.398  11.074   3.093 -0.0877  0.4821 -0.1183
 1020MOL0     C37584  10.468  11.152   3.175  0.2646  1.2062 -0.4903
 1020MOL0     C37585  10.453  11.158   3.326  0.2832 -0.1334  0.0233
 1020MOL0     C37586  10.309  11.150   3.378  0.3162  0.3165 -0.5236
 1020MOL0     C37587  10.220  11.272   3.337  0.2078 -0.0182 -0.1855
 1020MOL0     C37588  10.094  11.283   3.429  0.3222 -0.2443  0.2274
 1020MOL0     O37589  10.146  11.307   3.564  0.3304  0.6614 -0.0280
 1020MOL0     C37590  10.053  11.314   3.661 -1.0759  0.5830 -0.7598
 1020MOL0     C37591  10.093  11.357   3.790  0.2404 -0.4061 -0.0789
 1020MOL0     C37592  10.007  11.374   3.904  0.3138 -0.1761 -0.2195
 1020MOL0     C37593  10.073  11.414   4.034 -0.3144  0.0838  0.7201
 1020MOL0     C37594   9.867  11.358   3.884  0.6090  0.3693 -0.5997
 1020MOL0     C37595   9.761  11.378   3.983 -0.5408 -0.5021 -0.1657
 1020MOL0     O37596   9.651  11.307   3.976 -0.7325  0.2280 -0.0720
 1020MOL0     C37597   9.566  11.323   4.081  0.9026 -0.2925 -0.0247
 1020MOL0     C37598   9.574  11.244   4.191  1.0476  0.3587  0.2558
 1020MOL0     C37599   9.502  11.271   4.304 -0.3102 -0.3367 -0.5771
 1020MOL0     C37600   9.418  11.378   4.309 -0.7379 -0.7173  0.0587
 1020MOL0     O37601   9.346  11.386   4.425  0.0922  0.3406 -0.3416
 1020MOL0     C37602   9.300  11.522   4.450  0.4679  0.4713  0.0382
 1020MOL0     C37603   9.248  11.526   4.599 -0.5699 -0.0036  0.6150
 1020MOL0     C37604   9.214  11.667   4.637 -0.6727 -0.0552 -0.5470
 1020MOL0     C37605   9.233  11.692   4.784  0.2326  0.8420 -0.1228
 1020MOL0     C37606   9.165  11.840   4.804 -0.7463  0.0432 -0.2652
 1020MOL0     C37607   9.210  11.918   4.929  0.1397 -0.5701  0.5581
 1020MOL0     C37608   9.111  12.036   4.947 -0.6572 -0.2968  0.4957
 1020MOL0     C37609   9.092  12.067   5.090  0.3951 -0.3866 -0.8450
 1020MOL0    Cl37610   9.236  12.164   5.169 -0.3490 -0.6292  0.1256
 1020MOL0     C37611   9.409  11.469   4.199 -0.3073  0.4336  0.7561
 1020MOL0     C37612   9.483  11.436   4.087 -0.4892  0.2013  0.8822
 1020MOL0     O37613   9.779  11.471   4.055  0.1749  0.4150 -0.3573
 1020MOL0     C37614   9.822  11.316   3.751 -0.6468  0.7809 -0.6635
 1020MOL0     C37615   9.916  11.301   3.645 -0.3749  0.3034  0.9361
 1020MOL0     N37616  10.542  11.235   3.092  0.1040  0.5469  1.0994
 1020MOL0     N37617  10.529  11.198   2.967  0.4693 -0.8820 -0.0183
 1020MOL0     C37618  10.508  11.277   2.172 -0.4001  0.8870  0.3526
 1020MOL0     C37619  10.607  11.204   2.108 -0.0143 -0.3550  0.7105
 1020MOL0     C37620  10.969  10.924   2.083  0.0876 -0.4449  0.9873
 1020MOL0     C37621  11.076  10.981   2.013  0.5090  0.1603  0.5457
 1020MOL0     C37622  11.184  10.907   1.963 -0.4590 -0.9501  0.1844
 1020MOL0     C37623  11.188  10.770   1.987 -0.1149 -0.3633  0.0099
 1020MOL0     O37624  11.284  10.697   1.921 -0.0184 -0.9621 -0.3581
 1020MOL0     C37625  11.280  10.554   1.914 -1.2036  0.3594  0.1240
 1020MOL0     C37626  11.406  10.496   1.846 -1.5359  0.0596 -0.3617
 1020MOL0     C37627  11.535  10.501   1.947 -0.6309 -0.3176  0.2542
 1020MOL0     C37628  11.630  10.622   1.939  0.3159  0.0819 -1.3677
 1020MOL0     C37629  11.715  10.618   1.822  0.0523 -0.9099 -0.1959
 1020MOL0     C37630  11.789  10.619   1.728 -0.2123  0.8876  0.1655
 1020MOL0     C37631  11.083  10.711   2.048  0.3435 -0.0844 -0.3070
 1020MOL0     C37632  10.979  10.789   2.104  0.0333  0.2262  0.1599
 1020MOL0     H37633  10.864  11.272   2.318 -0.2895  0.5338  0.9106
 1020MOL0     H37634  10.677  11.412   2.423  4.0967 -1.9380  1.6910
 1020MOL0     H37635  10.275  11.570   2.320  1.9336  1.1548 -0.8721
 1020MOL0     H37636  10.290  11.453   2.199 -1.6249 -4.4460  1.4310
 1020MOL0     H37637  10.132  11.349   2.369  0.3062  0.8586  0.0924
 1020MOL0     H37638  10.282  11.267   2.375 -0.2514  0.9940 -2.1031
 1020MOL0     H37639  10.332  11.444   2.568  0.7139  0.7376 -0.1881
 1020MOL0     H37640  10.158  11.489   2.539 -0.2172 -0.1673 -4.5783
 1020MOL0     H37641  10.072  11.269   2.628  0.4031 -1.1190  0.5203
 1020MOL0     H37642  10.234  11.204   2.604  0.0320  0.9745  0.5077
 1020MOL0     H37643  10.335  11.317   2.791 -0.5568 -1.7215  2.3882
 1020MOL0     H37644  10.191  11.411   2.827  0.9665 -0.2139  1.5097
 1020MOL0     H37645  10.214  11.241   2.979 -0.2985 -3.9968  1.7765
 1020MOL0     H37646  10.061  11.233   2.903  0.7298 -0.2083  0.9398
 1020MOL0     H37647  10.167  11.007   2.925  1.1234 -0.1775 -0.8420
 1020MOL0     H37648  10.156  11.041   2.756 -1.8189 -1.0598  0.4788
 1020MOL0     H37649  10.393  11.102   2.750 -1.2653 -0.1118 -2.0801
 1020MOL0     H37650  10.378  10.940   2.836 -2.2507 -0.2717 -1.7111
 1020MOL0     H37651  10.337  10.993   3.130  0.1949  0.4578  0.3109
 1020MOL0     H37652  10.513  11.075   3.366  1.8260  1.8079  1.9737
 1020MOL0     H37653  10.483  11.256   3.363 -0.8880  1.8040 -3.6767
 1020MOL0     H37654  10.308  11.130   3.485  0.1209 -3.0453 -1.0332
 1020MOL0     H37655  10.268  11.055   3.343  0.9656  0.1561 -0.8631
 1020MOL0     H37656  10.188  11.266   3.232  0.3423 -1.6050 -0.1626
 1020MOL0     H37657  10.277  11.365   3.346 -2.2990  2.2155 -4.1326
 1020MOL0     H37658  10.041  11.187   3.435  0.5839 -0.6763 -2.9824
 1020MOL0     H37659  10.037  11.365   3.385  0.4317 -0.2591  0.0605
 1020MOL0     H37660  10.199  11.377   3.805 -0.2012  2.5438 -0.3330
 1020MOL0     H37661  10.176  11.448   4.015 -0.2065  0.2550  1.5642
 1020MOL0     H37662  10.019  11.491   4.088 -3.5024  0.5291 -2.7078
 1020MOL0     H37663  10.081  11.323   4.094 -0.8180 -0.1942  0.3784
 1020MOL0     H37664   9.632  11.152   4.188 -2.3099 -1.9423 -0.1187
 1020MOL0     H37665   9.500  11.209   4.394  1.0747  0.7261  0.2253
 1020MOL0     H37666   9.387  11.590   4.445  0.6248  0.3530  0.9584
 1020MOL0     H37667   9.220  11.558   4.385 -0.7682 -1.7296  0.2667
 1020MOL0     H37668   9.162  11.460   4.595  1.1890 -2.4051 -0.0774
 1020MOL0     H37669   9.320  11.485   4.671  0.0308 -0.0480  0.0043
 1020MOL0     H37670   9.110  11.691   4.611 -0.0039  3.7129 -0.1701
 1020MOL0     H37671   9.288  11.734   4.592 -0.5351  0.8622  1.0058
 1020MOL0     H37672   9.201  11.614   4.854 -0.8667  1.9886  0.7011
 1020MOL0     H37673   9.338  11.701   4.812  0.1711 -0.4362  0.6151
 1020MOL0     H37674   9.057  11.831   4.794 -0.7428 -2.5919  1.2543
 1020MOL0     H37675   9.201  11.902   4.721  2.6272 -2.8174 -1.1787
 1020MOL0     H37676   9.197  11.841   5.006  0.4101 -1.0667  0.1134
 1020MOL0     H37677   9.312  11.959   4.925  0.3795 -1.2686 -1.8818
 1020MOL0     H37678   9.011  12.025   4.903 -0.9067  0.2802  0.9107
 1020MOL0     H37679   9.157  12.124   4.901 -1.5194  0.1051  0.3959
 1020MOL0     H37680   9.083  11.974   5.147 -0.0417 -1.4437 -2.5586
 1020MOL0     H37681   9.002  12.125   5.113  0.2348 -1.9508  3.4960
 1020MOL0     H37682   9.351  11.560   4.188 -0.6306  0.0447 -1.2526
 1020MOL0     H37683   9.478  11.503   4.002  0.1571 -0.2585  0.4704
 1020MOL0     H37684   9.719  11.299   3.721 -0.0943 -0.1474 -2.1530
 1020MOL0     H37685   9.871  11.294   3.546  1.5908 -0.7668  0.0701
 1020MOL0     H37686  10.412  11.281   2.122  0.4248 -0.1849 -1.4040
 1020MOL0     H37687  10.578  11.161   2.013  1.5861  2.0533 -0.9748
 1020MOL0     H37688  11.066  11.085   1.985  1.5007  0.2647  0.5308
 1020MOL0     H37689  11.268  10.952   1.911 -0.1438  0.7169  2.0131
 1020MOL0     H37690  11.258  10.517   2.014 -1.1291  0.7658  0.2920
 1020MOL0     H37691  11.200  10.521   1.848  0.1659 -2.0533 -0.4547
 1020MOL0     H37692  11.432  10.542   1.749 -2.2188  0.0801 -0.5424
 1020MOL0     H37693  11.388  10.390   1.830 -4.9679  0.9478 -4.1722
 1020MOL0     H37694  11.592  10.410   1.927 -0.3297  0.2644 -1.8477
 1020MOL0     H37695  11.485  10.492   2.043 -0.1949  0.0882  0.5247
 1020MOL0     H37696  11.694  10.626   2.027  2.6539  0.4091 -2.9948
 1020MOL0     H37697  11.570  10.713   1.951  0.2336 -0.1049 -0.3040
 1020MOL0     H37698  11.845  10.615   1.637 -0.5298  0.1933 -0.0070
 1020MOL0     H37699  11.082  10.603   2.048  3.5616 -0.2198 -1.4826
 1020MOL0     H37700  10.900  10.728   2.148  1.5555 -0.5201  1.9683
 1021MOL0     O37701   3.192   8.424   9.441 -0.7562  0.4625 -0.4142
 1021MOL0     C37702   3.290   8.478   9.497  1.4110  0.3430  1.1065
 1021MOL0     O37703   3.309   8.612   9.493 -0.0344  0.1198  0.2556
 1021MOL0     C37704   3.240   8.677   9.397 -0.4842 -1.4266  0.4327
 1021MOL0     C37705   3.163   8.786   9.444 -0.0467  0.6837  0.1662
 1021MOL0     C37706   3.091   8.858   9.353 -0.3707  0.7804  0.2852
 1021MOL0     C37707   3.092   8.829   9.220 -0.3427 -1.1856  0.9549
 1021MOL0     O37708   3.026   8.904   9.126 -0.1083 -0.5635 -0.4450
 1021MOL0     C37709   3.020   9.041   9.157  0.0346  0.0190 -0.0578
 1021MOL0     C37710   2.988   9.106   9.019  0.2960 -0.0933  0.0902
 1021MOL0     C37711   2.842   9.082   8.981 -0.0379 -0.8806 -0.4985
 1021MOL0     C37712   2.811   9.181   8.868  0.4162 -0.1158 -0.0667
 1021MOL0     C37713   2.664   9.197   8.837  0.3723  0.1865 -0.5753
 1021MOL0     C37714   2.572   9.239   8.957 -0.2623  0.3145 -0.3089
 1021MOL0     C37715   2.432   9.253   8.907 -0.2466 -0.0401  0.4558
 1021MOL0     C37716   2.338   9.306   9.018  0.0521 -0.0309  0.4616
 1021MOL0     N37717   2.192   9.306   8.990 -0.1680 -0.1949  0.1352
 1021MOL0     C37718   2.092   9.355   9.074  0.6285  0.3351  1.2562
 1021MOL0     C37719   1.977   9.363   8.998  1.4804  0.4080  0.6669
 1021MOL0     C37720   1.838   9.399   9.057 -1.0952  0.4130  0.0215
 1021MOL0     C37721   1.771   9.505   8.966  0.1329  0.0258 -0.1972
 1021MOL0     C37722   1.634   9.558   9.001  0.2449  0.1311  0.0705
 1021MOL0     C37723   1.526   9.461   8.969 -0.5966  1.0137  0.0315
 1021MOL0     O37724   1.409   9.542   8.963  0.2521 -0.0814  1.0780
 1021MOL0     C37725   1.279   9.494   8.944  0.5614 -1.0404  0.9286
 1021MOL0     C37726   1.184   9.576   8.886 -0.3592 -0.0992 -0.0425
 1021MOL0     C37727   1.060   9.526   8.855 -0.0912 -0.3192 -0.0875
 1021MOL0     C37728   0.963   9.628   8.778 -0.6958  0.6363 -1.1692
 1021MOL0     C37729   1.024   9.394   8.871  0.2370  1.2059  0.1362
 1021MOL0     C37730   0.894   9.331   8.831  0.1198 -0.0546  0.9302
 1021MOL0     O37731   0.785   9.411   8.843 -0.4155 -0.0269 -0.0525
 1021MOL0     C37732   0.663   9.364   8.809  0.3847  0.3711  0.9016
 1021MOL0     C37733   0.608   9.391   8.687 -0.5688  0.7870 -0.2714
 1021MOL0     C37734   0.480   9.349   8.645 -0.4116 -0.7358 -0.6051
 1021MOL0     C37735   0.394   9.292   8.742 -0.3185 -0.0115  0.1419
 1021MOL0     O37736   0.269   9.247   8.729 -0.1725  0.1766 -0.0584
 1021MOL0     C37737   0.180   9.296   8.624 -0.0085 -0.0021 -0.1967
 1021MOL0     C37738   0.085   9.403   8.669  0.9448 -0.6996 -0.7919
 1021MOL0     C37739   0.017   9.471   8.550  0.8767 -0.4221 -0.9191
 1021MOL0     C37740  -0.093   9.569   8.594 -0.3383 -0.1319 -0.4188
 1021MOL0     C37741  -0.157   9.638   8.474  0.2813 -0.1911 -0.3376
 1021MOL0     C37742  -0.277   9.729   8.500 -0.8430 -0.0791 -0.6699
 1021MOL0     C37743  -0.325   9.773   8.362  0.5637 -0.6675 -0.9810
 1021MOL0     C37744  -0.245   9.896   8.301  0.4084 -0.2295 -0.4341
 1021MOL0    Cl37745  -0.349   9.973   8.185 -0.0189 -0.0420  0.3385
 1021MOL0     C37746   0.446   9.265   8.875 -0.7280  0.8084  0.6825
 1021MOL0     C37747   0.586   9.299   8.908  0.2951  0.2079  0.2384
 1021MOL0     O37748   0.887   9.207   8.810 -0.9253 -0.7993  0.1376
 1021MOL0     C37749   1.120   9.309   8.925 -0.5625  0.5387  0.7075
 1021MOL0     C37750   1.247   9.361   8.966  0.0679 -0.1175 -0.3265
 1021MOL0     N37751   2.018   9.322   8.870  0.0641  0.5066 -0.1682
 1021MOL0     N37752   2.143   9.287   8.868 -0.3706  1.0618  0.4656
 1021MOL0     C37753   3.160   8.715   9.179 -0.1666  1.0528 -0.4983
 1021MOL0     C37754   3.234   8.638   9.261 -1.0552  0.2340  0.2256
 1021MOL0     C37755   3.376   8.384   9.569  0.2702 -0.5071 -0.5041
 1021MOL0     C37756   3.483   8.445   9.644 -0.8777  0.5381  0.0644
 1021MOL0     C37757   3.576   8.364   9.717  0.3739  0.4954 -0.5262
 1021MOL0     C37758   3.558   8.227   9.733  0.2224  0.6264 -0.2089
 1021MOL0     O37759   3.628   8.132   9.812 -0.2015 -0.3875  0.7758
 1021MOL0     C37760   3.720   8.184   9.909  0.0218  0.3249  0.3339
 1021MOL0     C37761   3.862   8.203   9.844 -0.2663  0.1011  0.0531
 1021MOL0     C37762   3.911   8.061   9.799 -0.6779 -0.2093  1.1432
 1021MOL0     C37763   4.061   8.058   9.741  0.1772  0.3865 -0.8367
 1021MOL0     C37764   4.149   8.085   9.854  0.5062  0.1445  0.2652
 1021MOL0     C37765   4.215   8.121   9.953 -0.0523  0.0102  0.0502
 1021MOL0     C37766   3.446   8.168   9.668 -0.1458 -0.9443  0.3246
 1021MOL0     C37767   3.357   8.241   9.586 -0.6789 -0.0602 -0.1443
 1021MOL0     H37768   3.164   8.818   9.547  0.0931  1.2088  0.0060
 1021MOL0     H37769   3.034   8.943   9.390 -2.8684  0.1544 -1.8665
 1021MOL0     H37770   2.941   9.060   9.230 -1.7568  2.0233 -2.3233
 1021MOL0     H37771   3.115   9.081   9.192  0.5241 -2.0268  1.0790
 1021MOL0     H37772   2.997   9.215   9.025 -2.5377  0.1593  1.0468
 1021MOL0     H37773   3.067   9.078   8.948 -0.1513  1.2427 -0.9730
 1021MOL0     H37774   2.826   8.978   8.954  0.5454 -0.7700 -1.3071
 1021MOL0     H37775   2.785   9.102   9.072  2.5779  2.2243  0.6739
 1021MOL0     H37776   2.850   9.281   8.885  1.4045 -1.0372  4.2694
 1021MOL0     H37777   2.865   9.145   8.780 -0.0089  0.6759 -0.6600
 1021MOL0     H37778   2.668   9.268   8.755  0.8379 -0.5951 -1.2455
 1021MOL0     H37779   2.638   9.094   8.809 -0.1982 -0.0534  0.7195
 1021MOL0     H37780   2.578   9.169   9.041 -1.1625  0.6276  0.0269
 1021MOL0     H37781   2.596   9.337   8.998 -2.3607 -0.4946  3.3598
 1021MOL0     H37782   2.427   9.333   8.832  1.6778  0.2029  0.5257
 1021MOL0     H37783   2.400   9.160   8.858 -0.3747 -0.3135  1.0521
 1021MOL0     H37784   2.379   9.406   9.032  0.0276  0.1160 -0.4776
 1021MOL0     H37785   2.347   9.240   9.105 -1.5669  2.2375  2.4838
 1021MOL0     H37786   2.104   9.372   9.180 -4.0060  2.4207  1.6771
 1021MOL0     H37787   1.788   9.303   9.067  1.5547 -1.2560 -1.4767
 1021MOL0     H37788   1.852   9.439   9.158  2.1255  1.9787 -0.9157
 1021MOL0     H37789   1.754   9.474   8.863  1.8633  0.2480 -0.5814
 1021MOL0     H37790   1.847   9.584   8.955  0.8118 -0.7512 -1.3904
 1021MOL0     H37791   1.627   9.645   8.936  2.1347 -0.8173 -1.5209
 1021MOL0     H37792   1.632   9.588   9.106 -0.9100  0.3705 -0.0096
 1021MOL0     H37793   1.525   9.385   9.048 -0.7846  1.9883  0.9971
 1021MOL0     H37794   1.554   9.409   8.877 -1.2543  1.5382 -0.4805
 1021MOL0     H37795   1.211   9.679   8.863  1.3200 -0.5136 -0.1007
 1021MOL0     H37796   1.005   9.728   8.775 -0.8230  0.8708  1.9562
 1021MOL0     H37797   0.958   9.593   8.674 -3.4611  0.3469 -0.9978
 1021MOL0     H37798   0.861   9.632   8.816  0.0183  4.7490  0.8152
 1021MOL0     H37799   0.669   9.461   8.631 -0.4265  0.2954 -0.7403
 1021MOL0     H37800   0.449   9.377   8.545 -0.2336  0.0125 -0.4584
 1021MOL0     H37801   0.227   9.330   8.531  0.0687  1.1760  0.2541
 1021MOL0     H37802   0.119   9.211   8.592 -0.7990  0.1080  0.9753
 1021MOL0     H37803   0.011   9.370   8.742  2.1625  0.9833  1.3543
 1021MOL0     H37804   0.144   9.481   8.719 -1.1344  0.5842 -0.2477
 1021MOL0     H37805  -0.019   9.399   8.476  1.6405 -4.0226  1.9185
 1021MOL0     H37806   0.095   9.530   8.502  1.0856 -0.2491 -0.3768
 1021MOL0     H37807  -0.167   9.505   8.644 -1.1124  1.2939  0.3632
 1021MOL0     H37808  -0.052   9.634   8.672  0.4837  0.1367 -1.0583
 1021MOL0     H37809  -0.191   9.555   8.411 -0.8560  0.8075 -1.0815
 1021MOL0     H37810  -0.079   9.696   8.425  2.7836 -2.1375  1.1190
 1021MOL0     H37811  -0.353   9.678   8.560  0.9451 -0.4729  1.4349
 1021MOL0     H37812  -0.244   9.817   8.555  0.1944  0.9894 -2.8942
 1021MOL0     H37813  -0.425   9.815   8.375  0.5226 -0.6332 -1.3999
 1021MOL0     H37814  -0.328   9.683   8.299  0.6340  0.7714 -3.1493
 1021MOL0     H37815  -0.150   9.860   8.262  0.6952 -0.7910  0.7554
 1021MOL0     H37816  -0.225   9.975   8.374  0.1894  1.0976 -1.7583
 1021MOL0     H37817   0.401   9.209   8.956  1.9415  1.2916  2.6523
 1021MOL0     H37818   0.634   9.260   8.997 -1.1204 -0.7537  0.6197
 1021MOL0     H37819   1.105   9.203   8.943  2.2682  0.2859  2.2012
 1021MOL0     H37820   1.308   9.292   9.024 -1.4598 -1.1039  0.1871
 1021MOL0     H37821   3.158   8.677   9.078  0.4044  0.8529 -0.4366
 1021MOL0     H37822   3.261   8.537   9.231  3.4227  1.0880  0.6924
 1021MOL0     H37823   3.492   8.552   9.630  1.6301  0.0462 -3.5009
 1021MOL0     H37824   3.656   8.410   9.774  0.4940 -2.7831  2.2951
 1021MOL0     H37825   3.682   8.274   9.958  0.8331  1.1938 -0.5924
 1021MOL0     H37826   3.736   8.106   9.985 -0.4104 -0.5505 -0.4573
 1021MOL0     H37827   3.933   8.244   9.916  1.8852  1.4614 -2.6614
 1021MOL0     H37828   3.865   8.273   9.759  1.1332 -2.6657 -2.3657
 1021MOL0     H37829   3.850   8.026   9.715 -0.4389  1.0029  0.4375
 1021MOL0     H37830   3.902   7.986   9.878 -2.6507 -3.0387 -1.5105
 1021MOL0     H37831   4.084   8.127   9.659  3.9761  1.3450  0.8372
 1021MOL0     H37832   4.073   7.956   9.703 -0.7763  0.4001 -1.2101
 1021MOL0     H37833   4.288   8.148  10.027  0.1506  1.8771 -0.7857
 1021MOL0     H37834   3.429   8.062   9.685 -2.4338 -0.1294  4.5997
 1021MOL0     H37835   3.273   8.192   9.538  1.4781 -1.3952 -2.8200
 1022MOL0     O37836   2.230   3.232   0.007 -0.3498 -0.8952  0.6505
 1022MOL0     C37837   2.206   3.139  -0.068  0.6382 -0.0056 -0.8258
 1022MOL0     O37838   2.296   3.060  -0.133  0.5107  0.0429  0.3407
 1022MOL0     C37839   2.434   3.062  -0.117 -0.5829  0.4097 -0.0727
 1022MOL0     C37840   2.495   3.092   0.006 -0.2323  0.8987  0.6552
 1022MOL0     C37841   2.639   3.091   0.020  0.7470  0.9069 -0.3861
 1022MOL0     C37842   2.727   3.061  -0.092 -0.2076 -0.4730 -0.5602
 1022MOL0     O37843   2.865   3.066  -0.089 -0.6039  0.6015 -0.1397
 1022MOL0     C37844   2.918   3.007   0.039  0.7563 -0.5888 -0.0109
 1022MOL0     C37845   3.061   2.977   0.008 -0.0623  0.4204  0.6135
 1022MOL0     C37846   3.142   2.891   0.113  0.4298  0.2726  0.3352
 1022MOL0     C37847   3.263   2.829   0.039  0.2894 -0.3900 -0.5881
 1022MOL0     C37848   3.353   2.771   0.152  0.4484  0.3160 -0.5345
 1022MOL0     C37849   3.465   2.855   0.202  0.3622 -0.1151  0.8567
 1022MOL0     C37850   3.509   2.830   0.343 -0.9903 -0.2770  0.3906
 1022MOL0     C37851   3.605   2.704   0.352 -0.2197 -1.2101  0.5110
 1022MOL0     N37852   3.532   2.594   0.417 -0.5587 -0.0470 -0.0155
 1022MOL0     C37853   3.496   2.579   0.553  0.3862 -0.2331  0.4070
 1022MOL0     C37854   3.406   2.478   0.549 -0.5741  0.6347  0.5400
 1022MOL0     C37855   3.340   2.430   0.676  0.0655  0.3148 -0.3571
 1022MOL0     C37856   3.200   2.367   0.668  0.4238 -0.3152 -0.5493
 1022MOL0     C37857   3.105   2.481   0.735  0.1323 -0.1884 -0.0199
 1022MOL0     C37858   2.969   2.419   0.763 -0.2948  0.6001  1.1996
 1022MOL0     O37859   2.886   2.511   0.833 -1.0127 -0.5081 -0.2539
 1022MOL0     C37860   2.761   2.477   0.865 -0.4719  0.0848  0.3188
 1022MOL0     C37861   2.701   2.553   0.961  0.6667  0.1258 -0.2016
 1022MOL0     C37862   2.565   2.546   0.997 -0.2046  0.0814 -0.4974
 1022MOL0     C37863   2.505   2.635   1.112  0.4761  0.1761 -0.6642
 1022MOL0     C37864   2.485   2.442   0.930 -0.0859  0.4901 -0.3294
 1022MOL0     C37865   2.349   2.414   0.971  0.1863 -0.0004  0.2609
 1022MOL0     O37866   2.272   2.520   0.997 -0.4002 -0.1339  1.2234
 1022MOL0     C37867   2.145   2.502   1.035 -0.2676  0.7626  0.5073
 1022MOL0     C37868   2.052   2.455   0.935  0.0613 -0.6511  0.5502
 1022MOL0     C37869   1.911   2.461   0.952 -1.1916  0.7718 -0.5635
 1022MOL0     C37870   1.868   2.499   1.076  0.4383 -0.7714  0.8102
 1022MOL0     O37871   1.731   2.478   1.095  0.0212 -0.6861  0.1567
 1022MOL0     C37872   1.657   2.590   1.126  0.4427  0.2699 -0.2458
 1022MOL0     C37873   1.510   2.551   1.141 -0.8523 -0.0721  0.2015
 1022MOL0     C37874   1.497   2.449   1.251 -0.3794 -0.1874  0.1954
 1022MOL0     C37875   1.350   2.443   1.294  0.2097 -0.2765 -0.6310
 1022MOL0     C37876   1.271   2.341   1.219  0.8241  0.9729 -0.6395
 1022MOL0     C37877   1.115   2.352   1.251  0.4321  0.6049 -0.5586
 1022MOL0     C37878   1.053   2.483   1.208 -1.2562  0.3192 -0.1501
 1022MOL0     C37879   0.908   2.471   1.195 -0.6406  0.2034 -0.1165
 1022MOL0    Cl37880   0.884   2.374   1.056  0.6952  0.2531  0.2660
 1022MOL0     C37881   1.960   2.539   1.178 -0.0358 -0.2889 -0.1841
 1022MOL0     C37882   2.096   2.551   1.150  0.0601 -0.3667 -0.0738
 1022MOL0     O37883   2.312   2.294   0.983  0.0995 -0.3280  0.4132
 1022MOL0     C37884   2.551   2.362   0.833 -0.4399  0.0693  0.3178
 1022MOL0     C37885   2.685   2.379   0.800  0.0253  1.2794  0.6919
 1022MOL0     N37886   3.385   2.434   0.422  0.2649 -0.1936 -0.3445
 1022MOL0     N37887   3.472   2.495   0.356  0.8880  0.1274  0.4570
 1022MOL0     C37888   2.662   3.026  -0.216  1.1697 -0.9348 -2.0858
 1022MOL0     C37889   2.516   3.027  -0.228  0.0792 -0.0091 -0.4885
 1022MOL0     C37890   2.064   3.111  -0.106  0.5906  0.1548  0.4833
 1022MOL0     C37891   2.024   3.021  -0.208  0.3584  0.8522 -0.0377
 1022MOL0     C37892   1.881   3.001  -0.243 -0.3978 -0.2655 -0.2002
 1022MOL0     C37893   1.781   3.076  -0.184  0.2481  0.0818  0.8347
 1022MOL0     O37894   1.657   3.058  -0.246 -0.0155 -0.2094 -1.1555
 1022MOL0     C37895   1.543   3.076  -0.153 -0.2766 -0.0390 -0.1404
 1022MOL0     C37896   1.419   2.991  -0.193 -0.2607 -0.2792 -0.5352
 1022MOL0     C37897   1.323   2.979  -0.074  0.0154 -0.0633 -0.3436
 1022MOL0     C37898   1.178   2.962  -0.113 -0.1684  0.3922 -0.1066
 1022MOL0     C37899   1.162   2.856  -0.216  0.2140 -0.1844 -1.3637
 1022MOL0     C37900   1.158   2.770  -0.295  0.9043  0.2205  0.4273
 1022MOL0     C37901   1.823   3.162  -0.082 -0.4159 -0.2832 -0.3206
 1022MOL0     C37902   1.961   3.175  -0.046  0.0530  0.0675 -0.4819
 1022MOL0     H37903   2.437   3.103   0.097  0.4942 -0.5194  1.3264
 1022MOL0     H37904   2.663   3.114   0.123 -1.0102  3.4593 -0.4707
 1022MOL0     H37905   2.918   3.073   0.126  2.2620 -1.5423  0.7637
 1022MOL0     H37906   2.872   2.913   0.072  2.0286 -1.1699  0.1815
 1022MOL0     H37907   3.054   2.916  -0.083 -0.7865  0.3613  0.6982
 1022MOL0     H37908   3.116   3.068  -0.013  1.9335 -1.2038 -1.7283
 1022MOL0     H37909   3.162   2.954   0.201 -3.9318  1.2803  0.8788
 1022MOL0     H37910   3.076   2.813   0.152  0.6857 -0.8548 -1.3882
 1022MOL0     H37911   3.229   2.755  -0.034 -2.2089  0.0812  0.0132
 1022MOL0     H37912   3.320   2.897  -0.026  1.2836 -0.7531 -0.1061
 1022MOL0     H37913   3.288   2.742   0.235  2.1400 -0.6716  0.4908
 1022MOL0     H37914   3.390   2.672   0.123 -2.6146 -0.3999 -2.4630
 1022MOL0     H37915   3.549   2.857   0.132 -0.6763  1.4293 -0.3975
 1022MOL0     H37916   3.429   2.958   0.201  0.5138 -0.0345  2.1011
 1022MOL0     H37917   3.566   2.913   0.385  1.0088 -1.9833  1.2172
 1022MOL0     H37918   3.420   2.818   0.405 -1.5387 -0.2678 -0.3853
 1022MOL0     H37919   3.695   2.735   0.407 -0.0622  2.0241 -1.2922
 1022MOL0     H37920   3.643   2.663   0.258  1.9453 -2.4875  1.8617
 1022MOL0     H37921   3.528   2.635   0.640  2.7186 -1.2655  0.3079
 1022MOL0     H37922   3.416   2.360   0.714 -0.1793  0.3380  0.1857
 1022MOL0     H37923   3.342   2.509   0.751 -2.5216  0.3682 -0.2718
 1022MOL0     H37924   3.210   2.287   0.741 -1.1880 -0.0982 -0.0479
 1022MOL0     H37925   3.162   2.337   0.570 -1.5783  1.0550 -0.2510
 1022MOL0     H37926   3.086   2.568   0.672 -2.8754 -2.1343 -2.1068
 1022MOL0     H37927   3.160   2.512   0.824 -1.5162  1.0225  0.6268
 1022MOL0     H37928   2.973   2.322   0.814  2.8108  0.6331  1.1943
 1022MOL0     H37929   2.922   2.402   0.666 -3.2274 -0.6415  2.7142
 1022MOL0     H37930   2.762   2.631   1.006  0.6275 -0.8574  1.6401
 1022MOL0     H37931   2.428   2.703   1.075 -1.0907 -1.6334 -0.8915
 1022MOL0     H37932   2.456   2.580   1.193 -0.9451  1.3786 -0.6651
 1022MOL0     H37933   2.586   2.687   1.164  0.6261  0.0237 -0.7429
 1022MOL0     H37934   2.081   2.419   0.837  1.2444  2.3365 -0.3166
 1022MOL0     H37935   1.848   2.405   0.884 -0.5218  1.0555 -1.4277
 1022MOL0     H37936   1.681   2.625   1.227  0.1014  0.3617 -0.1951
 1022MOL0     H37937   1.663   2.679   1.062 -1.5068  1.9667  1.7556
 1022MOL0     H37938   1.457   2.643   1.165  2.7990  1.3984  3.8098
 1022MOL0     H37939   1.482   2.507   1.045  0.6148 -0.8629  0.1072
 1022MOL0     H37940   1.564   2.483   1.331  0.6774  0.0800 -0.7841
 1022MOL0     H37941   1.525   2.350   1.213  0.0830 -0.6923  1.7649
 1022MOL0     H37942   1.347   2.420   1.401  3.6902 -0.1304 -0.3943
 1022MOL0     H37943   1.303   2.541   1.286  1.9429  0.8561  1.8262
 1022MOL0     H37944   1.295   2.243   1.260  2.7356  0.1665 -3.3782
 1022MOL0     H37945   1.288   2.346   1.111  3.9136  1.0521 -0.2350
 1022MOL0     H37946   1.065   2.266   1.206 -1.0895 -0.2570  2.4719
 1022MOL0     H37947   1.104   2.344   1.360  0.2527  0.8905 -0.5558
 1022MOL0     H37948   1.099   2.504   1.111  0.0204 -0.8461  0.1637
 1022MOL0     H37949   1.084   2.565   1.274 -2.6623 -1.3738  2.8280
 1022MOL0     H37950   0.872   2.572   1.173  1.9436  1.3633  0.5339
 1022MOL0     H37951   0.847   2.435   1.278 -1.8913  0.3986 -0.9327
 1022MOL0     H37952   1.919   2.567   1.274 -0.3656  1.9123 -0.9109
 1022MOL0     H37953   2.162   2.590   1.227 -0.4531 -1.2471  0.8349
 1022MOL0     H37954   2.490   2.289   0.780 -3.5501  0.4684  3.0162
 1022MOL0     H37955   2.727   2.316   0.723 -1.6523  1.1986 -0.1990
 1022MOL0     H37956   2.718   3.018  -0.309  1.0948  0.7407 -2.3214
 1022MOL0     H37957   2.462   3.013  -0.321 -2.2797 -0.8619  0.9347
 1022MOL0     H37958   2.101   2.970  -0.265 -0.9640  1.4575 -2.5613
 1022MOL0     H37959   1.870   2.935  -0.328 -1.7126  0.3967 -0.5639
 1022MOL0     H37960   1.563   3.038  -0.052 -0.5755 -2.7875 -1.0402
 1022MOL0     H37961   1.533   3.185  -0.156  1.8442  0.4418  3.8292
 1022MOL0     H37962   1.448   2.889  -0.223  0.7836 -0.6965  1.6529
 1022MOL0     H37963   1.362   3.051  -0.264  0.2986 -1.4038 -1.9949
 1022MOL0     H37964   1.313   3.067  -0.010 -0.4962 -0.5871  0.3042
 1022MOL0     H37965   1.360   2.898  -0.011 -0.7224  0.7026  1.1144
 1022MOL0     H37966   1.132   3.051  -0.158 -0.1014  1.0287  1.0406
 1022MOL0     H37967   1.121   2.941  -0.022 -0.7526  1.1410 -0.2873
 1022MOL0     H37968   1.147   2.690  -0.365 -0.1309  1.2654 -0.6527
 1022MOL0     H37969   1.762   3.223  -0.017 -0.1647  0.9337 -1.1942
 1022MOL0     H37970   1.974   3.249   0.032  2.5322 -1.4966  0.7096
 1023MOL0     O37971   7.472   4.020   3.055  1.1618  0.4171  0.3470
 1023MOL0     C37972   7.517   4.122   3.002 -0.1945 -0.5049  0.3412
 1023MOL0     O37973   7.443   4.232   2.964  0.3341 -0.3150 -0.2062
 1023MOL0     C37974   7.303   4.237   2.960  0.3021  0.6213 -1.2838
 1023MOL0     C37975   7.209   4.146   3.012 -0.2508  0.5283  0.8940
 1023MOL0     C37976   7.068   4.167   2.982 -0.6029 -0.0254 -0.2402
 1023MOL0     C37977   7.024   4.270   2.895  0.5790 -0.7222  0.3204
 1023MOL0     O37978   6.885   4.277   2.873 -0.3716  0.5243  0.6485
 1023MOL0     C37979   6.841   4.408   2.842 -1.2637  0.2828 -0.7143
 1023MOL0     C37980   6.689   4.425   2.855  0.1048  0.4139  0.1048
 1023MOL0     C37981   6.630   4.419   3.000 -0.1470 -0.1466 -0.5660
 1023MOL0     C37982   6.478   4.453   3.001  0.4063 -0.3083 -0.1281
 1023MOL0     C37983   6.416   4.504   3.139 -1.0358 -0.1110 -0.2901
 1023MOL0     C37984   6.264   4.500   3.150  0.7582 -0.3376 -0.4465
 1023MOL0     C37985   6.168   4.543   3.033  0.5430 -0.5122 -1.0822
 1023MOL0     C37986   6.032   4.577   3.086 -0.5886 -1.0673  0.1464
 1023MOL0     N37987   5.936   4.466   3.074  0.0296 -1.3539  0.1162
 1023MOL0     C37988   5.895   4.405   2.962  0.6633 -0.6369  1.0523
 1023MOL0     C37989   5.805   4.314   3.003  0.3468 -0.2439 -0.6366
 1023MOL0     C37990   5.713   4.236   2.913  0.0824  0.1665  1.3427
 1023MOL0     C37991   5.656   4.097   2.977  0.0827  0.4512  0.1567
 1023MOL0     C37992   5.504   4.071   2.932 -0.3400  0.3142  0.4231
 1023MOL0     C37993   5.406   4.166   2.994  0.0259 -0.3018 -0.3434
 1023MOL0     O37994   5.360   4.127   3.126 -0.1709 -0.2835 -0.1779
 1023MOL0     C37995   5.231   4.089   3.137  0.2114  0.6278 -1.1471
 1023MOL0     C37996   5.196   3.958   3.101 -0.5361  0.5898 -0.5513
 1023MOL0     C37997   5.060   3.902   3.104 -0.3035 -0.0606  1.2122
 1023MOL0     C37998   5.032   3.757   3.058  0.1080 -0.4559 -1.2198
 1023MOL0     C37999   4.957   3.988   3.152  0.1083 -0.0124  0.3000
 1023MOL0     C38000   4.807   3.958   3.170 -0.4559  1.0211  0.0185
 1023MOL0     O38001   4.772   3.827   3.134 -0.3003 -0.1791 -0.0263
 1023MOL0     C38002   4.645   3.787   3.166 -0.8005 -0.3139  0.0576
 1023MOL0     C38003   4.585   3.794   3.296 -0.8951  0.8300  0.2804
 1023MOL0     C38004   4.463   3.726   3.331 -0.0689  0.0978  0.0536
 1023MOL0     C38005   4.397   3.667   3.228 -0.2961  0.2629  0.9809
 1023MOL0     O38006   4.270   3.604   3.237  0.5292 -1.3448  0.1797
 1023MOL0     C38007   4.172   3.672   3.325 -0.9360 -0.0632  0.2354
 1023MOL0     C38008   4.043   3.576   3.354 -0.6565  0.0156 -0.6787
 1023MOL0     C38009   3.992   3.517   3.222 -0.5596  0.3448 -0.1598
 1023MOL0     C38010   3.853   3.453   3.239  0.7674  0.2803  0.2798
 1023MOL0     C38011   3.764   3.483   3.127 -0.8288 -0.2247  0.7735
 1023MOL0     C38012   3.633   3.426   3.140  0.0513  0.9183  0.3418
 1023MOL0     C38013   3.549   3.456   3.009  0.5207 -0.3276  0.3335
 1023MOL0     C38014   3.615   3.411   2.876  0.4551 -0.2749 -0.5297
 1023MOL0    Cl38015   3.662   3.242   2.900  0.1598  0.1790 -0.0753
 1023MOL0     C38016   4.451   3.672   3.090 -0.1579  0.6888 -0.4824
 1023MOL0     C38017   4.573   3.736   3.060  0.0837  0.1136  0.3594
 1023MOL0     O38018   4.726   4.050   3.204  0.4091  0.1559  0.2562
 1023MOL0     C38019   4.995   4.118   3.195 -0.0606 -0.4733  0.5924
 1023MOL0     C38020   5.122   4.165   3.181 -0.2862 -0.3771 -0.3399
 1023MOL0     N38021   5.804   4.306   3.138 -0.3669 -0.1851  0.1341
 1023MOL0     N38022   5.877   4.404   3.182  0.1519 -0.0105  0.1277
 1023MOL0     C38023   7.116   4.368   2.858 -0.8556 -0.6381  0.3887
 1023MOL0     C38024   7.250   4.352   2.898 -0.2256  0.1010  0.2770
 1023MOL0     C38025   7.665   4.122   2.964  0.5098 -0.4897  0.7309
 1023MOL0     C38026   7.744   4.032   3.029  0.0943  0.4493 -0.2004
 1023MOL0     C38027   7.882   4.040   3.030  0.0792 -0.3879  1.2132
 1023MOL0     C38028   7.940   4.141   2.950  0.6474  0.2898  0.4635
 1023MOL0     O38029   8.076   4.159   2.933 -0.1942  0.6798  0.0479
 1023MOL0     C38030   8.168   4.085   3.023 -0.6594 -1.1747  0.5668
 1023MOL0     C38031   8.301   4.126   2.979  0.5847  0.5181  0.7442
 1023MOL0     C38032   8.400   4.119   3.098  0.3135  0.8210  0.5400
 1023MOL0     C38033   8.548   4.135   3.070  0.1829 -0.3031  0.1540
 1023MOL0     C38034   8.627   4.162   3.189  0.4152  1.3180  0.1196
 1023MOL0     C38035   8.678   4.201   3.294 -0.3845 -0.7219  0.8391
 1023MOL0     C38036   7.862   4.234   2.883  0.0646 -1.1334 -1.0311
 1023MOL0     C38037   7.720   4.221   2.886 -0.2772  0.0183  0.4717
 1023MOL0     H38038   7.234   4.059   3.072  0.1302 -0.1803 -0.2447
 1023MOL0     H38039   6.998   4.090   3.013  1.0867 -1.1986  0.8408
 1023MOL0     H38040   6.874   4.478   2.919  0.6176 -0.7956 -0.4864
 1023MOL0     H38041   6.872   4.450   2.746  0.5631  2.6024  0.7914
 1023MOL0     H38042   6.674   4.523   2.809  1.1507  1.5428  2.0350
 1023MOL0     H38043   6.633   4.352   2.796 -1.0771  1.2172  0.1944
 1023MOL0     H38044   6.656   4.320   3.039  2.8071 -0.1430 -2.2089
 1023MOL0     H38045   6.682   4.494   3.061  0.5462 -2.3856  1.8020
 1023MOL0     H38046   6.464   4.533   2.928 -1.8025  0.0543  0.6276
 1023MOL0     H38047   6.417   4.373   2.958  0.1303  0.0633 -0.4349
 1023MOL0     H38048   6.457   4.443   3.219  1.0083 -0.3541 -1.4458
 1023MOL0     H38049   6.454   4.606   3.152 -2.3103  0.2799  0.4513
 1023MOL0     H38050   6.230   4.397   3.164  1.8983 -0.6248  0.2767
 1023MOL0     H38051   6.250   4.561   3.240  3.2248 -0.9953  0.4439
 1023MOL0     H38052   6.199   4.639   2.992  1.2250  1.4128  3.3752
 1023MOL0     H38053   6.159   4.467   2.954 -0.4473 -0.7831 -0.7276
 1023MOL0     H38054   5.996   4.673   3.048  1.2109 -0.0575  0.8410
 1023MOL0     H38055   6.046   4.599   3.193  2.1648  0.6352 -0.4585
 1023MOL0     H38056   5.927   4.402   2.858 -0.3054  0.5860  0.6973
 1023MOL0     H38057   5.631   4.300   2.878 -1.0921  0.1373  3.8030
 1023MOL0     H38058   5.766   4.215   2.819  0.0025  1.4050  1.0121
 1023MOL0     H38059   5.655   4.098   3.086 -1.4122 -1.6488  0.2209
 1023MOL0     H38060   5.704   4.003   2.950 -3.9747 -1.9504  0.4544
 1023MOL0     H38061   5.492   3.963   2.937 -0.1192  0.1781 -1.3172
 1023MOL0     H38062   5.495   4.105   2.828 -1.6954  2.5333  1.1803
 1023MOL0     H38063   5.315   4.166   2.933 -0.9006  2.6842  0.8507
 1023MOL0     H38064   5.443   4.269   2.997 -1.8501  0.4526 -1.3237
 1023MOL0     H38065   5.280   3.896   3.070  0.8871  1.5007  1.2915
 1023MOL0     H38066   5.119   3.694   3.039  0.4580 -0.2387 -0.3687
 1023MOL0     H38067   4.982   3.709   3.143  0.9899  1.3725  0.4113
 1023MOL0     H38068   4.960   3.749   2.976 -2.6045 -1.0422  1.0240
 1023MOL0     H38069   4.645   3.831   3.378 -0.3829  0.5099  0.0586
 1023MOL0     H38070   4.431   3.731   3.435 -0.4372  0.8405 -0.0930
 1023MOL0     H38071   4.214   3.696   3.423 -2.6753 -1.3492  1.3337
 1023MOL0     H38072   4.148   3.775   3.296 -1.4915 -0.2606 -0.0205
 1023MOL0     H38073   4.085   3.490   3.407  0.5993  0.9405 -0.1216
 1023MOL0     H38074   3.961   3.616   3.415  0.3258 -2.4358  2.5806
 1023MOL0     H38075   4.059   3.448   3.169 -2.4001  0.3816 -2.7402
 1023MOL0     H38076   3.988   3.605   3.157 -2.8381  0.7556  0.4659
 1023MOL0     H38077   3.860   3.345   3.256  0.6452 -0.2721 -2.7542
 1023MOL0     H38078   3.799   3.484   3.329 -0.7132 -2.0229  0.2665
 1023MOL0     H38079   3.823   3.456   3.040  3.2848  2.6827  2.3377
 1023MOL0     H38080   3.737   3.589   3.133 -0.1361  0.0936 -1.1834
 1023MOL0     H38081   3.631   3.317   3.145 -3.0522  0.8780  0.3460
 1023MOL0     H38082   3.578   3.475   3.220  1.4772  0.5705  1.5838
 1023MOL0     H38083   3.539   3.563   2.989  1.3768 -0.7434 -2.9594
 1023MOL0     H38084   3.450   3.409   3.017 -0.0775  1.0559  1.3551
 1023MOL0     H38085   3.705   3.469   2.854  0.8808 -0.9654 -0.6368
 1023MOL0     H38086   3.553   3.420   2.787 -0.2097  1.5254  0.0727
 1023MOL0     H38087   4.391   3.634   3.008 -0.7422  1.1568 -0.2800
 1023MOL0     H38088   4.609   3.740   2.957 -3.8466  1.9452 -1.1574
 1023MOL0     H38089   4.926   4.193   3.232  1.2060 -0.1472  2.3632
 1023MOL0     H38090   5.128   4.273   3.194 -6.5786  0.2942  0.1046
 1023MOL0     H38091   7.093   4.451   2.792 -3.2380 -1.3051  0.2947
 1023MOL0     H38092   7.308   4.433   2.854  1.8589 -2.1275 -1.3888
 1023MOL0     H38093   7.699   3.957   3.094 -1.0190  2.1116  1.0184
 1023MOL0     H38094   7.941   3.964   3.081 -0.7773 -1.9848 -0.1051
 1023MOL0     H38095   8.155   4.099   3.130  1.3700 -1.0951  0.8446
 1023MOL0     H38096   8.160   3.980   2.996 -0.5100 -0.6384 -1.7876
 1023MOL0     H38097   8.308   4.230   2.947  0.6505 -0.2292 -1.9158
 1023MOL0     H38098   8.337   4.061   2.899 -0.8070  1.5195 -0.7466
 1023MOL0     H38099   8.386   4.023   3.148 -0.5077 -0.5928 -2.2074
 1023MOL0     H38100   8.376   4.201   3.167 -0.0667 -1.0879  2.7898
 1023MOL0     H38101   8.553   4.228   3.012 -1.0597  0.8261  1.7855
 1023MOL0     H38102   8.589   4.046   3.021 -0.4910 -2.3627  3.1344
 1023MOL0     H38103   8.711   4.242   3.387 -0.7242  3.5682 -0.7192
 1023MOL0     H38104   7.895   4.320   2.825 -3.0836 -0.1220 -1.5309
 1023MOL0     H38105   7.661   4.299   2.838  0.5558  0.8006  0.7079
 1024MOL0     O38106   8.681   6.562   1.705  0.8177 -0.4764  0.9748
 1024MOL0     C38107   8.652   6.589   1.823  0.3610  0.0741 -0.6530
 1024MOL0     O38108   8.551   6.523   1.896 -0.6035 -0.1255  0.1921
 1024MOL0     C38109   8.464   6.441   1.834  0.2577 -0.3848  0.0438
 1024MOL0     C38110   8.467   6.295   1.844  0.4284 -0.9596  0.2206
 1024MOL0     C38111   8.380   6.219   1.759  0.2606  0.2878  0.6139
 1024MOL0     C38112   8.289   6.276   1.677 -0.1941 -0.4963 -0.1961
 1024MOL0     O38113   8.195   6.205   1.600  0.3349 -0.0946 -0.3903
 1024MOL0     C38114   8.238   6.079   1.552  0.3616  0.7518  1.6546
 1024MOL0     C38115   8.141   6.024   1.440 -0.3649  0.7034 -0.1957
 1024MOL0     C38116   7.992   5.976   1.476 -0.0799  0.6128  1.0087
 1024MOL0     C38117   7.900   5.979   1.348  0.2015  0.5923  0.0502
 1024MOL0     C38118   7.764   5.931   1.375  0.6506 -0.9489 -0.3321
 1024MOL0     C38119   7.687   5.936   1.248 -0.2430 -0.5902 -0.1342
 1024MOL0     C38120   7.546   5.865   1.255 -0.9795 -1.2528  0.0895
 1024MOL0     C38121   7.556   5.711   1.286  0.1962 -0.0540 -0.7569
 1024MOL0     N38122   7.451   5.617   1.244  0.5547 -0.3142 -0.9684
 1024MOL0     C38123   7.357   5.631   1.142  0.1303  0.5942 -0.3273
 1024MOL0     C38124   7.291   5.516   1.163 -0.4347 -0.5516  0.9000
 1024MOL0     C38125   7.197   5.472   1.053  0.9079  0.4146  1.0897
 1024MOL0     C38126   7.167   5.320   1.055 -0.4848  0.1012 -0.8412
 1024MOL0     C38127   7.090   5.254   0.934 -0.3404 -0.9593  0.1491
 1024MOL0     C38128   6.954   5.320   0.904 -0.2763  0.5515 -0.0116
 1024MOL0     O38129   6.905   5.269   0.775  0.0421  0.7881  0.7726
 1024MOL0     C38130   6.791   5.319   0.733  0.1752 -0.1558  0.1091
 1024MOL0     C38131   6.753   5.273   0.604  0.3291  0.2580  0.0748
 1024MOL0     C38132   6.630   5.308   0.548  1.1193  0.5043  0.3817
 1024MOL0     C38133   6.601   5.242   0.412 -0.1766 -0.0536  0.0517
 1024MOL0     C38134   6.553   5.413   0.615 -0.4822 -0.7432 -0.2414
 1024MOL0     C38135   6.430   5.467   0.557  0.3568  0.0980  0.3976
 1024MOL0     O38136   6.360   5.560   0.627 -0.1377 -0.1353 -0.5151
 1024MOL0     C38137   6.249   5.614   0.572 -0.7686  0.8169 -0.1538
 1024MOL0     C38138   6.131   5.539   0.556  0.2133  0.4009  0.5042
 1024MOL0     C38139   6.001   5.606   0.532 -0.4730  0.1226 -1.8055
 1024MOL0     C38140   5.998   5.747   0.501  0.1194 -0.5271 -0.7975
 1024MOL0     O38141   5.885   5.817   0.471 -0.2265 -0.9298 -0.1072
 1024MOL0     C38142   5.846   5.805   0.336 -0.3037 -0.6162  0.1176
 1024MOL0     C38143   5.684   5.822   0.352 -1.1793 -0.2300 -0.2108
 1024MOL0     C38144   5.638   5.963   0.322  0.6329  0.3041  0.4948
 1024MOL0     C38145   5.507   6.004   0.383 -0.8099 -0.1359 -0.2931
 1024MOL0     C38146   5.478   6.148   0.342 -0.1505  0.1550  0.6626
 1024MOL0     C38147   5.355   6.202   0.410  0.2192  0.0536  0.2090
 1024MOL0     C38148   5.234   6.112   0.375  0.2470 -0.2598 -0.7301
 1024MOL0     C38149   5.195   6.085   0.223 -0.1711  0.1488 -0.2384
 1024MOL0    Cl38150   5.044   5.988   0.231  0.1788 -0.8609 -0.2575
 1024MOL0     C38151   6.120   5.815   0.505  0.2187  0.0027 -0.0342
 1024MOL0     C38152   6.243   5.753   0.546  0.4942 -0.3435 -0.2652
 1024MOL0     O38153   6.398   5.432   0.442  0.5107 -0.4198  0.8503
 1024MOL0     C38154   6.600   5.464   0.735  0.5325  0.4833 -0.4413
 1024MOL0     C38155   6.715   5.412   0.799  0.4185 -0.1527 -0.8787
 1024MOL0     N38156   7.322   5.448   1.282  0.0161 -0.5813 -0.2404
 1024MOL0     N38157   7.420   5.519   1.329 -0.7369  0.1564  0.0285
 1024MOL0     C38158   8.282   6.415   1.677  0.6869  0.6442  0.5755
 1024MOL0     C38159   8.373   6.492   1.750  0.8978  0.1430 -0.1053
 1024MOL0     C38160   8.722   6.708   1.876  0.7944  0.6428  0.2127
 1024MOL0     C38161   8.658   6.781   1.978 -1.6090  0.2100  0.4465
 1024MOL0     C38162   8.730   6.894   2.029  0.8577 -0.0962  0.1161
 1024MOL0     C38163   8.854   6.922   1.998 -1.0654  0.4906  0.2044
 1024MOL0     O38164   8.931   7.026   2.037  0.3634  0.0677 -0.4393
 1024MOL0     C38165   8.932   7.066   2.179 -0.0375  0.0663 -0.1081
 1024MOL0     C38166   9.043   6.993   2.255 -0.4545 -0.1016 -0.5442
 1024MOL0     C38167   9.184   7.023   2.196  0.1161  1.0147  1.0717
 1024MOL0     C38168   9.299   6.967   2.275  0.6058  0.0237  0.1868
 1024MOL0     C38169   9.313   6.821   2.269  0.7552 -0.1355 -0.5812
 1024MOL0     C38170   9.351   6.699   2.259  0.0360 -0.0687 -0.4567
 1024MOL0     C38171   8.915   6.850   1.898 -0.1082  0.1046 -0.1801
 1024MOL0     C38172   8.855   6.734   1.841  0.1534  0.6723  0.0772
 1024MOL0     H38173   8.549   6.249   1.899  1.1264  0.2457  0.2161
 1024MOL0     H38174   8.386   6.111   1.751  1.5156  0.3845  0.0164
 1024MOL0     H38175   8.332   6.080   1.496 -0.6523 -2.0939 -0.3613
 1024MOL0     H38176   8.248   6.012   1.638 -0.1672 -0.2773  0.9361
 1024MOL0     H38177   8.150   6.106   1.368  1.5845 -1.1096 -2.1621
 1024MOL0     H38178   8.188   5.935   1.398  0.7350  1.6406 -1.0159
 1024MOL0     H38179   8.003   5.871   1.505 -1.3811 -0.4556 -1.8922
 1024MOL0     H38180   7.943   6.036   1.553 -1.3371  0.8495  0.0657
 1024MOL0     H38181   7.902   6.082   1.313  0.4404  1.1394  1.5744
 1024MOL0     H38182   7.945   5.910   1.276 -1.1155  0.1088 -0.3268
 1024MOL0     H38183   7.777   5.826   1.404  0.8477 -1.9546 -3.6716
 1024MOL0     H38184   7.712   5.994   1.448  3.7890  2.8185 -1.0057
 1024MOL0     H38185   7.670   6.039   1.218  0.7967  0.2444  1.9573
 1024MOL0     H38186   7.750   5.888   1.173  1.0652 -1.1036  1.2187
 1024MOL0     H38187   7.489   5.929   1.324  1.1646 -1.1926  1.9283
 1024MOL0     H38188   7.509   5.870   1.152 -1.0312 -3.5761 -0.0401
 1024MOL0     H38189   7.555   5.707   1.396  1.9358  2.3343 -0.5830
 1024MOL0     H38190   7.642   5.666   1.237 -0.6207  0.9199 -3.2093
 1024MOL0     H38191   7.349   5.707   1.065  1.6391  1.5652  0.4213
 1024MOL0     H38192   7.107   5.533   1.059  0.3548 -0.1517 -0.7531
 1024MOL0     H38193   7.232   5.496   0.952 -1.7774 -1.2212 -0.3516
 1024MOL0     H38194   7.115   5.305   1.150  0.8454  2.1470  0.2892
 1024MOL0     H38195   7.268   5.278   1.060 -0.3292  0.6182  1.8743
 1024MOL0     H38196   7.089   5.146   0.948  1.4607 -1.2717 -1.6309
 1024MOL0     H38197   7.158   5.265   0.849 -1.1105  1.0155 -0.2684
 1024MOL0     H38198   6.955   5.428   0.922 -1.1141  0.7693 -1.1836
 1024MOL0     H38199   6.885   5.272   0.975 -1.1809  1.2908 -0.3757
 1024MOL0     H38200   6.825   5.207   0.556  1.2682 -0.3290  2.1399
 1024MOL0     H38201   6.662   5.151   0.402  4.7503  2.8443  0.7026
 1024MOL0     H38202   6.495   5.212   0.411  0.8675 -4.4530  0.0914
 1024MOL0     H38203   6.615   5.304   0.323 -0.4558  0.0701  0.0928
 1024MOL0     H38204   6.132   5.433   0.580  2.0333  1.0683  4.0640
 1024MOL0     H38205   5.905   5.556   0.534 -0.4252 -0.0127  0.8000
 1024MOL0     H38206   5.896   5.881   0.274  0.1406  0.5021  1.7834
 1024MOL0     H38207   5.861   5.705   0.295 -1.8918 -0.8174 -0.0473
 1024MOL0     H38208   5.632   5.757   0.281 -0.4171 -3.6877  2.1560
 1024MOL0     H38209   5.669   5.788   0.455  0.4105  0.7781  0.3905
 1024MOL0     H38210   5.646   5.977   0.214  3.0260 -0.8342  0.4563
 1024MOL0     H38211   5.706   6.042   0.353  0.3435  1.4769 -1.7042
 1024MOL0     H38212   5.427   5.935   0.355 -0.3964 -1.1063  0.8399
 1024MOL0     H38213   5.506   6.015   0.492 -1.7651 -1.4030 -0.1501
 1024MOL0     H38214   5.463   6.146   0.234  4.0776 -1.3086 -0.1031
 1024MOL0     H38215   5.560   6.216   0.365 -0.9322  1.1872  0.4648
 1024MOL0     H38216   5.361   6.216   0.519 -0.0037  1.1802  0.0851
 1024MOL0     H38217   5.327   6.294   0.359  1.7152 -2.7100 -6.6121
 1024MOL0     H38218   5.153   6.144   0.440  1.4657 -1.7319  1.6834
 1024MOL0     H38219   5.237   6.010   0.416 -3.0495 -0.3669 -0.5569
 1024MOL0     H38220   5.272   6.030   0.170 -0.7133 -0.8410 -0.0285
 1024MOL0     H38221   5.182   6.181   0.171 -0.1354  1.2744  1.7180
 1024MOL0     H38222   6.127   5.916   0.467  2.4146 -0.1396 -0.1171
 1024MOL0     H38223   6.333   5.814   0.548  0.0285  0.3872 -0.9767
 1024MOL0     H38224   6.544   5.537   0.793 -0.3550  0.0650 -0.7535
 1024MOL0     H38225   6.730   5.452   0.899 -0.0203 -0.8914 -0.5095
 1024MOL0     H38226   8.213   6.468   1.613 -0.4975  0.5862  1.7634
 1024MOL0     H38227   8.375   6.600   1.742  3.3082  0.1776  0.3265
 1024MOL0     H38228   8.553   6.771   2.005 -1.8478  1.1330 -0.0936
 1024MOL0     H38229   8.686   6.964   2.099  3.6047  0.8383  1.0641
 1024MOL0     H38230   8.939   7.174   2.196 -4.8601  0.2757  2.4105
 1024MOL0     H38231   8.838   7.042   2.229  0.9765  0.0432  1.8622
 1024MOL0     H38232   9.017   6.887   2.249  0.0296 -0.3261  0.8898
 1024MOL0     H38233   9.039   7.027   2.359 -1.5131 -1.5221 -0.0824
 1024MOL0     H38234   9.192   7.132   2.191  0.0092  0.9976  0.4034
 1024MOL0     H38235   9.190   6.968   2.102 -1.0167  2.1232  0.3196
 1024MOL0     H38236   9.309   7.001   2.378 -0.5013  0.5180  0.1372
 1024MOL0     H38237   9.386   7.012   2.226  1.4342 -1.1922  0.4880
 1024MOL0     H38238   9.384   6.597   2.261  2.9865  0.7788 -0.6634
 1024MOL0     H38239   9.012   6.874   1.856 -0.8009  0.4754 -1.6464
 1024MOL0     H38240   8.917   6.675   1.775  0.9118  0.3490  1.0680
  11.36480  11.36480  11.36480
